FOO
138240
    1MOL0     O    1   5.462   6.287   5.466 -0.3327  0.5173  0.2900
    1MOL0     C    2   5.455   6.378   5.544  0.7616 -0.4625  0.7982
    1MOL0     O    3   5.356   6.474   5.539 -0.1458 -0.5027  0.5304
    1MOL0     C    4   5.227   6.439   5.507  0.2047  0.2960  0.1333
    1MOL0     C    5   5.156   6.536   5.443 -0.3650  0.9868  0.8827
    1MOL0     C    6   5.024   6.524   5.411 -1.1724  0.7065  0.3184
    1MOL0     C    7   4.961   6.410   5.450  0.6591  1.0406 -0.3270
    1MOL0     O    8   4.826   6.405   5.437 -0.7598 -0.1007 -0.4784
    1MOL0     C    9   4.755   6.477   5.537 -1.3154  0.4733  0.6312
    1MOL0     C   10   4.741   6.624   5.520  0.1482 -0.6361 -0.1959
    1MOL0     C   11   4.651   6.689   5.623  0.3726 -0.0334  0.4277
    1MOL0     C   12   4.651   6.842   5.595  0.3486 -0.0696 -0.7540
    1MOL0     C   13   4.509   6.897   5.559  0.5131  0.2078  0.1812
    1MOL0     C   14   4.512   7.047   5.571 -0.2110  0.3244 -0.1185
    1MOL0     C   15   4.381   7.117   5.529 -0.0524  0.7186 -0.1994
    1MOL0     C   16   4.396   7.145   5.380 -0.2478  0.1360 -0.4019
    1MOL0     N   17   4.276   7.208   5.312  1.0172 -0.8746 -0.3495
    1MOL0     C   18   4.155   7.153   5.305  1.0457  0.5640  1.2415
    1MOL0     C   19   4.081   7.254   5.250  0.6772  0.3487 -0.3776
    1MOL0     C   20   3.935   7.256   5.222  0.2705  0.6973  0.7109
    1MOL0     C   21   3.854   7.333   5.328 -0.8317  0.0402 -0.3644
    1MOL0     C   22   3.853   7.252   5.461 -0.0441  1.2807 -0.2910
    1MOL0     C   23   3.782   7.317   5.568 -0.3525 -0.7913 -0.0749
    1MOL0     O   24   3.864   7.423   5.621 -0.1080 -0.1243  0.4252
    1MOL0     C   25   3.986   7.401   5.677 -0.2210  0.5838  0.0861
    1MOL0     C   26   4.026   7.287   5.745  0.5006 -0.2758 -0.0168
    1MOL0     C   27   4.150   7.267   5.787  0.6674  0.1218 -0.0128
    1MOL0     C   28   4.239   7.372   5.786  0.0757  0.1518  0.2133
    1MOL0     C   29   4.377   7.333   5.838 -0.1440 -0.7794 -0.6273
    1MOL0     O   30   4.481   7.428   5.833  0.0796 -0.1263 -0.1800
    1MOL0     C   31   4.601   7.394   5.892  0.0872  0.0301 -0.6600
    1MOL0     C   32   4.695   7.304   5.827 -0.2584  0.0162  0.2174
    1MOL0     C   33   4.819   7.279   5.886 -0.6752 -0.6712  0.0455
    1MOL0     C   34   4.865   7.356   5.995  0.6135 -0.5827 -0.8336
    1MOL0     O   35   4.996   7.354   6.033  0.5393 -0.0657 -1.0113
    1MOL0     C   36   5.070   7.233   6.000 -0.4585 -0.5085  0.7506
    1MOL0     C   37   5.210   7.247   6.054 -0.4529  0.2642 -0.2448
    1MOL0     C   38   5.225   7.291   6.197  0.2527 -0.2106 -0.3385
    1MOL0     C   39   5.365   7.275   6.240 -0.6332  0.2383 -0.7512
    1MOL0     C   40   5.385   7.298   6.401  1.0915 -0.3006  1.2736
    1MOL0     C   41   5.526   7.252   6.437  0.4600 -0.2881  0.0585
    1MOL0     C   42   5.554   7.271   6.583  0.6662 -0.5414 -1.3366
    1MOL0     C   43   5.691   7.218   6.630  0.6766  1.1137 -0.5423
    1MOL0    Cl   44   5.822   7.301   6.527 -0.0776  0.1057  0.6426
    1MOL0     C   45   4.781   7.454   6.036 -0.7286 -0.4603  0.2940
    1MOL0     C   46   4.645   7.473   5.994 -0.6157 -0.5907  0.3535
    1MOL0     O   47   4.387   7.218   5.870 -0.2914 -0.7382  0.3813
    1MOL0     C   48   4.204   7.489   5.724 -0.8420 -0.1086 -0.0925
    1MOL0     C   49   4.075   7.506   5.675  0.3768  0.6769 -1.2960
    1MOL0     N   50   4.161   7.363   5.235 -0.1604  0.6528 -0.1948
    1MOL0     N   51   4.272   7.337   5.284 -0.2198  0.1348  0.4270
    1MOL0     C   52   5.031   6.310   5.516  0.2041  0.0033 -0.7346
    1MOL0     C   53   5.163   6.328   5.547 -0.1160  0.5565 -0.7881
    1MOL0     C   54   5.564   6.388   5.650 -0.7365  1.0358  0.2786
    1MOL0     C   55   5.536   6.474   5.760  0.4928  0.5230 -0.2043
    1MOL0     C   56   5.623   6.479   5.868  0.1462 -0.9035 -0.6300
    1MOL0     C   57   5.742   6.407   5.871 -0.3700  0.4489  0.2860
    1MOL0     O   58   5.820   6.397   5.980  0.7314  0.8635  0.0731
    1MOL0     C   59   5.884   6.517   6.038 -1.3565  0.4920 -0.2667
    1MOL0     C   60   6.010   6.560   5.957 -1.1589  0.6603  0.7617
    1MOL0     C   61   6.115   6.448   5.972 -0.3817 -0.9868  0.2782
    1MOL0     C   62   6.257   6.499   5.942 -0.1416  0.0851  0.7290
    1MOL0     C   63   6.359   6.463   6.038 -0.8372  0.3920  0.1125
    1MOL0     C   64   6.458   6.425   6.105  0.4862 -0.5178  0.5882
    1MOL0     C   65   5.772   6.327   5.760 -0.6736 -0.4749 -0.3828
    1MOL0     C   66   5.692   6.317   5.645  0.0984 -0.0211  0.1752
    1MOL0     C   67   5.759   6.259   5.525 -0.8269 -0.6126 -0.0828
    1MOL0     H   68   5.208   6.622   5.401 -2.8856  1.2021 -2.1330
    1MOL0     H   69   4.972   6.610   5.368 -1.7228 -0.4830 -1.5058
    1MOL0     H   70   4.651   6.442   5.542 -1.0157 -0.3306  1.6095
    1MOL0     H   71   4.799   6.445   5.632 -1.7536  1.4896  1.1912
    1MOL0     H   72   4.715   6.637   5.415  1.9873 -1.6255 -0.8314
    1MOL0     H   73   4.842   6.662   5.537 -1.1454  1.7480  3.1639
    1MOL0     H   74   4.688   6.672   5.724  0.3465 -2.8624  0.0368
    1MOL0     H   75   4.548   6.656   5.611  0.2085  0.8603 -0.9468
    1MOL0     H   76   4.692   6.889   5.684  1.8986  2.2867 -2.6058
    1MOL0     H   77   4.717   6.860   5.510  2.8213 -0.7773  0.9213
    1MOL0     H   78   4.496   6.882   5.451 -2.2281  0.3036  0.4295
    1MOL0     H   79   4.427   6.849   5.614  0.0839 -2.2506 -2.3061
    1MOL0     H   80   4.530   7.068   5.677 -2.0058  1.8992 -0.0821
    1MOL0     H   81   4.595   7.092   5.516  0.5455 -0.3601  0.4214
    1MOL0     H   82   4.373   7.220   5.563 -5.5822  0.1602  1.1102
    1MOL0     H   83   4.287   7.079   5.570 -0.3320 -1.2799 -2.4235
    1MOL0     H   84   4.479   7.214   5.362  0.9842 -1.1920  0.0604
    1MOL0     H   85   4.409   7.045   5.338  0.9565 -0.0651  0.4275
    1MOL0     H   86   4.119   7.056   5.338 -3.1208  1.4335 -0.2297
    1MOL0     H   87   3.907   7.299   5.125  1.8079  0.0186 -0.0716
    1MOL0     H   88   3.897   7.154   5.220  1.2035  0.3456 -0.6802
    1MOL0     H   89   3.905   7.429   5.333 -0.3902 -0.0225 -2.6067
    1MOL0     H   90   3.753   7.352   5.291 -0.6595  1.9199  0.0738
    1MOL0     H   91   3.959   7.226   5.475 -0.1540 -0.1978 -1.8328
    1MOL0     H   92   3.807   7.156   5.436 -0.5183  1.3489  0.3181
    1MOL0     H   93   3.758   7.240   5.642 -3.3994 -0.0565 -0.1386
    1MOL0     H   94   3.682   7.346   5.533 -0.2589 -1.6992 -1.1586
    1MOL0     H   95   3.961   7.201   5.735 -0.2846  0.5291 -3.0854
    1MOL0     H   96   4.167   7.164   5.815  2.8165  0.1525 -0.9574
    1MOL0     H   97   4.662   7.251   5.738  0.0188  1.0613 -0.5370
    1MOL0     H   98   4.881   7.214   5.825 -2.0620 -3.8175  1.7195
    1MOL0     H   99   5.001   7.154   6.033 -3.1421  0.5041 -1.9795
    1MOL0     H  100   5.082   7.208   5.894  0.9597  0.2657  0.7098
    1MOL0     H  101   5.263   7.155   6.028 -0.7849  0.8428 -3.4897
    1MOL0     H  102   5.263   7.317   5.988  2.6817 -1.7798 -0.0802
    1MOL0     H  103   5.199   7.394   6.220 -0.3469 -0.2768 -0.6834
    1MOL0     H  104   5.160   7.225   6.255 -1.4461  0.3967 -1.4844
    1MOL0     H  105   5.432   7.351   6.198 -0.6213  1.7875  1.8421
    1MOL0     H  106   5.404   7.178   6.207 -1.5452 -0.6902  0.7672
    1MOL0     H  107   5.306   7.244   6.454  1.1889  1.3450  3.2031
    1MOL0     H  108   5.384   7.405   6.423  1.4856  0.4338 -1.8122
    1MOL0     H  109   5.533   7.146   6.408  2.2824 -0.4340  0.8734
    1MOL0     H  110   5.606   7.311   6.392 -0.9322  0.5599 -1.4256
    1MOL0     H  111   5.486   7.227   6.657  1.1915  0.1060 -0.4463
    1MOL0     H  112   5.560   7.380   6.591  3.0217 -0.6947 -0.1900
    1MOL0     H  113   5.708   7.240   6.736  1.8949  3.0539 -1.0703
    1MOL0     H  114   5.691   7.109   6.622 -0.1268  0.9639  1.0261
    1MOL0     H  115   4.828   7.512   6.114  1.9178  0.4571 -1.8026
    1MOL0     H  116   4.581   7.544   6.045  0.7863  0.7980  0.2104
    1MOL0     H  117   4.278   7.567   5.730  1.1272 -1.9951  1.7497
    1MOL0     H  118   4.046   7.605   5.641 -3.2438  0.2248  0.0652
    1MOL0     H  119   4.982   6.219   5.549  1.1726 -0.5639 -0.8457
    1MOL0     H  120   5.210   6.252   5.608 -2.4745  2.0165  3.2169
    1MOL0     H  121   5.446   6.534   5.769 -0.1064 -0.4416  0.4292
    1MOL0     H  122   5.604   6.547   5.950 -1.0781  2.0184 -3.1297
    1MOL0     H  123   5.909   6.496   6.142  2.4852  1.5236 -0.8578
    1MOL0     H  124   5.814   6.602   6.036 -2.2338 -0.2100 -0.0603
    1MOL0     H  125   6.049   6.654   5.997  1.8006 -0.7298  1.4244
    1MOL0     H  126   5.988   6.573   5.851  0.6518 -0.3747  0.2105
    1MOL0     H  127   6.085   6.378   5.894 -0.8484 -1.7607  1.1393
    1MOL0     H  128   6.118   6.409   6.074  1.0415  0.9530  1.0369
    1MOL0     H  129   6.285   6.461   5.843 -2.6298  0.3940 -0.1711
    1MOL0     H  130   6.253   6.608   5.932 -0.2339  0.1662  1.5966
    1MOL0     H  131   6.545   6.389   6.156  0.4595 -3.4318 -1.2024
    1MOL0     H  132   5.866   6.275   5.767 -1.6705 -2.0992  2.1816
    1MOL0     H  133   5.712   6.163   5.502 -0.1362 -1.8673  3.2224
    1MOL0     H  134   5.757   6.323   5.436 -1.3395 -1.0522 -0.3949
    1MOL0     H  135   5.862   6.222   5.536 -0.7739 -0.1813  0.9586
    2MOL0     O  136   9.186  11.330  11.188 -0.2567  0.0227  0.8026
    2MOL0     C  137   9.247  11.422  11.239 -0.6824 -0.0513 -0.0032
    2MOL0     O  138   9.383  11.423  11.271  0.4373 -0.5391  0.0076
    2MOL0     C  139   9.446  11.306  11.254 -0.0436 -0.0992 -0.2858
    2MOL0     C  140   9.486  11.230  11.367 -0.0210  0.1873  0.4143
    2MOL0     C  141   9.570  11.117  11.356  0.2793 -0.0098 -0.8241
    2MOL0     C  142   9.636  11.076  11.243 -0.6276  0.1033 -0.0907
    2MOL0     O  143   9.730  10.975  11.262  0.2618 -0.2063 -0.4801
    2MOL0     C  144   9.813  10.941  11.147 -0.4018  0.5453 -0.2610
    2MOL0     C  145   9.943  10.883  11.202 -0.0612  0.4637 -0.7541
    2MOL0     C  146  10.049  10.993  11.216  0.4456  0.7433  0.3871
    2MOL0     C  147  10.188  10.927  11.259  0.5579  0.0761 -0.6694
    2MOL0     C  148  10.248  10.829  11.152  0.0799 -0.5491 -0.7663
    2MOL0     C  149  10.403  10.807  11.170  0.4375  0.4397  0.2532
    2MOL0     C  150  10.447  10.714  11.051  0.1111 -0.0446  0.0728
    2MOL0     C  151  10.445  10.793  10.915 -0.1970  0.2851  0.4798
    2MOL0     N  152  10.498  10.715  10.799 -0.2846  0.1351 -0.2089
    2MOL0     C  153  10.634  10.713  10.771 -0.0246  0.2023  1.0788
    2MOL0     C  154  10.642  10.646  10.650  0.0203 -0.3679 -0.6902
    2MOL0     C  155  10.773  10.595  10.591  0.1743 -0.4210  0.4645
    2MOL0     C  156  10.897  10.647  10.648 -0.1881  0.9011 -0.1131
    2MOL0     C  157  10.939  10.782  10.580  0.1281  0.2680  0.0677
    2MOL0     C  158  11.053  10.843  10.663  0.4543 -0.5358  0.3130
    2MOL0     O  159  11.153  10.746  10.679 -0.6889  0.8667  0.6523
    2MOL0     C  160  11.283  10.786  10.677  0.7141 -0.8787 -0.0341
    2MOL0     C  161  11.369  10.704  10.603 -0.5764  0.2181 -0.2513
    2MOL0     C  162  11.506  10.729  10.578 -0.1845  0.6429 -0.6168
    2MOL0     C  163  11.565  10.846  10.631 -0.0424  0.4294 -1.2064
    2MOL0     C  164  11.697  10.890  10.589 -0.3232  0.1108  0.3178
    2MOL0     O  165  11.741  11.021  10.638  0.6098  0.2372 -0.2767
    2MOL0     C  166  11.871  11.057  10.618  0.6131 -0.5133 -0.0389
    2MOL0     C  167  11.976  10.978  10.638  0.3944  0.4370 -0.5860
    2MOL0     C  168  12.102  11.032  10.620 -0.2178 -0.0223  0.0557
    2MOL0     C  169  12.132  11.156  10.575 -0.1156 -0.1688  0.3310
    2MOL0     O  170  12.259  11.199  10.540 -0.2568  0.1152 -0.3884
    2MOL0     C  171  12.368  11.163  10.624 -0.8096  0.4176  0.7590
    2MOL0     C  172  12.395  11.278  10.714  0.1565  0.1106 -0.5360
    2MOL0     C  173  12.541  11.268  10.771 -0.3124  0.5700  0.1207
    2MOL0     C  174  12.640  11.348  10.693  0.2699 -0.7826 -0.5655
    2MOL0     C  175  12.654  11.493  10.758  0.0813  0.0839  0.0919
    2MOL0     C  176  12.769  11.560  10.687 -0.0743 -1.1941  0.7045
    2MOL0     C  177  12.792  11.706  10.731 -1.0279 -1.1033 -0.2474
    2MOL0     C  178  12.897  11.773  10.641 -0.1544  0.5703  0.6406
    2MOL0    Cl  179  13.058  11.693  10.670 -0.2226  0.5325  0.1974
    2MOL0     C  180  12.023  11.232  10.536 -0.2127 -0.6699 -0.6658
    2MOL0     C  181  11.898  11.196  10.579 -0.2366 -0.2194  0.2824
    2MOL0     O  182  11.762  10.828  10.510  0.8812  0.1198  0.0596
    2MOL0     C  183  11.480  10.929  10.713  0.2174  0.4821 -0.6529
    2MOL0     C  184  11.342  10.898  10.736 -0.2909 -0.7662  0.4631
    2MOL0     N  185  10.511  10.622  10.607  0.3022 -0.4073  0.2258
    2MOL0     N  186  10.426  10.671  10.695 -0.4982 -0.2203 -0.5861
    2MOL0     C  187   9.599  11.146  11.124  0.2068  0.9923 -0.0991
    2MOL0     C  188   9.509  11.252  11.132  0.7965 -0.2731  0.3750
    2MOL0     C  189   9.159  11.534  11.275 -0.2763 -0.6194  0.7896
    2MOL0     C  190   9.197  11.658  11.225  0.1619  0.2666 -0.0840
    2MOL0     C  191   9.122  11.769  11.249 -0.6096  0.2795  1.0590
    2MOL0     C  192   9.006  11.772  11.319  0.4027  0.7171  0.3685
    2MOL0     O  193   8.935  11.884  11.349  0.8069 -0.7124 -0.5702
    2MOL0     C  194   8.799  11.880  11.297 -0.3242  0.5130  0.7006
    2MOL0     C  195   8.798  12.014  11.216  0.5867 -0.5112 -0.0874
    2MOL0     C  196   8.659  12.048  11.170 -0.3178 -0.7214  1.4782
    2MOL0     C  197   8.589  11.940  11.087  0.9799  0.4181  0.5621
    2MOL0     C  198   8.654  11.928  10.957 -0.6923 -0.6223 -0.8327
    2MOL0     C  199   8.703  11.910  10.843  0.1249  0.0536 -0.6228
    2MOL0     C  200   8.961  11.645  11.377 -0.3296 -0.0829  0.1939
    2MOL0     C  201   9.034  11.526  11.349  0.0494  0.0459  0.1888
    2MOL0     C  202   8.971  11.397  11.396 -0.5238 -0.2622 -0.6922
    2MOL0     H  203   9.436  11.262  11.458  0.4467 -1.3765  1.2483
    2MOL0     H  204   9.567  11.061  11.449 -1.6712 -1.1950 -1.5329
    2MOL0     H  205   9.760  10.862  11.093 -0.7822  1.9397 -2.0138
    2MOL0     H  206   9.826  11.018  11.071  0.2500 -1.2491 -2.0566
    2MOL0     H  207   9.975  10.805  11.132 -1.3174 -2.8694  2.0898
    2MOL0     H  208   9.933  10.833  11.299  0.2456  2.8993  0.6072
    2MOL0     H  209  10.018  11.061  11.296  2.5455  3.7983 -1.2191
    2MOL0     H  210  10.051  11.055  11.126 -2.7093  1.0759  0.4500
    2MOL0     H  211  10.260  11.007  11.277 -0.2005  0.4517  0.8480
    2MOL0     H  212  10.174  10.871  11.351 -1.0729  1.4975  0.0048
    2MOL0     H  213  10.193  10.736  11.171 -0.5939  0.0284  0.2154
    2MOL0     H  214  10.215  10.865  11.054 -0.5029  2.7608  0.5453
    2MOL0     H  215  10.462  10.899  11.159  1.7518 -0.4601 -0.4985
    2MOL0     H  216  10.432  10.766  11.267 -1.5817  2.8063  1.9760
    2MOL0     H  217  10.372  10.635  11.042 -0.6355  0.5337  1.1295
    2MOL0     H  218  10.542  10.663  11.068 -1.3953 -2.6168  1.3639
    2MOL0     H  219  10.343  10.821  10.887  0.2500 -1.1068 -2.9529
    2MOL0     H  220  10.504  10.884  10.923 -0.9671  1.4310 -4.0328
    2MOL0     H  221  10.720  10.747  10.828  0.4607 -0.6664  0.8832
    2MOL0     H  222  10.760  10.486  10.599 -0.1242 -0.5613 -1.3913
    2MOL0     H  223  10.773  10.616  10.483 -0.3865  2.2585  0.9347
    2MOL0     H  224  10.894  10.657  10.757  0.1452 -2.2614  0.2794
    2MOL0     H  225  10.972  10.570  10.631 -1.3018 -0.1453 -0.4847
    2MOL0     H  226  10.852  10.845  10.559 -0.2296 -0.0376  0.6107
    2MOL0     H  227  10.983  10.762  10.481  1.3718 -0.4292  0.7310
    2MOL0     H  228  11.017  10.881  10.759  0.1096 -0.2217  0.0598
    2MOL0     H  229  11.098  10.932  10.617  0.8002  0.0673  1.7597
    2MOL0     H  230  11.327  10.611  10.565 -0.5385 -1.1244  2.7698
    2MOL0     H  231  11.563  10.664  10.512  2.5126  0.2867  1.9020
    2MOL0     H  232  11.970  10.873  10.666 -1.7853 -0.2976 -3.3347
    2MOL0     H  233  12.189  10.968  10.635  2.6544  3.2375 -1.2484
    2MOL0     H  234  12.352  11.070  10.679 -0.1221 -0.5484 -0.6099
    2MOL0     H  235  12.453  11.146  10.557 -0.7178 -0.8527  1.1740
    2MOL0     H  236  12.381  11.372  10.661 -1.9196 -0.0178 -0.2863
    2MOL0     H  237  12.327  11.267  10.799 -0.3329 -2.9698 -1.1813
    2MOL0     H  238  12.540  11.317  10.868  1.1630  0.8240  0.0337
    2MOL0     H  239  12.572  11.164  10.787 -1.5863  0.6668  4.2408
    2MOL0     H  240  12.603  11.356  10.590  1.2203  2.2142 -0.7791
    2MOL0     H  241  12.735  11.294  10.686  2.2078  2.4776 -1.4665
    2MOL0     H  242  12.677  11.476  10.863  0.9907 -1.9008 -0.3727
    2MOL0     H  243  12.571  11.561  10.740 -0.3644  0.4788  3.1387
    2MOL0     H  244  12.859  11.498  10.689 -0.0293 -1.1231  0.9718
    2MOL0     H  245  12.736  11.580  10.584 -0.8337  2.9891  1.5762
    2MOL0     H  246  12.828  11.711  10.834  1.9895  0.0726 -1.2705
    2MOL0     H  247  12.702  11.768  10.737  1.3309  2.4854  2.0600
    2MOL0     H  248  12.866  11.759  10.537  2.2217  1.3195 -0.2344
    2MOL0     H  249  12.908  11.880  10.660  1.6595 -0.1136  4.1439
    2MOL0     H  250  12.054  11.323  10.486  0.5416 -0.9247 -0.6883
    2MOL0     H  251  11.814  11.263  10.567  0.6086  0.5122 -2.2624
    2MOL0     H  252  11.515  11.018  10.764  0.0378 -0.6787  1.5747
    2MOL0     H  253  11.271  10.957  10.793 -2.7881 -0.1615 -2.9447
    2MOL0     H  254   9.624  11.112  11.024 -1.9510  1.3826 -0.8186
    2MOL0     H  255   9.492  11.316  11.046 -1.9173 -0.7822  0.4132
    2MOL0     H  256   9.281  11.660  11.156  0.5154 -1.0429  0.2667
    2MOL0     H  257   9.171  11.864  11.230  2.2097 -1.3587 -0.6602
    2MOL0     H  258   8.727  11.882  11.380 -0.0843 -0.5853  0.9491
    2MOL0     H  259   8.784  11.793  11.233  2.5782 -0.0913  0.7071
    2MOL0     H  260   8.864  11.991  11.131 -0.8656 -0.4354 -1.2726
    2MOL0     H  261   8.838  12.098  11.274  2.5338 -1.1734 -0.3780
    2MOL0     H  262   8.656  12.139  11.109 -1.0843 -1.8872 -0.3102
    2MOL0     H  263   8.604  12.063  11.264  1.0222 -0.0798  2.1925
    2MOL0     H  264   8.578  11.845  11.139  0.0144 -0.1464 -0.6472
    2MOL0     H  265   8.488  11.970  11.058 -0.4348 -3.2086  1.2545
    2MOL0     H  266   8.732  11.897  10.741 -2.5081 -2.0543 -1.2037
    2MOL0     H  267   8.874  11.645  11.441  0.1697  0.8199  0.8975
    2MOL0     H  268   9.036  11.329  11.451  1.6115  2.3727  0.2763
    2MOL0     H  269   8.880  11.414  11.454  0.0933 -0.2583  0.2935
    2MOL0     H  270   8.932  11.341  11.310  1.4477  0.7248 -2.3309
    3MOL0     O  271   6.482   5.345   2.620 -0.2423  0.3989 -0.6398
    3MOL0     C  272   6.383   5.326   2.692 -0.3032  0.7844  0.6584
    3MOL0     O  273   6.377   5.252   2.804  0.3124 -0.6979 -0.6735
    3MOL0     C  274   6.469   5.156   2.832  0.0508 -0.5764 -0.4072
    3MOL0     C  275   6.548   5.086   2.745  0.0755 -0.0337 -0.5356
    3MOL0     C  276   6.644   4.991   2.790 -0.1953  0.0055 -0.3417
    3MOL0     C  277   6.641   4.951   2.922 -0.9487 -0.3269 -0.3073
    3MOL0     O  278   6.723   4.841   2.941 -0.0998 -0.3807  0.0830
    3MOL0     C  279   6.776   4.812   3.070  0.7712 -0.6606 -0.2663
    3MOL0     C  280   6.842   4.681   3.062 -0.3833  0.7634  0.4865
    3MOL0     C  281   6.982   4.690   3.013 -0.5169  0.0389  0.4080
    3MOL0     C  282   7.037   4.545   2.980 -0.1951 -0.1520  0.5522
    3MOL0     C  283   7.191   4.527   2.950  0.1499  0.1187 -0.2055
    3MOL0     C  284   7.228   4.383   2.923 -0.0562  0.8214 -0.3210
    3MOL0     C  285   7.381   4.360   2.909 -0.3711  0.1915 -0.2156
    3MOL0     C  286   7.435   4.431   2.780  0.0724  1.1366  0.3008
    3MOL0     N  287   7.581   4.415   2.779 -0.0060  0.0158 -0.0080
    3MOL0     C  288   7.645   4.316   2.702 -0.1816 -0.6046  0.6426
    3MOL0     C  289   7.772   4.328   2.740  0.0958  0.7503 -0.1860
    3MOL0     C  290   7.894   4.273   2.660 -0.0647  0.0872  0.1957
    3MOL0     C  291   7.907   4.129   2.659  0.2019 -0.5496 -0.0604
    3MOL0     C  292   8.044   4.073   2.606 -0.8051 -0.1035 -0.6360
    3MOL0     C  293   8.076   4.128   2.465 -0.4820 -0.3133  0.1307
    3MOL0     O  294   8.214   4.089   2.433 -0.5907 -0.0560  0.2233
    3MOL0     C  295   8.291   4.193   2.378 -0.6283  0.2686  0.5144
    3MOL0     C  296   8.364   4.178   2.254  0.5922  0.6620 -0.4736
    3MOL0     C  297   8.454   4.280   2.219 -0.7508  0.4735 -0.9258
    3MOL0     C  298   8.460   4.407   2.278  0.9741 -0.0110 -0.4328
    3MOL0     C  299   8.545   4.513   2.225 -0.0532 -0.2819  0.3434
    3MOL0     O  300   8.657   4.476   2.147 -0.5277  0.2755 -0.2797
    3MOL0     C  301   8.785   4.509   2.176  0.3201 -0.7875  0.3653
    3MOL0     C  302   8.878   4.456   2.087  0.1506 -0.3835  0.7584
    3MOL0     C  303   9.012   4.487   2.110 -0.8599 -0.9223 -0.1692
    3MOL0     C  304   9.062   4.560   2.223  0.7607  0.5236  0.8495
    3MOL0     O  305   9.197   4.568   2.245 -0.4884 -0.2240 -0.7102
    3MOL0     C  306   9.289   4.517   2.145  1.3348  0.7478 -0.1797
    3MOL0     C  307   9.439   4.526   2.194 -0.2743 -0.0460  0.5286
    3MOL0     C  308   9.528   4.518   2.068  0.1765 -0.5502  0.3988
    3MOL0     C  309   9.674   4.508   2.121 -0.3481  0.1329 -0.4998
    3MOL0     C  310   9.758   4.431   2.017  0.5476  0.2043 -0.2813
    3MOL0     C  311   9.904   4.435   2.062 -0.8488  0.7367 -0.1424
    3MOL0     C  312   9.993   4.348   1.977 -0.1052  0.7031  1.1750
    3MOL0     C  313  10.132   4.366   2.028 -0.9273 -0.5344  0.1006
    3MOL0    Cl  314  10.191   4.533   2.046 -0.2160  0.0822 -0.1279
    3MOL0     C  315   8.966   4.621   2.298  0.4761  0.2765  0.3026
    3MOL0     C  316   8.832   4.594   2.280  0.4464 -0.4002  0.4040
    3MOL0     O  317   8.513   4.630   2.251 -0.4159 -0.2266 -0.4864
    3MOL0     C  318   8.371   4.425   2.391  0.3271 -1.1992  0.6173
    3MOL0     C  319   8.293   4.320   2.442  0.6606 -0.2649 -1.1942
    3MOL0     N  320   7.784   4.420   2.844 -0.1170 -0.4695  0.2094
    3MOL0     N  321   7.672   4.482   2.848 -0.0098  0.2348  0.8736
    3MOL0     C  322   6.566   5.020   3.020 -0.0732  0.7301  0.2910
    3MOL0     C  323   6.480   5.120   2.971 -0.1326 -0.6181  0.6942
    3MOL0     C  324   6.252   5.383   2.643 -0.1435  0.7062  0.0466
    3MOL0     C  325   6.140   5.301   2.653 -0.5469 -0.0194 -0.7734
    3MOL0     C  326   6.020   5.344   2.602  0.5343  0.3495 -0.8948
    3MOL0     C  327   6.009   5.463   2.534 -0.2784 -0.5284 -0.5388
    3MOL0     O  328   5.896   5.521   2.489  0.1249  0.1397  0.8262
    3MOL0     C  329   5.786   5.505   2.584  0.6069 -0.0905 -0.0610
    3MOL0     C  330   5.687   5.622   2.560  0.4292  0.4419  0.8606
    3MOL0     C  331   5.612   5.614   2.422  0.4936 -0.4431 -0.4582
    3MOL0     C  332   5.495   5.513   2.415 -0.0927  0.6691 -0.3374
    3MOL0     C  333   5.431   5.512   2.285  0.1526  0.3010  0.1698
    3MOL0     C  334   5.390   5.514   2.178  0.0701  0.9877  0.3478
    3MOL0     C  335   6.120   5.536   2.508 -0.6916  0.3416  0.3311
    3MOL0     C  336   6.243   5.497   2.560  0.7978 -1.1357 -0.0908
    3MOL0     C  337   6.350   5.591   2.514  0.1490 -0.0175  0.4762
    3MOL0     H  338   6.526   5.106   2.641 -2.3786  0.5211  0.0346
    3MOL0     H  339   6.705   4.940   2.715  0.9980  1.8218 -0.6727
    3MOL0     H  340   6.847   4.893   3.090  1.2992 -1.2495  0.2480
    3MOL0     H  341   6.697   4.815   3.145 -0.3501 -0.6441 -1.4105
    3MOL0     H  342   6.779   4.621   2.996  1.8584  1.0037 -2.0475
    3MOL0     H  343   6.851   4.629   3.158 -0.1606  1.2417  0.7279
    3MOL0     H  344   7.047   4.734   3.089  1.2478 -1.1388 -0.3461
    3MOL0     H  345   6.998   4.747   2.921 -1.5800  1.1385  0.8749
    3MOL0     H  346   7.014   4.473   3.059  0.7481 -4.0272 -2.3917
    3MOL0     H  347   6.975   4.516   2.894 -1.2913  1.2430  0.8313
    3MOL0     H  348   7.200   4.586   2.858 -1.6485  1.4166  0.4125
    3MOL0     H  349   7.267   4.575   3.012  1.2489 -0.9229 -0.7061
    3MOL0     H  350   7.198   4.320   3.007 -1.0912 -1.1599 -2.0879
    3MOL0     H  351   7.168   4.342   2.841 -1.0179 -0.6084  1.0335
    3MOL0     H  352   7.411   4.255   2.902  0.0048  0.3591 -1.3882
    3MOL0     H  353   7.427   4.398   3.000 -1.3840  1.2687 -0.1333
    3MOL0     H  354   7.388   4.388   2.691 -1.6144  0.9478  1.2464
    3MOL0     H  355   7.414   4.539   2.783 -1.5435  0.8920 -0.9800
    3MOL0     H  356   7.620   4.241   2.628  2.6302 -1.8977  0.8725
    3MOL0     H  357   7.883   4.314   2.559 -0.9261  0.3617  0.3903
    3MOL0     H  358   7.986   4.305   2.708  0.0020  1.4743 -0.7871
    3MOL0     H  359   7.884   4.085   2.756  3.6877 -2.4761  0.0595
    3MOL0     H  360   7.828   4.092   2.593  1.0445 -0.8496 -0.9263
    3MOL0     H  361   8.037   3.964   2.604 -3.2903 -0.0101 -0.2130
    3MOL0     H  362   8.123   4.096   2.678 -0.5339  2.7736 -1.7371
    3MOL0     H  363   8.055   4.233   2.442  0.2982 -0.4138 -1.1253
    3MOL0     H  364   8.011   4.081   2.391  4.1993 -2.7186 -2.9083
    3MOL0     H  365   8.357   4.092   2.188  0.8895  2.7357 -3.3431
    3MOL0     H  366   8.519   4.267   2.133  0.9476  1.9193  0.0611
    3MOL0     H  367   8.843   4.397   2.003 -2.2170  2.2003 -0.2230
    3MOL0     H  368   9.082   4.464   2.031 -2.4567  2.0569 -2.6655
    3MOL0     H  369   9.260   4.413   2.128 -0.4616  1.2047 -0.0957
    3MOL0     H  370   9.289   4.572   2.051  1.2363  0.2201 -0.4922
    3MOL0     H  371   9.458   4.626   2.234  2.5438  0.5333 -1.9015
    3MOL0     H  372   9.460   4.451   2.271 -1.3094 -0.2181  0.6485
    3MOL0     H  373   9.513   4.423   2.016  3.7978 -1.0589  0.0774
    3MOL0     H  374   9.511   4.594   1.992  2.4353 -2.1019 -1.8224
    3MOL0     H  375   9.677   4.464   2.221 -0.2338 -2.8667 -1.7110
    3MOL0     H  376   9.717   4.609   2.125 -0.1457 -0.0022  1.8303
    3MOL0     H  377   9.752   4.485   1.922 -2.7833  1.4293  0.5038
    3MOL0     H  378   9.724   4.331   1.989  0.4703  0.2944 -0.5090
    3MOL0     H  379   9.942   4.537   2.056 -0.4829  0.5528 -1.3979
    3MOL0     H  380   9.906   4.393   2.163 -0.2018 -2.0350 -1.2010
    3MOL0     H  381   9.987   4.371   1.870 -0.3635 -0.9385  0.8237
    3MOL0     H  382   9.975   4.242   1.993  0.9021  0.1510 -1.0979
    3MOL0     H  383  10.142   4.318   2.126 -0.7584  0.4294  0.5614
    3MOL0     H  384  10.201   4.314   1.961 -1.3166  2.1795 -2.6288
    3MOL0     H  385   9.001   4.680   2.383 -0.0957  3.6995 -1.6351
    3MOL0     H  386   8.758   4.637   2.347  0.5860  0.9622 -0.2899
    3MOL0     H  387   8.361   4.524   2.435  0.9563 -1.8469  2.3372
    3MOL0     H  388   8.226   4.337   2.526  1.2566  0.0953 -0.7844
    3MOL0     H  389   6.572   4.991   3.124  3.7693 -0.1869 -0.0022
    3MOL0     H  390   6.418   5.174   3.042  0.8314  1.4441  0.0399
    3MOL0     H  391   6.130   5.219   2.723 -2.2106  0.6597 -0.1761
    3MOL0     H  392   5.926   5.296   2.627  1.9425 -1.5624  1.1789
    3MOL0     H  393   5.826   5.518   2.685 -0.0119  1.6612  0.0015
    3MOL0     H  394   5.742   5.405   2.580  2.0603 -0.7572  0.0696
    3MOL0     H  395   5.744   5.715   2.567  2.6581 -0.5380 -2.0545
    3MOL0     H  396   5.610   5.609   2.637 -2.8900 -0.5514 -2.3274
    3MOL0     H  397   5.691   5.597   2.348  0.4505 -0.0122 -0.6019
    3MOL0     H  398   5.576   5.717   2.411 -0.2097 -0.3629  2.0772
    3MOL0     H  399   5.524   5.413   2.451 -0.6524 -0.3489 -2.5200
    3MOL0     H  400   5.413   5.533   2.485  0.6142 -0.6063  0.9247
    3MOL0     H  401   5.362   5.518   2.074  1.8332 -2.8210 -0.4850
    3MOL0     H  402   6.109   5.631   2.455 -0.3595  0.5259  0.5871
    3MOL0     H  403   6.413   5.590   2.603 -1.2175 -2.4053  1.5107
    3MOL0     H  404   6.415   5.554   2.434  1.4482 -1.3639  2.0859
    3MOL0     H  405   6.311   5.693   2.504 -0.5080  0.1344  3.5790
    4MOL0     O  406   4.950  10.512   0.051  0.4071 -0.1385  0.2739
    4MOL0     C  407   4.881  10.594  -0.014  0.8453 -0.1195  0.0690
    4MOL0     O  408   4.931  10.708  -0.074 -0.4373  0.4242  0.1892
    4MOL0     C  409   5.064  10.712  -0.108 -0.3848  1.4161  0.8179
    4MOL0     C  410   5.108  10.666  -0.229 -0.4625  0.1432  0.0581
    4MOL0     C  411   5.250  10.669  -0.251 -0.3260  0.0467  0.2988
    4MOL0     C  412   5.348  10.723  -0.165 -0.3796  0.1279  0.3274
    4MOL0     O  413   5.481  10.743  -0.181 -0.9568 -0.1128 -0.4893
    4MOL0     C  414   5.537  10.743  -0.312 -0.1423  0.0192 -0.0602
    4MOL0     C  415   5.580  10.599  -0.352  0.0281  0.2016 -0.6081
    4MOL0     C  416   5.700  10.550  -0.263  1.2597  0.1188  0.0541
    4MOL0     C  417   5.656  10.431  -0.165  0.1027  0.3841 -0.7116
    4MOL0     C  418   5.792  10.400  -0.097 -0.0514 -0.3670  0.4374
    4MOL0     C  419   5.777  10.314   0.032 -0.2967  0.4202  0.8648
    4MOL0     C  420   5.911  10.291   0.100 -0.0013 -0.2431 -1.2618
    4MOL0     C  421   6.021  10.266   0.006  0.1528  0.2232 -0.5157
    4MOL0     N  422   6.137  10.207   0.074 -0.5727 -0.0119 -0.4947
    4MOL0     C  423   6.212  10.263   0.174  0.4704  0.3845 -0.7295
    4MOL0     C  424   6.310  10.172   0.197 -0.0205 -0.8538 -0.3188
    4MOL0     C  425   6.432  10.206   0.284 -0.2433  0.6591  0.5179
    4MOL0     C  426   6.505  10.315   0.215 -0.2812 -0.4979 -0.3119
    4MOL0     C  427   6.632  10.383   0.275  0.4577  1.0538 -0.0136
    4MOL0     C  428   6.725  10.448   0.165 -0.5361  0.4380  0.3926
    4MOL0     O  429   6.826  10.541   0.217  0.0177  0.1660  0.0769
    4MOL0     C  430   6.784  10.655   0.272  0.3765 -0.5669 -0.8164
    4MOL0     C  431   6.882  10.735   0.337 -0.6502 -1.8614 -0.9087
    4MOL0     C  432   6.868  10.863   0.393  0.3990  0.2599  0.0368
    4MOL0     C  433   6.733  10.910   0.388  1.0755  0.1844  0.1014
    4MOL0     C  434   6.692  11.045   0.417  0.0724 -0.8410 -0.3094
    4MOL0     O  435   6.792  11.137   0.442  0.0485  0.1608 -0.0482
    4MOL0     C  436   6.759  11.263   0.472  0.4469  0.6471  0.6124
    4MOL0     C  437   6.657  11.339   0.421 -0.0192 -0.2288 -0.2431
    4MOL0     C  438   6.642  11.473   0.454 -1.0665  0.6249  0.0004
    4MOL0     C  439   6.723  11.532   0.550 -0.0393 -0.7628  1.3497
    4MOL0     O  440   6.684  11.655   0.577 -0.0836 -0.0801 -0.5927
    4MOL0     C  441   6.675  11.682   0.720 -1.1072  0.6605  0.2153
    4MOL0     C  442   6.573  11.793   0.748  0.7998  0.2394  0.1500
    4MOL0     C  443   6.538  11.801   0.896 -0.1189 -0.0652 -0.5389
    4MOL0     C  444   6.460  11.928   0.942  0.2433 -0.1454  0.2248
    4MOL0     C  445   6.555  12.047   0.955 -0.1928 -0.3942  1.1003
    4MOL0     C  446   6.481  12.166   1.024  0.9172  0.9702  0.8346
    4MOL0     C  447   6.592  12.272   1.045 -0.5047  0.2134  0.4254
    4MOL0     C  448   6.547  12.403   1.091 -0.5907 -0.2576 -0.6437
    4MOL0    Cl  449   6.440  12.375   1.229  0.4831 -0.1531  0.5797
    4MOL0     C  450   6.825  11.462   0.599 -0.5929 -0.6928 -1.1681
    4MOL0     C  451   6.843  11.326   0.560 -0.3562 -0.3132 -0.2458
    4MOL0     O  452   6.568  11.072   0.421  0.0554  0.1753 -0.1969
    4MOL0     C  453   6.638  10.828   0.330  0.3153 -0.4919  0.4338
    4MOL0     C  454   6.657  10.703   0.280  0.7039 -0.8259  0.6866
    4MOL0     N  455   6.304  10.069   0.107 -0.2775  0.0382  0.6708
    4MOL0     N  456   6.193  10.086   0.043 -0.0405  0.0452 -0.4107
    4MOL0     C  457   5.295  10.770  -0.040  0.2958 -0.1065  0.3881
    4MOL0     C  458   5.159  10.764  -0.016  0.3873 -0.8170  0.2632
    4MOL0     C  459   4.733  10.582  -0.039 -0.0102 -0.2470 -0.1916
    4MOL0     C  460   4.663  10.692  -0.100  0.1035  0.2407 -0.0762
    4MOL0     C  461   4.523  10.687  -0.116 -0.6892 -0.0091 -1.0688
    4MOL0     C  462   4.456  10.582  -0.067  0.1092  0.4090 -0.1949
    4MOL0     O  463   4.321  10.589  -0.077  0.3678  0.0982  0.0785
    4MOL0     C  464   4.238  10.481  -0.041 -0.1650 -0.1732 -0.7626
    4MOL0     C  465   4.098  10.481  -0.097  0.4953 -0.7224 -0.5323
    4MOL0     C  466   4.022  10.357  -0.050  0.5807  0.7282  1.2875
    4MOL0     C  467   3.876  10.378  -0.037  0.8711  0.3975  0.7626
    4MOL0     C  468   3.813  10.426  -0.160 -0.5298  0.2989 -0.0663
    4MOL0     C  469   3.772  10.466  -0.267  0.2809  0.1199  0.0153
    4MOL0     C  470   4.528  10.476  -0.004 -0.2313 -0.0226 -0.2230
    4MOL0     C  471   4.666  10.463   0.005 -0.7843 -0.1668  0.0705
    4MOL0     C  472   4.725  10.328   0.059 -0.2336  0.1944  0.2842
    4MOL0     H  473   5.040  10.626  -0.303  1.5626  1.0593 -2.4583
    4MOL0     H  474   5.280  10.621  -0.344 -1.8967  1.0085 -0.7447
    4MOL0     H  475   5.455  10.781  -0.373  0.2742 -0.4950 -0.9590
    4MOL0     H  476   5.607  10.827  -0.315 -2.8637  2.5251  1.4077
    4MOL0     H  477   5.614  10.604  -0.456 -0.3287 -0.5558 -0.7649
    4MOL0     H  478   5.488  10.541  -0.342 -0.9208  1.9709  2.1954
    4MOL0     H  479   5.750  10.621  -0.197  1.7120 -0.7512  0.6645
    4MOL0     H  480   5.772  10.507  -0.333  1.3505 -0.5785  0.5589
    4MOL0     H  481   5.584  10.469  -0.092  0.6123  0.9045 -0.4821
    4MOL0     H  482   5.615  10.353  -0.231  0.3315  0.9854 -1.5754
    4MOL0     H  483   5.866  10.367  -0.170 -0.0162  0.9343 -0.1329
    4MOL0     H  484   5.834  10.489  -0.050 -0.1734 -2.4332  4.9874
    4MOL0     H  485   5.706  10.358   0.103 -0.2234 -3.8713  4.0126
    4MOL0     H  486   5.743  10.215  -0.000  0.7284 -0.3874  2.1399
    4MOL0     H  487   5.904  10.211   0.174 -1.1187 -0.5204 -1.6560
    4MOL0     H  488   5.940  10.379   0.159 -4.1924  0.3097  0.3023
    4MOL0     H  489   5.992  10.197  -0.074  1.7199  0.3194 -1.2247
    4MOL0     H  490   6.045  10.368  -0.026 -1.4542  0.8713  0.2811
    4MOL0     H  491   6.195  10.353   0.233 -0.9740 -1.2698  1.5194
    4MOL0     H  492   6.405  10.241   0.384  0.3195  1.7504  0.3117
    4MOL0     H  493   6.504  10.128   0.309  0.8197  0.4113 -2.8222
    4MOL0     H  494   6.547  10.274   0.123  1.2861  1.1814 -0.4077
    4MOL0     H  495   6.433  10.391   0.183 -0.1890  0.2900  1.2680
    4MOL0     H  496   6.695  10.307   0.323 -1.4217  0.4501  1.6127
    4MOL0     H  497   6.599  10.452   0.353  1.6291  1.6059  0.0232
    4MOL0     H  498   6.680  10.518   0.094  2.0373  1.8942  0.0575
    4MOL0     H  499   6.768  10.361   0.114  1.2477  0.7778  1.2165
    4MOL0     H  500   6.985  10.703   0.342  0.8692  2.6176  0.5511
    4MOL0     H  501   6.949  10.929   0.423 -0.3674 -0.1149  3.2974
    4MOL0     H  502   6.591  11.288   0.350  1.2575  0.5040 -2.0415
    4MOL0     H  503   6.554  11.532   0.429 -1.4327 -0.8522 -2.7165
    4MOL0     H  504   6.639  11.588   0.762  1.0324  0.9022  2.8345
    4MOL0     H  505   6.771  11.707   0.766  0.8964 -2.7069 -1.6934
    4MOL0     H  506   6.608  11.884   0.699  1.0502 -0.6840 -1.4410
    4MOL0     H  507   6.485  11.759   0.692 -0.5614 -0.5013  2.5876
    4MOL0     H  508   6.488  11.708   0.927  1.1522  0.0749  2.2411
    4MOL0     H  509   6.632  11.803   0.953  0.9336  1.4138 -2.2220
    4MOL0     H  510   6.424  11.893   1.039  1.1569 -0.0779  0.5948
    4MOL0     H  511   6.376  11.957   0.878 -0.3687 -1.0774  0.5694
    4MOL0     H  512   6.576  12.083   0.854  0.4822 -1.9373  0.6540
    4MOL0     H  513   6.641  12.032   1.021 -1.8381 -1.8765  3.0328
    4MOL0     H  514   6.402  12.210   0.961 -0.1723 -0.1513  1.3597
    4MOL0     H  515   6.430  12.131   1.115 -1.9359  1.1352 -0.5698
    4MOL0     H  516   6.648  12.292   0.953  3.2304 -0.3306  2.3948
    4MOL0     H  517   6.657  12.226   1.120 -0.3730 -2.0573 -0.9624
    4MOL0     H  518   6.629  12.469   1.119 -1.7131  0.8986  0.0294
    4MOL0     H  519   6.493  12.461   1.016 -2.0901  0.3908  0.8637
    4MOL0     H  520   6.895  11.515   0.663 -0.3950 -0.6452 -1.4196
    4MOL0     H  521   6.919  11.265   0.609  0.9070  4.1423  4.1674
    4MOL0     H  522   6.534  10.855   0.314  0.9342  2.1474  0.3969
    4MOL0     H  523   6.577  10.646   0.233 -0.1408  1.2341 -0.5146
    4MOL0     H  524   5.372  10.794   0.033  0.0411  0.1094  0.5868
    4MOL0     H  525   5.119  10.789   0.082  0.6412 -0.8754  0.3833
    4MOL0     H  526   4.711  10.783  -0.135  0.0189 -0.3371 -1.7690
    4MOL0     H  527   4.470  10.765  -0.170 -1.7277 -0.2741 -0.4502
    4MOL0     H  528   4.240  10.477   0.068 -0.9676  0.3236 -0.7202
    4MOL0     H  529   4.274  10.383  -0.074  0.0882  0.4929 -2.5721
    4MOL0     H  530   4.097  10.490  -0.206  0.7781  1.5824 -0.3800
    4MOL0     H  531   4.057  10.576  -0.062  1.8943  0.0593 -0.9358
    4MOL0     H  532   4.067  10.326   0.045  3.7408  0.7287 -0.1000
    4MOL0     H  533   4.043  10.263  -0.102 -4.3013 -0.7063  1.3692
    4MOL0     H  534   3.807  10.299  -0.005  0.3485  0.5353  0.0018
    4MOL0     H  535   3.857  10.453   0.041 -1.8718  1.2111 -0.5426
    4MOL0     H  536   3.740  10.485  -0.368  0.2243  1.6482  0.2955
    4MOL0     H  537   4.476  10.396   0.047 -0.3094  2.2271  3.6197
    4MOL0     H  538   4.650  10.248   0.056 -1.7511  1.5661  0.6883
    4MOL0     H  539   4.812  10.315  -0.007 -1.1153  3.8554 -1.8756
    4MOL0     H  540   4.761  10.349   0.160  0.9171  3.4760 -0.6858
    5MOL0     O  541  10.083   9.476   1.012 -1.0318 -0.7682 -0.1566
    5MOL0     C  542  10.010   9.575   0.997  0.4317 -1.0287 -0.3655
    5MOL0     O  543  10.049   9.692   0.929  0.1140 -0.4283 -0.9974
    5MOL0     C  544  10.178   9.697   0.880  0.1714 -0.2664  0.5386
    5MOL0     C  545  10.296   9.666   0.947 -0.7732 -0.0339 -0.1995
    5MOL0     C  546  10.422   9.685   0.888  1.1339  0.0819 -0.3204
    5MOL0     C  547  10.432   9.732   0.756  0.3488 -0.4120 -0.4839
    5MOL0     O  548  10.553   9.726   0.680  0.9926  0.7567 -0.5984
    5MOL0     C  549  10.670   9.702   0.754  0.4195 -0.5299  0.0688
    5MOL0     C  550  10.789   9.745   0.673 -0.4974 -0.3977  0.4185
    5MOL0     C  551  10.809   9.903   0.670  0.0388 -0.4457  0.0928
    5MOL0     C  552  10.922   9.957   0.589 -0.4270 -0.1616 -0.1817
    5MOL0     C  553  10.937  10.100   0.621  0.0721 -0.0129  0.3876
    5MOL0     C  554  11.041  10.170   0.527  0.4978  0.3942 -0.7482
    5MOL0     C  555  11.181  10.151   0.580 -0.4423  0.3963 -0.3106
    5MOL0     C  556  11.276  10.261   0.524  0.0355  0.3347  0.5254
    5MOL0     N  557  11.412  10.241   0.570  0.2350 -0.0305  0.9918
    5MOL0     C  558  11.480  10.118   0.558  0.4689 -0.4338  0.4867
    5MOL0     C  559  11.587  10.138   0.642 -0.1285  0.2587 -0.1767
    5MOL0     C  560  11.697  10.039   0.656 -0.0200  0.5038 -0.0435
    5MOL0     C  561  11.660   9.892   0.685  0.0780 -0.2809 -0.0729
    5MOL0     C  562  11.792   9.808   0.718 -0.9811  0.6173  0.1108
    5MOL0     C  563  11.851   9.744   0.592 -0.0176  0.2803  0.5992
    5MOL0     O  564  11.952   9.646   0.637 -0.9263  0.3703 -0.3115
    5MOL0     C  565  12.070   9.682   0.706  0.2979 -0.1278  0.2077
    5MOL0     C  566  12.079   9.657   0.838 -0.1389 -0.0042 -0.6993
    5MOL0     C  567  12.190   9.697   0.908 -0.0247 -0.5362 -0.8383
    5MOL0     C  568  12.301   9.748   0.845 -0.5676  0.0190  0.0881
    5MOL0     C  569  12.422   9.787   0.914 -0.4575 -0.3886 -0.7363
    5MOL0     O  570  12.534   9.803   0.834 -0.1237 -0.0226 -0.3498
    5MOL0     C  571  12.645   9.857   0.898 -0.5743 -0.1447 -1.0646
    5MOL0     C  572  12.635   9.983   0.959  0.1281 -0.5894 -0.0453
    5MOL0     C  573  12.745  10.038   1.028 -0.2722  0.8230  0.1902
    5MOL0     C  574  12.863   9.967   1.045  0.0666 -0.3223  1.0530
    5MOL0     O  575  12.950  10.034   1.126 -0.5784 -0.2500  0.2857
    5MOL0     C  576  13.049   9.956   1.197 -1.9065 -0.1014  0.2244
    5MOL0     C  577  13.181   9.940   1.108  0.1895  0.1860  0.5077
    5MOL0     C  578  13.281   9.851   1.187 -0.9135 -0.3086 -0.7660
    5MOL0     C  579  13.397   9.806   1.082  0.5443  0.1386  0.5906
    5MOL0     C  580  13.492   9.708   1.148  0.2653  0.3376  0.7007
    5MOL0     C  581  13.576   9.762   1.265 -0.2343 -0.0039  0.0310
    5MOL0     C  582  13.660   9.655   1.345 -0.0848  0.1342  0.2602
    5MOL0     C  583  13.736   9.573   1.252 -0.3700 -0.1530  0.1528
    5MOL0    Cl  584  13.639   9.436   1.194  0.0212  0.0179  0.4913
    5MOL0     C  585  12.870   9.841   0.988  0.1205  0.1849 -0.3632
    5MOL0     C  586  12.761   9.780   0.923  0.4177 -0.4200 -0.8663
    5MOL0     O  587  12.417   9.804   1.036  0.5922 -0.0725 -0.4865
    5MOL0     C  588  12.291   9.767   0.706 -0.8043  0.8170 -0.3467
    5MOL0     C  589  12.175   9.733   0.635 -0.2632 -0.6352  0.4403
    5MOL0     N  590  11.587  10.259   0.709 -0.6908  0.3184 -0.4390
    5MOL0     N  591  11.480  10.323   0.659 -0.1581  0.1674 -0.4310
    5MOL0     C  592  10.319   9.783   0.693 -0.3043 -0.5485  0.1858
    5MOL0     C  593  10.188   9.769   0.756  0.1297 -0.4384  1.0936
    5MOL0     C  594   9.881   9.574   1.065  0.6293 -0.2940 -0.3241
    5MOL0     C  595   9.833   9.692   1.124 -0.1462  0.0480 -0.2690
    5MOL0     C  596   9.711   9.704   1.196  0.5252  0.3426 -0.5849
    5MOL0     C  597   9.638   9.580   1.210 -0.5623  0.0419  0.2213
    5MOL0     O  598   9.522   9.569   1.286  0.6104  0.0232  0.6608
    5MOL0     C  599   9.466   9.686   1.344 -0.4149 -0.8506  0.0145
    5MOL0     C  600   9.332   9.639   1.414 -0.4360 -0.3584  0.0890
    5MOL0     C  601   9.226   9.638   1.305  0.1306 -0.1686  0.7654
    5MOL0     C  602   9.082   9.598   1.352 -0.2805 -0.1318 -0.1605
    5MOL0     C  603   9.002   9.711   1.398  0.4954  0.5491 -0.4515
    5MOL0     C  604   8.936   9.810   1.431 -0.6179  0.3407 -0.1297
    5MOL0     C  605   9.686   9.468   1.142  0.8681  0.1490 -0.3276
    5MOL0     C  606   9.800   9.462   1.067  0.7659  0.1208  0.0256
    5MOL0     C  607   9.825   9.331   1.002 -0.3018  0.6184 -0.2315
    5MOL0     H  608  10.300   9.623   1.047  0.2611 -1.1977 -0.7169
    5MOL0     H  609  10.506   9.652   0.948 -0.3732 -2.1166  0.7258
    5MOL0     H  610  10.670   9.745   0.855 -0.2913 -1.8788  0.6761
    5MOL0     H  611  10.689   9.594   0.762 -0.5950 -1.0225 -2.8524
    5MOL0     H  612  10.771   9.711   0.570  1.4079  1.7598 -0.7167
    5MOL0     H  613  10.872   9.689   0.717 -0.7707 -2.8591 -1.9292
    5MOL0     H  614  10.814   9.941   0.773 -2.1056 -0.3088  0.1987
    5MOL0     H  615  10.711   9.945   0.645 -0.9752 -2.0293  1.1503
    5MOL0     H  616  11.007   9.900   0.628 -1.8751 -0.4936  2.7215
    5MOL0     H  617  10.907   9.930   0.484  0.2562 -2.3813  0.2369
    5MOL0     H  618  10.836  10.140   0.608  0.1437 -0.4248 -2.0243
    5MOL0     H  619  10.964  10.113   0.726  2.0487 -5.5286  0.9158
    5MOL0     H  620  11.022  10.137   0.424 -2.1877  0.0271 -0.1939
    5MOL0     H  621  11.011  10.275   0.522 -1.2178  0.0218  0.7003
    5MOL0     H  622  11.223  10.052   0.559  3.6296  1.2818  2.4747
    5MOL0     H  623  11.198  10.160   0.688  0.5604 -1.7259 -0.2363
    5MOL0     H  624  11.274  10.264   0.414 -0.5333 -1.6202  0.4536
    5MOL0     H  625  11.244  10.358   0.564  5.5432  2.0468  1.6874
    5MOL0     H  626  11.453  10.035   0.494  3.2108 -2.5387  1.8259
    5MOL0     H  627  11.756  10.027   0.564 -0.6344 -1.1005 -0.2540
    5MOL0     H  628  11.761  10.085   0.732 -2.0266  0.8282  1.5358
    5MOL0     H  629  11.594   9.883   0.772 -0.0090 -0.3442 -0.1462
    5MOL0     H  630  11.615   9.839   0.601 -3.2460  0.3060  1.1847
    5MOL0     H  631  11.770   9.731   0.792 -0.1289  1.3861  1.2000
    5MOL0     H  632  11.870   9.876   0.755 -0.8328  0.1782  0.6116
    5MOL0     H  633  11.892   9.814   0.519 -1.2097  1.0068  0.5893
    5MOL0     H  634  11.776   9.683   0.542 -0.7789  2.1222 -0.6119
    5MOL0     H  635  11.985   9.622   0.879 -0.2677  2.2974  1.2407
    5MOL0     H  636  12.195   9.682   1.016 -2.3265  1.4470 -0.3724
    5MOL0     H  637  12.550  10.050   0.955  1.4385  1.0943 -0.9477
    5MOL0     H  638  12.741  10.137   1.071  0.1876  0.1423  1.8864
    5MOL0     H  639  13.078  10.004   1.291 -1.4464 -2.8128  1.5880
    5MOL0     H  640  13.008   9.858   1.223 -2.1481  0.2035  1.0198
    5MOL0     H  641  13.164   9.891   1.013  1.5700  0.1433  0.2577
    5MOL0     H  642  13.220  10.040   1.086  0.1854  0.0221 -0.2541
    5MOL0     H  643  13.323   9.912   1.268 -1.1998 -0.4823 -0.4873
    5MOL0     H  644  13.235   9.768   1.240  1.2136 -0.3681  1.1890
    5MOL0     H  645  13.439   9.886   1.020  2.4863 -3.2696 -3.0310
    5MOL0     H  646  13.344   9.747   1.007  0.3689  0.5201  0.4151
    5MOL0     H  647  13.563   9.674   1.072 -0.8831 -0.6258  0.0186
    5MOL0     H  648  13.442   9.616   1.179  1.1429 -0.9726 -1.5496
    5MOL0     H  649  13.649   9.842   1.246  0.6789 -0.2320  2.2508
    5MOL0     H  650  13.505   9.800   1.340 -0.8546 -0.0948 -0.5048
    5MOL0     H  651  13.596   9.589   1.404 -0.0211 -2.5339 -2.4197
    5MOL0     H  652  13.720   9.707   1.422 -0.4157  0.8871  0.0216
    5MOL0     H  653  13.775   9.622   1.162 -0.7938 -0.1135 -0.0117
    5MOL0     H  654  13.819   9.539   1.315  1.0386  2.4982 -0.1344
    5MOL0     H  655  12.954   9.774   1.002  0.2731  0.4073 -0.2074
    5MOL0     H  656  12.768   9.678   0.887  0.1137  0.3765 -3.3711
    5MOL0     H  657  12.379   9.806   0.656  0.3555  1.3956  1.9871
    5MOL0     H  658  12.169   9.746   0.528  2.1068  2.8982  0.5976
    5MOL0     H  659  10.323   9.829   0.595  0.2555 -0.3736  0.2894
    5MOL0     H  660  10.095   9.793   0.705  0.1774  0.0294  1.2206
    5MOL0     H  661   9.872   9.793   1.111 -2.9473  1.0589 -1.4682
    5MOL0     H  662   9.679   9.804   1.222  0.3618  0.8008 -2.4249
    5MOL0     H  663   9.428   9.764   1.278  1.4825  3.2687  3.3549
    5MOL0     H  664   9.529   9.742   1.414  0.1223 -0.5509 -0.7082
    5MOL0     H  665   9.309   9.717   1.487  1.8217  1.6372 -1.1741
    5MOL0     H  666   9.347   9.545   1.469 -0.6208  0.1229  0.9838
    5MOL0     H  667   9.270   9.576   1.225 -0.3931  0.7053 -0.2195
    5MOL0     H  668   9.216   9.736   1.257 -0.0947  0.5477  2.2371
    5MOL0     H  669   9.029   9.557   1.266  0.2449 -0.8840 -0.1381
    5MOL0     H  670   9.093   9.523   1.431  1.1997  2.6668  2.5368
    5MOL0     H  671   8.865   9.886   1.458 -1.9474 -0.3915 -1.4102
    5MOL0     H  672   9.628   9.377   1.158 -0.5688  1.0369 -0.2802
    5MOL0     H  673   9.741   9.266   1.029 -0.8033  2.1925  2.3301
    5MOL0     H  674   9.822   9.343   0.893  2.7493 -1.0942 -0.6192
    5MOL0     H  675   9.917   9.277   1.028 -0.3666 -0.0772 -1.3441
    6MOL0     O  676   3.885   7.827   9.605 -0.1585 -0.2049  0.5478
    6MOL0     C  677   4.004   7.839   9.565  0.3057  0.0157 -0.0583
    6MOL0     O  678   4.108   7.872   9.644  0.3087 -0.0822  0.0838
    6MOL0     C  679   4.093   7.893   9.776  0.1725 -0.1493  0.0609
    6MOL0     C  680   4.076   8.020   9.831 -0.2350 -0.3402 -0.6003
    6MOL0     C  681   4.072   8.033   9.974 -0.0587  0.6178 -0.0356
    6MOL0     C  682   4.083   7.926  10.052 -1.1626 -0.7895 -0.5130
    6MOL0     O  683   4.087   7.950  10.188 -0.2719  0.1866  0.0215
    6MOL0     C  684   4.015   7.869  10.280 -0.2925  0.0104 -1.0151
    6MOL0     C  685   4.105   7.838  10.413 -0.2605  1.5390  0.4582
    6MOL0     C  686   4.140   7.962  10.492  0.7909 -0.2656 -0.5008
    6MOL0     C  687   4.218   7.928  10.620 -0.6176  0.2162  0.1921
    6MOL0     C  688   4.188   7.988  10.754  0.2506 -0.5679  0.1209
    6MOL0     C  689   4.219   8.137  10.762 -0.1708 -0.4257 -0.6024
    6MOL0     C  690   4.179   8.198  10.900 -0.7891  0.7727 -0.4970
    6MOL0     C  691   4.267   8.130  11.014 -0.4224 -0.4035  0.6066
    6MOL0     N  692   4.196   8.067  11.124  0.2475  0.5497  0.7961
    6MOL0     C  693   4.202   8.107  11.258 -0.1651  0.4908 -0.0264
    6MOL0     C  694   4.132   8.013  11.335 -0.4567 -0.3144  0.7509
    6MOL0     C  695   4.099   8.012  11.478 -0.2952  0.0240 -0.7072
    6MOL0     C  696   4.208   7.964  11.577  0.2077 -0.8267 -0.6870
    6MOL0     C  697   4.198   7.814  11.615 -0.0022 -1.3339 -0.4872
    6MOL0     C  698   4.327   7.766  11.688 -0.7234 -0.8169 -0.0207
    6MOL0     O  699   4.303   7.734  11.822  1.1688  0.7807 -0.0975
    6MOL0     C  700   4.399   7.682  11.901 -0.8337 -0.0241  0.4679
    6MOL0     C  701   4.518   7.620  11.852 -0.6407  0.5216 -0.0893
    6MOL0     C  702   4.595   7.544  11.945  0.6815 -0.1379  0.2336
    6MOL0     C  703   4.557   7.518  12.078 -0.0532 -0.7922 -0.1260
    6MOL0     C  704   4.629   7.434  12.177  0.7132  0.1661 -0.1222
    6MOL0     O  705   4.735   7.354  12.138 -0.4292  0.3935 -0.1928
    6MOL0     C  706   4.814   7.276  12.219 -0.0262 -0.4975 -0.0933
    6MOL0     C  707   4.838   7.139  12.196  0.0988 -0.0068  1.2080
    6MOL0     C  708   4.905   7.064  12.301 -0.3817 -0.3191 -0.4891
    6MOL0     C  709   4.966   7.135  12.414 -0.8978  0.3334 -0.1097
    6MOL0     O  710   5.028   7.053  12.503  0.6272 -0.6715 -0.0924
    6MOL0     C  711   5.141   7.102  12.576  0.2090  0.1422  0.4820
    6MOL0     C  712   5.268   7.075  12.492 -0.0853  0.0050  0.3063
    6MOL0     C  713   5.400   7.077  12.568  0.8226 -0.3521 -0.0130
    6MOL0     C  714   5.414   7.195  12.659  0.2882 -0.0933  0.1852
    6MOL0     C  715   5.563   7.192  12.693 -0.4002 -0.6752 -0.3226
    6MOL0     C  716   5.608   7.325  12.761 -0.1887 -0.7096 -0.2800
    6MOL0     C  717   5.727   7.299  12.841 -0.6348  0.8428  0.3064
    6MOL0     C  718   5.820   7.416  12.882 -0.7150  0.6024  0.1343
    6MOL0    Cl  719   5.974   7.337  12.939  0.0791 -0.2443 -0.1628
    6MOL0     C  720   4.939   7.266  12.433 -0.1494 -0.1728 -0.8263
    6MOL0     C  721   4.859   7.327  12.337 -0.1119 -0.3960 -0.5413
    6MOL0     O  722   4.570   7.415  12.282  0.1471 -0.3270  0.0387
    6MOL0     C  723   4.428   7.574  12.119  0.7354 -0.8098 -0.2961
    6MOL0     C  724   4.360   7.667  12.034 -0.3254 -0.2180  0.1984
    6MOL0     N  725   4.113   7.911  11.236  0.5569 -0.2502  0.0901
    6MOL0     N  726   4.129   7.949  11.110 -0.3760  0.2041 -0.8759
    6MOL0     C  727   4.081   7.794   9.996 -0.6091  0.3515 -0.8827
    6MOL0     C  728   4.084   7.777   9.862 -0.3159  0.8303  1.0153
    6MOL0     C  729   4.041   7.797   9.431  0.3558 -0.2530  0.7304
    6MOL0     C  730   4.179   7.835   9.387 -0.1828  0.6643  0.1878
    6MOL0     C  731   4.220   7.812   9.254  0.3382 -0.7034  0.0192
    6MOL0     C  732   4.137   7.759   9.156 -0.2114  0.3840  0.0969
    6MOL0     O  733   4.174   7.726   9.035 -0.5846  0.8057 -0.0897
    6MOL0     C  734   4.314   7.726   9.015 -0.1187  0.0279  0.7922
    6MOL0     C  735   4.353   7.664   8.876  0.4829  0.4083  0.4561
    6MOL0     C  736   4.268   7.722   8.757 -0.4805  0.7876  0.1363
    6MOL0     C  737   4.338   7.725   8.625  0.5221  0.4339 -0.1242
    6MOL0     C  738   4.329   7.609   8.545 -0.3730 -0.9054 -0.1951
    6MOL0     C  739   4.335   7.519   8.470 -0.5488 -0.1719  0.3676
    6MOL0     C  740   3.998   7.734   9.204 -0.4270  0.6029  0.4950
    6MOL0     C  741   3.956   7.742   9.333  1.0257 -0.3416 -0.4575
    6MOL0     C  742   3.815   7.690   9.354  0.5454 -0.6509 -0.7035
    6MOL0     H  743   4.068   8.108   9.768  1.0350  0.4652  0.3158
    6MOL0     H  744   4.056   8.123  10.032 -1.2798 -0.1165  0.8153
    6MOL0     H  745   3.927   7.928  10.308  0.3649  1.9134 -2.6411
    6MOL0     H  746   3.975   7.775  10.242  0.3482 -0.2564 -1.0301
    6MOL0     H  747   4.193   7.789  10.371  0.3765  1.6997  1.5708
    6MOL0     H  748   4.053   7.765  10.475 -2.1397  1.4122 -1.1352
    6MOL0     H  749   4.045   8.001  10.529 -1.4793 -2.6676 -3.3585
    6MOL0     H  750   4.188   8.030  10.421 -1.6241  2.1187 -0.0046
    6MOL0     H  751   4.204   7.823  10.649  1.4623  0.8097  4.0516
    6MOL0     H  752   4.323   7.944  10.597 -1.0611 -0.4515 -2.6348
    6MOL0     H  753   4.085   7.974  10.789  0.6847  0.0288  1.7765
    6MOL0     H  754   4.252   7.937  10.827  0.9884  0.7600  0.4446
    6MOL0     H  755   4.323   8.167  10.744 -0.4683 -0.3138 -2.3022
    6MOL0     H  756   4.163   8.194  10.688 -1.3052  0.1870  0.6825
    6MOL0     H  757   4.073   8.182  10.922 -0.4947 -0.6830  0.0125
    6MOL0     H  758   4.195   8.305  10.911 -3.8746  1.3742 -0.8562
    6MOL0     H  759   4.341   8.062  10.972  0.5354  2.1167 -2.1444
    6MOL0     H  760   4.326   8.205  11.067 -0.5127 -2.1062  3.2928
    6MOL0     H  761   4.245   8.203  11.285  1.3440  0.0727 -0.8643
    6MOL0     H  762   4.050   8.102  11.516 -1.7798 -0.8730 -0.4420
    6MOL0     H  763   4.020   7.937  11.479 -1.9526  1.6923 -1.6723
    6MOL0     H  764   4.302   7.985  11.525  1.2503 -2.0924  0.6050
    6MOL0     H  765   4.214   8.025  11.668  0.6059 -3.7524  1.3870
    6MOL0     H  766   4.192   7.753  11.524 -0.5645 -0.6909 -0.8897
    6MOL0     H  767   4.118   7.793  11.685 -0.7102  0.6286 -0.6323
    6MOL0     H  768   4.415   7.825  11.661 -0.1284 -1.8494 -0.4122
    6MOL0     H  769   4.355   7.671  11.642 -0.1826 -1.1645  0.9691
    6MOL0     H  770   4.546   7.626  11.747  2.4523 -0.1498  0.6147
    6MOL0     H  771   4.684   7.498  11.904 -0.1723 -0.3199 -1.5288
    6MOL0     H  772   4.806   7.095  12.103  0.1325 -1.5501  1.9031
    6MOL0     H  773   4.933   6.960  12.289 -0.9884 -0.6432  0.7176
    6MOL0     H  774   5.139   7.208  12.602  0.7537 -0.0758  1.4548
    6MOL0     H  775   5.145   7.050  12.671  0.5132  0.0708  0.4316
    6MOL0     H  776   5.264   6.973  12.451 -2.3273  0.4370 -0.6966
    6MOL0     H  777   5.276   7.153  12.415  0.0950 -1.7773 -1.5891
    6MOL0     H  778   5.427   6.998  12.639  0.0028 -0.7750 -0.1559
    6MOL0     H  779   5.467   7.064  12.483 -2.3476 -2.7882 -2.3661
    6MOL0     H  780   5.369   7.180  12.758 -0.2882 -0.5884 -0.1485
    6MOL0     H  781   5.377   7.285  12.610  0.2423  0.3478  1.0099
    6MOL0     H  782   5.618   7.165  12.603  0.0288 -1.1504  0.0805
    6MOL0     H  783   5.585   7.111  12.763 -0.9849  2.0183  3.3157
    6MOL0     H  784   5.640   7.386  12.676  1.8542 -2.7878 -1.1087
    6MOL0     H  785   5.527   7.361  12.824 -2.4306 -4.4715 -0.7562
    6MOL0     H  786   5.791   7.225  12.791 -1.3681 -0.9846  1.9474
    6MOL0     H  787   5.694   7.247  12.931 -1.3302  0.5614 -0.1008
    6MOL0     H  788   5.847   7.487  12.803  3.0638  0.6133  1.2178
    6MOL0     H  789   5.769   7.469  12.962 -1.8125  4.3998 -2.8074
    6MOL0     H  790   4.960   7.333  12.515 -2.8911 -0.3707  0.1441
    6MOL0     H  791   4.843   7.431  12.364  2.0615 -0.9264  3.6185
    6MOL0     H  792   4.386   7.541  12.214 -2.5771 -3.8029 -2.5301
    6MOL0     H  793   4.259   7.699  12.060  0.2329  0.9574  0.9765
    6MOL0     H  794   4.094   7.703  10.053 -0.5002  1.1740  0.4631
    6MOL0     H  795   4.096   7.676   9.824  0.2261  1.3544 -0.2927
    6MOL0     H  796   4.253   7.872   9.456 -0.4551 -0.1344  0.9316
    6MOL0     H  797   4.314   7.850   9.216 -0.5448  0.8630 -0.6945
    6MOL0     H  798   4.361   7.662   9.091  7.2846  1.5007 -1.7866
    6MOL0     H  799   4.359   7.825   9.011 -2.2128  1.0048 -3.2702
    6MOL0     H  800   4.324   7.558   8.878 -0.8818  0.7725  1.6352
    6MOL0     H  801   4.461   7.672   8.864  0.5258  4.6033  1.9728
    6MOL0     H  802   4.275   7.828   8.786  1.2960  0.5212  0.8114
    6MOL0     H  803   4.164   7.690   8.757 -0.6443  1.2297  1.4835
    6MOL0     H  804   4.286   7.803   8.568  0.3726  1.0961  0.9067
    6MOL0     H  805   4.441   7.760   8.637  0.3019  0.9193  0.3914
    6MOL0     H  806   4.335   7.436   8.402 -1.3515 -1.8500  2.3031
    6MOL0     H  807   3.928   7.700   9.129 -0.8083  0.0817  1.0778
    6MOL0     H  808   3.770   7.624   9.280  0.5702 -1.7087  0.1896
    6MOL0     H  809   3.805   7.635   9.448 -3.2308 -1.3153 -1.3506
    6MOL0     H  810   3.750   7.778   9.362  3.4898  1.5168  4.4099
    7MOL0     O  811   4.161   5.816   3.639 -0.1584  0.3742  0.1364
    7MOL0     C  812   4.216   5.747   3.723 -0.5992 -0.6446 -0.0843
    7MOL0     O  813   4.333   5.782   3.809  0.7545  0.2141 -0.7667
    7MOL0     C  814   4.416   5.884   3.781  0.4554 -0.9366 -0.4650
    7MOL0     C  815   4.487   5.936   3.888 -0.8119 -0.8282  0.0411
    7MOL0     C  816   4.566   6.052   3.872  0.1137  0.6004  0.7904
    7MOL0     C  817   4.571   6.125   3.749  1.0164 -0.0665  0.0223
    7MOL0     O  818   4.640   6.241   3.732  0.3869 -0.3987  0.9017
    7MOL0     C  819   4.781   6.218   3.756  0.5616 -0.3201  0.7224
    7MOL0     C  820   4.862   6.349   3.735  0.1188 -0.2607  0.8014
    7MOL0     C  821   5.007   6.321   3.753 -0.6755 -0.8452 -0.1177
    7MOL0     C  822   5.102   6.444   3.723  0.9083  0.7122 -0.3745
    7MOL0     C  823   5.244   6.418   3.745  0.2099  0.1685 -0.3501
    7MOL0     C  824   5.332   6.540   3.690 -0.7547  0.9036 -0.6216
    7MOL0     C  825   5.477   6.507   3.715  0.5062  0.1859  0.1176
    7MOL0     C  826   5.580   6.627   3.689  0.0214  0.2400 -0.7895
    7MOL0     N  827   5.708   6.559   3.707 -0.3525 -0.8607  0.3507
    7MOL0     C  828   5.756   6.512   3.831  0.1423 -0.2631  0.6887
    7MOL0     C  829   5.876   6.469   3.804 -0.4269  0.0923  0.1863
    7MOL0     C  830   5.969   6.429   3.914 -0.0620 -0.9177  0.1355
    7MOL0     C  831   6.116   6.485   3.878  0.6172 -0.0214 -0.5114
    7MOL0     C  832   6.221   6.418   3.968 -0.1724  0.8910  0.3263
    7MOL0     C  833   6.353   6.482   3.947  0.0940  0.0662  0.0292
    7MOL0     O  834   6.439   6.458   4.064  0.1421  0.0862  0.6753
    7MOL0     C  835   6.569   6.511   4.058 -0.3515 -0.1575  0.4743
    7MOL0     C  836   6.608   6.633   3.998  0.2541  0.2569  0.3197
    7MOL0     C  837   6.735   6.683   4.024  0.2578 -0.1472 -0.2446
    7MOL0     C  838   6.839   6.616   4.100  1.2094  0.1225  0.9916
    7MOL0     C  839   6.981   6.667   4.097 -0.1753  0.4911 -1.4697
    7MOL0     O  840   7.077   6.596   4.164  0.2579  0.8364 -0.1417
    7MOL0     C  841   7.209   6.614   4.145 -0.0328  0.6122  0.6489
    7MOL0     C  842   7.259   6.638   4.012  0.1933  0.0633 -0.7399
    7MOL0     C  843   7.399   6.652   4.002 -0.7735  0.4691  0.2677
    7MOL0     C  844   7.481   6.626   4.105 -0.7127  0.2900  0.2785
    7MOL0     O  845   7.616   6.623   4.097 -0.1338  0.4001 -0.6347
    7MOL0     C  846   7.676   6.620   3.969  0.5880 -0.1659 -0.1304
    7MOL0     C  847   7.722   6.767   3.932 -0.0473  0.2560 -0.5342
    7MOL0     C  848   7.813   6.836   4.036 -0.0215  0.0847  1.2441
    7MOL0     C  849   7.951   6.763   4.058  0.4518  0.1532 -0.2892
    7MOL0     C  850   8.031   6.835   4.164 -0.3922 -0.4571 -0.5591
    7MOL0     C  851   7.981   6.828   4.311 -0.4368 -0.2337  0.7016
    7MOL0     C  852   7.936   6.693   4.363 -0.6378  0.1321  0.1308
    7MOL0     C  853   7.895   6.692   4.520  0.9733  0.9069  0.0647
    7MOL0    Cl  854   7.825   6.536   4.566 -0.0404 -0.3971 -0.3451
    7MOL0     C  855   7.423   6.601   4.235  0.1879 -0.1900  0.4014
    7MOL0     C  856   7.285   6.585   4.257 -0.4895 -0.7446  0.0358
    7MOL0     O  857   7.004   6.775   4.042 -0.1500 -0.1567  0.7792
    7MOL0     C  858   6.797   6.490   4.155 -0.2117 -0.0629 -0.1456
    7MOL0     C  859   6.662   6.446   4.138 -0.2922  0.6738  0.4806
    7MOL0     N  860   5.910   6.478   3.665 -0.1268 -0.2217 -0.6245
    7MOL0     N  861   5.803   6.540   3.612  0.1372 -0.0836 -0.3295
    7MOL0     C  862   4.496   6.069   3.639  0.4645  0.0456 -0.1692
    7MOL0     C  863   4.426   5.953   3.655  0.5797  0.3135 -0.5087
    7MOL0     C  864   4.155   5.618   3.748  0.2006 -0.0888 -0.1723
    7MOL0     C  865   4.032   5.623   3.809 -0.7245 -0.0274 -0.8146
    7MOL0     C  866   3.958   5.509   3.831  0.3692 -0.0722  0.3326
    7MOL0     C  867   4.000   5.385   3.781 -0.7854  0.1344  0.0361
    7MOL0     O  868   3.914   5.282   3.804  1.1866  0.0370  0.2331
    7MOL0     C  869   3.919   5.167   3.721 -0.4697  0.7071  1.1768
    7MOL0     C  870   3.807   5.069   3.769 -1.1268  0.2019  0.9774
    7MOL0     C  871   3.754   4.963   3.664 -0.0362  0.2256 -0.4294
    7MOL0     C  872   3.691   4.835   3.737 -0.1393  0.5693  0.5175
    7MOL0     C  873   3.582   4.866   3.831  0.3938 -0.8956  0.6489
    7MOL0     C  874   3.499   4.903   3.913 -1.0194 -0.2257  0.7768
    7MOL0     C  875   4.130   5.375   3.723 -0.4252  0.3197  0.1028
    7MOL0     C  876   4.204   5.496   3.701  1.2499 -0.0955 -0.1960
    7MOL0     C  877   4.340   5.481   3.646 -0.6016 -0.1342 -0.3472
    7MOL0     H  878   4.473   5.882   3.981  2.4269 -3.6152 -0.8871
    7MOL0     H  879   4.619   6.076   3.964 -1.0386 -1.9226  2.2395
    7MOL0     H  880   4.803   6.185   3.858 -1.3369 -0.6087  1.0892
    7MOL0     H  881   4.808   6.141   3.684  1.0730  1.7121 -1.3654
    7MOL0     H  882   4.816   6.426   3.798  0.5026  0.3706  0.3147
    7MOL0     H  883   4.855   6.388   3.633  0.7443  2.1140  1.5986
    7MOL0     H  884   5.033   6.236   3.690 -2.3950 -0.5443 -1.2886
    7MOL0     H  885   5.021   6.294   3.858 -1.2422  2.7534  1.0255
    7MOL0     H  886   5.090   6.456   3.615 -4.1927  1.4743  0.0119
    7MOL0     H  887   5.070   6.538   3.769 -0.5411  1.1463 -2.1266
    7MOL0     H  888   5.270   6.408   3.850  0.4444 -1.8230 -0.5602
    7MOL0     H  889   5.264   6.325   3.692  2.4173  1.4990 -2.0895
    7MOL0     H  890   5.321   6.557   3.582  0.4207  1.1287 -0.7175
    7MOL0     H  891   5.306   6.631   3.745 -1.9242  0.6384 -0.7254
    7MOL0     H  892   5.511   6.421   3.656  1.3920  0.2733  0.4938
    7MOL0     H  893   5.481   6.481   3.821 -0.3774 -0.1933  0.0702
    7MOL0     H  894   5.570   6.672   3.590  1.8124 -0.1282 -1.1817
    7MOL0     H  895   5.559   6.700   3.768 -2.7533 -2.6676  1.4284
    7MOL0     H  896   5.708   6.519   3.927 -0.7012 -1.7129  0.4066
    7MOL0     H  897   5.929   6.463   4.010 -2.3778  0.6895 -1.3011
    7MOL0     H  898   5.969   6.319   3.913  1.0963 -0.9369 -1.9177
    7MOL0     H  899   6.142   6.453   3.776 -1.9780 -0.9933 -0.9367
    7MOL0     H  900   6.118   6.594   3.890 -0.6803 -0.1105  0.8459
    7MOL0     H  901   6.210   6.311   3.947  0.3113  0.8125  0.4743
    7MOL0     H  902   6.191   6.440   4.071 -2.2789  1.9458 -0.4558
    7MOL0     H  903   6.319   6.585   3.931 -2.1766 -0.7289 -0.5421
    7MOL0     H  904   6.403   6.452   3.855 -2.1035 -0.7860 -0.9416
    7MOL0     H  905   6.528   6.678   3.940 -1.8075 -3.8994 -0.4367
    7MOL0     H  906   6.762   6.779   3.983 -0.4874 -0.4228 -1.4278
    7MOL0     H  907   7.191   6.659   3.930  0.8772 -0.8983 -1.5913
    7MOL0     H  908   7.436   6.685   3.905 -2.3487 -0.2502 -0.6157
    7MOL0     H  909   7.765   6.556   3.980  0.4408 -0.1442  1.3825
    7MOL0     H  910   7.613   6.582   3.887  0.0646 -0.3487  0.3524
    7MOL0     H  911   7.779   6.749   3.840  0.3880  0.2798 -0.2760
    7MOL0     H  912   7.635   6.827   3.905 -1.7956 -1.8817  0.1422
    7MOL0     H  913   7.835   6.937   4.000  0.2048 -0.5267 -0.4248
    7MOL0     H  914   7.765   6.852   4.133 -2.2714 -2.2471  0.6346
    7MOL0     H  915   8.004   6.758   3.963 -0.2866  0.2656 -0.7116
    7MOL0     H  916   7.935   6.664   4.101  0.9884  0.5923  0.9777
    7MOL0     H  917   8.022   6.942   4.142  0.2334  0.5461  3.3934
    7MOL0     H  918   8.137   6.810   4.173  0.2189  2.5257  2.8340
    7MOL0     H  919   8.067   6.866   4.365  0.8001  2.4751 -2.8001
    7MOL0     H  920   7.894   6.893   4.321 -0.1645  0.2232  0.1504
    7MOL0     H  921   8.020   6.623   4.353 -2.7610 -2.3865 -1.2055
    7MOL0     H  922   7.856   6.644   4.307  0.5063 -2.7103  0.8373
    7MOL0     H  923   7.980   6.721   4.583  0.7579 -2.4215  2.1277
    7MOL0     H  924   7.819   6.769   4.534  2.2227  1.8170  2.3461
    7MOL0     H  925   7.484   6.575   4.321 -1.9186 -0.4566  1.8862
    7MOL0     H  926   7.237   6.562   4.353  0.2281 -1.7056  0.1789
    7MOL0     H  927   6.863   6.427   4.213  2.1533  2.4784  0.1972
    7MOL0     H  928   6.638   6.347   4.178  1.8281 -0.1962 -0.2931
    7MOL0     H  929   4.496   6.114   3.540 -2.5456 -2.9809 -1.7711
    7MOL0     H  930   4.365   5.930   3.568  0.5524  1.2314 -0.7466
    7MOL0     H  931   3.987   5.719   3.830  0.7981  0.8528 -1.4641
    7MOL0     H  932   3.860   5.521   3.875 -0.1390 -1.8158 -0.2123
    7MOL0     H  933   4.017   5.119   3.715 -0.4527  0.9283 -1.4438
    7MOL0     H  934   3.894   5.199   3.620  1.0558  1.7429  1.0914
    7MOL0     H  935   3.719   5.128   3.795  0.6262  2.1088  2.9166
    7MOL0     H  936   3.839   5.015   3.858 -3.1354  1.9420  2.8811
    7MOL0     H  937   3.841   4.925   3.610  0.3370 -0.1795  0.4324
    7MOL0     H  938   3.688   5.006   3.588 -0.7997  2.6813  1.5044
    7MOL0     H  939   3.653   4.763   3.664 -0.6547  2.1414 -0.8294
    7MOL0     H  940   3.772   4.787   3.792  0.4494  0.8323 -0.1011
    7MOL0     H  941   3.417   4.940   3.972  0.1663  0.8364  1.8336
    7MOL0     H  942   4.182   5.286   3.691  3.2162  2.4802 -0.6251
    7MOL0     H  943   4.406   5.567   3.628 -1.2712  0.3057 -0.7725
    7MOL0     H  944   4.394   5.429   3.725  1.6190  1.2608 -0.8575
    7MOL0     H  945   4.330   5.422   3.554 -0.1306 -2.4336  1.0164
    8MOL0     O  946   9.567   5.181   2.056 -0.1099  0.1570 -0.3942
    8MOL0     C  947   9.532   5.106   2.147 -0.0752 -0.0925  0.2318
    8MOL0     O  948   9.613   5.041   2.235 -0.2683 -0.1576  0.0522
    8MOL0     C  949   9.749   5.049   2.213  0.9287  0.2116 -0.2948
    8MOL0     C  950   9.809   4.960   2.124  0.3937 -0.3525  0.1556
    8MOL0     C  951   9.939   4.964   2.100 -0.0938  0.4609  0.6529
    8MOL0     C  952  10.018   5.061   2.170 -0.1129  0.1501  0.3065
    8MOL0     O  953  10.153   5.057   2.162  0.0499 -0.8103 -0.0532
    8MOL0     C  954  10.226   4.936   2.184  0.3006  0.0592  0.5744
    8MOL0     C  955  10.299   4.940   2.316  0.1907  0.0444  0.1116
    8MOL0     C  956  10.391   4.816   2.320  0.0210  0.1656 -0.2440
    8MOL0     C  957  10.481   4.809   2.447  0.1463  0.4032 -0.7342
    8MOL0     C  958  10.536   4.665   2.455 -0.6628  0.1627  0.3040
    8MOL0     C  959  10.630   4.646   2.578 -0.7030 -0.9608  0.3052
    8MOL0     C  960  10.696   4.504   2.591 -0.1407  0.2714  0.9225
    8MOL0     C  961  10.796   4.499   2.707  1.5323 -0.2474  0.0207
    8MOL0     N  962  10.906   4.587   2.687 -0.1166 -0.5692 -0.8580
    8MOL0     C  963  11.005   4.575   2.595  0.4714 -0.0404  0.2238
    8MOL0     C  964  11.091   4.679   2.612  0.1058 -0.0566 -0.4723
    8MOL0     C  965  11.216   4.721   2.540 -0.1139 -0.2007  0.5601
    8MOL0     C  966  11.328   4.619   2.547  0.3258 -1.0824  0.1578
    8MOL0     C  967  11.386   4.611   2.691  0.0598 -0.5714  0.6050
    8MOL0     C  968  11.419   4.752   2.754 -0.5702  0.3018  0.7363
    8MOL0     O  969  11.516   4.742   2.868  0.8059 -0.2231  0.3855
    8MOL0     C  970  11.645   4.733   2.831  0.0425  0.5555  0.2026
    8MOL0     C  971  11.704   4.701   2.708  0.2743  0.7233 -0.5064
    8MOL0     C  972  11.843   4.697   2.701 -0.1020  0.5925  0.7634
    8MOL0     C  973  11.931   4.732   2.806  0.0954 -0.1098 -0.7210
    8MOL0     C  974  12.078   4.749   2.781  0.9160 -0.5345 -0.5691
    8MOL0     O  975  12.163   4.764   2.887 -0.3119  0.3777 -0.0493
    8MOL0     C  976  12.301   4.764   2.868  0.2985 -0.9880 -0.3350
    8MOL0     C  977  12.358   4.667   2.777 -0.6837 -1.5683  0.0510
    8MOL0     C  978  12.496   4.676   2.745  0.5507  0.0896 -0.2512
    8MOL0     C  979  12.581   4.771   2.804 -0.4935  0.8202 -0.2874
    8MOL0     O  980  12.719   4.762   2.791  0.9219 -0.3022  0.0236
    8MOL0     C  981  12.762   4.685   2.680  0.5384  0.7337  0.4845
    8MOL0     C  982  12.912   4.728   2.664 -0.7688  0.1223 -0.0550
    8MOL0     C  983  12.974   4.674   2.534  0.2293 -0.1983  0.8476
    8MOL0     C  984  13.114   4.619   2.547 -1.0460 -0.3248 -0.6578
    8MOL0     C  985  13.110   4.468   2.523 -0.4504  0.5926  0.2773
    8MOL0     C  986  13.068   4.380   2.643  0.3668  0.0776 -0.0089
    8MOL0     C  987  13.138   4.245   2.660 -0.0817 -0.5687  0.5136
    8MOL0     C  988  13.061   4.176   2.772  0.0426 -0.1836  0.5170
    8MOL0    Cl  989  12.894   4.144   2.720 -0.4051  0.0602  0.2744
    8MOL0     C  990  12.527   4.866   2.890  0.6818 -0.3456  0.3772
    8MOL0     C  991  12.386   4.863   2.917  0.1410 -0.2421  0.8757
    8MOL0     O  992  12.107   4.746   2.664  0.2391 -0.1119 -0.7774
    8MOL0     C  993  11.871   4.738   2.937 -0.3479 -0.6807  0.7892
    8MOL0     C  994  11.732   4.728   2.950 -0.0968  0.2995 -0.3895
    8MOL0     N  995  11.042   4.760   2.715  0.0885  0.3975  0.2575
    8MOL0     N  996  10.923   4.703   2.757  0.1145  0.1536 -0.0428
    8MOL0     C  997   9.962   5.149   2.263  1.2060  0.0701 -1.0059
    8MOL0     C  998   9.821   5.154   2.281  1.4241  0.3021 -0.2715
    8MOL0     C  999   9.388   5.064   2.149  0.8625 -0.0329  0.2669
    8MOL0     C 1000   9.356   4.947   2.228  0.1719 -0.0014  0.0243
    8MOL0     C 1001   9.218   4.916   2.261 -0.1000 -0.1921 -0.4493
    8MOL0     C 1002   9.114   4.996   2.215  0.1898 -0.3436 -0.0135
    8MOL0     O 1003   8.988   4.960   2.255  0.4297  0.0533  0.2221
    8MOL0     C 1004   8.878   5.042   2.215 -0.3034  0.4477 -0.3775
    8MOL0     C 1005   8.754   4.980   2.280  0.6300 -1.0817  0.9205
    8MOL0     C 1006   8.628   5.062   2.239 -0.9051 -0.4192  0.3146
    8MOL0     C 1007   8.508   5.042   2.331  0.5906  0.2773  0.4524
    8MOL0     C 1008   8.536   5.103   2.461 -0.1641 -0.6267  0.0950
    8MOL0     C 1009   8.559   5.114   2.583 -0.8802 -0.0940 -0.1071
    8MOL0     C 1010   9.150   5.104   2.130 -0.1940  0.3610 -0.3913
    8MOL0     C 1011   9.280   5.130   2.088 -0.1847 -0.7223  0.0586
    8MOL0     C 1012   9.307   5.248   1.996 -0.2531  0.5246  0.4436
    8MOL0     H 1013   9.750   4.878   2.084  1.9950 -1.5130  0.0673
    8MOL0     H 1014   9.975   4.890   2.028 -0.6170 -0.6349  1.4798
    8MOL0     H 1015  10.159   4.850   2.192  0.5955 -0.0404  2.2007
    8MOL0     H 1016  10.302   4.918   2.108 -0.3799 -1.7680  0.2815
    8MOL0     H 1017  10.224   4.928   2.395  0.1248  0.0812  0.0550
    8MOL0     H 1018  10.347   5.037   2.331  0.1659  0.5592 -2.5871
    8MOL0     H 1019  10.460   4.827   2.236 -2.5683  2.7941 -2.2533
    8MOL0     H 1020  10.320   4.733   2.326 -1.2866  1.3675  2.5064
    8MOL0     H 1021  10.552   4.891   2.435  0.6199  0.2221  0.7029
    8MOL0     H 1022  10.421   4.828   2.537 -1.1346 -3.9947 -0.3966
    8MOL0     H 1023  10.457   4.591   2.466  1.0150 -2.1311 -1.9786
    8MOL0     H 1024  10.588   4.623   2.369 -1.7221 -3.1650  1.1483
    8MOL0     H 1025  10.705   4.725   2.566 -2.2042  0.2119 -2.1630
    8MOL0     H 1026  10.584   4.665   2.675 -1.7814  1.2207 -0.5775
    8MOL0     H 1027  10.754   4.487   2.500 -0.0734  1.7970  0.6552
    8MOL0     H 1028  10.625   4.421   2.603  1.6196 -1.9922 -2.4416
    8MOL0     H 1029  10.739   4.521   2.797  2.6865  1.1559  0.4335
    8MOL0     H 1030  10.837   4.397   2.703  2.2095  0.0417 -0.7211
    8MOL0     H 1031  11.030   4.491   2.529  0.0500 -1.1880  1.4790
    8MOL0     H 1032  11.187   4.730   2.435  1.7762 -1.6023 -0.1446
    8MOL0     H 1033  11.242   4.820   2.578 -2.3439  0.8918 -0.5510
    8MOL0     H 1034  11.292   4.519   2.521 -2.7352  0.4050 -1.8310
    8MOL0     H 1035  11.408   4.650   2.480  0.6369 -2.3057 -0.0719
    8MOL0     H 1036  11.471   4.543   2.698 -0.1763 -1.0780 -1.0004
    8MOL0     H 1037  11.312   4.562   2.755 -2.0846  0.5467 -0.8724
    8MOL0     H 1038  11.324   4.789   2.794 -0.2515  1.7932  0.1445
    8MOL0     H 1039  11.446   4.816   2.670 -2.7612 -3.4690 -3.2612
    8MOL0     H 1040  11.641   4.692   2.621 -0.7515 -1.7310  0.4023
    8MOL0     H 1041  11.888   4.686   2.602 -0.5810  0.4848  0.5538
    8MOL0     H 1042  12.295   4.587   2.741 -0.0914 -1.1057 -2.1526
    8MOL0     H 1043  12.522   4.598   2.675 -0.7910  0.9036 -1.7437
    8MOL0     H 1044  12.777   4.580   2.706 -3.3805 -0.3019 -0.7698
    8MOL0     H 1045  12.705   4.704   2.589  0.4286 -1.9922 -0.0936
    8MOL0     H 1046  12.917   4.838   2.669 -4.0499  0.3594  0.3366
    8MOL0     H 1047  12.972   4.694   2.748 -2.7362 -1.5390  0.7566
    8MOL0     H 1048  12.914   4.603   2.477  0.3356  0.1148  0.3418
    8MOL0     H 1049  12.980   4.762   2.469 -0.5815 -2.0048 -1.8151
    8MOL0     H 1050  13.159   4.649   2.642  2.6806 -2.0758 -1.7065
    8MOL0     H 1051  13.181   4.662   2.473 -2.0547  3.1386  0.2271
    8MOL0     H 1052  13.213   4.443   2.497 -1.0090 -1.1421 -0.3975
    8MOL0     H 1053  13.047   4.434   2.440  1.2618 -0.7494 -0.5462
    8MOL0     H 1054  13.089   4.441   2.731  0.8179 -0.7874  0.4901
    8MOL0     H 1055  12.960   4.362   2.641  0.5208 -2.5822  4.4557
    8MOL0     H 1056  13.245   4.250   2.686  0.2256  0.5282 -0.8794
    8MOL0     H 1057  13.126   4.186   2.568 -1.6654 -0.6389  0.7424
    8MOL0     H 1058  13.107   4.078   2.780 -1.1962 -0.8844 -0.5763
    8MOL0     H 1059  13.074   4.224   2.870  3.9372 -3.6422  1.9862
    8MOL0     H 1060  12.596   4.941   2.928  1.5889 -0.2205 -1.4066
    8MOL0     H 1061  12.341   4.946   2.971  0.3801  0.2562  0.3113
    8MOL0     H 1062  11.923   4.750   3.031 -1.6858 -2.0449  1.7643
    8MOL0     H 1063  11.691   4.727   3.050 -2.6473  1.1087 -1.3530
    8MOL0     H 1064  10.035   5.208   2.317 -0.7931 -0.0965  2.1110
    8MOL0     H 1065   9.772   5.234   2.335 -0.0737 -1.1804  0.6390
    8MOL0     H 1066   9.429   4.881   2.275  1.0459  1.1363  0.2963
    8MOL0     H 1067   9.195   4.834   2.329 -1.2941  1.1602  0.8355
    8MOL0     H 1068   8.867   5.054   2.107 -0.1768  2.9227 -0.1709
    8MOL0     H 1069   8.908   5.137   2.260  3.8197 -2.3401  3.6984
    8MOL0     H 1070   8.768   4.989   2.389  0.1963 -0.1362  0.9098
    8MOL0     H 1071   8.734   4.878   2.246  1.1485 -0.2110 -2.2540
    8MOL0     H 1072   8.602   5.018   2.142 -0.7159 -1.3360  0.6656
    8MOL0     H 1073   8.648   5.168   2.225  3.4536 -1.2921 -1.8522
    8MOL0     H 1074   8.422   5.086   2.280  1.6283  1.0294 -0.7128
    8MOL0     H 1075   8.484   4.935   2.333 -0.3843  0.4880  1.1952
    8MOL0     H 1076   8.592   5.102   2.684 -0.1858 -3.8144 -0.6168
    8MOL0     H 1077   9.082   5.177   2.087  0.1446  1.4727  0.8993
    8MOL0     H 1078   9.215   5.298   1.962 -0.4691 -0.2414 -0.1049
    8MOL0     H 1079   9.371   5.328   2.034 -0.3387  2.0431 -2.3247
    8MOL0     H 1080   9.373   5.225   1.912 -0.8843 -0.6391  0.2526
    9MOL0     O 1081  10.102   6.836   0.705 -0.2507 -1.0431  0.1851
    9MOL0     C 1082  10.069   6.885   0.597  0.1044 -0.2038 -0.3966
    9MOL0     O 1083   9.983   6.996   0.578 -0.0162  0.4867  0.2779
    9MOL0     C 1084   9.904   7.025   0.683  0.6230 -0.2455  0.3743
    9MOL0     C 1085   9.762   7.040   0.664  0.2634  0.2391 -0.0098
    9MOL0     C 1086   9.666   7.073   0.762 -1.1489  0.5944  1.0606
    9MOL0     C 1087   9.711   7.089   0.897 -1.4305  0.3813  0.2175
    9MOL0     O 1088   9.629   7.107   1.008  0.0893 -0.8253  0.0200
    9MOL0     C 1089   9.497   7.175   0.982 -0.7619 -0.6260  0.6196
    9MOL0     C 1090   9.427   7.190   1.111 -0.8422  0.3009 -0.4267
    9MOL0     C 1091   9.277   7.228   1.100 -0.1858  1.0445  0.4638
    9MOL0     C 1092   9.248   7.363   1.033 -0.3430 -0.1837  0.1287
    9MOL0     C 1093   9.097   7.387   1.009  0.0754 -0.2217 -0.2721
    9MOL0     C 1094   9.060   7.315   0.872  0.5304 -0.0806 -0.0843
    9MOL0     C 1095   8.916   7.358   0.832  0.9107  0.2505 -0.3539
    9MOL0     C 1096   8.809   7.289   0.900 -0.2889 -0.0192  0.0123
    9MOL0     N 1097   8.680   7.315   0.836  0.3967  0.2404  0.8278
    9MOL0     C 1098   8.577   7.377   0.904  0.3339  0.8709 -0.3641
    9MOL0     C 1099   8.499   7.412   0.801  0.2315  0.8161  0.7359
    9MOL0     C 1100   8.393   7.514   0.807  0.0388  0.7854  0.0790
    9MOL0     C 1101   8.453   7.637   0.734  0.1755 -0.0321 -0.3677
    9MOL0     C 1102   8.559   7.708   0.811 -0.5215 -0.1945  0.2887
    9MOL0     C 1103   8.608   7.831   0.728 -0.0012 -0.3738  0.2269
    9MOL0     O 1104   8.638   7.800   0.594  0.5996 -0.4948 -0.2791
    9MOL0     C 1105   8.762   7.746   0.576  0.2966  1.4516  0.0927
    9MOL0     C 1106   8.870   7.832   0.540  0.0045 -0.9974 -0.7906
    9MOL0     C 1107   8.997   7.783   0.509 -0.5892  0.7245  0.2514
    9MOL0     C 1108   9.032   7.645   0.516  0.1378 -1.0040 -0.0488
    9MOL0     C 1109   9.171   7.595   0.486  0.2100 -0.4913  0.5872
    9MOL0     O 1110   9.187   7.456   0.498  0.1116 -0.1653 -0.2543
    9MOL0     C 1111   9.320   7.410   0.477  0.0657 -1.1313 -0.4344
    9MOL0     C 1112   9.351   7.375   0.347 -0.5079  0.1710 -0.0164
    9MOL0     C 1113   9.482   7.326   0.331  0.5326  0.9194  0.6993
    9MOL0     C 1114   9.576   7.312   0.435 -0.1314  0.4822 -0.2969
    9MOL0     O 1115   9.706   7.268   0.405 -0.2913 -0.1492  0.2703
    9MOL0     C 1116   9.795   7.378   0.360 -0.7309  0.4423 -0.6129
    9MOL0     C 1117   9.924   7.366   0.445 -0.8934  0.0960 -0.1747
    9MOL0     C 1118  10.058   7.383   0.361  0.4483 -0.0476 -0.0365
    9MOL0     C 1119  10.167   7.401   0.459 -0.2829  0.5237 -0.3697
    9MOL0     C 1120  10.300   7.331   0.421  0.1294  0.6204  0.5448
    9MOL0     C 1121  10.413   7.309   0.525 -0.2639  0.4909 -0.0253
    9MOL0     C 1122  10.544   7.230   0.466  0.5362 -0.5722  0.0563
    9MOL0     C 1123  10.574   7.097   0.517 -0.1006 -0.3551  0.2803
    9MOL0    Cl 1124  10.740   7.036   0.465  0.2278 -0.2245  0.0538
    9MOL0     C 1125   9.547   7.359   0.565  0.2689  0.3232  0.5185
    9MOL0     C 1126   9.415   7.405   0.583  0.0773  0.8144 -0.1143
    9MOL0     O 1127   9.256   7.668   0.442  0.7091  0.2645 -0.7034
    9MOL0     C 1128   8.926   7.560   0.547  0.0485 -0.0050 -0.2557
    9MOL0     C 1129   8.789   7.605   0.578 -0.4223 -0.6531 -0.6803
    9MOL0     N 1130   8.543   7.350   0.683 -0.6280 -0.2683 -0.1783
    9MOL0     N 1131   8.657   7.284   0.709  0.5038 -0.3721  0.6186
    9MOL0     C 1132   9.848   7.071   0.924 -0.2075 -0.2779 -1.1346
    9MOL0     C 1133   9.944   7.044   0.823 -0.0925  0.6297  0.1119
    9MOL0     C 1134  10.137   6.842   0.469 -0.5585 -1.2794 -0.8252
    9MOL0     C 1135  10.153   6.931   0.357  0.5903  0.1842  0.8646
    9MOL0     C 1136  10.230   6.895   0.242 -0.2364 -0.1940 -0.8172
    9MOL0     C 1137  10.297   6.769   0.238  0.3671 -0.2735  0.2121
    9MOL0     O 1138  10.399   6.739   0.146  0.7361 -0.9515 -0.5010
    9MOL0     C 1139  10.476   6.840   0.076  0.1273 -0.4248 -0.3406
    9MOL0     C 1140  10.538   6.943   0.171  0.8400  0.3194 -0.7294
    9MOL0     C 1141  10.637   7.045   0.097  0.7890  0.6965 -1.0684
    9MOL0     C 1142  10.565   7.121  -0.013  0.3257 -0.4023 -0.8040
    9MOL0     C 1143  10.439   7.186   0.032  0.4655 -0.2467 -0.3028
    9MOL0     C 1144  10.328   7.231   0.057 -0.1863 -0.2850  0.0424
    9MOL0     C 1145  10.274   6.674   0.345  0.6155 -0.7726  0.3871
    9MOL0     C 1146  10.199   6.710   0.463 -0.4722 -0.9900  0.1580
    9MOL0     C 1147  10.174   6.602   0.562 -0.6770  0.5154 -0.6354
    9MOL0     H 1148   9.722   7.029   0.564 -0.6689 -4.7060  0.6587
    9MOL0     H 1149   9.563   7.067   0.729 -0.7654  5.2759 -2.1098
    9MOL0     H 1150   9.495   7.271   0.928 -0.8593 -1.4045 -0.8104
    9MOL0     H 1151   9.435   7.101   0.930 -1.7258 -0.2054  1.1452
    9MOL0     H 1152   9.489   7.242   1.184  0.3664 -1.1670 -0.3637
    9MOL0     H 1153   9.428   7.090   1.157 -0.2118  1.0574  1.3198
    9MOL0     H 1154   9.218   7.230   1.192 -1.0836  2.2487 -0.1006
    9MOL0     H 1155   9.235   7.140   1.051  1.2746 -0.6389  2.1392
    9MOL0     H 1156   9.275   7.446   1.099  1.6506 -1.4364  0.9765
    9MOL0     H 1157   9.300   7.379   0.938  1.0156  1.1478  1.0415
    9MOL0     H 1158   9.041   7.346   1.094  2.3189 -1.1780  0.8498
    9MOL0     H 1159   9.077   7.492   0.990  1.4249 -0.0619 -0.9345
    9MOL0     H 1160   9.127   7.357   0.796  0.2556 -1.3693 -1.0815
    9MOL0     H 1161   9.072   7.207   0.883  1.0278  0.1948  3.5385
    9MOL0     H 1162   8.899   7.333   0.727  0.5250 -1.4294  0.0747
    9MOL0     H 1163   8.896   7.465   0.838  0.6913  0.2116  5.2024
    9MOL0     H 1164   8.838   7.185   0.915  2.1315  0.7450  1.1593
    9MOL0     H 1165   8.802   7.313   1.006 -0.5910  1.7798 -0.3893
    9MOL0     H 1166   8.586   7.415   1.005  3.2895  4.0793 -1.6319
    9MOL0     H 1167   8.305   7.476   0.755  0.0280  2.1662 -0.9687
    9MOL0     H 1168   8.369   7.539   0.911  1.5297  1.6838  0.2399
    9MOL0     H 1169   8.504   7.609   0.641 -2.2542  0.7597 -2.0457
    9MOL0     H 1170   8.370   7.703   0.706  0.2180  0.2540  0.1663
    9MOL0     H 1171   8.637   7.640   0.846  0.0553 -1.7887 -3.5152
    9MOL0     H 1172   8.515   7.737   0.907  0.4845 -0.8962  0.9791
    9MOL0     H 1173   8.696   7.877   0.773  0.1803 -0.1713 -0.3228
    9MOL0     H 1174   8.529   7.906   0.723 -2.3423 -2.7218 -0.3654
    9MOL0     H 1175   8.840   7.934   0.560  0.8097 -1.1537  1.5210
    9MOL0     H 1176   9.070   7.857   0.478  1.5708 -1.0062  0.8978
    9MOL0     H 1177   9.286   7.385   0.261 -1.1031  1.5716  0.5600
    9MOL0     H 1178   9.508   7.279   0.237 -3.3750  0.0397 -0.1105
    9MOL0     H 1179   9.817   7.362   0.254  0.3446  2.5889 -0.7552
    9MOL0     H 1180   9.757   7.480   0.373  0.7384  0.6918  2.7495
    9MOL0     H 1181   9.928   7.436   0.528 -0.2799  0.8522 -0.8253
    9MOL0     H 1182   9.926   7.265   0.486 -4.4009 -1.1352 -2.5569
    9MOL0     H 1183  10.068   7.292   0.301  0.4399  0.1551 -0.3436
    9MOL0     H 1184  10.055   7.477   0.306  1.3410  1.3045  2.0833
    9MOL0     H 1185  10.137   7.355   0.554 -2.3224  1.2837 -0.6071
    9MOL0     H 1186  10.179   7.506   0.487 -2.5381  0.9149 -0.7451
    9MOL0     H 1187  10.342   7.384   0.335  3.5947 -1.1895  0.9312
    9MOL0     H 1188  10.265   7.232   0.390 -1.2836  0.0464  3.5880
    9MOL0     H 1189  10.445   7.404   0.568 -2.1174  0.2738  1.9999
    9MOL0     H 1190  10.371   7.258   0.613 -0.0949 -0.2782 -0.3810
    9MOL0     H 1191  10.642   7.277   0.478  1.9201 -2.3823 -3.0313
    9MOL0     H 1192  10.537   7.228   0.356  2.1072  2.3712 -0.2130
    9MOL0     H 1193  10.566   7.108   0.625 -3.4674 -0.9837  0.1976
    9MOL0     H 1194  10.504   7.023   0.477  2.1479 -2.4082 -0.0914
    9MOL0     H 1195   9.622   7.357   0.644  2.2556  0.2900 -1.2885
    9MOL0     H 1196   9.375   7.426   0.682 -1.4736 -0.7077 -0.3773
    9MOL0     H 1197   8.954   7.456   0.557 -1.4989 -0.3134  1.5698
    9MOL0     H 1198   8.705   7.542   0.604  0.5585 -0.9927  1.9181
    9MOL0     H 1199   9.891   7.096   1.021 -0.1790  0.2225 -1.2755
    9MOL0     H 1200  10.051   7.053   0.839  0.1612  2.8562 -2.2563
    9MOL0     H 1201  10.101   7.024   0.341 -2.1167 -1.3243  0.2750
    9MOL0     H 1202  10.250   6.967   0.163 -0.3854 -0.5376 -1.1695
    9MOL0     H 1203  10.421   6.891  -0.003  1.9227  2.3513  0.0570
    9MOL0     H 1204  10.554   6.780   0.028 -1.0963 -0.5446 -2.2454
    9MOL0     H 1205  10.605   6.890   0.239  1.1331  0.9840 -0.4925
    9MOL0     H 1206  10.456   6.993   0.223 -0.9076 -1.8228 -1.2827
    9MOL0     H 1207  10.723   6.988   0.061 -1.0398 -4.2188  1.3922
    9MOL0     H 1208  10.670   7.117   0.173  0.5921  0.5324 -0.8276
    9MOL0     H 1209  10.633   7.202  -0.043  1.7748  0.1399  3.3738
    9MOL0     H 1210  10.545   7.058  -0.100  1.5275  1.2193 -2.3393
    9MOL0     H 1211  10.232   7.267   0.086  1.0689  0.8191  3.3342
    9MOL0     H 1212  10.342   6.589   0.341  1.4842 -0.0691 -0.6936
    9MOL0     H 1213  10.204   6.506   0.521 -1.1210 -0.0290  0.2715
    9MOL0     H 1214  10.236   6.619   0.651  1.6243 -2.7421 -1.4549
    9MOL0     H 1215  10.067   6.593   0.585 -0.1744 -2.3289  1.0469
   10MOL0     O 1216   0.789  10.052   3.939 -0.2390 -0.1447 -0.2056
   10MOL0     C 1217   0.804   9.995   4.051  0.0919  0.8863  0.1568
   10MOL0     O 1218   0.925   9.962   4.104  0.2363 -0.0337  0.0163
   10MOL0     C 1219   1.025   9.950   4.010 -1.1458 -0.3298 -0.0864
   10MOL0     C 1220   1.060   9.830   3.934 -0.0625  0.2087 -0.0754
   10MOL0     C 1221   1.181   9.850   3.857 -0.2241  0.6036  0.3415
   10MOL0     C 1222   1.254   9.966   3.850 -0.2639  0.1583  0.7243
   10MOL0     O 1223   1.371   9.963   3.773 -0.0999 -0.3888  0.0418
   10MOL0     C 1224   1.356   9.980   3.633  0.1790 -0.4638 -0.5457
   10MOL0     C 1225   1.502   9.971   3.579 -0.0608 -0.0744 -0.5310
   10MOL0     C 1226   1.542   9.830   3.557  0.1287  0.6061 -0.3777
   10MOL0     C 1227   1.693   9.802   3.571  0.5491 -0.2633  0.0981
   10MOL0     C 1228   1.707   9.647   3.570 -0.4168  0.6733 -0.8428
   10MOL0     C 1229   1.850   9.598   3.549 -0.2687  0.2390  1.5409
   10MOL0     C 1230   1.961   9.607   3.658  0.4668  0.0601 -0.0034
   10MOL0     C 1231   2.090   9.534   3.626  0.1413 -0.3837  1.1749
   10MOL0     N 1232   2.193   9.562   3.731 -0.2562  0.8810  0.4517
   10MOL0     C 1233   2.182   9.519   3.858 -0.4062 -0.5860 -0.8008
   10MOL0     C 1234   2.304   9.546   3.909 -0.3151 -0.5248  0.5029
   10MOL0     C 1235   2.353   9.528   4.047  0.0911  0.8157 -1.0105
   10MOL0     C 1236   2.403   9.390   4.096 -0.7086  0.6998 -0.8801
   10MOL0     C 1237   2.534   9.346   4.023 -0.2270  0.0300 -0.0617
   10MOL0     C 1238   2.651   9.453   4.038 -0.0620  0.5852  0.7457
   10MOL0     O 1239   2.672   9.495   4.170  0.1296 -0.0115  0.2768
   10MOL0     C 1240   2.771   9.436   4.251 -0.7817 -0.1064  0.9223
   10MOL0     C 1241   2.868   9.337   4.226 -0.5227  0.1438  0.0031
   10MOL0     C 1242   2.965   9.300   4.320 -0.1454 -0.9469 -0.0029
   10MOL0     C 1243   2.968   9.358   4.448  0.7406  0.4965 -0.2295
   10MOL0     C 1244   3.066   9.310   4.545 -0.0648  0.1543  0.5696
   10MOL0     O 1245   3.160   9.222   4.516 -0.7026  0.5081 -0.4159
   10MOL0     C 1246   3.264   9.196   4.606  0.1996 -0.2605 -0.4898
   10MOL0     C 1247   3.359   9.293   4.650 -0.1909 -0.5550  0.2282
   10MOL0     C 1248   3.469   9.242   4.721  0.3641 -0.0219 -0.9805
   10MOL0     C 1249   3.487   9.104   4.763  0.3962 -0.6329  0.1763
   10MOL0     O 1250   3.593   9.069   4.851 -0.9581  0.1896 -0.4132
   10MOL0     C 1251   3.721   9.087   4.788 -0.7010  1.2248  0.1028
   10MOL0     C 1252   3.729   8.983   4.677  0.1527 -0.6599 -0.4917
   10MOL0     C 1253   3.874   8.993   4.622  0.4289  0.1495  0.0026
   10MOL0     C 1254   3.909   8.899   4.509  0.5953 -0.1289  0.3265
   10MOL0     C 1255   4.058   8.897   4.471  0.5587 -0.3291 -0.0383
   10MOL0     C 1256   4.083   8.769   4.389  0.1741 -0.1515  0.0314
   10MOL0     C 1257   4.229   8.781   4.338 -0.1962  0.4107  0.1511
   10MOL0     C 1258   4.260   8.693   4.217 -0.0718  0.1447  0.3688
   10MOL0    Cl 1259   4.427   8.732   4.166 -0.2025  0.2709 -0.3775
   10MOL0     C 1260   3.381   9.017   4.737 -0.5980  0.2488  0.6281
   10MOL0     C 1261   3.277   9.057   4.655  0.9243  0.6546  0.1236
   10MOL0     O 1262   3.051   9.352   4.660  0.1697 -0.8146 -0.5709
   10MOL0     C 1263   2.873   9.460   4.479 -0.6215  0.3899  0.1200
   10MOL0     C 1264   2.776   9.499   4.386  0.0973  0.4566 -0.5540
   10MOL0     N 1265   2.386   9.609   3.811  0.6989  0.5570  0.2465
   10MOL0     N 1266   2.313   9.626   3.700  0.5108 -0.4054 -0.2494
   10MOL0     C 1267   1.213  10.073   3.917  0.5617  0.4087  0.5093
   10MOL0     C 1268   1.107  10.065   4.000  0.0521 -0.4170  1.0860
   10MOL0     C 1269   0.686   9.978   4.143 -0.5699 -0.1619 -0.2015
   10MOL0     C 1270   0.709   9.972   4.277 -0.7799 -0.4372  0.0921
   10MOL0     C 1271   0.604   9.968   4.367 -0.4966  0.2404 -0.0948
   10MOL0     C 1272   0.480   9.952   4.326  0.3096  0.5873 -0.2394
   10MOL0     O 1273   0.378   9.942   4.420 -0.7788  0.7219  0.3980
   10MOL0     C 1274   0.239   9.903   4.393 -0.0420 -0.8618 -0.0919
   10MOL0     C 1275   0.163   9.850   4.514  0.4263  0.1525  0.1318
   10MOL0     C 1276   0.080   9.954   4.595 -0.0594  0.8631 -0.2300
   10MOL0     C 1277  -0.055   9.904   4.653 -0.4247  0.1446 -0.2673
   10MOL0     C 1278  -0.024   9.805   4.754  0.5012 -0.4055  0.1969
   10MOL0     C 1279  -0.019   9.724   4.834 -0.4353 -0.2113 -0.5101
   10MOL0     C 1280   0.455   9.951   4.184 -0.0585  0.9765  0.3487
   10MOL0     C 1281   0.555   9.964   4.086 -0.9530 -0.8335 -0.6048
   10MOL0     C 1282   0.518   9.963   3.938  0.4759  0.8840 -0.0687
   10MOL0     H 1283   0.998   9.741   3.940  1.0735 -0.4996  2.6038
   10MOL0     H 1284   1.215   9.758   3.809 -2.5806 -0.3220  0.2991
   10MOL0     H 1285   1.297   9.894   3.599  0.6022  0.0646 -2.7914
   10MOL0     H 1286   1.305  10.066   3.589  1.6359  1.2411  0.9304
   10MOL0     H 1287   1.573  10.028   3.640  0.9280  1.3930 -2.9278
   10MOL0     H 1288   1.495  10.018   3.481 -0.7950 -0.3308 -0.6062
   10MOL0     H 1289   1.513   9.804   3.454 -3.5725 -1.2311  0.9444
   10MOL0     H 1290   1.482   9.764   3.620 -2.1773  0.5604 -2.4902
   10MOL0     H 1291   1.738   9.842   3.480  2.7474 -0.4000  1.0742
   10MOL0     H 1292   1.728   9.847   3.664 -0.7246  0.3453  0.3169
   10MOL0     H 1293   1.672   9.607   3.665  1.5111  0.0578 -0.3509
   10MOL0     H 1294   1.647   9.591   3.498 -0.7249 -2.6277  1.7499
   10MOL0     H 1295   1.839   9.495   3.513  2.5058  0.1784  0.6203
   10MOL0     H 1296   1.885   9.663   3.469  1.2427  1.0500  2.8062
   10MOL0     H 1297   1.917   9.583   3.755  3.1537 -0.1511  1.2728
   10MOL0     H 1298   1.983   9.714   3.665  1.4875 -0.1638  0.3257
   10MOL0     H 1299   2.070   9.427   3.622  1.5515 -0.7553 -4.1816
   10MOL0     H 1300   2.126   9.571   3.529  0.5183  1.1040  1.8540
   10MOL0     H 1301   2.104   9.481   3.923 -1.3139  1.2522 -0.7418
   10MOL0     H 1302   2.417   9.614   4.069  0.0402  0.0552  2.6655
   10MOL0     H 1303   2.270   9.556   4.113  1.9114  2.9664  0.5153
   10MOL0     H 1304   2.422   9.391   4.203  0.7007  2.3719 -1.0857
   10MOL0     H 1305   2.323   9.317   4.087 -0.2604 -0.3341  2.4055
   10MOL0     H 1306   2.518   9.337   3.915 -0.1761  0.4784 -0.1088
   10MOL0     H 1307   2.573   9.253   4.065 -0.3074 -0.3717 -0.8628
   10MOL0     H 1308   2.614   9.538   3.980 -4.9706 -0.5669  1.7314
   10MOL0     H 1309   2.747   9.419   3.999 -0.4691 -0.2983  0.4781
   10MOL0     H 1310   2.891   9.274   4.140  2.2416 -0.2374  0.9120
   10MOL0     H 1311   3.047   9.232   4.297  0.5169  0.7047 -3.1598
   10MOL0     H 1312   3.366   9.394   4.611  1.5056 -0.1975  1.3745
   10MOL0     H 1313   3.553   9.305   4.748  0.5877 -0.9143  0.4802
   10MOL0     H 1314   3.738   9.181   4.735  4.1017  0.9428  0.6296
   10MOL0     H 1315   3.805   9.072   4.857 -2.2087 -2.7344  1.3519
   10MOL0     H 1316   3.723   8.882   4.719  1.3596 -1.1881 -1.5270
   10MOL0     H 1317   3.655   8.990   4.596  1.0424 -1.0612 -1.3629
   10MOL0     H 1318   3.893   9.095   4.586  3.7792 -0.3016  0.2518
   10MOL0     H 1319   3.949   8.978   4.700  1.2394 -0.5285 -0.8827
   10MOL0     H 1320   3.849   8.925   4.421  0.8312 -1.2971 -0.2004
   10MOL0     H 1321   3.881   8.799   4.542  0.9044 -0.0309  0.9025
   10MOL0     H 1322   4.121   8.881   4.559 -1.3335 -1.3771  1.1900
   10MOL0     H 1323   4.093   8.994   4.433 -0.8488  0.6517  1.0515
   10MOL0     H 1324   4.065   8.684   4.455  1.6180 -0.3212  0.2427
   10MOL0     H 1325   4.018   8.747   4.304  2.0256 -1.2199 -1.1662
   10MOL0     H 1326   4.301   8.766   4.419  0.4710  1.8291 -0.1570
   10MOL0     H 1327   4.233   8.881   4.295 -2.3620  0.3475 -0.3322
   10MOL0     H 1328   4.262   8.585   4.237  0.7253 -0.3307 -1.9700
   10MOL0     H 1329   4.193   8.714   4.133  1.8794 -1.2101 -1.6347
   10MOL0     H 1330   3.386   8.911   4.761  0.9659  0.4300  1.2334
   10MOL0     H 1331   3.189   9.001   4.624 -0.3934  2.9150 -0.5025
   10MOL0     H 1332   2.873   9.511   4.575 -0.7630  0.0689  0.2913
   10MOL0     H 1333   2.694   9.566   4.411 -2.6784 -2.4605 -1.1404
   10MOL0     H 1334   1.267  10.167   3.911  1.3687  0.1187  2.5195
   10MOL0     H 1335   1.095  10.155   4.060 -0.7190  0.7084 -0.6551
   10MOL0     H 1336   0.801  10.010   4.320 -0.1233 -2.7372  0.8767
   10MOL0     H 1337   0.630   9.993   4.469 -0.7417  3.9280 -0.8129
   10MOL0     H 1338   0.252   9.821   4.322  2.8203  0.6676 -1.5299
   10MOL0     H 1339   0.188   9.983   4.339  0.8642  1.1486  1.8645
   10MOL0     H 1340   0.224   9.790   4.582 -1.3971 -1.3672  0.5105
   10MOL0     H 1341   0.093   9.774   4.477 -1.7900  2.2719 -0.3144
   10MOL0     H 1342   0.064  10.055   4.554  0.5890  1.4045  0.7992
   10MOL0     H 1343   0.144   9.988   4.677 -2.7920  2.2666  1.4978
   10MOL0     H 1344  -0.106   9.988   4.701 -0.5042  0.3077 -0.6356
   10MOL0     H 1345  -0.122   9.864   4.577 -0.0412 -0.6363 -0.1997
   10MOL0     H 1346  -0.029   9.649   4.911  0.8248  0.3920  0.2832
   10MOL0     H 1347   0.354   9.936   4.150 -1.4552  3.0417  3.1636
   10MOL0     H 1348   0.557  10.047   3.880  0.4077 -0.0341 -1.4674
   10MOL0     H 1349   0.552   9.873   3.887 -2.0970  0.2014 -0.7298
   10MOL0     H 1350   0.410   9.951   3.930  0.5884 -1.5629  1.2230
   11MOL0     O 1351   2.256   8.940   4.401 -0.5923 -0.2340  0.1080
   11MOL0     C 1352   2.210   9.043   4.428  0.5227  0.8746  0.7786
   11MOL0     O 1353   2.272   9.138   4.508  0.3157  0.0648  0.3999
   11MOL0     C 1354   2.395   9.099   4.559 -0.0348 -0.2722 -0.9771
   11MOL0     C 1355   2.407   9.063   4.699  0.1063 -0.3657 -0.2677
   11MOL0     C 1356   2.535   9.038   4.749  0.1896 -0.5334 -0.4621
   11MOL0     C 1357   2.647   9.037   4.667 -0.6207  0.6619 -0.5856
   11MOL0     O 1358   2.778   9.008   4.709 -0.7425 -0.4924 -0.9627
   11MOL0     C 1359   2.806   9.048   4.849  0.5581  0.6905  0.0128
   11MOL0     C 1360   2.953   9.045   4.857 -0.2563  0.9104  0.1298
   11MOL0     C 1361   3.003   9.083   4.996 -0.2062  0.9899 -0.0876
   11MOL0     C 1362   3.154   9.107   4.975  0.8025  0.6825 -0.2466
   11MOL0     C 1363   3.212   9.164   5.105  1.2879 -1.3977 -0.1222
   11MOL0     C 1364   3.355   9.201   5.087  0.0652 -0.2833 -0.9904
   11MOL0     C 1365   3.415   9.263   5.212 -1.0316 -0.0518 -0.4432
   11MOL0     C 1366   3.404   9.410   5.226 -0.2595 -0.8899 -0.8044
   11MOL0     N 1367   3.441   9.458   5.361 -0.8356  0.1682 -0.5360
   11MOL0     C 1368   3.503   9.583   5.368  0.9329 -0.4476 -0.0634
   11MOL0     C 1369   3.475   9.625   5.491 -0.6616  0.6559 -0.7779
   11MOL0     C 1370   3.518   9.765   5.548  0.6735  0.3440 -0.3340
   11MOL0     C 1371   3.443   9.823   5.674 -1.6236  0.0604 -0.6064
   11MOL0     C 1372   3.502   9.764   5.799  0.3144  0.2354 -0.1628
   11MOL0     C 1373   3.637   9.832   5.834 -0.1568 -0.3129 -0.0021
   11MOL0     O 1374   3.708   9.751   5.928 -0.4594 -0.2633 -0.0175
   11MOL0     C 1375   3.654   9.764   6.057  0.6077  0.6289  0.1538
   11MOL0     C 1376   3.668   9.881   6.136  0.1863  0.5574  0.1528
   11MOL0     C 1377   3.622   9.876   6.271 -0.7306  0.8398  0.6315
   11MOL0     C 1378   3.576   9.759   6.334  0.4038  0.6403 -0.0448
   11MOL0     C 1379   3.527   9.764   6.476 -0.7042  0.1060  0.3356
   11MOL0     O 1380   3.524   9.878   6.551 -0.9366  0.1285 -0.0640
   11MOL0     C 1381   3.475   9.867   6.679  0.5725 -0.1535  0.3870
   11MOL0     C 1382   3.336   9.908   6.696 -0.5526 -0.0804 -0.5153
   11MOL0     C 1383   3.290   9.903   6.822  0.1373 -0.7972 -1.4030
   11MOL0     C 1384   3.371   9.866   6.937 -0.9347 -0.2458  0.0285
   11MOL0     O 1385   3.301   9.864   7.057  0.1855  0.6547 -0.5870
   11MOL0     C 1386   3.380   9.856   7.176 -0.9120 -0.5031 -0.9185
   11MOL0     C 1387   3.298   9.855   7.300 -0.0726  0.5055 -0.1492
   11MOL0     C 1388   3.195   9.970   7.293  0.2291  1.1880  0.1066
   11MOL0     C 1389   3.091   9.952   7.406 -0.7806 -0.3413 -0.1674
   11MOL0     C 1390   2.962  10.016   7.379  0.4576 -0.1390 -0.8767
   11MOL0     C 1391   2.843   9.957   7.474  0.1996  0.0078  0.3103
   11MOL0     C 1392   2.706   9.996   7.413  0.1233  0.0226 -0.0020
   11MOL0     C 1393   2.689  10.142   7.371 -0.6575 -0.1266  0.8976
   11MOL0    Cl 1394   2.518  10.165   7.348 -0.5602 -0.3097 -0.1480
   11MOL0     C 1395   3.505   9.825   6.918  0.0343 -0.2843  0.5956
   11MOL0     C 1396   3.557   9.819   6.779 -0.7470 -0.4028 -0.6434
   11MOL0     O 1397   3.483   9.666   6.521 -0.5889 -0.2092 -0.6269
   11MOL0     C 1398   3.569   9.642   6.254 -0.4979 -0.2476  0.1511
   11MOL0     C 1399   3.602   9.649   6.117 -0.0818 -0.4302 -0.8211
   11MOL0     N 1400   3.403   9.525   5.555  0.3942 -0.3357 -0.2050
   11MOL0     N 1401   3.375   9.430   5.473  0.7239 -0.1893 -0.3708
   11MOL0     C 1402   2.637   9.067   4.531  0.5703 -0.2183  0.3683
   11MOL0     C 1403   2.513   9.099   4.481  1.4796  0.1478  0.6611
   11MOL0     C 1404   2.084   9.083   4.352 -0.1466 -0.5399  0.3737
   11MOL0     C 1405   2.078   9.219   4.313 -0.4764  0.1866  0.8559
   11MOL0     C 1406   1.972   9.276   4.246  1.7690 -0.4848  0.6291
   11MOL0     C 1407   1.862   9.195   4.202  0.2264  0.2336 -0.5365
   11MOL0     O 1408   1.759   9.238   4.123 -0.4630  0.7411 -0.1148
   11MOL0     C 1409   1.785   9.295   3.999 -0.5026  0.3255 -0.3003
   11MOL0     C 1410   1.662   9.361   3.928 -0.9311 -0.2968  0.8727
   11MOL0     C 1411   1.543   9.266   3.924 -0.1468  0.0370 -0.1692
   11MOL0     C 1412   1.422   9.314   3.841  0.5905  0.0806 -0.8848
   11MOL0     C 1413   1.356   9.419   3.918  0.0030  0.5487 -0.2307
   11MOL0     C 1414   1.291   9.497   3.991  0.2297 -0.1328 -0.4256
   11MOL0     C 1415   1.868   9.059   4.232  0.1542  0.4676  0.0535
   11MOL0     C 1416   1.980   9.006   4.309 -0.1560  0.4663  0.6195
   11MOL0     C 1417   1.967   8.867   4.337  0.2751  0.6117 -0.6729
   11MOL0     H 1418   2.325   9.058   4.770  0.3302 -0.4691 -0.0182
   11MOL0     H 1419   2.542   9.021   4.856 -0.6638 -0.0490 -0.3189
   11MOL0     H 1420   2.758   9.144   4.872  0.9073  0.8309  0.1560
   11MOL0     H 1421   2.768   8.981   4.926  0.9145  1.0039  0.4659
   11MOL0     H 1422   3.003   9.107   4.781 -1.0385  0.7228 -0.5501
   11MOL0     H 1423   2.980   8.942   4.834  0.7348  1.7413 -3.1099
   11MOL0     H 1424   2.998   8.999   5.067 -0.1593  2.0704  1.2356
   11MOL0     H 1425   2.957   9.172   5.040 -0.9303  0.5420  0.0711
   11MOL0     H 1426   3.208   9.016   4.947 -0.2467 -0.6844  1.8963
   11MOL0     H 1427   3.177   9.178   4.895  1.7393 -0.1006 -0.7030
   11MOL0     H 1428   3.143   9.250   5.112  1.0354 -1.5490 -0.7518
   11MOL0     H 1429   3.200   9.098   5.191 -0.5432 -3.2816 -1.7165
   11MOL0     H 1430   3.413   9.109   5.083  2.9592  1.3406  0.3192
   11MOL0     H 1431   3.376   9.256   4.995 -0.3133 -0.0598 -0.9459
   11MOL0     H 1432   3.516   9.229   5.189 -2.0873 -2.7334 -1.4939
   11MOL0     H 1433   3.389   9.208   5.303  3.7288 -0.7457  0.7440
   11MOL0     H 1434   3.447   9.480   5.153 -2.4489  0.6813 -0.6805
   11MOL0     H 1435   3.297   9.428   5.211 -0.3124  0.8534  1.1282
   11MOL0     H 1436   3.548   9.641   5.288 -0.8790  2.6515  0.9798
   11MOL0     H 1437   3.625   9.751   5.565  0.5527 -0.7195 -0.3511
   11MOL0     H 1438   3.492   9.838   5.470 -3.1309  0.4699  0.8440
   11MOL0     H 1439   3.464   9.931   5.671 -0.9373 -0.0622 -3.7362
   11MOL0     H 1440   3.335   9.805   5.666 -1.7684  0.6207  0.0620
   11MOL0     H 1441   3.495   9.655   5.802 -2.2825  0.3713  1.3008
   11MOL0     H 1442   3.428   9.793   5.874 -0.3247  0.5430 -0.8973
   11MOL0     H 1443   3.625   9.936   5.866 -0.7949  0.4517 -2.5077
   11MOL0     H 1444   3.701   9.838   5.745 -0.2176  0.9151  0.0274
   11MOL0     H 1445   3.720   9.970   6.105  0.5690  0.9288  1.7673
   11MOL0     H 1446   3.643   9.964   6.331 -3.9065  1.0402  1.6512
   11MOL0     H 1447   3.280   9.937   6.608  0.2064 -1.5582 -1.5310
   11MOL0     H 1448   3.186   9.930   6.833  1.0156  2.4804  0.3691
   11MOL0     H 1449   3.460   9.782   7.169  1.1058  1.5515 -0.6574
   11MOL0     H 1450   3.428   9.954   7.177 -0.5754 -0.6663  0.2491
   11MOL0     H 1451   3.259   9.753   7.306  0.4883  0.3390  0.7606
   11MOL0     H 1452   3.369   9.880   7.379 -0.3103  0.0693  0.2033
   11MOL0     H 1453   3.257  10.061   7.296  5.8976 -2.0472 -2.4749
   11MOL0     H 1454   3.134   9.979   7.203 -1.7809 -0.9133  1.1525
   11MOL0     H 1455   3.132  10.009   7.489 -0.8223 -2.6713  1.5462
   11MOL0     H 1456   3.080   9.855   7.455 -2.0349 -0.0382  0.1969
   11MOL0     H 1457   2.931  10.001   7.275  0.9688 -0.4857 -0.9836
   11MOL0     H 1458   2.975  10.124   7.382  0.5973 -0.1768  0.5512
   11MOL0     H 1459   2.848   9.848   7.480 -2.9292 -0.1523  1.9318
   11MOL0     H 1460   2.860   9.990   7.577  1.3200 -1.7259  0.7262
   11MOL0     H 1461   2.635   9.983   7.494 -0.1588  0.7259 -0.1331
   11MOL0     H 1462   2.675   9.939   7.324 -1.2463  0.7704 -0.0179
   11MOL0     H 1463   2.729  10.201   7.454 -1.6014 -0.2641  1.4671
   11MOL0     H 1464   2.750  10.168   7.284  2.1710 -0.5098  2.6349
   11MOL0     H 1465   3.568   9.780   6.994 -1.1964 -1.1935  1.1213
   11MOL0     H 1466   3.655   9.784   6.751 -0.0626 -0.1724  1.2932
   11MOL0     H 1467   3.531   9.551   6.298  0.3233 -0.6561  0.0392
   11MOL0     H 1468   3.595   9.561   6.053  2.7444 -0.5494 -1.0972
   11MOL0     H 1469   2.720   9.064   4.461 -1.1552 -0.4229 -1.8034
   11MOL0     H 1470   2.509   9.130   4.377  1.6375 -1.6034  0.0949
   11MOL0     H 1471   2.162   9.284   4.334  0.8790 -0.9563 -0.7995
   11MOL0     H 1472   1.968   9.381   4.221 -2.0811 -0.3293  1.2280
   11MOL0     H 1473   1.824   9.214   3.937 -0.8976 -0.8038  0.8772
   11MOL0     H 1474   1.855   9.379   3.995  0.1249 -0.2652 -2.1846
   11MOL0     H 1475   1.695   9.395   3.829  2.8248 -2.0361  1.3554
   11MOL0     H 1476   1.631   9.450   3.984  1.4098  2.1003 -1.3281
   11MOL0     H 1477   1.503   9.247   4.024  1.2624 -1.5947  0.1294
   11MOL0     H 1478   1.579   9.172   3.881 -0.4189 -0.0917 -0.1161
   11MOL0     H 1479   1.461   9.354   3.747 -0.6510  1.6295 -0.7784
   11MOL0     H 1480   1.359   9.225   3.828  2.8248 -2.0267  1.4767
   11MOL0     H 1481   1.230   9.563   4.049  1.8253  0.0351  1.1261
   11MOL0     H 1482   1.784   8.997   4.204 -1.9530  1.4858  3.5166
   11MOL0     H 1483   1.982   8.847   4.443  0.2238  1.2674 -0.5352
   11MOL0     H 1484   1.880   8.807   4.308  0.8448 -0.6367  0.1216
   11MOL0     H 1485   2.049   8.817   4.284  1.0819 -0.7836  1.7474
   12MOL0     O 1486   1.350   7.806   2.927 -0.8181 -0.9736  0.9240
   12MOL0     C 1487   1.422   7.859   2.842 -0.4211 -0.5891 -0.5381
   12MOL0     O 1488   1.390   7.868   2.709  0.4922 -0.2146  0.2487
   12MOL0     C 1489   1.258   7.854   2.677  0.3412 -0.6934 -0.4458
   12MOL0     C 1490   1.186   7.978   2.645  0.1241  1.2104 -1.1285
   12MOL0     C 1491   1.053   7.961   2.586 -0.5741 -0.3923 -0.4324
   12MOL0     C 1492   1.005   7.846   2.543  0.5935  0.9420 -0.1406
   12MOL0     O 1493   0.878   7.848   2.491  0.2563  0.6598  0.0452
   12MOL0     C 1494   0.784   7.787   2.587  0.6799 -0.2342 -1.0332
   12MOL0     C 1495   0.650   7.843   2.571  0.5898  0.3836 -0.2120
   12MOL0     C 1496   0.533   7.767   2.648 -0.5811  0.5006  0.4649
   12MOL0     C 1497   0.443   7.858   2.720  1.0131  0.2655  0.1785
   12MOL0     C 1498   0.318   7.781   2.775 -0.2219 -0.7903  0.3016
   12MOL0     C 1499   0.206   7.874   2.822 -0.2998  0.1370  0.8772
   12MOL0     C 1500   0.249   7.986   2.919  0.2364  0.2143  1.0989
   12MOL0     C 1501   0.130   8.075   2.952  0.3619 -1.0818 -0.7084
   12MOL0     N 1502   0.161   8.147   3.075 -0.0065  0.2987  0.6681
   12MOL0     C 1503   0.182   8.281   3.081 -0.0718  0.1277  0.7804
   12MOL0     C 1504   0.167   8.312   3.212  0.4299 -0.7901 -0.1474
   12MOL0     C 1505   0.221   8.443   3.273 -0.2815  0.0113 -0.2853
   12MOL0     C 1506   0.379   8.426   3.302 -0.1010  0.1760 -0.1947
   12MOL0     C 1507   0.459   8.475   3.179 -1.2069  0.4047 -0.6875
   12MOL0     C 1508   0.606   8.429   3.190  0.1114  0.2800 -0.6315
   12MOL0     O 1509   0.694   8.499   3.105  0.6621 -0.3646  0.2184
   12MOL0     C 1510   0.825   8.475   3.101  1.0350  0.8051  0.1391
   12MOL0     C 1511   0.894   8.566   3.025 -0.5771  0.0288  0.2563
   12MOL0     C 1512   1.026   8.556   3.004  0.1618 -0.1295  0.9182
   12MOL0     C 1513   1.096   8.447   3.065 -0.2705  0.5039  1.0831
   12MOL0     C 1514   1.237   8.424   3.027  0.5143  0.0591  0.7103
   12MOL0     O 1515   1.310   8.544   3.014 -0.2735 -0.2304  0.7059
   12MOL0     C 1516   1.437   8.535   2.960  0.2498  0.0595 -0.5842
   12MOL0     C 1517   1.547   8.472   3.030  0.8808  0.3350  0.3584
   12MOL0     C 1518   1.676   8.466   2.972 -0.4179 -0.4949 -0.1907
   12MOL0     C 1519   1.694   8.532   2.847 -0.2263 -0.7103 -0.2623
   12MOL0     O 1520   1.811   8.541   2.790 -0.8728  0.0359  1.0140
   12MOL0     C 1521   1.877   8.668   2.812  0.2606 -0.0795 -0.7987
   12MOL0     C 1522   1.965   8.706   2.696 -0.7993  0.2269  0.5676
   12MOL0     C 1523   2.027   8.846   2.726  0.7534 -0.1838  0.0630
   12MOL0     C 1524   2.101   8.909   2.599  0.2444 -0.1748 -0.1853
   12MOL0     C 1525   2.212   8.830   2.531 -0.6490 -0.4153 -0.0799
   12MOL0     C 1526   2.330   8.789   2.624  0.5969  0.5598 -0.5656
   12MOL0     C 1527   2.416   8.670   2.573  0.8001 -0.9648  0.9490
   12MOL0     C 1528   2.556   8.722   2.529  1.1170  0.1358  0.1909
   12MOL0    Cl 1529   2.642   8.583   2.454 -0.2444  0.0729 -0.1407
   12MOL0     C 1530   1.587   8.604   2.783 -0.7357 -0.1044  0.1222
   12MOL0     C 1531   1.462   8.604   2.843 -0.0557 -0.8279  0.2095
   12MOL0     O 1532   1.278   8.317   2.989  0.0522 -0.0538  0.0490
   12MOL0     C 1533   1.027   8.353   3.143  0.4075 -0.1573  0.1556
   12MOL0     C 1534   0.887   8.359   3.158 -0.3479  0.1695 -0.1311
   12MOL0     N 1535   0.128   8.199   3.278  0.6903 -0.0083 -0.5968
   12MOL0     N 1536   0.134   8.099   3.197 -0.1744  1.2729 -0.4119
   12MOL0     C 1537   1.080   7.732   2.565 -0.5296  0.4094 -0.8058
   12MOL0     C 1538   1.206   7.731   2.632 -0.0058 -0.8718 -1.1074
   12MOL0     C 1539   1.545   7.926   2.879 -0.3161  0.2764  0.1633
   12MOL0     C 1540   1.587   8.049   2.805 -0.8444 -0.8281 -0.4174
   12MOL0     C 1541   1.719   8.092   2.814 -0.2986  0.2084 -1.1226
   12MOL0     C 1542   1.811   8.028   2.897 -0.7731  0.2677 -0.7056
   12MOL0     O 1543   1.943   8.075   2.906  0.2011  0.8346 -0.5533
   12MOL0     C 1544   1.964   8.158   3.018  0.3923  0.1534  0.2597
   12MOL0     C 1545   2.050   8.281   2.967  0.1452 -0.9668  0.1023
   12MOL0     C 1546   2.174   8.234   2.904 -0.3578 -0.3618  0.4554
   12MOL0     C 1547   2.248   8.356   2.839  0.4336 -0.0371  0.1648
   12MOL0     C 1548   2.365   8.307   2.768  0.8516  0.1744  1.1983
   12MOL0     C 1549   2.450   8.260   2.694  0.0103 -0.7427 -0.7709
   12MOL0     C 1550   1.762   7.922   2.978  0.3756 -0.6359 -0.0750
   12MOL0     C 1551   1.637   7.869   2.969  0.7735 -0.0191 -0.9722
   12MOL0     C 1552   1.613   7.744   3.053 -1.3530  0.0155 -0.1200
   12MOL0     H 1553   1.233   8.068   2.684 -0.4947  0.5029  1.4261
   12MOL0     H 1554   1.000   8.054   2.570  0.3918  0.4751  1.1596
   12MOL0     H 1555   0.784   7.685   2.547  1.5044  0.6501 -3.4738
   12MOL0     H 1556   0.813   7.788   2.692 -1.1580  1.3439 -0.4837
   12MOL0     H 1557   0.638   7.846   2.463  0.6699  2.1550 -0.2066
   12MOL0     H 1558   0.648   7.949   2.602  0.9129  0.9653 -2.0788
   12MOL0     H 1559   0.584   7.709   2.726 -0.9893  1.3314  1.3643
   12MOL0     H 1560   0.477   7.703   2.580  1.7143  1.9939 -3.1375
   12MOL0     H 1561   0.484   7.908   2.808 -2.3186 -0.4462  2.3326
   12MOL0     H 1562   0.405   7.934   2.650 -0.0632 -0.4855 -0.0834
   12MOL0     H 1563   0.280   7.716   2.696  3.4109  2.7272 -5.0148
   12MOL0     H 1564   0.341   7.718   2.861 -3.6881 -0.4060  1.6602
   12MOL0     H 1565   0.160   7.925   2.736  3.7550  1.0262 -0.9805
   12MOL0     H 1566   0.133   7.819   2.882  1.2026 -0.1771  2.4700
   12MOL0     H 1567   0.320   8.054   2.871  0.9997 -2.0044 -1.1685
   12MOL0     H 1568   0.286   7.939   3.011  1.2360  1.2520  1.2440
   12MOL0     H 1569   0.114   8.148   2.872 -2.9141  1.2213  1.7481
   12MOL0     H 1570   0.040   8.017   2.972  0.5846 -1.3708 -0.5421
   12MOL0     H 1571   0.223   8.350   3.008 -1.8010  1.9930  1.4883
   12MOL0     H 1572   0.196   8.522   3.203  0.2300  0.7879  0.3945
   12MOL0     H 1573   0.168   8.484   3.360 -2.6154  3.9761 -3.2519
   12MOL0     H 1574   0.394   8.498   3.383  0.0969  0.6934 -0.6895
   12MOL0     H 1575   0.412   8.326   3.333  0.1950  0.2336 -0.3203
   12MOL0     H 1576   0.452   8.584   3.174 -4.6840  0.3875  0.7330
   12MOL0     H 1577   0.419   8.434   3.086 -1.7766  2.4079 -1.3845
   12MOL0     H 1578   0.616   8.324   3.158  1.5805  0.2929 -0.2887
   12MOL0     H 1579   0.638   8.439   3.294 -2.8840  3.4455  0.1382
   12MOL0     H 1580   0.827   8.646   2.995 -2.0182 -0.7659  1.1961
   12MOL0     H 1581   1.082   8.622   2.939  0.7563 -1.3933  0.1174
   12MOL0     H 1582   1.526   8.408   3.116 -0.2919 -2.0562 -1.5921
   12MOL0     H 1583   1.759   8.412   3.016 -1.2851 -0.7438  1.1753
   12MOL0     H 1584   1.795   8.739   2.826 -0.9604 -1.5780  0.0074
   12MOL0     H 1585   1.942   8.666   2.900 -1.5483  1.6925  0.6661
   12MOL0     H 1586   2.045   8.633   2.683 -0.7464  0.3501  0.1930
   12MOL0     H 1587   1.903   8.713   2.606  0.9171 -0.1726 -0.6868
   12MOL0     H 1588   1.932   8.901   2.734  0.2294 -0.7342 -1.9307
   12MOL0     H 1589   2.086   8.863   2.817  0.4956  3.3948 -0.2823
   12MOL0     H 1590   2.147   9.002   2.635  2.4612 -1.4899  0.5985
   12MOL0     H 1591   2.024   8.924   2.523 -0.1442  0.1056  0.2552
   12MOL0     H 1592   2.271   8.886   2.458 -0.9168  1.1563  0.8457
   12MOL0     H 1593   2.170   8.744   2.480 -0.9304 -0.0901 -0.3967
   12MOL0     H 1594   2.385   8.879   2.652 -0.5954  1.2150 -0.2358
   12MOL0     H 1595   2.281   8.758   2.717 -0.1423 -1.3757 -1.5507
   12MOL0     H 1596   2.363   8.637   2.483 -0.2399  1.5632  0.5567
   12MOL0     H 1597   2.428   8.587   2.644 -3.4995 -1.7061  1.1124
   12MOL0     H 1598   2.540   8.812   2.469 -2.1093  1.3240  2.5257
   12MOL0     H 1599   2.609   8.754   2.620 -0.3149 -2.7551  2.1928
   12MOL0     H 1600   1.609   8.654   2.689  2.7673 -0.5177  0.6025
   12MOL0     H 1601   1.374   8.650   2.800  0.1677 -1.0438 -0.5001
   12MOL0     H 1602   1.091   8.274   3.182  3.0125  1.1937 -1.1251
   12MOL0     H 1603   0.827   8.293   3.220  2.5892 -1.8681  0.7384
   12MOL0     H 1604   1.034   7.641   2.527  2.1501 -0.4387 -2.3243
   12MOL0     H 1605   1.262   7.638   2.642  0.3338 -0.4952  0.8945
   12MOL0     H 1606   1.525   8.112   2.743  1.8512  0.1714 -2.3179
   12MOL0     H 1607   1.759   8.183   2.770  1.9769  0.0581  0.4227
   12MOL0     H 1608   2.000   8.097   3.101 -0.5603 -2.7454 -1.3179
   12MOL0     H 1609   1.864   8.195   3.039 -0.9218 -3.1800  0.3526
   12MOL0     H 1610   2.069   8.345   3.054 -3.5499  1.7822 -0.9120
   12MOL0     H 1611   1.985   8.331   2.895 -1.2702  0.3608  2.1853
   12MOL0     H 1612   2.162   8.169   2.817 -1.0933  1.3263 -0.7823
   12MOL0     H 1613   2.240   8.191   2.979 -0.0771 -0.8737 -0.0737
   12MOL0     H 1614   2.182   8.409   2.770 -2.5602  0.8509  3.4073
   12MOL0     H 1615   2.275   8.414   2.928  0.4770 -0.2337  0.2803
   12MOL0     H 1616   2.529   8.207   2.644  1.0119 -1.7078  1.6959
   12MOL0     H 1617   1.827   7.859   3.039 -0.7317 -0.5101  1.2732
   12MOL0     H 1618   1.705   7.704   3.097 -0.0227  2.3810 -0.5393
   12MOL0     H 1619   1.565   7.778   3.145  0.2541 -1.6799  1.4078
   12MOL0     H 1620   1.557   7.663   3.008  2.1801 -3.2708  0.8726
   13MOL0     O 1621   9.250   1.042   1.697 -0.3986 -0.2209  0.8521
   13MOL0     C 1622   9.157   1.053   1.772  0.7069  0.2576  0.3829
   13MOL0     O 1623   9.162   1.072   1.908  0.7773  0.3854 -0.8123
   13MOL0     C 1624   9.282   1.042   1.967 -0.8427  0.1657 -0.1506
   13MOL0     C 1625   9.356   1.156   1.990  1.1154 -0.4695  0.6650
   13MOL0     C 1626   9.485   1.143   2.035 -0.2767 -0.5652  0.7207
   13MOL0     C 1627   9.544   1.019   2.057 -0.1343  0.4388 -0.2056
   13MOL0     O 1628   9.669   0.996   2.106  0.5981  0.0440 -0.4477
   13MOL0     C 1629   9.750   1.104   2.155  0.7807  0.0204 -0.0128
   13MOL0     C 1630   9.842   1.035   2.264 -0.5791 -0.4251  0.2338
   13MOL0     C 1631   9.905   1.139   2.354 -0.7343  0.3869 -0.0482
   13MOL0     C 1632   9.992   1.079   2.465 -0.4298 -0.5577  0.2738
   13MOL0     C 1633  10.009   1.176   2.587 -0.1384  0.2007 -0.2301
   13MOL0     C 1634  10.134   1.129   2.661 -0.5531  0.3485 -0.3319
   13MOL0     C 1635  10.162   1.219   2.777  0.8125  0.6075 -0.5890
   13MOL0     C 1636  10.281   1.186   2.865 -0.2048 -0.4042 -0.4058
   13MOL0     N 1637  10.406   1.208   2.794 -0.3736  0.5741  0.6687
   13MOL0     C 1638  10.469   1.115   2.706  0.5228 -0.7640  0.1712
   13MOL0     C 1639  10.580   1.171   2.664 -0.2176 -1.3808 -0.2745
   13MOL0     C 1640  10.690   1.110   2.572  0.3782  0.2777 -0.3354
   13MOL0     C 1641  10.776   1.020   2.661 -0.6407 -0.2765  0.0171
   13MOL0     C 1642  10.903   1.087   2.720  0.3079 -0.6178  0.0301
   13MOL0     C 1643  10.997   0.990   2.790  0.1917  0.7414 -0.5644
   13MOL0     O 1644  11.020   0.888   2.690  0.4489 -0.4035  0.0624
   13MOL0     C 1645  11.091   0.780   2.722 -0.2237  0.2897  0.1578
   13MOL0     C 1646  11.092   0.670   2.625  0.1223  0.2936 -0.1427
   13MOL0     C 1647  11.160   0.555   2.660  1.0120 -0.1872 -0.9909
   13MOL0     C 1648  11.239   0.555   2.779 -0.4442  0.2383  0.4377
   13MOL0     C 1649  11.326   0.437   2.804 -0.3205  0.1217  0.7135
   13MOL0     O 1650  11.393   0.430   2.922 -0.0155 -0.5961  0.3072
   13MOL0     C 1651  11.518   0.383   2.942  0.8921  0.0470  0.0232
   13MOL0     C 1652  11.583   0.423   3.062  0.4858 -0.3716 -0.5830
   13MOL0     C 1653  11.714   0.390   3.098 -1.5681  0.1092  0.2810
   13MOL0     C 1654  11.782   0.299   3.016  0.0187 -0.9155 -0.2658
   13MOL0     O 1655  11.905   0.259   3.030 -0.6748 -0.1020  1.4332
   13MOL0     C 1656  11.994   0.326   3.117 -0.1573  0.1130  0.1772
   13MOL0     C 1657  12.134   0.260   3.110 -0.3118 -0.1414 -0.7043
   13MOL0     C 1658  12.223   0.320   3.219  0.1147  0.3902 -0.3592
   13MOL0     C 1659  12.363   0.262   3.221 -0.3967  0.3268 -0.4169
   13MOL0     C 1660  12.458   0.297   3.338 -0.5124 -0.1287  0.5409
   13MOL0     C 1661  12.602   0.277   3.309  0.1261  0.1233 -0.5332
   13MOL0     C 1662  12.643   0.147   3.250  0.0289 -0.0847 -0.0601
   13MOL0     C 1663  12.784   0.109   3.313  0.6750  0.2634 -0.0104
   13MOL0    Cl 1664  12.910   0.222   3.268  0.1338  0.9282  0.2060
   13MOL0     C 1665  11.716   0.249   2.907  0.0320  0.2552 -0.3432
   13MOL0     C 1666  11.588   0.294   2.869 -0.6595  0.8137 -0.1155
   13MOL0     O 1667  11.335   0.358   2.707  0.0873  0.0575  0.1855
   13MOL0     C 1668  11.243   0.656   2.867  0.2504  0.0982 -0.4726
   13MOL0     C 1669  11.165   0.764   2.836 -0.1594 -0.1612 -0.9926
   13MOL0     N 1670  10.598   1.296   2.733 -0.3210  0.1884 -0.0537
   13MOL0     N 1671  10.484   1.311   2.801 -0.3095 -0.7115  0.1515
   13MOL0     C 1672   9.462   0.903   2.031 -0.3170  0.0806 -0.1349
   13MOL0     C 1673   9.331   0.914   1.982 -0.8095  0.4188 -0.1325
   13MOL0     C 1674   9.023   1.026   1.707 -0.1489  0.4502  0.0129
   13MOL0     C 1675   8.912   1.018   1.795 -0.4250  0.5298  0.3456
   13MOL0     C 1676   8.785   1.007   1.759  0.5897  0.5863  0.1887
   13MOL0     C 1677   8.752   0.960   1.630 -0.6946  0.1041 -0.0445
   13MOL0     O 1678   8.632   0.921   1.588  0.2301  0.5849 -0.1921
   13MOL0     C 1679   8.507   0.953   1.646 -0.4696 -0.2182 -0.2589
   13MOL0     C 1680   8.381   0.932   1.559 -0.5967 -0.1884  0.1840
   13MOL0     C 1681   8.401   1.003   1.426 -0.2087  0.2899  1.0322
   13MOL0     C 1682   8.272   1.068   1.392  1.1323 -0.2446  0.5261
   13MOL0     C 1683   8.258   1.099   1.249  0.9563 -0.3649 -0.3516
   13MOL0     C 1684   8.228   1.123   1.134 -1.0937  0.4470  0.6287
   13MOL0     C 1685   8.860   0.965   1.536 -0.2432 -0.1180  0.1333
   13MOL0     C 1686   8.995   1.002   1.568 -0.5005 -0.2327  0.3053
   13MOL0     C 1687   9.091   1.008   1.449 -0.2845  0.2155  0.1548
   13MOL0     H 1688   9.322   1.247   1.940 -1.0479 -2.3574 -1.5581
   13MOL0     H 1689   9.536   1.237   2.056 -0.8659  0.4188 -1.8252
   13MOL0     H 1690   9.809   1.141   2.070  0.9278 -0.3651 -0.0804
   13MOL0     H 1691   9.684   1.179   2.198  2.4536  2.3010 -1.1709
   13MOL0     H 1692   9.918   0.974   2.214  1.3394  3.2299 -1.7756
   13MOL0     H 1693   9.787   0.961   2.322 -1.0148 -0.3201 -0.0446
   13MOL0     H 1694   9.817   1.183   2.403 -0.0670 -0.4796  2.0642
   13MOL0     H 1695   9.970   1.213   2.306  0.9795 -1.4188 -0.6211
   13MOL0     H 1696   9.946   0.988   2.504  1.3176 -1.2415  0.8394
   13MOL0     H 1697  10.091   1.050   2.430 -0.2752  0.1219  0.1358
   13MOL0     H 1698  10.023   1.277   2.546 -1.8775 -0.0231 -1.4986
   13MOL0     H 1699   9.922   1.167   2.653  0.4919  1.9078  0.8925
   13MOL0     H 1700  10.135   1.025   2.694 -0.0918  1.0127  1.9985
   13MOL0     H 1701  10.220   1.137   2.594 -0.6976  2.3192 -0.3412
   13MOL0     H 1702  10.075   1.234   2.842 -0.9043 -0.4343 -2.5263
   13MOL0     H 1703  10.179   1.315   2.727 -2.1513  0.2131 -2.6050
   13MOL0     H 1704  10.287   1.257   2.948  2.3796 -3.2913  2.1310
   13MOL0     H 1705  10.271   1.086   2.908 -3.0794  0.0400  0.1508
   13MOL0     H 1706  10.433   1.017   2.676  2.4411 -1.7977  1.0304
   13MOL0     H 1707  10.642   1.049   2.496 -2.1504  0.5275  0.9296
   13MOL0     H 1708  10.761   1.178   2.525  1.0832 -0.0955  0.1685
   13MOL0     H 1709  10.705   0.972   2.729 -0.2546 -2.8152 -1.2303
   13MOL0     H 1710  10.809   0.942   2.591  0.9823  1.9590 -1.8771
   13MOL0     H 1711  10.873   1.159   2.796 -1.5092  0.9423 -2.0166
   13MOL0     H 1712  10.953   1.144   2.640 -2.0508  1.4190 -0.1213
   13MOL0     H 1713  10.965   0.952   2.887  0.1839  1.5730 -0.2328
   13MOL0     H 1714  11.092   1.041   2.808 -0.2556  0.7768  2.1758
   13MOL0     H 1715  11.030   0.680   2.536 -0.1030  1.5154  0.1320
   13MOL0     H 1716  11.152   0.465   2.600 -0.5860  0.3426 -1.6421
   13MOL0     H 1717  11.528   0.498   3.117  1.9006  0.5268 -0.3327
   13MOL0     H 1718  11.754   0.416   3.196 -2.2752 -0.5732  0.7662
   13MOL0     H 1719  12.000   0.434   3.103 -1.1799  0.7644  3.8443
   13MOL0     H 1720  11.948   0.326   3.216  2.8611  3.1692  1.7955
   13MOL0     H 1721  12.126   0.151   3.108 -1.6205 -0.0611 -0.2529
   13MOL0     H 1722  12.174   0.285   3.011 -0.9332  1.0951 -0.6545
   13MOL0     H 1723  12.235   0.428   3.206  0.1030  0.6978  1.7740
   13MOL0     H 1724  12.164   0.308   3.311 -1.7842  0.0141 -1.5742
   13MOL0     H 1725  12.410   0.291   3.126  0.2621 -0.6586 -0.3941
   13MOL0     H 1726  12.357   0.154   3.209  1.2050  0.2429 -0.6765
   13MOL0     H 1727  12.426   0.220   3.409 -0.8919 -2.6156 -2.1306
   13MOL0     H 1728  12.439   0.399   3.372 -2.3283  0.5707 -2.2574
   13MOL0     H 1729  12.638   0.346   3.232 -2.9972  2.6738  0.0677
   13MOL0     H 1730  12.652   0.298   3.404 -0.9425 -0.0117  0.0683
   13MOL0     H 1731  12.657   0.153   3.142 -0.5743  0.7850 -0.1026
   13MOL0     H 1732  12.568   0.071   3.274 -0.0608 -0.4722 -1.4750
   13MOL0     H 1733  12.768   0.104   3.421  1.2522  1.2678  0.1343
   13MOL0     H 1734  12.809   0.009   3.278 -0.3274  0.2813 -0.8052
   13MOL0     H 1735  11.774   0.182   2.844 -1.7265 -2.6442  0.9362
   13MOL0     H 1736  11.548   0.249   2.779 -0.0751 -0.7089  0.3584
   13MOL0     H 1737  11.313   0.660   2.949  0.4813 -0.4790 -0.6380
   13MOL0     H 1738  11.164   0.840   2.913  1.3996 -0.5206 -0.5852
   13MOL0     H 1739   9.508   0.805   2.034 -0.8831 -0.1952 -0.1497
   13MOL0     H 1740   9.265   0.831   1.959 -0.4015 -0.6158  2.1125
   13MOL0     H 1741   8.929   1.052   1.896 -0.0911 -1.0223  0.8315
   13MOL0     H 1742   8.710   1.024   1.836  0.3875  5.3251 -0.7459
   13MOL0     H 1743   8.515   1.055   1.684 -0.2166 -0.8091  1.3761
   13MOL0     H 1744   8.497   0.903   1.743 -1.2109 -0.4792 -0.4556
   13MOL0     H 1745   8.303   0.985   1.615 -2.8348  1.0377 -3.7342
   13MOL0     H 1746   8.344   0.830   1.544 -1.8315  0.4185 -1.1558
   13MOL0     H 1747   8.437   0.939   1.344 -0.1490 -1.2653  2.2205
   13MOL0     H 1748   8.468   1.089   1.427 -1.3097  1.1727  0.6372
   13MOL0     H 1749   8.185   1.003   1.406 -0.5272  0.6907 -3.7991
   13MOL0     H 1750   8.265   1.160   1.450  2.0918  0.2052 -0.0373
   13MOL0     H 1751   8.206   1.130   1.029  0.2339 -3.3011 -0.0396
   13MOL0     H 1752   8.832   0.933   1.436 -1.3837  1.2391 -0.0185
   13MOL0     H 1753   9.178   0.944   1.466 -0.4923 -0.5415 -1.4329
   13MOL0     H 1754   9.043   0.974   1.357  2.1843 -1.5389 -0.5810
   13MOL0     H 1755   9.116   1.114   1.435  0.3241  0.0522 -0.0370
   14MOL0     O 1756   1.611  10.968  10.612 -1.2337 -0.4825  0.1647
   14MOL0     C 1757   1.621  10.882  10.520  0.0535 -0.8791 -0.4341
   14MOL0     O 1758   1.714  10.780  10.521  0.1295 -0.1290  0.3698
   14MOL0     C 1759   1.803  10.774  10.627 -0.6592  0.2941 -0.8181
   14MOL0     C 1760   1.916  10.870  10.627  0.0661 -0.4736 -0.0254
   14MOL0     C 1761   2.020  10.856  10.721  0.8122 -0.2403  0.1719
   14MOL0     C 1762   2.006  10.757  10.826 -0.2112  0.4342 -0.3989
   14MOL0     O 1763   2.099  10.737  10.926  0.3105 -0.8507  0.6645
   14MOL0     C 1764   2.211  10.832  10.944 -0.1780  0.2611 -0.2213
   14MOL0     C 1765   2.298  10.761  11.056  0.1556 -0.4221  0.3401
   14MOL0     C 1766   2.397  10.667  10.982 -0.2097 -0.1042 -0.7694
   14MOL0     C 1767   2.453  10.579  11.093 -0.3273  0.1403  0.9858
   14MOL0     C 1768   2.525  10.461  11.033  0.3156  0.0847  0.4692
   14MOL0     C 1769   2.578  10.359  11.135 -0.0271 -0.4469 -0.6190
   14MOL0     C 1770   2.649  10.246  11.069 -0.7416 -0.1529 -0.0515
   14MOL0     C 1771   2.639  10.115  11.143  0.2779 -0.1422 -0.3718
   14MOL0     N 1772   2.541  10.034  11.060  0.0904  0.3967 -0.8712
   14MOL0     C 1773   2.575   9.939  10.962 -1.1546  0.1782  0.5256
   14MOL0     C 1774   2.461   9.895  10.915  0.9029 -0.7490  0.1883
   14MOL0     C 1775   2.442   9.799  10.803 -0.9036 -0.4945 -0.6907
   14MOL0     C 1776   2.379   9.664  10.835  0.4236 -0.2765  0.1751
   14MOL0     C 1777   2.456   9.585  10.943  0.1892  0.4445 -0.2963
   14MOL0     C 1778   2.385   9.458  10.994  0.0186 -0.6737  0.4156
   14MOL0     O 1779   2.478   9.348  10.982 -0.0200 -0.1740 -0.0296
   14MOL0     C 1780   2.586   9.341  11.064  0.4740 -0.0726  0.4446
   14MOL0     C 1781   2.623   9.431  11.163 -0.5349  0.1124 -0.6976
   14MOL0     C 1782   2.743   9.407  11.232  2.1295  0.3310 -0.5810
   14MOL0     C 1783   2.830   9.300  11.216  0.7886 -0.5825  0.7012
   14MOL0     C 1784   2.947   9.279  11.293 -0.4039 -0.6495 -0.1530
   14MOL0     O 1785   3.017   9.158  11.283 -0.3806  0.3335  0.1221
   14MOL0     C 1786   3.131   9.158  11.356 -0.2053 -0.1668 -0.0262
   14MOL0     C 1787   3.153   9.057  11.453  0.3098 -0.2230  0.5143
   14MOL0     C 1788   3.265   9.052  11.533  0.1994 -0.7655  0.7746
   14MOL0     C 1789   3.363   9.151  11.505 -0.0037  0.3232 -0.1359
   14MOL0     O 1790   3.481   9.154  11.572 -0.1757 -0.9840  0.2222
   14MOL0     C 1791   3.519   9.055  11.659  0.6226  0.6741  0.2317
   14MOL0     C 1792   3.657   9.080  11.701  1.0038  0.0091  0.7874
   14MOL0     C 1793   3.754   9.067  11.574 -0.5453 -0.2021  0.5722
   14MOL0     C 1794   3.888   9.144  11.591 -0.5258  0.5173  0.6971
   14MOL0     C 1795   3.982   9.144  11.467 -0.4751 -0.2851  0.3640
   14MOL0     C 1796   4.129   9.133  11.507 -1.2622  0.3101  0.0011
   14MOL0     C 1797   4.163   8.986  11.558  0.0995 -0.3649 -0.0153
   14MOL0     C 1798   4.316   8.965  11.532  0.1343  0.3448 -0.3858
   14MOL0    Cl 1799   4.364   8.796  11.560  0.0047 -0.0996 -0.1019
   14MOL0     C 1800   3.338   9.254  11.412  0.0154 -0.1558 -1.0342
   14MOL0     C 1801   3.228   9.260  11.336  0.3600  0.3788 -0.0899
   14MOL0     O 1802   2.965   9.369  11.382  0.4637  0.6092  1.0103
   14MOL0     C 1803   2.783   9.200  11.128  1.1784 -0.0491  0.6771
   14MOL0     C 1804   2.669   9.234  11.043  0.3665  0.1140 -0.3626
   14MOL0     N 1805   2.352   9.964  10.974  0.5632  0.4236 -0.5306
   14MOL0     N 1806   2.408  10.053  11.051  1.1421 -0.7875 -0.1801
   14MOL0     C 1807   1.888  10.676  10.826 -0.2786 -0.7147 -0.3000
   14MOL0     C 1808   1.787  10.685  10.729  0.5418  0.2999 -0.2643
   14MOL0     C 1809   1.529  10.882  10.408  0.1488 -0.2055  0.1285
   14MOL0     C 1810   1.395  10.907  10.439  0.1092 -0.7063 -0.5745
   14MOL0     C 1811   1.302  10.899  10.336 -0.8605 -0.5415  0.0001
   14MOL0     C 1812   1.329  10.871  10.205  0.6769  0.5383 -0.0691
   14MOL0     O 1813   1.224  10.873  10.111  0.3435  0.0910 -0.8106
   14MOL0     C 1814   1.243  10.817   9.985  0.1437 -0.4947  0.4919
   14MOL0     C 1815   1.117  10.833   9.894  0.0147  0.7023 -0.2349
   14MOL0     C 1816   1.132  10.731   9.782 -0.1938 -0.6426  0.2952
   14MOL0     C 1817   1.220  10.778   9.663 -0.6039 -0.5750  0.4865
   14MOL0     C 1818   1.354  10.834   9.680  0.2714 -0.0329 -0.6565
   14MOL0     C 1819   1.466  10.873   9.713  0.1999 -1.2837  0.3189
   14MOL0     C 1820   1.464  10.838  10.175  0.3888 -0.7773  0.0916
   14MOL0     C 1821   1.567  10.843  10.273 -0.2196  0.3045  0.0539
   14MOL0     C 1822   1.710  10.821  10.230 -0.8396  0.2734 -0.2732
   14MOL0     H 1823   1.926  10.939  10.543  1.6846  0.1262  0.6201
   14MOL0     H 1824   2.108  10.919  10.720  0.1680  0.6923 -0.3820
   14MOL0     H 1825   2.277  10.832  10.857  0.2657 -0.4329  0.1080
   14MOL0     H 1826   2.187  10.934  10.978 -0.4972  0.3127 -0.5937
   14MOL0     H 1827   2.232  10.709  11.126  0.2348  0.2763  0.9514
   14MOL0     H 1828   2.356  10.834  11.114  0.2436 -0.2778  0.0703
   14MOL0     H 1829   2.482  10.724  10.944 -1.8947  3.7256  0.7357
   14MOL0     H 1830   2.351  10.621  10.894  0.6034  0.1522 -1.3478
   14MOL0     H 1831   2.521  10.646  11.146  1.3743  1.1397 -2.2203
   14MOL0     H 1832   2.360  10.546  11.141 -0.8745 -0.1509 -0.2568
   14MOL0     H 1833   2.459  10.408  10.964 -0.5216 -0.4051  1.6087
   14MOL0     H 1834   2.597  10.499  10.960 -2.6399  0.2733 -2.6285
   14MOL0     H 1835   2.634  10.413  11.212 -0.2432 -1.9066  0.6196
   14MOL0     H 1836   2.492  10.313  11.185 -0.8977  0.3991 -1.3034
   14MOL0     H 1837   2.751  10.282  11.088 -0.5390 -1.0537  0.6822
   14MOL0     H 1838   2.627  10.238  10.963  1.3483  2.5602 -0.8198
   14MOL0     H 1839   2.732  10.058  11.146  0.9965  0.8589 -2.2031
   14MOL0     H 1840   2.603  10.135  11.245  0.0499  1.5305 -0.7487
   14MOL0     H 1841   2.673   9.921  10.919 -1.5595 -2.9056  0.6822
   14MOL0     H 1842   2.382   9.849  10.726  0.8848  2.1698 -0.4567
   14MOL0     H 1843   2.546   9.786  10.770 -0.6166  3.0757 -1.6052
   14MOL0     H 1844   2.276   9.675  10.872  0.6749  0.6799  0.6437
   14MOL0     H 1845   2.385   9.615  10.738  4.0034  1.0227 -0.3895
   14MOL0     H 1846   2.472   9.645  11.033  2.4422 -0.1314 -0.2702
   14MOL0     H 1847   2.555   9.561  10.903 -0.7900 -1.8245 -1.5894
   14MOL0     H 1848   2.292   9.433  10.942 -0.3068  1.6286 -0.2229
   14MOL0     H 1849   2.350   9.468  11.097  0.1917 -1.0338  0.5112
   14MOL0     H 1850   2.558   9.513  11.193  1.1691  2.0514 -1.9979
   14MOL0     H 1851   2.757   9.475  11.315  0.4701 -1.1445  0.9928
   14MOL0     H 1852   3.082   8.976  11.456  1.6579 -1.5720 -1.3941
   14MOL0     H 1853   3.278   8.980  11.613  0.6719  1.3981  2.7677
   14MOL0     H 1854   3.455   9.053  11.748  0.2736 -0.7570 -0.0273
   14MOL0     H 1855   3.525   8.959  11.606  0.8313  0.9756 -0.2946
   14MOL0     H 1856   3.671   9.176  11.752  0.5120  0.9315 -0.7368
   14MOL0     H 1857   3.676   9.007  11.780 -0.4678  1.4137  2.5308
   14MOL0     H 1858   3.779   8.962  11.556  0.9485  0.5677 -2.6238
   14MOL0     H 1859   3.696   9.086  11.483  1.0367 -2.7456 -1.1015
   14MOL0     H 1860   3.958   9.108  11.667  1.9324 -2.7385 -2.7510
   14MOL0     H 1861   3.855   9.246  11.615 -2.0915  0.8759 -2.4246
   14MOL0     H 1862   3.965   9.229  11.401 -0.4163 -0.2663  0.3720
   14MOL0     H 1863   3.961   9.056  11.405 -3.5181 -1.1553  2.3960
   14MOL0     H 1864   4.204   9.155  11.431 -0.0428  0.7087  1.2854
   14MOL0     H 1865   4.148   9.206  11.586  1.2219 -0.1051 -0.1304
   14MOL0     H 1866   4.104   8.915  11.500 -0.1232  0.8500 -1.3373
   14MOL0     H 1867   4.138   8.969  11.663 -2.2060 -0.8868 -0.5881
   14MOL0     H 1868   4.325   8.977  11.424 -1.4204  0.4155 -0.5370
   14MOL0     H 1869   4.375   9.036  11.590 -0.2484  0.9842 -0.7778
   14MOL0     H 1870   3.430   9.311  11.399  0.8545 -1.3190 -0.4766
   14MOL0     H 1871   3.215   9.339  11.263 -0.0826 -0.4785 -0.9701
   14MOL0     H 1872   2.832   9.104  11.118 -0.6793 -0.9554 -0.2562
   14MOL0     H 1873   2.643   9.157  10.971 -0.8755 -0.2132  0.4083
   14MOL0     H 1874   1.889  10.600  10.903  0.2907  0.8655  1.3306
   14MOL0     H 1875   1.700  10.621  10.733  1.3218 -0.8885 -1.4329
   14MOL0     H 1876   1.364  10.928  10.541 -3.7381 -2.9096 -1.1096
   14MOL0     H 1877   1.200  10.927  10.361 -0.4581  0.8739  0.1583
   14MOL0     H 1878   1.272  10.712   9.996  1.1633 -0.2430  0.2798
   14MOL0     H 1879   1.328  10.866   9.937 -0.0124  0.2517  0.9582
   14MOL0     H 1880   1.100  10.928   9.844  0.5882  2.0983  2.0551
   14MOL0     H 1881   1.030  10.825   9.960 -0.3702  1.0337 -0.7015
   14MOL0     H 1882   1.038  10.693   9.742 -0.1849  0.3454 -0.7236
   14MOL0     H 1883   1.177  10.644   9.830  1.0690 -0.4605 -0.5042
   14MOL0     H 1884   1.230  10.694   9.593 -0.2405 -1.2317  1.3210
   14MOL0     H 1885   1.149  10.847   9.614 -0.3177  1.1785  2.4063
   14MOL0     H 1886   1.560  10.917   9.740 -0.4218 -0.9515  2.0900
   14MOL0     H 1887   1.493  10.820  10.072  0.9206 -1.2038  0.3084
   14MOL0     H 1888   1.748  10.898  10.162  0.7623 -4.1418 -5.0834
   14MOL0     H 1889   1.777  10.801  10.314 -0.2885 -2.3713 -1.2424
   14MOL0     H 1890   1.716  10.723  10.181  0.4922 -1.3443  2.8365
   15MOL0     O 1891   4.963   3.198   5.841 -0.5368  0.0073  0.2467
   15MOL0     C 1892   5.036   3.163   5.937  0.6369 -1.0304  1.2680
   15MOL0     O 1893   5.033   3.206   6.062  0.1259  0.0750  0.5107
   15MOL0     C 1894   4.912   3.268   6.090  0.9665 -0.3260  0.4982
   15MOL0     C 1895   4.894   3.408   6.099  0.8263 -1.1749 -0.1709
   15MOL0     C 1896   4.761   3.466   6.133 -0.7780 -0.5172  0.2082
   15MOL0     C 1897   4.653   3.388   6.151 -0.1894  0.4272 -0.2562
   15MOL0     O 1898   4.537   3.450   6.208 -0.5385 -0.2527  0.0646
   15MOL0     C 1899   4.492   3.587   6.183 -0.1942  0.4806  1.2434
   15MOL0     C 1900   4.383   3.573   6.065 -0.2674  0.2559  0.5801
   15MOL0     C 1901   4.278   3.461   6.098 -0.3766  0.3373  0.3314
   15MOL0     C 1902   4.171   3.453   5.978  0.1102  0.5369 -0.9239
   15MOL0     C 1903   4.083   3.329   5.994 -0.2215 -0.0795  0.0711
   15MOL0     C 1904   3.977   3.314   5.878  0.5618  0.4344 -1.3979
   15MOL0     C 1905   3.880   3.203   5.926 -0.5769 -0.6233  0.1340
   15MOL0     C 1906   3.795   3.148   5.808 -0.4174  1.3262  0.5870
   15MOL0     N 1907   3.698   3.038   5.844 -0.0502  0.1960  0.0557
   15MOL0     C 1908   3.737   2.914   5.878 -0.1955 -0.2287  0.4209
   15MOL0     C 1909   3.623   2.852   5.913 -0.4891  0.2754 -0.3440
   15MOL0     C 1910   3.613   2.707   5.952 -0.1417  0.0358  0.3325
   15MOL0     C 1911   3.711   2.616   5.869  0.0372  0.3204  0.6487
   15MOL0     C 1912   3.708   2.467   5.913  0.2538 -0.0531 -0.1778
   15MOL0     C 1913   3.839   2.403   5.870 -0.1044  0.5922 -0.3236
   15MOL0     O 1914   3.841   2.268   5.910  0.4039 -0.0573 -0.0661
   15MOL0     C 1915   3.963   2.209   5.880  0.2436 -0.2025 -0.7912
   15MOL0     C 1916   4.087   2.257   5.946  0.6632  0.6062 -0.7152
   15MOL0     C 1917   4.205   2.181   5.920 -0.3619 -0.4879 -0.1536
   15MOL0     C 1918   4.206   2.064   5.847  0.0536 -0.0995 -0.0747
   15MOL0     C 1919   4.336   2.005   5.803  0.0892 -0.6206 -0.2517
   15MOL0     O 1920   4.336   1.962   5.676  0.2213 -0.7746  0.2953
   15MOL0     C 1921   4.430   1.871   5.629  0.4517 -0.2982  0.2346
   15MOL0     C 1922   4.490   1.903   5.511 -0.3978 -0.2135  0.1196
   15MOL0     C 1923   4.568   1.805   5.446 -0.0759  0.0923 -0.1252
   15MOL0     C 1924   4.586   1.677   5.508 -0.3193  0.3590  0.4187
   15MOL0     O 1925   4.670   1.579   5.447 -0.5081 -0.7214 -0.1308
   15MOL0     C 1926   4.799   1.629   5.404  0.3166  0.0932 -0.0392
   15MOL0     C 1927   4.912   1.524   5.423 -0.9416 -0.8453 -0.2540
   15MOL0     C 1928   5.039   1.580   5.354  0.7737 -0.6947  0.6963
   15MOL0     C 1929   5.142   1.477   5.382  0.4151  0.0172  0.4202
   15MOL0     C 1930   5.272   1.533   5.316  0.2346  0.4149  0.8674
   15MOL0     C 1931   5.372   1.421   5.311 -0.4159 -0.3506  0.3567
   15MOL0     C 1932   5.508   1.446   5.246 -0.4633 -0.7933  0.7249
   15MOL0     C 1933   5.618   1.508   5.340  0.1973 -0.1339 -0.8553
   15MOL0    Cl 1934   5.655   1.397   5.485 -0.0249  0.5069  0.2720
   15MOL0     C 1935   4.522   1.653   5.628  0.1450  0.0910 -0.3216
   15MOL0     C 1936   4.443   1.749   5.688  1.3293  0.1184 -0.3313
   15MOL0     O 1937   4.419   1.980   5.888 -0.4216  0.1727 -1.1474
   15MOL0     C 1938   4.088   2.026   5.778 -0.2083 -0.7371  0.0678
   15MOL0     C 1939   3.974   2.103   5.784  0.0671  0.3625  0.5425
   15MOL0     N 1940   3.512   2.932   5.900  0.7638  0.8352  0.3244
   15MOL0     N 1941   3.565   3.051   5.867  0.5920 -0.2614  0.3827
   15MOL0     C 1942   4.674   3.251   6.153  0.9413 -0.7632 -0.0299
   15MOL0     C 1943   4.793   3.193   6.115 -0.4602  0.3684 -0.9022
   15MOL0     C 1944   5.141   3.071   5.910  1.2374 -0.2101 -0.2643
   15MOL0     C 1945   5.225   3.098   5.797  0.1911  1.0101 -0.4650
   15MOL0     C 1946   5.344   3.027   5.778 -0.5553 -0.4492 -0.7762
   15MOL0     C 1947   5.376   2.920   5.863 -0.2161 -0.5033 -0.0412
   15MOL0     O 1948   5.479   2.839   5.837 -0.1009 -0.2024  0.2787
   15MOL0     C 1949   5.597   2.914   5.806  0.2309  0.9910 -0.1021
   15MOL0     C 1950   5.718   2.825   5.832 -1.0311 -0.2284  0.2300
   15MOL0     C 1951   5.851   2.897   5.859 -0.5362  0.3399  0.2189
   15MOL0     C 1952   5.933   2.930   5.732 -0.3265 -0.2269 -1.1131
   15MOL0     C 1953   5.967   2.813   5.655  0.2023  0.6019  0.1766
   15MOL0     C 1954   5.991   2.706   5.601 -0.1946  0.1650 -0.9498
   15MOL0     C 1955   5.286   2.891   5.970  0.0106  0.3276 -0.4706
   15MOL0     C 1956   5.173   2.966   5.998 -0.0089  0.0092  0.0188
   15MOL0     C 1957   5.098   2.931   6.124  0.0148  0.3633  1.3653
   15MOL0     H 1958   4.979   3.474   6.087 -0.1190  0.1473  0.2841
   15MOL0     H 1959   4.760   3.573   6.151 -1.9740 -0.5704  0.5356
   15MOL0     H 1960   4.427   3.619   6.265 -3.2280  0.9768 -1.1702
   15MOL0     H 1961   4.562   3.663   6.148 -1.7643  0.2107 -3.0748
   15MOL0     H 1962   4.431   3.535   5.975 -1.8175 -2.7514  0.9131
   15MOL0     H 1963   4.332   3.669   6.049  0.5404  1.2614  3.3495
   15MOL0     H 1964   4.213   3.498   6.178 -2.6416 -2.3663 -0.1100
   15MOL0     H 1965   4.311   3.359   6.118  0.1102  0.2969 -0.6662
   15MOL0     H 1966   4.114   3.547   5.979  1.1419  1.4424  4.5269
   15MOL0     H 1967   4.225   3.444   5.883  1.1073  0.8361 -0.3996
   15MOL0     H 1968   4.150   3.242   5.994  0.2414  0.2631 -0.8729
   15MOL0     H 1969   4.024   3.330   6.086 -2.2162  0.3985 -1.1507
   15MOL0     H 1970   3.918   3.405   5.890  1.0082  0.3989  2.5685
   15MOL0     H 1971   3.994   3.296   5.772 -1.7622  3.1902 -2.3721
   15MOL0     H 1972   3.801   3.240   5.992  0.7861  1.0674  0.9042
   15MOL0     H 1973   3.929   3.121   5.981 -0.0743 -0.1003  0.4764
   15MOL0     H 1974   3.746   3.235   5.765  1.2910  1.1501 -1.9626
   15MOL0     H 1975   3.866   3.107   5.735  1.5060 -0.7727  3.4309
   15MOL0     H 1976   3.834   2.868   5.863 -0.3210  0.1472 -1.9103
   15MOL0     H 1977   3.652   2.705   6.055  2.4368 -3.0743 -0.5170
   15MOL0     H 1978   3.509   2.678   5.941  0.1361 -0.4719 -1.1866
   15MOL0     H 1979   3.694   2.614   5.761  1.0999  1.0538  0.4503
   15MOL0     H 1980   3.814   2.654   5.870  0.4664 -0.7794  0.0126
   15MOL0     H 1981   3.631   2.413   5.857  0.6261  0.2337 -0.9872
   15MOL0     H 1982   3.691   2.453   6.020 -2.4625  0.4539 -0.4569
   15MOL0     H 1983   3.921   2.455   5.922 -0.5114  0.0550  0.8813
   15MOL0     H 1984   3.850   2.416   5.762  1.0400  0.5194 -0.2292
   15MOL0     H 1985   4.101   2.342   6.013 -1.0512 -0.1975  0.7575
   15MOL0     H 1986   4.294   2.213   5.973 -1.1686  0.9101  0.4188
   15MOL0     H 1987   4.469   2.004   5.478  1.2526  0.1156  0.0040
   15MOL0     H 1988   4.622   1.828   5.354  0.3920 -3.0010 -0.7380
   15MOL0     H 1989   4.795   1.649   5.297  0.9832  0.4931  0.0074
   15MOL0     H 1990   4.821   1.725   5.451 -0.2862  0.7354 -1.0241
   15MOL0     H 1991   4.926   1.513   5.531 -0.0732 -1.0711 -0.3896
   15MOL0     H 1992   4.895   1.428   5.374  0.5623 -1.7408  0.9128
   15MOL0     H 1993   5.022   1.589   5.247  1.2414 -0.7578  0.6141
   15MOL0     H 1994   5.064   1.681   5.389 -2.0601 -0.4138  2.2596
   15MOL0     H 1995   5.118   1.375   5.351 -0.6471  0.3143  0.2211
   15MOL0     H 1996   5.164   1.464   5.488  0.3914  0.6408  0.5068
   15MOL0     H 1997   5.307   1.615   5.379  0.4627  0.8536  0.1829
   15MOL0     H 1998   5.253   1.578   5.218  1.3210 -0.6935  0.1141
   15MOL0     H 1999   5.389   1.393   5.416 -0.2751 -1.5089  0.0417
   15MOL0     H 2000   5.330   1.331   5.264  3.2100 -1.9925 -0.0800
   15MOL0     H 2001   5.496   1.512   5.159 -0.1925 -2.7470 -0.8761
   15MOL0     H 2002   5.546   1.352   5.205 -2.0477  0.2222 -3.6496
   15MOL0     H 2003   5.707   1.534   5.282  2.7116 -1.3296  2.2319
   15MOL0     H 2004   5.581   1.602   5.381  1.0432  0.0890 -0.6041
   15MOL0     H 2005   4.539   1.557   5.675 -3.4895 -0.2950  0.5319
   15MOL0     H 2006   4.395   1.728   5.783 -1.2273  4.5482 -0.3672
   15MOL0     H 2007   4.092   1.940   5.713  2.1219 -1.5219  1.1439
   15MOL0     H 2008   3.889   2.064   5.729  1.2311 -0.2762 -0.8464
   15MOL0     H 2009   4.592   3.183   6.174 -0.1572  0.4586 -0.1542
   15MOL0     H 2010   4.804   3.085   6.110 -0.6860  0.3865 -2.0769
   15MOL0     H 2011   5.203   3.180   5.730 -1.7409 -1.8979 -3.7507
   15MOL0     H 2012   5.420   3.051   5.704 -0.0038 -0.2805 -0.1692
   15MOL0     H 2013   5.610   3.011   5.855  3.1415  1.6804 -1.9976
   15MOL0     H 2014   5.604   2.934   5.699  1.3625  4.1599  0.4674
   15MOL0     H 2015   5.743   2.749   5.758  0.6977  0.5483 -0.0209
   15MOL0     H 2016   5.697   2.771   5.925 -0.8470  1.4928  1.3165
   15MOL0     H 2017   5.914   2.830   5.919 -0.6216  0.0738  0.0141
   15MOL0     H 2018   5.835   2.986   5.920  0.6050  0.3113  0.5795
   15MOL0     H 2019   5.878   2.998   5.666 -2.2059 -0.2450  0.3315
   15MOL0     H 2020   6.031   2.975   5.751  1.0929 -2.1667 -3.3812
   15MOL0     H 2021   6.002   2.609   5.557 -0.4932 -0.5563  0.5104
   15MOL0     H 2022   5.307   2.808   6.038 -0.3205  0.0073 -0.7575
   15MOL0     H 2023   4.993   2.948   6.102  0.7028  0.8944 -1.9861
   15MOL0     H 2024   5.108   2.829   6.163  1.7874 -0.2300 -0.4852
   15MOL0     H 2025   5.122   2.996   6.209  2.1746  0.3980  0.7924
   16MOL0     O 2026  10.904  10.311   6.320 -0.0996 -0.0989 -0.5410
   16MOL0     C 2027  11.006  10.301   6.394  0.8173  0.3911  0.0876
   16MOL0     O 2028  11.019  10.367   6.510  0.4908  0.3834 -0.0521
   16MOL0     C 2029  10.911  10.420   6.586 -0.1980 -0.4043  0.3893
   16MOL0     C 2030  10.927  10.547   6.642  0.2445  0.2403 -0.6103
   16MOL0     C 2031  10.816  10.619   6.683  0.4408 -0.1362  1.4283
   16MOL0     C 2032  10.686  10.555   6.688 -1.0583  0.1420  0.3139
   16MOL0     O 2033  10.590  10.645   6.722 -0.1192  0.1801 -0.5267
   16MOL0     C 2034  10.455  10.608   6.677  0.1152  0.3325  0.4981
   16MOL0     C 2035  10.375  10.735   6.694  0.2624  0.4459  0.5934
   16MOL0     C 2036  10.432  10.848   6.605 -0.0104 -0.7691 -1.1154
   16MOL0     C 2037  10.320  10.936   6.583 -0.7838  0.0560  0.7796
   16MOL0     C 2038  10.358  11.086   6.563  0.4416 -0.3037 -0.4068
   16MOL0     C 2039  10.241  11.178   6.512 -0.4561 -0.5469 -0.4263
   16MOL0     C 2040  10.282  11.311   6.454 -0.9560 -0.1452 -0.1668
   16MOL0     C 2041  10.321  11.295   6.303  0.1226 -0.9548 -0.3161
   16MOL0     N 2042  10.205  11.254   6.223 -0.4722  0.6447  0.5865
   16MOL0     C 2043  10.088  11.328   6.200  0.0041 -1.2995 -0.4473
   16MOL0     C 2044  10.055  11.291   6.073  0.8058  0.4758 -0.3345
   16MOL0     C 2045   9.943  11.332   5.983 -0.1251 -0.1575 -1.2680
   16MOL0     C 2046   9.906  11.478   6.010 -0.3622 -0.4203  0.7748
   16MOL0     C 2047   9.798  11.523   5.907 -0.2280 -0.1808 -0.2357
   16MOL0     C 2048   9.771  11.667   5.930  0.4395 -0.2135 -0.3176
   16MOL0     O 2049   9.894  11.751   5.909 -0.2110 -0.5527  0.0212
   16MOL0     C 2050   9.906  11.874   5.983  0.1918  0.8637 -0.0250
   16MOL0     C 2051  10.033  11.925   6.007 -0.0688  0.9933  0.6612
   16MOL0     C 2052  10.059  12.042   6.076  0.1707  0.2790  1.0627
   16MOL0     C 2053   9.955  12.108   6.149 -1.3462  0.2775  0.3146
   16MOL0     C 2054   9.975  12.222   6.224 -0.6859 -0.2524 -0.0311
   16MOL0     O 2055  10.106  12.256   6.238  0.4654  0.1970 -0.1794
   16MOL0     C 2056  10.162  12.361   6.298 -0.2730 -0.4055 -0.6191
   16MOL0     C 2057  10.300  12.360   6.286  0.8438  0.3236  0.2928
   16MOL0     C 2058  10.381  12.462   6.352  0.5865  0.7488  1.0128
   16MOL0     C 2059  10.321  12.559   6.437 -0.1014  0.5084 -0.0845
   16MOL0     O 2060  10.411  12.629   6.511  0.2975 -0.5113  0.4826
   16MOL0     C 2061  10.357  12.749   6.574 -0.6677 -1.0296  0.0102
   16MOL0     C 2062  10.469  12.823   6.642  0.2088 -0.0028 -0.0296
   16MOL0     C 2063  10.573  12.880   6.549 -0.9710 -0.4395  0.3481
   16MOL0     C 2064  10.694  12.940   6.625 -0.0379  0.0326 -0.4907
   16MOL0     C 2065  10.804  12.992   6.534 -0.2337 -0.6434 -0.7294
   16MOL0     C 2066  10.895  13.109   6.594  0.2283  0.3635 -0.8259
   16MOL0     C 2067  10.999  13.137   6.476 -0.0825 -1.0182 -0.4608
   16MOL0     C 2068  11.098  13.246   6.528  0.5334  0.7890 -0.4298
   16MOL0    Cl 2069  11.228  13.232   6.401  0.0424  0.0202 -0.7498
   16MOL0     C 2070  10.179  12.565   6.434  0.4640  0.5835 -0.7812
   16MOL0     C 2071  10.095  12.469   6.370  0.1224  0.0504  0.4350
   16MOL0     O 2072   9.880  12.286   6.278 -0.4819 -0.0468 -0.2177
   16MOL0     C 2073   9.825  12.059   6.116 -0.9145 -0.1194 -0.7447
   16MOL0     C 2074   9.802  11.949   6.035 -0.8351 -0.0658  0.5819
   16MOL0     N 2075  10.150  11.204   6.015  0.8944 -0.1030 -0.3621
   16MOL0     N 2076  10.235  11.183   6.106 -0.0441  0.5454 -0.4508
   16MOL0     C 2077  10.678  10.427   6.651 -0.2635  0.4457  0.0655
   16MOL0     C 2078  10.789  10.352   6.604  1.4637  0.7243 -0.8833
   16MOL0     C 2079  11.120  10.217   6.356 -0.3079  0.1031 -0.4526
   16MOL0     C 2080  11.147  10.227   6.216 -0.2246 -0.6974  1.0413
   16MOL0     C 2081  11.267  10.176   6.161  0.7071 -1.4221 -0.3814
   16MOL0     C 2082  11.354  10.101   6.239 -0.6159 -0.0341  0.4977
   16MOL0     O 2083  11.474  10.055   6.191 -0.1182  0.2909  0.4410
   16MOL0     C 2084  11.562  10.138   6.109  0.0245  0.1831 -0.2016
   16MOL0     C 2085  11.572  10.095   5.969  0.3740  0.1173  0.1256
   16MOL0     C 2086  11.674   9.982   5.954 -0.4040  0.9960  0.2745
   16MOL0     C 2087  11.820  10.037   5.967  0.5436 -0.3952 -0.4622
   16MOL0     C 2088  11.922   9.949   5.913 -0.3145  0.3986  0.0202
   16MOL0     C 2089  12.003   9.862   5.881 -0.0929 -0.4612 -0.5001
   16MOL0     C 2090  11.332  10.086   6.377 -0.3828  1.0737  0.6444
   16MOL0     C 2091  11.214  10.147   6.429  0.3917  0.4188  0.0244
   16MOL0     C 2092  11.183  10.118   6.575  0.9927  0.2747  0.1103
   16MOL0     H 2093  11.020  10.598   6.620  0.9191 -0.8453 -0.3309
   16MOL0     H 2094  10.814  10.725   6.706 -0.4018  0.2068 -0.1119
   16MOL0     H 2095  10.453  10.573   6.573 -1.1264 -1.2572  1.0181
   16MOL0     H 2096  10.412  10.535   6.746 -1.0332  1.8840  1.5011
   16MOL0     H 2097  10.359  10.769   6.797 -0.6805 -0.0258  0.6104
   16MOL0     H 2098  10.278  10.708   6.650  1.1158  1.7045 -2.2872
   16MOL0     H 2099  10.479  10.802   6.517  2.6760 -2.0094  0.8034
   16MOL0     H 2100  10.512  10.891   6.667 -0.5566 -0.6469 -0.4885
   16MOL0     H 2101  10.273  10.906   6.489  4.5015 -3.6825 -1.1212
   16MOL0     H 2102  10.249  10.930   6.665 -0.9074 -1.0902  0.5932
   16MOL0     H 2103  10.413  11.127   6.648  0.8666 -1.4196 -0.1339
   16MOL0     H 2104  10.426  11.088   6.477 -1.7722 -0.4614 -2.2664
   16MOL0     H 2105  10.179  11.118   6.445 -1.0593  1.8701 -2.1553
   16MOL0     H 2106  10.180  11.205   6.599  0.1646 -0.4713 -0.0086
   16MOL0     H 2107  10.367  11.346   6.515 -1.9537  2.3215 -0.0940
   16MOL0     H 2108  10.204  11.386   6.468 -2.0217 -0.8099 -2.2800
   16MOL0     H 2109  10.355  11.389   6.259 -2.3494  0.2191  0.0733
   16MOL0     H 2110  10.395  11.214   6.304  0.4137 -1.1070  6.1833
   16MOL0     H 2111  10.051  11.408   6.264  3.3090  1.6791 -1.9268
   16MOL0     H 2112   9.975  11.320   5.879  0.1135  0.7817 -1.3099
   16MOL0     H 2113   9.850  11.276   6.000 -2.2693  2.2371 -4.0748
   16MOL0     H 2114   9.864  11.484   6.111 -2.2430  1.0580 -0.0501
   16MOL0     H 2115   9.992  11.544   6.002  0.5015 -1.6874 -1.1446
   16MOL0     H 2116   9.710  11.460   5.923  1.6533 -2.3315  2.6295
   16MOL0     H 2117   9.838  11.516   5.806  0.2072 -1.5014  0.0147
   16MOL0     H 2118   9.728  11.681   6.030 -2.6271 -0.1258 -1.5478
   16MOL0     H 2119   9.688  11.693   5.863  0.5394  0.9287 -0.0239
   16MOL0     H 2120  10.126  11.892   5.963 -0.2402  0.3577  0.7595
   16MOL0     H 2121  10.163  12.058   6.101 -0.3526  1.6384  2.5618
   16MOL0     H 2122  10.334  12.274   6.228 -1.2874 -0.5536  0.2672
   16MOL0     H 2123  10.489  12.461   6.340  0.7360 -0.7838  2.2235
   16MOL0     H 2124  10.314  12.817   6.500 -0.0409  0.3614  0.8715
   16MOL0     H 2125  10.283  12.728   6.652 -0.5331  1.8844  1.0875
   16MOL0     H 2126  10.426  12.908   6.695 -0.6973 -1.9236  2.5224
   16MOL0     H 2127  10.524  12.770   6.720  0.0013  0.7210  0.6134
   16MOL0     H 2128  10.606  12.806   6.475  2.2248 -0.9575  2.0995
   16MOL0     H 2129  10.517  12.956   6.494 -3.1331 -0.6695  2.0886
   16MOL0     H 2130  10.727  12.860   6.692 -1.7639 -2.9724 -2.9485
   16MOL0     H 2131  10.658  13.024   6.685  1.5311  1.1619 -1.0773
   16MOL0     H 2132  10.767  13.030   6.438  0.2539 -0.1820 -0.7350
   16MOL0     H 2133  10.864  12.903   6.517  0.3965 -0.0659 -1.6073
   16MOL0     H 2134  10.830  13.196   6.604  0.2331  0.3809 -0.9454
   16MOL0     H 2135  10.951  13.085   6.685  0.9984  0.5486 -1.2407
   16MOL0     H 2136  10.954  13.172   6.383 -2.5843 -0.2389  0.9446
   16MOL0     H 2137  11.053  13.042   6.469  0.1115 -1.0550  1.1019
   16MOL0     H 2138  11.051  13.344   6.530  2.5015  1.8546 -1.9335
   16MOL0     H 2139  11.140  13.205   6.621  2.6034 -0.0616 -1.6497
   16MOL0     H 2140  10.132  12.641   6.495  1.0361  1.4063 -1.3416
   16MOL0     H 2141   9.987  12.474   6.373  0.1412  0.7175  3.6954
   16MOL0     H 2142   9.742  12.113   6.162  0.7064  2.6368 -0.8538
   16MOL0     H 2143   9.701  11.916   6.014 -1.6261  0.1379  3.5771
   16MOL0     H 2144  10.584  10.385   6.683 -0.3095 -0.3608 -1.0631
   16MOL0     H 2145  10.782  10.245   6.590 -1.7707  0.6493  0.6559
   16MOL0     H 2146  11.082  10.268   6.140  1.8534  0.1289 -0.3692
   16MOL0     H 2147  11.287  10.191   6.055 -3.1021  2.6017 -0.8042
   16MOL0     H 2148  11.664  10.149   6.145  2.0386 -2.9684 -4.1843
   16MOL0     H 2149  11.519  10.237   6.126 -0.3892  0.4254 -2.3314
   16MOL0     H 2150  11.603  10.178   5.905 -0.5180  0.4832  0.1518
   16MOL0     H 2151  11.478  10.063   5.923  0.2022  1.4753 -0.5102
   16MOL0     H 2152  11.664   9.943   5.853  3.1187 -0.2835  0.2865
   16MOL0     H 2153  11.653   9.895   6.018 -0.4345 -0.5405 -1.7460
   16MOL0     H 2154  11.823  10.137   5.922  1.7258 -0.3305 -0.2509
   16MOL0     H 2155  11.845  10.048   6.073  1.1539  0.7760 -0.7157
   16MOL0     H 2156  12.073   9.782   5.869  1.6754  1.1216 -1.4033
   16MOL0     H 2157  11.405  10.023   6.428  0.0730  0.7872 -0.3487
   16MOL0     H 2158  11.227  10.023   6.606 -1.6982 -0.9611  0.4777
   16MOL0     H 2159  11.217  10.199   6.640 -1.1932 -0.0543  1.8099
   16MOL0     H 2160  11.074  10.109   6.580  1.1005 -0.5916  2.9974
   17MOL0     O 2161   7.793   1.717   9.846 -0.3872  0.7139 -0.6779
   17MOL0     C 2162   7.740   1.629   9.916 -0.3324 -0.6170 -0.1213
   17MOL0     O 2163   7.761   1.625  10.054 -0.3530 -0.1676 -0.2585
   17MOL0     C 2164   7.823   1.720  10.131 -0.2781 -0.2395  1.2672
   17MOL0     C 2165   7.761   1.788  10.228 -0.5394  0.1923 -0.5026
   17MOL0     C 2166   7.827   1.869  10.314 -0.7730 -0.8613 -0.6282
   17MOL0     C 2167   7.964   1.900  10.288  0.6925  0.6983  0.0436
   17MOL0     O 2168   8.031   1.996  10.356  0.0764  0.1456  0.5098
   17MOL0     C 2169   8.076   1.947  10.485  0.3709  0.2637 -1.3559
   17MOL0     C 2170   8.124   2.073  10.554  0.1462  0.6099  0.3135
   17MOL0     C 2171   8.274   2.088  10.553  0.0796 -0.4032 -0.5936
   17MOL0     C 2172   8.340   1.996  10.646  0.2232 -0.1516 -0.4167
   17MOL0     C 2173   8.491   2.011  10.664  0.4839  0.1266  0.0682
   17MOL0     C 2174   8.545   1.898  10.745 -0.0489  0.8742  0.0748
   17MOL0     C 2175   8.694   1.901  10.775  0.3428  0.1881  0.3921
   17MOL0     C 2176   8.761   1.769  10.774  0.0808 -0.5047  0.3004
   17MOL0     N 2177   8.897   1.790  10.832  0.1077 -0.8284 -0.2606
   17MOL0     C 2178   8.993   1.889  10.800 -0.1335 -0.0611  0.2162
   17MOL0     C 2179   9.100   1.837  10.875  0.4047 -0.7563  0.1921
   17MOL0     C 2180   9.234   1.912  10.903 -0.1002  0.2229 -0.4354
   17MOL0     C 2181   9.276   1.939  11.050  0.5842  0.5233 -0.0833
   17MOL0     C 2182   9.396   2.031  11.041 -0.7144 -0.8464  0.3003
   17MOL0     C 2183   9.468   2.062  11.180 -0.5851 -0.1035  0.1338
   17MOL0     O 2184   9.498   1.933  11.233  1.0642 -0.1032 -0.0446
   17MOL0     C 2185   9.523   1.939  11.364 -0.4884 -0.0058 -0.5755
   17MOL0     C 2186   9.545   1.804  11.418  0.5420 -0.7679  0.0185
   17MOL0     C 2187   9.573   1.781  11.552  0.0753  0.1430  0.6876
   17MOL0     C 2188   9.600   1.897  11.636  0.1329 -0.2056 -1.0766
   17MOL0     C 2189   9.657   1.877  11.767 -0.8102 -0.3876 -0.3083
   17MOL0     O 2190   9.704   1.749  11.796 -0.0560  0.2630 -0.1305
   17MOL0     C 2191   9.745   1.725  11.920 -0.3253  0.8208  0.4353
   17MOL0     C 2192   9.854   1.799  11.962 -0.5245  0.6953  0.2533
   17MOL0     C 2193   9.917   1.759  12.076  0.2554  0.0926 -0.0611
   17MOL0     C 2194   9.881   1.651  12.151 -1.2208 -0.1269 -1.6548
   17MOL0     O 2195   9.951   1.614  12.268 -0.2900  0.3527 -0.2543
   17MOL0     C 2196  10.009   1.714  12.352  0.7897 -0.4911  0.0939
   17MOL0     C 2197   9.954   1.684  12.485  0.2479 -0.4635 -0.1012
   17MOL0     C 2198   9.815   1.751  12.502  0.7254  0.9064 -0.7003
   17MOL0     C 2199   9.750   1.692  12.633 -0.2160  0.1897 -0.4810
   17MOL0     C 2200   9.623   1.775  12.673 -0.1017 -0.4510  0.4603
   17MOL0     C 2201   9.514   1.761  12.558 -0.2515  0.2995  0.0963
   17MOL0     C 2202   9.384   1.804  12.625  0.3447 -0.4273  0.3453
   17MOL0     C 2203   9.255   1.789  12.544  0.0129  0.3359 -0.0837
   17MOL0    Cl 2204   9.222   1.619  12.512  0.1179 -0.4363  0.0035
   17MOL0     C 2205   9.755   1.598  12.119  0.0474 -0.5520 -0.1859
   17MOL0     C 2206   9.687   1.625  12.003 -0.2306 -0.4214  0.1202
   17MOL0     O 2207   9.665   1.970  11.840 -0.2765  0.3197 -0.9105
   17MOL0     C 2208   9.585   2.023  11.576 -0.4756  0.1744 -0.4720
   17MOL0     C 2209   9.539   2.047  11.446 -0.6291  0.5503 -0.6914
   17MOL0     N 2210   9.076   1.722  10.936  1.2172  1.1296  0.2082
   17MOL0     N 2211   8.953   1.682  10.895 -0.0177 -0.0233  0.3707
   17MOL0     C 2212   8.022   1.836  10.176  0.0007 -1.2365 -0.4590
   17MOL0     C 2213   7.948   1.754  10.097 -0.8784  0.7724  0.1198
   17MOL0     C 2214   7.652   1.529   9.845 -0.5193 -0.0591  0.1837
   17MOL0     C 2215   7.604   1.424   9.928  0.1988  0.0748  0.0034
   17MOL0     C 2216   7.540   1.316   9.878  0.2661 -0.0587  0.3217
   17MOL0     C 2217   7.514   1.310   9.740 -0.4687 -0.5321 -0.5325
   17MOL0     O 2218   7.440   1.213   9.681 -0.1647  0.3405  0.8371
   17MOL0     C 2219   7.418   1.099   9.757 -0.7499  0.0819  0.3270
   17MOL0     C 2220   7.390   0.978   9.661 -0.7544 -0.4836  0.0834
   17MOL0     C 2221   7.505   0.926   9.576  0.3130  0.8343 -0.3139
   17MOL0     C 2222   7.565   1.029   9.481 -0.0761  1.1007  0.3601
   17MOL0     C 2223   7.686   0.966   9.412 -0.3280  0.0240 -0.7278
   17MOL0     C 2224   7.784   0.923   9.351  0.2882  0.0257  0.0592
   17MOL0     C 2225   7.542   1.423   9.660  0.3958  0.9124  0.2321
   17MOL0     C 2226   7.610   1.533   9.714 -0.2269 -0.6019 -0.2683
   17MOL0     C 2227   7.650   1.642   9.621  0.3443 -0.6522 -0.1023
   17MOL0     H 2228   7.661   1.757  10.255  0.8543 -3.0917  1.4061
   17MOL0     H 2229   7.771   1.923  10.390 -1.9394 -2.0702 -0.5950
   17MOL0     H 2230   7.997   1.898  10.543  1.0647 -1.8351 -2.1225
   17MOL0     H 2231   8.165   1.884  10.483 -1.1606 -2.4671  2.9042
   17MOL0     H 2232   8.084   2.089  10.655  0.1799  1.7271  0.1573
   17MOL0     H 2233   8.084   2.158  10.497  2.0728 -0.1013 -2.2684
   17MOL0     H 2234   8.310   2.191  10.565 -1.3395  0.0542 -0.0942
   17MOL0     H 2235   8.314   2.079  10.451 -3.3359 -0.8695 -2.0219
   17MOL0     H 2236   8.306   2.013  10.749 -0.2670 -3.1121  0.0175
   17MOL0     H 2237   8.325   1.888  10.632  1.5477 -0.3247 -0.6020
   17MOL0     H 2238   8.546   2.022  10.570  1.8228  4.6158  1.1279
   17MOL0     H 2239   8.504   2.110  10.707  0.7352 -0.3439  1.1042
   17MOL0     H 2240   8.483   1.879  10.834  0.3247 -0.8180  0.0122
   17MOL0     H 2241   8.536   1.809  10.681  2.4663 -0.0516  0.9078
   17MOL0     H 2242   8.708   1.945  10.874 -1.3625  0.7511  0.4323
   17MOL0     H 2243   8.740   1.968  10.702  0.1610  0.9860  0.9832
   17MOL0     H 2244   8.710   1.697  10.839 -1.1635 -0.2876 -0.4093
   17MOL0     H 2245   8.761   1.731  10.671 -0.2865 -0.5048  0.2987
   17MOL0     H 2246   8.994   1.982  10.743 -2.5631 -0.8312 -1.2383
   17MOL0     H 2247   9.311   1.861  10.845 -1.0517  0.4374 -1.9555
   17MOL0     H 2248   9.226   2.011  10.858  0.1325 -0.6336 -2.4666
   17MOL0     H 2249   9.191   1.990  11.096 -1.7847 -0.8709 -2.5801
   17MOL0     H 2250   9.295   1.846  11.104 -2.6205  1.3215  2.7845
   17MOL0     H 2251   9.378   2.128  10.994  2.6461 -1.5186 -2.8297
   17MOL0     H 2252   9.482   1.992  10.985  0.9665  0.4022  1.8898
   17MOL0     H 2253   9.398   2.110  11.247 -1.6525  0.3889 -1.2800
   17MOL0     H 2254   9.558   2.116  11.149 -0.1650 -1.6859 -1.5971
   17MOL0     H 2255   9.533   1.723  11.347 -1.0580  0.3508 -1.0803
   17MOL0     H 2256   9.580   1.679  11.588 -0.0807  0.3590  1.3501
   17MOL0     H 2257   9.896   1.877  11.899 -1.9975  0.6333 -0.8729
   17MOL0     H 2258  10.003   1.814  12.114 -0.5449  0.5831  1.0715
   17MOL0     H 2259  10.117   1.701  12.349  0.9797  1.1157 -1.0511
   17MOL0     H 2260   9.989   1.818  12.322 -1.2032 -1.8401 -4.0799
   17MOL0     H 2261   9.948   1.577  12.507 -2.4134 -0.3466  0.0479
   17MOL0     H 2262  10.018   1.740  12.554  0.9753 -1.6952  0.2511
   17MOL0     H 2263   9.818   1.860  12.502 -2.9559  1.1371 -0.2584
   17MOL0     H 2264   9.748   1.717  12.422  0.2787  1.2226 -0.4606
   17MOL0     H 2265   9.816   1.717  12.716 -1.2173  1.4779 -0.0393
   17MOL0     H 2266   9.743   1.583  12.635  2.5411 -0.0633 -0.5295
   17MOL0     H 2267   9.657   1.879  12.677  0.8366 -0.5759 -2.2747
   17MOL0     H 2268   9.586   1.733  12.767 -2.2440 -1.0978 -0.6279
   17MOL0     H 2269   9.530   1.826  12.471 -0.4679 -0.7060 -0.7217
   17MOL0     H 2270   9.508   1.663  12.511 -2.0570  0.6972 -0.6013
   17MOL0     H 2271   9.389   1.912  12.636  3.6009 -0.5661  1.0843
   17MOL0     H 2272   9.379   1.747  12.718  3.9834  1.5828  1.9694
   17MOL0     H 2273   9.177   1.835  12.605 -0.3810 -0.7561  0.2618
   17MOL0     H 2274   9.259   1.835  12.445 -1.3494 -0.9004 -0.7586
   17MOL0     H 2275   9.716   1.526  12.191  2.9057 -1.6899  0.3513
   17MOL0     H 2276   9.592   1.586  11.967 -0.4853  0.5793 -0.3322
   17MOL0     H 2277   9.607   2.109  11.639  0.8388  0.3328 -1.1074
   17MOL0     H 2278   9.535   2.150  11.412  1.5681 -0.0482 -3.1429
   17MOL0     H 2279   8.123   1.857  10.144  0.5116 -4.8516 -1.6572
   17MOL0     H 2280   8.011   1.705  10.024 -1.3138  0.3025  0.0570
   17MOL0     H 2281   7.618   1.413  10.035  2.6938  0.7965 -0.1789
   17MOL0     H 2282   7.509   1.240   9.949  1.8103  0.1564  1.2764
   17MOL0     H 2283   7.330   1.111   9.821 -2.3704  0.4345 -1.8592
   17MOL0     H 2284   7.508   1.075   9.815  0.0189  0.6291 -0.6041
   17MOL0     H 2285   7.306   1.017   9.602 -1.0414  2.2015  2.0727
   17MOL0     H 2286   7.355   0.897   9.726  1.6224 -0.8999  0.9081
   17MOL0     H 2287   7.468   0.834   9.530  0.7384  1.8028 -2.7663
   17MOL0     H 2288   7.592   0.886   9.629  2.4610  1.2004 -3.2897
   17MOL0     H 2289   7.494   1.068   9.408  0.7741  0.3070 -0.9265
   17MOL0     H 2290   7.609   1.116   9.532  3.1093 -1.0074  1.5120
   17MOL0     H 2291   7.867   0.880   9.299  0.0940 -1.0382  0.5914
   17MOL0     H 2292   7.512   1.413   9.556  1.3481  1.7858 -0.1441
   17MOL0     H 2293   7.594   1.639   9.527 -0.9790  1.6574  0.5600
   17MOL0     H 2294   7.614   1.739   9.655  1.0756  0.0231 -1.1908
   17MOL0     H 2295   7.757   1.641   9.594  0.7043 -0.3495  1.2385
   18MOL0     O 2296   5.421   3.447   4.839 -0.1543 -0.4627 -0.4498
   18MOL0     C 2297   5.351   3.484   4.931 -0.0395  0.2259 -0.5990
   18MOL0     O 2298   5.393   3.506   5.057  0.5496  0.1406 -0.2824
   18MOL0     C 2299   5.518   3.486   5.090  0.4978 -0.1795  0.7603
   18MOL0     C 2300   5.557   3.372   5.153 -0.4279 -0.8894 -1.6631
   18MOL0     C 2301   5.690   3.365   5.198  0.4137  0.7843 -0.5731
   18MOL0     C 2302   5.783   3.465   5.182 -0.0928 -0.0236  0.9672
   18MOL0     O 2303   5.906   3.469   5.242 -0.2835  0.4164  0.5673
   18MOL0     C 2304   5.971   3.341   5.260  0.4970 -1.0305 -0.3532
   18MOL0     C 2305   6.119   3.355   5.288  0.8194  0.1334  0.2293
   18MOL0     C 2306   6.184   3.220   5.309  0.4283  0.4062 -0.3386
   18MOL0     C 2307   6.317   3.230   5.387  0.0462 -0.4581 -0.6302
   18MOL0     C 2308   6.390   3.098   5.385 -0.1645  0.1287  0.5142
   18MOL0     C 2309   6.342   2.990   5.485  0.2915  0.8799 -0.4752
   18MOL0     C 2310   6.426   2.854   5.496 -0.2566 -0.4240 -0.3091
   18MOL0     C 2311   6.352   2.757   5.602  0.2927  0.0235 -0.2326
   18MOL0     N 2312   6.445   2.695   5.693  0.2084  0.4261 -0.4073
   18MOL0     C 2313   6.478   2.734   5.819  0.5228  0.5309 -0.2706
   18MOL0     C 2314   6.537   2.631   5.874  0.1082  0.2826 -0.4085
   18MOL0     C 2315   6.607   2.650   6.005  0.9157 -0.4710 -0.2464
   18MOL0     C 2316   6.534   2.583   6.122 -0.1759 -0.7991  0.1165
   18MOL0     C 2317   6.530   2.431   6.116 -0.2488  0.4318  0.2002
   18MOL0     C 2318   6.479   2.387   6.251 -0.0333  0.3859 -0.3645
   18MOL0     O 2319   6.486   2.244   6.286  0.2313  0.3006 -0.3823
   18MOL0     C 2320   6.609   2.193   6.280 -0.0915  0.6051  0.0087
   18MOL0     C 2321   6.724   2.262   6.297  0.1026 -0.0808 -0.7425
   18MOL0     C 2322   6.851   2.192   6.284  0.1641  1.3631 -0.8247
   18MOL0     C 2323   6.854   2.052   6.244 -0.3495 -1.1320 -1.2200
   18MOL0     C 2324   6.982   1.984   6.248 -0.2070  0.6623 -0.3764
   18MOL0     O 2325   7.105   2.054   6.230  0.1206  0.6080 -0.0757
   18MOL0     C 2326   7.221   1.984   6.225 -0.2691 -0.2330 -0.8099
   18MOL0     C 2327   7.293   1.968   6.113 -0.6950 -0.0519 -0.1930
   18MOL0     C 2328   7.421   1.905   6.121  0.2047 -0.1984 -0.3799
   18MOL0     C 2329   7.477   1.861   6.246 -0.0224  0.6065  0.1736
   18MOL0     O 2330   7.601   1.797   6.245  0.1702 -0.0635 -0.0671
   18MOL0     C 2331   7.665   1.783   6.373 -0.8119 -0.1787 -0.0867
   18MOL0     C 2332   7.814   1.753   6.367  0.0587 -0.2220  0.1753
   18MOL0     C 2333   7.846   1.605   6.342  0.0335  0.6952  0.5575
   18MOL0     C 2334   7.856   1.513   6.472 -0.5005 -0.3802  0.4177
   18MOL0     C 2335   7.818   1.366   6.465  0.2462  0.2416  0.5425
   18MOL0     C 2336   7.861   1.294   6.592  0.1241  0.0513 -0.4942
   18MOL0     C 2337   7.809   1.151   6.574  0.4713  0.5409  0.6834
   18MOL0     C 2338   7.812   1.070   6.696  0.0378  0.1326  1.1074
   18MOL0    Cl 2339   7.673   1.120   6.796  0.0906 -0.3879 -0.2652
   18MOL0     C 2340   7.395   1.878   6.358 -0.5629 -0.4555 -0.4543
   18MOL0     C 2341   7.268   1.938   6.350  1.3810 -0.8940 -0.0283
   18MOL0     O 2342   6.972   1.863   6.262 -0.8867  0.0370  0.4633
   18MOL0     C 2343   6.724   1.989   6.213 -0.2831 -0.2619 -0.0724
   18MOL0     C 2344   6.612   2.062   6.234  0.4782 -0.9775  0.7062
   18MOL0     N 2345   6.537   2.525   5.785 -0.4677  0.2067  0.2524
   18MOL0     N 2346   6.476   2.559   5.674 -0.6320 -1.3756  0.6082
   18MOL0     C 2347   5.735   3.573   5.119  0.0757  0.5967  0.2493
   18MOL0     C 2348   5.603   3.585   5.064  1.0464  0.1191 -0.1626
   18MOL0     C 2349   5.207   3.497   4.895 -0.5710 -0.0134 -0.5526
   18MOL0     C 2350   5.166   3.440   4.768  0.4023 -0.0859  0.1680
   18MOL0     C 2351   5.037   3.456   4.714 -0.6551 -0.0087  0.1869
   18MOL0     C 2352   4.934   3.520   4.792  0.4826  0.8274 -0.0060
   18MOL0     O 2353   4.806   3.529   4.748 -0.4117  0.1614  0.2554
   18MOL0     C 2354   4.694   3.534   4.836 -0.7233  0.4703  0.2528
   18MOL0     C 2355   4.646   3.676   4.869  0.0899  0.4365 -0.0948
   18MOL0     C 2356   4.500   3.672   4.908 -0.5582 -0.3157 -0.2862
   18MOL0     C 2357   4.462   3.809   4.969  0.8387 -0.4954  0.5562
   18MOL0     C 2358   4.318   3.821   4.957  0.3044 -0.1679 -0.2485
   18MOL0     C 2359   4.201   3.826   4.940 -0.2093  1.2204  0.3650
   18MOL0     C 2360   4.969   3.565   4.920 -0.0964  0.0088  0.8429
   18MOL0     C 2361   5.102   3.571   4.965 -0.2928 -0.0177  0.6153
   18MOL0     C 2362   5.130   3.636   5.096  0.0949  0.3213  0.3448
   18MOL0     H 2363   5.473   3.307   5.177 -2.1865  0.7723 -3.0459
   18MOL0     H 2364   5.719   3.281   5.261  2.3143  1.1904 -0.8351
   18MOL0     H 2365   5.924   3.293   5.347 -1.3891 -0.8473 -1.2144
   18MOL0     H 2366   5.953   3.277   5.173  0.3151  0.8317 -1.7527
   18MOL0     H 2367   6.125   3.415   5.380  0.6663  1.3390 -0.5222
   18MOL0     H 2368   6.174   3.403   5.206  4.0685 -0.1463  2.0644
   18MOL0     H 2369   6.214   3.184   5.210 -0.4794 -0.9610 -0.1457
   18MOL0     H 2370   6.118   3.147   5.357  1.4691 -0.5586 -0.3183
   18MOL0     H 2371   6.375   3.307   5.335  1.1098 -0.5376  0.3848
   18MOL0     H 2372   6.299   3.267   5.489 -0.2472  1.1018 -1.2129
   18MOL0     H 2373   6.402   3.049   5.288  0.8372 -1.8214  1.5490
   18MOL0     H 2374   6.497   3.114   5.401 -0.0165 -3.2814  5.2672
   18MOL0     H 2375   6.344   3.030   5.586  0.4638 -2.4274  0.9702
   18MOL0     H 2376   6.236   2.967   5.473  0.5824 -2.4120  1.9376
   18MOL0     H 2377   6.528   2.866   5.533 -0.4486 -0.6179  0.3008
   18MOL0     H 2378   6.427   2.809   5.397 -1.8219  0.5484 -0.8133
   18MOL0     H 2379   6.273   2.807   5.659 -0.2998 -0.3193 -0.7458
   18MOL0     H 2380   6.304   2.681   5.539  1.5330 -0.2543 -0.8835
   18MOL0     H 2381   6.443   2.831   5.854 -0.8532  0.3956 -1.2096
   18MOL0     H 2382   6.703   2.600   5.992  1.5701  0.6483  0.0785
   18MOL0     H 2383   6.617   2.755   6.035  1.6269 -0.7458  0.5244
   18MOL0     H 2384   6.576   2.617   6.217  0.1036  2.6087 -1.0772
   18MOL0     H 2385   6.433   2.624   6.134  0.5633  0.8005  1.1720
   18MOL0     H 2386   6.631   2.397   6.088 -0.5057  0.5121 -0.8982
   18MOL0     H 2387   6.464   2.386   6.041 -1.1217  1.2250  0.4802
   18MOL0     H 2388   6.376   2.419   6.262  0.5446  2.4884 -0.5889
   18MOL0     H 2389   6.521   2.444   6.334 -1.9930  0.9985  0.2373
   18MOL0     H 2390   6.725   2.363   6.337  2.6422 -0.4354  0.3269
   18MOL0     H 2391   6.938   2.251   6.309  0.6193  0.2438  0.4022
   18MOL0     H 2392   7.256   1.994   6.015  2.8259 -0.8609 -1.9305
   18MOL0     H 2393   7.493   1.903   6.040  0.0572  2.0607 -0.6354
   18MOL0     H 2394   7.648   1.872   6.434  1.5844 -1.4915  2.8066
   18MOL0     H 2395   7.615   1.697   6.417  0.5960 -2.1660 -2.1341
   18MOL0     H 2396   7.857   1.822   6.293 -0.7756  1.7207  1.4073
   18MOL0     H 2397   7.857   1.785   6.462 -0.0695 -0.4640  0.3135
   18MOL0     H 2398   7.776   1.566   6.268 -1.6717  4.4011  0.0009
   18MOL0     H 2399   7.942   1.599   6.289  1.2009 -4.3773  2.6752
   18MOL0     H 2400   7.796   1.548   6.557 -1.7124  1.1288 -0.9900
   18MOL0     H 2401   7.961   1.514   6.502 -0.0922  0.8604 -0.9790
   18MOL0     H 2402   7.858   1.323   6.373  1.6212  0.7277  0.8747
   18MOL0     H 2403   7.709   1.366   6.461  0.2853 -0.1764 -0.9646
   18MOL0     H 2404   7.969   1.309   6.601  0.1841  0.0347 -1.1705
   18MOL0     H 2405   7.823   1.345   6.681 -0.1660  0.4116 -0.8224
   18MOL0     H 2406   7.864   1.097   6.497 -1.1622  0.0432 -0.1857
   18MOL0     H 2407   7.707   1.151   6.535  0.6976  0.7070  0.0866
   18MOL0     H 2408   7.795   0.970   6.656 -0.5997  1.0479 -1.0723
   18MOL0     H 2409   7.903   1.066   6.756  1.1601  0.2155 -0.5231
   18MOL0     H 2410   7.445   1.848   6.450  0.7310  0.9118 -0.6697
   18MOL0     H 2411   7.211   1.962   6.439  1.8164 -1.7332  0.4911
   18MOL0     H 2412   6.710   1.889   6.174 -0.7417 -0.4796  0.6326
   18MOL0     H 2413   6.509   2.034   6.216  0.6269  0.5126 -3.9265
   18MOL0     H 2414   5.799   3.660   5.119  0.5760  0.2531  1.2486
   18MOL0     H 2415   5.566   3.672   5.011 -1.1544 -2.2410 -2.7879
   18MOL0     H 2416   5.231   3.375   4.710  0.4181 -2.9299  3.0570
   18MOL0     H 2417   5.013   3.421   4.615  1.3310  1.9540 -1.0739
   18MOL0     H 2418   4.711   3.486   4.933 -0.4474 -0.4750 -0.2558
   18MOL0     H 2419   4.620   3.484   4.773  0.1188 -0.1365 -0.2778
   18MOL0     H 2420   4.666   3.738   4.781  0.3237  2.3636  1.2518
   18MOL0     H 2421   4.708   3.716   4.950  3.3397  1.4720 -2.8609
   18MOL0     H 2422   4.482   3.595   4.983 -2.9877 -1.4009 -1.8785
   18MOL0     H 2423   4.434   3.633   4.830 -2.5045 -0.7447  1.4753
   18MOL0     H 2424   4.496   3.816   5.072 -0.1168 -2.8320  1.0801
   18MOL0     H 2425   4.503   3.889   4.906  0.3833  2.6224  3.8791
   18MOL0     H 2426   4.097   3.805   4.924  0.4993 -1.7983 -0.9437
   18MOL0     H 2427   4.899   3.619   4.983 -0.3736  1.0175 -0.2774
   18MOL0     H 2428   5.051   3.706   5.124 -1.1646 -1.8884  2.7945
   18MOL0     H 2429   5.142   3.561   5.175  0.2306 -1.1520 -1.0249
   18MOL0     H 2430   5.219   3.697   5.080 -2.5620  4.3913 -0.3768
   19MOL0     O 2431   4.308   6.361   7.703  0.0802  0.3380 -0.6691
   19MOL0     C 2432   4.252   6.434   7.611 -0.3554  0.1033 -0.4770
   19MOL0     O 2433   4.310   6.514   7.525 -0.9233  0.7096  0.1653
   19MOL0     C 2434   4.438   6.561   7.550  0.5110 -0.0511  0.1563
   19MOL0     C 2435   4.546   6.473   7.558 -0.8873  0.2374  0.1576
   19MOL0     C 2436   4.676   6.526   7.587 -1.8226 -0.0299  0.0931
   19MOL0     C 2437   4.693   6.661   7.595 -0.0861 -0.3824  0.1746
   19MOL0     O 2438   4.815   6.723   7.602 -0.0000 -0.4077  0.4072
   19MOL0     C 2439   4.914   6.686   7.699 -0.0010 -0.1327  0.0241
   19MOL0     C 2440   5.037   6.772   7.687  0.2622 -0.2049  0.8348
   19MOL0     C 2441   5.084   6.763   7.543  0.1012 -0.3843 -0.1034
   19MOL0     C 2442   5.219   6.839   7.527  0.5089  0.1220  0.5321
   19MOL0     C 2443   5.256   6.832   7.381  0.0402  0.7415 -0.2485
   19MOL0     C 2444   5.336   6.949   7.332 -0.9312  0.5775  0.6919
   19MOL0     C 2445   5.261   7.077   7.305 -0.2135  0.7622 -1.0192
   19MOL0     C 2446   5.175   7.077   7.175 -0.5608  0.4212 -0.1601
   19MOL0     N 2447   5.252   7.044   7.062 -0.2527 -0.8094  1.2068
   19MOL0     C 2448   5.199   6.984   6.945 -0.1364  0.2012 -0.0106
   19MOL0     C 2449   5.300   6.969   6.852 -0.1561 -0.7308 -0.1517
   19MOL0     C 2450   5.285   6.883   6.722  0.0544  0.8946 -0.0793
   19MOL0     C 2451   5.259   6.743   6.771 -0.3096 -0.1095  0.3581
   19MOL0     C 2452   5.217   6.654   6.657 -0.2728 -0.0621 -0.1843
   19MOL0     C 2453   5.192   6.515   6.701 -0.0740  0.4348 -0.6799
   19MOL0     O 2454   5.070   6.505   6.781 -0.0981  0.0095  0.7433
   19MOL0     C 2455   4.946   6.503   6.720 -0.7078  0.5233 -0.3132
   19MOL0     C 2456   4.840   6.471   6.793  0.5945  0.6368  0.3112
   19MOL0     C 2457   4.712   6.458   6.725 -0.3668  0.0038 -0.2745
   19MOL0     C 2458   4.693   6.480   6.587  0.2296 -0.5332  0.3334
   19MOL0     C 2459   4.560   6.473   6.532 -0.9917  0.8186 -0.7094
   19MOL0     O 2460   4.464   6.401   6.595  0.8357 -0.0838 -0.0414
   19MOL0     C 2461   4.343   6.392   6.536  0.1772  0.5210 -0.2225
   19MOL0     C 2462   4.326   6.315   6.421  0.0460 -0.1396  1.1965
   19MOL0     C 2463   4.199   6.295   6.365 -0.0884 -0.9556 -0.4418
   19MOL0     C 2464   4.089   6.360   6.428 -0.8674  0.5919  0.0841
   19MOL0     O 2465   3.966   6.365   6.367  0.6142  0.3552 -0.2386
   19MOL0     C 2466   3.909   6.241   6.323 -0.2748  0.1018 -0.0334
   19MOL0     C 2467   3.883   6.148   6.446 -0.5287 -0.5842 -0.2647
   19MOL0     C 2468   3.794   6.210   6.556 -0.1869  0.7575  0.7341
   19MOL0     C 2469   3.780   6.118   6.678 -0.5416 -0.3091 -0.3483
   19MOL0     C 2470   3.699   6.187   6.794  0.0063  0.4532  0.1758
   19MOL0     C 2471   3.666   6.082   6.900 -0.5319 -0.9401  0.7262
   19MOL0     C 2472   3.596   6.149   7.024  0.3862  0.6128  0.0774
   19MOL0     C 2473   3.700   6.194   7.128 -0.5817  0.5838  0.1738
   19MOL0    Cl 2474   3.605   6.238   7.276 -0.5689  0.0137  0.3047
   19MOL0     C 2475   4.108   6.450   6.532  0.4343  0.2778  0.1999
   19MOL0     C 2476   4.236   6.463   6.587  0.3284 -0.0310  0.6239
   19MOL0     O 2477   4.544   6.541   6.426 -0.1087  1.0433  0.1401
   19MOL0     C 2478   4.804   6.518   6.511  0.3293  0.8463 -0.1541
   19MOL0     C 2479   4.933   6.516   6.577  1.2454 -0.4353 -0.3365
   19MOL0     N 2480   5.412   7.040   6.894 -0.1346  0.5086  0.0976
   19MOL0     N 2481   5.378   7.083   7.018 -0.3230  0.3243  0.0537
   19MOL0     C 2482   4.581   6.751   7.588  0.1767  0.0485 -0.1522
   19MOL0     C 2483   4.460   6.702   7.559  0.3226  0.2463 -0.0700
   19MOL0     C 2484   4.108   6.409   7.611 -0.2876 -0.7956  0.4883
   19MOL0     C 2485   4.050   6.392   7.478  0.8352 -0.3286  0.4063
   19MOL0     C 2486   3.908   6.387   7.461  0.1765  0.3810  0.8976
   19MOL0     C 2487   3.823   6.376   7.569  0.3369 -0.6476 -0.0581
   19MOL0     O 2488   3.686   6.358   7.549  0.2307 -0.0413 -0.0792
   19MOL0     C 2489   3.614   6.261   7.638 -0.2011 -0.6001  1.0698
   19MOL0     C 2490   3.674   6.124   7.628  0.2091  0.6488  0.6145
   19MOL0     C 2491   3.591   6.022   7.705  0.5011 -0.7282 -0.3858
   19MOL0     C 2492   3.647   5.873   7.701  0.1688 -0.4177  0.3788
   19MOL0     C 2493   3.653   5.826   7.569 -0.7309  0.3226  0.2974
   19MOL0     C 2494   3.641   5.779   7.457 -0.9303  0.0394 -0.0926
   19MOL0     C 2495   3.883   6.384   7.697  0.1312  0.0035 -0.8989
   19MOL0     C 2496   4.022   6.403   7.724  0.3074  0.3367  0.7287
   19MOL0     C 2497   4.072   6.398   7.872  0.4066  0.2929  0.5396
   19MOL0     H 2498   4.552   6.364   7.558  3.8718  0.2866  1.4481
   19MOL0     H 2499   4.753   6.450   7.596 -1.2974  0.6675  1.9637
   19MOL0     H 2500   4.861   6.704   7.793  0.4947  0.5847  0.1739
   19MOL0     H 2501   4.932   6.578   7.695 -1.9656 -0.4875 -0.5533
   19MOL0     H 2502   5.110   6.751   7.766 -2.2141  1.4900  3.7812
   19MOL0     H 2503   5.005   6.872   7.717 -0.2358  0.1142 -0.7117
   19MOL0     H 2504   5.006   6.808   7.481 -1.5134 -1.5022  1.0522
   19MOL0     H 2505   5.093   6.664   7.497  2.0911 -0.3275  0.0816
   19MOL0     H 2506   5.193   6.937   7.568 -0.6596 -0.8766  2.2834
   19MOL0     H 2507   5.289   6.788   7.594 -2.6483 -5.7144  0.0379
   19MOL0     H 2508   5.315   6.740   7.381  0.1383  0.7287  2.0242
   19MOL0     H 2509   5.174   6.806   7.314  3.0121 -1.3926 -3.3519
   19MOL0     H 2510   5.421   6.961   7.400 -0.0620  2.0124 -0.5611
   19MOL0     H 2511   5.379   6.921   7.235  0.6561  2.3865  0.8010
   19MOL0     H 2512   5.343   7.148   7.289  0.5413 -0.1208 -1.1706
   19MOL0     H 2513   5.198   7.110   7.388 -0.4955  0.0071 -0.9289
   19MOL0     H 2514   5.105   6.994   7.165  1.0024 -0.8202 -1.2285
   19MOL0     H 2515   5.123   7.173   7.176 -0.0829  0.7348  2.6275
   19MOL0     H 2516   5.096   6.952   6.949 -1.1885  3.1615 -0.6212
   19MOL0     H 2517   5.209   6.928   6.657 -0.5433 -1.3336 -1.0380
   19MOL0     H 2518   5.373   6.884   6.656 -1.1627  0.4136 -1.7902
   19MOL0     H 2519   5.358   6.709   6.803 -0.5646  0.7382  2.2178
   19MOL0     H 2520   5.180   6.745   6.847  0.9785  1.4964  1.7265
   19MOL0     H 2521   5.288   6.655   6.574  1.2358  0.8621  1.0660
   19MOL0     H 2522   5.120   6.691   6.621 -1.6569 -2.9924  0.3074
   19MOL0     H 2523   5.269   6.470   6.764 -1.1442 -0.0026  0.3637
   19MOL0     H 2524   5.197   6.463   6.605 -0.1479 -0.5746 -0.1531
   19MOL0     H 2525   4.840   6.439   6.897 -0.9652  0.0694  0.1692
   19MOL0     H 2526   4.621   6.443   6.781  0.5597  1.0036  1.5821
   19MOL0     H 2527   4.409   6.258   6.379 -1.3249 -0.4963 -1.2719
   19MOL0     H 2528   4.187   6.231   6.279  1.1255 -2.5221  0.5005
   19MOL0     H 2529   3.811   6.256   6.276 -0.5988 -0.7010  0.3718
   19MOL0     H 2530   3.980   6.193   6.256 -0.0278 -0.3554  0.5490
   19MOL0     H 2531   3.837   6.061   6.397 -0.8932 -0.1749 -0.6637
   19MOL0     H 2532   3.970   6.107   6.498 -1.3241 -2.2444 -0.1689
   19MOL0     H 2533   3.827   6.310   6.587 -2.0206  2.0663 -1.2101
   19MOL0     H 2534   3.691   6.232   6.524 -0.7254  0.1694  1.9836
   19MOL0     H 2535   3.879   6.085   6.709 -0.5528  0.2465  0.2811
   19MOL0     H 2536   3.727   6.027   6.646  1.1493 -0.7002 -2.2083
   19MOL0     H 2537   3.608   6.235   6.757  0.7151 -0.1902 -2.6350
   19MOL0     H 2538   3.757   6.262   6.848 -1.8422  1.3347  1.0248
   19MOL0     H 2539   3.604   6.004   6.855 -1.6002  0.3261 -0.0591
   19MOL0     H 2540   3.764   6.038   6.925  1.1491  1.0383 -1.8400
   19MOL0     H 2541   3.531   6.069   7.062  0.3331 -0.2165 -1.6878
   19MOL0     H 2542   3.527   6.231   7.001  0.1928  0.3507 -0.2773
   19MOL0     H 2543   3.772   6.115   7.152  0.8950  1.6347 -0.6442
   19MOL0     H 2544   3.760   6.280   7.096  0.7522 -0.9119 -1.5501
   19MOL0     H 2545   4.029   6.510   6.576 -1.1804 -2.4407  1.2400
   19MOL0     H 2546   4.238   6.536   6.667 -0.2625  2.7578 -1.7412
   19MOL0     H 2547   4.800   6.543   6.405  0.1833  0.9029 -0.1353
   19MOL0     H 2548   5.015   6.521   6.507  0.3310  1.4258 -1.3387
   19MOL0     H 2549   4.585   6.858   7.607  0.6264  0.1627 -0.8439
   19MOL0     H 2550   4.370   6.760   7.547  0.6076  0.8277  0.5495
   19MOL0     H 2551   4.108   6.401   7.387 -1.9328 -1.3648 -1.5803
   19MOL0     H 2552   3.865   6.389   7.361  2.0773 -0.5668  0.0070
   19MOL0     H 2553   3.509   6.261   7.607  0.0532 -2.8325 -0.0040
   19MOL0     H 2554   3.621   6.295   7.741  0.5948 -0.4954  0.9957
   19MOL0     H 2555   3.778   6.122   7.662 -0.5556 -0.4677  3.1178
   19MOL0     H 2556   3.681   6.092   7.524  0.3155  1.4455  0.3735
   19MOL0     H 2557   3.492   6.033   7.661  1.2199  4.5780 -1.3396
   19MOL0     H 2558   3.587   6.047   7.812  1.3081 -0.4077 -0.4233
   19MOL0     H 2559   3.750   5.857   7.733  0.9791  2.0924 -0.7349
   19MOL0     H 2560   3.571   5.814   7.752  1.4297 -2.3065  0.1740
   19MOL0     H 2561   3.620   5.750   7.356 -4.7891  2.9719 -0.3476
   19MOL0     H 2562   3.816   6.360   7.779  0.3710  1.2897 -0.3022
   19MOL0     H 2563   4.119   6.302   7.895  0.2965 -0.1143 -0.8346
   19MOL0     H 2564   4.150   6.474   7.880  2.2452 -1.2860 -1.1493
   19MOL0     H 2565   3.992   6.428   7.940 -1.3085 -0.4658 -1.0418
   20MOL0     O 2566   4.335   5.275   5.365 -0.2748  0.1170  0.7441
   20MOL0     C 2567   4.332   5.241   5.480  0.4707  0.7903  0.6680
   20MOL0     O 2568   4.228   5.169   5.537 -0.5530 -0.1901  0.2752
   20MOL0     C 2569   4.110   5.147   5.467 -0.0207 -0.1227 -0.0703
   20MOL0     C 2570   4.053   5.020   5.466 -0.0111 -0.3603  0.5034
   20MOL0     C 2571   3.924   4.997   5.412  0.3186 -0.4992 -0.5386
   20MOL0     C 2572   3.841   5.105   5.368  0.3468 -0.0012  0.6586
   20MOL0     O 2573   3.714   5.103   5.311  0.2690 -0.0416  0.2855
   20MOL0     C 2574   3.645   4.977   5.291  0.3079  0.1767 -0.3213
   20MOL0     C 2575   3.508   5.009   5.221 -0.1302 -0.0976 -0.6093
   20MOL0     C 2576   3.412   4.893   5.230  1.3793 -0.1405 -0.5697
   20MOL0     C 2577   3.292   4.892   5.134  0.1601  0.0879  0.3762
   20MOL0     C 2578   3.193   4.990   5.176  0.2196  0.1576 -0.1362
   20MOL0     C 2579   3.107   5.021   5.052  0.4992 -0.1527  0.4139
   20MOL0     C 2580   3.022   5.145   5.099 -0.0148 -0.3696 -0.0650
   20MOL0     C 2581   2.912   5.184   5.000 -0.0216  0.0627  0.1230
   20MOL0     N 2582   2.810   5.077   4.968 -0.2041  0.2068  0.0729
   20MOL0     C 2583   2.821   4.992   4.865  0.2125  0.7929  0.0420
   20MOL0     C 2584   2.693   4.943   4.848 -1.3761  0.7757  0.0479
   20MOL0     C 2585   2.633   4.862   4.732  0.3570  0.2643 -0.5210
   20MOL0     C 2586   2.649   4.712   4.757 -0.6057 -0.0876  0.3935
   20MOL0     C 2587   2.554   4.627   4.675 -0.2840 -0.2259  0.4614
   20MOL0     C 2588   2.586   4.474   4.684  0.0075  0.2012 -0.0772
   20MOL0     O 2589   2.491   4.388   4.618  0.1247 -0.1144  0.3096
   20MOL0     C 2590   2.469   4.405   4.484 -0.5981  0.2284 -0.0477
   20MOL0     C 2591   2.552   4.447   4.388 -0.6496  0.5722  0.6793
   20MOL0     C 2592   2.518   4.468   4.249  0.2651  0.2267  0.4976
   20MOL0     C 2593   2.379   4.442   4.210 -0.3016 -0.4773  0.0322
   20MOL0     C 2594   2.324   4.452   4.069 -0.6721  0.0415 -1.0051
   20MOL0     O 2595   2.408   4.506   3.985  0.1684 -0.5100 -0.3844
   20MOL0     C 2596   2.389   4.518   3.850 -0.0366 -0.4150 -0.3771
   20MOL0     C 2597   2.501   4.519   3.759  0.8356  0.1684  0.0556
   20MOL0     C 2598   2.484   4.545   3.620  0.1048 -0.8433  0.4649
   20MOL0     C 2599   2.365   4.578   3.570  0.1270  0.6755  0.6508
   20MOL0     O 2600   2.345   4.606   3.435 -0.2437 -0.7316  0.2447
   20MOL0     C 2601   2.451   4.562   3.343 -0.1007 -0.7918 -0.2433
   20MOL0     C 2602   2.399   4.626   3.218 -0.2299 -0.0564 -0.3979
   20MOL0     C 2603   2.509   4.643   3.109  0.1309  0.3776 -0.4450
   20MOL0     C 2604   2.460   4.713   2.982 -0.6652  0.3411 -0.0475
   20MOL0     C 2605   2.565   4.733   2.876 -0.3742 -0.7453 -0.1175
   20MOL0     C 2606   2.495   4.769   2.751  0.2880 -0.0827  0.3916
   20MOL0     C 2607   2.590   4.841   2.654 -0.3290  0.0839  0.0185
   20MOL0     C 2608   2.514   4.929   2.550  0.6413  0.2657 -0.1189
   20MOL0    Cl 2609   2.644   5.024   2.465  0.1390  0.5571 -0.4368
   20MOL0     C 2610   2.258   4.586   3.663 -0.1319  0.4726 -0.6391
   20MOL0     C 2611   2.263   4.562   3.803 -0.4386 -0.8523 -0.1380
   20MOL0     O 2612   2.213   4.406   4.044  0.4364 -0.3001 -0.7529
   20MOL0     C 2613   2.298   4.397   4.312 -0.3689 -0.1651 -0.2004
   20MOL0     C 2614   2.343   4.379   4.444  0.0904 -0.1107 -0.4004
   20MOL0     N 2615   2.618   4.979   4.949  0.2977 -0.5378  0.9749
   20MOL0     N 2616   2.690   5.061   5.020  1.2992  0.7956  0.1352
   20MOL0     C 2617   3.901   5.231   5.363 -1.7362  0.3773 -0.6457
   20MOL0     C 2618   4.034   5.256   5.414 -0.8360  1.0370  0.5083
   20MOL0     C 2619   4.451   5.254   5.567 -0.0722 -0.4847 -0.5471
   20MOL0     C 2620   4.579   5.251   5.508  0.3725 -0.8560  0.1549
   20MOL0     C 2621   4.690   5.279   5.579 -0.7131  0.2676 -0.4422
   20MOL0     C 2622   4.681   5.289   5.724  0.3434  0.7625 -0.1257
   20MOL0     O 2623   4.804   5.297   5.786  0.3250  0.3583  0.0571
   20MOL0     C 2624   4.808   5.324   5.930 -0.1957 -0.3453 -0.5149
   20MOL0     C 2625   4.837   5.186   6.014 -0.1397 -0.4464  0.2391
   20MOL0     C 2626   4.877   5.225   6.160  0.1671 -0.4121  0.3478
   20MOL0     C 2627   5.008   5.303   6.165  0.5870  0.5900  0.6622
   20MOL0     C 2628   5.113   5.217   6.106 -0.6068 -0.1214 -0.5757
   20MOL0     C 2629   5.197   5.151   6.045 -0.0258 -0.9812  0.3575
   20MOL0     C 2630   4.554   5.285   5.782  0.2950  0.4571 -0.3394
   20MOL0     C 2631   4.441   5.272   5.711  1.0903 -1.3971 -0.3358
   20MOL0     C 2632   4.314   5.295   5.787 -0.0373 -0.3660 -0.4459
   20MOL0     H 2633   4.121   4.938   5.490  2.2407  1.7144  1.6089
   20MOL0     H 2634   3.884   4.896   5.417  0.7377 -0.6041  1.9078
   20MOL0     H 2635   3.705   4.912   5.226  1.4241  0.9409 -0.0765
   20MOL0     H 2636   3.638   4.928   5.389  0.5297 -4.0906 -2.2320
   20MOL0     H 2637   3.516   5.037   5.116 -3.5827 -0.0965 -0.9718
   20MOL0     H 2638   3.458   5.093   5.271  0.2338 -1.1427  1.6487
   20MOL0     H 2639   3.376   4.863   5.329 -2.3445 -0.0663 -1.7456
   20MOL0     H 2640   3.466   4.804   5.195 -2.2970 -2.6015 -0.4897
   20MOL0     H 2641   3.341   4.916   5.039  3.7623  1.2490  2.3358
   20MOL0     H 2642   3.246   4.795   5.116  0.8190  0.0567 -1.3627
   20MOL0     H 2643   3.124   4.942   5.246  0.1502  0.4016 -0.0376
   20MOL0     H 2644   3.241   5.082   5.212  3.1585 -0.7187 -1.4959
   20MOL0     H 2645   3.166   5.038   4.962 -0.8097 -0.6118 -0.5594
   20MOL0     H 2646   3.039   4.937   5.031 -2.0830  1.7624  0.7142
   20MOL0     H 2647   3.092   5.227   5.114  1.0647 -1.2757 -0.0332
   20MOL0     H 2648   2.986   5.131   5.202 -1.9766 -2.3053 -0.9137
   20MOL0     H 2649   2.852   5.260   5.051  0.1897 -0.2236  0.7954
   20MOL0     H 2650   2.959   5.227   4.911  0.2399  2.3765  1.3045
   20MOL0     H 2651   2.908   4.979   4.801  0.3867  1.1324  0.2052
   20MOL0     H 2652   2.526   4.885   4.736  0.7551  2.0933  1.1137
   20MOL0     H 2653   2.665   4.888   4.631 -1.1061  0.2823 -1.0161
   20MOL0     H 2654   2.751   4.677   4.738 -0.6891 -0.3776  0.4649
   20MOL0     H 2655   2.632   4.691   4.863  0.8125  1.9792  1.1033
   20MOL0     H 2656   2.565   4.652   4.569 -2.2553 -1.5951 -0.1088
   20MOL0     H 2657   2.455   4.653   4.711 -1.3782 -1.2595 -1.6196
   20MOL0     H 2658   2.582   4.450   4.791  0.3098 -0.5275 -0.2290
   20MOL0     H 2659   2.687   4.446   4.653  0.2569  0.6759  0.2806
   20MOL0     H 2660   2.648   4.477   4.429 -0.3574 -0.1769  0.5759
   20MOL0     H 2661   2.587   4.506   4.174 -1.5729  0.9858 -0.8753
   20MOL0     H 2662   2.599   4.487   3.792  0.3942 -0.2245  1.0244
   20MOL0     H 2663   2.576   4.527   3.565 -0.2421 -1.0717 -0.0476
   20MOL0     H 2664   2.552   4.588   3.375 -1.0496 -1.1856  3.5855
   20MOL0     H 2665   2.448   4.453   3.343 -2.9358 -0.8087  1.2912
   20MOL0     H 2666   2.321   4.561   3.178  0.0756 -0.9449  0.3987
   20MOL0     H 2667   2.374   4.730   3.242 -0.4925  0.4884 -2.8258
   20MOL0     H 2668   2.599   4.690   3.149  0.2527  0.6456 -1.0225
   20MOL0     H 2669   2.539   4.543   3.078 -3.0050 -0.2919 -1.7127
   20MOL0     H 2670   2.420   4.812   3.005  1.1099  0.6452  2.0812
   20MOL0     H 2671   2.383   4.645   2.943  0.8805 -0.5319 -1.7163
   20MOL0     H 2672   2.623   4.642   2.856  1.0703  0.0989  0.0723
   20MOL0     H 2673   2.643   4.804   2.906  1.5791 -1.6581 -2.6262
   20MOL0     H 2674   2.445   4.677   2.722 -0.4533  0.5115 -0.2449
   20MOL0     H 2675   2.417   4.840   2.779 -2.6344 -1.7624 -2.7349
   20MOL0     H 2676   2.647   4.764   2.602 -2.8837 -2.2669  0.4814
   20MOL0     H 2677   2.641   4.915   2.716 -1.6407  2.3590 -1.4618
   20MOL0     H 2678   2.450   4.869   2.485 -0.8992  4.8132 -3.2806
   20MOL0     H 2679   2.447   5.002   2.598 -0.2816  0.3101 -1.4096
   20MOL0     H 2680   2.164   4.621   3.620  0.0663  0.5169 -1.0331
   20MOL0     H 2681   2.179   4.593   3.865  1.0395  0.7011  1.1876
   20MOL0     H 2682   2.193   4.371   4.307  0.0469 -1.7265 -1.8749
   20MOL0     H 2683   2.268   4.350   4.517 -1.3022  1.6516 -1.0720
   20MOL0     H 2684   3.842   5.317   5.332  1.2093  2.2326 -1.4590
   20MOL0     H 2685   4.073   5.357   5.414  0.8950  0.3949  0.5376
   20MOL0     H 2686   4.579   5.231   5.401  0.8397  2.4059 -0.5535
   20MOL0     H 2687   4.786   5.273   5.530 -0.3539  0.1899  0.2596
   20MOL0     H 2688   4.721   5.386   5.955  0.6825  1.8440 -2.5185
   20MOL0     H 2689   4.888   5.396   5.952 -0.9060  0.7556 -1.4317
   20MOL0     H 2690   4.906   5.126   5.954  1.9320  0.8682  1.1852
   20MOL0     H 2691   4.739   5.139   6.020 -1.5556  2.3111  0.1625
   20MOL0     H 2692   4.875   5.135   6.223 -4.1172 -1.3408 -0.7407
   20MOL0     H 2693   4.799   5.290   6.201  2.3138  1.7817  1.1877
   20MOL0     H 2694   5.000   5.401   6.116  0.5812 -0.2666 -1.1661
   20MOL0     H 2695   5.031   5.322   6.270 -1.0829  3.8143  0.5771
   20MOL0     H 2696   5.256   5.071   6.008  1.8921  1.0711 -1.3163
   20MOL0     H 2697   4.542   5.276   5.889  0.0672  1.9530 -0.2221
   20MOL0     H 2698   4.276   5.202   5.830  1.8513 -0.5594  0.9863
   20MOL0     H 2699   4.332   5.363   5.871  0.1785  0.2566 -0.9857
   20MOL0     H 2700   4.241   5.339   5.720  1.2095 -2.7446 -3.6073
   21MOL0     O 2701   1.753   0.143   9.795  0.2109 -0.4430  0.0159
   21MOL0     C 2702   1.797   0.251   9.774 -0.6637 -0.4802  0.5480
   21MOL0     O 2703   1.778   0.316   9.654 -0.8602  0.8839  0.1149
   21MOL0     C 2704   1.751   0.263   9.538  0.9585 -0.7876  0.4316
   21MOL0     C 2705   1.721   0.359   9.442  0.2858  0.8525 -0.1629
   21MOL0     C 2706   1.673   0.316   9.314 -0.4671  0.1408  0.4651
   21MOL0     C 2707   1.667   0.175   9.283 -0.2269  0.5568 -0.0838
   21MOL0     O 2708   1.623   0.119   9.163  0.3473  0.2553 -0.5390
   21MOL0     C 2709   1.664   0.182   9.040 -0.1504  0.4393  0.6249
   21MOL0     C 2710   1.575   0.122   8.930 -0.5356  0.2492 -0.7688
   21MOL0     C 2711   1.428   0.148   8.949  0.2385  0.0611  0.5808
   21MOL0     C 2712   1.356   0.079   8.833  0.1380  0.6998 -0.1708
   21MOL0     C 2713   1.210   0.125   8.810 -0.5663  0.0247 -0.7630
   21MOL0     C 2714   1.140   0.048   8.697  0.2079  1.8422  0.5277
   21MOL0     C 2715   1.039   0.135   8.626  0.7660 -0.6413 -0.0023
   21MOL0     C 2716   1.016   0.095   8.487  0.3410 -0.1414 -0.4023
   21MOL0     N 2717   1.142   0.095   8.413  0.6805 -0.2208 -0.0848
   21MOL0     C 2718   1.208   0.205   8.369 -0.4280 -0.1563 -0.3024
   21MOL0     C 2719   1.300   0.163   8.278  1.1788 -0.0252 -0.7258
   21MOL0     C 2720   1.405   0.254   8.233  0.0449  0.1464  0.3769
   21MOL0     C 2721   1.497   0.317   8.340 -0.1289 -0.2191  0.1339
   21MOL0     C 2722   1.621   0.383   8.268  0.5574 -0.2993  0.0785
   21MOL0     C 2723   1.749   0.343   8.350  0.6270 -0.0859 -0.7071
   21MOL0     O 2724   1.867   0.412   8.299 -0.0349  0.4437  0.3489
   21MOL0     C 2725   1.984   0.377   8.349 -0.5371 -0.1188 -0.5863
   21MOL0     C 2726   2.014   0.277   8.445  0.6161 -0.5424  0.7061
   21MOL0     C 2727   2.145   0.256   8.491  0.1535  0.4374  0.2148
   21MOL0     C 2728   2.255   0.326   8.438 -0.2146 -0.4976 -0.1717
   21MOL0     C 2729   2.395   0.301   8.468 -0.3102 -0.2467  0.2111
   21MOL0     O 2730   2.414   0.189   8.546  0.1214  0.0872  0.6087
   21MOL0     C 2731   2.541   0.143   8.557 -1.2553 -0.2447  0.2377
   21MOL0     C 2732   2.638   0.214   8.627  0.2344 -0.3711  0.6297
   21MOL0     C 2733   2.763   0.160   8.655 -0.7874  0.2964 -0.5818
   21MOL0     C 2734   2.803   0.041   8.606 -0.0723  0.3349  0.2784
   21MOL0     O 2735   2.930  -0.015   8.617 -0.4133 -0.6411  0.2301
   21MOL0     C 2736   3.004   0.012   8.734  0.1926 -0.6606  0.1071
   21MOL0     C 2737   3.122  -0.087   8.731 -0.0414 -0.0219 -0.9734
   21MOL0     C 2738   3.099  -0.227   8.676  0.0452 -0.1298 -0.5337
   21MOL0     C 2739   3.123  -0.237   8.529 -0.4998 -0.4751 -0.1235
   21MOL0     C 2740   3.058  -0.359   8.468 -0.2630 -0.1276  1.2063
   21MOL0     C 2741   3.060  -0.365   8.309 -0.3413  0.5879  0.0688
   21MOL0     C 2742   3.001  -0.498   8.264  0.2490 -0.2012 -0.0348
   21MOL0     C 2743   3.022  -0.528   8.117 -0.3396 -0.9198 -0.4115
   21MOL0    Cl 2744   2.955  -0.682   8.077  0.4794  0.2513  0.2154
   21MOL0     C 2745   2.711  -0.031   8.530 -0.4646  0.0662 -0.1260
   21MOL0     C 2746   2.576   0.014   8.510 -0.1581 -0.3013 -0.5554
   21MOL0     O 2747   2.481   0.376   8.417 -0.1318 -0.2642  0.0460
   21MOL0     C 2748   2.218   0.432   8.343  0.0081  1.0569 -0.0372
   21MOL0     C 2749   2.087   0.451   8.289 -0.2283 -0.0856 -0.2849
   21MOL0     N 2750   1.275   0.033   8.265  0.0982  0.0301 -0.2483
   21MOL0     N 2751   1.182  -0.012   8.338  0.3012 -0.4398 -0.3630
   21MOL0     C 2752   1.688   0.084   9.389  0.2083  0.4507 -0.2076
   21MOL0     C 2753   1.734   0.126   9.513 -0.0749  0.5622  0.1946
   21MOL0     C 2754   1.867   0.327   9.883 -0.2320 -1.1879  0.2690
   21MOL0     C 2755   1.907   0.457   9.854 -0.3045  0.2527  0.2079
   21MOL0     C 2756   1.975   0.544   9.942  0.2648  0.4808  0.2770
   21MOL0     C 2757   2.016   0.494  10.065 -0.2814  0.1194 -0.4522
   21MOL0     O 2758   2.104   0.550  10.164  0.1701 -0.8096  0.3913
   21MOL0     C 2759   2.159   0.686  10.135  0.0654 -0.1623  0.8659
   21MOL0     C 2760   2.057   0.798  10.145  0.0056 -1.2659 -0.6352
   21MOL0     C 2761   2.017   0.805  10.297 -0.8676  0.1895 -0.0407
   21MOL0     C 2762   1.954   0.947  10.316  0.1754  0.4412 -0.6250
   21MOL0     C 2763   1.809   0.952  10.303  0.6137 -0.0071  0.3140
   21MOL0     C 2764   1.687   0.968  10.295 -0.1106 -0.3513 -0.0824
   21MOL0     C 2765   1.969   0.367  10.097 -0.8637 -0.0666  0.8242
   21MOL0     C 2766   1.899   0.279  10.013 -0.2021  0.4757  0.6072
   21MOL0     C 2767   1.864   0.142  10.059  1.3278  0.3390 -0.7730
   21MOL0     H 2768   1.746   0.461   9.468  0.6221  0.4026  1.4217
   21MOL0     H 2769   1.651   0.386   9.234 -2.1159 -3.1498 -2.2144
   21MOL0     H 2770   1.643   0.289   9.045 -1.1747  0.2491  0.6825
   21MOL0     H 2771   1.767   0.154   9.016  0.1190  1.5433  0.4440
   21MOL0     H 2772   1.596   0.015   8.926 -1.8838 -0.0519 -0.2585
   21MOL0     H 2773   1.602   0.165   8.834 -0.6045  0.0453 -0.8788
   21MOL0     H 2774   1.404   0.255   8.946 -1.0924 -0.2272  0.0238
   21MOL0     H 2775   1.385   0.105   9.040 -1.2533 -1.0722 -0.6096
   21MOL0     H 2776   1.417   0.092   8.743  2.3030  1.7423  1.3615
   21MOL0     H 2777   1.353  -0.027   8.859 -3.3358  0.7218 -0.0792
   21MOL0     H 2778   1.163   0.094   8.904  1.8030  3.1240  1.6990
   21MOL0     H 2779   1.206   0.234   8.810  2.2295  0.1896 -0.5720
   21MOL0     H 2780   1.218   0.030   8.622  0.3852  0.8252  0.9495
   21MOL0     H 2781   1.093  -0.047   8.723 -0.9112  1.5288 -2.2446
   21MOL0     H 2782   1.067   0.240   8.634 -3.2200  0.5833 -0.1526
   21MOL0     H 2783   0.944   0.131   8.680  1.1815  0.3983  0.8352
   21MOL0     H 2784   0.972  -0.005   8.489  1.7165 -0.8615  3.7618
   21MOL0     H 2785   0.949   0.167   8.438  0.7425  0.5373  0.0188
   21MOL0     H 2786   1.187   0.306   8.404 -0.0537  0.6582 -2.3010
   21MOL0     H 2787   1.473   0.192   8.173 -1.8179 -1.8215  0.1761
   21MOL0     H 2788   1.346   0.325   8.174 -2.0062 -0.6219  1.3892
   21MOL0     H 2789   1.457   0.405   8.391  1.2625  0.8127 -0.4910
   21MOL0     H 2790   1.534   0.239   8.407 -2.5049  0.5803  2.5862
   21MOL0     H 2791   1.599   0.490   8.261 -2.1607 -0.7036  0.9907
   21MOL0     H 2792   1.635   0.343   8.167  0.6576  0.2126 -0.1108
   21MOL0     H 2793   1.776   0.237   8.348  3.6324  0.5991 -3.3560
   21MOL0     H 2794   1.731   0.375   8.454  0.4829  0.3169 -0.8558
   21MOL0     H 2795   1.934   0.219   8.490 -1.5793  1.3064 -0.6127
   21MOL0     H 2796   2.164   0.180   8.566 -0.3191  0.5523  0.4534
   21MOL0     H 2797   2.618   0.314   8.664  0.3940 -0.1455  0.1157
   21MOL0     H 2798   2.835   0.217   8.714  0.6526 -0.5693 -1.4695
   21MOL0     H 2799   3.037   0.115   8.746 -0.9934 -0.5017  2.8963
   21MOL0     H 2800   2.939   0.005   8.822 -2.2882  2.6402 -1.2837
   21MOL0     H 2801   3.196  -0.032   8.671 -2.3229  2.2795 -1.8472
   21MOL0     H 2802   3.154  -0.086   8.835 -0.4053  2.0053 -0.8456
   21MOL0     H 2803   3.165  -0.292   8.733 -1.1526 -1.4845 -0.6285
   21MOL0     H 2804   2.996  -0.257   8.699 -0.1314  0.9355  0.1728
   21MOL0     H 2805   3.231  -0.237   8.509  0.4253  2.5572  3.7997
   21MOL0     H 2806   3.091  -0.149   8.473  1.4487 -0.2168 -0.9237
   21MOL0     H 2807   2.955  -0.369   8.502 -0.0819  0.5285  1.9757
   21MOL0     H 2808   3.109  -0.445   8.512  1.5044  0.0726 -0.3235
   21MOL0     H 2809   2.999  -0.282   8.271  0.3676  1.0637 -0.0455
   21MOL0     H 2810   3.159  -0.343   8.269 -0.8559  1.7607 -0.6310
   21MOL0     H 2811   2.893  -0.491   8.275  0.0536 -0.6431 -1.4228
   21MOL0     H 2812   3.034  -0.576   8.333  1.9801  1.4737  1.1524
   21MOL0     H 2813   2.982  -0.442   8.062 -1.3730 -0.3923  1.1118
   21MOL0     H 2814   3.132  -0.524   8.113 -0.2698 -0.7474  1.1616
   21MOL0     H 2815   2.738  -0.134   8.507 -2.5147 -1.1443  2.3781
   21MOL0     H 2816   2.500  -0.045   8.460  0.4870  0.3225 -2.3800
   21MOL0     H 2817   2.301   0.479   8.291  1.5511 -3.4582 -2.1667
   21MOL0     H 2818   2.076   0.516   8.203  2.5936  0.9124  0.0290
   21MOL0     H 2819   1.684  -0.023   9.375  1.6790  0.3660 -0.1224
   21MOL0     H 2820   1.761   0.052   9.588  0.6957  0.1092 -0.5082
   21MOL0     H 2821   1.903   0.499   9.754  0.5128  0.6216  0.3219
   21MOL0     H 2822   2.013   0.640   9.911  3.8437 -0.7673  0.3718
   21MOL0     H 2823   2.210   0.691  10.038 -0.1247  0.2243  0.7801
   21MOL0     H 2824   2.243   0.708  10.201  0.2716  0.2615  0.4736
   21MOL0     H 2825   1.972   0.789  10.076 -0.8145 -0.7047  0.2814
   21MOL0     H 2826   2.103   0.893  10.115  1.1752 -1.6449 -0.0687
   21MOL0     H 2827   2.110   0.800  10.354 -0.4330 -0.2192 -0.7689
   21MOL0     H 2828   1.954   0.725  10.337 -0.3417  0.6236  1.7708
   21MOL0     H 2829   1.966   0.971  10.422  0.9241 -1.4170 -0.2616
   21MOL0     H 2830   2.004   1.020  10.251 -1.3973  1.1643 -1.0864
   21MOL0     H 2831   1.580   0.962  10.297 -0.1825  0.8271  1.6095
   21MOL0     H 2832   1.981   0.330  10.198  1.4962 -1.6579  0.0384
   21MOL0     H 2833   1.755   0.136  10.048  1.1614 -0.8711  1.0247
   21MOL0     H 2834   1.913   0.066   9.998 -0.0632 -1.2002 -0.0547
   21MOL0     H 2835   1.888   0.119  10.164 -2.3221  1.5933  0.5105
   22MOL0     O 2836   2.297  10.242   6.867  0.0586 -0.0224  0.0322
   22MOL0     C 2837   2.255  10.265   6.756 -0.5058 -0.0267 -0.4048
   22MOL0     O 2838   2.331  10.301   6.653 -0.1061  0.2498  1.1612
   22MOL0     C 2839   2.466  10.291   6.642 -0.1664  0.6349 -0.2608
   22MOL0     C 2840   2.555  10.287   6.750  0.6484  0.2904 -0.6996
   22MOL0     C 2841   2.695  10.304   6.735  0.8628  0.4611  0.1323
   22MOL0     C 2842   2.741  10.316   6.602 -1.2026  0.0569  0.2886
   22MOL0     O 2843   2.878  10.325   6.568 -0.3398  0.7318 -0.3482
   22MOL0     C 2844   2.988  10.309   6.667  0.0632 -0.6307 -0.0922
   22MOL0     C 2845   3.123  10.322   6.601  0.5918  0.6881 -0.2615
   22MOL0     C 2846   3.224  10.284   6.704  0.1514  0.3253 -0.5038
   22MOL0     C 2847   3.367  10.297   6.649 -0.2274  0.3984 -0.3573
   22MOL0     C 2848   3.458  10.241   6.756  0.2892  1.5753  0.5482
   22MOL0     C 2849   3.604  10.226   6.693 -0.3757 -0.3089 -0.3094
   22MOL0     C 2850   3.692  10.166   6.803 -0.3856 -0.8807 -0.1741
   22MOL0     C 2851   3.836  10.148   6.769  0.5524  0.2516  0.5516
   22MOL0     N 2852   3.863  10.041   6.675 -0.3882 -0.1935  0.7504
   22MOL0     C 2853   3.876  10.057   6.542  0.2439  0.1749  0.0028
   22MOL0     C 2854   3.905   9.938   6.494  0.7984  0.0312  0.8002
   22MOL0     C 2855   3.983   9.909   6.369 -0.3201  0.7798  0.3767
   22MOL0     C 2856   4.125   9.960   6.390  0.2708 -0.7324  1.0151
   22MOL0     C 2857   4.236   9.931   6.288 -0.8079  0.6105 -0.5018
   22MOL0     C 2858   4.215   9.959   6.149 -0.1013 -0.8806 -0.6859
   22MOL0     O 2859   4.229  10.096   6.114  0.2621  0.3454 -0.3574
   22MOL0     C 2860   4.344  10.147   6.061  0.4379  0.2563  0.2940
   22MOL0     C 2861   4.465  10.074   6.074 -0.6665  0.0780 -0.5597
   22MOL0     C 2862   4.576  10.121   6.009  0.9119  0.4760  0.2245
   22MOL0     C 2863   4.575  10.240   5.932  1.1120 -0.3020 -0.6724
   22MOL0     C 2864   4.704  10.286   5.888  0.0365  0.0866  0.3635
   22MOL0     O 2865   4.812  10.195   5.890 -0.0877 -0.3703 -0.5284
   22MOL0     C 2866   4.933  10.245   5.858 -1.2610  0.2984  0.4188
   22MOL0     C 2867   4.962  10.317   5.737 -0.2724 -0.0408 -0.6184
   22MOL0     C 2868   5.092  10.374   5.711 -0.0461 -0.0415  0.1484
   22MOL0     C 2869   5.192  10.365   5.807  0.9191 -0.1886 -0.0527
   22MOL0     O 2870   5.313  10.419   5.779 -0.5973 -0.4292  0.1477
   22MOL0     C 2871   5.417  10.333   5.726 -0.2614 -1.3725  0.4639
   22MOL0     C 2872   5.553  10.394   5.725  0.0716 -0.8521 -0.1640
   22MOL0     C 2873   5.596  10.421   5.875  0.2136 -0.5101  0.5465
   22MOL0     C 2874   5.725  10.503   5.890  0.8493  0.3642 -0.2292
   22MOL0     C 2875   5.858  10.430   5.916 -0.5491  0.2280  0.5582
   22MOL0     C 2876   5.967  10.537   5.941 -0.0868 -0.3925 -0.7363
   22MOL0     C 2877   6.102  10.479   5.935  0.0107 -0.1580  0.7529
   22MOL0     C 2878   6.217  10.573   5.976  0.0287  0.2066  0.4882
   22MOL0    Cl 2879   6.193  10.635   6.142 -0.0100 -0.0247  0.1227
   22MOL0     C 2880   5.167  10.296   5.923 -0.2203 -0.2540 -0.0675
   22MOL0     C 2881   5.044  10.231   5.945  0.2079  0.2861  0.0355
   22MOL0     O 2882   4.713  10.404   5.866 -0.6800  0.1180  0.1810
   22MOL0     C 2883   4.455  10.302   5.922 -0.4311  0.3976 -0.0439
   22MOL0     C 2884   4.339  10.267   5.986 -0.4899 -0.1222  0.4087
   22MOL0     N 2885   3.891   9.844   6.599  0.4792 -0.1561  0.6287
   22MOL0     N 2886   3.874   9.910   6.706  0.5333  0.3283  0.1312
   22MOL0     C 2887   2.657  10.318   6.502  0.1349  0.4861  0.4479
   22MOL0     C 2888   2.522  10.302   6.517 -0.5818 -0.1677 -0.6216
   22MOL0     C 2889   2.111  10.261   6.744  0.2666  0.0215 -0.2983
   22MOL0     C 2890   2.056  10.381   6.694  0.0798  0.3967 -0.4906
   22MOL0     C 2891   1.920  10.394   6.664  0.4107 -1.0895 -1.2407
   22MOL0     C 2892   1.831  10.291   6.695 -0.9205  0.1326 -0.3827
   22MOL0     O 2893   1.705  10.285   6.667 -0.2226 -0.3336 -0.2409
   22MOL0     C 2894   1.619  10.385   6.720 -0.5635 -0.1601  0.5079
   22MOL0     C 2895   1.477  10.330   6.721 -0.1183  0.2544  0.6285
   22MOL0     C 2896   1.386  10.434   6.777  1.0229 -0.6062  0.7733
   22MOL0     C 2897   1.389  10.429   6.929  0.3048 -0.0721  0.8519
   22MOL0     C 2898   1.316  10.536   6.994  0.7901  0.1279  0.3549
   22MOL0     C 2899   1.260  10.626   7.042  0.2580 -0.4528  0.3526
   22MOL0     C 2900   1.895  10.173   6.751  0.6267 -0.4949  0.1793
   22MOL0     C 2901   2.031  10.159   6.789 -0.7533 -0.1228  0.7609
   22MOL0     C 2902   2.077  10.032   6.854  0.6503 -0.5763  0.7035
   22MOL0     H 2903   2.523  10.277   6.854  1.2191  1.8859 -0.3478
   22MOL0     H 2904   2.760  10.298   6.822 -1.3152  1.3086  1.9179
   22MOL0     H 2905   2.987  10.386   6.744  0.6593  0.0704 -0.7717
   22MOL0     H 2906   2.982  10.215   6.722 -3.6037 -0.8369 -0.5969
   22MOL0     H 2907   3.138  10.424   6.565  0.0545  0.2971 -1.6694
   22MOL0     H 2908   3.132  10.251   6.518 -2.9550 -0.7204  0.4153
   22MOL0     H 2909   3.196  10.179   6.719 -1.2660  0.6947 -0.4060
   22MOL0     H 2910   3.208  10.335   6.799 -0.1487 -0.5793 -0.0548
   22MOL0     H 2911   3.382  10.238   6.558 -2.1051 -0.0825 -0.4055
   22MOL0     H 2912   3.391  10.396   6.609  1.1500 -0.3368 -1.4634
   22MOL0     H 2913   3.459  10.309   6.842  2.2346  0.7897  1.1891
   22MOL0     H 2914   3.423  10.143   6.787  0.6152  1.7458  1.4988
   22MOL0     H 2915   3.581  10.160   6.609 -1.3059 -0.0789 -0.2452
   22MOL0     H 2916   3.644  10.319   6.650 -3.5339  0.0810 -2.7646
   22MOL0     H 2917   3.643  10.070   6.824 -1.4120 -0.9486 -2.5501
   22MOL0     H 2918   3.690  10.232   6.890 -3.1002 -3.0530  1.5618
   22MOL0     H 2919   3.880  10.237   6.721 -1.4863 -0.5739 -3.3115
   22MOL0     H 2920   3.902  10.129   6.854 -1.1409  3.1276  2.7040
   22MOL0     H 2921   3.896  10.149   6.488 -0.7949 -2.4204 -5.4828
   22MOL0     H 2922   3.989   9.801   6.349  0.9445  1.2209 -2.0066
   22MOL0     H 2923   3.938   9.945   6.276  2.1649  1.5342 -0.6132
   22MOL0     H 2924   4.125  10.069   6.388  0.1277 -0.7003  2.0950
   22MOL0     H 2925   4.155   9.923   6.489  0.0863 -2.5630  0.4303
   22MOL0     H 2926   4.260   9.824   6.286 -1.3527  0.4461  0.9633
   22MOL0     H 2927   4.330   9.978   6.318  0.1222 -1.6761  0.4043
   22MOL0     H 2928   4.110   9.936   6.130 -0.2665  0.5227 -1.5420
   22MOL0     H 2929   4.278   9.897   6.084 -0.1320  0.5724 -2.1621
   22MOL0     H 2930   4.487   9.991   6.140 -0.0229 -0.1501 -1.0568
   22MOL0     H 2931   4.666  10.061   6.022  1.8641  1.8695  0.2263
   22MOL0     H 2932   4.881  10.328   5.664  0.2608 -0.5191 -1.2932
   22MOL0     H 2933   5.105  10.425   5.615  0.0356  1.4287  0.9129
   22MOL0     H 2934   5.410  10.241   5.786 -3.0758 -1.3982  0.2170
   22MOL0     H 2935   5.401  10.304   5.622  2.8132 -1.6375 -0.0200
   22MOL0     H 2936   5.629  10.331   5.678  2.6116  0.8157  1.4692
   22MOL0     H 2937   5.549  10.489   5.669  4.6944  0.4740  1.2976
   22MOL0     H 2938   5.530  10.503   5.903  3.6642  2.2828  1.2940
   22MOL0     H 2939   5.597  10.338   5.946  0.0843 -0.2433  0.8669
   22MOL0     H 2940   5.699  10.570   5.973 -2.7753  1.7464 -2.2679
   22MOL0     H 2941   5.733  10.568   5.803 -0.5832  3.0833  1.5245
   22MOL0     H 2942   5.885  10.376   5.825 -0.2765  0.2272  0.6363
   22MOL0     H 2943   5.845  10.365   6.004 -1.6793  2.4385  2.1177
   22MOL0     H 2944   5.963  10.625   5.876 -0.1847  0.3473  0.2413
   22MOL0     H 2945   5.958  10.584   6.040 -2.2449 -4.7035  1.3741
   22MOL0     H 2946   6.114  10.455   5.829 -0.7299  4.6419 -0.6569
   22MOL0     H 2947   6.087  10.392   6.000 -4.0131 -0.5661 -0.3997
   22MOL0     H 2948   6.308  10.514   5.962 -1.1148 -1.2543 -1.3753
   22MOL0     H 2949   6.220  10.655   5.904 -1.5254  1.1291  1.4009
   22MOL0     H 2950   5.241  10.299   6.002  2.4137  0.5984 -2.3864
   22MOL0     H 2951   5.039  10.191   6.046  1.3609  3.3975  1.4600
   22MOL0     H 2952   4.449  10.401   5.878  2.2102  1.2792  1.3436
   22MOL0     H 2953   4.250  10.330   5.981  0.1662  0.7852 -0.4033
   22MOL0     H 2954   2.696  10.333   6.402 -0.6092  0.0182  0.0767
   22MOL0     H 2955   2.455  10.318   6.433 -2.5395  1.4128  1.1259
   22MOL0     H 2956   2.117  10.469   6.673 -0.6501  1.5913  2.0653
   22MOL0     H 2957   1.879  10.477   6.608 -2.3973 -0.2409  1.7707
   22MOL0     H 2958   1.627  10.475   6.658 -0.1603 -0.7725 -0.3466
   22MOL0     H 2959   1.653  10.421   6.818  0.5519  1.0572 -0.2974
   22MOL0     H 2960   1.452  10.240   6.778  0.3069  0.1175  0.5959
   22MOL0     H 2961   1.430  10.300   6.627 -0.2649  3.9386 -0.6581
   22MOL0     H 2962   1.287  10.406   6.741  0.5683 -0.2054  1.6897
   22MOL0     H 2963   1.406  10.534   6.738 -4.3548  0.4996  0.1052
   22MOL0     H 2964   1.343  10.333   6.953  1.3669 -1.7469 -2.9824
   22MOL0     H 2965   1.487  10.423   6.976  0.2907 -1.7988  0.7032
   22MOL0     H 2966   1.217  10.707   7.098  4.2926  2.9260 -0.9312
   22MOL0     H 2967   1.826  10.091   6.768 -1.4164  1.4424  1.9291
   22MOL0     H 2968   2.009   9.951   6.826  1.7530 -1.6918  1.2066
   22MOL0     H 2969   2.183  10.009   6.847  0.8056 -0.0919  1.3257
   22MOL0     H 2970   2.053  10.040   6.961 -1.6440 -0.6054  0.2374
   23MOL0     O 2971   8.052   8.523   8.062 -0.3288 -0.2078  0.2233
   23MOL0     C 2972   8.062   8.591   8.160 -1.3421  0.6267 -0.4636
   23MOL0     O 2973   8.181   8.632   8.218  0.1810  0.2446  0.1882
   23MOL0     C 2974   8.295   8.619   8.147 -0.7899  0.4257  0.7354
   23MOL0     C 2975   8.338   8.722   8.068 -0.5902  0.5403  0.3430
   23MOL0     C 2976   8.458   8.709   7.984  0.9320  0.7645 -0.3836
   23MOL0     C 2977   8.529   8.590   7.992 -0.3394 -0.4122  0.0124
   23MOL0     O 2978   8.622   8.575   7.896 -0.2699  0.3268  0.0498
   23MOL0     C 2979   8.734   8.489   7.917  0.4986 -0.1242  0.1023
   23MOL0     C 2980   8.806   8.464   7.780 -0.9752 -0.6542 -0.2645
   23MOL0     C 2981   8.893   8.584   7.746  0.4168 -0.8969  0.6076
   23MOL0     C 2982   8.987   8.559   7.630 -0.0343  0.6883 -0.0957
   23MOL0     C 2983   8.910   8.590   7.497  0.6260 -0.5527  0.1581
   23MOL0     C 2984   8.988   8.563   7.371  0.3926 -0.8798  0.0062
   23MOL0     C 2985   8.929   8.651   7.259  0.3993 -0.7129  0.2850
   23MOL0     C 2986   8.996   8.639   7.119  0.0420 -0.5388  0.1914
   23MOL0     N 2987   8.968   8.507   7.069 -0.0219  0.4984  0.2097
   23MOL0     C 2988   8.845   8.440   7.062 -0.0770  0.2771  0.0743
   23MOL0     C 2989   8.875   8.317   7.007  0.7779 -0.0977  0.1673
   23MOL0     C 2990   8.782   8.220   6.945 -0.2676 -0.3709 -0.1077
   23MOL0     C 2991   8.827   8.081   6.967 -0.5749 -0.0343  0.0345
   23MOL0     C 2992   8.790   7.986   6.854 -0.2390  0.0896 -0.2535
   23MOL0     C 2993   8.881   8.005   6.734  0.6519 -0.6734 -1.0044
   23MOL0     O 2994   8.840   7.918   6.622 -0.7689  0.0325 -0.2190
   23MOL0     C 2995   8.950   7.860   6.557  1.0837  0.3663 -1.0869
   23MOL0     C 2996   9.063   7.799   6.607 -0.4164  0.4247  0.4357
   23MOL0     C 2997   9.168   7.751   6.521 -0.0704  0.8165 -0.5174
   23MOL0     C 2998   9.142   7.743   6.386  0.5192  1.6745 -0.5292
   23MOL0     C 2999   9.244   7.678   6.292 -0.0814  0.3977  0.7130
   23MOL0     O 3000   9.205   7.686   6.158  0.1803  1.2057  0.4441
   23MOL0     C 3001   9.302   7.689   6.059 -0.0160  0.6163  0.2503
   23MOL0     C 3002   9.405   7.778   6.086  0.7195 -0.2349  0.1021
   23MOL0     C 3003   9.501   7.795   5.979 -0.4244  0.4113  0.7004
   23MOL0     C 3004   9.469   7.744   5.847 -0.2213  0.2048 -0.1498
   23MOL0     O 3005   9.559   7.779   5.751 -0.3818  0.1460  0.5640
   23MOL0     C 3006   9.604   7.667   5.657  0.4747  0.9927  0.3041
   23MOL0     C 3007   9.704   7.726   5.560  0.3108  0.0692  0.0112
   23MOL0     C 3008   9.823   7.805   5.621  0.8487  0.3972  0.0843
   23MOL0     C 3009   9.937   7.831   5.525 -0.4649  0.1003 -0.5270
   23MOL0     C 3010  10.063   7.881   5.590  0.0586 -0.2967  0.3054
   23MOL0     C 3011  10.193   7.886   5.499  0.7049  0.0965 -0.4996
   23MOL0     C 3012  10.322   7.840   5.566 -0.1414 -0.1129 -0.6362
   23MOL0     C 3013  10.436   7.854   5.471  0.1878 -0.6780  0.3579
   23MOL0    Cl 3014  10.590   7.808   5.557 -0.5371 -0.0273 -0.0034
   23MOL0     C 3015   9.359   7.672   5.819 -0.6899 -0.2771 -0.6944
   23MOL0     C 3016   9.277   7.643   5.929  0.4192  0.7134 -0.0862
   23MOL0     O 3017   9.344   7.615   6.335 -0.0944  0.3333 -0.1499
   23MOL0     C 3018   9.037   7.811   6.338 -0.3523 -0.2185  0.2904
   23MOL0     C 3019   8.944   7.869   6.417 -0.3282 -0.1451 -0.8623
   23MOL0     N 3020   9.011   8.312   6.987 -0.0038  0.4071  1.2906
   23MOL0     N 3021   9.064   8.427   7.015 -0.1019 -0.2246  1.2028
   23MOL0     C 3022   8.490   8.495   8.080  0.6601 -0.8162 -0.5042
   23MOL0     C 3023   8.379   8.510   8.163  0.1874  0.1641 -0.0226
   23MOL0     C 3024   7.935   8.618   8.239  0.2307  0.4343  0.5382
   23MOL0     C 3025   7.939   8.635   8.373  0.3736  0.2708  0.2916
   23MOL0     C 3026   7.823   8.657   8.446 -0.0994  0.2729  0.1945
   23MOL0     C 3027   7.708   8.693   8.388  0.5685  0.0159  0.2252
   23MOL0     O 3028   7.599   8.731   8.469 -0.3419 -0.2441  0.5713
   23MOL0     C 3029   7.490   8.798   8.415 -0.3374  0.6913 -0.5631
   23MOL0     C 3030   7.372   8.810   8.517  0.8241 -0.7526  0.4652
   23MOL0     C 3031   7.424   8.840   8.660 -0.2970  0.2156  0.1159
   23MOL0     C 3032   7.315   8.889   8.750 -0.2427 -0.0889 -0.1763
   23MOL0     C 3033   7.206   8.794   8.765 -0.8990 -0.1597  0.3435
   23MOL0     C 3034   7.132   8.699   8.789 -0.3735 -0.1048 -0.5389
   23MOL0     C 3035   7.696   8.673   8.251 -0.1220  0.4237 -0.7356
   23MOL0     C 3036   7.806   8.630   8.176  0.6459 -0.6398  0.2326
   23MOL0     C 3037   7.779   8.611   8.029  0.7038 -0.3197  0.1398
   23MOL0     H 3038   8.277   8.812   8.061 -0.0044  0.8344 -2.2088
   23MOL0     H 3039   8.475   8.789   7.913  0.0635 -1.5835 -3.4730
   23MOL0     H 3040   8.805   8.544   7.980 -0.4665  1.3334 -0.0382
   23MOL0     H 3041   8.692   8.394   7.952 -0.1948  0.6403  1.4410
   23MOL0     H 3042   8.735   8.460   7.696  0.4657 -0.0180 -1.5589
   23MOL0     H 3043   8.868   8.375   7.789  1.7849  1.0243 -1.5375
   23MOL0     H 3044   8.959   8.599   7.832  0.0424 -1.0555  0.9220
   23MOL0     H 3045   8.835   8.676   7.740  1.7247 -0.0031  1.1224
   23MOL0     H 3046   9.072   8.624   7.653  0.4402  0.8015 -2.0421
   23MOL0     H 3047   9.021   8.457   7.647  2.0276  1.6814  2.5202
   23MOL0     H 3048   8.823   8.524   7.494 -0.9095  1.3968 -1.5172
   23MOL0     H 3049   8.874   8.694   7.493 -1.6344 -1.3280 -2.2922
   23MOL0     H 3050   9.092   8.584   7.395 -0.0195  4.0903 -1.4355
   23MOL0     H 3051   8.975   8.461   7.332 -0.7749  0.3878 -3.2650
   23MOL0     H 3052   8.927   8.758   7.280 -2.1326 -0.6170 -0.1659
   23MOL0     H 3053   8.825   8.623   7.244  0.0702  0.3886  0.4429
   23MOL0     H 3054   8.969   8.725   7.057  2.3951  1.0193  1.1835
   23MOL0     H 3055   9.103   8.652   7.132  0.1940 -0.1260 -1.2982
   23MOL0     H 3056   8.745   8.477   7.082  0.1283  1.2250 -0.5829
   23MOL0     H 3057   8.687   8.237   6.996 -0.2686 -3.5398  1.1498
   23MOL0     H 3058   8.763   8.239   6.839 -2.2169 -1.2003  0.0438
   23MOL0     H 3059   8.932   8.059   6.987 -0.2587  1.6222  0.2999
   23MOL0     H 3060   8.772   8.052   7.057 -0.8817 -0.0664 -0.1620
   23MOL0     H 3061   8.691   8.007   6.812  0.2285 -0.4541 -1.6930
   23MOL0     H 3062   8.798   7.883   6.889  3.8125  0.2860 -0.0944
   23MOL0     H 3063   8.979   7.996   6.781 -0.6903  0.1855  2.2058
   23MOL0     H 3064   8.875   8.110   6.705  3.5012 -0.6087 -1.7158
   23MOL0     H 3065   9.079   7.774   6.711  0.5660 -1.7660 -0.1888
   23MOL0     H 3066   9.260   7.718   6.569  0.4697  0.9559 -1.4215
   23MOL0     H 3067   9.412   7.827   6.182  1.7921 -1.9776  0.9773
   23MOL0     H 3068   9.574   7.874   5.980  1.2500 -0.9977 -1.2320
   23MOL0     H 3069   9.656   7.590   5.716 -2.9216 -1.0719  0.8819
   23MOL0     H 3070   9.522   7.619   5.603 -0.9060 -0.3612  3.3462
   23MOL0     H 3071   9.745   7.633   5.519 -0.3050 -0.1221 -0.1828
   23MOL0     H 3072   9.662   7.793   5.485 -1.1495  0.5780  1.2544
   23MOL0     H 3073   9.797   7.902   5.665  1.0651  0.2662  0.5056
   23MOL0     H 3074   9.869   7.752   5.704 -3.3267 -0.9160  1.8392
   23MOL0     H 3075   9.902   7.905   5.452 -2.2280 -0.8713 -0.7112
   23MOL0     H 3076   9.965   7.740   5.471 -0.1284 -0.2405  0.1976
   23MOL0     H 3077  10.083   7.816   5.676  1.5769  1.1354  1.0912
   23MOL0     H 3078  10.064   7.982   5.633  2.4298 -0.3288  0.4940
   23MOL0     H 3079  10.168   7.827   5.410 -1.3749 -1.3421  0.9516
   23MOL0     H 3080  10.202   7.989   5.465  0.8908  0.1170 -0.3891
   23MOL0     H 3081  10.314   7.734   5.589 -0.7545  0.3175  1.2881
   23MOL0     H 3082  10.345   7.905   5.651  0.9829  1.4105 -2.0232
   23MOL0     H 3083  10.415   7.790   5.385  3.1322 -0.7853 -0.3627
   23MOL0     H 3084  10.443   7.960   5.444 -1.6322 -0.3890  0.8447
   23MOL0     H 3085   9.340   7.642   5.716  0.2564 -1.3403 -0.5733
   23MOL0     H 3086   9.196   7.576   5.905  1.8168 -0.1914 -2.7247
   23MOL0     H 3087   9.023   7.821   6.231 -1.5685 -2.8180  0.1211
   23MOL0     H 3088   8.860   7.924   6.378  1.8242  2.9723 -1.4691
   23MOL0     H 3089   8.541   8.400   8.087  1.6121 -0.2469  4.6897
   23MOL0     H 3090   8.336   8.435   8.229  0.6294  1.2671  1.5631
   23MOL0     H 3091   8.030   8.609   8.426 -0.3786 -1.7521  0.6428
   23MOL0     H 3092   7.821   8.667   8.554 -3.8171  0.0459  0.2507
   23MOL0     H 3093   7.448   8.748   8.327  1.0215 -1.7648  0.0758
   23MOL0     H 3094   7.531   8.894   8.383  1.0955  0.0609 -0.7078
   23MOL0     H 3095   7.308   8.722   8.518 -0.8719  0.3265 -1.9005
   23MOL0     H 3096   7.319   8.901   8.488  4.3713  1.9079  1.5617
   23MOL0     H 3097   7.508   8.910   8.657  0.0587  0.0273  2.8126
   23MOL0     H 3098   7.459   8.743   8.698  0.3728  1.2583  2.3303
   23MOL0     H 3099   7.352   8.903   8.852  0.8718  0.7305 -0.6683
   23MOL0     H 3100   7.276   8.983   8.709 -2.1317 -0.8298 -0.2006
   23MOL0     H 3101   7.070   8.615   8.813 -2.4726  1.6364  0.4766
   23MOL0     H 3102   7.597   8.687   8.208 -0.5256  0.2576  0.1221
   23MOL0     H 3103   7.842   8.660   7.955  0.2474  1.9325  1.1500
   23MOL0     H 3104   7.778   8.503   8.010  2.5825 -0.2401 -0.6376
   23MOL0     H 3105   7.675   8.635   8.002  1.1120  0.6914 -0.6064
   24MOL0     O 3106   7.696   7.384   9.061 -0.6888 -0.6296  0.5166
   24MOL0     C 3107   7.785   7.363   8.980  0.4603 -0.0862  1.1210
   24MOL0     O 3108   7.766   7.358   8.839  0.4072  0.7402  0.4896
   24MOL0     C 3109   7.656   7.428   8.787 -0.1130 -0.6543  0.6831
   24MOL0     C 3110   7.603   7.549   8.836 -0.4408  0.5551 -0.3456
   24MOL0     C 3111   7.497   7.608   8.774  0.7797  0.0771 -0.6354
   24MOL0     C 3112   7.441   7.548   8.655  0.6507  0.6887 -0.4670
   24MOL0     O 3113   7.328   7.590   8.591 -0.5679  0.2648  1.3215
   24MOL0     C 3114   7.233   7.694   8.629  0.0641  0.3346  0.5208
   24MOL0     C 3115   7.159   7.738   8.502 -0.0443 -0.1759 -0.0309
   24MOL0     C 3116   7.020   7.801   8.525  0.0222  0.8160 -0.0218
   24MOL0     C 3117   6.919   7.715   8.606 -0.0521  0.3152 -0.3055
   24MOL0     C 3118   6.783   7.787   8.603  0.1636  0.0656  0.0085
   24MOL0     C 3119   6.670   7.709   8.662 -0.0193 -0.3050 -0.3521
   24MOL0     C 3120   6.623   7.590   8.579  0.3799 -0.1314 -0.0429
   24MOL0     C 3121   6.578   7.606   8.435  0.4506 -0.4815 -0.7492
   24MOL0     N 3122   6.683   7.634   8.342  0.7507  0.5895 -0.1929
   24MOL0     C 3123   6.664   7.718   8.237 -0.3691  0.8988  0.2738
   24MOL0     C 3124   6.776   7.703   8.157  0.5713  0.8503 -0.9205
   24MOL0     C 3125   6.813   7.791   8.040 -0.6373 -1.0403 -0.0602
   24MOL0     C 3126   6.858   7.927   8.092 -0.8120  0.0706 -0.1808
   24MOL0     C 3127   7.011   7.937   8.094 -0.4911  0.5371  0.2018
   24MOL0     C 3128   7.065   8.056   8.182  1.1497 -0.1696 -0.3020
   24MOL0     O 3129   7.205   8.061   8.171  1.1537 -0.4975 -0.1305
   24MOL0     C 3130   7.283   8.029   8.273  0.6551  0.3869 -0.2536
   24MOL0     C 3131   7.374   7.925   8.244  0.5501 -1.0626 -0.3629
   24MOL0     C 3132   7.465   7.890   8.342  0.4823  0.6062 -0.0448
   24MOL0     C 3133   7.468   7.952   8.470 -0.2452  0.3951 -0.1369
   24MOL0     C 3134   7.575   7.922   8.572  0.4834 -0.3631 -0.1721
   24MOL0     O 3135   7.676   7.853   8.519 -0.3846  0.4903  0.1334
   24MOL0     C 3136   7.777   7.793   8.586  0.4976  0.4711 -0.7336
   24MOL0     C 3137   7.839   7.839   8.698  0.1510 -0.9016  0.2131
   24MOL0     C 3138   7.925   7.766   8.781  0.6291 -0.4421 -0.2279
   24MOL0     C 3139   7.960   7.634   8.743  0.4640  0.2868  0.4359
   24MOL0     O 3140   8.054   7.582   8.824 -0.0289  0.2181  0.9752
   24MOL0     C 3141   8.115   7.459   8.772 -0.2721  0.5156  0.2691
   24MOL0     C 3142   8.222   7.412   8.879  0.6138  0.3838 -0.1104
   24MOL0     C 3143   8.322   7.516   8.919 -0.4779 -0.4479 -0.1105
   24MOL0     C 3144   8.442   7.516   8.818  0.7735 -0.6849  0.7901
   24MOL0     C 3145   8.505   7.668   8.812 -0.0317  0.9780 -0.3531
   24MOL0     C 3146   8.401   7.773   8.758 -0.0448 -0.5164  0.3849
   24MOL0     C 3147   8.360   7.774   8.610 -0.0354 -0.0150  0.6117
   24MOL0     C 3148   8.236   7.853   8.587  0.6797 -0.5071 -1.1861
   24MOL0    Cl 3149   8.183   7.862   8.421  0.0944  0.2314  0.1312
   24MOL0     C 3150   7.905   7.589   8.627  0.0448  0.2716  0.3963
   24MOL0     C 3151   7.815   7.662   8.548  1.2037 -1.0608 -0.5877
   24MOL0     O 3152   7.565   7.954   8.693  0.2439  0.0849  0.4111
   24MOL0     C 3153   7.379   8.060   8.493  0.0126 -0.3299 -0.5802
   24MOL0     C 3154   7.277   8.083   8.398 -0.6999 -0.1497 -0.1831
   24MOL0     N 3155   6.851   7.609   8.224  0.3878 -0.1674  0.1859
   24MOL0     N 3156   6.799   7.560   8.324 -0.0903 -0.2933 -0.4103
   24MOL0     C 3157   7.503   7.436   8.599 -0.1296 -0.6232  0.0560
   24MOL0     C 3158   7.605   7.382   8.667  0.1414  0.9654 -0.3294
   24MOL0     C 3159   7.900   7.285   9.036  0.1564  0.8207  0.3897
   24MOL0     C 3160   7.943   7.179   8.957 -0.4045  1.1235  0.0637
   24MOL0     C 3161   8.060   7.115   8.997 -0.7307  0.3077 -0.0389
   24MOL0     C 3162   8.131   7.145   9.119  0.1973  0.8276  0.3008
   24MOL0     O 3163   8.239   7.069   9.154 -0.2785 -0.5206  1.0740
   24MOL0     C 3164   8.334   7.104   9.262  0.6218  0.4172 -0.0850
   24MOL0     C 3165   8.418   7.217   9.211  1.2254 -0.4305  0.4528
   24MOL0     C 3166   8.548   7.240   9.293  0.6066  0.1208  0.9630
   24MOL0     C 3167   8.613   7.368   9.238  0.5050  0.1829  0.2358
   24MOL0     C 3168   8.701   7.355   9.128  0.0137 -0.6346  0.1035
   24MOL0     C 3169   8.763   7.349   9.024 -0.4270  0.2054 -0.2650
   24MOL0     C 3170   8.079   7.254   9.197 -0.4784  0.0457 -0.4641
   24MOL0     C 3171   7.971   7.338   9.147  0.2103  0.4353 -0.0156
   24MOL0     C 3172   7.931   7.472   9.212  0.1052 -0.9653  1.0032
   24MOL0     H 3173   7.651   7.607   8.915  1.5593 -1.0225 -0.3222
   24MOL0     H 3174   7.458   7.700   8.816  1.4405 -0.5011  1.3860
   24MOL0     H 3175   7.169   7.641   8.700 -0.7472 -0.1283 -0.5343
   24MOL0     H 3176   7.289   7.776   8.675 -0.4696 -0.7851  3.3531
   24MOL0     H 3177   7.148   7.650   8.437 -2.5173 -0.3264  0.5195
   24MOL0     H 3178   7.222   7.812   8.450  1.1536 -0.7627  0.5458
   24MOL0     H 3179   6.976   7.809   8.425 -1.8177 -0.8187  0.5855
   24MOL0     H 3180   7.031   7.897   8.574 -0.3147 -0.8822  3.7327
   24MOL0     H 3181   6.907   7.624   8.547 -1.0718 -0.5306  1.1249
   24MOL0     H 3182   6.946   7.685   8.708  0.3398  1.1680 -0.1560
   24MOL0     H 3183   6.782   7.882   8.659  0.5522  0.3044 -0.3807
   24MOL0     H 3184   6.766   7.813   8.498 -2.2050  3.0721  0.9780
   24MOL0     H 3185   6.701   7.674   8.761 -0.6159 -0.0607 -0.0713
   24MOL0     H 3186   6.586   7.777   8.677  0.1035  0.0974 -1.4018
   24MOL0     H 3187   6.540   7.553   8.640  0.3893 -0.8478 -0.4455
   24MOL0     H 3188   6.703   7.516   8.564  1.9528  1.8286 -1.9344
   24MOL0     H 3189   6.545   7.507   8.400  1.8216 -1.7735  1.3698
   24MOL0     H 3190   6.498   7.680   8.438  2.3286  1.7959 -2.8867
   24MOL0     H 3191   6.580   7.787   8.227  0.4476  2.1230  1.4466
   24MOL0     H 3192   6.892   7.754   7.974 -1.6783  0.8483 -2.5494
   24MOL0     H 3193   6.722   7.798   7.979 -0.1866 -1.9512 -0.8559
   24MOL0     H 3194   6.824   8.009   8.028  1.1006  2.4332  1.6484
   24MOL0     H 3195   6.820   7.942   8.193  0.9658 -0.8288  0.6567
   24MOL0     H 3196   7.046   7.950   7.992  1.3734  1.4103  0.8992
   24MOL0     H 3197   7.052   7.841   8.127  1.3524  1.2489  0.0860
   24MOL0     H 3198   7.033   8.054   8.286  2.1358  1.8383  0.0862
   24MOL0     H 3199   7.037   8.153   8.139  2.0393  0.2555  0.0584
   24MOL0     H 3200   7.364   7.889   8.142 -1.7808  0.7193 -0.8426
   24MOL0     H 3201   7.519   7.803   8.307 -2.0794  0.9717 -6.1418
   24MOL0     H 3202   7.824   7.940   8.736 -0.0056 -0.2698 -1.4268
   24MOL0     H 3203   7.985   7.791   8.867  0.2244  0.8785 -0.2955
   24MOL0     H 3204   8.042   7.381   8.745  1.7067 -2.8481  3.6236
   24MOL0     H 3205   8.176   7.472   8.682 -1.3171 -1.8053 -0.8767
   24MOL0     H 3206   8.180   7.380   8.975  2.1494 -0.3143  0.3554
   24MOL0     H 3207   8.274   7.322   8.845  0.8810 -0.6579  2.7818
   24MOL0     H 3208   8.282   7.617   8.925  2.6485  0.9458 -0.4916
   24MOL0     H 3209   8.357   7.495   9.020  1.3484 -1.3779 -0.8813
   24MOL0     H 3210   8.420   7.488   8.715 -0.5479 -1.5843  1.2868
   24MOL0     H 3211   8.514   7.437   8.842 -0.0301 -1.8479 -0.4765
   24MOL0     H 3212   8.589   7.671   8.742 -1.4835  0.0830 -2.2654
   24MOL0     H 3213   8.542   7.696   8.911  1.1541 -0.8547 -0.2280
   24MOL0     H 3214   8.311   7.785   8.820 -1.4176 -0.3825 -1.5585
   24MOL0     H 3215   8.449   7.869   8.776 -0.1191 -0.0824 -1.5640
   24MOL0     H 3216   8.345   7.682   8.554 -0.9387 -0.2842  1.2673
   24MOL0     H 3217   8.435   7.833   8.555  0.0241 -2.8569 -2.7414
   24MOL0     H 3218   8.152   7.813   8.645  2.7196 -0.7278  1.8795
   24MOL0     H 3219   8.256   7.948   8.639 -1.4740  0.6278 -2.2605
   24MOL0     H 3220   7.931   7.492   8.584 -0.7674  0.9154 -1.6739
   24MOL0     H 3221   7.781   7.612   8.458 -0.4693 -1.8113  0.4234
   24MOL0     H 3222   7.395   8.105   8.591 -1.0445  2.0633 -1.4348
   24MOL0     H 3223   7.199   8.156   8.416  0.0148  0.4294  0.6542
   24MOL0     H 3224   7.464   7.390   8.508 -0.3013  0.3312 -0.3647
   24MOL0     H 3225   7.664   7.304   8.621  0.1470  2.0945 -2.3489
   24MOL0     H 3226   7.896   7.156   8.862  0.8243  1.6772 -0.7099
   24MOL0     H 3227   8.084   7.033   8.930  0.1135  0.3883  0.1459
   24MOL0     H 3228   8.399   7.017   9.278 -1.6304 -1.8255 -2.1969
   24MOL0     H 3229   8.278   7.118   9.356  2.1044 -2.2852  1.3292
   24MOL0     H 3230   8.354   7.306   9.215  1.3614 -0.3724  1.9426
   24MOL0     H 3231   8.447   7.199   9.107  1.1176 -0.3514  0.4096
   24MOL0     H 3232   8.614   7.156   9.268 -1.4615 -0.9676 -1.2685
   24MOL0     H 3233   8.539   7.247   9.402 -0.7201 -2.2970  1.0870
   24MOL0     H 3234   8.533   7.439   9.216 -1.0828 -1.3467  0.8197
   24MOL0     H 3235   8.677   7.399   9.321 -1.1137  2.9543  0.5859
   24MOL0     H 3236   8.831   7.335   8.943  0.0252 -1.1431  0.3316
   24MOL0     H 3237   8.124   7.268   9.295  0.3859  0.3998 -0.8997
   24MOL0     H 3238   7.826   7.483   9.242 -0.5677  1.0736 -1.7964
   24MOL0     H 3239   7.984   7.489   9.307  0.5355  2.7757  0.2538
   24MOL0     H 3240   7.947   7.551   9.138 -0.9176 -0.5345  1.2184
   25MOL0     O 3241   3.734   2.694   1.721 -0.1863 -0.2509  0.2472
   25MOL0     C 3242   3.644   2.768   1.684 -0.8406 -0.1934  0.0435
   25MOL0     O 3243   3.633   2.893   1.725  0.1583  0.6258  0.1675
   25MOL0     C 3244   3.746   2.967   1.766  0.0663 -0.0323  0.3505
   25MOL0     C 3245   3.718   3.064   1.857 -0.5147 -0.3764 -0.2384
   25MOL0     C 3246   3.815   3.138   1.920 -1.3319 -0.5496  0.2673
   25MOL0     C 3247   3.950   3.125   1.879  0.4266  0.7610  0.3340
   25MOL0     O 3248   4.056   3.199   1.922  0.1723  0.3428  0.8493
   25MOL0     C 3249   4.034   3.315   1.997 -1.1340 -0.0892  0.1112
   25MOL0     C 3250   4.121   3.420   1.938 -0.5333 -0.0535 -0.6394
   25MOL0     C 3251   4.274   3.390   1.955  0.8800 -0.3605  0.3783
   25MOL0     C 3252   4.376   3.497   1.909 -0.5138 -0.3435 -0.0417
   25MOL0     C 3253   4.519   3.432   1.901 -0.6122 -0.3324  0.3391
   25MOL0     C 3254   4.622   3.542   1.926  0.1967  0.0185  0.3709
   25MOL0     C 3255   4.753   3.510   1.859 -0.4621 -0.5295  0.0240
   25MOL0     C 3256   4.823   3.377   1.896 -0.1592  0.3544 -0.5448
   25MOL0     N 3257   4.852   3.293   1.778  0.0263  0.1065  0.1249
   25MOL0     C 3258   4.916   3.340   1.660 -0.8498 -0.0330  0.3942
   25MOL0     C 3259   4.909   3.226   1.588  0.6026 -0.8633  0.8913
   25MOL0     C 3260   4.956   3.212   1.441  0.8415  0.5098 -0.1460
   25MOL0     C 3261   5.102   3.256   1.421 -0.3292 -0.0275  0.2300
   25MOL0     C 3262   5.196   3.158   1.474  0.0292  0.4527 -0.6001
   25MOL0     C 3263   5.342   3.197   1.441 -0.1320 -0.1246  0.2281
   25MOL0     O 3264   5.364   3.247   1.307 -0.0184 -0.2044 -0.3680
   25MOL0     C 3265   5.502   3.251   1.284 -0.0657 -0.0389 -1.1290
   25MOL0     C 3266   5.548   3.215   1.157  0.6731 -0.6363  0.1721
   25MOL0     C 3267   5.687   3.212   1.133 -0.0998 -0.1780  0.3385
   25MOL0     C 3268   5.785   3.249   1.229 -0.2279  0.4622 -0.0656
   25MOL0     C 3269   5.934   3.230   1.220  0.6772  0.3889 -1.1338
   25MOL0     O 3270   5.985   3.180   1.107 -0.3816 -0.3342  0.0410
   25MOL0     C 3271   6.121   3.161   1.107  0.8014 -0.3425  0.2045
   25MOL0     C 3272   6.193   3.078   1.194 -1.1337  0.1560  0.0719
   25MOL0     C 3273   6.336   3.071   1.171 -0.8962 -0.0957 -0.3069
   25MOL0     C 3274   6.396   3.122   1.054 -0.1646 -0.2081  0.1428
   25MOL0     O 3275   6.526   3.119   1.013  0.2171  0.1574 -0.1049
   25MOL0     C 3276   6.600   3.007   1.057 -0.1280 -0.1746  0.0695
   25MOL0     C 3277   6.747   3.010   1.010 -0.0867 -0.4709  0.3377
   25MOL0     C 3278   6.821   2.880   1.030 -0.1812  0.6183 -0.2220
   25MOL0     C 3279   6.967   2.887   1.017 -0.9814  0.7899 -0.0873
   25MOL0     C 3280   7.036   2.750   1.035  0.0492 -0.2445 -1.0657
   25MOL0     C 3281   6.988   2.666   1.156 -0.3578  0.0319 -0.2347
   25MOL0     C 3282   7.010   2.730   1.298  0.5023 -0.7717  0.0312
   25MOL0     C 3283   6.953   2.634   1.404 -0.3743  0.5884  0.2064
   25MOL0    Cl 3284   7.077   2.503   1.422  0.2612 -0.0751  0.1233
   25MOL0     C 3285   6.311   3.193   0.964 -0.3875 -0.4297  0.1469
   25MOL0     C 3286   6.180   3.208   0.989 -0.1436  0.6994  0.1646
   25MOL0     O 3287   5.995   3.248   1.324  0.2283 -0.0112  0.3872
   25MOL0     C 3288   5.731   3.298   1.358 -0.0363  0.0863  0.7132
   25MOL0     C 3289   5.590   3.304   1.379 -0.2646  0.4306 -0.4239
   25MOL0     N 3290   4.862   3.114   1.658  0.3032  0.4477  0.3369
   25MOL0     N 3291   4.840   3.158   1.773 -0.2330  0.0733 -0.6247
   25MOL0     C 3292   3.985   3.030   1.785  0.4765  0.1483  0.2286
   25MOL0     C 3293   3.880   2.955   1.725 -1.3597  0.1263 -0.0041
   25MOL0     C 3294   3.548   2.719   1.584  0.6940  0.1739 -0.6446
   25MOL0     C 3295   3.436   2.804   1.557 -0.1658  0.1094  0.3540
   25MOL0     C 3296   3.322   2.761   1.492  0.5612 -0.0874 -0.0742
   25MOL0     C 3297   3.305   2.643   1.437 -1.0520  0.2196 -0.6181
   25MOL0     O 3298   3.195   2.606   1.363  0.3738  0.2834  0.6369
   25MOL0     C 3299   3.159   2.685   1.245 -0.2558  0.5619 -0.4362
   25MOL0     C 3300   3.266   2.643   1.132 -0.2696  0.6117 -0.0328
   25MOL0     C 3301   3.240   2.728   1.012  1.4611 -0.0574  1.1675
   25MOL0     C 3302   3.301   2.687   0.884 -1.1223 -0.7158  0.3059
   25MOL0     C 3303   3.236   2.557   0.850  0.4039  0.2178 -0.0926
   25MOL0     C 3304   3.189   2.451   0.814  0.6131 -0.0521  0.2843
   25MOL0     C 3305   3.422   2.559   1.455  0.0996 -0.7328  0.6387
   25MOL0     C 3306   3.545   2.587   1.528  0.7740 -1.2046  0.2927
   25MOL0     C 3307   3.656   2.489   1.535  0.5529  0.0153 -0.4059
   25MOL0     H 3308   3.617   3.088   1.889 -0.6298  1.1399 -1.6150
   25MOL0     H 3309   3.771   3.201   1.997 -1.5792  0.0380 -0.3469
   25MOL0     H 3310   3.933   3.349   2.024 -0.6285  0.2950  1.6054
   25MOL0     H 3311   4.077   3.288   2.094  3.0813 -0.7888 -1.7326
   25MOL0     H 3312   4.107   3.512   1.996  0.4816 -0.0152 -0.4266
   25MOL0     H 3313   4.099   3.435   1.832 -3.3364  0.5171 -0.0619
   25MOL0     H 3314   4.292   3.298   1.899 -2.5675  0.5122 -2.5266
   25MOL0     H 3315   4.301   3.370   2.059  1.7798 -2.3113 -0.1909
   25MOL0     H 3316   4.338   3.550   1.821 -2.3535 -0.1762  0.8047
   25MOL0     H 3317   4.389   3.571   1.988 -1.4144  1.1450 -1.2332
   25MOL0     H 3318   4.515   3.346   1.970 -4.1377 -0.2090  0.4434
   25MOL0     H 3319   4.526   3.392   1.800 -1.6715 -0.8387  0.4519
   25MOL0     H 3320   4.602   3.641   1.883 -0.8832 -0.4961 -0.3551
   25MOL0     H 3321   4.626   3.567   2.032 -0.6319 -1.1432  0.6931
   25MOL0     H 3322   4.823   3.592   1.876 -0.8255 -0.8375  3.9052
   25MOL0     H 3323   4.726   3.513   1.754  0.6412 -1.3545 -0.3053
   25MOL0     H 3324   4.916   3.405   1.946 -0.4742  0.4690 -0.0167
   25MOL0     H 3325   4.762   3.315   1.963 -1.0111 -0.2138 -1.8052
   25MOL0     H 3326   4.962   3.435   1.633  1.5261 -0.8124  1.4723
   25MOL0     H 3327   4.930   3.112   1.407 -2.8404  1.8638 -1.8249
   25MOL0     H 3328   4.888   3.276   1.384  0.3423  1.7951  1.8071
   25MOL0     H 3329   5.113   3.272   1.313  0.4746 -1.1388  0.1285
   25MOL0     H 3330   5.117   3.355   1.465 -1.7101  0.4225 -0.2407
   25MOL0     H 3331   5.179   3.058   1.432  3.5751  0.1292 -1.5683
   25MOL0     H 3332   5.195   3.137   1.581  1.6018  0.2054 -0.6127
   25MOL0     H 3333   5.399   3.103   1.445 -0.1996 -0.1981 -0.3651
   25MOL0     H 3334   5.371   3.275   1.512  2.8127 -2.4988  1.9106
   25MOL0     H 3335   5.483   3.188   1.074  2.8007  1.4468 -2.3681
   25MOL0     H 3336   5.723   3.196   1.032 -1.9283  1.3383 -0.6063
   25MOL0     H 3337   6.149   3.030   1.281  2.1481 -0.1986  1.6834
   25MOL0     H 3338   6.398   3.019   1.243  0.8312  0.3717 -1.3825
   25MOL0     H 3339   6.593   3.008   1.167 -2.4358 -0.3104 -0.0143
   25MOL0     H 3340   6.560   2.912   1.019 -0.0878 -0.3738  0.5180
   25MOL0     H 3341   6.754   3.036   0.904 -2.2334  1.7786  0.6668
   25MOL0     H 3342   6.801   3.091   1.060  1.3795 -0.0041 -1.8719
   25MOL0     H 3343   6.800   2.847   1.132  0.9578 -1.1405 -0.5168
   25MOL0     H 3344   6.782   2.823   0.946  0.8873  0.0973 -0.3823
   25MOL0     H 3345   6.992   2.949   1.104 -3.0597  0.9203  0.4923
   25MOL0     H 3346   6.996   2.943   0.927 -1.3494  1.1539  0.0154
   25MOL0     H 3347   7.145   2.764   1.039  0.1051 -0.6769  2.8615
   25MOL0     H 3348   7.021   2.689   0.946  0.5994  0.5470 -1.7192
   25MOL0     H 3349   6.883   2.636   1.146 -1.1945  2.1014  1.6164
   25MOL0     H 3350   7.039   2.569   1.145  0.0423 -0.3015  3.5179
   25MOL0     H 3351   6.969   2.831   1.313  2.3640  0.1093 -0.5055
   25MOL0     H 3352   7.116   2.747   1.318  0.5356 -1.6084  0.6165
   25MOL0     H 3353   6.944   2.693   1.495 -1.3076  1.4090 -0.3944
   25MOL0     H 3354   6.852   2.601   1.376 -0.3826 -0.7789  1.7182
   25MOL0     H 3355   6.362   3.238   0.880 -0.6245  2.8383  1.6291
   25MOL0     H 3356   6.128   3.271   0.917  2.9711 -0.0317 -3.0048
   25MOL0     H 3357   5.793   3.322   1.444 -0.6361  3.0739  0.4221
   25MOL0     H 3358   5.553   3.331   1.478 -0.0179 -3.2779  0.8351
   25MOL0     H 3359   4.086   3.017   1.750  1.0385  0.6176  1.6057
   25MOL0     H 3360   3.909   2.886   1.646 -2.4934  0.4944 -0.7626
   25MOL0     H 3361   3.426   2.906   1.592  0.7161  1.7354 -3.5830
   25MOL0     H 3362   3.240   2.826   1.466  0.3352 -0.7947 -1.1629
   25MOL0     H 3363   3.159   2.788   1.280 -0.2387 -0.0349  1.4585
   25MOL0     H 3364   3.059   2.655   1.215  0.4844 -1.7497 -0.8054
   25MOL0     H 3365   3.263   2.537   1.107  4.0272  0.3568 -0.1712
   25MOL0     H 3366   3.370   2.659   1.163  0.9212 -2.1386 -2.2004
   25MOL0     H 3367   3.277   2.831   1.019 -0.6482  1.0626 -1.7138
   25MOL0     H 3368   3.131   2.735   0.999  1.0089 -1.0199  3.9348
   25MOL0     H 3369   3.276   2.761   0.808  0.8323  0.0182  0.3406
   25MOL0     H 3370   3.408   2.672   0.896 -1.0839 -1.0374 -0.4345
   25MOL0     H 3371   3.142   2.360   0.782 -1.1040  0.5321  1.0028
   25MOL0     H 3372   3.419   2.459   1.414  0.4692 -1.3264  1.9906
   25MOL0     H 3373   3.675   2.450   1.636  1.4965  1.6085  0.0663
   25MOL0     H 3374   3.624   2.415   1.462  2.1576  0.1383 -1.2947
   25MOL0     H 3375   3.746   2.531   1.489  1.5642 -1.7757 -0.1624
   26MOL0     O 3376   8.647   6.833   9.365  0.2125  0.0377  0.1995
   26MOL0     C 3377   8.726   6.829   9.461  0.4632 -0.6968  0.6344
   26MOL0     O 3378   8.834   6.745   9.472  0.1003 -0.3090 -0.1473
   26MOL0     C 3379   8.854   6.655   9.368 -0.4840  1.0167  0.3017
   26MOL0     C 3380   8.785   6.536   9.366 -0.1404  0.4228 -0.0172
   26MOL0     C 3381   8.806   6.440   9.268  0.0489  0.5951 -0.3474
   26MOL0     C 3382   8.896   6.462   9.175  0.1896  0.2109 -0.3458
   26MOL0     O 3383   8.922   6.379   9.076  0.1578  0.0924 -0.0294
   26MOL0     C 3384   9.008   6.269   9.109 -0.5796  0.4906 -0.0512
   26MOL0     C 3385   9.120   6.271   8.997  0.7661  0.1111 -0.1799
   26MOL0     C 3386   9.223   6.157   9.025  0.2627 -0.4621  0.4750
   26MOL0     C 3387   9.343   6.231   9.090  0.2075  0.7242 -0.0363
   26MOL0     C 3388   9.440   6.129   9.148 -0.0709 -0.3148 -0.5935
   26MOL0     C 3389   9.569   6.176   9.214  0.5927 -0.1459  0.0593
   26MOL0     C 3390   9.533   6.281   9.325 -0.6737 -0.0922  0.3247
   26MOL0     C 3391   9.656   6.339   9.402  0.5620  0.4438 -0.1793
   26MOL0     N 3392   9.609   6.401   9.524  0.3097  0.4943  0.4355
   26MOL0     C 3393   9.636   6.346   9.649  0.3068 -0.4916  0.1631
   26MOL0     C 3394   9.619   6.448   9.732 -0.1050 -0.6110  0.3080
   26MOL0     C 3395   9.618   6.432   9.883 -0.5210  0.6462  1.1608
   26MOL0     C 3396   9.484   6.433   9.938  0.5969 -0.4903  0.3124
   26MOL0     C 3397   9.492   6.379  10.082  0.6317 -0.2096 -0.8515
   26MOL0     C 3398   9.360   6.353  10.150 -0.0889  0.5197  1.2959
   26MOL0     O 3399   9.388   6.322  10.286  0.0225  0.1338 -0.1700
   26MOL0     C 3400   9.281   6.262  10.353 -0.7975 -0.1835  1.0465
   26MOL0     C 3401   9.148   6.261  10.313 -0.7984  0.6296  0.4573
   26MOL0     C 3402   9.051   6.202  10.389 -0.3797  0.3186  0.1985
   26MOL0     C 3403   9.084   6.125  10.501  0.5811  0.5138 -0.1648
   26MOL0     C 3404   8.992   6.044  10.570  0.1844  0.4545  0.0583
   26MOL0     O 3405   9.042   5.944  10.637  0.3076  0.1955 -0.4767
   26MOL0     C 3406   8.960   5.846  10.695  0.0652 -0.5965  0.1102
   26MOL0     C 3407   8.896   5.746  10.614  0.0890  0.0520 -0.5775
   26MOL0     C 3408   8.808   5.663  10.681  1.2974  0.8536 -0.1000
   26MOL0     C 3409   8.784   5.655  10.817 -0.0323  0.9257  0.0161
   26MOL0     O 3410   8.681   5.588  10.882  0.2007 -0.2567  0.0024
   26MOL0     C 3411   8.692   5.453  10.845  0.3520 -0.3707 -0.7810
   26MOL0     C 3412   8.561   5.387  10.840 -0.0510 -0.0319  0.4123
   26MOL0     C 3413   8.481   5.433  10.712 -0.5511 -0.5726  0.3315
   26MOL0     C 3414   8.366   5.345  10.668  0.1746  0.2629 -1.2398
   26MOL0     C 3415   8.264   5.417  10.579  0.0429  0.3888  0.1632
   26MOL0     C 3416   8.154   5.317  10.534  0.7510 -0.0221 -0.8022
   26MOL0     C 3417   8.147   5.280  10.387 -0.0276 -0.6834 -0.5222
   26MOL0     C 3418   8.065   5.390  10.312  0.3192 -0.0175  0.0376
   26MOL0    Cl 3419   7.886   5.366  10.364  0.3659 -0.0356  0.2410
   26MOL0     C 3420   8.855   5.747  10.894  0.4954  0.1736  0.2234
   26MOL0     C 3421   8.943   5.840  10.832  1.0087  0.3344 -0.7174
   26MOL0     O 3422   8.873   6.067  10.555 -0.2146 -0.1679  1.0640
   26MOL0     C 3423   9.215   6.129  10.542 -0.0974  0.4937  1.1302
   26MOL0     C 3424   9.315   6.201  10.473 -0.2894  0.3767  0.2987
   26MOL0     N 3425   9.586   6.561   9.662 -0.1327  0.1060  0.4548
   26MOL0     N 3426   9.575   6.532   9.534 -0.3043  0.3317  0.0173
   26MOL0     C 3427   8.969   6.586   9.175  0.2656  0.1914 -0.2825
   26MOL0     C 3428   8.955   6.678   9.276  0.3549  0.1639 -0.6073
   26MOL0     C 3429   8.705   6.915   9.585  0.0613  0.3362  0.0509
   26MOL0     C 3430   8.591   6.896   9.665 -0.5863  0.1439 -0.8587
   26MOL0     C 3431   8.554   6.990   9.762  0.7143 -0.1694  0.4674
   26MOL0     C 3432   8.635   7.106   9.782  0.0832  1.2425 -0.7388
   26MOL0     O 3433   8.598   7.182   9.889  0.5159 -0.7361 -0.4778
   26MOL0     C 3434   8.699   7.251   9.970  0.6282  0.2797  1.0073
   26MOL0     C 3435   8.775   7.154  10.046 -0.2803 -0.3950  0.7785
   26MOL0     C 3436   8.914   7.201  10.083 -1.5696 -0.1961 -0.0993
   26MOL0     C 3437   8.979   7.083  10.152 -0.0886 -0.2560 -0.4003
   26MOL0     C 3438   9.128   7.112  10.151  0.5658  0.1259 -0.5070
   26MOL0     C 3439   9.241   7.126  10.141 -0.1283 -0.2179  0.1158
   26MOL0     C 3440   8.763   7.109   9.718 -0.2006  0.2798 -0.8852
   26MOL0     C 3441   8.787   7.030   9.607 -0.3579  0.4940  0.6685
   26MOL0     C 3442   8.915   7.067   9.533  0.3900 -0.0069 -0.3312
   26MOL0     H 3443   8.713   6.521   9.446 -1.4146  0.5968 -1.0947
   26MOL0     H 3444   8.752   6.346   9.273  1.3493 -0.4897 -3.8238
   26MOL0     H 3445   9.056   6.290   9.205  1.9318  1.6179 -1.4658
   26MOL0     H 3446   8.952   6.175   9.113 -2.3377  1.5070  2.9858
   26MOL0     H 3447   9.172   6.367   8.993 -0.4081  0.8398  1.1851
   26MOL0     H 3448   9.071   6.259   8.899 -0.0023  1.8648 -0.0355
   26MOL0     H 3449   9.264   6.106   8.937  2.8307  0.0617  1.2663
   26MOL0     H 3450   9.185   6.091   9.104  1.9884  0.0941  1.8589
   26MOL0     H 3451   9.397   6.284   9.011 -1.4822 -2.1655 -3.4179
   26MOL0     H 3452   9.307   6.299   9.167  3.5627 -0.2318  2.6370
   26MOL0     H 3453   9.379   6.086   9.228  1.8282  2.9463  2.9682
   26MOL0     H 3454   9.461   6.052   9.073 -0.7174 -1.2035  0.1257
   26MOL0     H 3455   9.615   6.094   9.270  2.6701 -1.0921 -2.8192
   26MOL0     H 3456   9.643   6.211   9.142 -0.7074  0.9551 -0.7973
   26MOL0     H 3457   9.459   6.246   9.398 -1.5028 -0.9651 -0.9002
   26MOL0     H 3458   9.486   6.364   9.273 -1.4073 -1.2898 -1.0132
   26MOL0     H 3459   9.724   6.255   9.418 -0.6632 -0.7309 -0.9124
   26MOL0     H 3460   9.706   6.413   9.339 -0.6478  0.8714 -0.6774
   26MOL0     H 3461   9.653   6.239   9.659 -2.7311 -1.7701 -4.8301
   26MOL0     H 3462   9.665   6.337   9.910 -0.9791  0.0305 -0.1250
   26MOL0     H 3463   9.680   6.511   9.925 -1.3540  0.3678  3.0027
   26MOL0     H 3464   9.443   6.534   9.936 -3.4393 -1.9520 -1.3068
   26MOL0     H 3465   9.418   6.367   9.880 -0.7625  2.4352 -1.7267
   26MOL0     H 3466   9.540   6.462  10.136  1.1994  0.5141 -2.4249
   26MOL0     H 3467   9.547   6.285  10.094 -2.3848 -1.9853  0.1924
   26MOL0     H 3468   9.313   6.274  10.090 -1.6772 -0.6983  3.9624
   26MOL0     H 3469   9.299   6.444  10.145  0.2537  0.6774 -1.4357
   26MOL0     H 3470   9.125   6.295  10.213  2.2545 -1.8794 -1.3139
   26MOL0     H 3471   8.948   6.201  10.354  0.1300  0.4711 -1.4259
   26MOL0     H 3472   8.910   5.739  10.506 -4.3655 -1.0926 -1.2857
   26MOL0     H 3473   8.753   5.595  10.616  1.7162  2.3939 -2.1721
   26MOL0     H 3474   8.746   5.422  10.754  2.1788 -0.0562  0.1573
   26MOL0     H 3475   8.757   5.408  10.920  0.9863  1.6920 -0.0291
   26MOL0     H 3476   8.590   5.282  10.834  0.3181  0.1495 -3.3013
   26MOL0     H 3477   8.499   5.402  10.929 -1.6488 -1.0508 -0.4857
   26MOL0     H 3478   8.429   5.519  10.756  1.8836  1.5705 -0.6725
   26MOL0     H 3479   8.550   5.473  10.636 -0.3673 -0.0928  0.7483
   26MOL0     H 3480   8.310   5.313  10.757 -0.7171  1.5473 -1.3205
   26MOL0     H 3481   8.401   5.254  10.619  0.8322 -0.0005 -0.3112
   26MOL0     H 3482   8.311   5.451  10.487  1.5569  3.1962  1.8238
   26MOL0     H 3483   8.219   5.504  10.629 -1.4054 -0.8594  1.1273
   26MOL0     H 3484   8.177   5.221  10.580 -0.1411 -0.1507 -0.6048
   26MOL0     H 3485   8.056   5.341  10.575  0.6085 -0.0791 -1.1036
   26MOL0     H 3486   8.090   5.187  10.376 -1.0802  0.1185 -2.3273
   26MOL0     H 3487   8.247   5.266  10.345  0.9079  0.2432  1.2784
   26MOL0     H 3488   8.109   5.486  10.341 -0.3203  0.9824 -2.0746
   26MOL0     H 3489   8.072   5.378  10.204 -0.4855  0.2518 -0.0532
   26MOL0     H 3490   8.831   5.741  10.999 -0.2629 -0.6931  0.0120
   26MOL0     H 3491   8.993   5.916  10.891  0.7626 -1.2333  1.6718
   26MOL0     H 3492   9.252   6.072  10.627 -1.2130 -1.8922  0.0858
   26MOL0     H 3493   9.417   6.204  10.509 -1.0015  1.5246  2.4141
   26MOL0     H 3494   9.036   6.610   9.094 -0.8294  0.8077 -1.0172
   26MOL0     H 3495   8.994   6.779   9.267 -2.3995  1.3326 -0.6096
   26MOL0     H 3496   8.530   6.810   9.636 -2.4226  1.3800 -0.8140
   26MOL0     H 3497   8.473   6.950   9.823 -0.3069  1.4529  0.2483
   26MOL0     H 3498   8.658   7.331  10.032 -0.5437  0.1860  0.3732
   26MOL0     H 3499   8.773   7.305   9.909 -0.5652  0.6357 -0.1780
   26MOL0     H 3500   8.778   7.065   9.982 -0.3879  0.9555 -1.2064
   26MOL0     H 3501   8.723   7.134  10.140 -0.7886 -0.0942  0.5659
   26MOL0     H 3502   8.912   7.290  10.146 -1.0260 -1.3000  1.5413
   26MOL0     H 3503   8.972   7.229   9.994 -1.0494  0.2214  0.3723
   26MOL0     H 3504   8.948   7.086  10.256 -0.4584  2.6201 -0.5104
   26MOL0     H 3505   8.950   6.990  10.101 -1.0154  0.3713 -1.0415
   26MOL0     H 3506   9.345   7.148  10.130 -0.5599  1.6493 -0.5133
   26MOL0     H 3507   8.841   7.183   9.739  1.7708 -1.5805 -1.2682
   26MOL0     H 3508   8.889   7.094   9.430 -3.3901 -3.4739 -0.5593
   26MOL0     H 3509   8.975   7.137   9.591 -0.5098 -0.7978  1.6643
   26MOL0     H 3510   8.972   6.975   9.521 -0.7031 -0.5933 -1.3022
   27MOL0     O 3511   5.075   8.150   4.970 -0.7758  0.0838 -0.0470
   27MOL0     C 3512   5.084   8.027   4.951  0.5525  0.2200  0.3552
   27MOL0     O 3513   4.990   7.946   4.889 -0.0413 -0.3283 -0.0040
   27MOL0     C 3514   4.886   8.004   4.829 -0.0119  0.5517 -0.5839
   27MOL0     C 3515   4.878   8.012   4.686 -1.4598 -0.1745  0.4133
   27MOL0     C 3516   4.766   8.072   4.636 -0.6863  1.2433 -0.4944
   27MOL0     C 3517   4.657   8.116   4.720 -0.8146 -0.5052  0.3331
   27MOL0     O 3518   4.550   8.190   4.666 -0.4576  0.4453  0.3060
   27MOL0     C 3519   4.511   8.157   4.538  0.7955  0.0963  0.5951
   27MOL0     C 3520   4.388   8.235   4.494  0.7296  0.3223 -0.2856
   27MOL0     C 3521   4.287   8.219   4.608  0.0167  0.6512  0.5806
   27MOL0     C 3522   4.156   8.299   4.579  0.1734 -0.1506 -0.1127
   27MOL0     C 3523   4.041   8.248   4.654  0.9426  0.1155  0.5103
   27MOL0     C 3524   4.046   8.290   4.808  0.9207 -0.6029 -0.0226
   27MOL0     C 3525   4.041   8.441   4.845 -0.4122  0.6731  0.0910
   27MOL0     C 3526   3.923   8.511   4.780 -0.2632  0.2965  0.3272
   27MOL0     N 3527   3.893   8.641   4.850 -0.6142  0.2406 -0.6217
   27MOL0     C 3528   3.813   8.656   4.959  0.0930  0.4986 -0.6444
   27MOL0     C 3529   3.823   8.787   4.993  1.1142 -0.0713 -0.6593
   27MOL0     C 3530   3.753   8.861   5.100 -0.5498 -0.2066  0.0883
   27MOL0     C 3531   3.827   8.829   5.235 -0.0159 -0.2951 -0.4477
   27MOL0     C 3532   3.804   8.686   5.296  1.1702  0.2373 -0.0581
   27MOL0     C 3533   3.824   8.692   5.455  0.1189  0.3023 -0.3143
   27MOL0     O 3534   3.960   8.718   5.490  0.3380  0.3413  0.1873
   27MOL0     C 3535   4.037   8.615   5.534 -0.7805 -0.6370  0.0920
   27MOL0     C 3536   4.011   8.521   5.625 -0.4103 -0.2381  0.1123
   27MOL0     C 3537   4.109   8.431   5.682 -0.3461  0.2193  0.1665
   27MOL0     C 3538   4.239   8.430   5.626 -0.9963  0.0702 -0.1785
   27MOL0     C 3539   4.328   8.321   5.665 -0.0862 -0.1149 -0.3835
   27MOL0     O 3540   4.455   8.327   5.613  0.4338  0.2142 -0.3058
   27MOL0     C 3541   4.542   8.224   5.649  0.3736  0.0831  0.8229
   27MOL0     C 3542   4.526   8.097   5.597 -0.0946 -0.0853 -0.2031
   27MOL0     C 3543   4.622   8.001   5.641  0.3795 -0.4471  0.7061
   27MOL0     C 3544   4.745   8.038   5.715 -0.4436  0.0049  0.2336
   27MOL0     O 3545   4.841   7.943   5.743 -0.5182  0.3880  0.4046
   27MOL0     C 3546   4.831   7.810   5.683 -0.6651  0.3795 -0.5951
   27MOL0     C 3547   4.923   7.704   5.750  0.0069  0.6488 -0.0549
   27MOL0     C 3548   5.064   7.752   5.780 -0.6148 -0.7775  0.2469
   27MOL0     C 3549   5.160   7.632   5.806 -1.0707  0.3232  0.0544
   27MOL0     C 3550   5.301   7.679   5.833 -0.7488 -0.8039  0.0682
   27MOL0     C 3551   5.396   7.566   5.861 -0.2928 -0.7358  0.8504
   27MOL0     C 3552   5.542   7.623   5.907  0.7204 -0.0144  0.1302
   27MOL0     C 3553   5.631   7.517   5.899 -0.1138  0.6821 -0.4413
   27MOL0    Cl 3554   5.790   7.556   5.962 -0.1559 -0.1460 -0.1898
   27MOL0     C 3555   4.756   8.167   5.758  0.1742 -0.3973 -0.3794
   27MOL0     C 3556   4.657   8.261   5.729  0.4023  0.0050 -0.4804
   27MOL0     O 3557   4.286   8.230   5.733  0.2838  0.1721  0.0160
   27MOL0     C 3558   4.273   8.533   5.536 -0.0273  0.6179  0.3517
   27MOL0     C 3559   4.174   8.626   5.494  0.5722 -0.0438  0.3194
   27MOL0     N 3560   3.912   8.841   4.909  0.0209 -0.4572 -0.0773
   27MOL0     N 3561   3.954   8.756   4.832 -0.0241  0.4910 -0.3963
   27MOL0     C 3562   4.677   8.107   4.857 -0.4352 -0.1210  0.2942
   27MOL0     C 3563   4.790   8.055   4.905  0.5412  0.5132 -0.2415
   27MOL0     C 3564   5.220   7.955   4.985  0.1215  0.2405 -0.0822
   27MOL0     C 3565   5.334   8.032   5.000 -0.2955  0.2130  0.5335
   27MOL0     C 3566   5.462   7.984   5.046 -0.2817 -0.1251 -0.0297
   27MOL0     C 3567   5.473   7.848   5.067  0.4871 -0.6813 -0.6354
   27MOL0     O 3568   5.592   7.813   5.121  0.2802 -0.5850  0.1284
   27MOL0     C 3569   5.631   7.673   5.146  0.3754 -0.3394 -0.0499
   27MOL0     C 3570   5.767   7.685   5.218 -0.0380 -0.0421  0.2676
   27MOL0     C 3571   5.829   7.541   5.223  1.6382  0.4054 -0.4761
   27MOL0     C 3572   5.961   7.524   5.309  0.9760 -0.2099  0.4653
   27MOL0     C 3573   5.936   7.592   5.440 -0.4045 -0.0258  0.5694
   27MOL0     C 3574   5.931   7.648   5.550  1.0816 -0.6785  0.0943
   27MOL0     C 3575   5.362   7.764   5.056 -0.5161  0.3286  0.3105
   27MOL0     C 3576   5.237   7.813   5.001 -0.3083  0.0189 -0.2645
   27MOL0     C 3577   5.130   7.710   4.981  0.1614 -0.0117  0.3386
   27MOL0     H 3578   4.958   7.968   4.626  0.0820 -0.0781  2.2894
   27MOL0     H 3579   4.756   8.081   4.528 -4.1605 -0.8902 -0.5131
   27MOL0     H 3580   4.587   8.186   4.466  0.4378  1.1896  0.6472
   27MOL0     H 3581   4.493   8.049   4.526  1.5553  0.1379 -1.1987
   27MOL0     H 3582   4.352   8.181   4.406  2.3841  0.8916 -1.3593
   27MOL0     H 3583   4.419   8.339   4.483  1.6623  0.5218  3.0806
   27MOL0     H 3584   4.321   8.248   4.708  2.4942  1.2985 -0.3677
   27MOL0     H 3585   4.257   8.114   4.614  2.7336 -0.1497  3.0348
   27MOL0     H 3586   4.182   8.399   4.616 -2.3003 -0.3350  2.4209
   27MOL0     H 3587   4.128   8.297   4.473  1.7175 -0.2868 -0.5370
   27MOL0     H 3588   3.950   8.293   4.612  1.2722 -0.0746 -0.4305
   27MOL0     H 3589   4.030   8.140   4.642  0.1614  0.0351  1.7692
   27MOL0     H 3590   3.970   8.238   4.867  0.6668 -1.2783 -0.9283
   27MOL0     H 3591   4.149   8.265   4.835  2.6517  1.7644 -3.6896
   27MOL0     H 3592   4.128   8.496   4.810 -0.9412  0.4897 -1.5874
   27MOL0     H 3593   4.038   8.444   4.955  2.7416 -2.4236  0.4319
   27MOL0     H 3594   3.962   8.529   4.679  3.2576  1.4443  1.7346
   27MOL0     H 3595   3.834   8.447   4.786 -0.7978  1.1141  1.1699
   27MOL0     H 3596   3.749   8.578   5.001 -0.4877  0.8144 -0.9366
   27MOL0     H 3597   3.750   8.968   5.078 -0.9381 -0.4923 -1.3117
   27MOL0     H 3598   3.644   8.853   5.102 -0.8234  1.5243 -2.9525
   27MOL0     H 3599   3.936   8.837   5.232 -0.0033 -0.2330  0.1336
   27MOL0     H 3600   3.794   8.905   5.306 -0.2704 -2.0181  1.3552
   27MOL0     H 3601   3.875   8.611   5.258 -0.1902 -0.6589 -0.9019
   27MOL0     H 3602   3.707   8.637   5.284  0.6831  1.6230 -2.5559
   27MOL0     H 3603   3.789   8.603   5.508  1.3094  0.1123  0.1809
   27MOL0     H 3604   3.768   8.780   5.487  2.5790  1.0420  2.3393
   27MOL0     H 3605   3.915   8.510   5.673 -0.8784 -3.4385 -1.2819
   27MOL0     H 3606   4.078   8.359   5.757 -0.6285 -0.7037 -0.8120
   27MOL0     H 3607   4.444   8.072   5.530 -0.5210 -0.0898  0.3164
   27MOL0     H 3608   4.609   7.904   5.594  2.3792 -0.7100  0.5973
   27MOL0     H 3609   4.735   7.770   5.717  0.1497 -1.0653  0.0962
   27MOL0     H 3610   4.843   7.816   5.574  2.3967 -3.1036 -0.6670
   27MOL0     H 3611   4.875   7.669   5.842 -2.0023 -1.4920 -1.7715
   27MOL0     H 3612   4.934   7.617   5.685  1.2112  0.0558  0.9004
   27MOL0     H 3613   5.101   7.819   5.702 -2.8245  1.4657  0.9717
   27MOL0     H 3614   5.066   7.826   5.861 -0.5244 -1.1859  0.6173
   27MOL0     H 3615   5.152   7.572   5.715  0.5004 -1.2335  0.8752
   27MOL0     H 3616   5.123   7.561   5.881 -2.1259 -0.0869 -0.8251
   27MOL0     H 3617   5.314   7.752   5.914 -1.3367 -0.3627 -0.2285
   27MOL0     H 3618   5.333   7.734   5.744 -1.5429 -0.5164 -0.0499
   27MOL0     H 3619   5.353   7.495   5.933  2.4560 -2.4513  0.9586
   27MOL0     H 3620   5.419   7.522   5.763  1.0104 -0.7292  1.1375
   27MOL0     H 3621   5.537   7.669   6.006 -1.2303  3.0531 -1.2323
   27MOL0     H 3622   5.571   7.700   5.834  0.5963  0.2954  0.4044
   27MOL0     H 3623   5.586   7.426   5.941 -3.0213  1.0066 -2.5507
   27MOL0     H 3624   5.632   7.490   5.793 -1.6522 -2.2028  0.1815
   27MOL0     H 3625   4.840   8.194   5.821 -1.4341  0.5956  1.4190
   27MOL0     H 3626   4.673   8.367   5.746  1.9318 -0.4319  1.0926
   27MOL0     H 3627   4.374   8.547   5.498 -0.6276 -2.6546 -3.1493
   27MOL0     H 3628   4.207   8.709   5.432  0.9454  0.9804  1.8465
   27MOL0     H 3629   4.614   8.142   4.938  0.6470  1.2257  0.5889
   27MOL0     H 3630   4.785   8.045   5.013 -0.0463 -0.2526 -0.3309
   27MOL0     H 3631   5.321   8.137   4.977 -1.3569 -0.8011 -4.9470
   27MOL0     H 3632   5.548   8.049   5.051  1.1377 -1.9432  0.4906
   27MOL0     H 3633   5.645   7.617   5.053 -2.4902 -0.5454 -0.4335
   27MOL0     H 3634   5.557   7.618   5.203  1.0476  2.5875  4.0965
   27MOL0     H 3635   5.750   7.725   5.318 -2.2736 -0.7521  0.2279
   27MOL0     H 3636   5.838   7.751   5.167 -1.4748  0.4258 -1.1920
   27MOL0     H 3637   5.844   7.497   5.124  2.1604  0.6874 -0.5247
   27MOL0     H 3638   5.750   7.482   5.272  0.4653  2.8960  0.8515
   27MOL0     H 3639   5.978   7.416   5.321  0.4025 -0.3920 -0.3191
   27MOL0     H 3640   6.035   7.579   5.250 -1.7707  0.5105 -2.5840
   27MOL0     H 3641   5.949   7.710   5.635  1.7956  1.0398 -1.2483
   27MOL0     H 3642   5.374   7.659   5.079  1.1454  0.9941  2.8033
   27MOL0     H 3643   5.032   7.718   5.028  0.2503 -0.0851  0.5372
   27MOL0     H 3644   5.124   7.696   4.873  0.6789  0.1218  0.2890
   27MOL0     H 3645   5.172   7.618   5.022  3.1164  1.2196  0.2985
   28MOL0     O 3646   6.050   8.831   9.441 -0.2572  0.6489  0.3606
   28MOL0     C 3647   6.035   8.753   9.533 -0.6061  0.5878 -0.3708
   28MOL0     O 3648   6.107   8.635   9.539 -0.1980 -0.2304 -0.2089
   28MOL0     C 3649   6.225   8.623   9.483  0.0437  0.7002 -0.2427
   28MOL0     C 3650   6.273   8.499   9.436  0.6437  0.0986  1.0165
   28MOL0     C 3651   6.404   8.484   9.386  0.1830 -0.1553 -0.1027
   28MOL0     C 3652   6.495   8.590   9.385  0.7075  0.3205  0.0661
   28MOL0     O 3653   6.622   8.576   9.327  0.1968 -0.2921  0.0218
   28MOL0     C 3654   6.718   8.679   9.340  0.3752 -0.8706 -0.3486
   28MOL0     C 3655   6.850   8.641   9.263  1.3775  0.6124  0.7022
   28MOL0     C 3656   6.967   8.740   9.277 -0.3449  0.4991  0.3284
   28MOL0     C 3657   7.086   8.679   9.210 -0.4703  0.5046 -0.2413
   28MOL0     C 3658   7.211   8.776   9.219 -0.3015 -0.7082 -0.3275
   28MOL0     C 3659   7.342   8.710   9.158 -0.8416 -0.1993  0.5172
   28MOL0     C 3660   7.453   8.805   9.139 -0.1970  0.3899  0.5474
   28MOL0     C 3661   7.590   8.731   9.140 -0.8267  0.4103 -0.6032
   28MOL0     N 3662   7.648   8.754   9.003  0.1521  0.0037 -0.7770
   28MOL0     C 3663   7.733   8.858   8.980 -0.2442 -0.2714 -0.5813
   28MOL0     C 3664   7.778   8.833   8.857 -0.1897 -0.2317  0.3053
   28MOL0     C 3665   7.849   8.934   8.765 -0.4074 -0.8696  0.2944
   28MOL0     C 3666   7.996   8.921   8.772 -0.2089  0.8261  0.9411
   28MOL0     C 3667   8.054   9.046   8.844  0.4899 -0.5330  0.5633
   28MOL0     C 3668   8.067   9.180   8.773 -0.0314 -0.4402  0.3709
   28MOL0     O 3669   8.148   9.178   8.660 -0.5989  0.5135  0.5543
   28MOL0     C 3670   8.275   9.240   8.663 -0.0482 -0.2641 -0.1293
   28MOL0     C 3671   8.296   9.348   8.578  0.1955  1.1521 -0.0751
   28MOL0     C 3672   8.415   9.423   8.580  0.1580  0.5570  0.1507
   28MOL0     C 3673   8.518   9.394   8.663 -0.0439  0.0591  0.6714
   28MOL0     C 3674   8.646   9.476   8.668  0.2311 -0.6478 -0.0215
   28MOL0     O 3675   8.637   9.599   8.598  0.2495  0.7980 -0.1193
   28MOL0     C 3676   8.743   9.684   8.592  0.6602  0.7693  0.6714
   28MOL0     C 3677   8.775   9.742   8.467 -0.3347 -0.0016 -0.4487
   28MOL0     C 3678   8.882   9.835   8.470 -0.1490  0.1488  0.1196
   28MOL0     C 3679   8.960   9.862   8.584 -0.7269  0.2698  0.1512
   28MOL0     O 3680   9.069   9.948   8.600 -0.0588  1.0110  0.1739
   28MOL0     C 3681   9.156   9.960   8.492  0.9153 -0.1686  0.1518
   28MOL0     C 3682   9.289  10.022   8.537  0.1209 -0.4039  0.0623
   28MOL0     C 3683   9.278  10.171   8.562  0.4005  0.8073  0.0652
   28MOL0     C 3684   9.412  10.232   8.609  0.2359 -0.3971  0.4927
   28MOL0     C 3685   9.402  10.375   8.648 -0.5161 -0.8880  0.6749
   28MOL0     C 3686   9.305  10.408   8.762 -0.1971  0.6525 -0.0830
   28MOL0     C 3687   9.330  10.557   8.803  0.4693 -0.8897 -0.3502
   28MOL0     C 3688   9.218  10.610   8.899  0.7004 -0.4894  0.2312
   28MOL0    Cl 3689   9.057  10.620   8.818 -0.0753  0.0090  0.6753
   28MOL0     C 3690   8.905   9.816   8.702 -0.5758 -0.0566  0.1889
   28MOL0     C 3691   8.808   9.721   8.707  0.0410 -0.2348  0.4237
   28MOL0     O 3692   8.743   9.435   8.729 -0.2070 -0.0581 -0.8099
   28MOL0     C 3693   8.506   9.276   8.743 -2.1883 -0.3274  0.7496
   28MOL0     C 3694   8.383   9.193   8.740 -0.5048 -0.9938 -0.8359
   28MOL0     N 3695   7.727   8.706   8.819 -0.7342 -0.5242 -0.1127
   28MOL0     N 3696   7.663   8.650   8.914  1.0175  0.0876 -0.2787
   28MOL0     C 3697   6.449   8.708   9.449  0.7457 -0.1659 -0.2672
   28MOL0     C 3698   6.320   8.720   9.495  0.2293  0.1176 -0.2624
   28MOL0     C 3699   5.926   8.784   9.627 -0.4227  0.1792  0.2843
   28MOL0     C 3700   5.836   8.686   9.651 -0.7214 -0.0206  0.0685
   28MOL0     C 3701   5.725   8.696   9.732 -0.2524  0.2713 -0.0429
   28MOL0     C 3702   5.705   8.824   9.797 -0.4317 -0.3118 -0.1680
   28MOL0     O 3703   5.608   8.828   9.892  0.0315  0.0657 -0.4721
   28MOL0     C 3704   5.520   8.951   9.885  0.0607  0.8850  0.4136
   28MOL0     C 3705   5.415   8.947   9.995  0.1913  0.6088  0.4407
   28MOL0     C 3706   5.374   9.084  10.039 -0.0226  0.3457  0.3401
   28MOL0     C 3707   5.289   9.086  10.159 -0.3886  0.7487 -0.2795
   28MOL0     C 3708   5.251   9.225  10.196  0.3414 -1.6982  0.2701
   28MOL0     C 3709   5.215   9.333  10.214  0.5806  0.3105  0.4901
   28MOL0     C 3710   5.786   8.926   9.763  0.7085  0.0125  0.3814
   28MOL0     C 3711   5.902   8.909   9.682 -0.5558 -0.2798 -0.0362
   28MOL0     C 3712   5.999   9.033   9.656  0.5234  0.7069 -0.0386
   28MOL0     H 3713   6.219   8.407   9.416  1.8849  0.2461 -4.6100
   28MOL0     H 3714   6.451   8.398   9.340  0.9554  1.3520 -2.3573
   28MOL0     H 3715   6.675   8.772   9.302 -1.9937 -1.4598  0.7175
   28MOL0     H 3716   6.739   8.673   9.448 -3.1659 -0.8156  0.4500
   28MOL0     H 3717   6.820   8.633   9.158 -2.6493 -1.1780  1.8224
   28MOL0     H 3718   6.888   8.541   9.287  1.0420  0.4772  0.6720
   28MOL0     H 3719   6.986   8.756   9.383 -0.5368  3.0730  0.0296
   28MOL0     H 3720   6.942   8.838   9.235  0.6822  0.9824  0.8210
   28MOL0     H 3721   7.116   8.590   9.267  2.1905  1.8293  0.5816
   28MOL0     H 3722   7.058   8.644   9.110  0.3728 -2.8849  0.5647
   28MOL0     H 3723   7.191   8.870   9.167 -0.0568 -1.1951 -1.3133
   28MOL0     H 3724   7.224   8.820   9.319 -0.3900 -0.1705 -0.5460
   28MOL0     H 3725   7.359   8.626   9.226 -1.5030 -0.6681  0.1192
   28MOL0     H 3726   7.326   8.658   9.063  0.4303  1.3347 -0.5678
   28MOL0     H 3727   7.453   8.879   9.219 -0.9309 -0.5695  1.4651
   28MOL0     H 3728   7.451   8.865   9.047  0.0856  1.4712  1.2309
   28MOL0     H 3729   7.654   8.772   9.218 -2.0562 -1.0174  1.2476
   28MOL0     H 3730   7.582   8.626   9.168  0.2451  0.3422 -0.5286
   28MOL0     H 3731   7.761   8.939   9.047 -1.9484 -0.4043  0.3418
   28MOL0     H 3732   7.817   8.911   8.663  0.2948 -0.3288 -0.0571
   28MOL0     H 3733   7.813   9.036   8.783  1.9328  0.0724  0.0558
   28MOL0     H 3734   8.026   8.832   8.827 -1.6814 -0.9309 -0.9362
   28MOL0     H 3735   8.036   8.918   8.670  1.3769  1.5575  1.5036
   28MOL0     H 3736   8.160   9.025   8.859  1.1663  0.3862 -2.3877
   28MOL0     H 3737   8.000   9.066   8.938  2.3338  1.7830  1.2335
   28MOL0     H 3738   8.090   9.248   8.855  2.9613 -2.4091  1.3270
   28MOL0     H 3739   7.978   9.205   8.713  1.7408  2.2082 -1.3945
   28MOL0     H 3740   8.205   9.379   8.528 -1.3784 -0.4606  1.6190
   28MOL0     H 3741   8.420   9.508   8.513 -0.8424  0.4604 -0.0624
   28MOL0     H 3742   8.703   9.714   8.391 -2.4540 -3.6946  2.5459
   28MOL0     H 3743   8.914   9.885   8.379 -0.6557 -1.2953 -0.8819
   28MOL0     H 3744   9.175   9.856   8.463  1.7176  0.2330 -0.8461
   28MOL0     H 3745   9.103  10.014   8.413 -1.1085 -0.7801  1.0482
   28MOL0     H 3746   9.326   9.978   8.630 -0.8048  1.8519  1.6232
   28MOL0     H 3747   9.365   9.999   8.463  0.0706  0.1200 -0.1556
   28MOL0     H 3748   9.252  10.217   8.466  0.8280 -0.4955 -0.7088
   28MOL0     H 3749   9.196  10.192   8.631 -1.4124 -0.9976 -1.4073
   28MOL0     H 3750   9.491  10.220   8.534  0.2779 -0.6129  0.5707
   28MOL0     H 3751   9.445  10.174   8.695  0.7841  1.2177  1.4043
   28MOL0     H 3752   9.365  10.434   8.564  0.3313  0.9391  1.5057
   28MOL0     H 3753   9.498  10.419   8.677 -2.0219  1.5730  2.4590
   28MOL0     H 3754   9.204  10.396   8.722  0.4139 -3.2117 -0.8113
   28MOL0     H 3755   9.319  10.335   8.842  1.2918  2.1311  1.0715
   28MOL0     H 3756   9.335  10.622   8.715  1.6190  3.1952  2.4491
   28MOL0     H 3757   9.425  10.576   8.854  0.1183  0.1884 -0.0604
   28MOL0     H 3758   9.228  10.553   8.992 -0.7296 -2.2127 -0.6142
   28MOL0     H 3759   9.242  10.714   8.921  1.9806 -1.0471  1.7014
   28MOL0     H 3760   8.949   9.857   8.792  0.0921 -0.1483 -0.0815
   28MOL0     H 3761   8.766   9.696   8.804 -0.5945  0.4644  0.3471
   28MOL0     H 3762   8.594   9.246   8.800 -2.1610  0.5589  1.1947
   28MOL0     H 3763   8.393   9.098   8.791  1.5592  0.4070  1.6264
   28MOL0     H 3764   6.521   8.787   9.466 -0.0704  0.5360 -0.0201
   28MOL0     H 3765   6.297   8.810   9.552  0.2427 -1.0801  1.7230
   28MOL0     H 3766   5.841   8.598   9.587 -1.7670  1.5629 -2.2948
   28MOL0     H 3767   5.662   8.610   9.753  0.6442 -0.3038  0.3470
   28MOL0     H 3768   5.479   8.959   9.784  3.8232  1.6272 -1.2365
   28MOL0     H 3769   5.576   9.043   9.906 -3.4629  3.8321 -1.8052
   28MOL0     H 3770   5.447   8.889  10.081  1.4693  1.2085  0.3930
   28MOL0     H 3771   5.327   8.893   9.958  1.8833 -1.6192 -0.5737
   28MOL0     H 3772   5.312   9.116   9.955  0.6073  0.9382  0.0906
   28MOL0     H 3773   5.460   9.148  10.059 -0.2395 -0.0615  2.9639
   28MOL0     H 3774   5.205   9.015  10.151 -0.0968  0.5793 -2.2585
   28MOL0     H 3775   5.353   9.043  10.237 -3.0438 -2.1412  0.5042
   28MOL0     H 3776   5.156   9.421  10.229  0.0245  0.3797 -1.7204
   28MOL0     H 3777   5.772   9.021   9.813  1.6283  1.0416 -1.1966
   28MOL0     H 3778   6.008   9.067   9.552 -1.1718  1.1190 -0.0796
   28MOL0     H 3779   5.963   9.112   9.722  1.1431 -0.0819  1.2831
   28MOL0     H 3780   6.103   9.008   9.678  0.5448 -0.8740 -1.6746
   29MOL0     O 3781   0.381   3.784   7.877 -0.0252 -0.4276 -0.2381
   29MOL0     C 3782   0.443   3.729   7.965  0.2982 -0.1294 -0.0271
   29MOL0     O 3783   0.382   3.648   8.060  0.1576 -0.4953  0.2575
   29MOL0     C 3784   0.248   3.627   8.052  0.0665 -0.4064  0.7025
   29MOL0     C 3785   0.161   3.735   8.092 -0.1453 -0.7078 -0.2228
   29MOL0     C 3786   0.021   3.701   8.093 -1.5488 -0.0437 -0.0706
   29MOL0     C 3787  -0.033   3.578   8.046  0.5872  0.2161 -0.3143
   29MOL0     O 3788  -0.162   3.566   8.065 -0.0871  0.6652  0.3534
   29MOL0     C 3789  -0.232   3.443   8.018  0.0392 -0.2039 -0.8244
   29MOL0     C 3790  -0.297   3.468   7.881 -0.1780  0.5849 -0.0846
   29MOL0     C 3791  -0.368   3.344   7.814 -0.5104  0.2857  0.0571
   29MOL0     C 3792  -0.386   3.360   7.651 -0.1498  0.8227 -1.0342
   29MOL0     C 3793  -0.476   3.249   7.608 -0.5350 -0.2802  0.6099
   29MOL0     C 3794  -0.516   3.258   7.465  0.5665 -0.0770 -0.0153
   29MOL0     C 3795  -0.615   3.149   7.408  0.0109  0.6970 -0.1602
   29MOL0     C 3796  -0.658   3.185   7.266  0.4636 -0.1189 -0.4387
   29MOL0     N 3797  -0.542   3.198   7.179  0.6532 -0.0752 -0.0463
   29MOL0     C 3798  -0.503   3.310   7.115 -0.4127 -0.9218 -0.8894
   29MOL0     C 3799  -0.372   3.278   7.071  0.4688  0.2401 -0.1364
   29MOL0     C 3800  -0.296   3.329   6.954 -0.1996  0.1608  0.4412
   29MOL0     C 3801  -0.147   3.291   6.939  0.2033  0.1424 -0.1991
   29MOL0     C 3802  -0.088   3.363   6.814  0.3205 -0.3902  0.1175
   29MOL0     C 3803   0.037   3.306   6.756  0.2440  0.3329 -0.3616
   29MOL0     O 3804   0.155   3.307   6.843  0.0555 -0.6679  1.2638
   29MOL0     C 3805   0.273   3.258   6.797  0.1134 -0.4185 -0.2066
   29MOL0     C 3806   0.389   3.294   6.871 -0.5096 -1.7108 -0.0875
   29MOL0     C 3807   0.516   3.249   6.848  0.1155 -0.9472 -0.5569
   29MOL0     C 3808   0.536   3.163   6.737 -1.1635 -0.5499 -0.5057
   29MOL0     C 3809   0.682   3.127   6.706 -0.2291 -0.6195  0.7272
   29MOL0     O 3810   0.780   3.219   6.735 -0.3080  0.4539 -0.6107
   29MOL0     C 3811   0.905   3.184   6.696 -0.6672  0.9660  0.3821
   29MOL0     C 3812   0.950   3.169   6.564 -0.6705 -0.0128 -0.0726
   29MOL0     C 3813   1.083   3.188   6.530  0.0940 -0.2643 -0.3657
   29MOL0     C 3814   1.175   3.198   6.640  0.0115 -0.2959  0.3759
   29MOL0     O 3815   1.307   3.200   6.610 -0.2469 -0.3564 -0.7207
   29MOL0     C 3816   1.391   3.129   6.700  0.4189 -0.0978 -0.1635
   29MOL0     C 3817   1.362   2.980   6.712 -0.3047 -0.2260  0.3744
   29MOL0     C 3818   1.455   2.898   6.809  0.4548 -0.6199  0.3223
   29MOL0     C 3819   1.423   2.745   6.832  0.4876 -0.6219  0.3345
   29MOL0     C 3820   1.515   2.689   6.937  0.3837  0.1814  0.6711
   29MOL0     C 3821   1.558   2.546   6.922  0.8328  0.6003  0.6875
   29MOL0     C 3822   1.452   2.439   6.932 -0.0329 -0.3407 -1.0567
   29MOL0     C 3823   1.392   2.380   6.803  0.1084 -0.0206  0.0370
   29MOL0    Cl 3824   1.540   2.338   6.695 -0.2723  0.2265  0.0811
   29MOL0     C 3825   1.128   3.207   6.769  0.4998  0.4107 -0.3488
   29MOL0     C 3826   0.992   3.213   6.795 -0.0712  1.5824  0.2798
   29MOL0     O 3827   0.700   3.011   6.660 -0.4004  0.3437 -0.4698
   29MOL0     C 3828   0.427   3.116   6.664 -0.6233  0.2757 -0.2475
   29MOL0     C 3829   0.291   3.167   6.691 -0.4526  1.2654 -0.2528
   29MOL0     N 3830  -0.348   3.146   7.117 -0.1531  0.2169 -0.8750
   29MOL0     N 3831  -0.442   3.112   7.192  0.6586 -0.1854  0.7397
   29MOL0     C 3832   0.063   3.481   8.011 -0.2838  0.4199 -0.8469
   29MOL0     C 3833   0.194   3.510   8.011 -0.7141 -0.0703  0.0897
   29MOL0     C 3834   0.582   3.757   7.994 -0.3931 -0.8296 -0.2350
   29MOL0     C 3835   0.658   3.651   8.046 -0.2121  0.8146 -0.3974
   29MOL0     C 3836   0.790   3.679   8.085  0.4697 -1.2434 -0.0664
   29MOL0     C 3837   0.851   3.802   8.060 -0.5276 -0.5986 -0.7586
   29MOL0     O 3838   0.972   3.815   8.120  0.0454  0.1193  1.3078
   29MOL0     C 3839   1.039   3.943   8.151  0.2686  0.2571 -0.4195
   29MOL0     C 3840   1.107   3.926   8.275 -1.0300  0.6340  0.1804
   29MOL0     C 3841   1.180   4.060   8.303  0.5997 -0.3059  0.8769
   29MOL0     C 3842   1.321   4.056   8.339  0.4120 -1.0615 -1.1463
   29MOL0     C 3843   1.408   3.996   8.244  0.4600  0.1609  0.8761
   29MOL0     C 3844   1.452   3.944   8.143 -0.1928 -1.1262 -1.1972
   29MOL0     C 3845   0.775   3.916   8.006 -0.1621  0.6544  0.0783
   29MOL0     C 3846   0.635   3.892   7.976 -0.5653 -0.6396 -0.6863
   29MOL0     C 3847   0.554   4.008   7.932 -0.6561 -0.0687  0.5934
   29MOL0     H 3848   0.203   3.828   8.129 -0.4974  0.7387 -3.1815
   29MOL0     H 3849  -0.046   3.775   8.137 -1.7089  0.8493 -1.7307
   29MOL0     H 3850  -0.165   3.357   8.006  0.8288  0.3663 -0.5876
   29MOL0     H 3851  -0.319   3.426   8.083 -2.2921  1.8678 -3.1517
   29MOL0     H 3852  -0.225   3.510   7.810 -0.9759 -0.6353 -1.6889
   29MOL0     H 3853  -0.368   3.550   7.897 -1.2101 -0.0906 -1.0767
   29MOL0     H 3854  -0.466   3.320   7.857  0.6580 -4.2376  0.7752
   29MOL0     H 3855  -0.302   3.256   7.815  0.8881  1.2639  2.1728
   29MOL0     H 3856  -0.440   3.455   7.641 -1.6316 -0.0129 -1.2200
   29MOL0     H 3857  -0.298   3.357   7.586  0.2910  1.0066 -0.4452
   29MOL0     H 3858  -0.417   3.156   7.614  1.7374  0.9231 -1.4627
   29MOL0     H 3859  -0.561   3.244   7.676 -3.0889 -0.2739 -2.3866
   29MOL0     H 3860  -0.571   3.351   7.445  1.1134 -0.3513 -3.5786
   29MOL0     H 3861  -0.432   3.274   7.396 -0.1925 -2.0934 -1.4925
   29MOL0     H 3862  -0.713   3.141   7.456 -0.0771 -3.3483 -0.6301
   29MOL0     H 3863  -0.579   3.045   7.416 -1.3962  0.0985 -1.3334
   29MOL0     H 3864  -0.731   3.113   7.226 -0.1090  0.3422 -0.2302
   29MOL0     H 3865  -0.707   3.282   7.279  0.5398 -0.3689  2.2401
   29MOL0     H 3866  -0.570   3.391   7.091  0.4860 -0.2794 -1.2652
   29MOL0     H 3867  -0.351   3.306   6.862  1.3082 -1.8853  0.0017
   29MOL0     H 3868  -0.280   3.437   6.966  2.2182 -0.3131  2.0377
   29MOL0     H 3869  -0.084   3.304   7.027  2.4620 -1.3003 -1.5147
   29MOL0     H 3870  -0.153   3.181   6.936  0.8864 -0.0685  3.1133
   29MOL0     H 3871  -0.069   3.465   6.849 -1.5724  0.5183 -1.3496
   29MOL0     H 3872  -0.163   3.369   6.735  2.1367  0.6122 -1.6293
   29MOL0     H 3873   0.046   3.357   6.659 -2.0124  1.4744 -0.0486
   29MOL0     H 3874   0.008   3.203   6.733 -0.3163 -0.2005  2.3864
   29MOL0     H 3875   0.375   3.354   6.960 -0.4831  0.0627 -1.2402
   29MOL0     H 3876   0.606   3.279   6.902  0.0094 -0.9269 -0.3900
   29MOL0     H 3877   0.885   3.121   6.492 -0.0565 -4.2340  1.8451
   29MOL0     H 3878   1.122   3.184   6.429 -0.2068  0.6860 -0.5320
   29MOL0     H 3879   1.486   3.135   6.645  0.9356 -3.7038  0.0686
   29MOL0     H 3880   1.417   3.189   6.788  0.8716  0.7002 -0.8252
   29MOL0     H 3881   1.259   2.972   6.747  0.3066  1.6340  2.8695
   29MOL0     H 3882   1.366   2.935   6.612  0.6014  0.3026  0.1595
   29MOL0     H 3883   1.556   2.899   6.768  0.3699  0.0395  0.1194
   29MOL0     H 3884   1.462   2.950   6.906  2.1597  3.2917 -1.6792
   29MOL0     H 3885   1.445   2.698   6.735 -0.5660  2.8132 -1.7646
   29MOL0     H 3886   1.316   2.737   6.855 -0.6548  0.4023 -3.7158
   29MOL0     H 3887   1.464   2.700   7.033 -0.6307  0.3492  0.1248
   29MOL0     H 3888   1.606   2.748   6.949  1.3696 -1.6680  2.8535
   29MOL0     H 3889   1.618   2.532   6.831 -3.2931  1.3771 -2.4594
   29MOL0     H 3890   1.625   2.534   7.008  0.4453  1.8429  1.1785
   29MOL0     H 3891   1.371   2.472   6.997 -0.7287 -0.1580 -1.9868
   29MOL0     H 3892   1.503   2.359   6.987 -0.5624  0.1768  0.2194
   29MOL0     H 3893   1.323   2.297   6.821  1.0508 -0.8215  0.0277
   29MOL0     H 3894   1.334   2.466   6.769  0.7093  0.7652  0.9326
   29MOL0     H 3895   1.197   3.217   6.852  0.6389 -2.3000 -0.0421
   29MOL0     H 3896   0.960   3.232   6.897  0.2160 -2.4910  1.2913
   29MOL0     H 3897   0.445   3.069   6.568  1.8125  2.3298 -0.9131
   29MOL0     H 3898   0.205   3.129   6.636 -0.9482 -1.9940  2.4243
   29MOL0     H 3899   0.026   3.385   7.978  0.3233 -0.1812  0.1517
   29MOL0     H 3900   0.269   3.448   7.963  2.2565  3.8588 -0.8382
   29MOL0     H 3901   0.615   3.552   8.060 -1.4491  1.3084 -0.5786
   29MOL0     H 3902   0.856   3.604   8.128  1.7573  0.5893  1.3356
   29MOL0     H 3903   0.959   4.014   8.173 -2.2688 -2.3988 -0.4229
   29MOL0     H 3904   1.108   3.978   8.074 -0.5600  2.3292 -0.2820
   29MOL0     H 3905   1.186   3.853   8.256 -1.0860 -0.1723  2.6730
   29MOL0     H 3906   1.050   3.895   8.363  0.9868  1.9985  2.0866
   29MOL0     H 3907   1.122   4.100   8.387 -0.3808 -1.6754  0.8817
   29MOL0     H 3908   1.179   4.138   8.226 -0.2290  0.0870  1.2708
   29MOL0     H 3909   1.350   4.158   8.367 -0.3334 -0.3715 -2.7439
   29MOL0     H 3910   1.321   3.992   8.428  2.1985  1.9872  1.2835
   29MOL0     H 3911   1.473   3.882   8.058 -1.7583 -0.3016 -2.2253
   29MOL0     H 3912   0.822   4.013   7.997  1.3782 -0.1825 -1.3796
   29MOL0     H 3913   0.468   4.035   7.995 -0.0823  1.4911  0.7564
   29MOL0     H 3914   0.615   4.099   7.932 -0.2256 -0.2836  2.7175
   29MOL0     H 3915   0.520   4.002   7.829 -0.0665  0.6959  0.3467
   30MOL0     O 3916   1.039   6.573   3.224  0.0947 -0.2187 -0.0869
   30MOL0     C 3917   1.080   6.462   3.254 -0.2743  0.0117  1.3711
   30MOL0     O 3918   1.051   6.386   3.366 -0.4963 -0.6024 -0.4617
   30MOL0     C 3919   0.959   6.429   3.452  0.9818 -0.2118 -0.0892
   30MOL0     C 3920   0.833   6.376   3.454 -0.1743 -0.0220  0.5127
   30MOL0     C 3921   0.740   6.432   3.544  0.2354  0.9889 -0.0084
   30MOL0     C 3922   0.775   6.527   3.636  0.3665  0.3893  0.1140
   30MOL0     O 3923   0.683   6.573   3.728 -0.1541 -0.6515 -0.7335
   30MOL0     C 3924   0.551   6.599   3.676 -0.1796  0.7233 -0.2097
   30MOL0     C 3925   0.481   6.709   3.758 -0.1991  0.3739  0.2891
   30MOL0     C 3926   0.330   6.733   3.714 -0.2080 -0.7440  0.3185
   30MOL0     C 3927   0.257   6.596   3.687 -0.4393 -0.0198 -0.5795
   30MOL0     C 3928   0.103   6.616   3.694  0.5069 -0.0396  0.1752
   30MOL0     C 3929   0.009   6.491   3.683 -0.2940  0.1450  0.1234
   30MOL0     C 3930  -0.125   6.517   3.734  0.3326 -0.1250  0.2084
   30MOL0     C 3931  -0.233   6.427   3.668  0.1183 -0.1683 -0.0458
   30MOL0     N 3932  -0.370   6.466   3.696 -0.1459 -0.4626 -0.4073
   30MOL0     C 3933  -0.411   6.599   3.696 -0.0577 -0.3422  0.2912
   30MOL0     C 3934  -0.545   6.598   3.744 -0.0909 -0.8437 -0.3682
   30MOL0     C 3935  -0.616   6.723   3.776 -0.1396  1.1556  0.3516
   30MOL0     C 3936  -0.521   6.810   3.859  0.5679  0.6090 -0.6826
   30MOL0     C 3937  -0.590   6.939   3.923  0.1479  0.4237  0.5305
   30MOL0     C 3938  -0.542   7.062   3.847  0.4814 -0.8161  0.2317
   30MOL0     O 3939  -0.635   7.171   3.878 -0.0710 -0.4402 -0.6449
   30MOL0     C 3940  -0.713   7.234   3.787 -0.5251  0.5188  0.2868
   30MOL0     C 3941  -0.681   7.254   3.651  0.5538 -0.0408 -0.0802
   30MOL0     C 3942  -0.781   7.326   3.563  0.2201  0.5004 -0.4951
   30MOL0     C 3943  -0.896   7.378   3.625 -0.1178 -0.3545 -0.6711
   30MOL0     C 3944  -0.987   7.458   3.543 -0.4294 -0.5188  0.4392
   30MOL0     O 3945  -1.081   7.540   3.615  0.0210 -0.0906  0.2881
   30MOL0     C 3946  -1.175   7.620   3.554  0.4985 -0.0738  0.6468
   30MOL0     C 3947  -1.223   7.717   3.625 -0.2173 -0.8672  0.0600
   30MOL0     C 3948  -1.336   7.791   3.577  0.1734 -0.4833 -0.2285
   30MOL0     C 3949  -1.399   7.760   3.450  0.2299 -0.1212 -0.1406
   30MOL0     O 3950  -1.502   7.839   3.404 -0.5693  0.3574 -0.2549
   30MOL0     C 3951  -1.616   7.784   3.330 -0.1329 -1.1782  0.1336
   30MOL0     C 3952  -1.740   7.869   3.352  0.3616 -0.5830  0.5429
   30MOL0     C 3953  -1.802   7.848   3.490 -0.5584  0.6081 -0.6169
   30MOL0     C 3954  -1.931   7.942   3.506  0.0876  0.2172 -0.1463
   30MOL0     C 3955  -1.930   8.013   3.642  0.1549  0.4636  0.0970
   30MOL0     C 3956  -2.060   8.058   3.698  1.0075 -0.4508 -0.3689
   30MOL0     C 3957  -2.109   8.183   3.620  0.1621  0.2569  0.5448
   30MOL0     C 3958  -2.258   8.200   3.632 -0.1029 -0.9214 -0.1877
   30MOL0    Cl 3959  -2.334   8.075   3.541 -0.3659  0.4754 -0.3552
   30MOL0     C 3960  -1.356   7.644   3.375 -0.1059 -0.3757 -0.3573
   30MOL0     C 3961  -1.241   7.577   3.433  0.2603  0.0588  0.5770
   30MOL0     O 3962  -0.977   7.441   3.420  0.3713 -0.4321  0.3238
   30MOL0     C 3963  -0.918   7.358   3.766 -0.6863  0.2983  0.3366
   30MOL0     C 3964  -0.820   7.289   3.846  0.3856  0.0591  0.6101
   30MOL0     N 3965  -0.572   6.466   3.776 -0.7118 -0.4425 -0.2993
   30MOL0     N 3966  -0.469   6.389   3.750  0.4742 -0.0451 -0.3002
   30MOL0     C 3967   0.902   6.589   3.628 -0.7118  0.4612  0.2146
   30MOL0     C 3968   0.993   6.529   3.542 -0.0014 -1.1396  0.1908
   30MOL0     C 3969   1.195   6.426   3.175  0.5664  0.4177 -0.4287
   30MOL0     C 3970   1.299   6.522   3.159 -0.5654 -0.7332 -0.0640
   30MOL0     C 3971   1.421   6.502   3.087 -0.7030  0.7720 -0.2364
   30MOL0     C 3972   1.449   6.375   3.051  0.3170  0.1348  0.1919
   30MOL0     O 3973   1.557   6.345   2.977 -0.7731 -0.0194 -0.0612
   30MOL0     C 3974   1.627   6.442   2.904  0.7926  0.3892  0.0236
   30MOL0     C 3975   1.744   6.385   2.834  0.8209  0.5068 -0.5343
   30MOL0     C 3976   1.816   6.496   2.757  0.7526  0.3573  0.3136
   30MOL0     C 3977   1.758   6.529   2.620  0.7086  0.8968  0.7110
   30MOL0     C 3978   1.764   6.418   2.523  0.4153  0.2535 -0.0499
   30MOL0     C 3979   1.761   6.343   2.433  0.3167 -1.4035  0.3229
   30MOL0     C 3980   1.361   6.275   3.078 -0.2577  0.0439 -1.0601
   30MOL0     C 3981   1.235   6.297   3.132  0.4725  0.0297  0.2310
   30MOL0     C 3982   1.141   6.185   3.141  0.1371 -0.2147 -0.4694
   30MOL0     H 3983   0.808   6.287   3.398 -4.2411  0.1853  1.7195
   30MOL0     H 3984   0.640   6.389   3.542  0.3428  0.7519 -1.9219
   30MOL0     H 3985   0.556   6.624   3.570 -0.5824  0.8673 -0.1934
   30MOL0     H 3986   0.493   6.506   3.677  0.8304  0.0668 -1.1366
   30MOL0     H 3987   0.549   6.794   3.751 -0.6802  0.7880  0.5589
   30MOL0     H 3988   0.476   6.682   3.864  2.4003 -1.9462 -0.0794
   30MOL0     H 3989   0.328   6.790   3.620  2.8849 -2.0053 -0.6269
   30MOL0     H 3990   0.277   6.793   3.789 -1.9602  2.0228 -2.8315
   30MOL0     H 3991   0.294   6.551   3.594 -1.5488  2.2038 -2.1891
   30MOL0     H 3992   0.292   6.529   3.765 -0.0910  0.9738  0.1406
   30MOL0     H 3993   0.068   6.663   3.786 -0.5959 -1.7944  0.7159
   30MOL0     H 3994   0.075   6.692   3.620 -0.8245 -1.2733 -0.6549
   30MOL0     H 3995  -0.001   6.464   3.577  0.8368  0.3355 -0.0445
   30MOL0     H 3996   0.052   6.412   3.745 -0.5015 -1.2970 -1.4736
   30MOL0     H 3997  -0.147   6.616   3.693 -4.8857 -0.9694  0.2629
   30MOL0     H 3998  -0.138   6.509   3.842 -0.0947 -1.4660  0.0735
   30MOL0     H 3999  -0.223   6.419   3.560 -0.5210 -0.3958 -0.0912
   30MOL0     H 4000  -0.208   6.325   3.699  0.1115 -0.4613 -0.9953
   30MOL0     H 4001  -0.364   6.687   3.655 -0.2565 -0.0771  0.6252
   30MOL0     H 4002  -0.660   6.775   3.690  4.2593  2.1971 -1.5492
   30MOL0     H 4003  -0.699   6.694   3.840  0.7185  1.5334  1.6615
   30MOL0     H 4004  -0.484   6.756   3.946  3.1599  0.9854 -1.4827
   30MOL0     H 4005  -0.434   6.834   3.798 -0.0976 -0.1602 -1.9920
   30MOL0     H 4006  -0.565   6.934   4.029  3.9367 -1.1464 -0.2698
   30MOL0     H 4007  -0.696   6.940   3.896  1.2128  1.1325 -4.8881
   30MOL0     H 4008  -0.550   7.037   3.741  0.3775  1.1327 -0.2643
   30MOL0     H 4009  -0.443   7.101   3.874 -0.7268  1.2759  2.0368
   30MOL0     H 4010  -0.593   7.208   3.607  0.0753 -0.3685 -0.7235
   30MOL0     H 4011  -0.747   7.335   3.461  0.6333  0.1593 -0.3910
   30MOL0     H 4012  -1.167   7.736   3.716 -1.1689  0.7658  0.3483
   30MOL0     H 4013  -1.379   7.865   3.644 -0.8792  0.0758 -1.4703
   30MOL0     H 4014  -1.577   7.777   3.228  2.9903 -4.6715  1.3534
   30MOL0     H 4015  -1.638   7.682   3.362  0.8821 -0.9887  1.5520
   30MOL0     H 4016  -1.727   7.977   3.337  2.5169 -0.7378  0.8611
   30MOL0     H 4017  -1.820   7.845   3.283 -1.0107 -0.2231  1.9582
   30MOL0     H 4018  -1.824   7.742   3.505 -0.8746  1.1821  4.4379
   30MOL0     H 4019  -1.726   7.874   3.564 -0.0871  0.3192 -0.9901
   30MOL0     H 4020  -2.017   7.875   3.492  0.2481  0.2743 -1.5640
   30MOL0     H 4021  -1.932   8.018   3.427 -1.0197  0.2605 -0.1057
   30MOL0     H 4022  -1.863   8.099   3.651 -2.1454  2.3336  0.2975
   30MOL0     H 4023  -1.898   7.931   3.706 -1.3812 -1.4165 -1.3915
   30MOL0     H 4024  -2.134   7.977   3.689 -0.5204  0.3718  3.1647
   30MOL0     H 4025  -2.053   8.085   3.803 -3.8831  1.0975 -0.1669
   30MOL0     H 4026  -2.077   8.180   3.515  1.5476  4.3121  0.7061
   30MOL0     H 4027  -2.057   8.268   3.664  0.6048  1.7181 -2.5344
   30MOL0     H 4028  -2.289   8.195   3.737  0.5461 -1.6739 -0.0250
   30MOL0     H 4029  -2.276   8.295   3.581  1.1251 -2.2426 -3.3185
   30MOL0     H 4030  -1.407   7.602   3.289 -1.4941 -0.5342  0.5071
   30MOL0     H 4031  -1.210   7.490   3.376  0.4675  0.5595 -0.0938
   30MOL0     H 4032  -1.011   7.393   3.812 -1.1965 -1.3672  0.6398
   30MOL0     H 4033  -0.831   7.291   3.954  1.6698  0.0484  0.7529
   30MOL0     H 4034   0.928   6.679   3.682 -3.4364  1.1679  0.5394
   30MOL0     H 4035   1.094   6.569   3.531 -0.3360  0.3949  2.1778
   30MOL0     H 4036   1.294   6.624   3.195  0.3804 -0.1121 -1.6281
   30MOL0     H 4037   1.488   6.586   3.073  1.0893 -0.8843 -2.3256
   30MOL0     H 4038   1.659   6.525   2.966  4.4678 -1.5667  1.0422
   30MOL0     H 4039   1.563   6.486   2.826  3.1869  0.5909 -1.9342
   30MOL0     H 4040   1.703   6.301   2.777 -0.8729 -0.9520  2.5725
   30MOL0     H 4041   1.800   6.347   2.920  1.4132  0.7777 -0.8000
   30MOL0     H 4042   1.920   6.467   2.744  0.4483 -0.0420 -1.5325
   30MOL0     H 4043   1.801   6.590   2.812 -0.8514  0.8436 -0.8657
   30MOL0     H 4044   1.650   6.544   2.632 -0.2350 -0.1710 -4.1660
   30MOL0     H 4045   1.801   6.623   2.586 -2.9311  3.2907  2.1263
   30MOL0     H 4046   1.747   6.295   2.339  0.8727  0.5279 -0.7867
   30MOL0     H 4047   1.378   6.172   3.048 -0.3738 -0.6924  1.1682
   30MOL0     H 4048   1.076   6.187   3.230  0.0060  0.9576 -0.5716
   30MOL0     H 4049   1.083   6.198   3.049  3.0835 -1.7084 -2.7144
   30MOL0     H 4050   1.186   6.089   3.115  0.3316  0.1902 -1.7120
   31MOL0     O 4051   5.207   3.070   3.019  0.3610 -0.2889  0.6245
   31MOL0     C 4052   5.245   3.173   2.970 -0.1584 -0.3792  0.7388
   31MOL0     O 4053   5.160   3.263   2.928 -0.2738 -0.4290  0.3925
   31MOL0     C 4054   5.021   3.249   2.955  0.0418  0.3436  0.5456
   31MOL0     C 4055   4.950   3.349   3.028  0.8005 -1.3900 -0.3925
   31MOL0     C 4056   4.815   3.330   3.052 -0.4792 -0.3304  0.4018
   31MOL0     C 4057   4.740   3.229   2.993 -0.3884  0.6447  0.3329
   31MOL0     O 4058   4.613   3.212   3.032  0.1636  0.0269 -0.5987
   31MOL0     C 4059   4.519   3.155   2.930  0.6670  1.2713  1.2003
   31MOL0     C 4060   4.379   3.121   2.988  0.3574 -0.4914  0.5407
   31MOL0     C 4061   4.382   2.973   3.042 -0.4708  0.8708 -0.1374
   31MOL0     C 4062   4.466   2.969   3.178  0.7297  0.0430  0.7118
   31MOL0     C 4063   4.448   2.856   3.272 -0.1417  0.2218 -0.4888
   31MOL0     C 4064   4.351   2.885   3.394 -0.3914  0.1944 -0.6391
   31MOL0     C 4065   4.202   2.908   3.376 -0.4832 -0.1080 -1.0158
   31MOL0     C 4066   4.123   2.908   3.513 -0.5545 -0.1828 -0.3241
   31MOL0     N 4067   3.983   2.893   3.480  0.7593 -0.9662 -0.0149
   31MOL0     C 4068   3.902   2.988   3.421  0.7964 -1.0538  0.4222
   31MOL0     C 4069   3.777   2.935   3.429  0.4346  0.5267 -0.3979
   31MOL0     C 4070   3.643   2.999   3.390 -0.7875 -0.1481  1.2561
   31MOL0     C 4071   3.593   2.942   3.259  0.4669 -0.5636 -0.5654
   31MOL0     C 4072   3.470   3.027   3.207  0.1770  0.3197  0.5607
   31MOL0     C 4073   3.348   3.015   3.290  0.6511  0.5750 -0.3738
   31MOL0     O 4074   3.346   3.107   3.400  0.0258 -0.1456  0.3835
   31MOL0     C 4075   3.233   3.097   3.481  0.1042  0.2697 -0.4890
   31MOL0     C 4076   3.235   3.157   3.605  0.3227 -0.1571  0.3862
   31MOL0     C 4077   3.121   3.178   3.683  0.2730  0.9689  0.0088
   31MOL0     C 4078   2.997   3.122   3.653  0.3715 -0.3108  0.1644
   31MOL0     C 4079   2.888   3.150   3.742  1.0494  0.0623  0.9620
   31MOL0     O 4080   2.916   3.188   3.871  0.7308  0.3661 -0.0300
   31MOL0     C 4081   2.818   3.205   3.968 -0.2060  0.0516  0.8883
   31MOL0     C 4082   2.689   3.268   3.952 -0.2338 -0.3046 -0.4058
   31MOL0     C 4083   2.601   3.265   4.063 -0.1119  0.5436 -0.1217
   31MOL0     C 4084   2.633   3.200   4.181 -0.6582  0.3308  0.5804
   31MOL0     O 4085   2.537   3.197   4.274 -0.0139 -0.8295  1.3145
   31MOL0     C 4086   2.495   3.071   4.321 -0.1633  0.1667  0.0416
   31MOL0     C 4087   2.429   3.099   4.456  0.4963  0.4676 -0.3954
   31MOL0     C 4088   2.531   3.098   4.579 -0.6054  0.2501 -0.1529
   31MOL0     C 4089   2.446   3.138   4.706 -1.4023 -0.2054  0.0644
   31MOL0     C 4090   2.544   3.154   4.828 -0.0591  0.0486 -0.0115
   31MOL0     C 4091   2.585   3.016   4.890 -0.2388 -0.1293  0.1537
   31MOL0     C 4092   2.473   2.948   4.973 -0.0288  0.4155  0.1151
   31MOL0     C 4093   2.530   2.816   5.011  0.0487 -0.1140 -0.1204
   31MOL0    Cl 4094   2.649   2.851   5.150 -0.3206  0.2266 -0.2670
   31MOL0     C 4095   2.764   3.159   4.201 -0.4617  0.0777  0.6314
   31MOL0     C 4096   2.856   3.156   4.094  0.1694  0.5310 -0.9372
   31MOL0     O 4097   2.774   3.140   3.693 -0.2913  0.2469  0.1846
   31MOL0     C 4098   2.996   3.051   3.526  0.5780 -0.5377 -1.1404
   31MOL0     C 4099   3.112   3.034   3.453  0.2019  0.5850  0.0875
   31MOL0     N 4100   3.783   2.799   3.468  0.0091 -0.2125 -0.4396
   31MOL0     N 4101   3.909   2.782   3.500 -0.1434  0.6537  0.8215
   31MOL0     C 4102   4.807   3.135   2.909 -0.5515 -0.1979 -0.5388
   31MOL0     C 4103   4.944   3.144   2.900 -0.3796  0.6384 -0.0375
   31MOL0     C 4104   5.385   3.209   2.983  0.1867  0.5116  0.3746
   31MOL0     C 4105   5.402   3.346   2.973  0.0579  0.5426  0.2864
   31MOL0     C 4106   5.536   3.385   2.990  0.0051  0.0492 -0.2307
   31MOL0     C 4107   5.640   3.301   3.013 -0.1253 -0.9139  1.0846
   31MOL0     O 4108   5.761   3.353   3.041  0.0211 -0.1721  0.5407
   31MOL0     C 4109   5.798   3.360   3.177 -0.1587  0.6781  0.7693
   31MOL0     C 4110   5.947   3.377   3.196 -0.4697  0.7648  0.2078
   31MOL0     C 4111   6.030   3.244   3.184  0.4936 -0.0746 -0.3243
   31MOL0     C 4112   6.181   3.269   3.232  0.1160 -0.4936 -0.0137
   31MOL0     C 4113   6.278   3.169   3.170  0.2038 -0.6481 -0.0016
   31MOL0     C 4114   6.353   3.098   3.108 -1.0699 -0.2471 -0.5658
   31MOL0     C 4115   5.614   3.166   3.020  0.2954 -0.2325 -0.3081
   31MOL0     C 4116   5.488   3.112   3.007  0.4834 -0.1874  0.6372
   31MOL0     C 4117   5.480   2.962   2.980  0.4851 -0.1518 -0.5231
   31MOL0     H 4118   4.992   3.438   3.074 -2.8724  0.6911 -0.6497
   31MOL0     H 4119   4.765   3.402   3.116  1.5225 -0.4192  2.1582
   31MOL0     H 4120   4.501   3.221   2.844  0.5813 -0.2133  0.0363
   31MOL0     H 4121   4.564   3.064   2.891 -0.1800  2.2424 -2.4866
   31MOL0     H 4122   4.318   3.125   2.897  3.6391 -1.0029 -1.8530
   31MOL0     H 4123   4.346   3.189   3.067  2.1570 -1.1000  1.8746
   31MOL0     H 4124   4.426   2.910   2.965 -0.4708 -0.5968  1.0074
   31MOL0     H 4125   4.281   2.934   3.054 -0.3780  1.0381  1.4445
   31MOL0     H 4126   4.573   2.973   3.158  1.2713 -2.9262  2.3948
   31MOL0     H 4127   4.440   3.063   3.229 -1.2327  0.9924 -1.7998
   31MOL0     H 4128   4.424   2.763   3.220 -1.4828 -0.2699  0.9280
   31MOL0     H 4129   4.547   2.827   3.309  1.0971 -0.4167 -3.9561
   31MOL0     H 4130   4.364   2.792   3.450 -0.1997 -0.0042 -1.0150
   31MOL0     H 4131   4.399   2.959   3.459 -0.1284 -0.0031 -0.6078
   31MOL0     H 4132   4.168   2.823   3.316  0.6137 -0.2048 -1.5283
   31MOL0     H 4133   4.192   3.003   3.324 -0.0821 -0.1036 -1.0865
   31MOL0     H 4134   4.148   2.815   3.564  0.6030  0.9739  1.3104
   31MOL0     H 4135   4.151   2.997   3.571  1.6939  0.4512 -2.2532
   31MOL0     H 4136   3.918   3.091   3.390  0.9609 -1.3509 -0.5017
   31MOL0     H 4137   3.566   2.990   3.466 -3.2024  0.7847 -0.9457
   31MOL0     H 4138   3.658   3.105   3.368  0.2197 -0.6203 -0.5880
   31MOL0     H 4139   3.665   2.951   3.177  1.1968  2.7603  0.3180
   31MOL0     H 4140   3.570   2.835   3.268  1.8502 -0.8452 -0.0865
   31MOL0     H 4141   3.442   2.997   3.105 -0.7677 -1.2781  1.2479
   31MOL0     H 4142   3.498   3.132   3.190 -3.2858  1.2811  0.0953
   31MOL0     H 4143   3.337   2.911   3.320 -2.7328  0.7950 -0.4279
   31MOL0     H 4144   3.265   3.031   3.220 -1.9737 -1.8025  1.9598
   31MOL0     H 4145   3.333   3.193   3.632  0.4777 -0.0821 -0.2578
   31MOL0     H 4146   3.136   3.245   3.767  1.0795 -0.2524  0.8811
   31MOL0     H 4147   2.669   3.321   3.860  2.2959  1.8402  0.1699
   31MOL0     H 4148   2.508   3.321   4.067 -1.5776 -1.7592 -0.7380
   31MOL0     H 4149   2.436   3.016   4.247  1.8462 -1.3725 -0.5122
   31MOL0     H 4150   2.584   3.016   4.353  0.8270  1.9727  0.5553
   31MOL0     H 4151   2.373   3.193   4.454  1.3253  0.9776 -0.2224
   31MOL0     H 4152   2.360   3.019   4.481  2.2174 -0.9712 -0.0965
   31MOL0     H 4153   2.585   3.003   4.588 -1.4682 -0.2610 -0.2684
   31MOL0     H 4154   2.594   3.186   4.564 -0.9419  1.0035  2.3465
   31MOL0     H 4155   2.375   3.058   4.726  1.2334 -2.8441 -0.3410
   31MOL0     H 4156   2.402   3.236   4.685  0.2686  0.6684  0.4099
   31MOL0     H 4157   2.487   3.219   4.896 -0.9701  0.1135 -0.8169
   31MOL0     H 4158   2.633   3.208   4.794  0.8349  0.3143  2.5381
   31MOL0     H 4159   2.612   2.945   4.811  1.8415 -0.2015  0.8678
   31MOL0     H 4160   2.678   3.040   4.943  0.1205  2.5027 -1.4721
   31MOL0     H 4161   2.385   2.936   4.910  0.8460  1.5083 -1.3749
   31MOL0     H 4162   2.459   3.003   5.067  1.7960  0.9279  0.1299
   31MOL0     H 4163   2.446   2.762   5.055  0.5494 -0.9015 -0.0910
   31MOL0     H 4164   2.583   2.763   4.931  0.5420  1.7477 -1.0730
   31MOL0     H 4165   2.792   3.112   4.295  2.6812 -1.0717 -0.7428
   31MOL0     H 4166   2.954   3.111   4.109  0.5383  0.6164 -2.9004
   31MOL0     H 4167   2.901   3.015   3.488  0.7919 -1.7721 -0.5442
   31MOL0     H 4168   3.100   2.982   3.358  0.7830  1.3742 -0.4272
   31MOL0     H 4169   4.762   3.045   2.867 -0.9290 -0.2666 -0.0006
   31MOL0     H 4170   5.004   3.076   2.840 -0.3061  1.9344 -1.4879
   31MOL0     H 4171   5.328   3.422   2.953  0.3802  1.0941  1.1703
   31MOL0     H 4172   5.548   3.489   2.959 -0.2807  0.9889  2.5101
   31MOL0     H 4173   5.760   3.274   3.233 -3.6303  1.2916 -0.4172
   31MOL0     H 4174   5.745   3.440   3.229  1.1273 -0.3315  3.8747
   31MOL0     H 4175   5.963   3.427   3.291 -2.4615 -0.4490  1.2508
   31MOL0     H 4176   5.986   3.444   3.118  1.4970  0.3615  0.7862
   31MOL0     H 4177   6.031   3.210   3.080  0.4893 -0.6414 -0.1441
   31MOL0     H 4178   5.989   3.166   3.248 -0.5434  0.4768 -0.2993
   31MOL0     H 4179   6.208   3.374   3.216 -2.4012  0.3915  1.0652
   31MOL0     H 4180   6.187   3.248   3.339  3.9626 -1.8072 -0.3479
   31MOL0     H 4181   6.423   3.057   3.039  0.4639  0.8361  0.2839
   31MOL0     H 4182   5.700   3.104   3.045  1.5451  1.2956 -0.6061
   31MOL0     H 4183   5.404   2.907   3.037  1.8547  1.2647  2.9339
   31MOL0     H 4184   5.472   2.948   2.872  1.2780 -4.0457 -0.2172
   31MOL0     H 4185   5.575   2.918   3.014  0.6997  1.8910  1.8243
   32MOL0     O 4186   2.818   7.783   6.530 -0.1677 -0.3906 -0.2321
   32MOL0     C 4187   2.839   7.768   6.652  0.6880  0.2074  0.6789
   32MOL0     O 4188   2.742   7.733   6.745  0.4430 -0.6195 -0.0429
   32MOL0     C 4189   2.613   7.707   6.715  0.8151  0.5197 -0.2050
   32MOL0     C 4190   2.514   7.805   6.713  0.3162  0.8825  1.9432
   32MOL0     C 4191   2.385   7.750   6.686 -0.4426  0.7110  0.3324
   32MOL0     C 4192   2.352   7.615   6.667 -0.3478 -0.0235  0.1698
   32MOL0     O 4193   2.223   7.578   6.642  0.0292  0.4175  0.0461
   32MOL0     C 4194   2.207   7.447   6.588 -0.3577  0.9525  0.2381
   32MOL0     C 4195   2.066   7.437   6.542  0.4193 -0.3148 -0.2354
   32MOL0     C 4196   2.035   7.284   6.544 -0.0928 -0.1699  0.2159
   32MOL0     C 4197   1.910   7.248   6.464 -0.2243  0.0821  1.0283
   32MOL0     C 4198   1.885   7.099   6.452  0.6516  0.0338  0.1211
   32MOL0     C 4199   1.753   7.054   6.513 -0.3909 -0.2780  0.9137
   32MOL0     C 4200   1.734   6.901   6.516 -0.0388  0.1806 -1.1311
   32MOL0     C 4201   1.585   6.874   6.550 -0.5154 -0.4393 -0.2546
   32MOL0     N 4202   1.570   6.732   6.586  0.9868 -0.1521 -1.0467
   32MOL0     C 4203   1.552   6.629   6.496  0.7685 -0.7395  0.0744
   32MOL0     C 4204   1.551   6.516   6.567  0.2905  0.5283  0.0133
   32MOL0     C 4205   1.514   6.387   6.513  0.4319  0.2129  1.0631
   32MOL0     C 4206   1.364   6.364   6.473  0.9472 -0.1284 -0.3664
   32MOL0     C 4207   1.276   6.418   6.582  0.8306  0.3576 -1.0762
   32MOL0     C 4208   1.140   6.340   6.576  0.4971 -0.6085 -0.5239
   32MOL0     O 4209   1.166   6.209   6.624 -0.4077  0.6027  0.0896
   32MOL0     C 4210   1.054   6.136   6.608 -0.2744  1.4143  0.0410
   32MOL0     C 4211   1.074   6.013   6.545 -0.3570  0.2078  0.6776
   32MOL0     C 4212   0.964   5.927   6.520 -0.3418  0.1973 -0.0741
   32MOL0     C 4213   0.832   5.959   6.560 -0.5367  0.7253 -1.4018
   32MOL0     C 4214   0.716   5.866   6.544  0.0984  0.3560 -0.0353
   32MOL0     O 4215   0.591   5.903   6.601  0.5963  0.1912  0.0362
   32MOL0     C 4216   0.474   5.825   6.597 -0.7110  0.5524  0.2710
   32MOL0     C 4217   0.459   5.699   6.533  0.9904 -0.0145 -0.6015
   32MOL0     C 4218   0.330   5.625   6.550 -0.0441  0.4240 -0.5112
   32MOL0     C 4219   0.224   5.688   6.623  0.3667  0.1904 -1.1767
   32MOL0     O 4220   0.107   5.621   6.647 -0.3769  0.8200  0.9424
   32MOL0     C 4221   0.055   5.616   6.775 -0.4211 -0.2109 -0.6164
   32MOL0     C 4222  -0.058   5.510   6.766  0.2839  0.0315  0.6492
   32MOL0     C 4223  -0.114   5.484   6.915 -0.6167 -0.1186 -0.2749
   32MOL0     C 4224  -0.183   5.612   6.980  0.6924  0.3289  0.0601
   32MOL0     C 4225  -0.321   5.595   7.046  0.6231 -0.1800 -0.0210
   32MOL0     C 4226  -0.334   5.714   7.145  0.2376 -0.4352  0.8505
   32MOL0     C 4227  -0.479   5.742   7.177 -0.1330  0.5522 -0.1271
   32MOL0     C 4228  -0.561   5.631   7.226  0.2464  0.2380  0.3398
   32MOL0    Cl 4229  -0.712   5.673   7.314 -0.0834  0.0244 -0.1195
   32MOL0     C 4230   0.241   5.813   6.672 -0.6446 -0.9315 -0.0271
   32MOL0     C 4231   0.359   5.882   6.655  0.6468  0.0281  0.0784
   32MOL0     O 4232   0.746   5.763   6.479 -0.4490 -0.2196 -0.4656
   32MOL0     C 4233   0.819   6.083   6.629  0.7165  0.4639  0.9875
   32MOL0     C 4234   0.925   6.167   6.656 -0.6130 -1.0701  0.1211
   32MOL0     N 4235   1.568   6.555   6.701  0.7700  0.0002  0.6652
   32MOL0     N 4236   1.575   6.680   6.709 -0.6811 -1.3111  0.6932
   32MOL0     C 4237   2.456   7.522   6.679  0.6423 -0.3303 -0.1881
   32MOL0     C 4238   2.584   7.568   6.700 -0.5157 -0.0786 -0.5566
   32MOL0     C 4239   2.976   7.796   6.696 -0.7201  0.4573 -1.0312
   32MOL0     C 4240   3.002   7.846   6.827 -0.4431  0.2846  0.9433
   32MOL0     C 4241   3.130   7.870   6.872 -0.1412  0.1030  0.0501
   32MOL0     C 4242   3.243   7.822   6.798  0.3379  0.6738 -0.4640
   32MOL0     O 4243   3.373   7.840   6.838  0.4020 -0.4803 -0.3256
   32MOL0     C 4244   3.390   7.886   6.973  0.2505  0.5434  1.1394
   32MOL0     C 4245   3.534   7.844   7.018 -0.0198  0.0487 -0.3840
   32MOL0     C 4246   3.580   7.909   7.155  0.5197 -0.3532 -0.1483
   32MOL0     C 4247   3.620   7.820   7.272 -0.3331 -0.4981  0.8462
   32MOL0     C 4248   3.713   7.710   7.257  0.4048 -0.1778  0.1189
   32MOL0     C 4249   3.808   7.635   7.246  0.8466 -0.6735 -0.0383
   32MOL0     C 4250   3.220   7.761   6.681  0.0154 -0.2735 -0.6576
   32MOL0     C 4251   3.094   7.752   6.619  1.4793 -0.8891 -0.0428
   32MOL0     C 4252   3.083   7.703   6.480  0.9751  0.3971  0.0934
   32MOL0     H 4253   2.532   7.911   6.728  1.8372  1.0151 -0.2766
   32MOL0     H 4254   2.300   7.818   6.693  1.2198  2.8935  0.5103
   32MOL0     H 4255   2.268   7.438   6.497 -0.6432  0.6840  0.0720
   32MOL0     H 4256   2.238   7.367   6.656 -0.3324  0.8878  0.1509
   32MOL0     H 4257   2.054   7.482   6.443 -0.9042 -0.7862 -0.3071
   32MOL0     H 4258   2.001   7.489   6.613 -0.1861  2.2053 -2.4608
   32MOL0     H 4259   2.031   7.253   6.649  0.9039  1.6658  0.8545
   32MOL0     H 4260   2.114   7.231   6.490 -0.9502 -1.8938  0.5977
   32MOL0     H 4261   1.822   7.297   6.507 -1.3727 -0.4575 -0.5918
   32MOL0     H 4262   1.938   7.279   6.363  4.2361 -0.6645  1.8235
   32MOL0     H 4263   1.885   7.080   6.344 -1.8361 -2.6532  0.4763
   32MOL0     H 4264   1.967   7.035   6.486  0.1964 -1.8383 -2.0136
   32MOL0     H 4265   1.750   7.095   6.614  2.5459 -0.0894  1.0323
   32MOL0     H 4266   1.671   7.099   6.456  0.0816  0.0394  0.4727
   32MOL0     H 4267   1.802   6.860   6.591 -0.1691  2.6152  0.4293
   32MOL0     H 4268   1.746   6.855   6.418  0.2675 -0.2331 -0.9046
   32MOL0     H 4269   1.559   6.936   6.636  2.0402 -0.2824  0.4963
   32MOL0     H 4270   1.502   6.892   6.481 -1.3524  1.6737  1.1812
   32MOL0     H 4271   1.523   6.633   6.392 -0.9528  1.0925  0.5680
   32MOL0     H 4272   1.585   6.356   6.437 -1.0698 -0.9008  0.0663
   32MOL0     H 4273   1.526   6.311   6.592 -1.3119 -1.5816 -0.3010
   32MOL0     H 4274   1.345   6.400   6.372  1.9501 -2.3314 -1.4335
   32MOL0     H 4275   1.351   6.255   6.471 -0.3062  0.0188 -1.4346
   32MOL0     H 4276   1.270   6.527   6.575  0.2639  0.3491 -0.7661
   32MOL0     H 4277   1.314   6.403   6.683 -0.4078 -1.2704 -0.8172
   32MOL0     H 4278   1.104   6.327   6.473  2.0100 -0.8602 -1.0455
   32MOL0     H 4279   1.073   6.394   6.643  2.0619  0.6641  0.0884
   32MOL0     H 4280   1.175   5.990   6.513 -1.0003  0.7275 -1.9995
   32MOL0     H 4281   0.976   5.832   6.470 -0.5019 -0.0414  0.3299
   32MOL0     H 4282   0.545   5.642   6.500  3.9816  3.9678 -0.4143
   32MOL0     H 4283   0.327   5.522   6.514  1.2374 -0.2609  1.1968
   32MOL0     H 4284   0.139   5.581   6.836 -1.2863 -1.0581  0.1180
   32MOL0     H 4285   0.022   5.713   6.813 -2.2586 -0.5257 -1.2994
   32MOL0     H 4286  -0.142   5.538   6.702 -0.2113 -3.5689 -0.4878
   32MOL0     H 4287  -0.019   5.417   6.724 -0.2991  0.4666 -0.9134
   32MOL0     H 4288  -0.189   5.405   6.903  0.9774 -1.4967 -1.5377
   32MOL0     H 4289  -0.032   5.468   6.985 -0.6425  1.0939  0.0577
   32MOL0     H 4290  -0.186   5.696   6.909 -1.0400 -0.9184 -1.4089
   32MOL0     H 4291  -0.107   5.641   7.054  2.3351 -0.6583 -1.1745
   32MOL0     H 4292  -0.328   5.503   7.106  1.4665 -0.2672 -0.0419
   32MOL0     H 4293  -0.414   5.593   6.988 -1.3843 -1.1817  2.9727
   32MOL0     H 4294  -0.292   5.700   7.245 -0.8684 -1.6234  1.1766
   32MOL0     H 4295  -0.282   5.804   7.111  3.0661 -2.4389 -0.5338
   32MOL0     H 4296  -0.527   5.785   7.088 -1.3324  4.3611  2.1460
   32MOL0     H 4297  -0.476   5.807   7.265  1.9501  1.5913 -0.8961
   32MOL0     H 4298  -0.587   5.567   7.141  0.2888  2.6583 -1.6044
   32MOL0     H 4299  -0.501   5.567   7.291  3.3580 -1.2184 -3.5807
   32MOL0     H 4300   0.157   5.858   6.726 -0.7469 -1.0821 -0.0616
   32MOL0     H 4301   0.377   5.979   6.700 -4.6400  0.2958  2.3464
   32MOL0     H 4302   0.718   6.104   6.663  1.1751  1.9852  1.4596
   32MOL0     H 4303   0.903   6.262   6.705 -0.8933  0.8467 -3.3466
   32MOL0     H 4304   2.448   7.414   6.669  1.4738 -0.2835 -1.7638
   32MOL0     H 4305   2.659   7.490   6.714 -2.0610 -1.4844  0.1592
   32MOL0     H 4306   2.916   7.876   6.887 -1.1019  2.1445 -0.8339
   32MOL0     H 4307   3.143   7.932   6.960  3.3517 -0.8585  0.3766
   32MOL0     H 4308   3.334   7.827   7.046  1.4237 -0.7543  1.0399
   32MOL0     H 4309   3.381   7.994   6.990  2.3568  1.0919 -0.7342
   32MOL0     H 4310   3.606   7.883   6.946  2.0402 -0.0081  1.5135
   32MOL0     H 4311   3.542   7.735   7.017 -0.8170 -0.0807  1.6769
   32MOL0     H 4312   3.491   7.962   7.190  0.9323  0.1677  0.1315
   32MOL0     H 4313   3.648   7.994   7.142  0.0863 -0.0748 -0.6602
   32MOL0     H 4314   3.669   7.884   7.346  0.0134 -1.1358  1.1756
   32MOL0     H 4315   3.529   7.783   7.320 -1.8513  0.0468 -1.4666
   32MOL0     H 4316   3.899   7.578   7.252  2.3451  1.6534  0.5538
   32MOL0     H 4317   3.309   7.732   6.625 -0.8098  0.0634 -2.1845
   32MOL0     H 4318   3.027   7.609   6.484 -2.9557  2.4313 -1.7347
   32MOL0     H 4319   3.024   7.772   6.420  0.6307  2.6342  2.7795
   32MOL0     H 4320   3.183   7.693   6.436  1.4508 -1.4294  1.4414
   33MOL0     O 4321   6.422   1.393   1.364  0.4135 -0.4372  0.6655
   33MOL0     C 4322   6.421   1.297   1.441  0.2927 -0.4030  0.3875
   33MOL0     O 4323   6.526   1.252   1.522  0.4219  0.5457  0.3888
   33MOL0     C 4324   6.625   1.332   1.561 -0.0391 -0.4894  0.0928
   33MOL0     C 4325   6.649   1.344   1.701 -0.4073 -0.0123 -0.3454
   33MOL0     C 4326   6.745   1.423   1.760  0.3330  0.1760  1.3061
   33MOL0     C 4327   6.830   1.501   1.680  0.2493  0.2042  0.6511
   33MOL0     O 4328   6.924   1.592   1.733  0.6072  0.6759  0.0728
   33MOL0     C 4329   7.041   1.621   1.655  0.6948  0.3817 -0.2055
   33MOL0     C 4330   7.140   1.501   1.645  0.2691  0.2184 -1.1736
   33MOL0     C 4331   7.206   1.456   1.791  0.1543  0.0752 -0.0819
   33MOL0     C 4332   7.276   1.313   1.789 -0.6717  0.5412  0.6394
   33MOL0     C 4333   7.362   1.296   1.910 -0.2512  0.1100  0.5831
   33MOL0     C 4334   7.403   1.157   1.952 -0.0258  1.1195  0.2015
   33MOL0     C 4335   7.525   1.149   2.038 -0.3041 -0.0863 -0.5705
   33MOL0     C 4336   7.651   1.140   1.964  0.3073  0.1320 -0.9855
   33MOL0     N 4337   7.688   1.008   1.915 -0.1938  0.3793 -0.3585
   33MOL0     C 4338   7.646   0.966   1.795  0.2303  0.2056  0.2014
   33MOL0     C 4339   7.686   0.837   1.803 -0.3398 -0.0952 -0.0044
   33MOL0     C 4340   7.639   0.743   1.702 -0.4870  0.0314 -0.0028
   33MOL0     C 4341   7.745   0.706   1.594  0.1343  0.2915  0.4441
   33MOL0     C 4342   7.824   0.580   1.609 -1.0167 -0.6901  0.7411
   33MOL0     C 4343   7.899   0.525   1.485  0.2210 -0.8256 -0.2857
   33MOL0     O 4344   7.980   0.407   1.511  0.4737 -0.3301 -0.2299
   33MOL0     C 4345   8.115   0.421   1.537  0.7176  0.1214  0.4553
   33MOL0     C 4346   8.172   0.306   1.592  0.3632 -0.3683 -0.4629
   33MOL0     C 4347   8.308   0.295   1.619 -0.2202  0.0096  0.3354
   33MOL0     C 4348   8.391   0.408   1.587  0.4379  0.7864  0.4330
   33MOL0     C 4349   8.539   0.390   1.603  0.7265 -0.3742 -0.3030
   33MOL0     O 4350   8.606   0.503   1.636  0.0920 -0.9839  0.2047
   33MOL0     C 4351   8.742   0.509   1.651 -0.9232 -0.1153  0.1501
   33MOL0     C 4352   8.811   0.626   1.605 -0.6763  0.6993  0.1449
   33MOL0     C 4353   8.949   0.631   1.601  0.2988  0.1995 -0.4333
   33MOL0     C 4354   9.026   0.532   1.660  0.7545 -0.1911  0.3323
   33MOL0     O 4355   9.161   0.537   1.683 -0.8556  0.7394 -0.1107
   33MOL0     C 4356   9.230   0.655   1.644  0.5393 -0.8120  0.3872
   33MOL0     C 4357   9.357   0.655   1.720  0.6355  0.2158 -0.7520
   33MOL0     C 4358   9.458   0.560   1.648 -0.0986 -0.2506  0.0176
   33MOL0     C 4359   9.555   0.488   1.740  0.3181  0.8913 -0.8556
   33MOL0     C 4360   9.633   0.382   1.657  0.5436  0.7307  0.5827
   33MOL0     C 4361   9.755   0.337   1.741  0.6920  0.0316  0.0315
   33MOL0     C 4362   9.868   0.446   1.725 -0.6629 -0.5008  0.5192
   33MOL0     C 4363   9.983   0.409   1.822 -0.3440 -0.6625  0.2552
   33MOL0    Cl 4364  10.086   0.555   1.860 -0.7013 -0.1633  0.2859
   33MOL0     C 4365   8.956   0.425   1.721  0.0750  0.1200 -1.2270
   33MOL0     C 4366   8.823   0.405   1.705 -0.4333  0.0625 -0.2701
   33MOL0     O 4367   8.588   0.274   1.596 -0.0023 -0.3364 -0.4107
   33MOL0     C 4368   8.329   0.535   1.550 -0.4119  0.0398  0.5458
   33MOL0     C 4369   8.195   0.536   1.515 -0.7613 -0.2050 -0.0280
   33MOL0     N 4370   7.761   0.804   1.911  0.1643 -0.0367 -0.3401
   33MOL0     N 4371   7.756   0.912   1.982 -1.0367 -0.2980  0.3235
   33MOL0     C 4372   6.800   1.501   1.539 -0.6615  1.0021 -0.0820
   33MOL0     C 4373   6.706   1.412   1.481 -0.5362  0.4337 -0.0382
   33MOL0     C 4374   6.306   1.211   1.430 -0.2630  0.5758  0.6029
   33MOL0     C 4375   6.291   1.117   1.539  0.2902  0.0750  0.6258
   33MOL0     C 4376   6.184   1.029   1.550 -0.3028 -0.3039 -0.6411
   33MOL0     C 4377   6.079   1.049   1.461  0.1045  0.4139 -0.4169
   33MOL0     O 4378   5.973   0.980   1.490  0.2811  0.8722  0.0143
   33MOL0     C 4379   5.852   1.043   1.509 -0.3096  0.9490  1.8364
   33MOL0     C 4380   5.830   1.053   1.658  0.0546 -0.2115 -0.0881
   33MOL0     C 4381   5.685   1.088   1.698  0.0724 -0.3828 -0.0385
   33MOL0     C 4382   5.669   1.095   1.857 -0.4415  0.2217  0.0998
   33MOL0     C 4383   5.767   1.190   1.924 -0.2892 -0.0084  0.5080
   33MOL0     C 4384   5.836   1.273   1.973  0.0573 -0.0693 -0.4631
   33MOL0     C 4385   6.099   1.134   1.349 -0.1003  0.5862  0.0079
   33MOL0     C 4386   6.207   1.215   1.330  0.1268  1.0699  0.6784
   33MOL0     C 4387   6.216   1.296   1.200 -0.4298 -0.1796 -0.2051
   33MOL0     H 4388   6.577   1.289   1.760 -0.3394  1.4805  1.2150
   33MOL0     H 4389   6.747   1.414   1.868  2.1806 -2.6101  1.1228
   33MOL0     H 4390   7.010   1.652   1.555 -0.2473 -3.3801 -1.2307
   33MOL0     H 4391   7.098   1.699   1.705 -0.3621 -1.0378  3.5433
   33MOL0     H 4392   7.222   1.520   1.574  2.0322 -2.2300  0.0524
   33MOL0     H 4393   7.089   1.415   1.601 -0.8473  0.2444  0.0299
   33MOL0     H 4394   7.123   1.453   1.861 -0.8796 -0.5975 -1.3019
   33MOL0     H 4395   7.272   1.535   1.830 -1.0695  0.9104  0.3394
   33MOL0     H 4396   7.205   1.230   1.783 -0.1668  0.1087  0.5817
   33MOL0     H 4397   7.344   1.296   1.705  0.8177 -3.0113  2.3792
   33MOL0     H 4398   7.449   1.352   1.876 -0.1487 -0.4759 -0.1417
   33MOL0     H 4399   7.319   1.350   1.995  1.9945  3.3622 -0.1739
   33MOL0     H 4400   7.321   1.135   2.021  1.1615  1.8301  1.9052
   33MOL0     H 4401   7.387   1.086   1.870 -0.6274  2.2185 -0.6840
   33MOL0     H 4402   7.514   1.064   2.105  2.1551 -1.6453 -1.9889
   33MOL0     H 4403   7.527   1.245   2.091  2.0983  0.4213 -1.4375
   33MOL0     H 4404   7.653   1.207   1.878 -2.3866 -1.3197 -2.2902
   33MOL0     H 4405   7.736   1.156   2.031 -1.2693 -1.5859  1.6031
   33MOL0     H 4406   7.586   1.013   1.717 -1.7360 -0.1330  1.4454
   33MOL0     H 4407   7.619   0.649   1.755  1.4183 -0.5323 -0.2086
   33MOL0     H 4408   7.547   0.776   1.653  1.1023  0.8921 -2.6256
   33MOL0     H 4409   7.700   0.699   1.494 -0.7813  0.0095  0.8686
   33MOL0     H 4410   7.811   0.793   1.584  1.1534 -0.4032  1.0011
   33MOL0     H 4411   7.766   0.497   1.650 -3.8951  1.3619  1.1984
   33MOL0     H 4412   7.903   0.602   1.680 -1.2688  0.9263  0.5610
   33MOL0     H 4413   7.958   0.604   1.437 -1.0832 -0.8931 -2.0946
   33MOL0     H 4414   7.815   0.499   1.420 -3.6499 -0.6699  4.1448
   33MOL0     H 4415   8.102   0.225   1.607 -0.4870  0.7214  1.8425
   33MOL0     H 4416   8.342   0.208   1.674 -1.1585 -0.1082  0.7509
   33MOL0     H 4417   8.750   0.699   1.553 -0.4342  1.1083  0.4255
   33MOL0     H 4418   8.991   0.719   1.554 -0.6579  1.5828  1.1651
   33MOL0     H 4419   9.249   0.661   1.536 -0.5925  3.0355  0.2522
   33MOL0     H 4420   9.176   0.748   1.665 -0.3940 -0.6791 -2.2717
   33MOL0     H 4421   9.399   0.756   1.719  0.8284  0.2086  1.4745
   33MOL0     H 4422   9.349   0.633   1.827 -0.1380  1.1462 -0.6002
   33MOL0     H 4423   9.394   0.493   1.591 -2.6451  2.1775 -0.2034
   33MOL0     H 4424   9.507   0.636   1.586 -0.0288 -0.7041 -0.4885
   33MOL0     H 4425   9.507   0.442   1.827  3.0428 -0.2920  0.1209
   33MOL0     H 4426   9.622   0.558   1.790 -0.8610 -1.3287  4.5371
   33MOL0     H 4427   9.653   0.411   1.554 -2.6180  0.7538 -0.1180
   33MOL0     H 4428   9.566   0.299   1.636  0.2998  1.3371 -1.1493
   33MOL0     H 4429   9.730   0.322   1.846 -0.7480  0.2712 -0.2577
   33MOL0     H 4430   9.783   0.239   1.700  2.3997  0.5954 -0.2262
   33MOL0     H 4431   9.828   0.546   1.744 -0.5671 -0.2200 -0.6733
   33MOL0     H 4432   9.893   0.448   1.619 -0.9643 -2.3470  0.3901
   33MOL0     H 4433   9.936   0.375   1.915  0.2543 -0.4878  0.6239
   33MOL0     H 4434  10.038   0.324   1.781 -1.3628 -1.7545  1.0625
   33MOL0     H 4435   9.009   0.347   1.774 -1.5910 -0.9447 -1.0524
   33MOL0     H 4436   8.802   0.301   1.730  3.4670 -0.4403  1.8068
   33MOL0     H 4437   8.397   0.619   1.541  1.1613 -1.3113 -0.8151
   33MOL0     H 4438   8.173   0.636   1.479 -2.1345 -0.2761  0.5766
   33MOL0     H 4439   6.846   1.572   1.471 -0.3953  0.4877 -0.4504
   33MOL0     H 4440   6.688   1.409   1.374 -2.2059  0.2466  0.2237
   33MOL0     H 4441   6.358   1.115   1.625  3.4810  1.3235 -1.6155
   33MOL0     H 4442   6.177   0.965   1.637 -1.3862  1.3905  0.5894
   33MOL0     H 4443   5.779   0.974   1.466 -1.1313  1.3650  2.5349
   33MOL0     H 4444   5.839   1.139   1.458 -0.6898 -1.5541 -3.4373
   33MOL0     H 4445   5.894   1.137   1.689 -1.1314  1.2455 -1.3659
   33MOL0     H 4446   5.858   0.960   1.708 -0.9499 -0.8332 -0.6680
   33MOL0     H 4447   5.623   1.007   1.658  0.6645 -2.5247  3.0001
   33MOL0     H 4448   5.655   1.189   1.667  0.6931 -0.4135 -0.7590
   33MOL0     H 4449   5.566   1.116   1.887 -0.3597 -0.8480  1.2202
   33MOL0     H 4450   5.698   0.995   1.891  0.8340  0.7316  0.5709
   33MOL0     H 4451   5.900   1.354   2.000 -0.8762  0.5029  0.0815
   33MOL0     H 4452   6.025   1.139   1.269  1.2229 -0.7882 -1.3374
   33MOL0     H 4453   6.127   1.288   1.138  0.4838 -0.6770 -1.4966
   33MOL0     H 4454   6.235   1.403   1.217 -1.4909 -0.3886  3.0558
   33MOL0     H 4455   6.291   1.251   1.134 -2.1360 -1.4933 -1.3283
   34MOL0     O 4456   7.736  11.289   0.020  0.3193  0.7716 -0.6481
   34MOL0     C 4457   7.648  11.351  -0.038  0.3640 -0.7854  1.1793
   34MOL0     O 4458   7.676  11.420  -0.162  0.3160 -0.0525 -0.2225
   34MOL0     C 4459   7.805  11.387  -0.201  0.2493  0.5293  0.4658
   34MOL0     C 4460   7.814  11.301  -0.313  0.8864 -0.2919 -0.2893
   34MOL0     C 4461   7.936  11.273  -0.380  0.5043  0.7603 -0.6640
   34MOL0     C 4462   8.056  11.330  -0.332 -0.0628 -0.3374 -0.5362
   34MOL0     O 4463   8.179  11.299  -0.375 -0.2707 -0.0566 -0.0476
   34MOL0     C 4464   8.197  11.195  -0.470  0.6245  0.6199  0.5893
   34MOL0     C 4465   8.350  11.175  -0.494  0.1727  0.3396  0.8059
   34MOL0     C 4466   8.428  11.095  -0.389  0.9901 -0.8955  0.6313
   34MOL0     C 4467   8.579  11.088  -0.420  0.0737  0.3276  0.4202
   34MOL0     C 4468   8.639  11.014  -0.301 -0.1486  0.0290 -1.0089
   34MOL0     C 4469   8.783  10.997  -0.315 -1.3357  0.4638  0.5096
   34MOL0     C 4470   8.867  10.961  -0.190  0.3522 -1.3297 -0.3924
   34MOL0     C 4471   8.944  11.084  -0.133 -0.5858  0.5025 -0.5037
   34MOL0     N 4472   9.023  11.031  -0.016  0.6063  0.4082  0.2668
   34MOL0     C 4473   9.139  10.964  -0.032 -1.1177 -0.8434  0.5707
   34MOL0     C 4474   9.176  10.950   0.101 -0.2175 -0.5654  0.4600
   34MOL0     C 4475   9.314  10.915   0.147  0.1242 -1.2294  0.0096
   34MOL0     C 4476   9.334  10.769   0.192  0.6844 -0.3386 -0.4516
   34MOL0     C 4477   9.205  10.702   0.249 -0.0055 -0.9477  0.6059
   34MOL0     C 4478   9.222  10.560   0.276 -0.4918  0.6475 -0.0814
   34MOL0     O 4479   9.096  10.504   0.291 -0.9280 -0.4348 -0.1071
   34MOL0     C 4480   9.072  10.364   0.301 -0.6136  0.1298 -0.1118
   34MOL0     C 4481   8.957  10.319   0.362  0.2746 -0.1706 -0.7015
   34MOL0     C 4482   8.918  10.188   0.363 -0.8587 -0.4720  0.0307
   34MOL0     C 4483   9.001  10.099   0.311 -0.6209  0.2363  0.8025
   34MOL0     C 4484   8.967   9.959   0.318 -0.1359 -0.1012 -0.0889
   34MOL0     O 4485   8.841   9.932   0.343  0.1933 -0.1878 -1.2783
   34MOL0     C 4486   8.789   9.810   0.373 -0.6620 -0.4969 -0.8061
   34MOL0     C 4487   8.856   9.691   0.405 -0.1620  0.2165  0.4777
   34MOL0     C 4488   8.770   9.577   0.428  1.1386  0.4603 -0.5351
   34MOL0     C 4489   8.622   9.588   0.436 -0.9919 -0.3610 -0.5738
   34MOL0     O 4490   8.541   9.499   0.487 -0.3361  1.0080  0.3869
   34MOL0     C 4491   8.555   9.363   0.444  0.3420 -0.1592 -0.0513
   34MOL0     C 4492   8.447   9.271   0.504 -0.3140  0.6159 -0.2664
   34MOL0     C 4493   8.479   9.122   0.472 -0.2176 -0.1469 -0.4319
   34MOL0     C 4494   8.377   9.026   0.522  0.7243  0.2236  0.5853
   34MOL0     C 4495   8.403   8.873   0.518 -0.0014  0.3269 -0.4829
   34MOL0     C 4496   8.273   8.793   0.511 -0.0417 -0.7527 -0.3180
   34MOL0     C 4497   8.312   8.648   0.508  0.2290 -0.1264  0.8414
   34MOL0     C 4498   8.209   8.548   0.462  0.4346 -0.8234 -0.5113
   34MOL0    Cl 4499   8.134   8.577   0.296 -0.4681 -0.5094 -0.2018
   34MOL0     C 4500   8.570   9.715   0.414  0.8404 -0.6105 -0.1189
   34MOL0     C 4501   8.651   9.819   0.384  0.1887 -0.3601 -0.4427
   34MOL0     O 4502   9.053   9.882   0.288  0.5004 -0.4814 -0.0736
   34MOL0     C 4503   9.128  10.134   0.263  0.6259 -0.0227  0.6870
   34MOL0     C 4504   9.155  10.268   0.244  0.0673 -0.3821 -0.5236
   34MOL0     N 4505   9.071  10.985   0.182 -1.3037 -0.2787  0.1114
   34MOL0     N 4506   8.972  11.033   0.114 -0.5571 -0.0312  0.7499
   34MOL0     C 4507   8.044  11.426  -0.229  0.9201 -0.1819 -0.3472
   34MOL0     C 4508   7.922  11.449  -0.163  0.1767  0.2967 -0.5666
   34MOL0     C 4509   7.516  11.363   0.016  0.4461  0.1267 -0.5898
   34MOL0     C 4510   7.415  11.415  -0.068  0.0045 -0.7290 -0.2485
   34MOL0     C 4511   7.291  11.447  -0.020 -0.1291 -0.2807  0.1764
   34MOL0     C 4512   7.246  11.401   0.099  0.3343 -0.3148  0.2362
   34MOL0     O 4513   7.117  11.407   0.144  0.4505  0.1312  0.8108
   34MOL0     C 4514   7.011  11.444   0.051 -0.3442 -0.4317 -1.0342
   34MOL0     C 4515   6.883  11.473   0.120  0.5157  0.2576  0.3088
   34MOL0     C 4516   6.896  11.574   0.236 -0.7410 -0.6769 -0.0191
   34MOL0     C 4517   6.975  11.706   0.206 -0.7759  0.2842  0.3841
   34MOL0     C 4518   6.917  11.792   0.095 -0.7583  1.2769 -0.1218
   34MOL0     C 4519   6.857  11.852   0.003 -0.3701 -0.0675 -0.2250
   34MOL0     C 4520   7.339  11.352   0.191 -0.1571  0.8891  0.7989
   34MOL0     C 4521   7.474  11.336   0.149  0.8037 -0.3625  0.0775
   34MOL0     C 4522   7.559  11.276   0.261 -0.7455 -0.2122  0.1914
   34MOL0     H 4523   7.715  11.273  -0.346 -1.0539  2.2226  2.7647
   34MOL0     H 4524   7.939  11.214  -0.471  0.9281  0.9738 -0.7919
   34MOL0     H 4525   8.152  11.103  -0.432  0.2421  0.0024 -1.2775
   34MOL0     H 4526   8.150  11.232  -0.561  1.0854  1.3232  0.6267
   34MOL0     H 4527   8.396  11.274  -0.497 -0.1516  0.4763  0.2446
   34MOL0     H 4528   8.357  11.123  -0.590 -2.4287 -0.0473  0.7552
   34MOL0     H 4529   8.388  10.994  -0.398 -3.5997  0.8337 -1.3161
   34MOL0     H 4530   8.397  11.118  -0.286 -0.9724 -2.0441  0.3398
   34MOL0     H 4531   8.594  11.043  -0.518 -0.6628  0.1997  0.3579
   34MOL0     H 4532   8.619  11.189  -0.429  0.9372 -0.2002 -2.6050
   34MOL0     H 4533   8.614  11.070  -0.210  1.2482  0.8896 -1.1252
   34MOL0     H 4534   8.602  10.911  -0.299 -1.4318  0.4513 -1.9226
   34MOL0     H 4535   8.804  10.917  -0.387 -1.9956  0.2660  0.5294
   34MOL0     H 4536   8.815  11.081  -0.377 -3.1508 -0.9585 -2.6247
   34MOL0     H 4537   8.936  10.878  -0.206 -0.0750 -1.9411  0.8563
   34MOL0     H 4538   8.797  10.920  -0.116  0.5986  1.1653  1.3725
   34MOL0     H 4539   9.009  11.150  -0.192 -1.2717  1.5916 -0.0638
   34MOL0     H 4540   8.863  11.149  -0.099  0.4877  2.0852 -0.8509
   34MOL0     H 4541   9.207  10.938  -0.113  0.2169  0.3218  1.2754
   34MOL0     H 4542   9.390  10.949   0.076  0.5167  0.2726  1.0966
   34MOL0     H 4543   9.341  10.970   0.237 -0.0602 -2.1622  0.6427
   34MOL0     H 4544   9.371  10.713   0.106  0.2377  1.1658 -1.6652
   34MOL0     H 4545   9.418  10.762   0.262 -0.1460 -1.7397  0.4443
   34MOL0     H 4546   9.126  10.702   0.172 -1.5233  1.5448  2.0369
   34MOL0     H 4547   9.171  10.746   0.343 -0.6778 -1.5381  0.6512
   34MOL0     H 4548   9.282  10.560   0.368 -0.2618  0.0380 -0.2292
   34MOL0     H 4549   9.285  10.520   0.196  0.2338  0.3129  0.6386
   34MOL0     H 4550   8.880  10.386   0.399  1.4131  0.0061  1.4951
   34MOL0     H 4551   8.822  10.167   0.411 -0.9433 -3.1673 -1.1649
   34MOL0     H 4552   8.964   9.684   0.408 -0.1984 -0.4297  2.8514
   34MOL0     H 4553   8.820   9.483   0.447 -1.1314 -0.6593  0.2673
   34MOL0     H 4554   8.567   9.358   0.335 -0.2127  2.9383 -0.3363
   34MOL0     H 4555   8.649   9.317   0.476  0.3956  0.7313  1.1269
   34MOL0     H 4556   8.446   9.282   0.613 -1.6979  3.7418 -0.4770
   34MOL0     H 4557   8.347   9.293   0.467 -0.2626  0.9385 -0.2189
   34MOL0     H 4558   8.489   9.106   0.364 -0.0509 -1.7115 -0.2059
   34MOL0     H 4559   8.582   9.103   0.503 -0.5597 -0.4401  0.5594
   34MOL0     H 4560   8.287   9.036   0.460 -0.7501 -1.1759  2.3777
   34MOL0     H 4561   8.334   9.050   0.620 -3.1973  0.1712 -0.9569
   34MOL0     H 4562   8.458   8.845   0.608 -1.0060  1.6677  0.5773
   34MOL0     H 4563   8.453   8.854   0.422 -1.2377  0.7902 -1.2411
   34MOL0     H 4564   8.194   8.807   0.585 -2.1073 -2.2862 -2.0978
   34MOL0     H 4565   8.220   8.825   0.420  0.1842 -0.7281 -0.4416
   34MOL0     H 4566   8.345   8.620   0.608 -0.0069  0.6168  1.1369
   34MOL0     H 4567   8.393   8.639   0.435 -0.3214  0.5797  0.1280
   34MOL0     H 4568   8.260   8.452   0.459  1.5661 -0.2979  0.6367
   34MOL0     H 4569   8.134   8.557   0.541  0.4144  2.8435 -0.7732
   34MOL0     H 4570   8.467   9.740   0.437  0.7345  0.1367 -1.3489
   34MOL0     H 4571   8.607   9.916   0.364  2.4544  0.5819 -1.2280
   34MOL0     H 4572   9.197  10.060   0.224  1.2992  1.0496 -0.2115
   34MOL0     H 4573   9.236  10.297   0.178 -0.8483 -1.8786 -2.3943
   34MOL0     H 4574   8.121  11.501  -0.211  0.7093  0.0234 -0.2911
   34MOL0     H 4575   7.909  11.521  -0.082 -0.6935 -0.3992 -0.0782
   34MOL0     H 4576   7.441  11.445  -0.169 -2.5260 -0.8116 -0.9840
   34MOL0     H 4577   7.220  11.503  -0.080 -1.0515 -0.1224  1.3707
   34MOL0     H 4578   6.984  11.362  -0.016  2.4295 -1.6436 -0.8069
   34MOL0     H 4579   7.042  11.538   0.006 -1.6438  1.1476  1.1612
   34MOL0     H 4580   6.844  11.378   0.159  1.1637  0.6327  1.9681
   34MOL0     H 4581   6.802  11.503   0.053 -4.3530 -0.0833  5.2773
   34MOL0     H 4582   6.942  11.511   0.313 -2.6434 -0.5152  1.3207
   34MOL0     H 4583   6.795  11.597   0.270 -0.9695 -1.1528 -0.3658
   34MOL0     H 4584   6.984  11.763   0.300  0.2957 -0.0618  0.5113
   34MOL0     H 4585   7.077  11.674   0.181 -0.8154 -2.2409  2.8754
   34MOL0     H 4586   6.805  11.910  -0.071 -1.7424 -0.9509  0.0351
   34MOL0     H 4587   7.319  11.346   0.298  0.7359 -0.0221  0.9248
   34MOL0     H 4588   7.486  11.237   0.332  0.8207 -0.8675  1.5064
   34MOL0     H 4589   7.628  11.196   0.234 -1.5727 -2.4084  3.8756
   34MOL0     H 4590   7.617  11.351   0.315 -0.0374 -0.7592  0.1995
   35MOL0     O 4591   2.217   1.823   7.542  0.3905  0.5873 -0.1983
   35MOL0     C 4592   2.210   1.703   7.573 -0.3291  0.0808 -0.3738
   35MOL0     O 4593   2.315   1.618   7.571 -0.2245  0.8309  0.2224
   35MOL0     C 4594   2.452   1.651   7.547 -0.1363  0.0553 -0.7107
   35MOL0     C 4595   2.534   1.536   7.572 -1.1603 -0.3355  0.3441
   35MOL0     C 4596   2.675   1.547   7.576  0.1544  0.0220  0.0570
   35MOL0     C 4597   2.730   1.662   7.526  0.6875  0.4035  0.2949
   35MOL0     O 4598   2.868   1.663   7.523  0.5065  0.9456  0.2333
   35MOL0     C 4599   2.931   1.637   7.398 -0.6309  0.4831  0.9712
   35MOL0     C 4600   2.993   1.771   7.347  0.3968  0.2116  0.8098
   35MOL0     C 4601   3.111   1.825   7.433 -0.5989  0.1287  0.4185
   35MOL0     C 4602   3.176   1.950   7.363  0.9286  0.3771  1.1940
   35MOL0     C 4603   3.313   2.009   7.397  0.2384 -0.1401  0.4494
   35MOL0     C 4604   3.316   2.064   7.544  0.5814 -0.2617  0.6162
   35MOL0     C 4605   3.439   2.150   7.573  0.2022  0.2267  1.4126
   35MOL0     C 4606   3.406   2.208   7.704 -0.5481 -0.3753  0.6325
   35MOL0     N 4607   3.504   2.310   7.746  0.5298  0.5636 -0.5575
   35MOL0     C 4608   3.468   2.439   7.771  0.5334 -0.0715  0.6221
   35MOL0     C 4609   3.581   2.502   7.797  0.3247  0.1494 -0.3695
   35MOL0     C 4610   3.573   2.645   7.841  0.0980 -0.2983  0.0966
   35MOL0     C 4611   3.598   2.742   7.723 -0.1518  0.6188  1.1609
   35MOL0     C 4612   3.742   2.717   7.669 -0.1286  0.1556 -0.1038
   35MOL0     C 4613   3.856   2.756   7.762 -0.3927  0.0852  0.3143
   35MOL0     O 4614   3.988   2.716   7.708  0.2177 -0.1903 -1.1593
   35MOL0     C 4615   4.105   2.728   7.776 -0.6138  1.6666  0.0174
   35MOL0     C 4616   4.218   2.700   7.705 -0.0929 -0.0917 -0.2151
   35MOL0     C 4617   4.344   2.718   7.768  0.3407  0.2974 -0.1230
   35MOL0     C 4618   4.357   2.763   7.898  0.2537  0.2123  0.3763
   35MOL0     C 4619   4.496   2.773   7.952 -0.6800 -0.1645  0.4027
   35MOL0     O 4620   4.520   2.803   8.088  0.6128 -0.7583 -0.1147
   35MOL0     C 4621   4.635   2.826   8.150 -0.7941 -0.6018  0.7060
   35MOL0     C 4622   4.618   2.818   8.297 -0.3148  0.2808 -0.3922
   35MOL0     C 4623   4.731   2.815   8.385 -0.7086 -0.3691  0.3254
   35MOL0     C 4624   4.859   2.839   8.337 -0.7310  0.7796  0.5059
   35MOL0     O 4625   4.974   2.842   8.412 -0.0935  0.0363  0.4023
   35MOL0     C 4626   4.976   2.879   8.553  0.2725  0.3712 -0.1174
   35MOL0     C 4627   5.128   2.887   8.582  0.6261 -0.0331 -0.9253
   35MOL0     C 4628   5.198   2.747   8.563 -0.8191  0.2830  0.0214
   35MOL0     C 4629   5.327   2.732   8.636  0.6396 -0.0447  0.0391
   35MOL0     C 4630   5.368   2.584   8.643 -0.2211 -0.0391 -0.3924
   35MOL0     C 4631   5.352   2.528   8.783 -0.0885 -1.1017 -0.7067
   35MOL0     C 4632   5.398   2.385   8.796  0.4582  0.2877 -0.2829
   35MOL0     C 4633   5.551   2.362   8.826  0.6232  0.0846 -0.3046
   35MOL0    Cl 4634   5.602   2.416   8.986  0.2629 -0.0255  0.0823
   35MOL0     C 4635   4.877   2.855   8.196  0.4602 -0.8600 -1.2922
   35MOL0     C 4636   4.769   2.847   8.101  1.2609  0.0105  0.6268
   35MOL0     O 4637   4.584   2.737   7.871  0.7020 -0.5923 -0.4856
   35MOL0     C 4638   4.240   2.793   7.969  0.5319 -0.3942  1.0038
   35MOL0     C 4639   4.110   2.777   7.909  0.4876 -1.2611  0.3282
   35MOL0     N 4640   3.690   2.414   7.777 -0.2234  0.2574 -0.4013
   35MOL0     N 4641   3.639   2.305   7.740  0.2685  0.1604 -0.5502
   35MOL0     C 4642   2.651   1.767   7.480 -0.0397 -0.2240  0.3389
   35MOL0     C 4643   2.510   1.775   7.507 -0.6244 -0.2067 -0.6632
   35MOL0     C 4644   2.076   1.652   7.627 -0.5453 -0.4561  0.0825
   35MOL0     C 4645   2.052   1.517   7.602 -0.2336 -0.7401  0.6445
   35MOL0     C 4646   1.944   1.458   7.670  0.3535 -0.3273 -0.0174
   35MOL0     C 4647   1.843   1.539   7.730  0.1498 -0.6109 -0.4958
   35MOL0     O 4648   1.731   1.483   7.784  0.7577 -0.2795  1.1349
   35MOL0     C 4649   1.741   1.418   7.908  1.0427  0.2459  0.7624
   35MOL0     C 4650   1.654   1.295   7.887 -1.2861 -0.3064 -0.3213
   35MOL0     C 4651   1.585   1.249   8.011 -0.4574  0.3839  0.1352
   35MOL0     C 4652   1.510   1.109   7.995  0.2357 -0.5758  0.0065
   35MOL0     C 4653   1.405   1.094   7.892 -0.2523 -0.4591 -0.4187
   35MOL0     C 4654   1.328   1.076   7.804  0.5177 -0.4354 -1.5604
   35MOL0     C 4655   1.873   1.677   7.752 -0.9002  0.0332  0.3285
   35MOL0     C 4656   1.986   1.735   7.694  1.1791 -0.4077  0.2563
   35MOL0     C 4657   2.008   1.885   7.737 -0.6330  0.0966  0.8964
   35MOL0     H 4658   2.489   1.446   7.613 -3.1949 -0.5320 -2.1231
   35MOL0     H 4659   2.742   1.461   7.581  3.8778  2.7199  1.3605
   35MOL0     H 4660   3.011   1.565   7.415  0.1844  0.9128 -0.7867
   35MOL0     H 4661   2.860   1.593   7.326  1.2387 -5.0610  1.9989
   35MOL0     H 4662   2.909   1.838   7.328  0.5801 -0.3147 -2.5519
   35MOL0     H 4663   3.031   1.752   7.246  0.2125 -2.6044  1.1972
   35MOL0     H 4664   3.194   1.753   7.434  1.9689  2.8539 -0.5565
   35MOL0     H 4665   3.085   1.847   7.536  0.0426 -1.8949  1.0625
   35MOL0     H 4666   3.192   1.913   7.262 -1.5609 -1.9300  1.5399
   35MOL0     H 4667   3.095   2.022   7.355  1.1466  0.4568 -0.5094
   35MOL0     H 4668   3.378   1.921   7.395  0.5542  0.0845  0.7962
   35MOL0     H 4669   3.346   2.078   7.319  0.2243  1.7069  2.0013
   35MOL0     H 4670   3.226   2.126   7.547  2.2468  2.3601  0.0573
   35MOL0     H 4671   3.296   1.985   7.617  1.0750 -1.8357 -0.8771
   35MOL0     H 4672   3.452   2.232   7.502 -1.7705 -1.8149 -1.5018
   35MOL0     H 4673   3.530   2.090   7.578 -2.0893 -3.5834  0.9972
   35MOL0     H 4674   3.314   2.266   7.692  1.0519  2.2363  0.1638
   35MOL0     H 4675   3.406   2.129   7.779  1.9923 -2.5609 -1.4525
   35MOL0     H 4676   3.366   2.476   7.773  0.1056 -1.0175  4.6214
   35MOL0     H 4677   3.476   2.667   7.886  1.1673  0.2513  2.2761
   35MOL0     H 4678   3.644   2.659   7.923  0.2039  0.3267 -0.1014
   35MOL0     H 4679   3.525   2.716   7.646  1.2472 -1.0059  0.3007
   35MOL0     H 4680   3.587   2.850   7.739 -0.4210  0.7178  0.3740
   35MOL0     H 4681   3.756   2.770   7.574  0.3337 -0.2115 -0.2462
   35MOL0     H 4682   3.756   2.612   7.642  1.1359 -0.1333  1.5475
   35MOL0     H 4683   3.843   2.709   7.860  0.9383  1.3777  1.1409
   35MOL0     H 4684   3.855   2.865   7.776 -0.0490 -0.1111  2.0533
   35MOL0     H 4685   4.208   2.656   7.606  2.1481 -0.6862 -0.2352
   35MOL0     H 4686   4.428   2.706   7.701  0.6225  2.2469 -0.1631
   35MOL0     H 4687   4.518   2.795   8.332 -0.1080 -0.3367 -0.1970
   35MOL0     H 4688   4.707   2.811   8.491 -0.8809 -0.7971  0.2708
   35MOL0     H 4689   4.922   2.974   8.560 -1.7095 -0.2478 -4.0453
   35MOL0     H 4690   4.927   2.804   8.615 -1.2649  1.1645 -0.3332
   35MOL0     H 4691   5.172   2.955   8.509  0.4497 -1.3040 -2.2405
   35MOL0     H 4692   5.145   2.922   8.685 -1.2525 -0.2192 -0.5108
   35MOL0     H 4693   5.131   2.664   8.586  0.8809 -2.1995 -3.1740
   35MOL0     H 4694   5.210   2.735   8.455  0.3911 -1.6404  0.3368
   35MOL0     H 4695   5.327   2.773   8.737 -2.3691  2.9046 -0.9875
   35MOL0     H 4696   5.407   2.775   8.574 -0.1580  0.0137 -0.9843
   35MOL0     H 4697   5.477   2.572   8.636  0.1012  2.3003 -0.2631
   35MOL0     H 4698   5.311   2.522   8.573 -0.9822 -0.4807  0.6057
   35MOL0     H 4699   5.400   2.591   8.859 -3.0810  0.0008  0.3979
   35MOL0     H 4700   5.245   2.538   8.800  0.0833 -0.7798  0.2515
   35MOL0     H 4701   5.380   2.332   8.701 -2.7918 -0.4999  0.6289
   35MOL0     H 4702   5.348   2.324   8.872 -0.3933  1.8502  0.4436
   35MOL0     H 4703   5.568   2.254   8.818 -2.2501 -0.7736  2.8243
   35MOL0     H 4704   5.619   2.405   8.752  0.7805  0.3334 -0.0193
   35MOL0     H 4705   4.977   2.869   8.157  0.4354  1.3079 -0.7204
   35MOL0     H 4706   4.798   2.874   7.999 -0.6416 -2.8468 -0.8098
   35MOL0     H 4707   4.250   2.819   8.074 -1.1157 -0.6874  1.2588
   35MOL0     H 4708   4.020   2.814   7.958  0.5969  4.3888 -2.8594
   35MOL0     H 4709   2.691   1.861   7.441 -0.5864  0.5657  1.6200
   35MOL0     H 4710   2.444   1.861   7.495  0.4227  0.3375 -3.0705
   35MOL0     H 4711   2.140   1.471   7.558  3.1321  3.5924  2.0808
   35MOL0     H 4712   1.935   1.350   7.669 -0.3015 -0.2856  0.6371
   35MOL0     H 4713   1.725   1.486   7.992 -0.6295  2.3602 -1.1493
   35MOL0     H 4714   1.844   1.384   7.923  0.2552 -2.0914  1.3312
   35MOL0     H 4715   1.716   1.221   7.836  3.4721  2.1332  1.1897
   35MOL0     H 4716   1.568   1.322   7.826 -2.2115 -0.2815  0.9510
   35MOL0     H 4717   1.514   1.328   8.039  0.6849  1.5190 -0.0806
   35MOL0     H 4718   1.658   1.231   8.091 -0.6486  0.0803  0.2423
   35MOL0     H 4719   1.585   1.030   7.984 -0.8913 -1.7329  0.3111
   35MOL0     H 4720   1.458   1.090   8.090 -0.4539 -3.5699 -0.8720
   35MOL0     H 4721   1.239   1.069   7.744 -0.9985 -0.4318  0.5788
   35MOL0     H 4722   1.795   1.740   7.792 -4.4334 -3.1415 -0.9013
   35MOL0     H 4723   1.952   1.903   7.830  2.1373  1.3118  2.4395
   35MOL0     H 4724   2.111   1.906   7.767 -0.6066  0.5033  0.5308
   35MOL0     H 4725   1.993   1.946   7.648  1.8935  1.9265  1.6333
   36MOL0     O 4726   2.203   7.414   2.169 -0.0276 -0.5913 -0.1642
   36MOL0     C 4727   2.100   7.366   2.214  0.2501 -1.1349 -0.3357
   36MOL0     O 4728   2.059   7.374   2.344 -0.3087  0.0266 -1.0160
   36MOL0     C 4729   2.148   7.383   2.443 -0.0850  0.7330 -0.1056
   36MOL0     C 4730   2.189   7.268   2.503  0.6268  0.1744  0.2338
   36MOL0     C 4731   2.281   7.270   2.607 -0.1868  0.3709  0.2075
   36MOL0     C 4732   2.315   7.388   2.668  0.5782 -0.0523  0.5051
   36MOL0     O 4733   2.377   7.376   2.790 -0.1138 -0.4779  0.4752
   36MOL0     C 4734   2.416   7.498   2.858 -0.0267  0.1831 -0.2896
   36MOL0     C 4735   2.467   7.450   2.996 -0.4901 -0.2380  0.1876
   36MOL0     C 4736   2.507   7.574   3.087 -0.8432  0.5142  0.5485
   36MOL0     C 4737   2.505   7.539   3.229 -0.0678 -0.1967 -0.7321
   36MOL0     C 4738   2.369   7.543   3.303 -0.5301 -0.2613 -0.3575
   36MOL0     C 4739   2.360   7.494   3.442 -0.7293 -0.3925 -1.0802
   36MOL0     C 4740   2.211   7.478   3.476 -0.0974  0.2535  0.2876
   36MOL0     C 4741   2.200   7.445   3.628  0.8944  1.2845 -0.2701
   36MOL0     N 4742   2.066   7.430   3.682 -0.2300  0.0583 -0.1023
   36MOL0     C 4743   2.006   7.311   3.713 -0.5891  0.1614  1.3983
   36MOL0     C 4744   1.875   7.343   3.732 -0.0766 -0.5748 -0.1410
   36MOL0     C 4745   1.772   7.251   3.770  0.7146  0.6757 -0.4743
   36MOL0     C 4746   1.656   7.315   3.839  0.1483 -0.3864 -0.9448
   36MOL0     C 4747   1.542   7.218   3.862 -0.2406  0.0264 -0.0708
   36MOL0     C 4748   1.429   7.294   3.944  0.7075  0.9372  0.7164
   36MOL0     O 4749   1.322   7.317   3.845  0.2770  0.3147 -0.1636
   36MOL0     C 4750   1.206   7.248   3.865  0.2483  0.7525 -0.3481
   36MOL0     C 4751   1.169   7.147   3.777  0.0034 -0.9540 -0.1987
   36MOL0     C 4752   1.050   7.072   3.803  0.4237  0.0078  0.6559
   36MOL0     C 4753   0.957   7.112   3.903 -0.0538  0.0895  0.3670
   36MOL0     C 4754   0.831   7.039   3.911 -0.0490  0.2381  0.4265
   36MOL0     O 4755   0.745   7.104   3.993  0.8747  0.2791  0.1216
   36MOL0     C 4756   0.629   7.035   4.017  0.1180  0.7750 -0.2663
   36MOL0     C 4757   0.610   6.981   4.148 -1.0045 -0.9031 -0.0645
   36MOL0     C 4758   0.488   6.934   4.184 -0.4674  0.4593  0.0626
   36MOL0     C 4759   0.387   6.936   4.087  0.3561 -0.0759  0.8136
   36MOL0     O 4760   0.278   6.864   4.116  0.5082  0.2970 -0.4605
   36MOL0     C 4761   0.170   6.932   4.182 -0.2636 -0.7480 -0.3388
   36MOL0     C 4762   0.077   7.004   4.082  0.4908 -0.1304 -0.9186
   36MOL0     C 4763   0.024   6.916   3.963 -0.0749 -0.6355 -0.9251
   36MOL0     C 4764  -0.064   6.996   3.878 -0.0181  0.1316  0.4953
   36MOL0     C 4765  -0.109   6.920   3.747 -0.1074  0.6460 -0.5323
   36MOL0     C 4766  -0.220   7.004   3.668  0.3980  0.6675  0.4568
   36MOL0     C 4767  -0.153   7.066   3.538  0.8744 -0.3969 -0.4474
   36MOL0     C 4768  -0.264   7.117   3.442  0.3443 -0.1655 -0.3999
   36MOL0    Cl 4769  -0.331   7.279   3.508  0.0411  0.0568  0.0516
   36MOL0     C 4770   0.404   6.990   3.958 -0.1315 -0.5610 -0.1540
   36MOL0     C 4771   0.526   7.045   3.929 -0.0501 -0.2438  0.3374
   36MOL0     O 4772   0.822   6.929   3.857  0.3338  0.9024 -0.4581
   36MOL0     C 4773   0.998   7.212   3.994 -1.0014 -0.4178  0.1714
   36MOL0     C 4774   1.116   7.284   3.968  0.6638  1.1637  0.7820
   36MOL0     N 4775   1.871   7.487   3.717  0.7483 -0.0734 -0.8872
   36MOL0     N 4776   1.994   7.533   3.700  0.2755  0.4344  0.9114
   36MOL0     C 4777   2.286   7.506   2.601  0.4316 -1.1871  0.3786
   36MOL0     C 4778   2.216   7.505   2.478 -0.2556 -0.1786 -0.6409
   36MOL0     C 4779   1.999   7.311   2.121 -0.4665  0.4790 -0.7210
   36MOL0     C 4780   1.891   7.240   2.183 -0.5387 -0.9922  0.9554
   36MOL0     C 4781   1.803   7.176   2.103  0.7602 -0.4594  0.8680
   36MOL0     C 4782   1.818   7.157   1.964 -0.5721  0.5785  0.4017
   36MOL0     O 4783   1.740   7.062   1.900  0.5891  0.1439 -0.1878
   36MOL0     C 4784   1.776   7.003   1.776 -0.2335  0.3931 -0.3924
   36MOL0     C 4785   1.890   6.908   1.784 -0.4338  0.1493  0.3650
   36MOL0     C 4786   1.882   6.785   1.867 -0.7212  0.2133  0.3039
   36MOL0     C 4787   1.976   6.773   1.993  0.4796 -0.4252  0.1044
   36MOL0     C 4788   1.949   6.646   2.068 -1.1687  0.3779 -0.7678
   36MOL0     C 4789   1.928   6.543   2.117  1.9465  0.5286 -0.1547
   36MOL0     C 4790   1.917   7.232   1.899  0.4953 -0.3559 -0.0168
   36MOL0     C 4791   2.015   7.303   1.972 -0.1868 -0.0045 -0.6462
   36MOL0     C 4792   2.106   7.396   1.889 -0.7664 -0.3182  0.5506
   36MOL0     H 4793   2.140   7.182   2.459 -0.0644  1.8298 -2.4769
   36MOL0     H 4794   2.291   7.178   2.663 -1.7167 -0.1046 -0.2480
   36MOL0     H 4795   2.499   7.549   2.808  0.2758  0.0742  0.0967
   36MOL0     H 4796   2.332   7.566   2.873  1.2546  2.0330 -1.1342
   36MOL0     H 4797   2.551   7.381   2.980 -0.8301 -1.1370  2.0134
   36MOL0     H 4798   2.393   7.384   3.042 -0.3103  0.5237  1.6170
   36MOL0     H 4799   2.450   7.666   3.069  3.0667  3.1721  0.5750
   36MOL0     H 4800   2.612   7.597   3.069 -1.0273  1.8347  1.0723
   36MOL0     H 4801   2.536   7.434   3.234  1.1227  0.1706  0.2705
   36MOL0     H 4802   2.574   7.598   3.290  0.2139  1.7727 -2.8097
   36MOL0     H 4803   2.325   7.643   3.295  0.9993  0.4370 -0.3153
   36MOL0     H 4804   2.298   7.479   3.251 -1.6209 -0.4207  1.2585
   36MOL0     H 4805   2.411   7.400   3.463 -1.0397 -0.3123  0.1702
   36MOL0     H 4806   2.403   7.573   3.505 -1.3379 -0.5840 -0.4022
   36MOL0     H 4807   2.177   7.398   3.410  0.4760  0.4172 -0.2150
   36MOL0     H 4808   2.159   7.571   3.450  0.3448  0.1974 -0.8418
   36MOL0     H 4809   2.245   7.345   3.639  0.2522  0.6444 -2.8423
   36MOL0     H 4810   2.252   7.515   3.694  3.0505 -3.3522  3.6402
   36MOL0     H 4811   2.056   7.215   3.722  2.0207  0.9682 -2.0396
   36MOL0     H 4812   1.736   7.196   3.682  2.5685  1.2528 -1.6649
   36MOL0     H 4813   1.819   7.182   3.841  0.1173 -0.7161 -1.3742
   36MOL0     H 4814   1.690   7.371   3.926  1.7933 -0.7607 -1.3140
   36MOL0     H 4815   1.621   7.393   3.770  1.4799 -0.3905 -1.6708
   36MOL0     H 4816   1.590   7.139   3.920  0.5997 -0.4393 -1.3759
   36MOL0     H 4817   1.494   7.189   3.768  0.0313 -2.3953  0.4773
   36MOL0     H 4818   1.475   7.387   3.980  4.2572 -0.0015 -0.9229
   36MOL0     H 4819   1.392   7.228   4.023  1.1440 -0.3039 -0.0920
   36MOL0     H 4820   1.241   7.122   3.700  0.4075 -2.3739  0.6083
   36MOL0     H 4821   1.026   6.992   3.734  0.7233  1.7031 -1.5626
   36MOL0     H 4822   0.700   6.985   4.208  1.2311  2.0231 -3.1940
   36MOL0     H 4823   0.467   6.889   4.280  1.0719 -2.0972 -0.7021
   36MOL0     H 4824   0.108   6.861   4.237 -0.4820 -1.1895 -1.1356
   36MOL0     H 4825   0.200   7.005   4.258  1.2093  0.7872 -2.2969
   36MOL0     H 4826  -0.008   7.042   4.140  0.8370  3.2504 -2.3894
   36MOL0     H 4827   0.125   7.093   4.043  2.0931 -1.0911 -1.2149
   36MOL0     H 4828   0.116   6.886   3.912  0.7335 -0.6502  0.4891
   36MOL0     H 4829  -0.031   6.829   4.001 -2.0297  1.8972  2.6554
   36MOL0     H 4830  -0.018   7.090   3.844 -1.9278  0.3967 -1.6203
   36MOL0     H 4831  -0.148   7.023   3.942  0.2116 -1.4828  1.5212
   36MOL0     H 4832  -0.158   6.829   3.783 -2.8401  2.0751 -0.3142
   36MOL0     H 4833  -0.027   6.888   3.683  1.4003 -0.6216  1.9247
   36MOL0     H 4834  -0.297   6.932   3.639 -0.0203 -0.1246  3.2210
   36MOL0     H 4835  -0.270   7.078   3.731 -0.7756 -0.7439  1.2641
   36MOL0     H 4836  -0.113   6.982   3.480 -4.7412 -3.0445 -1.1997
   36MOL0     H 4837  -0.080   7.143   3.565  0.0762 -0.0079  0.6430
   36MOL0     H 4838  -0.216   7.133   3.345  2.2353  1.8283  0.7696
   36MOL0     H 4839  -0.345   7.046   3.425 -1.0537  1.2219  0.2521
   36MOL0     H 4840   0.335   7.004   3.876  1.9700  3.5137 -1.5395
   36MOL0     H 4841   0.546   7.091   3.833  1.3203  0.1635  0.8002
   36MOL0     H 4842   0.936   7.243   4.078 -1.5956  1.0151 -0.7633
   36MOL0     H 4843   1.149   7.374   4.020  2.0642  1.2331 -0.1762
   36MOL0     H 4844   2.331   7.599   2.635  0.9401 -0.8753 -1.0739
   36MOL0     H 4845   2.202   7.595   2.419 -2.7667  0.6834  1.1210
   36MOL0     H 4846   1.871   7.262   2.287  1.0283  0.3602  1.0187
   36MOL0     H 4847   1.716   7.125   2.143  0.3685  0.6363  1.4331
   36MOL0     H 4848   1.795   7.086   1.708  0.4885  2.7754  2.5263
   36MOL0     H 4849   1.690   6.950   1.732 -1.1035  0.8936  0.6725
   36MOL0     H 4850   1.984   6.950   1.822  1.8388 -3.1613 -1.1254
   36MOL0     H 4851   1.922   6.884   1.682  1.6337  0.5057  0.8819
   36MOL0     H 4852   1.917   6.699   1.809  1.2962  0.0841  1.6379
   36MOL0     H 4853   1.777   6.757   1.883 -0.2279 -0.8282  1.9311
   36MOL0     H 4854   2.082   6.764   1.970  0.2872 -3.2944 -0.0643
   36MOL0     H 4855   1.954   6.853   2.065 -1.7300 -0.4026 -0.5056
   36MOL0     H 4856   1.910   6.461   2.185  1.2812 -0.3929 -1.3972
   36MOL0     H 4857   1.924   7.212   1.792  2.2104 -2.6522  0.4334
   36MOL0     H 4858   2.160   7.471   1.947 -0.4839 -2.1206  2.7632
   36MOL0     H 4859   2.176   7.325   1.844  0.7407  1.4078  0.0992
   36MOL0     H 4860   2.060   7.448   1.805  1.4256  5.1985  2.3309
   37MOL0     O 4861   0.739   8.153   0.084 -0.3468 -0.8051 -0.4087
   37MOL0     C 4862   0.645   8.080   0.083 -0.0942 -0.2343  0.1412
   37MOL0     O 4863   0.644   7.955   0.144  0.7930 -0.4591 -0.2417
   37MOL0     C 4864   0.736   7.914   0.228  0.5487 -0.5043  0.1927
   37MOL0     C 4865   0.764   7.986   0.341  0.0915  0.3041 -0.3344
   37MOL0     C 4866   0.874   7.965   0.423 -0.2123  0.2362  1.0399
   37MOL0     C 4867   0.944   7.845   0.399 -0.0684  0.4497 -0.1665
   37MOL0     O 4868   1.046   7.828   0.491  0.1897 -0.3944  0.3339
   37MOL0     C 4869   1.126   7.707   0.489 -0.5019  0.5266  0.5506
   37MOL0     C 4870   1.226   7.705   0.597  1.3811  0.0437  0.1377
   37MOL0     C 4871   1.324   7.586   0.592  0.9046 -0.3066  0.3082
   37MOL0     C 4872   1.297   7.489   0.705 -0.2084  0.4195  0.6150
   37MOL0     C 4873   1.399   7.374   0.710 -0.0625 -0.2992  0.5417
   37MOL0     C 4874   1.379   7.291   0.831 -0.0706  0.2424 -1.0535
   37MOL0     C 4875   1.473   7.176   0.806 -0.2057  1.0625 -0.0650
   37MOL0     C 4876   1.526   7.102   0.928  0.2711 -0.3496 -0.1727
   37MOL0     N 4877   1.660   7.149   0.967  0.2342 -0.7077 -0.4642
   37MOL0     C 4878   1.716   7.277   0.976 -0.3864  0.4823 -1.3146
   37MOL0     C 4879   1.847   7.260   0.979  0.0776 -0.1711 -0.5235
   37MOL0     C 4880   1.947   7.372   1.001 -0.5007 -0.0987  0.4251
   37MOL0     C 4881   1.918   7.441   1.135  0.5280 -0.7388  0.0258
   37MOL0     C 4882   2.031   7.533   1.185  0.4000 -0.8418 -1.0930
   37MOL0     C 4883   2.161   7.478   1.228  0.5894 -0.1784 -0.1034
   37MOL0     O 4884   2.169   7.424   1.365  0.2999 -0.2918  0.5215
   37MOL0     C 4885   2.198   7.294   1.402  0.3452 -0.2062  0.2660
   37MOL0     C 4886   2.209   7.264   1.537  0.2281 -0.7270  1.2423
   37MOL0     C 4887   2.217   7.134   1.587  0.2921  0.7015 -0.1348
   37MOL0     C 4888   2.216   7.024   1.505 -0.1325  1.2460  0.3193
   37MOL0     C 4889   2.223   6.879   1.549  1.0083  0.3133  0.1027
   37MOL0     O 4890   2.204   6.772   1.463 -0.2592  0.6362  0.4982
   37MOL0     C 4891   2.195   6.639   1.501  0.1720  0.4720  0.6976
   37MOL0     C 4892   2.217   6.545   1.403 -1.2168 -1.1040  0.2873
   37MOL0     C 4893   2.237   6.410   1.423 -0.3487  0.9638  0.4218
   37MOL0     C 4894   2.224   6.358   1.554  0.4922  0.2722  0.6355
   37MOL0     O 4895   2.208   6.225   1.577  0.3969 -0.1601  0.3337
   37MOL0     C 4896   2.324   6.138   1.565 -0.3855  0.5697  0.4917
   37MOL0     C 4897   2.286   6.018   1.470 -0.2280 -0.0685 -0.2363
   37MOL0     C 4898   2.169   5.927   1.523  0.8562 -0.2161 -0.5526
   37MOL0     C 4899   2.079   5.871   1.405  0.1294  0.6712  0.0441
   37MOL0     C 4900   1.936   5.843   1.460  0.0817  0.7141 -0.0445
   37MOL0     C 4901   1.852   5.775   1.346  0.4637 -0.7024  0.4632
   37MOL0     C 4902   1.702   5.748   1.392 -0.3631  0.0968  0.1952
   37MOL0     C 4903   1.611   5.872   1.382 -0.2394  0.1296 -0.3729
   37MOL0    Cl 4904   1.570   5.894   1.209  0.1103  0.1720  0.1389
   37MOL0     C 4905   2.188   6.449   1.658 -0.1836  0.7836 -0.0835
   37MOL0     C 4906   2.174   6.586   1.628  0.5961  0.1043  0.1141
   37MOL0     O 4907   2.229   6.864   1.674  0.6239 -0.5113 -0.3930
   37MOL0     C 4908   2.203   7.050   1.372  0.0290 -0.1371  0.3408
   37MOL0     C 4909   2.191   7.185   1.322 -0.5568  0.7159  0.2696
   37MOL0     N 4910   1.877   7.135   0.968  0.4788  0.5775 -0.0415
   37MOL0     N 4911   1.770   7.069   0.962 -0.5003 -0.0551  0.2129
   37MOL0     C 4912   0.904   7.758   0.297 -0.7356  0.7360  0.2941
   37MOL0     C 4913   0.807   7.801   0.202  0.5677  0.7037  0.3518
   37MOL0     C 4914   0.533   8.095  -0.015  0.0734 -0.1002 -1.2350
   37MOL0     C 4915   0.465   7.987  -0.085 -0.1161  0.9562  0.5622
   37MOL0     C 4916   0.361   8.016  -0.169  0.6497 -1.1528 -0.0433
   37MOL0     C 4917   0.300   8.141  -0.182 -0.0610  0.3828 -1.7054
   37MOL0     O 4918   0.198   8.179  -0.267 -0.4689  0.3573 -1.0059
   37MOL0     C 4919   0.104   8.077  -0.310 -1.1979 -0.3508  0.5377
   37MOL0     C 4920   0.019   8.034  -0.191  0.6751 -0.0016 -0.0585
   37MOL0     C 4921  -0.103   7.946  -0.247 -0.6884 -0.0662  0.4154
   37MOL0     C 4922  -0.230   8.030  -0.258 -0.0490 -0.1868 -0.3331
   37MOL0     C 4923  -0.351   7.946  -0.270  0.3880  1.0964  0.2986
   37MOL0     C 4924  -0.436   7.850  -0.279  0.7509  0.4689  0.7433
   37MOL0     C 4925   0.356   8.241  -0.108 -1.4489  0.2014  0.2672
   37MOL0     C 4926   0.473   8.227  -0.027 -0.5107  0.3103 -0.0832
   37MOL0     C 4927   0.535   8.351   0.035 -0.4483 -0.1535 -0.6328
   37MOL0     H 4928   0.712   8.080   0.352  2.2217  2.0018 -3.3400
   37MOL0     H 4929   0.889   8.039   0.500 -3.0511  0.8578  1.1308
   37MOL0     H 4930   1.068   7.614   0.499  2.9498 -2.0580 -1.2035
   37MOL0     H 4931   1.172   7.703   0.389 -1.2181  1.8490  0.1498
   37MOL0     H 4932   1.169   7.687   0.689  1.3772  1.4287  0.4215
   37MOL0     H 4933   1.283   7.798   0.601  0.2088  0.7374  1.9515
   37MOL0     H 4934   1.424   7.632   0.599 -0.3762  2.5280  2.0230
   37MOL0     H 4935   1.313   7.537   0.495  0.4949 -0.2904  0.3471
   37MOL0     H 4936   1.294   7.543   0.800  1.3576  2.6810 -0.5381
   37MOL0     H 4937   1.201   7.438   0.689  0.3412 -0.5666  0.3159
   37MOL0     H 4938   1.370   7.321   0.619  3.4490 -0.4088 -0.6629
   37MOL0     H 4939   1.504   7.406   0.702 -0.2315 -0.0949 -1.0346
   37MOL0     H 4940   1.409   7.347   0.920  3.1199  0.5646 -2.1749
   37MOL0     H 4941   1.278   7.257   0.854  0.1882  0.5344  0.6711
   37MOL0     H 4942   1.566   7.202   0.755 -1.6192 -0.6595 -3.8616
   37MOL0     H 4943   1.422   7.107   0.738 -0.3771  0.9666  0.1594
   37MOL0     H 4944   1.452   7.106   1.009  0.4699  2.7471 -0.0350
   37MOL0     H 4945   1.529   6.994   0.912 -3.3820 -0.5648 -0.3916
   37MOL0     H 4946   1.657   7.368   0.967 -0.4923  0.6240  0.4485
   37MOL0     H 4947   2.046   7.325   0.990 -0.7505 -0.7161  0.7702
   37MOL0     H 4948   1.935   7.447   0.922  0.4276 -0.7746 -0.3928
   37MOL0     H 4949   1.826   7.498   1.120 -0.1395 -2.2558 -2.3744
   37MOL0     H 4950   1.907   7.364   1.212 -1.3807  2.6571  3.4345
   37MOL0     H 4951   1.992   7.590   1.271  5.0620  3.1623 -1.1995
   37MOL0     H 4952   2.056   7.614   1.116 -0.6032  0.9618  0.5387
   37MOL0     H 4953   2.236   7.557   1.230  2.1144 -1.5741  1.7956
   37MOL0     H 4954   2.187   7.405   1.150  1.7278  0.8253 -0.6902
   37MOL0     H 4955   2.216   7.344   1.609  2.3625  0.2702  0.0187
   37MOL0     H 4956   2.216   7.109   1.693 -0.3982  0.4872 -0.1926
   37MOL0     H 4957   2.236   6.580   1.303  0.8160  1.6830  1.5177
   37MOL0     H 4958   2.264   6.341   1.344 -1.1118 -3.5054  3.7149
   37MOL0     H 4959   2.420   6.173   1.526  1.1738  0.7627  4.1074
   37MOL0     H 4960   2.342   6.108   1.668  0.0119  1.2763  0.6327
   37MOL0     H 4961   2.279   6.062   1.370  1.4935  4.2500  1.3087
   37MOL0     H 4962   2.369   5.948   1.466  0.4104  0.7283 -1.3667
   37MOL0     H 4963   2.203   5.846   1.588 -4.0121 -0.9574  1.4465
   37MOL0     H 4964   2.104   5.989   1.585  0.4040 -1.0871 -0.1357
   37MOL0     H 4965   2.123   5.786   1.353  1.6595  3.0726 -2.9103
   37MOL0     H 4966   2.063   5.950   1.330 -0.0532  0.9429  0.3693
   37MOL0     H 4967   1.899   5.942   1.488 -1.6106 -0.2246  1.2181
   37MOL0     H 4968   1.943   5.784   1.552  2.5812  0.9979  0.0165
   37MOL0     H 4969   1.853   5.837   1.256  1.6451 -2.4762 -0.7932
   37MOL0     H 4970   1.909   5.690   1.309 -0.1956 -0.3773 -1.4245
   37MOL0     H 4971   1.703   5.717   1.497 -0.6530  1.4304  0.6067
   37MOL0     H 4972   1.665   5.659   1.340  2.2826 -1.4661  0.7658
   37MOL0     H 4973   1.520   5.864   1.442 -2.0600  2.7052 -2.5227
   37MOL0     H 4974   1.665   5.962   1.414 -0.5427  0.3322 -0.4279
   37MOL0     H 4975   2.175   6.415   1.760  2.3186 -2.5856 -0.7389
   37MOL0     H 4976   2.152   6.639   1.720 -3.8406 -0.8209 -0.1703
   37MOL0     H 4977   2.200   6.973   1.295  2.3928  0.3327 -0.3143
   37MOL0     H 4978   2.177   7.182   1.215  1.4164 -2.7364 -0.0546
   37MOL0     H 4979   0.941   7.657   0.302 -0.8029  0.7360  0.9556
   37MOL0     H 4980   0.780   7.728   0.127 -2.9783  0.5897  1.5461
   37MOL0     H 4981   0.517   7.894  -0.065  2.3180  1.9696 -0.5922
   37MOL0     H 4982   0.311   7.940  -0.228 -0.7825 -1.1989  1.1781
   37MOL0     H 4983   0.144   7.980  -0.340 -1.9886 -1.4525  2.8565
   37MOL0     H 4984   0.053   8.119  -0.397 -0.7653  0.7060  0.7698
   37MOL0     H 4985  -0.027   8.116  -0.136 -2.9752 -1.7113 -0.2747
   37MOL0     H 4986   0.064   7.963  -0.122 -0.2909 -0.9268 -0.3557
   37MOL0     H 4987  -0.136   7.866  -0.180 -1.1544  0.9735  1.4607
   37MOL0     H 4988  -0.073   7.902  -0.342 -0.9820  0.2389  0.1833
   37MOL0     H 4989  -0.242   8.101  -0.176 -1.5894 -0.4340 -0.3166
   37MOL0     H 4990  -0.212   8.092  -0.346  1.1747  1.4983  1.0476
   37MOL0     H 4991  -0.497   7.762  -0.273  0.5245  0.6380  0.9519
   37MOL0     H 4992   0.312   8.340  -0.119 -2.5752 -0.1900  1.1851
   37MOL0     H 4993   0.549   8.333   0.141  0.8835 -1.7902 -1.0443
   37MOL0     H 4994   0.631   8.370  -0.013  0.2170 -0.7135  0.4466
   37MOL0     H 4995   0.470   8.439   0.029  1.9721  2.0283  2.4208
   38MOL0     O 4996   0.272   5.625   3.277 -0.3715  0.0201 -0.2338
   38MOL0     C 4997   0.216   5.527   3.335 -0.7119  0.9451 -0.1387
   38MOL0     O 4998   0.282   5.434   3.411  0.3503  0.3155  0.5867
   38MOL0     C 4999   0.419   5.449   3.436 -0.0634 -0.1896  0.4796
   38MOL0     C 5000   0.515   5.407   3.335 -0.0312 -0.7634 -0.1696
   38MOL0     C 5001   0.649   5.441   3.351  0.3285  0.0531  1.2405
   38MOL0     C 5002   0.690   5.502   3.469 -0.1342  0.2349 -0.6925
   38MOL0     O 5003   0.826   5.527   3.489 -0.6815 -0.5692  0.2778
   38MOL0     C 5004   0.877   5.473   3.607  0.0700  0.9092 -0.3050
   38MOL0     C 5005   1.032   5.446   3.582 -0.6723 -0.0237 -0.0845
   38MOL0     C 5006   1.080   5.343   3.685 -0.1070  0.0569  0.2240
   38MOL0     C 5007   1.187   5.254   3.609 -0.6241 -0.7796  0.2936
   38MOL0     C 5008   1.245   5.151   3.698 -0.1550  0.0469 -0.6665
   38MOL0     C 5009   1.361   5.066   3.644  1.1129  0.6906 -0.2490
   38MOL0     C 5010   1.488   5.130   3.604  0.3212  1.9078  1.0192
   38MOL0     C 5011   1.563   5.178   3.720 -0.2723 -0.8624 -0.0222
   38MOL0     N 5012   1.674   5.264   3.675 -1.4579 -0.6265  0.2216
   38MOL0     C 5013   1.718   5.359   3.758 -0.3939  0.0559 -0.0425
   38MOL0     C 5014   1.841   5.372   3.734 -0.9768 -0.2899  0.2688
   38MOL0     C 5015   1.921   5.466   3.820 -0.4650 -0.0385  0.2524
   38MOL0     C 5016   1.975   5.395   3.942  0.0979 -0.9470  0.5781
   38MOL0     C 5017   2.021   5.496   4.047 -0.1282 -0.4491 -1.1746
   38MOL0     C 5018   2.162   5.567   4.011 -0.7447 -0.0571 -0.5899
   38MOL0     O 5019   2.277   5.469   4.004  0.0170  0.3638 -0.7390
   38MOL0     C 5020   2.386   5.492   3.922  0.9761 -0.9700  0.7616
   38MOL0     C 5021   2.401   5.419   3.806  0.0447  0.7042 -0.0969
   38MOL0     C 5022   2.519   5.430   3.736 -0.5091 -0.2945  0.0767
   38MOL0     C 5023   2.634   5.495   3.778  0.1682 -0.0545  1.1963
   38MOL0     C 5024   2.761   5.491   3.695  0.3989  0.0418 -0.5862
   38MOL0     O 5025   2.772   5.389   3.601  0.0620  0.4624 -0.6882
   38MOL0     C 5026   2.871   5.400   3.519 -0.1943  0.0070  0.1757
   38MOL0     C 5027   2.890   5.510   3.430 -0.1050 -0.3341 -1.4497
   38MOL0     C 5028   2.993   5.510   3.336  0.6195 -0.5294 -0.4961
   38MOL0     C 5029   3.082   5.410   3.321 -0.4285  0.6993 -0.1474
   38MOL0     O 5030   3.180   5.424   3.229 -0.1192  0.4105 -0.7520
   38MOL0     C 5031   3.127   5.457   3.096  0.0724 -0.3670  0.9137
   38MOL0     C 5032   3.215   5.445   2.984 -0.0384  0.1160  0.1788
   38MOL0     C 5033   3.328   5.551   3.022 -0.1710 -0.4864  0.9483
   38MOL0     C 5034   3.439   5.545   2.907 -0.2635 -0.0273 -0.0514
   38MOL0     C 5035   3.556   5.642   2.939  0.3211 -0.3333  0.4660
   38MOL0     C 5036   3.687   5.621   2.857  0.5704  0.8461 -0.0639
   38MOL0     C 5037   3.794   5.714   2.912 -0.1963  0.3563  0.2027
   38MOL0     C 5038   3.930   5.682   2.844  0.5138 -0.2128  1.0803
   38MOL0    Cl 5039   4.041   5.552   2.921  0.0179 -0.1640  0.3132
   38MOL0     C 5040   3.076   5.305   3.404  0.2260  0.3686  0.5986
   38MOL0     C 5041   2.969   5.300   3.499  0.2149 -0.0675  0.3668
   38MOL0     O 5042   2.850   5.574   3.720  0.6021 -0.0330 -0.5362
   38MOL0     C 5043   2.615   5.584   3.885  0.1249  0.5248  0.1102
   38MOL0     C 5044   2.490   5.580   3.947 -0.4389  0.3349  0.1824
   38MOL0     N 5045   1.883   5.292   3.633 -0.5108  0.1144  0.6864
   38MOL0     N 5046   1.779   5.230   3.587 -0.0808 -0.5845 -0.3428
   38MOL0     C 5047   0.596   5.540   3.565  0.1452 -0.0072  0.5823
   38MOL0     C 5048   0.462   5.516   3.539  0.1520 -0.8396  0.1689
   38MOL0     C 5049   0.068   5.526   3.335  0.9932  0.2931  0.1876
   38MOL0     C 5050   0.007   5.398   3.328 -0.1792  0.0080 -0.0758
   38MOL0     C 5051  -0.128   5.385   3.298  0.3135  0.4148 -0.2410
   38MOL0     C 5052  -0.215   5.489   3.293 -0.9610  0.3055 -1.0209
   38MOL0     O 5053  -0.351   5.488   3.276 -0.1864  0.1083 -0.4242
   38MOL0     C 5054  -0.420   5.370   3.236 -0.0405 -0.1937  0.2230
   38MOL0     C 5055  -0.459   5.291   3.360 -0.4096  0.3973 -0.0200
   38MOL0     C 5056  -0.561   5.183   3.327  0.4750 -0.3118  0.2351
   38MOL0     C 5057  -0.634   5.122   3.443 -1.4258 -0.2791 -0.5394
   38MOL0     C 5058  -0.547   5.091   3.562 -1.2589  0.5262  0.0702
   38MOL0     C 5059  -0.470   5.065   3.652 -0.8045  0.7185 -0.6539
   38MOL0     C 5060  -0.162   5.610   3.327  0.3523 -0.2702 -0.2632
   38MOL0     C 5061  -0.029   5.638   3.341 -0.2649  0.7715 -0.8465
   38MOL0     C 5062   0.013   5.781   3.364  0.1524 -0.4106 -0.2346
   38MOL0     H 5063   0.473   5.344   3.256 -1.2401 -2.2734  1.5869
   38MOL0     H 5064   0.714   5.415   3.268 -1.8743 -0.7914 -0.2838
   38MOL0     H 5065   0.867   5.557   3.677 -1.4558  0.4719  0.0535
   38MOL0     H 5066   0.820   5.388   3.647 -1.9916  1.5687 -1.6626
   38MOL0     H 5067   1.082   5.543   3.587  0.0925 -0.4793  2.2263
   38MOL0     H 5068   1.044   5.413   3.478  2.2990  0.6108 -0.0213
   38MOL0     H 5069   0.996   5.281   3.718  0.3778 -1.9425 -1.9494
   38MOL0     H 5070   1.128   5.399   3.766 -2.0055  1.7282  0.2604
   38MOL0     H 5071   1.138   5.212   3.521 -1.6550  2.2692 -0.7292
   38MOL0     H 5072   1.268   5.320   3.574  0.5892 -0.7698  2.8731
   38MOL0     H 5073   1.286   5.196   3.789 -3.7892  0.8370  0.7427
   38MOL0     H 5074   1.163   5.081   3.716 -0.1706 -0.6640 -3.0692
   38MOL0     H 5075   1.386   4.995   3.723 -0.6041  1.4931  1.0759
   38MOL0     H 5076   1.330   4.996   3.566  4.5855 -3.6604  1.8375
   38MOL0     H 5077   1.485   5.216   3.536  3.5102  1.2955 -0.0579
   38MOL0     H 5078   1.549   5.053   3.556 -2.6033  0.1629 -0.1633
   38MOL0     H 5079   1.492   5.238   3.777  1.3650 -0.6434  1.8943
   38MOL0     H 5080   1.608   5.102   3.784  2.1332  2.2667  2.3366
   38MOL0     H 5081   1.679   5.407   3.847  0.6004  0.2598  0.3005
   38MOL0     H 5082   2.006   5.498   3.758 -2.0507  1.7085 -1.1270
   38MOL0     H 5083   1.861   5.553   3.848  0.3323  0.8181 -0.5930
   38MOL0     H 5084   1.899   5.334   3.991  0.1355  0.6395  2.7388
   38MOL0     H 5085   2.053   5.327   3.906  0.5769 -0.0671 -0.1038
   38MOL0     H 5086   2.030   5.443   4.142 -1.2030  0.7240 -0.3816
   38MOL0     H 5087   1.937   5.565   4.062 -0.9290 -1.4874 -0.7283
   38MOL0     H 5088   2.197   5.642   4.083  2.1449  1.1332 -3.0063
   38MOL0     H 5089   2.157   5.613   3.912 -0.7530  1.9504  0.3009
   38MOL0     H 5090   2.324   5.356   3.764 -0.8618  0.7230  1.4653
   38MOL0     H 5091   2.517   5.354   3.658  2.4505  1.7505 -2.2176
   38MOL0     H 5092   2.822   5.595   3.433 -0.6363 -0.7493  1.5020
   38MOL0     H 5093   3.013   5.593   3.267  1.2460 -0.5387 -0.3312
   38MOL0     H 5094   3.043   5.393   3.070  0.1247 -1.3345  2.9273
   38MOL0     H 5095   3.101   5.563   3.091  2.2231  0.1528 -1.2527
   38MOL0     H 5096   3.245   5.341   2.969  1.9993  0.5240  1.0888
   38MOL0     H 5097   3.159   5.472   2.893  1.8950 -0.2482 -1.1928
   38MOL0     H 5098   3.293   5.655   3.017  1.7268  0.1284 -1.0667
   38MOL0     H 5099   3.365   5.530   3.123 -1.8687 -0.6828  1.5698
   38MOL0     H 5100   3.386   5.573   2.816 -0.8818  1.1044  0.6387
   38MOL0     H 5101   3.482   5.446   2.888 -0.3438  0.1343 -1.1162
   38MOL0     H 5102   3.569   5.622   3.046 -4.4291 -1.3416  1.0937
   38MOL0     H 5103   3.516   5.744   2.932 -1.6773 -1.0927  0.0565
   38MOL0     H 5104   3.723   5.518   2.856 -2.0005 -0.1446  0.2536
   38MOL0     H 5105   3.667   5.653   2.754  1.0469  0.1418 -0.3829
   38MOL0     H 5106   3.814   5.705   3.019 -0.1000 -0.3396  0.1314
   38MOL0     H 5107   3.758   5.815   2.893 -0.2396  0.0129 -1.7212
   38MOL0     H 5108   3.918   5.679   2.736  0.0845  5.6665  0.6524
   38MOL0     H 5109   3.988   5.771   2.872  3.4592 -1.8545  0.6289
   38MOL0     H 5110   3.162   5.239   3.403 -0.5582 -0.7829  2.9478
   38MOL0     H 5111   2.953   5.224   3.575 -1.3757 -0.5332 -0.3954
   38MOL0     H 5112   2.692   5.659   3.903 -0.4684  1.2085 -0.1614
   38MOL0     H 5113   2.465   5.650   4.026 -2.1026 -2.1684  2.0189
   38MOL0     H 5114   0.628   5.609   3.642  1.2828  1.3216 -0.9949
   38MOL0     H 5115   0.400   5.565   3.614  2.0896 -0.5829  1.6821
   38MOL0     H 5116   0.073   5.311   3.325  0.4283  0.4546 -3.4472
   38MOL0     H 5117  -0.158   5.284   3.274  1.5080 -1.0074  3.4372
   38MOL0     H 5118  -0.354   5.312   3.170  2.3178  0.7746  1.6125
   38MOL0     H 5119  -0.509   5.408   3.184  0.0689 -0.3914 -0.1126
   38MOL0     H 5120  -0.504   5.360   3.431 -2.1204  2.2413 -2.6840
   38MOL0     H 5121  -0.368   5.243   3.397 -1.2342 -0.8449  0.4545
   38MOL0     H 5122  -0.504   5.105   3.275  0.0146  0.0124 -0.7849
   38MOL0     H 5123  -0.630   5.222   3.251  0.5903  0.0915  0.3335
   38MOL0     H 5124  -0.689   5.208   3.483  0.6394 -0.9519  4.6719
   38MOL0     H 5125  -0.699   5.037   3.424 -1.6626 -1.4155  4.0903
   38MOL0     H 5126  -0.412   5.026   3.733  0.7859 -2.1417 -2.9739
   38MOL0     H 5127  -0.235   5.688   3.342  1.1338  0.5611 -0.6783
   38MOL0     H 5128   0.094   5.788   3.438 -0.6346  2.2670  0.5154
   38MOL0     H 5129   0.043   5.828   3.270 -2.6964 -4.3226 -3.4442
   38MOL0     H 5130  -0.069   5.835   3.414  0.0374 -1.6918  1.0257
   39MOL0     O 5131   2.555   2.777   2.734  0.4507 -0.2171 -0.5907
   39MOL0     C 5132   2.515   2.893   2.741  0.2558 -0.0463  0.6478
   39MOL0     O 5133   2.528   2.973   2.856  0.2985  0.4161 -0.1339
   39MOL0     C 5134   2.588   2.928   2.973  0.7575 -0.0460 -0.5130
   39MOL0     C 5135   2.733   2.919   2.984 -0.1634  0.1742  1.0792
   39MOL0     C 5136   2.782   2.893   3.108  0.1953 -0.2468 -0.9499
   39MOL0     C 5137   2.709   2.887   3.222  0.3983 -0.8279 -0.9190
   39MOL0     O 5138   2.776   2.875   3.338  0.0851  0.2570  0.0142
   39MOL0     C 5139   2.731   2.772   3.425  0.2249 -0.0968  0.2753
   39MOL0     C 5140   2.847   2.719   3.513 -0.9290  0.1078 -0.0691
   39MOL0     C 5141   2.802   2.616   3.608 -0.4540 -0.1916 -0.6307
   39MOL0     C 5142   2.929   2.564   3.679  0.7098  0.2248  0.8986
   39MOL0     C 5143   2.893   2.500   3.805  0.4052  0.9396  0.3585
   39MOL0     C 5144   3.010   2.468   3.904 -0.7906  0.1769  0.7530
   39MOL0     C 5145   3.104   2.379   3.835  1.0914  0.3770  0.5108
   39MOL0     C 5146   3.230   2.337   3.913 -0.4005 -0.2444  0.6312
   39MOL0     N 5147   3.300   2.456   3.973  0.2631  0.3866 -0.2313
   39MOL0     C 5148   3.276   2.509   4.095  0.4440  0.0225 -0.2347
   39MOL0     C 5149   3.366   2.603   4.105 -0.4220  0.0827  0.5051
   39MOL0     C 5150   3.372   2.698   4.218 -0.0906 -0.2577 -0.3069
   39MOL0     C 5151   3.509   2.720   4.287  0.5041  0.3078 -0.7605
   39MOL0     C 5152   3.585   2.826   4.208 -0.1758  0.1674  0.4781
   39MOL0     C 5153   3.712   2.870   4.279  0.1200 -0.0798  0.5717
   39MOL0     O 5154   3.754   3.002   4.230 -0.1463  0.1789 -0.4100
   39MOL0     C 5155   3.862   3.058   4.290 -0.7914  0.2840  0.8588
   39MOL0     C 5156   3.963   2.983   4.355  0.7150  0.1935  0.4987
   39MOL0     C 5157   4.085   3.036   4.383 -0.7159  0.0726 -0.2523
   39MOL0     C 5158   4.121   3.163   4.331  0.2698  0.6189 -0.4051
   39MOL0     C 5159   4.252   3.214   4.339  0.3109 -0.7802  1.4211
   39MOL0     O 5160   4.342   3.161   4.425  0.1914 -0.3928  0.0307
   39MOL0     C 5161   4.471   3.201   4.411  0.6580  1.1335  0.7796
   39MOL0     C 5162   4.539   3.190   4.281  0.8293 -0.6624 -0.5331
   39MOL0     C 5163   4.668   3.247   4.280  0.4013  0.1435  0.1332
   39MOL0     C 5164   4.737   3.298   4.392  0.0747 -0.6827 -1.1645
   39MOL0     O 5165   4.867   3.347   4.396  0.1545 -0.4498  0.6388
   39MOL0     C 5166   4.936   3.363   4.272  0.7503 -0.3861  1.1903
   39MOL0     C 5167   5.071   3.432   4.292 -0.6521  1.2830  0.2507
   39MOL0     C 5168   5.055   3.574   4.333  0.3692 -0.7245  0.0985
   39MOL0     C 5169   5.184   3.658   4.370  0.2044 -0.4785  0.1912
   39MOL0     C 5170   5.277   3.656   4.248 -0.6224 -0.0812  0.3823
   39MOL0     C 5171   5.411   3.746   4.237 -0.5131  0.1608 -0.2498
   39MOL0     C 5172   5.511   3.704   4.122  0.2090 -0.0117  0.1091
   39MOL0     C 5173   5.469   3.752   3.984 -1.1235 -0.0526 -0.1732
   39MOL0    Cl 5174   5.299   3.702   3.935 -0.2304  0.6625  0.1264
   39MOL0     C 5175   4.663   3.298   4.507 -0.6535  0.3726  0.9345
   39MOL0     C 5176   4.533   3.254   4.520  0.3799  0.6742  0.3447
   39MOL0     O 5177   4.271   3.312   4.268 -0.6821  0.6351 -0.6665
   39MOL0     C 5178   4.018   3.235   4.267 -0.2601 -0.4329 -0.6416
   39MOL0     C 5179   3.894   3.180   4.252 -0.0324 -0.2639  1.0429
   39MOL0     N 5180   3.447   2.606   3.989  0.0816  0.2755 -0.2852
   39MOL0     N 5181   3.397   2.519   3.911  0.0149 -0.2670  0.4892
   39MOL0     C 5182   2.569   2.912   3.213 -0.2105  0.3977 -0.5105
   39MOL0     C 5183   2.500   2.916   3.088 -0.6832  0.0146  0.0133
   39MOL0     C 5184   2.446   2.955   2.620  1.0562  1.3698  0.2400
   39MOL0     C 5185   2.419   3.090   2.636  0.6780  0.0021 -0.7315
   39MOL0     C 5186   2.363   3.165   2.532 -0.2909 -0.1823 -0.0770
   39MOL0     C 5187   2.333   3.105   2.412  0.3057 -0.3602  0.0591
   39MOL0     O 5188   2.294   3.190   2.307 -0.5553  0.1863 -0.0465
   39MOL0     C 5189   2.303   3.139   2.169  1.7534 -0.1137  0.1052
   39MOL0     C 5190   2.305   3.251   2.068 -0.5407 -0.0117  0.4618
   39MOL0     C 5191   2.383   3.378   2.114 -0.1783  0.1468 -0.1466
   39MOL0     C 5192   2.375   3.485   2.010  1.0818 -0.7082  0.1374
   39MOL0     C 5193   2.433   3.611   2.050 -0.9817  0.7131  0.6398
   39MOL0     C 5194   2.482   3.721   2.063  0.2740 -0.5199 -0.1455
   39MOL0     C 5195   2.348   2.958   2.406  0.7389  0.3788  0.2096
   39MOL0     C 5196   2.407   2.883   2.509  1.2875  0.4120 -0.0173
   39MOL0     C 5197   2.424   2.734   2.500 -0.1461 -0.5547 -0.3140
   39MOL0     H 5198   2.790   2.942   2.894 -1.4481 -1.6726 -0.2636
   39MOL0     H 5199   2.887   2.875   3.127 -0.3708 -1.9310  0.8854
   39MOL0     H 5200   2.661   2.827   3.490  2.6229  1.2346  1.8813
   39MOL0     H 5201   2.687   2.695   3.361  2.1592 -1.0182  0.0019
   39MOL0     H 5202   2.902   2.797   3.567  2.8784 -1.4217 -1.3596
   39MOL0     H 5203   2.927   2.681   3.449  0.6715  4.1726 -0.7669
   39MOL0     H 5204   2.754   2.534   3.555 -1.9533 -0.9820  1.7917
   39MOL0     H 5205   2.734   2.659   3.682  0.2025  0.1108 -0.1869
   39MOL0     H 5206   2.991   2.494   3.622 -0.5615  0.2450 -0.5719
   39MOL0     H 5207   2.993   2.649   3.702  0.4505  1.3725 -2.1886
   39MOL0     H 5208   2.818   2.563   3.853 -0.9973  2.0876 -3.0366
   39MOL0     H 5209   2.846   2.408   3.768  2.2222  0.7480 -1.6877
   39MOL0     H 5210   3.051   2.564   3.939  1.3558  0.8427 -3.1120
   39MOL0     H 5211   2.960   2.416   3.987 -3.2946 -1.3086 -1.5444
   39MOL0     H 5212   3.138   2.435   3.748 -3.2475  1.6207 -0.6307
   39MOL0     H 5213   3.058   2.287   3.797  3.7772 -1.0503  0.4849
   39MOL0     H 5214   3.182   2.291   3.999 -1.6498  1.3141  0.8243
   39MOL0     H 5215   3.296   2.267   3.862 -0.5158  0.1436 -0.0806
   39MOL0     H 5216   3.218   2.476   4.181  2.2168  1.3937  1.5767
   39MOL0     H 5217   3.332   2.790   4.176  0.8830 -0.5216 -1.8957
   39MOL0     H 5218   3.302   2.677   4.299 -2.1651 -0.3078 -2.0150
   39MOL0     H 5219   3.498   2.754   4.391 -3.2998 -0.6073 -0.7432
   39MOL0     H 5220   3.568   2.628   4.284 -0.9441 -0.6261 -1.2864
   39MOL0     H 5221   3.521   2.913   4.194 -3.3879 -1.7503  2.1343
   39MOL0     H 5222   3.611   2.794   4.106 -0.9182  1.2678 -0.0741
   39MOL0     H 5223   3.788   2.796   4.251  1.9651  2.5243 -1.7761
   39MOL0     H 5224   3.682   2.863   4.384 -2.7669 -1.9622 -0.2336
   39MOL0     H 5225   3.945   2.883   4.392 -0.3606 -0.1826 -0.9727
   39MOL0     H 5226   4.157   2.979   4.441 -2.1030  0.6449  2.1704
   39MOL0     H 5227   4.493   3.147   4.193 -4.7645  0.5566  1.4390
   39MOL0     H 5228   4.714   3.245   4.182 -0.1530  1.0868 -0.1583
   39MOL0     H 5229   4.971   3.270   4.227 -1.7733 -0.2320 -1.4247
   39MOL0     H 5230   4.876   3.417   4.198 -2.2817 -1.6053  2.6034
   39MOL0     H 5231   5.135   3.387   4.369  2.0092  2.3349 -1.1956
   39MOL0     H 5232   5.120   3.423   4.194 -2.1715 -2.7840 -0.3221
   39MOL0     H 5233   5.007   3.626   4.250 -0.9287 -1.0402  0.6278
   39MOL0     H 5234   4.969   3.569   4.400 -1.0509  2.3879 -1.3263
   39MOL0     H 5235   5.232   3.598   4.449 -1.8349 -1.6586  0.5930
   39MOL0     H 5236   5.158   3.760   4.399  0.5434 -0.6933  1.3293
   39MOL0     H 5237   5.215   3.683   4.162  1.5726 -3.0352 -2.3369
   39MOL0     H 5238   5.315   3.556   4.230  3.0566  1.2397  0.0946
   39MOL0     H 5239   5.394   3.854   4.239  3.2660  0.9057  2.9301
   39MOL0     H 5240   5.473   3.731   4.325  0.7853  0.3742 -1.0988
   39MOL0     H 5241   5.515   3.595   4.111 -2.3252 -0.3674  2.0049
   39MOL0     H 5242   5.612   3.741   4.143  1.2711 -2.1390 -0.8619
   39MOL0     H 5243   5.459   3.861   3.975  0.9993  0.2646  0.7348
   39MOL0     H 5244   5.549   3.719   3.917 -0.7610  0.7328 -0.1355
   39MOL0     H 5245   4.718   3.320   4.598  0.8246 -0.1598  0.2193
   39MOL0     H 5246   4.485   3.238   4.616  2.5360 -0.7061  1.2603
   39MOL0     H 5247   4.049   3.329   4.222  2.4628 -1.2073 -0.5429
   39MOL0     H 5248   3.816   3.238   4.203  0.6311  0.8319  1.2405
   39MOL0     H 5249   2.506   2.916   3.301 -1.6463  1.3552 -1.5482
   39MOL0     H 5250   2.393   2.910   3.071 -0.8118  0.6567  0.5891
   39MOL0     H 5251   2.436   3.141   2.730 -0.3097  0.9931 -1.0769
   39MOL0     H 5252   2.354   3.273   2.525 -0.8417 -0.2808 -1.1510
   39MOL0     H 5253   2.221   3.074   2.136  2.2489  0.3162 -2.1517
   39MOL0     H 5254   2.390   3.073   2.167 -0.7216 -3.6401  0.2381
   39MOL0     H 5255   2.198   3.266   2.053 -0.3209  0.4390 -0.8476
   39MOL0     H 5256   2.352   3.217   1.975 -1.2806 -0.3523  0.2088
   39MOL0     H 5257   2.482   3.360   2.156 -0.5625  2.7421  2.1396
   39MOL0     H 5258   2.326   3.415   2.199 -1.3314 -0.3720 -0.6714
   39MOL0     H 5259   2.420   3.457   1.915 -0.4159 -1.2470 -0.4489
   39MOL0     H 5260   2.270   3.507   1.988  2.0787  0.6371 -4.1800
   39MOL0     H 5261   2.510   3.824   2.050  1.8498 -1.0958 -1.9074
   39MOL0     H 5262   2.327   2.918   2.307  1.4966  2.8567 -1.0459
   39MOL0     H 5263   2.527   2.697   2.489 -0.9488 -2.3030 -3.1247
   39MOL0     H 5264   2.388   2.695   2.595  3.0138 -0.6237  0.9707
   39MOL0     H 5265   2.373   2.694   2.412  0.2921 -0.1421 -0.7598
   40MOL0     O 5266   3.245  11.118   1.152 -0.5143  0.3402 -0.0557
   40MOL0     C 5267   3.290  11.002   1.147 -0.8182  0.3555 -0.7072
   40MOL0     O 5268   3.345  10.929   1.250 -0.5872 -0.1611 -0.3363
   40MOL0     C 5269   3.434  10.990   1.332  0.2856  0.0203 -0.3118
   40MOL0     C 5270   3.452  10.947   1.465  0.1952 -1.1498 -0.1609
   40MOL0     C 5271   3.552  11.002   1.550 -0.2213 -0.2931  0.1727
   40MOL0     C 5272   3.647  11.092   1.500  0.1160  0.6912  0.5195
   40MOL0     O 5273   3.749  11.128   1.579 -0.0178 -0.9797 -0.0769
   40MOL0     C 5274   3.870  11.182   1.523  0.2630 -0.0043  0.8199
   40MOL0     C 5275   3.942  11.219   1.650  0.4293 -0.3224 -0.4932
   40MOL0     C 5276   4.054  11.308   1.626 -0.2433 -0.3239 -0.8495
   40MOL0     C 5277   4.103  11.391   1.741 -0.0271 -0.6921  0.2695
   40MOL0     C 5278   4.224  11.483   1.708  0.5725  0.4040  1.1229
   40MOL0     C 5279   4.359  11.409   1.698 -0.2015 -0.1847 -0.1419
   40MOL0     C 5280   4.465  11.495   1.629  0.7365  0.2228 -0.7550
   40MOL0     C 5281   4.453  11.485   1.466 -0.5668  0.2108 -0.0631
   40MOL0     N 5282   4.505  11.597   1.393 -0.8192  0.1910  0.2266
   40MOL0     C 5283   4.539  11.589   1.259  0.0759  0.6406  0.5583
   40MOL0     C 5284   4.588  11.709   1.228  0.3032 -1.0310 -0.9851
   40MOL0     C 5285   4.654  11.766   1.107  0.3635  0.4913 -0.0527
   40MOL0     C 5286   4.774  11.683   1.063 -0.8655 -0.7574 -0.3586
   40MOL0     C 5287   4.879  11.691   1.182 -0.1910  0.5471 -0.1035
   40MOL0     C 5288   5.013  11.633   1.139 -0.7266  0.8704 -0.1058
   40MOL0     O 5289   5.088  11.622   1.264 -0.5193  0.5981  0.3396
   40MOL0     C 5290   5.193  11.535   1.259  0.3899 -0.0398 -0.4222
   40MOL0     C 5291   5.258  11.502   1.377 -0.2697 -0.0325 -0.3339
   40MOL0     C 5292   5.360  11.415   1.397  0.4830  0.9929  0.0743
   40MOL0     C 5293   5.403  11.347   1.286  0.4278 -0.0233  0.0761
   40MOL0     C 5294   5.525  11.268   1.292  0.7027 -0.4659 -0.1344
   40MOL0     O 5295   5.576  11.228   1.407  0.3696  0.4379 -0.2613
   40MOL0     C 5296   5.672  11.130   1.397  0.0549  0.6820 -0.5303
   40MOL0     C 5297   5.809  11.147   1.403 -0.4206 -0.7656  0.2916
   40MOL0     C 5298   5.901  11.055   1.375  0.5052 -0.5215 -0.9288
   40MOL0     C 5299   5.854  10.932   1.319  0.0884  0.4949 -0.4721
   40MOL0     O 5300   5.929  10.820   1.283 -0.1829 -0.4257  0.6959
   40MOL0     C 5301   6.061  10.853   1.238 -0.4826 -0.0524  0.4903
   40MOL0     C 5302   6.113  10.720   1.170  0.3810  0.0371 -0.6252
   40MOL0     C 5303   6.097  10.722   1.024 -0.2099 -1.1621  0.5683
   40MOL0     C 5304   6.102  10.583   0.969 -0.4168  0.2884 -0.6058
   40MOL0     C 5305   6.100  10.587   0.810 -0.3521 -0.2023 -0.1820
   40MOL0     C 5306   6.223  10.623   0.717 -0.8302 -0.0019  0.5815
   40MOL0     C 5307   6.200  10.569   0.576  0.0440 -0.2514  0.1102
   40MOL0     C 5308   6.333  10.587   0.503 -0.8755 -0.8767  0.5146
   40MOL0    Cl 5309   6.306  10.595   0.332  0.5855  0.2382  0.7257
   40MOL0     C 5310   5.720  10.904   1.322 -0.0597 -0.5773  0.5383
   40MOL0     C 5311   5.627  11.003   1.359  0.2211  0.8237 -0.6043
   40MOL0     O 5312   5.576  11.252   1.182  0.3309 -0.1332 -0.1726
   40MOL0     C 5313   5.340  11.370   1.158  0.6718  0.4652 -0.1571
   40MOL0     C 5314   5.246  11.470   1.146  0.5756 -0.7985  0.0864
   40MOL0     N 5315   4.568  11.786   1.346 -0.0443  0.2244 -0.4983
   40MOL0     N 5316   4.530  11.713   1.443  0.0561  0.1583 -0.3369
   40MOL0     C 5317   3.631  11.126   1.368 -0.7660 -0.4311  0.3604
   40MOL0     C 5318   3.528  11.079   1.285  0.8936 -0.1660  0.6202
   40MOL0     C 5319   3.256  10.928   1.021 -0.5216 -0.2846  0.8436
   40MOL0     C 5320   3.238  10.789   1.040  0.6509 -0.0847  0.1071
   40MOL0     C 5321   3.202  10.716   0.918 -0.0381  0.5181 -0.6079
   40MOL0     C 5322   3.202  10.765   0.786  0.0058 -0.6217 -0.0172
   40MOL0     O 5323   3.166  10.706   0.669  0.3375  1.5505 -0.1758
   40MOL0     C 5324   3.178  10.566   0.650  0.5045 -0.2275 -0.2916
   40MOL0     C 5325   3.054  10.498   0.607  0.0734 -0.7418 -0.4750
   40MOL0     C 5326   3.011  10.553   0.473 -0.5920 -0.0074  0.1702
   40MOL0     C 5327   2.886  10.477   0.439 -1.2966 -0.4247  0.2887
   40MOL0     C 5328   2.846  10.494   0.294 -0.3048 -0.0287  0.4303
   40MOL0     C 5329   2.789  10.521   0.185 -0.1940  0.3120  0.0840
   40MOL0     C 5330   3.222  10.898   0.777  0.0960 -0.5057  0.5060
   40MOL0     C 5331   3.247  10.984   0.885 -0.6682  0.0577  0.0192
   40MOL0     C 5332   3.280  11.121   0.857  0.4346 -0.4985 -0.1620
   40MOL0     H 5333   3.384  10.873   1.506 -0.9664  0.4565  0.9957
   40MOL0     H 5334   3.570  10.961   1.649 -1.3436  2.8182  1.8182
   40MOL0     H 5335   3.920  11.108   1.460 -1.8674  2.1089 -3.8430
   40MOL0     H 5336   3.869  11.273   1.463  0.7387 -0.9211 -0.6173
   40MOL0     H 5337   3.960  11.132   1.714 -0.2455  1.2007  1.9021
   40MOL0     H 5338   3.873  11.276   1.713 -0.2261  0.6659 -2.0657
   40MOL0     H 5339   4.018  11.380   1.552 -3.3679 -2.1288 -1.2669
   40MOL0     H 5340   4.129  11.250   1.574 -1.9421 -3.5142  0.0007
   40MOL0     H 5341   4.017  11.448   1.777 -0.2814 -2.1773  2.1707
   40MOL0     H 5342   4.129  11.325   1.824 -1.2539 -1.7636 -0.1693
   40MOL0     H 5343   4.201  11.530   1.611 -0.1895  1.3486  1.7462
   40MOL0     H 5344   4.231  11.553   1.791 -1.7909  1.4592  0.5399
   40MOL0     H 5345   4.378  11.384   1.802 -2.0735  2.1653  0.8681
   40MOL0     H 5346   4.355  11.310   1.651 -3.3547  0.4545 -1.5192
   40MOL0     H 5347   4.562  11.462   1.669  0.3830  1.6339  1.4134
   40MOL0     H 5348   4.454  11.601   1.654 -0.5146  0.0621 -0.5505
   40MOL0     H 5349   4.508  11.394   1.439 -4.4610 -3.2760  2.4941
   40MOL0     H 5350   4.350  11.468   1.432  0.1153 -0.6427 -1.8189
   40MOL0     H 5351   4.520  11.506   1.193  0.9880 -0.3717  1.5320
   40MOL0     H 5352   4.575  11.756   1.033 -0.1560  3.3042  0.0300
   40MOL0     H 5353   4.686  11.868   1.131 -1.4049  1.1315 -0.2745
   40MOL0     H 5354   4.738  11.586   1.028 -0.0203 -0.8728 -0.9330
   40MOL0     H 5355   4.812  11.723   0.969  1.6815 -1.4771  0.2830
   40MOL0     H 5356   4.838  11.629   1.262  0.4959  2.4574  1.8150
   40MOL0     H 5357   4.885  11.793   1.221 -0.6144  0.6269 -0.2390
   40MOL0     H 5358   5.058  11.697   1.062  0.3078  0.1103 -0.1591
   40MOL0     H 5359   4.997  11.536   1.093 -3.2068  2.2361 -2.4051
   40MOL0     H 5360   5.220  11.543   1.470 -0.0542 -2.1586  0.7457
   40MOL0     H 5361   5.409  11.398   1.492 -2.0527 -0.7064  1.1907
   40MOL0     H 5362   5.847  11.244   1.433  0.6749 -0.3157 -2.2709
   40MOL0     H 5363   6.008  11.067   1.361  1.0632 -4.3082 -1.0974
   40MOL0     H 5364   6.064  10.938   1.168  0.5047 -0.0455  0.5335
   40MOL0     H 5365   6.113  10.882   1.329 -1.8217 -0.6308  1.4762
   40MOL0     H 5366   6.217  10.723   1.203  0.5062  0.0253 -1.0104
   40MOL0     H 5367   6.054  10.634   1.204 -1.3739  1.3318 -0.2417
   40MOL0     H 5368   6.003  10.774   1.004  2.2199  4.4034  1.7596
   40MOL0     H 5369   6.180  10.776   0.978  0.5219 -1.7745  1.1626
   40MOL0     H 5370   6.026  10.513   1.006  0.9049 -0.4522  0.8100
   40MOL0     H 5371   6.193  10.531   1.002 -0.6312  0.1962 -0.1509
   40MOL0     H 5372   6.012  10.643   0.776  1.7940  2.9195 -1.0424
   40MOL0     H 5373   6.060  10.489   0.783 -1.9472  0.1847  0.6499
   40MOL0     H 5374   6.234  10.731   0.714  0.8832 -0.1557 -2.6003
   40MOL0     H 5375   6.313  10.571   0.753 -0.7656  0.3361  0.9206
   40MOL0     H 5376   6.125  10.622   0.517 -1.5940 -2.6612 -0.1047
   40MOL0     H 5377   6.169  10.464   0.572  0.5454 -0.3573 -2.6660
   40MOL0     H 5378   6.375  10.684   0.529 -1.2246 -0.5645 -0.0591
   40MOL0     H 5379   6.404  10.512   0.539 -0.6031  0.2696  2.4854
   40MOL0     H 5380   5.685  10.813   1.275 -2.2534  1.1020 -1.3124
   40MOL0     H 5381   5.521  10.983   1.346  0.6804 -0.4158 -3.1829
   40MOL0     H 5382   5.373  11.329   1.063 -0.7163 -0.5844 -0.2146
   40MOL0     H 5383   5.204  11.491   1.048 -0.2063  0.8766  0.7421
   40MOL0     H 5384   3.701  11.192   1.317 -0.4036 -0.1256  1.2230
   40MOL0     H 5385   3.517  11.112   1.183 -1.5577  1.2133  1.2429
   40MOL0     H 5386   3.237  10.740   1.136 -1.7061 -0.3174  0.0104
   40MOL0     H 5387   3.185  10.610   0.933 -1.3000  0.7351 -0.4260
   40MOL0     H 5388   3.209  10.518   0.744 -1.7806 -2.4932 -0.6005
   40MOL0     H 5389   3.261  10.551   0.580 -0.0247  0.9287 -1.1985
   40MOL0     H 5390   2.982  10.525   0.685  0.8440  0.1521 -0.0467
   40MOL0     H 5391   3.056  10.389   0.601 -2.2029 -0.8536 -0.2688
   40MOL0     H 5392   3.097  10.541   0.407 -0.1962  0.3570  0.6091
   40MOL0     H 5393   2.986  10.658   0.490 -0.0787  0.2303 -0.5336
   40MOL0     H 5394   2.905  10.371   0.460  2.2716 -0.4980 -2.3649
   40MOL0     H 5395   2.803  10.514   0.499  0.2492  0.5334  1.9309
   40MOL0     H 5396   2.738  10.543   0.094  1.7401 -0.6344 -1.3178
   40MOL0     H 5397   3.205  10.933   0.676 -3.2834 -0.0954  1.0772
   40MOL0     H 5398   3.350  11.146   0.938  0.8946 -3.2097  0.3774
   40MOL0     H 5399   3.336  11.138   0.766  0.8766  0.7169  0.3245
   40MOL0     H 5400   3.183  11.170   0.844 -0.1919 -1.6684 -0.1037
   41MOL0     O 5401   4.844   2.108   1.982  0.2610 -0.0205  0.6290
   41MOL0     C 5402   4.741   2.124   1.914 -0.8430  0.1317 -0.1369
   41MOL0     O 5403   4.732   2.222   1.823  0.0195 -0.0250  0.6765
   41MOL0     C 5404   4.825   2.315   1.805 -0.7946  0.2385 -0.5972
   41MOL0     C 5405   4.943   2.305   1.724  0.0613  0.0030  0.1006
   41MOL0     C 5406   5.028   2.417   1.718 -0.6565 -0.3732  0.9281
   41MOL0     C 5407   5.010   2.531   1.781  0.5124  0.2438 -0.5776
   41MOL0     O 5408   5.105   2.623   1.754 -0.5540 -0.5502  0.5173
   41MOL0     C 5409   5.086   2.756   1.809  0.4805 -0.4821  0.1413
   41MOL0     C 5410   5.173   2.861   1.746  0.1881 -0.0722 -0.1931
   41MOL0     C 5411   5.322   2.858   1.778  0.0147 -0.6006  0.5520
   41MOL0     C 5412   5.357   2.822   1.923 -0.5926 -0.8146  0.1862
   41MOL0     C 5413   5.494   2.854   1.966 -0.2809 -0.4721  0.1297
   41MOL0     C 5414   5.591   2.783   1.879  0.0500  0.0515  0.7837
   41MOL0     C 5415   5.727   2.798   1.948 -0.2042 -1.3382  0.3537
   41MOL0     C 5416   5.847   2.723   1.877 -0.5465  0.5356  0.4250
   41MOL0     N 5417   5.974   2.760   1.939  0.1333  0.8690  0.2856
   41MOL0     C 5418   6.036   2.712   2.050 -0.8757  0.2857  0.1078
   41MOL0     C 5419   6.173   2.739   2.034  1.1110 -0.1536 -0.3937
   41MOL0     C 5420   6.286   2.695   2.120 -1.3049 -0.3160  0.9093
   41MOL0     C 5421   6.426   2.697   2.055  0.1630 -0.3921  0.1197
   41MOL0     C 5422   6.531   2.654   2.156  0.0787  0.8099  0.0577
   41MOL0     C 5423   6.669   2.665   2.094  0.6158 -0.9259 -0.7794
   41MOL0     O 5424   6.677   2.584   1.979 -0.2634  0.3786 -0.5227
   41MOL0     C 5425   6.799   2.553   1.915 -0.5084  0.6838  0.4616
   41MOL0     C 5426   6.913   2.622   1.951  0.4014  1.0136  0.1858
   41MOL0     C 5427   7.045   2.588   1.902  0.3838 -0.7540  0.2408
   41MOL0     C 5428   7.066   2.478   1.814  0.7620 -0.1520  0.7630
   41MOL0     C 5429   7.200   2.438   1.758  0.0856 -0.0604  1.5913
   41MOL0     O 5430   7.208   2.330   1.679 -0.4635  0.8586  0.6304
   41MOL0     C 5431   7.331   2.287   1.638 -0.1888 -0.0244 -0.6028
   41MOL0     C 5432   7.430   2.357   1.576  0.4795 -0.2231  1.0841
   41MOL0     C 5433   7.553   2.299   1.560 -0.3833  0.0471  0.5445
   41MOL0     C 5434   7.580   2.163   1.589 -0.7246  0.1293  0.2155
   41MOL0     O 5435   7.709   2.111   1.593  0.8356  0.9253  0.6215
   41MOL0     C 5436   7.795   2.198   1.666  0.3894  0.1014 -0.3099
   41MOL0     C 5437   7.919   2.130   1.726 -0.0984 -0.1982  0.9308
   41MOL0     C 5438   8.016   2.064   1.629  0.6206  0.4546 -0.3900
   41MOL0     C 5439   8.068   2.160   1.524  0.3539 -0.3861  0.6580
   41MOL0     C 5440   8.171   2.092   1.433  0.1220  0.3898 -0.8212
   41MOL0     C 5441   8.220   2.170   1.315  0.3549 -0.1699  1.0761
   41MOL0     C 5442   8.266   2.087   1.195 -0.6858 -0.3202  1.1202
   41MOL0     C 5443   8.401   2.022   1.210 -0.2618 -0.9375 -0.1966
   41MOL0    Cl 5444   8.428   1.949   1.051 -0.1973 -0.0991  0.0934
   41MOL0     C 5445   7.472   2.089   1.630 -0.3387  0.5156  0.6587
   41MOL0     C 5446   7.352   2.155   1.668  0.0882 -1.0038  0.0657
   41MOL0     O 5447   7.290   2.510   1.787  0.1355 -0.1047  0.4230
   41MOL0     C 5448   6.944   2.408   1.773  0.3408 -0.2711 -0.3863
   41MOL0     C 5449   6.811   2.451   1.818 -0.7662  0.3625 -0.2126
   41MOL0     N 5450   6.189   2.815   1.913 -0.0781  0.0536 -0.0671
   41MOL0     N 5451   6.068   2.826   1.865 -0.1279 -0.7832 -0.3536
   41MOL0     C 5452   4.885   2.546   1.855  0.7024  0.1519  0.2960
   41MOL0     C 5453   4.789   2.437   1.859 -0.7418 -0.4039 -0.1249
   41MOL0     C 5454   4.641   2.020   1.909  0.1207  0.1264 -0.6570
   41MOL0     C 5455   4.506   2.055   1.916  0.4974  1.0675 -0.2908
   41MOL0     C 5456   4.400   1.962   1.931 -0.1600  0.6870  0.1537
   41MOL0     C 5457   4.437   1.831   1.944 -0.0018  1.4215 -0.2252
   41MOL0     O 5458   4.331   1.749   1.976 -0.2376  0.1547 -0.2533
   41MOL0     C 5459   4.262   1.695   1.857  0.4659  0.5653 -0.0842
   41MOL0     C 5460   4.307   1.547   1.833 -0.6863 -0.8637 -0.0959
   41MOL0     C 5461   4.308   1.459   1.969  0.3620 -0.8417  0.3167
   41MOL0     C 5462   4.165   1.451   2.035 -0.0508  0.2752 -0.3936
   41MOL0     C 5463   4.122   1.316   2.048 -0.0068  0.3509  0.5556
   41MOL0     C 5464   4.074   1.204   2.067 -0.0986  0.0041  0.0312
   41MOL0     C 5465   4.571   1.787   1.934 -0.1790 -0.3311 -0.1887
   41MOL0     C 5466   4.678   1.881   1.916  0.8735  0.2463 -0.8667
   41MOL0     C 5467   4.811   1.837   1.924 -0.1591  0.9475  0.1185
   41MOL0     H 5468   4.963   2.210   1.677 -1.3713 -1.0343  1.4894
   41MOL0     H 5469   5.115   2.411   1.654 -1.2552  2.9042 -0.4328
   41MOL0     H 5470   4.984   2.790   1.787  0.7913  0.5763  0.2684
   41MOL0     H 5471   5.092   2.755   1.918 -2.1282 -2.0597  0.3614
   41MOL0     H 5472   5.146   2.961   1.781 -0.4254 -0.1126 -0.5507
   41MOL0     H 5473   5.159   2.853   1.638  2.0893  0.5625 -0.5192
   41MOL0     H 5474   5.359   2.952   1.736 -2.0238 -0.7204 -1.7847
   41MOL0     H 5475   5.364   2.790   1.703  2.5788  1.7414 -0.3322
   41MOL0     H 5476   5.288   2.874   1.990 -0.8171 -1.1528  0.2201
   41MOL0     H 5477   5.340   2.716   1.940 -0.6456 -0.7551  0.5024
   41MOL0     H 5478   5.505   2.963   1.966 -0.0633 -0.4769 -0.8867
   41MOL0     H 5479   5.509   2.813   2.066  0.7630  1.2685  0.7412
   41MOL0     H 5480   5.564   2.678   1.861  0.6800  0.1859 -1.1520
   41MOL0     H 5481   5.593   2.829   1.780 -0.1565 -2.8520 -0.6757
   41MOL0     H 5482   5.720   2.772   2.054  1.1175  0.6896  0.9808
   41MOL0     H 5483   5.747   2.905   1.939 -0.6737 -1.2252  0.5951
   41MOL0     H 5484   5.835   2.614   1.878  0.5280  0.4132  1.1930
   41MOL0     H 5485   5.856   2.760   1.775 -0.2559  0.3250  0.3739
   41MOL0     H 5486   5.999   2.639   2.121  0.9265  0.8067  1.7009
   41MOL0     H 5487   6.287   2.765   2.204 -1.1646  0.4637  0.2686
   41MOL0     H 5488   6.263   2.597   2.162  0.0198 -0.1812  2.0431
   41MOL0     H 5489   6.417   2.627   1.972  1.1123 -1.4319  0.8652
   41MOL0     H 5490   6.464   2.793   2.019  1.9635 -0.8547  0.6772
   41MOL0     H 5491   6.505   2.551   2.184 -2.0078  0.9039 -1.2507
   41MOL0     H 5492   6.518   2.709   2.249  1.4555 -0.9014  1.3251
   41MOL0     H 5493   6.745   2.641   2.169 -0.6456  0.5625  1.0757
   41MOL0     H 5494   6.686   2.768   2.059  2.5201 -1.1051 -0.4873
   41MOL0     H 5495   6.904   2.695   2.031 -0.6088  0.0605  0.9680
   41MOL0     H 5496   7.129   2.636   1.950  0.4236 -0.6512  0.0697
   41MOL0     H 5497   7.426   2.458   1.537  2.8540 -0.3879  0.2346
   41MOL0     H 5498   7.626   2.365   1.515 -1.0856  1.0667  0.8548
   41MOL0     H 5499   7.825   2.291   1.616  1.3869  0.3838  0.7582
   41MOL0     H 5500   7.737   2.235   1.751  0.2578 -1.5807  0.3646
   41MOL0     H 5501   7.978   2.201   1.785  1.2344 -1.0180  0.6230
   41MOL0     H 5502   7.883   2.050   1.791  0.3131 -1.5992 -0.4918
   41MOL0     H 5503   8.099   2.026   1.690  1.6727  0.2343 -1.9264
   41MOL0     H 5504   7.960   1.984   1.580 -1.3225  1.9981 -0.8048
   41MOL0     H 5505   8.110   2.250   1.570  1.0609  1.4102 -3.1524
   41MOL0     H 5506   7.983   2.188   1.461 -0.0333  0.5621  1.5709
   41MOL0     H 5507   8.130   1.998   1.393  1.5716  0.3295 -2.2681
   41MOL0     H 5508   8.263   2.066   1.485 -1.3578  1.6888  2.7952
   41MOL0     H 5509   8.138   2.235   1.283  0.0745 -0.1260  1.8611
   41MOL0     H 5510   8.302   2.237   1.342 -1.1594  1.3102  2.3013
   41MOL0     H 5511   8.283   2.151   1.108  1.5093 -2.6165 -0.2986
   41MOL0     H 5512   8.196   2.005   1.176 -1.4742  0.1146  2.0675
   41MOL0     H 5513   8.455   2.116   1.223 -4.4581  1.7762 -0.6751
   41MOL0     H 5514   8.408   1.956   1.298  0.1952 -0.9587 -0.2465
   41MOL0     H 5515   7.491   1.985   1.653  0.1551  0.4554  0.0207
   41MOL0     H 5516   7.269   2.097   1.707 -2.1162  1.0697 -1.2476
   41MOL0     H 5517   6.945   2.316   1.715 -2.4458 -0.4669 -0.2664
   41MOL0     H 5518   6.719   2.402   1.786 -1.2778  1.2332 -0.0977
   41MOL0     H 5519   4.874   2.638   1.911 -1.0328  0.2165 -0.1038
   41MOL0     H 5520   4.695   2.445   1.912 -1.3876 -1.0654 -1.1328
   41MOL0     H 5521   4.473   2.158   1.913 -2.8608  0.2194  2.1318
   41MOL0     H 5522   4.294   1.986   1.934 -1.4582 -4.0622  2.0572
   41MOL0     H 5523   4.285   1.754   1.767 -1.9693  0.0958 -1.0901
   41MOL0     H 5524   4.157   1.698   1.886  0.3992 -1.7152  0.0938
   41MOL0     H 5525   4.411   1.546   1.802 -0.7948  0.0691 -0.5368
   41MOL0     H 5526   4.246   1.501   1.755  0.7804  1.7576 -3.0169
   41MOL0     H 5527   4.380   1.506   2.036  2.0635 -0.9083 -1.3686
   41MOL0     H 5528   4.350   1.362   1.943  3.8106 -0.4601  3.5969
   41MOL0     H 5529   4.172   1.499   2.133  1.4617  2.1074 -1.3366
   41MOL0     H 5530   4.089   1.500   1.974  0.3224 -3.1396 -4.0164
   41MOL0     H 5531   4.042   1.104   2.086  1.6178 -0.9578 -1.7484
   41MOL0     H 5532   4.592   1.683   1.955  2.3294  0.5352  2.1925
   41MOL0     H 5533   4.885   1.897   1.871 -0.6789  2.1662  0.7346
   41MOL0     H 5534   4.840   1.843   2.029 -1.4482  0.8296  0.5035
   41MOL0     H 5535   4.832   1.733   1.896  2.6582  1.4916  0.0019
   42MOL0     O 5536   3.318   9.330   2.551  0.6599 -0.2380 -0.8895
   42MOL0     C 5537   3.275   9.238   2.622 -0.3102 -0.3515 -0.2049
   42MOL0     O 5538   3.181   9.142   2.591  0.3367 -0.5223  0.1052
   42MOL0     C 5539   3.139   9.136   2.462 -0.0622  0.2001  1.3893
   42MOL0     C 5540   3.002   9.115   2.443 -0.2012 -1.0728 -0.0306
   42MOL0     C 5541   2.942   9.094   2.319 -0.4777  0.5461 -0.0672
   42MOL0     C 5542   3.028   9.095   2.208 -0.2172  0.1585  0.6958
   42MOL0     O 5543   2.974   9.102   2.078  0.3559  0.4739 -0.0633
   42MOL0     C 5544   3.034   9.023   1.979  0.7951  0.1777  0.1434
   42MOL0     C 5545   2.910   8.964   1.898 -0.4566 -0.1291 -1.3749
   42MOL0     C 5546   2.950   8.892   1.769  0.5745  0.0021  0.1618
   42MOL0     C 5547   2.838   8.823   1.694 -0.6660 -0.1210 -0.1316
   42MOL0     C 5548   2.871   8.772   1.552 -1.0409  0.1315 -1.0132
   42MOL0     C 5549   2.886   8.891   1.455 -0.3530 -0.4955 -0.0983
   42MOL0     C 5550   2.918   8.852   1.315  0.9922 -0.0802 -1.1381
   42MOL0     C 5551   3.060   8.806   1.299  0.7095  0.7153  0.1097
   42MOL0     N 5552   3.100   8.795   1.154 -0.2154 -0.1525  0.0411
   42MOL0     C 5553   3.033   8.714   1.070  0.8779 -0.0343  1.3959
   42MOL0     C 5554   3.091   8.737   0.948  0.2744  0.1890  0.7737
   42MOL0     C 5555   3.058   8.696   0.801 -1.1211 -0.8741 -0.0314
   42MOL0     C 5556   2.944   8.775   0.752 -0.0618 -0.5501 -0.8996
   42MOL0     C 5557   2.878   8.713   0.631  0.9480 -0.7306  0.3626
   42MOL0     C 5558   2.737   8.751   0.637  0.3982  0.1205  0.1518
   42MOL0     O 5559   2.665   8.674   0.535  0.0859 -0.0631  0.4174
   42MOL0     C 5560   2.657   8.730   0.408 -0.0065 -0.6816  0.0419
   42MOL0     C 5561   2.571   8.671   0.314 -0.1368  0.6434 -0.5386
   42MOL0     C 5562   2.571   8.710   0.184 -0.4335  0.2380  1.3883
   42MOL0     C 5563   2.653   8.816   0.142 -0.0593 -0.4094  0.5292
   42MOL0     C 5564   2.659   8.860  -0.009 -0.5296 -0.5370 -0.5592
   42MOL0     O 5565   2.542   8.836  -0.072 -0.1972  0.2943  0.3234
   42MOL0     C 5566   2.527   8.872  -0.203  0.2320 -0.2513 -0.0465
   42MOL0     C 5567   2.442   8.974  -0.221  1.1055  0.0694  0.1929
   42MOL0     C 5568   2.402   9.009  -0.351  1.3047  0.8404  0.0740
   42MOL0     C 5569   2.455   8.940  -0.463 -0.0229 -1.0097  0.6922
   42MOL0     O 5570   2.410   8.960  -0.594  0.1255 -0.3055 -0.4097
   42MOL0     C 5571   2.366   8.840  -0.664 -0.7562  1.2586 -0.7792
   42MOL0     C 5572   2.259   8.753  -0.588 -0.4744  0.3460  0.8838
   42MOL0     C 5573   2.119   8.806  -0.565  0.0479  0.4106 -0.0423
   42MOL0     C 5574   2.037   8.849  -0.690 -0.5168  0.2885 -0.6690
   42MOL0     C 5575   2.053   8.995  -0.718  0.2975 -0.7139 -0.5367
   42MOL0     C 5576   1.996   9.036  -0.853 -0.6221  0.0503 -0.1587
   42MOL0     C 5577   2.034   9.178  -0.901 -0.8191 -0.2947 -0.6944
   42MOL0     C 5578   2.164   9.182  -0.983 -0.0546 -0.2961 -0.7714
   42MOL0    Cl 5579   2.125   9.111  -1.147  0.0696  0.4750  0.1614
   42MOL0     C 5580   2.558   8.843  -0.434 -0.2124 -0.4269 -0.8725
   42MOL0     C 5581   2.590   8.812  -0.304  0.0460  0.1332  0.3673
   42MOL0     O 5582   2.756   8.920  -0.053 -0.6105  0.0203  0.1479
   42MOL0     C 5583   2.733   8.882   0.234 -0.0426 -0.8070  0.2620
   42MOL0     C 5584   2.734   8.839   0.368 -0.0793 -0.0229 -0.2790
   42MOL0     N 5585   3.192   8.826   0.971 -0.5609  0.5738 -0.2032
   42MOL0     N 5586   3.198   8.860   1.085  0.2834  0.7031 -0.6072
   42MOL0     C 5587   3.165   9.104   2.223  0.2993 -0.0425  0.3744
   42MOL0     C 5588   3.222   9.128   2.347  0.5633  0.0259  0.1540
   42MOL0     C 5589   3.319   9.241   2.759  0.2814  0.1604 -0.1683
   42MOL0     C 5590   3.220   9.193   2.852  0.2967 -0.4987  0.4185
   42MOL0     C 5591   3.239   9.193   2.987 -0.6248  0.2146 -0.4223
   42MOL0     C 5592   3.368   9.224   3.039  0.7946 -0.1982  0.2701
   42MOL0     O 5593   3.401   9.213   3.169  0.4373  1.4997  0.5818
   42MOL0     C 5594   3.344   9.317   3.248 -0.2371  0.4157 -0.0124
   42MOL0     C 5595   3.256   9.236   3.353 -0.5633  0.1141  0.2562
   42MOL0     C 5596   3.149   9.302   3.438  0.4038 -0.2088  0.0939
   42MOL0     C 5597   3.006   9.283   3.377  0.4345 -0.2614  0.9013
   42MOL0     C 5598   2.989   9.338   3.237  0.2655 -0.3075  0.2982
   42MOL0     C 5599   2.962   9.380   3.128 -0.1323 -0.1329 -0.3382
   42MOL0     C 5600   3.463   9.288   2.948 -0.0578 -0.6331  0.1818
   42MOL0     C 5601   3.428   9.306   2.814 -1.2327  0.5525  0.4016
   42MOL0     C 5602   3.547   9.356   2.727 -0.3415 -0.3690  0.1344
   42MOL0     H 5603   2.939   9.117   2.532  0.9830  0.7509  0.8316
   42MOL0     H 5604   2.836   9.084   2.296  0.1634 -0.3338 -3.0399
   42MOL0     H 5605   3.090   9.088   1.912  2.1537 -0.5966  0.4761
   42MOL0     H 5606   3.093   8.944   2.027  0.5390 -0.9450 -1.3197
   42MOL0     H 5607   2.832   9.040   1.884 -1.5781 -0.4384  2.0738
   42MOL0     H 5608   2.865   8.894   1.969  3.1495 -0.2419  1.1190
   42MOL0     H 5609   3.034   8.824   1.788  4.1563  3.3734 -2.0681
   42MOL0     H 5610   2.990   8.970   1.703  1.9767  0.0738  1.0611
   42MOL0     H 5611   2.811   8.729   1.742 -2.6171 -0.9940 -2.7224
   42MOL0     H 5612   2.755   8.894   1.691 -0.9658 -0.2591  2.8321
   42MOL0     H 5613   2.964   8.715   1.551 -0.2775  1.3388 -2.0110
   42MOL0     H 5614   2.789   8.711   1.512 -1.8217 -0.5515  1.4308
   42MOL0     H 5615   2.785   8.932   1.463 -0.4718 -0.7173 -0.4193
   42MOL0     H 5616   2.953   8.967   1.495 -2.2793 -0.6697  3.9592
   42MOL0     H 5617   2.895   8.933   1.245 -0.4195  1.0110  0.4958
   42MOL0     H 5618   2.859   8.761   1.295  0.5877 -0.1255  0.1908
   42MOL0     H 5619   3.131   8.874   1.348  2.0411 -0.3118 -0.3456
   42MOL0     H 5620   3.070   8.704   1.336 -1.6647  0.4381  0.1619
   42MOL0     H 5621   2.944   8.655   1.090  0.0137  0.6308 -0.2801
   42MOL0     H 5622   3.144   8.731   0.743 -0.7067 -0.5373  0.7757
   42MOL0     H 5623   3.043   8.588   0.787 -0.1211 -0.7958 -2.0521
   42MOL0     H 5624   2.866   8.798   0.826  0.8886  0.3339 -0.1425
   42MOL0     H 5625   2.990   8.872   0.733  0.5693 -0.3930  1.1608
   42MOL0     H 5626   2.879   8.604   0.635 -0.0392 -0.7606  0.0150
   42MOL0     H 5627   2.923   8.753   0.540 -0.3235 -1.4560 -0.6182
   42MOL0     H 5628   2.723   8.859   0.632  0.5163  0.2519  1.8889
   42MOL0     H 5629   2.703   8.708   0.732  2.3115 -2.2958 -0.1445
   42MOL0     H 5630   2.505   8.595   0.354  1.1432  0.7732  1.9886
   42MOL0     H 5631   2.507   8.672   0.105 -0.0035  2.2555  0.0097
   42MOL0     H 5632   2.392   9.015  -0.133  1.5780 -1.2851  1.1372
   42MOL0     H 5633   2.324   9.085  -0.352 -0.3549 -0.8093  0.0024
   42MOL0     H 5634   2.319   8.873  -0.757 -0.2688  1.0023 -1.1189
   42MOL0     H 5635   2.446   8.772  -0.692 -0.3113  0.3222  2.3675
   42MOL0     H 5636   2.249   8.673  -0.661  0.3433 -0.0147  1.1601
   42MOL0     H 5637   2.302   8.720  -0.492 -0.5903 -0.8242  0.5476
   42MOL0     H 5638   2.071   8.718  -0.522  0.7514  1.2727  2.7099
   42MOL0     H 5639   2.113   8.899  -0.508 -2.0795 -0.3416  1.0822
   42MOL0     H 5640   1.934   8.833  -0.657 -0.2451  2.1430  1.3035
   42MOL0     H 5641   2.042   8.782  -0.776  2.3060 -1.8346  0.9667
   42MOL0     H 5642   2.161   9.011  -0.720  0.5941 -2.6278 -1.7452
   42MOL0     H 5643   2.013   9.050  -0.632  1.4065 -0.6900 -0.0311
   42MOL0     H 5644   2.029   8.973  -0.936  1.5682  1.7421 -0.6774
   42MOL0     H 5645   1.887   9.030  -0.844 -0.5594 -1.6364 -0.1839
   42MOL0     H 5646   2.048   9.239  -0.811  3.1080  0.3803 -1.5731
   42MOL0     H 5647   1.949   9.228  -0.947 -0.6065  0.5647 -0.1658
   42MOL0     H 5648   2.199   9.286  -0.982  3.8722 -1.4276  0.5943
   42MOL0     H 5649   2.249   9.128  -0.940  0.3831  0.6885 -0.3745
   42MOL0     H 5650   2.621   8.793  -0.508  3.2839 -1.0306  2.1868
   42MOL0     H 5651   2.668   8.738  -0.291  0.6820  0.9509  1.4049
   42MOL0     H 5652   2.785   8.976   0.219 -0.3860 -0.6994 -0.2941
   42MOL0     H 5653   2.796   8.901   0.432 -1.9689  2.0627 -0.3507
   42MOL0     H 5654   3.234   9.103   2.138 -0.4887  0.6218 -0.2875
   42MOL0     H 5655   3.330   9.132   2.360  0.5273 -1.0319  0.9187
   42MOL0     H 5656   3.128   9.159   2.807 -0.5811  1.7665  0.4179
   42MOL0     H 5657   3.166   9.149   3.054  1.6351  0.5724  2.4649
   42MOL0     H 5658   3.276   9.382   3.192 -2.1262  0.4018  2.1132
   42MOL0     H 5659   3.423   9.372   3.301  0.3234  0.6494 -1.0540
   42MOL0     H 5660   3.323   9.189   3.426 -0.9336 -3.2332 -1.3380
   42MOL0     H 5661   3.209   9.149   3.306 -0.8708 -0.5792  1.7829
   42MOL0     H 5662   3.174   9.408   3.431  0.6459 -0.2591  0.2075
   42MOL0     H 5663   3.156   9.272   3.543 -0.5321 -0.5421  0.0753
   42MOL0     H 5664   2.978   9.178   3.374 -2.7596  0.4881  0.8792
   42MOL0     H 5665   2.928   9.318   3.445  0.6342 -0.0523  1.0246
   42MOL0     H 5666   2.950   9.395   3.023  1.5201  0.8511 -0.4121
   42MOL0     H 5667   3.561   9.312   2.988 -1.3234 -0.5245  3.5613
   42MOL0     H 5668   3.577   9.283   2.652 -0.4505  0.5401 -0.8221
   42MOL0     H 5669   3.510   9.444   2.674  0.3072  2.5384  4.0549
   42MOL0     H 5670   3.633   9.391   2.785 -0.3561 -1.5799  0.9199
   43MOL0     O 5671  10.159   9.151   2.307  0.1070 -0.1749  0.6735
   43MOL0     C 5672  10.084   9.070   2.357  0.3421  0.6133  0.1178
   43MOL0     O 5673  10.106   8.939   2.367 -0.1291  0.8508 -0.1017
   43MOL0     C 5674  10.200   8.877   2.283 -1.0151  1.0074 -0.3800
   43MOL0     C 5675  10.155   8.779   2.190  0.0047 -0.7842  0.5695
   43MOL0     C 5676  10.247   8.727   2.097 -0.6946  0.1541 -0.1384
   43MOL0     C 5677  10.386   8.760   2.100  1.0835 -0.3466 -1.1576
   43MOL0     O 5678  10.472   8.724   2.001  0.5557  0.0128  0.0486
   43MOL0     C 5679  10.435   8.609   1.912  0.8548  0.1568  0.0426
   43MOL0     C 5680  10.370   8.661   1.790 -0.4572  0.0130  0.2923
   43MOL0     C 5681  10.472   8.739   1.714  0.0183 -0.4825  1.0250
   43MOL0     C 5682  10.576   8.666   1.629 -0.2086 -0.5802  0.6313
   43MOL0     C 5683  10.660   8.769   1.547  0.2488  0.2918 -0.0058
   43MOL0     C 5684  10.762   8.690   1.460 -0.1079  0.2596  0.0461
   43MOL0     C 5685  10.845   8.790   1.373  0.4745  0.3863 -0.1923
   43MOL0     C 5686  10.923   8.732   1.250 -0.3826  0.2973  0.0906
   43MOL0     N 5687  11.048   8.654   1.270  0.0739  0.5808 -0.1247
   43MOL0     C 5688  11.073   8.538   1.337  0.6427  1.1407  0.2726
   43MOL0     C 5689  11.205   8.517   1.330  0.3025 -0.2297 -0.1102
   43MOL0     C 5690  11.264   8.391   1.402  0.1257 -0.6686 -0.4376
   43MOL0     C 5691  11.411   8.368   1.373 -0.2738 -0.0317 -0.4310
   43MOL0     C 5692  11.476   8.375   1.242  0.3987 -1.1685  0.3909
   43MOL0     C 5693  11.439   8.260   1.143 -0.5507  0.5057 -0.1476
   43MOL0     O 5694  11.501   8.280   1.012 -0.1914 -0.1752 -0.4926
   43MOL0     C 5695  11.631   8.231   0.999  0.2684 -0.3030  1.1272
   43MOL0     C 5696  11.719   8.188   1.098 -0.6241  0.1893  0.0186
   43MOL0     C 5697  11.839   8.122   1.066  0.0056 -0.0063  0.5085
   43MOL0     C 5698  11.878   8.104   0.933 -0.1045  0.2952 -0.1297
   43MOL0     C 5699  12.010   8.040   0.890  0.5406 -0.5489  0.1982
   43MOL0     O 5700  12.105   8.023   0.993  0.3307  0.6985 -0.3479
   43MOL0     C 5701  12.230   7.965   0.978  0.8063 -0.7011 -0.1543
   43MOL0     C 5702  12.283   7.945   0.851 -0.1592  0.5807 -0.6469
   43MOL0     C 5703  12.406   7.880   0.847  0.0743  0.8847  0.9902
   43MOL0     C 5704  12.469   7.834   0.957 -0.3494 -0.5094  0.6187
   43MOL0     O 5705  12.590   7.768   0.948 -0.8030  0.1813  0.6335
   43MOL0     C 5706  12.630   7.680   1.056  0.0280  0.8873 -0.0808
   43MOL0     C 5707  12.784   7.649   1.040  0.2926 -0.1510  0.4984
   43MOL0     C 5708  12.845   7.588   1.172 -0.0686  0.4090 -0.4981
   43MOL0     C 5709  12.740   7.492   1.235  0.0894  0.3080  0.1580
   43MOL0     C 5710  12.788   7.431   1.361 -0.7490 -0.2011 -0.1686
   43MOL0     C 5711  12.708   7.312   1.424  0.3852  0.4657 -0.2370
   43MOL0     C 5712  12.791   7.222   1.524  0.0204  0.4579  0.5412
   43MOL0     C 5713  12.697   7.102   1.547  1.2541  0.7157 -0.0042
   43MOL0    Cl 5714  12.720   6.994   1.692  0.1552  0.0530 -0.4449
   43MOL0     C 5715  12.413   7.865   1.086 -0.4921  0.7828  0.5709
   43MOL0     C 5716  12.290   7.933   1.092 -0.4653  0.6139  0.6008
   43MOL0     O 5717  12.013   7.985   0.776  0.7747  0.1705  0.2232
   43MOL0     C 5718  11.783   8.141   0.833  0.2282 -0.3632  0.3818
   43MOL0     C 5719  11.666   8.207   0.868  0.5368  0.3403  0.0259
   43MOL0     N 5720  11.268   8.624   1.262  0.5126  0.3077 -0.7936
   43MOL0     N 5721  11.169   8.708   1.230 -0.4380  1.2266 -0.4506
   43MOL0     C 5722  10.426   8.851   2.199  0.2789  0.2093 -1.0860
   43MOL0     C 5723  10.336   8.912   2.286  0.0307  0.2806  0.7636
   43MOL0     C 5724   9.951   9.121   2.395  0.3712 -0.2027  0.9844
   43MOL0     C 5725   9.953   9.222   2.491  0.1152  0.6156  0.2553
   43MOL0     C 5726   9.829   9.279   2.522 -0.0114 -0.2220  0.8346
   43MOL0     C 5727   9.714   9.231   2.476  0.5409  0.5443 -0.7218
   43MOL0     O 5728   9.595   9.303   2.509 -0.2650 -0.0042 -0.1511
   43MOL0     C 5729   9.497   9.331   2.401  0.1254  0.0398  0.7571
   43MOL0     C 5730   9.527   9.483   2.351 -0.3046 -0.0599 -0.5223
   43MOL0     C 5731   9.671   9.495   2.280 -0.7944 -0.0339 -0.5966
   43MOL0     C 5732   9.711   9.636   2.245  0.0166  0.5380  0.4290
   43MOL0     C 5733   9.607   9.738   2.236 -0.2432 -0.2458  0.2702
   43MOL0     C 5734   9.531   9.832   2.222 -0.4210  0.4000  0.0309
   43MOL0     C 5735   9.706   9.106   2.414 -0.8114 -0.3013 -0.1832
   43MOL0     C 5736   9.824   9.060   2.351  0.5482 -0.7275 -0.4565
   43MOL0     C 5737   9.818   8.960   2.242 -0.8650 -0.3184  0.0730
   43MOL0     H 5738  10.051   8.762   2.162  0.0738  0.2277 -0.3725
   43MOL0     H 5739  10.220   8.645   2.031  0.5210  0.5952 -1.2330
   43MOL0     H 5740  10.532   8.570   1.880  0.0983 -0.5918 -1.4418
   43MOL0     H 5741  10.382   8.529   1.964  3.1465  0.1721  2.5951
   43MOL0     H 5742  10.281   8.720   1.815  1.0644  2.8798 -0.5851
   43MOL0     H 5743  10.324   8.578   1.737 -1.1040 -1.6518  3.2129
   43MOL0     H 5744  10.535   8.800   1.780  0.9900  0.8060 -0.9922
   43MOL0     H 5745  10.419   8.815   1.655  1.3833  2.1183  2.9194
   43MOL0     H 5746  10.635   8.596   1.689  1.0527  1.3210  1.7171
   43MOL0     H 5747  10.517   8.591   1.575 -1.4239 -3.0016  4.8345
   43MOL0     H 5748  10.597   8.830   1.482 -0.3834 -1.9306 -1.5952
   43MOL0     H 5749  10.714   8.834   1.617  2.2023  1.2447 -2.2612
   43MOL0     H 5750  10.829   8.651   1.537 -2.1649  1.0073  2.3770
   43MOL0     H 5751  10.727   8.612   1.392 -0.4692  3.1045 -3.2784
   43MOL0     H 5752  10.913   8.855   1.428 -0.0519 -0.9462  2.2049
   43MOL0     H 5753  10.766   8.858   1.340 -1.0761 -0.0978  2.2422
   43MOL0     H 5754  10.856   8.661   1.199  3.2453 -3.0770 -0.4732
   43MOL0     H 5755  10.954   8.818   1.191  0.1308  0.6445  0.8546
   43MOL0     H 5756  11.000   8.466   1.373  1.0597  0.3977 -0.3542
   43MOL0     H 5757  11.249   8.405   1.510  0.7597  0.9886 -0.5342
   43MOL0     H 5758  11.215   8.296   1.377 -1.5276 -0.2403  0.9383
   43MOL0     H 5759  11.479   8.439   1.421 -0.4433  1.5570 -2.4262
   43MOL0     H 5760  11.435   8.267   1.408 -0.9214 -0.9667 -2.5296
   43MOL0     H 5761  11.584   8.370   1.256  0.6864  0.2390 -1.0662
   43MOL0     H 5762  11.456   8.473   1.198 -1.4107 -1.6916 -0.0626
   43MOL0     H 5763  11.333   8.245   1.118 -0.0997 -4.2702 -0.1695
   43MOL0     H 5764  11.479   8.164   1.177  0.5995  1.2053  0.5352
   43MOL0     H 5765  11.692   8.211   1.201 -0.5814  0.9311 -0.1313
   43MOL0     H 5766  11.909   8.079   1.137  0.2625 -2.0523 -0.8962
   43MOL0     H 5767  12.236   7.982   0.761  0.2320  2.2106 -0.2156
   43MOL0     H 5768  12.449   7.866   0.749 -2.4973 -0.2381 -0.0657
   43MOL0     H 5769  12.616   7.736   1.149  0.6829  2.2364 -0.7608
   43MOL0     H 5770  12.575   7.586   1.060 -2.0437  2.0428  0.2001
   43MOL0     H 5771  12.816   7.571   0.970 -0.4446 -0.2532  0.2681
   43MOL0     H 5772  12.844   7.736   1.011  2.1062 -1.6370 -0.4176
   43MOL0     H 5773  12.930   7.523   1.149  1.9739  2.2337  1.4856
   43MOL0     H 5774  12.885   7.663   1.241  1.2598  1.0280 -1.8729
   43MOL0     H 5775  12.698   7.411   1.174  0.3337 -0.4870  1.0210
   43MOL0     H 5776  12.652   7.548   1.268 -0.4655  0.0124 -0.7857
   43MOL0     H 5777  12.793   7.503   1.444 -0.3334 -1.2090  0.7149
   43MOL0     H 5778  12.889   7.394   1.341 -0.0924  0.4049  1.8016
   43MOL0     H 5779  12.633   7.358   1.489  4.2022  1.6961  3.7180
   43MOL0     H 5780  12.660   7.244   1.352  1.1219 -2.3080  1.7452
   43MOL0     H 5781  12.812   7.255   1.626 -1.2737 -1.5921  1.5563
   43MOL0     H 5782  12.883   7.181   1.481 -0.7776 -0.5312 -0.2838
   43MOL0     H 5783  12.592   7.133   1.552  0.4644 -1.7939  1.1538
   43MOL0     H 5784  12.701   7.024   1.471  2.5081 -1.2350  1.9253
   43MOL0     H 5785  12.456   7.843   1.183 -2.6967  0.2819  1.5075
   43MOL0     H 5786  12.245   7.971   1.184  0.3357  0.4719  1.0568
   43MOL0     H 5787  11.804   8.115   0.730 -1.1554 -0.7910  0.1921
   43MOL0     H 5788  11.588   8.237   0.799 -0.8092 -0.9955  0.8842
   43MOL0     H 5789  10.531   8.879   2.202  0.7414 -1.4267 -0.9430
   43MOL0     H 5790  10.366   8.981   2.364 -1.0139 -1.3060  2.6531
   43MOL0     H 5791  10.047   9.261   2.528 -0.0671  3.3973 -1.8613
   43MOL0     H 5792   9.842   9.376   2.569  0.5796  1.0101 -1.6937
   43MOL0     H 5793   9.397   9.316   2.442  0.2208 -3.3419  0.0677
   43MOL0     H 5794   9.506   9.270   2.310  2.1227  2.4177 -0.7932
   43MOL0     H 5795   9.516   9.547   2.439  0.5259 -0.5612 -0.0354
   43MOL0     H 5796   9.450   9.516   2.281  1.1844  1.7356 -1.3903
   43MOL0     H 5797   9.664   9.444   2.183 -0.7911  1.0766 -1.1980
   43MOL0     H 5798   9.751   9.455   2.343 -3.7140 -1.9151  2.2457
   43MOL0     H 5799   9.781   9.669   2.322  0.4466 -1.6226  1.0311
   43MOL0     H 5800   9.751   9.643   2.144 -1.8778 -0.8473 -0.4918
   43MOL0     H 5801   9.465   9.915   2.207  2.2118  2.2787 -2.0879
   43MOL0     H 5802   9.602   9.083   2.395 -0.8395  0.8824 -1.5631
   43MOL0     H 5803   9.726   8.960   2.182 -0.3221 -0.4220 -0.7806
   43MOL0     H 5804   9.907   8.972   2.179 -1.2112  1.0214 -0.2026
   43MOL0     H 5805   9.828   8.865   2.294  5.2550  1.1304  2.4338
   44MOL0     O 5806  10.600   6.605   3.296 -0.3717 -0.1915 -0.5377
   44MOL0     C 5807  10.524   6.522   3.268  0.6591  0.1246  0.0161
   44MOL0     O 5808  10.382   6.532   3.272 -0.8056  0.0781  0.1971
   44MOL0     C 5809  10.326   6.656   3.255  0.5957  0.3463  0.0857
   44MOL0     C 5810  10.191   6.675   3.287 -0.3310 -0.2206  0.1501
   44MOL0     C 5811  10.133   6.794   3.247 -0.2903 -0.0402 -0.1661
   44MOL0     C 5812  10.190   6.888   3.159  0.7979  0.1803 -0.7520
   44MOL0     O 5813  10.112   6.988   3.117 -0.7410  0.4757 -0.0421
   44MOL0     C 5814  10.142   7.055   3.000 -0.2741 -0.2623  0.6439
   44MOL0     C 5815  10.042   7.176   2.988 -0.0159  0.5386  0.6439
   44MOL0     C 5816  10.088   7.267   2.873  0.7013 -0.2200 -0.0781
   44MOL0     C 5817  10.017   7.405   2.880  0.0312  0.1653  0.5821
   44MOL0     C 5818  10.089   7.518   2.811  0.3027  0.0527  0.4134
   44MOL0     C 5819  10.077   7.495   2.659  0.0666 -0.4121 -0.1350
   44MOL0     C 5820  10.138   7.610   2.586  0.3103  0.4641  0.4695
   44MOL0     C 5821  10.289   7.634   2.608  0.2236  0.4862 -0.7106
   44MOL0     N 5822  10.373   7.514   2.595 -0.0516  1.3575  0.4433
   44MOL0     C 5823  10.422   7.424   2.688 -0.0379 -1.2872  0.3856
   44MOL0     C 5824  10.480   7.329   2.612  0.5277 -0.8245 -0.4960
   44MOL0     C 5825  10.555   7.212   2.659  0.2412 -0.0579 -0.8337
   44MOL0     C 5826  10.441   7.130   2.702 -0.2775 -0.1619 -0.1604
   44MOL0     C 5827  10.468   6.988   2.747  0.2601 -1.1037  0.3807
   44MOL0     C 5828  10.574   6.995   2.864  0.2360  0.7576 -0.4953
   44MOL0     O 5829  10.602   6.863   2.914  0.1825 -0.3180 -0.4479
   44MOL0     C 5830  10.697   6.790   2.847  0.9510 -0.0365 -0.7799
   44MOL0     C 5831  10.769   6.838   2.730 -0.2337 -0.0041 -0.9164
   44MOL0     C 5832  10.864   6.757   2.674  0.1385  0.4068  0.7077
   44MOL0     C 5833  10.908   6.637   2.724  0.7992 -0.5430  0.3895
   44MOL0     C 5834  11.018   6.573   2.658  0.1021 -0.1331 -0.2089
   44MOL0     O 5835  11.078   6.627   2.548  0.1182  0.2746 -0.0309
   44MOL0     C 5836  11.183   6.570   2.484 -0.1514  0.0770 -0.7743
   44MOL0     C 5837  11.290   6.635   2.438  0.3093  0.7144  0.0565
   44MOL0     C 5838  11.397   6.579   2.374  0.2978 -0.0396  0.3750
   44MOL0     C 5839  11.400   6.448   2.343  0.4072  0.3735 -0.4460
   44MOL0     O 5840  11.508   6.390   2.280  0.7052 -0.1649  0.6387
   44MOL0     C 5841  11.615   6.464   2.237 -0.9317 -0.6272 -0.1506
   44MOL0     C 5842  11.713   6.364   2.167 -0.2159 -0.1271  0.0613
   44MOL0     C 5843  11.838   6.445   2.130 -0.1570 -0.1272  0.8019
   44MOL0     C 5844  11.914   6.376   2.018  0.8161  0.1737 -1.2049
   44MOL0     C 5845  12.033   6.451   1.970 -0.6279 -0.2431  0.7999
   44MOL0     C 5846  11.990   6.555   1.868 -1.0604 -0.3571 -0.7262
   44MOL0     C 5847  12.120   6.641   1.828  0.2752  0.1328 -0.1063
   44MOL0     C 5848  12.094   6.711   1.700  0.2688  0.2549 -0.1994
   44MOL0    Cl 5849  11.977   6.827   1.739 -0.4044 -0.5711 -0.3785
   44MOL0     C 5850  11.299   6.369   2.401 -0.4723  1.0160 -0.0504
   44MOL0     C 5851  11.192   6.429   2.471 -0.3312  1.1982 -0.2833
   44MOL0     O 5852  11.038   6.466   2.704 -0.4839  0.7428 -0.1280
   44MOL0     C 5853  10.830   6.587   2.835 -0.2020 -0.0412  0.6561
   44MOL0     C 5854  10.730   6.663   2.895 -0.0727  0.6805 -0.1866
   44MOL0     N 5855  10.455   7.363   2.483 -0.9685  0.7592  0.4369
   44MOL0     N 5856  10.392   7.471   2.466 -0.3857  0.9012  0.1373
   44MOL0     C 5857  10.324   6.858   3.119  0.9371 -0.2466 -0.0597
   44MOL0     C 5858  10.390   6.744   3.166  0.0569  0.4797  0.2584
   44MOL0     C 5859  10.577   6.396   3.195  0.2233 -0.6906 -0.8698
   44MOL0     C 5860  10.526   6.378   3.062  0.6185 -0.2080  1.0413
   44MOL0     C 5861  10.572   6.275   2.975  1.0091  0.3559  0.2461
   44MOL0     C 5862  10.669   6.188   3.014  0.5601 -0.3079 -0.2086
   44MOL0     O 5863  10.731   6.111   2.923 -0.4194  0.6526 -0.0970
   44MOL0     C 5864  10.847   6.175   2.865 -0.2970 -0.7938  0.5191
   44MOL0     C 5865  10.921   6.080   2.774 -0.5068  0.5252 -0.3042
   44MOL0     C 5866  11.026   6.153   2.695 -0.9057 -0.6212  0.0794
   44MOL0     C 5867  11.135   6.067   2.638  0.0443  0.0689  0.3822
   44MOL0     C 5868  11.264   6.082   2.721  0.0998  0.5974  0.2749
   44MOL0     C 5869  11.366   6.091   2.792  0.1873 -0.9742  0.2090
   44MOL0     C 5870  10.737   6.218   3.133 -0.6577  0.7989 -0.0025
   44MOL0     C 5871  10.677   6.303   3.235 -0.4308  0.1123 -0.4729
   44MOL0     C 5872  10.745   6.300   3.369 -1.0062 -0.3161 -0.3801
   44MOL0     H 5873  10.130   6.605   3.344 -2.1290 -0.8247 -2.3720
   44MOL0     H 5874  10.037   6.820   3.290 -0.6127 -4.7990  2.7659
   44MOL0     H 5875  10.237   7.107   3.011  2.0865 -4.5628  2.9616
   44MOL0     H 5876  10.142   6.996   2.908  1.4217  1.5671 -0.6097
   44MOL0     H 5877  10.046   7.223   3.086 -1.1937  2.3679 -0.1307
   44MOL0     H 5878   9.942   7.136   2.969  0.3919 -2.2688  3.4803
   44MOL0     H 5879  10.063   7.213   2.781 -1.9746 -2.6303  1.8504
   44MOL0     H 5880  10.196   7.280   2.882  0.7180 -1.3471  2.4390
   44MOL0     H 5881   9.915   7.398   2.841  0.6390 -0.4435 -1.0046
   44MOL0     H 5882  10.011   7.449   2.980 -1.4018  1.9217 -0.2355
   44MOL0     H 5883  10.040   7.612   2.839 -1.5944 -1.4716  2.5855
   44MOL0     H 5884  10.194   7.516   2.839  1.2761 -3.9831 -2.5277
   44MOL0     H 5885  10.121   7.401   2.623 -1.2075 -1.6569  1.3681
   44MOL0     H 5886   9.972   7.499   2.629 -0.0966 -0.7017  0.3872
   44MOL0     H 5887  10.093   7.707   2.611 -1.6649 -0.3535  0.2630
   44MOL0     H 5888  10.132   7.588   2.479 -0.3708 -2.1176  0.9764
   44MOL0     H 5889  10.337   7.694   2.531  0.3597 -2.2121 -2.8578
   44MOL0     H 5890  10.298   7.680   2.707  1.4511 -2.1089  0.4908
   44MOL0     H 5891  10.412   7.418   2.796 -1.1013 -1.6885  0.2795
   44MOL0     H 5892  10.608   7.158   2.581 -0.3651 -3.0176  0.6791
   44MOL0     H 5893  10.615   7.239   2.747 -0.4477 -0.7955 -0.1146
   44MOL0     H 5894  10.398   7.167   2.796  1.7303 -4.0185  2.5884
   44MOL0     H 5895  10.366   7.124   2.623 -0.6410 -2.1724  0.2807
   44MOL0     H 5896  10.507   6.931   2.662 -1.3329  0.3826 -1.4256
   44MOL0     H 5897  10.373   6.940   2.769 -0.5126 -0.9597 -2.3278
   44MOL0     H 5898  10.526   7.046   2.948  0.9661 -0.3703  0.6645
   44MOL0     H 5899  10.663   7.050   2.830 -0.1113  3.0433  1.9899
   44MOL0     H 5900  10.759   6.936   2.683 -1.0332 -0.2344 -1.2280
   44MOL0     H 5901  10.919   6.804   2.594  0.9861 -0.1288  0.9603
   44MOL0     H 5902  11.304   6.743   2.441 -0.4744  0.9005 -1.7363
   44MOL0     H 5903  11.466   6.661   2.352 -0.9369  1.2487  1.1558
   44MOL0     H 5904  11.588   6.547   2.170 -0.9565  2.5071  3.4367
   44MOL0     H 5905  11.670   6.513   2.317  0.5667 -0.6121 -1.1343
   44MOL0     H 5906  11.735   6.283   2.236 -1.4110 -1.9191 -1.5592
   44MOL0     H 5907  11.667   6.310   2.083  1.1219  0.7519 -1.3040
   44MOL0     H 5908  11.798   6.541   2.094 -0.3021 -0.4099  0.1881
   44MOL0     H 5909  11.899   6.459   2.219  0.6073 -3.8654  1.0183
   44MOL0     H 5910  11.844   6.365   1.934  0.7381  1.9772 -1.4087
   44MOL0     H 5911  11.950   6.283   2.063 -4.2651 -1.0631  1.0808
   44MOL0     H 5912  12.112   6.384   1.934  0.2043 -0.7853  3.3951
   44MOL0     H 5913  12.079   6.501   2.055 -1.6530  0.0997  1.1586
   44MOL0     H 5914  11.936   6.513   1.783  0.5685 -1.4453 -1.2759
   44MOL0     H 5915  11.918   6.627   1.907 -0.5846  1.1304 -2.4723
   44MOL0     H 5916  12.206   6.576   1.808  1.1054  1.3419 -0.5727
   44MOL0     H 5917  12.142   6.710   1.910 -0.7001  0.7116 -0.3170
   44MOL0     H 5918  12.186   6.765   1.676 -0.1741 -0.0204 -2.7646
   44MOL0     H 5919  12.057   6.648   1.618 -0.9896 -0.1680  0.6589
   44MOL0     H 5920  11.302   6.262   2.381  1.2936  1.1878 -0.9975
   44MOL0     H 5921  11.114   6.364   2.508  0.1520 -0.1715 -1.5410
   44MOL0     H 5922  10.842   6.487   2.876 -0.5636  0.2791  1.5818
   44MOL0     H 5923  10.683   6.618   2.982  0.4539  1.4117  0.4917
   44MOL0     H 5924  10.367   6.915   3.037 -4.1326  2.7131 -1.0381
   44MOL0     H 5925  10.494   6.738   3.137 -0.0205  0.0797  0.0479
   44MOL0     H 5926  10.441   6.442   3.039  0.5359 -0.4679  0.6168
   44MOL0     H 5927  10.528   6.234   2.885  0.8071 -0.6607  0.7954
   44MOL0     H 5928  10.920   6.200   2.943  0.2092 -2.5344  0.6378
   44MOL0     H 5929  10.810   6.264   2.812  0.1331 -1.2095 -0.4947
   44MOL0     H 5930  10.853   6.029   2.706 -0.1635 -0.3528 -0.0020
   44MOL0     H 5931  10.965   6.001   2.835 -0.0414 -2.0806 -3.7239
   44MOL0     H 5932  11.071   6.234   2.754 -1.5950 -1.4584  1.8468
   44MOL0     H 5933  10.984   6.202   2.607  0.0707  1.0684  0.4976
   44MOL0     H 5934  11.093   5.967   2.630 -3.5044  1.3527  1.1698
   44MOL0     H 5935  11.156   6.098   2.536 -3.1590 -1.1220 -0.7669
   44MOL0     H 5936  11.463   6.099   2.837  0.2839  1.7514 -0.2998
   44MOL0     H 5937  10.826   6.163   3.161 -0.8754  0.4020 -0.0791
   44MOL0     H 5938  10.845   6.254   3.368  0.1369  1.8198 -4.0674
   44MOL0     H 5939  10.772   6.401   3.401  1.0434 -0.7888 -0.4585
   44MOL0     H 5940  10.689   6.239   3.440  1.5120 -1.7997  0.4661
   45MOL0     O 5941  10.058   1.523   2.896 -0.2110  0.1456 -0.1947
   45MOL0     C 5942  10.099   1.600   2.985  0.3151 -0.3130  0.3832
   45MOL0     O 5943  10.040   1.716   3.033  0.8525 -0.0275 -0.3580
   45MOL0     C 5944   9.915   1.747   2.988  0.9505 -0.7832  0.6979
   45MOL0     C 5945   9.890   1.809   2.867  0.5042 -0.6533  0.5495
   45MOL0     C 5946   9.765   1.849   2.832  0.2158  0.4474 -0.3863
   45MOL0     C 5947   9.655   1.834   2.917 -0.9972  0.1414 -0.5876
   45MOL0     O 5948   9.531   1.885   2.899  0.7948 -0.0834 -0.8441
   45MOL0     C 5949   9.478   1.856   2.768  0.4124 -1.2011 -0.2366
   45MOL0     C 5950   9.339   1.913   2.768  0.6837 -0.6710  0.0263
   45MOL0     C 5951   9.256   1.867   2.648  0.6241 -0.1866  0.3997
   45MOL0     C 5952   9.288   1.940   2.520  0.2239 -0.3263 -0.1895
   45MOL0     C 5953   9.221   1.857   2.407 -0.3629 -0.1479  0.4400
   45MOL0     C 5954   9.236   1.926   2.270  0.9360  0.7049 -0.2690
   45MOL0     C 5955   9.194   1.810   2.165 -0.5679 -0.4585 -0.2973
   45MOL0     C 5956   9.304   1.707   2.118 -0.6635  0.0821 -0.4705
   45MOL0     N 5957   9.246   1.630   2.004  0.8142 -0.3170 -0.3872
   45MOL0     C 5958   9.223   1.678   1.874  0.4023 -0.7334 -0.7316
   45MOL0     C 5959   9.215   1.563   1.801  0.0770  0.3755 -0.1276
   45MOL0     C 5960   9.237   1.576   1.654  0.1123 -0.4669 -0.5722
   45MOL0     C 5961   9.135   1.487   1.582  0.7508  0.7114 -0.0392
   45MOL0     C 5962   9.142   1.508   1.429  1.4566  0.2092 -0.0643
   45MOL0     C 5963   9.031   1.611   1.373 -1.3991  1.0217 -0.0352
   45MOL0     O 5964   9.038   1.745   1.429 -0.0231  0.2149  0.5573
   45MOL0     C 5965   8.926   1.808   1.467 -0.5066 -0.1640  0.2116
   45MOL0     C 5966   8.920   1.849   1.598 -0.0765  0.1206 -0.2525
   45MOL0     C 5967   8.817   1.935   1.633  0.7280  0.9860  0.1528
   45MOL0     C 5968   8.711   1.970   1.536  0.6591  0.4618 -0.5732
   45MOL0     C 5969   8.594   2.052   1.579 -0.0780  0.1705 -0.0362
   45MOL0     O 5970   8.564   2.055   1.717 -0.3704 -0.5745  0.7612
   45MOL0     C 5971   8.464   2.131   1.765  0.0206 -0.2080  0.3984
   45MOL0     C 5972   8.427   2.261   1.715  0.0442  0.3682  0.2206
   45MOL0     C 5973   8.332   2.337   1.779 -0.2942  0.4957 -0.2576
   45MOL0     C 5974   8.250   2.285   1.883 -0.9881  0.5439  0.3034
   45MOL0     O 5975   8.147   2.348   1.943  0.1520 -0.2994  0.0335
   45MOL0     C 5976   8.137   2.493   1.923 -0.0689 -0.0197 -0.3753
   45MOL0     C 5977   8.027   2.551   1.998 -0.0451 -0.5425  0.2516
   45MOL0     C 5978   7.892   2.487   1.966  0.4427  0.2210 -0.4597
   45MOL0     C 5979   7.774   2.510   2.061 -0.5781  0.9292 -0.0654
   45MOL0     C 5980   7.665   2.395   2.032 -0.4521 -0.5623  0.1116
   45MOL0     C 5981   7.563   2.376   2.140  0.3714  0.4363 -0.6830
   45MOL0     C 5982   7.437   2.320   2.085  0.1218 -0.1085  0.4355
   45MOL0     C 5983   7.327   2.338   2.183  0.6567  0.4103  0.5601
   45MOL0    Cl 5984   7.171   2.254   2.137 -0.1639  0.3454 -0.2310
   45MOL0     C 5985   8.287   2.159   1.935 -0.1995  0.6232 -0.4882
   45MOL0     C 5986   8.394   2.083   1.878  0.0625  0.6624 -0.7294
   45MOL0     O 5987   8.535   2.110   1.487 -0.2506  1.3255 -0.2816
   45MOL0     C 5988   8.718   1.926   1.406  0.3584  0.4777 -0.4849
   45MOL0     C 5989   8.822   1.831   1.376  0.2051 -0.1665 -0.3412
   45MOL0     N 5990   9.238   1.457   1.879 -0.5907  0.1785  0.1051
   45MOL0     N 5991   9.257   1.494   2.000 -0.3657  0.2068  0.9745
   45MOL0     C 5992   9.672   1.763   3.037 -0.1226  0.0033 -0.0736
   45MOL0     C 5993   9.800   1.722   3.076  0.1195  0.1809  1.3895
   45MOL0     C 5994  10.229   1.572   3.049 -0.1174  0.1708 -0.0696
   45MOL0     C 5995  10.347   1.542   2.972  0.4887 -0.2133  0.7173
   45MOL0     C 5996  10.467   1.512   3.032 -0.3782 -0.4564 -0.0233
   45MOL0     C 5997  10.474   1.486   3.169  0.6743 -0.2615 -0.1732
   45MOL0     O 5998  10.593   1.449   3.219 -0.0110 -0.1321 -0.2186
   45MOL0     C 5999  10.639   1.323   3.165 -0.7815 -0.3727  0.9498
   45MOL0     C 6000  10.769   1.288   3.249  1.0944 -0.3843 -0.0727
   45MOL0     C 6001  10.869   1.390   3.224 -0.1951  0.7051  0.0682
   45MOL0     C 6002  10.999   1.361   3.309 -0.1795 -0.2310  0.9098
   45MOL0     C 6003  11.113   1.443   3.261  1.2730  0.8551  0.4089
   45MOL0     C 6004  11.206   1.511   3.237  0.2833 -0.6931 -0.2274
   45MOL0     C 6005  10.368   1.513   3.248 -0.8032 -0.0525 -0.7645
   45MOL0     C 6006  10.243   1.542   3.189 -0.1801  0.2280  0.2342
   45MOL0     C 6007  10.121   1.540   3.275 -0.3454 -0.3930  0.3385
   45MOL0     H 6008   9.968   1.829   2.794  0.8357 -2.0652  0.4857
   45MOL0     H 6009   9.746   1.898   2.737 -2.1859 -1.3645 -0.9447
   45MOL0     H 6010   9.536   1.899   2.685  1.0948 -1.9325 -0.1469
   45MOL0     H 6011   9.475   1.748   2.753 -0.7501 -1.0318 -1.5175
   45MOL0     H 6012   9.329   2.022   2.762 -2.5430 -0.9373 -0.8107
   45MOL0     H 6013   9.290   1.900   2.865 -1.0678 -1.1841 -0.8861
   45MOL0     H 6014   9.153   1.891   2.677  0.3155  0.6508 -1.2664
   45MOL0     H 6015   9.265   1.758   2.640  1.5119 -0.0586 -0.6161
   45MOL0     H 6016   9.243   2.040   2.524 -0.9105 -0.8161  3.9821
   45MOL0     H 6017   9.392   1.965   2.495 -0.1629  0.4429 -1.0955
   45MOL0     H 6018   9.265   1.757   2.402  1.7436  0.7607 -0.4757
   45MOL0     H 6019   9.115   1.834   2.424 -0.4321  0.3639  0.7175
   45MOL0     H 6020   9.164   2.008   2.263  2.0386  1.6536 -0.7702
   45MOL0     H 6021   9.336   1.963   2.249  1.8805 -1.3162  0.3775
   45MOL0     H 6022   9.153   1.855   2.074 -2.5047  0.3630  0.9182
   45MOL0     H 6023   9.115   1.744   2.202 -1.5181  1.3891  1.1338
   45MOL0     H 6024   9.393   1.761   2.084 -0.1292  0.5744  1.5828
   45MOL0     H 6025   9.334   1.638   2.197  0.9977  1.8878  0.5439
   45MOL0     H 6026   9.230   1.778   1.833  0.8911 -0.8517 -0.9392
   45MOL0     H 6027   9.234   1.680   1.621  0.4533 -0.3881 -0.3667
   45MOL0     H 6028   9.337   1.534   1.635  2.4600  2.4647  3.5886
   45MOL0     H 6029   9.165   1.385   1.609 -0.8485  0.3210  0.3848
   45MOL0     H 6030   9.034   1.509   1.616  0.2317  1.3861 -1.9165
   45MOL0     H 6031   9.117   1.414   1.380 -0.1154  0.4456  0.2240
   45MOL0     H 6032   9.241   1.533   1.390  2.2750 -1.4354  0.8582
   45MOL0     H 6033   8.936   1.565   1.399 -0.3626 -0.6067  1.0777
   45MOL0     H 6034   9.038   1.615   1.264  0.0203 -0.9956 -0.0903
   45MOL0     H 6035   8.995   1.819   1.670  1.3695 -0.7573 -2.0266
   45MOL0     H 6036   8.823   1.977   1.733  2.9285 -2.2476  1.5701
   45MOL0     H 6037   8.496   2.309   1.646 -0.0966 -0.0831 -0.2374
   45MOL0     H 6038   8.320   2.439   1.744 -1.2512  0.8357  0.9787
   45MOL0     H 6039   8.227   2.552   1.946 -0.8755  1.4477 -0.8099
   45MOL0     H 6040   8.120   2.510   1.817 -0.0443  0.1510 -0.3535
   45MOL0     H 6041   8.037   2.536   2.106 -1.3305 -3.3876  0.0471
   45MOL0     H 6042   8.019   2.659   1.983 -1.2393 -0.7665 -0.9083
   45MOL0     H 6043   7.858   2.511   1.865  2.1088  1.7634 -0.7080
   45MOL0     H 6044   7.912   2.380   1.954 -2.7692 -0.4662 -0.6292
   45MOL0     H 6045   7.727   2.609   2.055 -2.5349 -0.0329 -1.9471
   45MOL0     H 6046   7.805   2.486   2.164 -0.2299  0.6379 -0.2365
   45MOL0     H 6047   7.713   2.297   2.022  4.1034  1.1178  2.5289
   45MOL0     H 6048   7.611   2.431   1.944  2.5633  1.1991 -1.2003
   45MOL0     H 6049   7.607   2.313   2.218 -0.2481 -0.2865 -0.9049
   45MOL0     H 6050   7.539   2.468   2.194 -2.3681 -0.7601  0.3195
   45MOL0     H 6051   7.456   2.215   2.060 -3.4714 -0.3459 -2.1037
   45MOL0     H 6052   7.410   2.368   1.990  0.6660  1.0310  0.8419
   45MOL0     H 6053   7.354   2.310   2.285 -1.7610 -0.9319  0.9108
   45MOL0     H 6054   7.310   2.446   2.190  0.1841  0.4296 -0.6732
   45MOL0     H 6055   8.243   2.127   2.029  0.0777  1.3045 -0.1217
   45MOL0     H 6056   8.419   1.988   1.923  0.4466  1.6415  1.2337
   45MOL0     H 6057   8.650   1.949   1.324  0.8542  2.6848 -0.3118
   45MOL0     H 6058   8.831   1.795   1.274  2.0517 -2.6892  0.5918
   45MOL0     H 6059   9.573   1.756   3.082 -0.7113  2.0344 -0.9647
   45MOL0     H 6060   9.815   1.652   3.157  3.1289 -2.5503 -1.2449
   45MOL0     H 6061  10.339   1.537   2.864 -0.3423 -1.6506  0.8271
   45MOL0     H 6062  10.558   1.495   2.975  0.9161 -2.7493  2.4954
   45MOL0     H 6063  10.667   1.328   3.059 -1.2024  1.4957  0.9053
   45MOL0     H 6064  10.577   1.234   3.178  0.4983 -1.2370  1.3493
   45MOL0     H 6065  10.797   1.185   3.222  1.3019 -0.6394  1.0797
   45MOL0     H 6066  10.740   1.283   3.354  1.1701  1.0282  0.0277
   45MOL0     H 6067  10.828   1.488   3.247  4.9107  3.0330  0.6208
   45MOL0     H 6068  10.896   1.379   3.118  0.4879 -1.5045  0.4038
   45MOL0     H 6069  10.988   1.355   3.418  0.7549 -0.0276  1.0217
   45MOL0     H 6070  11.025   1.257   3.288 -0.6377  0.0112 -1.0138
   45MOL0     H 6071  11.295   1.563   3.208  0.5900  0.1057  1.9616
   45MOL0     H 6072  10.360   1.491   3.354  2.1652  0.0450 -0.4447
   45MOL0     H 6073  10.038   1.483   3.232 -0.7672 -0.3128  1.0464
   45MOL0     H 6074  10.135   1.511   3.379 -1.2024  1.0234  0.8707
   45MOL0     H 6075  10.103   1.648   3.278  0.1044 -0.3499  2.0256
   46MOL0     O 6076   7.382   6.406  11.152 -0.5792  0.7662  0.5478
   46MOL0     C 6077   7.335   6.341  11.237  0.6911  0.5380 -0.2667
   46MOL0     O 6078   7.381   6.217  11.267  0.3769 -0.3624  0.2298
   46MOL0     C 6079   7.481   6.156  11.194 -0.5151 -0.5056 -0.2266
   46MOL0     C 6080   7.600   6.216  11.174 -0.6832  1.4915  0.6673
   46MOL0     C 6081   7.704   6.153  11.101 -0.2705  0.2073  0.0502
   46MOL0     C 6082   7.687   6.027  11.037 -0.0998  0.1665  0.8473
   46MOL0     O 6083   7.795   5.976  10.963 -0.1187 -0.3098 -0.1140
   46MOL0     C 6084   7.822   5.833  10.933  0.2222 -0.3440 -0.1809
   46MOL0     C 6085   7.959   5.820  10.869 -0.0547  0.1062  0.5762
   46MOL0     C 6086   7.974   5.901  10.741  0.1492  0.0240 -0.1873
   46MOL0     C 6087   8.099   5.850  10.677  0.3075  0.0975 -0.5751
   46MOL0     C 6088   8.134   5.933  10.545  0.9053  0.2551  0.0023
   46MOL0     C 6089   8.243   5.861  10.471  0.2266  0.3164  1.6214
   46MOL0     C 6090   8.379   5.853  10.535  0.5185 -0.5461 -0.5425
   46MOL0     C 6091   8.481   5.864  10.427  0.4486 -0.7111 -0.5872
   46MOL0     N 6092   8.511   5.996  10.371  0.1165 -0.3283  0.1514
   46MOL0     C 6093   8.594   6.084  10.426  0.6470  0.3178  0.1013
   46MOL0     C 6094   8.583   6.195  10.349  1.0567  0.0997 -0.3341
   46MOL0     C 6095   8.635   6.332  10.378 -0.2249 -0.0555 -0.2879
   46MOL0     C 6096   8.547   6.408  10.477  0.3713  0.1261 -0.2029
   46MOL0     C 6097   8.418   6.456  10.403 -0.5437  0.4010 -0.4214
   46MOL0     C 6098   8.297   6.478  10.498  0.0208  0.8363  0.6274
   46MOL0     O 6099   8.259   6.357  10.572  0.0163 -0.5242  0.1109
   46MOL0     C 6100   8.180   6.385  10.677 -0.5096 -0.0232 -0.2880
   46MOL0     C 6101   8.217   6.453  10.788  0.1395  0.4071 -0.5381
   46MOL0     C 6102   8.128   6.478  10.901  0.5596  0.3345  1.1257
   46MOL0     C 6103   8.000   6.431  10.893 -0.5243 -0.8892 -1.0054
   46MOL0     C 6104   7.904   6.447  11.000 -0.0598  0.2377  0.1947
   46MOL0     O 6105   7.944   6.413  11.123 -0.2116  0.7462 -1.0156
   46MOL0     C 6106   7.864   6.442  11.230  1.1830 -1.2493 -0.7469
   46MOL0     C 6107   7.792   6.566  11.245 -1.2567 -1.0794 -0.9132
   46MOL0     C 6108   7.722   6.595  11.361 -0.6596  0.1744  0.1435
   46MOL0     C 6109   7.715   6.514  11.472  0.1982  1.1199  0.6868
   46MOL0     O 6110   7.636   6.533  11.580  0.7977 -0.0328  0.1298
   46MOL0     C 6111   7.508   6.599  11.557  0.5181 -0.2480  0.7177
   46MOL0     C 6112   7.430   6.580  11.679  0.2541  0.5965  0.1771
   46MOL0     C 6113   7.383   6.438  11.683 -0.1645  0.2520  0.2116
   46MOL0     C 6114   7.233   6.434  11.713  0.7359  0.2626  0.2364
   46MOL0     C 6115   7.195   6.437  11.864 -1.2065  0.0868 -0.7578
   46MOL0     C 6116   7.068   6.361  11.911 -0.5115 -0.1684  0.7755
   46MOL0     C 6117   6.939   6.412  11.853 -0.2680 -0.3979 -0.2564
   46MOL0     C 6118   6.814   6.342  11.892 -0.2289  0.3196  0.7455
   46MOL0    Cl 6119   6.779   6.342  12.063 -0.2803 -0.7425  0.0539
   46MOL0     C 6120   7.803   6.395  11.465 -0.1413  0.1048  0.0392
   46MOL0     C 6121   7.873   6.365  11.339 -0.2785 -0.2024 -0.9905
   46MOL0     O 6122   7.794   6.481  10.973  0.1127  0.3065  0.2719
   46MOL0     C 6123   7.969   6.359  10.779 -0.6550  0.8426 -0.2626
   46MOL0     C 6124   8.053   6.336  10.673 -0.1702  0.1472 -0.0341
   46MOL0     N 6125   8.510   6.165  10.245 -0.4036 -0.7717 -0.5207
   46MOL0     N 6126   8.461   6.054  10.267 -0.6697  0.1368  0.2619
   46MOL0     C 6127   7.564   5.956  11.063 -0.6803 -0.7247  0.5362
   46MOL0     C 6128   7.463   6.020  11.143  0.5626  0.2972 -1.0986
   46MOL0     C 6129   7.201   6.379  11.289  1.1036  0.7200 -0.3464
   46MOL0     C 6130   7.166   6.514  11.283 -0.3085 -0.0657  0.3712
   46MOL0     C 6131   7.046   6.554  11.336  0.1302  0.5915 -0.2818
   46MOL0     C 6132   6.959   6.471  11.405  0.3410  1.1300  0.6007
   46MOL0     O 6133   6.846   6.514  11.470 -0.4596 -1.4699  0.5453
   46MOL0     C 6134   6.726   6.453  11.436  0.4412 -0.2509  0.1676
   46MOL0     C 6135   6.625   6.552  11.370  0.0121  0.5907 -0.0202
   46MOL0     C 6136   6.482   6.497  11.385 -0.7385 -0.3898 -0.6846
   46MOL0     C 6137   6.402   6.621  11.359 -0.8790 -1.1373 -0.3010
   46MOL0     C 6138   6.261   6.602  11.342 -0.0903 -0.4583  0.8717
   46MOL0     C 6139   6.141   6.580  11.318 -0.2158 -0.3953 -0.6646
   46MOL0     C 6140   6.996   6.341  11.410 -0.2770  0.5189  1.0440
   46MOL0     C 6141   7.108   6.283  11.349  0.3669  0.2850 -0.1724
   46MOL0     C 6142   7.130   6.135  11.358  0.5155  0.0975 -0.5221
   46MOL0     H 6143   7.606   6.318  11.210 -2.8908  1.5753  0.9453
   46MOL0     H 6144   7.791   6.217  11.102 -1.5115  1.9842  2.1747
   46MOL0     H 6145   7.837   5.768  11.019 -0.8507 -2.1502 -1.2864
   46MOL0     H 6146   7.739   5.787  10.879 -0.1550  0.1910 -0.0647
   46MOL0     H 6147   7.984   5.714  10.855  1.9048  0.5628  0.4114
   46MOL0     H 6148   8.029   5.864  10.940  2.4312 -2.4794 -0.0924
   46MOL0     H 6149   7.974   6.009  10.763 -0.7289 -0.1304  0.6805
   46MOL0     H 6150   7.886   5.875  10.682 -0.1533  0.1372  0.2069
   46MOL0     H 6151   8.190   5.854  10.738 -2.0958  0.7477  3.2994
   46MOL0     H 6152   8.076   5.744  10.664 -0.5353  0.3297 -1.0320
   46MOL0     H 6153   8.040   5.939  10.490  0.3802  0.7585  0.9217
   46MOL0     H 6154   8.168   6.035  10.567  0.7466  1.1636 -3.4712
   46MOL0     H 6155   8.213   5.757  10.452 -0.5862  1.0791 -2.2009
   46MOL0     H 6156   8.254   5.907  10.372  3.7991 -1.8562  0.8319
   46MOL0     H 6157   8.378   5.758  10.589 -2.2431  0.4834  1.4728
   46MOL0     H 6158   8.387   5.943  10.597  2.4704 -1.8363  1.1977
   46MOL0     H 6159   8.579   5.823  10.452  1.9270  2.6132 -0.4224
   46MOL0     H 6160   8.450   5.794  10.349 -1.8009  0.0368 -0.4325
   46MOL0     H 6161   8.640   6.075  10.524 -0.6818 -0.2078  0.7021
   46MOL0     H 6162   8.741   6.326  10.404 -0.9246 -0.0180  3.0498
   46MOL0     H 6163   8.639   6.398  10.291 -1.7359  3.3099  1.9810
   46MOL0     H 6164   8.520   6.352  10.567  0.3197 -0.3615 -0.5154
   46MOL0     H 6165   8.587   6.504  10.509 -2.1065  0.4531  2.2766
   46MOL0     H 6166   8.390   6.383  10.327 -1.0523  0.1411  0.0095
   46MOL0     H 6167   8.435   6.544  10.340 -2.7321 -0.0166 -1.6854
   46MOL0     H 6168   8.207   6.496  10.440 -0.6324 -3.3182 -0.0055
   46MOL0     H 6169   8.326   6.559  10.565  0.2684  1.7703 -0.5664
   46MOL0     H 6170   8.321   6.484  10.790  0.3709  0.0871 -3.2885
   46MOL0     H 6171   8.152   6.530  10.993 -2.7350 -0.9592  2.8611
   46MOL0     H 6172   7.789   6.652  11.179 -2.2737  0.9793  1.6270
   46MOL0     H 6173   7.664   6.686  11.359 -2.5627 -0.9902 -0.0887
   46MOL0     H 6174   7.540   6.703  11.550  2.0033 -0.6882  0.7643
   46MOL0     H 6175   7.452   6.567  11.468  0.2041  3.3029 -0.5074
   46MOL0     H 6176   7.484   6.610  11.769  0.6990 -0.6871  0.3655
   46MOL0     H 6177   7.354   6.659  11.675  1.5368  2.0636  2.6671
   46MOL0     H 6178   7.405   6.382  11.591  0.7737  0.6978  0.1546
   46MOL0     H 6179   7.435   6.381  11.761  0.3245  2.8124  1.8583
   46MOL0     H 6180   7.207   6.335  11.674  4.2289 -0.3739 -0.8631
   46MOL0     H 6181   7.169   6.499  11.652  0.9290  1.2231  1.0285
   46MOL0     H 6182   7.182   6.542  11.894  0.3918  0.9560 -2.7965
   46MOL0     H 6183   7.286   6.405  11.916 -1.6221  0.3091  0.1295
   46MOL0     H 6184   7.075   6.253  11.891  1.8084 -0.3161  1.9636
   46MOL0     H 6185   7.066   6.360  12.020  1.5984 -0.8057  0.8525
   46MOL0     H 6186   6.948   6.391  11.746 -1.2305 -0.9162 -0.2418
   46MOL0     H 6187   6.924   6.520  11.856  3.1365  0.1555  0.8450
   46MOL0     H 6188   6.725   6.385  11.845 -0.6090 -0.4513  0.7374
   46MOL0     H 6189   6.829   6.240  11.854 -1.1156  0.5287 -0.2256
   46MOL0     H 6190   7.812   6.324  11.546  1.2187  1.0191  0.7296
   46MOL0     H 6191   7.937   6.277  11.335 -0.6515 -0.4385 -2.8705
   46MOL0     H 6192   7.871   6.313  10.781  0.1989 -1.0407  0.9591
   46MOL0     H 6193   8.023   6.272  10.591  0.9012 -1.6164  0.8940
   46MOL0     H 6194   7.554   5.856  11.023 -0.3622 -1.2345  1.7112
   46MOL0     H 6195   7.372   5.965  11.167 -0.5954  1.7336 -2.0454
   46MOL0     H 6196   7.227   6.594  11.241  0.6312  0.0380  1.8622
   46MOL0     H 6197   7.018   6.659  11.332  1.3606  0.9211 -3.2449
   46MOL0     H 6198   6.683   6.411  11.528 -0.8960  3.0646  1.2077
   46MOL0     H 6199   6.730   6.370  11.365  3.6385 -1.2496  1.3576
   46MOL0     H 6200   6.651   6.558  11.264  2.4819 -1.4116  0.3543
   46MOL0     H 6201   6.632   6.650  11.418 -0.6009  0.1213  1.0857
   46MOL0     H 6202   6.480   6.446  11.482  2.9159  0.1382 -0.2112
   46MOL0     H 6203   6.458   6.418  11.314 -2.1478  1.0371 -1.8905
   46MOL0     H 6204   6.420   6.706  11.427  2.5398 -1.7821 -0.2484
   46MOL0     H 6205   6.436   6.661  11.263  2.6714  3.5780  2.4743
   46MOL0     H 6206   6.038   6.552  11.309 -0.6264  0.9005 -0.2920
   46MOL0     H 6207   6.936   6.273  11.470  1.0377 -2.5637 -0.8650
   46MOL0     H 6208   7.192   6.087  11.282 -1.0943  0.2454 -2.0077
   46MOL0     H 6209   7.152   6.120  11.464  0.1280 -0.1744 -0.4779
   46MOL0     H 6210   7.034   6.090  11.331  0.4295 -0.1193  0.1262
   47MOL0     O 6211   9.180   7.320   6.902  0.6451 -0.3178  0.0379
   47MOL0     C 6212   9.172   7.447   6.909  0.0789 -0.0899 -0.5731
   47MOL0     O 6213   9.270   7.534   6.878  0.0593 -0.4887 -0.3138
   47MOL0     C 6214   9.372   7.499   6.800 -0.4594 -0.5529 -0.5195
   47MOL0     C 6215   9.492   7.561   6.817  0.5384  0.0958 -0.4785
   47MOL0     C 6216   9.595   7.563   6.725  0.5427  0.3778 -0.7622
   47MOL0     C 6217   9.580   7.502   6.605 -0.0801 -0.9027  0.8314
   47MOL0     O 6218   9.692   7.507   6.524  0.3743  0.0617  0.2069
   47MOL0     C 6219   9.673   7.468   6.386  0.0481  0.1710 -0.6725
   47MOL0     C 6220   9.799   7.489   6.299  0.2451 -0.1965  0.2493
   47MOL0     C 6221   9.763   7.484   6.156  0.4549 -0.6649  0.3770
   47MOL0     C 6222   9.888   7.492   6.067  0.5019 -0.7325 -0.8402
   47MOL0     C 6223   9.856   7.497   5.914  0.0451  0.3178 -0.2036
   47MOL0     C 6224   9.978   7.469   5.834 -0.8546 -0.3954  0.1734
   47MOL0     C 6225   9.960   7.466   5.685 -0.3809 -0.5345  0.1282
   47MOL0     C 6226  10.073   7.379   5.626 -0.0454  0.7068 -0.0300
   47MOL0     N 6227  10.073   7.378   5.478  1.5254  0.2540  0.2163
   47MOL0     C 6228  10.056   7.263   5.402  0.8258 -0.0169 -0.0592
   47MOL0     C 6229  10.089   7.304   5.277 -1.0668 -0.1976 -0.1261
   47MOL0     C 6230  10.100   7.216   5.159  0.1243 -0.1185 -0.4273
   47MOL0     C 6231  10.078   7.299   5.035  0.6754  0.0551 -0.6437
   47MOL0     C 6232  10.048   7.203   4.921  0.3760  0.4379  0.3704
   47MOL0     C 6233   9.923   7.242   4.848  1.1689 -1.0674 -0.2566
   47MOL0     O 6234   9.925   7.378   4.813 -0.5711 -0.4582  1.0076
   47MOL0     C 6235   9.989   7.429   4.697 -0.7502 -0.3605  1.1542
   47MOL0     C 6236  10.046   7.345   4.603 -0.0465  0.9629 -0.4014
   47MOL0     C 6237  10.121   7.397   4.500  0.1357  0.5009 -0.4003
   47MOL0     C 6238  10.146   7.539   4.493  0.0243 -0.1151  0.4931
   47MOL0     C 6239  10.243   7.590   4.392  0.8727  0.0657  0.3446
   47MOL0     O 6240  10.316   7.497   4.314  0.8243  0.2741 -0.1885
   47MOL0     C 6241  10.428   7.549   4.249 -0.3195  0.1447 -0.3071
   47MOL0     C 6242  10.531   7.628   4.304  0.3780 -0.1600 -0.8136
   47MOL0     C 6243  10.634   7.679   4.226 -0.2361 -0.5369  0.1898
   47MOL0     C 6244  10.640   7.663   4.085 -1.0738 -0.6333 -0.1505
   47MOL0     O 6245  10.733   7.729   4.010 -0.3591 -0.1614  0.4199
   47MOL0     C 6246  10.779   7.655   3.896  0.5616 -0.3666 -0.3189
   47MOL0     C 6247  10.897   7.725   3.835 -0.2578  0.9020  0.1332
   47MOL0     C 6248  10.862   7.853   3.754  0.1392 -0.5119 -0.6110
   47MOL0     C 6249  10.989   7.873   3.662 -0.1177 -0.3921  0.2616
   47MOL0     C 6250  10.975   8.001   3.571 -0.8261 -0.1925 -0.7509
   47MOL0     C 6251  11.074   7.996   3.454 -0.3946  0.3637  0.5050
   47MOL0     C 6252  11.028   8.088   3.338 -0.2644 -0.0503 -1.0749
   47MOL0     C 6253  11.138   8.101   3.227 -0.3037  0.3088 -0.1909
   47MOL0    Cl 6254  11.092   8.228   3.110  0.1309 -0.2697  0.3066
   47MOL0     C 6255  10.533   7.595   4.023  0.5676 -0.8697  0.1214
   47MOL0     C 6256  10.436   7.528   4.109  0.8204 -0.2859  0.1704
   47MOL0     O 6257  10.255   7.712   4.387 -0.5435 -0.6009 -0.4882
   47MOL0     C 6258  10.098   7.622   4.594 -0.0384 -0.2676  1.2403
   47MOL0     C 6259  10.015   7.569   4.691 -0.5622  0.6062 -0.2115
   47MOL0     N 6260  10.125   7.432   5.289 -1.0458 -0.1277 -0.1426
   47MOL0     N 6261  10.113   7.476   5.403  0.2310  0.4673 -0.4219
   47MOL0     C 6262   9.463   7.424   6.579  0.1371 -0.4513 -0.6021
   47MOL0     C 6263   9.368   7.425   6.681  0.6170 -0.1510  0.0193
   47MOL0     C 6264   9.046   7.503   6.965  0.7170  0.4388  0.3739
   47MOL0     C 6265   9.058   7.600   7.064  0.9428  0.7485 -0.2456
   47MOL0     C 6266   8.949   7.664   7.119 -0.3719 -0.0165 -0.4988
   47MOL0     C 6267   8.819   7.615   7.083 -1.0455 -0.3335  0.0882
   47MOL0     O 6268   8.725   7.685   7.160  0.0171  0.3291  0.2026
   47MOL0     C 6269   8.585   7.648   7.158  0.3904 -0.3189  0.3959
   47MOL0     C 6270   8.500   7.767   7.161  0.3783 -0.9758 -0.2300
   47MOL0     C 6271   8.427   7.802   7.290 -0.0276 -0.3688 -0.0028
   47MOL0     C 6272   8.522   7.879   7.375 -1.1011 -0.1351  0.3203
   47MOL0     C 6273   8.479   7.882   7.514 -0.4701 -0.0792 -0.9001
   47MOL0     C 6274   8.457   7.892   7.637  0.1465 -0.6229  0.8283
   47MOL0     C 6275   8.806   7.503   7.007  0.6431 -0.5077  0.0507
   47MOL0     C 6276   8.915   7.445   6.950 -0.2527  0.1373 -0.4285
   47MOL0     C 6277   8.890   7.332   6.858  0.0196 -0.2770  0.0757
   47MOL0     H 6278   9.500   7.626   6.904 -2.6108  1.0204 -0.7352
   47MOL0     H 6279   9.690   7.612   6.743  3.1502 -3.3727 -2.8687
   47MOL0     H 6280   9.661   7.360   6.400 -1.5064  0.6407  2.5722
   47MOL0     H 6281   9.583   7.507   6.339 -0.7105 -1.2598 -0.4674
   47MOL0     H 6282   9.873   7.414   6.327  0.3057 -1.3381 -2.6264
   47MOL0     H 6283   9.846   7.586   6.322 -1.2672  0.2642  1.5977
   47MOL0     H 6284   9.692   7.563   6.132  1.1459 -0.5587 -1.5164
   47MOL0     H 6285   9.714   7.388   6.136 -0.0007 -0.6683  1.4460
   47MOL0     H 6286   9.949   7.582   6.083  0.4745 -0.9866  0.8511
   47MOL0     H 6287   9.960   7.415   6.095  0.3340 -1.0458 -1.2476
   47MOL0     H 6288   9.787   7.414   5.893 -1.1543  1.2533 -0.0740
   47MOL0     H 6289   9.795   7.582   5.883 -2.3799 -1.6537 -1.2323
   47MOL0     H 6290  10.060   7.536   5.859  0.4455 -2.2063  0.9844
   47MOL0     H 6291  10.015   7.371   5.865  1.9813 -0.1837 -2.1408
   47MOL0     H 6292   9.979   7.567   5.646  0.1861 -0.0709  1.5162
   47MOL0     H 6293   9.867   7.412   5.665  0.4788 -1.2087 -2.4127
   47MOL0     H 6294  10.169   7.425   5.650  1.2547 -1.7143 -0.3186
   47MOL0     H 6295  10.060   7.275   5.657 -1.9285  1.2304  1.1011
   47MOL0     H 6296  10.023   7.163   5.426  0.7694  0.5058  2.2584
   47MOL0     H 6297  10.205   7.187   5.164  0.7977  2.3365  0.8078
   47MOL0     H 6298  10.042   7.123   5.165 -0.5358  0.3700  1.7116
   47MOL0     H 6299  10.001   7.373   5.058 -0.9916 -1.6685 -0.4305
   47MOL0     H 6300  10.166   7.356   5.006 -0.4170  2.2030  0.0689
   47MOL0     H 6301  10.050   7.097   4.948 -0.9902 -0.3302 -2.2675
   47MOL0     H 6302  10.135   7.213   4.855 -0.2560 -0.3897 -0.6164
   47MOL0     H 6303   9.831   7.232   4.905  0.7185 -1.0045 -0.9516
   47MOL0     H 6304   9.900   7.172   4.767 -3.4139 -2.2830  1.7593
   47MOL0     H 6305  10.021   7.239   4.604 -1.7129  1.2716 -2.3985
   47MOL0     H 6306  10.169   7.330   4.429 -2.4542  0.3481 -2.1357
   47MOL0     H 6307  10.519   7.638   4.412 -1.0168  0.5770 -1.0162
   47MOL0     H 6308  10.703   7.739   4.285 -2.5143 -0.5705  3.1085
   47MOL0     H 6309  10.815   7.555   3.921  0.4564 -0.8081 -1.8277
   47MOL0     H 6310  10.701   7.633   3.822  0.3581  3.0220 -1.2878
   47MOL0     H 6311  10.966   7.747   3.918 -0.3978 -1.4394  0.9600
   47MOL0     H 6312  10.946   7.648   3.774 -1.7223 -0.0454  0.1118
   47MOL0     H 6313  10.769   7.839   3.698 -1.0018  2.5601  0.2940
   47MOL0     H 6314  10.843   7.937   3.821  0.0366 -2.5889  2.1281
   47MOL0     H 6315  10.992   7.784   3.598 -1.1825 -0.1955 -0.0893
   47MOL0     H 6316  11.083   7.887   3.716  0.3691 -0.4216 -0.5724
   47MOL0     H 6317  10.986   8.095   3.626 -1.2062 -1.2035  1.1569
   47MOL0     H 6318  10.872   8.005   3.532 -1.8101  2.0714  1.7893
   47MOL0     H 6319  11.174   8.008   3.495  0.0580  0.6479 -0.6465
   47MOL0     H 6320  11.078   7.892   3.418 -1.2825  1.2061 -2.3186
   47MOL0     H 6321  11.007   8.184   3.386  0.9163  0.8212 -2.2128
   47MOL0     H 6322  10.932   8.051   3.301 -0.8236 -0.0668  0.3549
   47MOL0     H 6323  11.227   8.130   3.285 -0.1952  1.7870 -1.0540
   47MOL0     H 6324  11.178   8.016   3.170 -1.0084 -0.6122  0.6471
   47MOL0     H 6325  10.523   7.575   3.917 -2.6116  1.2617 -0.1410
   47MOL0     H 6326  10.365   7.459   4.065 -0.4641  0.1236  1.5149
   47MOL0     H 6327  10.118   7.727   4.607  1.8189 -0.5034  0.5825
   47MOL0     H 6328   9.983   7.640   4.766  3.1643  0.4952  1.7021
   47MOL0     H 6329   9.450   7.372   6.485 -0.8273  2.0990 -1.9767
   47MOL0     H 6330   9.277   7.368   6.665 -1.3676  1.6082  3.7078
   47MOL0     H 6331   9.157   7.637   7.089  0.1288  1.2207  2.6631
   47MOL0     H 6332   8.956   7.747   7.188  4.1790 -1.0886  0.7222
   47MOL0     H 6333   8.558   7.589   7.247 -2.0525  1.3277  0.8331
   47MOL0     H 6334   8.558   7.596   7.066 -0.1396 -1.5191  1.1993
   47MOL0     H 6335   8.422   7.755   7.085  1.2356 -0.8978 -1.1383
   47MOL0     H 6336   8.560   7.851   7.124 -0.0166 -0.6853 -0.2254
   47MOL0     H 6337   8.386   7.715   7.343 -1.5424  2.2724  3.5074
   47MOL0     H 6338   8.340   7.866   7.276 -0.0706 -0.1918  0.9889
   47MOL0     H 6339   8.618   7.826   7.377 -0.2477  1.2892  3.2459
   47MOL0     H 6340   8.530   7.971   7.317  1.0647 -1.6144 -1.9513
   47MOL0     H 6341   8.436   7.905   7.742  1.6594 -0.2071  1.1085
   47MOL0     H 6342   8.706   7.468   6.985  0.4413 -0.4437  0.8501
   47MOL0     H 6343   8.938   7.345   6.760  1.1128  1.4611  0.8127
   47MOL0     H 6344   8.920   7.237   6.904 -0.4104 -0.3741  0.1641
   47MOL0     H 6345   8.783   7.313   6.839  0.7754 -2.7056 -2.5794
   48MOL0     O 6346   8.223  11.255   5.903  0.0572 -0.3085 -0.0644
   48MOL0     C 6347   8.162  11.214   6.001  0.8043 -0.7218  0.3246
   48MOL0     O 6348   8.212  11.188   6.120 -0.4826  0.4554 -0.5090
   48MOL0     C 6349   8.346  11.194   6.153  0.4279  1.3806 -0.8174
   48MOL0     C 6350   8.381  11.119   6.264  0.1893  0.0473  0.8368
   48MOL0     C 6351   8.514  11.138   6.309  0.9651 -0.1959  0.4012
   48MOL0     C 6352   8.608  11.206   6.240 -0.2386 -0.9935  0.4462
   48MOL0     O 6353   8.731  11.231   6.287  0.1101 -0.2336  0.2679
   48MOL0     C 6354   8.791  11.131   6.368 -0.3983 -0.5953 -0.6745
   48MOL0     C 6355   8.939  11.181   6.397  0.6699  0.0961  0.3078
   48MOL0     C 6356   9.014  11.079   6.483 -0.8249 -0.3365 -0.2451
   48MOL0     C 6357   8.972  11.104   6.629 -0.4427 -0.1979  0.6112
   48MOL0     C 6358   9.070  11.052   6.736  0.7278 -0.4870  0.7258
   48MOL0     C 6359   9.060  10.899   6.745 -0.0249  0.2525 -0.5099
   48MOL0     C 6360   9.140  10.820   6.850 -0.5555  0.4517 -0.1337
   48MOL0     C 6361   9.278  10.877   6.882  0.6204 -0.4711 -0.0166
   48MOL0     N 6362   9.337  10.817   7.001 -0.0459 -0.4616  0.5185
   48MOL0     C 6363   9.471  10.797   7.013 -0.9611  0.0125 -0.7745
   48MOL0     C 6364   9.479  10.700   7.112 -0.2421  0.2973  0.7770
   48MOL0     C 6365   9.612  10.633   7.142 -0.1726 -0.6098 -0.3635
   48MOL0     C 6366   9.620  10.596   7.296  0.0291 -0.2047  0.1383
   48MOL0     C 6367   9.730  10.496   7.302  0.2042 -0.4025  0.0558
   48MOL0     C 6368   9.753  10.439   7.437 -0.3285 -0.6285 -0.0435
   48MOL0     O 6369   9.802  10.547   7.528 -0.3835  0.1813 -0.1661
   48MOL0     C 6370   9.802  10.516   7.662 -0.4666 -0.0719  0.5150
   48MOL0     C 6371   9.774  10.393   7.709  0.4659 -0.4427 -1.1040
   48MOL0     C 6372   9.792  10.360   7.852 -0.4911 -1.3467  0.1586
   48MOL0     C 6373   9.850  10.449   7.939 -0.4911 -0.7362 -0.7483
   48MOL0     C 6374   9.886  10.406   8.077 -0.1546 -0.5216 -0.0627
   48MOL0     O 6375   9.939  10.503   8.153  0.5618  0.8573  0.2846
   48MOL0     C 6376   9.991  10.467   8.278  0.4528  0.3819  0.2012
   48MOL0     C 6377  10.045  10.340   8.313  0.6463 -0.6880  0.0663
   48MOL0     C 6378  10.097  10.341   8.444 -0.7785 -0.3047 -0.9627
   48MOL0     C 6379  10.120  10.456   8.521  0.6141 -0.4222  0.2546
   48MOL0     O 6380  10.194  10.434   8.634  0.4152 -0.8510  0.3266
   48MOL0     C 6381  10.166  10.516   8.751 -0.7262 -0.6007 -0.3801
   48MOL0     C 6382  10.257  10.651   8.766 -0.3651 -0.0459  0.5220
   48MOL0     C 6383  10.401  10.621   8.813 -0.3935  0.6582  0.9051
   48MOL0     C 6384  10.410  10.606   8.963  0.6732 -0.5922 -0.3205
   48MOL0     C 6385  10.548  10.551   9.011  0.0746  0.5358  0.0779
   48MOL0     C 6386  10.558  10.531   9.164  0.0254  0.5311 -0.0157
   48MOL0     C 6387  10.689  10.466   9.217  0.0334 -0.1466  0.4033
   48MOL0     C 6388  10.816  10.523   9.146 -0.0139  0.5241  0.0610
   48MOL0    Cl 6389  10.976  10.498   9.232 -0.3372  0.3831  0.2234
   48MOL0     C 6390  10.075  10.577   8.474 -0.2067  0.2710 -0.2940
   48MOL0     C 6391  10.014  10.579   8.357 -0.6550 -0.5874 -0.1558
   48MOL0     O 6392   9.848  10.295   8.115  0.5263 -0.2386 -0.5858
   48MOL0     C 6393   9.865  10.584   7.901  0.9594  0.1737  1.0826
   48MOL0     C 6394   9.834  10.617   7.760  0.0851 -0.1399 -0.1474
   48MOL0     N 6395   9.358  10.679   7.170  0.9503  0.9506  0.1727
   48MOL0     N 6396   9.275  10.739   7.099 -0.1679 -0.1282 -0.8053
   48MOL0     C 6397   8.575  11.272   6.118 -0.1184 -0.1105 -0.4920
   48MOL0     C 6398   8.439  11.272   6.081 -0.2958  0.0741  0.4320
   48MOL0     C 6399   8.018  11.179   5.985 -1.0325  0.1614 -0.6195
   48MOL0     C 6400   7.946  11.130   6.091 -0.3622  0.3926 -0.4122
   48MOL0     C 6401   7.816  11.082   6.071  0.0449  0.5643  0.0380
   48MOL0     C 6402   7.756  11.094   5.944 -0.6408 -0.0534  0.2334
   48MOL0     O 6403   7.629  11.044   5.911 -0.1343  0.2631  0.5224
   48MOL0     C 6404   7.539  10.992   6.014  0.2393 -0.1313  0.4022
   48MOL0     C 6405   7.409  10.942   5.947  0.3775  0.3831  0.4136
   48MOL0     C 6406   7.296  10.888   6.029 -0.0307  0.4317 -0.8458
   48MOL0     C 6407   7.172  10.864   5.946 -0.1322  0.0284 -0.3468
   48MOL0     C 6408   7.094  10.753   6.007 -0.5447 -0.3878  0.0512
   48MOL0     C 6409   7.033  10.665   6.065  0.0039 -0.7595  0.1007
   48MOL0     C 6410   7.823  11.155   5.841 -0.3158 -0.0377  0.9491
   48MOL0     C 6411   7.950  11.202   5.860 -0.5865 -0.2629  0.9206
   48MOL0     C 6412   7.995  11.276   5.737 -0.3595 -0.3422  0.0477
   48MOL0     H 6413   8.306  11.061   6.317 -0.7374  0.2160 -0.2415
   48MOL0     H 6414   8.529  11.097   6.409  0.1756  0.7736  0.9410
   48MOL0     H 6415   8.745  11.109   6.465 -0.4116 -2.7016 -1.1315
   48MOL0     H 6416   8.796  11.034   6.320 -0.3965 -0.8625 -0.1423
   48MOL0     H 6417   8.947  11.280   6.442  2.3166 -0.0322  0.3586
   48MOL0     H 6418   8.991  11.183   6.301 -1.7021 -0.0518 -1.0753
   48MOL0     H 6419   9.120  11.105   6.475 -0.8369 -0.2506 -0.1327
   48MOL0     H 6420   9.002  10.975   6.451 -0.1147 -0.4557 -0.1510
   48MOL0     H 6421   8.971  11.212   6.643  3.2585  0.2681 -1.4472
   48MOL0     H 6422   8.869  11.068   6.628 -0.1420 -1.1119  1.0732
   48MOL0     H 6423   9.168  11.081   6.698  0.0352 -0.2662 -0.9837
   48MOL0     H 6424   9.059  11.103   6.832  0.2373  0.4834  0.1730
   48MOL0     H 6425   8.956  10.869   6.752  0.6226 -1.7193  3.2584
   48MOL0     H 6426   9.102  10.863   6.650  3.8009 -2.5920  1.9493
   48MOL0     H 6427   9.163  10.720   6.811  1.8543  0.7318  0.4242
   48MOL0     H 6428   9.082  10.789   6.937  0.6146 -0.2229  0.4354
   48MOL0     H 6429   9.347  10.870   6.797 -0.8219 -0.4211 -1.2220
   48MOL0     H 6430   9.260  10.981   6.913  2.6811  0.4503 -1.6302
   48MOL0     H 6431   9.551  10.833   6.950 -0.9236  0.7701 -0.3042
   48MOL0     H 6432   9.615  10.546   7.076 -0.2552  0.8798 -2.4293
   48MOL0     H 6433   9.700  10.695   7.120 -0.4418 -0.5832 -1.3947
   48MOL0     H 6434   9.643  10.687   7.352  1.2082 -1.1712  1.2573
   48MOL0     H 6435   9.525  10.550   7.326 -0.3401 -0.9218 -1.9563
   48MOL0     H 6436   9.817  10.546   7.260 -1.0012 -1.2088 -3.7527
   48MOL0     H 6437   9.707  10.411   7.237 -1.0303 -1.3058  1.5982
   48MOL0     H 6438   9.823  10.357   7.423  1.5031  0.7454  0.6383
   48MOL0     H 6439   9.657  10.406   7.478 -1.1352  2.9152  1.3224
   48MOL0     H 6440   9.715  10.319   7.656 -0.3668 -1.0894  0.6452
   48MOL0     H 6441   9.776  10.257   7.883 -1.2709 -1.2381  0.1458
   48MOL0     H 6442  10.031  10.264   8.236  0.6085  0.0464 -0.6678
   48MOL0     H 6443  10.141  10.250   8.482  0.6384  0.2668 -1.1509
   48MOL0     H 6444  10.063  10.551   8.741 -0.7453 -0.8865 -1.2345
   48MOL0     H 6445  10.189  10.452   8.837  2.9136 -1.2214 -1.6548
   48MOL0     H 6446  10.264  10.715   8.678 -2.4501 -1.0250 -0.4290
   48MOL0     H 6447  10.207  10.708   8.845 -0.1694  1.3878 -0.3641
   48MOL0     H 6448  10.440  10.534   8.759  0.6522  2.3314 -1.1931
   48MOL0     H 6449  10.464  10.707   8.789 -0.9631  0.6603 -0.6989
   48MOL0     H 6450  10.328  10.561   9.018  1.9591 -0.6155  1.6884
   48MOL0     H 6451  10.394  10.707   9.000  1.2913 -1.7428  3.5816
   48MOL0     H 6452  10.634  10.608   8.973  0.2977 -1.1053 -2.0816
   48MOL0     H 6453  10.565  10.452   8.967 -1.0652 -0.1063  1.0330
   48MOL0     H 6454  10.556  10.626   9.218 -2.6404 -1.1665  3.2240
   48MOL0     H 6455  10.475  10.465   9.191  1.6971 -1.1019  1.3450
   48MOL0     H 6456  10.686  10.357   9.208 -1.8879 -0.5263  3.8851
   48MOL0     H 6457  10.688  10.488   9.324 -0.7293 -0.6194  0.4956
   48MOL0     H 6458  10.827  10.496   9.041 -0.3993  1.7267 -0.3064
   48MOL0     H 6459  10.811  10.630   9.125  0.3682  0.6010  0.3579
   48MOL0     H 6460  10.102  10.670   8.524 -2.1069  2.2069 -2.5739
   48MOL0     H 6461   9.975  10.673   8.319 -1.2487 -2.1989 -4.0205
   48MOL0     H 6462   9.908  10.649   7.977 -0.4728 -0.0158  2.0924
   48MOL0     H 6463   9.856  10.719   7.728 -1.3903  1.5376  3.5916
   48MOL0     H 6464   8.653  11.311   6.053 -1.9148 -0.1575 -2.8336
   48MOL0     H 6465   8.410  11.346   6.007 -1.3453  0.0162  0.7706
   48MOL0     H 6466   7.995  11.134   6.188 -1.7845  2.4107  0.3036
   48MOL0     H 6467   7.774  11.023   6.152  1.3201 -3.4913 -1.9604
   48MOL0     H 6468   7.523  11.078   6.081  3.9681  1.1348 -0.0341
   48MOL0     H 6469   7.589  10.918   6.077  2.9870  1.7871  0.7060
   48MOL0     H 6470   7.427  10.865   5.871 -3.6917 -1.0642  0.6375
   48MOL0     H 6471   7.372  11.021   5.882  2.1145 -1.8945 -3.7562
   48MOL0     H 6472   7.278  10.937   6.125  0.9623 -1.8583  0.5875
   48MOL0     H 6473   7.327  10.788   6.061  1.5866  1.3121  0.4995
   48MOL0     H 6474   7.114  10.957   5.946 -3.2258 -1.7019  1.6893
   48MOL0     H 6475   7.189  10.842   5.841  1.7528  1.3743 -0.3792
   48MOL0     H 6476   6.986  10.589   6.124  1.2887 -0.7481  1.1717
   48MOL0     H 6477   7.762  11.147   5.752  0.9654 -1.3189  0.1261
   48MOL0     H 6478   8.036  11.376   5.751 -1.2812 -0.1549  1.7156
   48MOL0     H 6479   8.066  11.211   5.684 -1.3844 -0.9516 -0.6121
   48MOL0     H 6480   7.922  11.297   5.659  2.4704  1.5803 -2.3178
   49MOL0     O 6481   1.630   9.765   6.124  0.1950 -0.3620  0.2867
   49MOL0     C 6482   1.608   9.882   6.159 -0.5411  0.8879 -0.0836
   49MOL0     O 6483   1.689   9.952   6.243  0.0859  0.0296 -0.7469
   49MOL0     C 6484   1.813   9.904   6.288  0.1513  0.1975  0.0208
   49MOL0     C 6485   1.893   9.799   6.237  0.1776  0.5296 -0.7123
   49MOL0     C 6486   2.012   9.775   6.310 -0.0843 -0.1179 -0.0627
   49MOL0     C 6487   2.065   9.868   6.403  0.1658 -0.2250  0.1432
   49MOL0     O 6488   2.189   9.830   6.457 -0.0845 -0.3576 -0.3275
   49MOL0     C 6489   2.245   9.916   6.558 -0.2407 -1.2204 -0.7478
   49MOL0     C 6490   2.350   9.847   6.638 -0.1647 -1.0426  0.5011
   49MOL0     C 6491   2.436   9.949   6.716  0.2519 -0.2415 -0.0524
   49MOL0     C 6492   2.588   9.910   6.716  0.3987  0.1424 -0.0037
   49MOL0     C 6493   2.616   9.799   6.812 -1.1782 -0.2532  0.3625
   49MOL0     C 6494   2.760   9.748   6.810  0.4486  0.7315  0.1731
   49MOL0     C 6495   2.864   9.860   6.835  0.4046  0.1342  0.2318
   49MOL0     C 6496   2.868   9.925   6.977  0.7494  0.5063  0.1751
   49MOL0     N 6497   2.880   9.823   7.085 -0.0702 -0.5196  0.4568
   49MOL0     C 6498   2.983   9.742   7.108 -0.8369  0.9167 -0.7151
   49MOL0     C 6499   2.924   9.636   7.182  0.4767 -0.8445  0.0868
   49MOL0     C 6500   3.009   9.516   7.221  0.4605  0.0753  0.3922
   49MOL0     C 6501   3.039   9.526   7.371  0.6297  0.2021 -0.0802
   49MOL0     C 6502   3.114   9.399   7.409 -0.1393  0.4072 -0.0281
   49MOL0     C 6503   3.142   9.388   7.557 -0.5215  0.4514  0.1591
   49MOL0     O 6504   3.237   9.479   7.603  0.0422 -0.1467  0.1803
   49MOL0     C 6505   3.362   9.436   7.582 -0.2961 -0.1062 -0.3716
   49MOL0     C 6506   3.437   9.483   7.475  0.1352 -0.8804  0.6367
   49MOL0     C 6507   3.562   9.432   7.445 -0.5653 -0.5330  0.2275
   49MOL0     C 6508   3.627   9.360   7.548  0.0676 -0.4193  0.1371
   49MOL0     C 6509   3.765   9.323   7.530  0.0716  0.6533  0.1495
   49MOL0     O 6510   3.843   9.418   7.466  0.9054  0.3079 -0.2591
   49MOL0     C 6511   3.973   9.412   7.460 -0.2346 -0.4094  0.5821
   49MOL0     C 6512   4.026   9.456   7.344  0.4584 -0.2760 -0.4337
   49MOL0     C 6513   4.165   9.434   7.322  0.0218 -0.8558 -0.2056
   49MOL0     C 6514   4.248   9.363   7.413 -1.2279  0.0544  0.1549
   49MOL0     O 6515   4.387   9.340   7.398  0.6702  0.6869  0.2551
   49MOL0     C 6516   4.462   9.404   7.300 -0.3579 -0.4158 -1.3314
   49MOL0     C 6517   4.608   9.364   7.301  0.1315  0.8573 -0.6985
   49MOL0     C 6518   4.678   9.408   7.426 -0.4418 -0.0586  0.0964
   49MOL0     C 6519   4.830   9.433   7.404  0.4157  0.1634 -0.0374
   49MOL0     C 6520   4.893   9.506   7.525 -0.3457  0.3417  0.1520
   49MOL0     C 6521   4.888   9.660   7.520 -0.2158  0.1035  0.4618
   49MOL0     C 6522   4.902   9.713   7.662  0.3439 -0.8953  0.3958
   49MOL0     C 6523   4.953   9.861   7.669 -0.3973  0.2410  0.3141
   49MOL0    Cl 6524   5.130   9.867   7.622  0.1331  0.1030  0.3586
   49MOL0     C 6525   4.187   9.309   7.517  0.3242  0.1560 -0.4186
   49MOL0     C 6526   4.058   9.345   7.551 -0.0004 -0.3159  0.2401
   49MOL0     O 6527   3.808   9.229   7.596 -0.5751  0.3688  0.7608
   49MOL0     C 6528   3.553   9.313   7.652  0.5196  0.6105 -0.2115
   49MOL0     C 6529   3.419   9.344   7.672 -0.1228 -0.0721  0.6898
   49MOL0     N 6530   2.786   9.658   7.204  0.2316 -0.4402  0.5001
   49MOL0     N 6531   2.764   9.767   7.130 -0.7854  0.1264 -0.4341
   49MOL0     C 6532   1.979   9.972   6.440 -0.3831  0.0566 -0.5962
   49MOL0     C 6533   1.858   9.992   6.386 -0.5707  0.7961  0.3516
   49MOL0     C 6534   1.476   9.942   6.131 -0.2246 -0.6820 -0.6555
   49MOL0     C 6535   1.366   9.909   6.221 -0.1155  0.4448 -0.1726
   49MOL0     C 6536   1.236   9.958   6.192 -0.0813 -0.9159 -0.1639
   49MOL0     C 6537   1.219  10.062   6.096 -0.8784  0.4590 -0.1078
   49MOL0     O 6538   1.093  10.105   6.083 -0.2967 -0.4244 -0.5716
   49MOL0     C 6539   1.071  10.223   5.997 -1.2391 -0.3280  0.1323
   49MOL0     C 6540   0.949  10.282   6.068 -0.3368  0.2223  0.6654
   49MOL0     C 6541   0.871  10.381   5.970  0.1493 -0.8466 -0.6463
   49MOL0     C 6542   0.892  10.532   5.984  0.0798 -0.2817 -0.3370
   49MOL0     C 6543   0.824  10.615   5.886  0.7534  0.0615 -0.0262
   49MOL0     C 6544   0.770  10.670   5.791 -0.3854 -0.3769 -0.1566
   49MOL0     C 6545   1.324  10.094   6.008  0.6690 -0.2519 -0.5432
   49MOL0     C 6546   1.450  10.033   6.028  0.3263 -0.8148 -0.6871
   49MOL0     C 6547   1.560  10.079   5.941  0.2338  0.3551 -0.3119
   49MOL0     H 6548   1.868   9.747   6.145  2.3769 -1.0972 -0.4793
   49MOL0     H 6549   2.058   9.679   6.287  2.6877  1.5027 -1.9353
   49MOL0     H 6550   2.288  10.005   6.510 -2.7370 -0.9446 -2.7020
   49MOL0     H 6551   2.168   9.966   6.617 -0.0392  0.0643 -1.5253
   49MOL0     H 6552   2.406   9.782   6.570  0.8742 -1.0842  1.3833
   49MOL0     H 6553   2.296   9.787   6.712  0.3917 -0.1938  1.6209
   49MOL0     H 6554   2.396   9.972   6.815  0.0624  3.0742 -0.7866
   49MOL0     H 6555   2.428  10.044   6.663 -2.5356 -0.1629  0.3485
   49MOL0     H 6556   2.616   9.872   6.618  0.9096 -4.1154  1.6232
   49MOL0     H 6557   2.652   9.997   6.737  0.9624 -0.1201 -0.6177
   49MOL0     H 6558   2.590   9.825   6.915 -1.9452  0.4834 -0.0050
   49MOL0     H 6559   2.556   9.712   6.784 -1.2260  0.2754 -1.2842
   49MOL0     H 6560   2.772   9.668   6.884  1.5002 -0.5327 -1.2894
   49MOL0     H 6561   2.778   9.686   6.722 -0.7420  0.1639  0.3084
   49MOL0     H 6562   2.848   9.933   6.755  3.8881 -1.8193 -2.4844
   49MOL0     H 6563   2.960   9.811   6.815 -0.8505 -2.3592  0.0100
   49MOL0     H 6564   2.953   9.993   6.985  1.7615 -0.2909 -2.8297
   49MOL0     H 6565   2.777   9.986   6.985 -0.4167 -0.9645 -1.3599
   49MOL0     H 6566   3.085   9.746   7.073  0.0573  1.5134  1.7944
   49MOL0     H 6567   2.953   9.425   7.200 -1.4663  1.0787  0.9868
   49MOL0     H 6568   3.105   9.524   7.169  0.8354 -1.5592  0.7591
   49MOL0     H 6569   3.117   9.602   7.382  2.2177 -1.6362  2.8151
   49MOL0     H 6570   2.951   9.554   7.429 -0.9393  0.3361 -2.4068
   49MOL0     H 6571   3.213   9.395   7.362 -1.3720  2.2031 -3.0257
   49MOL0     H 6572   3.048   9.316   7.382 -1.0299  0.9352  0.4772
   49MOL0     H 6573   3.168   9.282   7.568 -5.1975 -1.2423 -2.1800
   49MOL0     H 6574   3.047   9.412   7.605  0.0693 -0.3616  1.8072
   49MOL0     H 6575   3.387   9.560   7.416  0.7645 -0.0409  1.1687
   49MOL0     H 6576   3.614   9.461   7.355 -1.2876 -1.7750 -0.6132
   49MOL0     H 6577   3.967   9.518   7.278  1.3600  2.9065  1.5170
   49MOL0     H 6578   4.194   9.496   7.238 -0.1734 -0.6132 -0.0968
   49MOL0     H 6579   4.433   9.381   7.197  0.9359  1.0693 -2.0920
   49MOL0     H 6580   4.461   9.512   7.318  1.0239 -0.4421 -0.9250
   49MOL0     H 6581   4.609   9.257   7.276  0.5222  0.5495  0.5149
   49MOL0     H 6582   4.648   9.419   7.216 -0.8602  2.9601  0.1104
   49MOL0     H 6583   4.634   9.502   7.462  0.0358  0.3592 -0.3878
   49MOL0     H 6584   4.661   9.338   7.509 -0.5905  1.4414  1.3744
   49MOL0     H 6585   4.845   9.486   7.310  0.6153 -3.8227 -2.4949
   49MOL0     H 6586   4.869   9.331   7.397 -1.9091 -0.8082  0.3206
   49MOL0     H 6587   5.000   9.482   7.523 -0.5244 -0.6907  1.4987
   49MOL0     H 6588   4.850   9.469   7.618  1.3099  0.9074  1.1790
   49MOL0     H 6589   4.961   9.697   7.447 -0.0941 -1.4653 -0.2611
   49MOL0     H 6590   4.795   9.699   7.478 -0.4801  0.0794  1.0228
   49MOL0     H 6591   4.962   9.658   7.735  0.1042  2.4214  3.3103
   49MOL0     H 6592   4.796   9.726   7.687  0.7248  0.3138  1.4795
   49MOL0     H 6593   4.884   9.916   7.605 -1.9172 -1.4048  0.4438
   49MOL0     H 6594   4.948   9.894   7.773  2.0139 -1.2441  0.9839
   49MOL0     H 6595   4.244   9.246   7.584 -3.3697 -0.0547  2.8976
   49MOL0     H 6596   4.033   9.318   7.653  0.7503  2.0278  1.1211
   49MOL0     H 6597   3.591   9.249   7.731  0.4778  3.1716  2.0138
   49MOL0     H 6598   3.350   9.307   7.747 -1.5400  0.7502 -0.1584
   49MOL0     H 6599   1.996  10.043   6.520  0.0252  0.3141 -0.9058
   49MOL0     H 6600   1.791  10.076   6.404 -1.5741  0.6838 -2.3634
   49MOL0     H 6601   1.375   9.838   6.302  1.5144  0.8782  0.0691
   49MOL0     H 6602   1.154   9.921   6.252 -1.3736 -0.3983 -1.5601
   49MOL0     H 6603   1.055  10.214   5.889  0.0407  4.8463 -0.7602
   49MOL0     H 6604   1.142  10.305   6.010  0.7674 -2.0782  0.8222
   49MOL0     H 6605   0.972  10.336   6.161  0.4997  0.6632  0.2167
   49MOL0     H 6606   0.881  10.198   6.085 -1.6833  0.5149 -2.5400
   49MOL0     H 6607   0.764  10.361   5.981 -0.3304  0.6492 -2.0744
   49MOL0     H 6608   0.888  10.363   5.864  2.8596  0.7436 -0.5651
   49MOL0     H 6609   0.862  10.557   6.086  0.8156  1.9172 -0.6215
   49MOL0     H 6610   1.000  10.546   5.976  0.2029  1.0153  2.4159
   49MOL0     H 6611   0.728  10.730   5.713  1.1533 -1.8412 -2.2123
   49MOL0     H 6612   1.321  10.160   5.922  0.2612 -1.6678 -1.6583
   49MOL0     H 6613   1.608  10.162   5.993 -1.4414 -0.1957  2.2848
   49MOL0     H 6614   1.636  10.002   5.924  2.0782  1.4887  2.1726
   49MOL0     H 6615   1.531  10.104   5.838 -0.2517 -2.8693 -1.0729
   50MOL0     O 6616   9.794   4.445  11.317  0.0720 -0.2219  0.3122
   50MOL0     C 6617   9.731   4.452  11.214 -1.1224  0.1146  0.0869
   50MOL0     O 6618   9.769   4.529  11.104  0.1658 -0.2160  0.1243
   50MOL0     C 6619   9.896   4.576  11.100  0.5047  0.3188  0.5026
   50MOL0     C 6620   9.917   4.716  11.088 -0.3163 -0.7389 -0.3982
   50MOL0     C 6621  10.043   4.769  11.069 -0.0822  0.0827 -0.1077
   50MOL0     C 6622  10.156   4.692  11.043  0.2346 -0.2330  0.4911
   50MOL0     O 6623  10.282   4.748  11.018  0.0379 -0.2942 -0.0826
   50MOL0     C 6624  10.410   4.698  11.064 -0.8371 -0.2508  0.4917
   50MOL0     C 6625  10.432   4.722  11.210 -0.3788  0.5037  0.3216
   50MOL0     C 6626  10.408   4.868  11.238  0.0739 -0.1677  0.4928
   50MOL0     C 6627  10.476   4.924  11.361  0.0771 -0.0607 -0.0880
   50MOL0     C 6628  10.634   4.932  11.353 -0.6171  0.1973 -0.2001
   50MOL0     C 6629  10.677   5.012  11.484  0.2214  0.4025  0.4779
   50MOL0     C 6630  10.827   5.005  11.511  0.5207  0.0296  0.1077
   50MOL0     C 6631  10.861   5.033  11.659  0.5924 -0.0712  0.3500
   50MOL0     N 6632  11.004   5.031  11.689  0.7954 -0.6638 -0.3778
   50MOL0     C 6633  11.095   4.923  11.671  0.1778  0.2478  0.1812
   50MOL0     C 6634  11.206   4.974  11.721  0.7787  0.5228 -1.1252
   50MOL0     C 6635  11.336   4.906  11.712 -0.5500  0.0273 -0.0482
   50MOL0     C 6636  11.347   4.778  11.617 -0.8241 -0.1274 -0.2959
   50MOL0     C 6637  11.483   4.716  11.615  0.0044  0.5572 -0.4627
   50MOL0     C 6638  11.522   4.641  11.747  0.8085 -0.3711 -0.1349
   50MOL0     O 6639  11.441   4.531  11.778  0.7290 -0.6175 -0.0257
   50MOL0     C 6640  11.453   4.413  11.699  0.1167 -0.2472  0.2552
   50MOL0     C 6641  11.568   4.390  11.627 -0.1028  0.5605  0.5273
   50MOL0     C 6642  11.591   4.273  11.569 -1.3538 -0.1794 -0.0414
   50MOL0     C 6643  11.491   4.178  11.562 -0.2629  1.3346 -1.1437
   50MOL0     C 6644  11.513   4.042  11.498 -0.0912 -0.5269 -0.1536
   50MOL0     O 6645  11.416   3.950  11.521 -0.3972  0.0148 -0.0544
   50MOL0     C 6646  11.444   3.816  11.505 -0.0416 -0.0217 -0.4730
   50MOL0     C 6647  11.564   3.747  11.537 -0.6583  0.4050 -0.3198
   50MOL0     C 6648  11.570   3.606  11.521 -0.2744 -0.1066  0.4228
   50MOL0     C 6649  11.466   3.532  11.466  0.4262 -0.7437 -0.3440
   50MOL0     O 6650  11.462   3.393  11.455 -0.5389  0.0478  0.4145
   50MOL0     C 6651  11.461   3.329  11.584 -0.9606 -0.3002  0.1997
   50MOL0     C 6652  11.451   3.181  11.581  0.9811 -0.0534 -0.0828
   50MOL0     C 6653  11.306   3.118  11.609 -0.5393 -0.6954 -0.0946
   50MOL0     C 6654  11.206   3.167  11.505  0.1189 -0.4354  0.4825
   50MOL0     C 6655  11.082   3.079  11.470  0.2654 -0.5828 -0.0016
   50MOL0     C 6656  10.981   3.065  11.585  0.3135  0.0599 -1.0278
   50MOL0     C 6657  10.850   2.983  11.568 -0.3077 -0.4135  0.2881
   50MOL0     C 6658  10.781   3.011  11.440  0.9490 -0.4662  0.1482
   50MOL0    Cl 6659  10.615   2.972  11.456  0.1060 -0.0271  0.1682
   50MOL0     C 6660  11.350   3.605  11.442 -0.6008 -0.9787  0.3330
   50MOL0     C 6661  11.335   3.738  11.469  0.2319  0.7214 -0.0785
   50MOL0     O 6662  11.615   4.016  11.443 -0.7183  0.3253 -0.5473
   50MOL0     C 6663  11.365   4.199  11.615  0.3278 -0.1107 -0.3020
   50MOL0     C 6664  11.352   4.317  11.686  0.7680 -0.1440 -0.1771
   50MOL0     N 6665  11.190   5.103  11.768 -0.0609  0.1067 -0.6594
   50MOL0     N 6666  11.062   5.129  11.759 -0.9745 -0.0515  0.4809
   50MOL0     C 6667  10.132   4.552  11.056 -0.2258  0.2094  0.5435
   50MOL0     C 6668  10.014   4.501  11.089 -0.3895 -0.4551  0.0302
   50MOL0     C 6669   9.613   4.360  11.195 -0.4958 -0.4428  0.2014
   50MOL0     C 6670   9.523   4.406  11.097  0.3050  0.6410  0.5553
   50MOL0     C 6671   9.400   4.342  11.084 -1.0836  0.3197  0.1133
   50MOL0     C 6672   9.369   4.229  11.151 -0.3630  0.7658  0.7594
   50MOL0     O 6673   9.247   4.162  11.142 -0.2117 -0.6271  0.2790
   50MOL0     C 6674   9.172   4.182  11.022  0.9438  0.4631 -0.3378
   50MOL0     C 6675   9.074   4.056  10.992 -0.6870  0.5471 -0.2479
   50MOL0     C 6676   8.974   4.049  11.109  0.2580  0.6008  0.6173
   50MOL0     C 6677   8.849   3.958  11.082  0.1601 -0.3724 -0.3022
   50MOL0     C 6678   8.873   3.817  11.118 -0.0129 -0.7821  0.1535
   50MOL0     C 6679   8.895   3.706  11.142  0.2426  0.4999  0.1590
   50MOL0     C 6680   9.460   4.177  11.247 -0.1380 -0.4206 -0.5828
   50MOL0     C 6681   9.578   4.241  11.270 -0.4485  0.6367  0.8652
   50MOL0     C 6682   9.672   4.181  11.377 -0.7619 -0.1217 -0.7918
   50MOL0     H 6683   9.829   4.779  11.093 -0.1459 -0.3046 -2.1456
   50MOL0     H 6684  10.070   4.873  11.054 -1.3685  0.4848  0.2848
   50MOL0     H 6685  10.413   4.591  11.038  0.6289  0.2629 -1.7656
   50MOL0     H 6686  10.477   4.754  10.999 -1.6005  1.0468  0.7825
   50MOL0     H 6687  10.525   4.678  11.245  1.0709 -0.7492 -4.3867
   50MOL0     H 6688  10.350   4.661  11.248  0.8374 -1.8030 -0.5335
   50MOL0     H 6689  10.302   4.881  11.262 -0.3278  1.2920 -1.7690
   50MOL0     H 6690  10.440   4.921  11.147  1.8881 -0.5310  0.8799
   50MOL0     H 6691  10.437   5.025  11.371  3.7537  1.6453 -1.2332
   50MOL0     H 6692  10.448   4.873  11.453  0.2734  0.1697  0.0975
   50MOL0     H 6693  10.673   4.830  11.344 -1.3499 -0.0724 -0.4144
   50MOL0     H 6694  10.662   4.989  11.264 -2.3518  2.5538  0.6736
   50MOL0     H 6695  10.644   5.116  11.482  2.9675  1.4334 -4.2872
   50MOL0     H 6696  10.637   4.954  11.568 -1.2036 -0.8941 -1.0253
   50MOL0     H 6697  10.884   5.077  11.452  1.1154  2.1144  2.9923
   50MOL0     H 6698  10.865   4.907  11.480  2.4414 -0.0195  2.3522
   50MOL0     H 6699  10.827   5.130  11.695  2.0108  1.3744 -1.9534
   50MOL0     H 6700  10.814   4.951  11.713  2.1655 -1.2135  0.0579
   50MOL0     H 6701  11.065   4.824  11.638 -1.9619  1.7783 -3.1162
   50MOL0     H 6702  11.405   4.982  11.673 -1.4461 -0.3644 -2.5695
   50MOL0     H 6703  11.378   4.872  11.808 -0.6262 -2.6807 -0.9068
   50MOL0     H 6704  11.281   4.696  11.648 -2.7236  1.2348 -0.5467
   50MOL0     H 6705  11.314   4.820  11.522  1.0684  0.1228 -0.8808
   50MOL0     H 6706  11.553   4.794  11.584  0.2890  0.7411  0.6101
   50MOL0     H 6707  11.486   4.641  11.535 -1.4382 -0.8793  0.7506
   50MOL0     H 6708  11.508   4.714  11.826  2.3154  1.5641 -1.5524
   50MOL0     H 6709  11.628   4.614  11.747  1.0718  0.6572 -0.1752
   50MOL0     H 6710  11.656   4.453  11.619  0.1009  0.0664 -1.4256
   50MOL0     H 6711  11.684   4.259  11.516 -0.7793  1.9692  0.2864
   50MOL0     H 6712  11.643   3.806  11.583 -0.3244  1.8221 -2.5449
   50MOL0     H 6713  11.660   3.551  11.545  1.2582  1.2290 -1.7957
   50MOL0     H 6714  11.552   3.362  11.635 -0.8746  1.0453 -0.7678
   50MOL0     H 6715  11.373   3.358  11.643 -1.3385 -0.1612 -0.4218
   50MOL0     H 6716  11.477   3.158  11.477  0.8065  0.5250 -0.2553
   50MOL0     H 6717  11.518   3.141  11.658  0.3228 -0.1825  0.4262
   50MOL0     H 6718  11.306   3.009  11.600  1.2563 -0.6722 -0.9465
   50MOL0     H 6719  11.287   3.142  11.714  3.8311 -0.4707  0.8379
   50MOL0     H 6720  11.261   3.186  11.413 -0.9474 -1.6805 -0.4488
   50MOL0     H 6721  11.175   3.267  11.536  2.2008  1.1931 -2.2128
   50MOL0     H 6722  11.120   2.979  11.447 -0.8795 -0.9547 -0.3363
   50MOL0     H 6723  11.038   3.116  11.377  1.1482 -0.4675 -0.3886
   50MOL0     H 6724  11.033   3.033  11.676 -2.7621  0.1430  0.9110
   50MOL0     H 6725  10.948   3.167  11.602 -2.3469 -1.0660  1.4993
   50MOL0     H 6726  10.789   3.019  11.650  2.8331 -0.8092  3.0147
   50MOL0     H 6727  10.873   2.878  11.584 -2.0120 -0.9436 -0.5955
   50MOL0     H 6728  10.787   3.116  11.410  0.6497  0.2300  2.3462
   50MOL0     H 6729  10.842   2.949  11.374 -0.9975  0.3892 -2.6260
   50MOL0     H 6730  11.268   3.555  11.392 -0.6506  1.2234 -1.9712
   50MOL0     H 6731  11.244   3.790  11.438  0.2675  1.5931  1.1819
   50MOL0     H 6732  11.281   4.132  11.596  1.3759 -1.9129  1.1198
   50MOL0     H 6733  11.264   4.342  11.746  1.4894  0.5433  0.6326
   50MOL0     H 6734  10.209   4.477  11.046  1.1712  1.5446  0.8500
   50MOL0     H 6735  10.003   4.397  11.119 -0.2368 -0.9143 -1.4272
   50MOL0     H 6736   9.559   4.492  11.041 -0.4257  1.1941  0.9170
   50MOL0     H 6737   9.327   4.397  11.025  0.3213  0.5280 -1.5357
   50MOL0     H 6738   9.238   4.192  10.935 -0.6170 -2.1999 -1.9809
   50MOL0     H 6739   9.111   4.272  11.026  3.0547  2.0246 -1.0546
   50MOL0     H 6740   9.135   3.965  10.994  2.4334  2.4772  0.6973
   50MOL0     H 6741   9.027   4.072  10.894  1.6785 -0.2869 -1.6022
   50MOL0     H 6742   8.938   4.150  11.133 -1.7715  0.3403 -1.1153
   50MOL0     H 6743   9.031   4.016  11.196 -0.0160 -0.6985  0.3218
   50MOL0     H 6744   8.768   3.997  11.144  0.0553 -2.5073  0.9874
   50MOL0     H 6745   8.834   3.959  10.974 -0.4385 -1.1211 -0.2383
   50MOL0     H 6746   8.928   3.611  11.178 -1.2143  0.0011  0.2351
   50MOL0     H 6747   9.427   4.090  11.303 -1.8767 -0.2279 -1.2476
   50MOL0     H 6748   9.637   4.202  11.479 -1.0862  1.2505 -1.1619
   50MOL0     H 6749   9.669   4.073  11.360 -0.7554  0.1799 -2.9982
   50MOL0     H 6750   9.777   4.211  11.371 -0.7547 -0.2820 -1.4309
   51MOL0     O 6751   3.273   7.959   2.660  0.2706  0.2260  0.9681
   51MOL0     C 6752   3.382   7.928   2.609 -0.1024 -0.4485 -0.4287
   51MOL0     O 6753   3.416   7.847   2.510  0.3072 -0.6784  0.0029
   51MOL0     C 6754   3.329   7.757   2.455 -0.1024 -0.0044 -0.5600
   51MOL0     C 6755   3.213   7.706   2.519 -0.1528  0.3392  0.7774
   51MOL0     C 6756   3.149   7.589   2.472 -0.1523  0.4123  0.2588
   51MOL0     C 6757   3.201   7.527   2.362 -1.1291  0.4435  0.1561
   51MOL0     O 6758   3.156   7.405   2.306  0.0911  0.9574 -0.4737
   51MOL0     C 6759   3.042   7.333   2.377 -0.1787  0.1739 -0.4455
   51MOL0     C 6760   3.060   7.189   2.351  0.3069  0.6533 -0.1928
   51MOL0     C 6761   3.012   7.164   2.202 -0.0479 -0.2570  0.1443
   51MOL0     C 6762   3.036   7.026   2.178  0.0286 -0.2241 -0.6011
   51MOL0     C 6763   2.984   6.972   2.048 -0.6966 -0.1352 -0.6351
   51MOL0     C 6764   3.100   6.961   1.946  0.7924 -0.6643  0.2195
   51MOL0     C 6765   3.123   7.093   1.858 -0.7372  0.2027 -0.3701
   51MOL0     C 6766   3.271   7.110   1.815  0.0147  0.0732 -1.1011
   51MOL0     N 6767   3.363   7.141   1.933 -0.1086  0.1012 -0.4996
   51MOL0     C 6768   3.390   7.260   1.997  0.2286 -0.4279  0.3031
   51MOL0     C 6769   3.512   7.244   2.058  0.2243  1.0626 -0.4017
   51MOL0     C 6770   3.608   7.319   2.142 -0.3074  0.6001  0.2294
   51MOL0     C 6771   3.580   7.307   2.286 -0.2557  0.0002 -1.4528
   51MOL0     C 6772   3.711   7.300   2.367 -0.7494 -0.1964  0.8261
   51MOL0     C 6773   3.689   7.324   2.515 -0.2074 -0.5145 -0.9800
   51MOL0     O 6774   3.677   7.465   2.541 -0.6101  0.9238 -0.0772
   51MOL0     C 6775   3.795   7.534   2.559 -0.6482  0.8896  0.0799
   51MOL0     C 6776   3.776   7.657   2.626  0.2455  0.6724  0.4814
   51MOL0     C 6777   3.890   7.740   2.653 -0.6811  0.4454 -0.4467
   51MOL0     C 6778   4.013   7.705   2.609 -0.7078  0.0391 -0.7739
   51MOL0     C 6779   4.141   7.790   2.630  0.0194  1.0937  0.2145
   51MOL0     O 6780   4.261   7.750   2.570  0.9073 -0.1209 -0.3028
   51MOL0     C 6781   4.379   7.806   2.599 -0.5444 -0.4012 -1.0877
   51MOL0     C 6782   4.484   7.730   2.541  0.0564 -0.2428 -0.0554
   51MOL0     C 6783   4.619   7.767   2.562 -0.0222 -0.5105  0.1023
   51MOL0     C 6784   4.643   7.873   2.655  0.2996  0.0953 -0.5383
   51MOL0     O 6785   4.774   7.920   2.658 -0.2126 -0.9584  0.0179
   51MOL0     C 6786   4.852   7.926   2.778  1.5517 -1.2804  0.8741
   51MOL0     C 6787   4.991   7.863   2.747 -1.2118  0.5555 -0.4251
   51MOL0     C 6788   5.069   7.884   2.885  0.6815  0.6847  0.4582
   51MOL0     C 6789   5.213   7.832   2.882  0.5665  0.9770  0.5142
   51MOL0     C 6790   5.286   7.863   3.009 -0.1404 -0.2081  0.3942
   51MOL0     C 6791   5.436   7.816   2.995 -0.2485 -0.0275  0.6951
   51MOL0     C 6792   5.530   7.854   3.116 -0.1324 -0.1635 -0.3059
   51MOL0     C 6793   5.507   7.764   3.242  0.1784  0.5640  0.1507
   51MOL0    Cl 6794   5.619   7.834   3.372  0.0326  0.2364  0.3022
   51MOL0     C 6795   4.545   7.951   2.707  1.0900 -0.7703  0.4828
   51MOL0     C 6796   4.414   7.924   2.676 -0.5060  0.1882 -0.2980
   51MOL0     O 6797   4.132   7.880   2.714  0.3421 -0.8121  0.4256
   51MOL0     C 6798   4.029   7.581   2.540  0.0741 -1.2252 -0.4717
   51MOL0     C 6799   3.930   7.489   2.521 -0.1666 -0.0563  0.5400
   51MOL0     N 6800   3.550   7.118   2.021  0.2980  0.0292  0.7060
   51MOL0     N 6801   3.465   7.055   1.957 -0.1263  0.2431 -0.1016
   51MOL0     C 6802   3.314   7.582   2.293 -0.3856  0.2076 -0.0744
   51MOL0     C 6803   3.371   7.701   2.339  0.2918 -0.6734  0.5178
   51MOL0     C 6804   3.498   7.997   2.686  0.3269  0.2391 -0.4861
   51MOL0     C 6805   3.598   8.057   2.604 -0.6252 -0.5884  0.1913
   51MOL0     C 6806   3.696   8.143   2.658 -0.1228 -1.0954 -0.6274
   51MOL0     C 6807   3.693   8.165   2.794 -1.7191 -0.8457 -0.0081
   51MOL0     O 6808   3.796   8.229   2.864  0.3536 -0.1850 -0.0047
   51MOL0     C 6809   3.830   8.363   2.825 -0.0330 -1.0309 -0.2444
   51MOL0     C 6810   3.849   8.450   2.952  0.0233  0.2209 -0.0871
   51MOL0     C 6811   3.992   8.426   3.004 -0.5581  0.5277  0.1006
   51MOL0     C 6812   4.035   8.517   3.122  1.3838  0.6240  0.0788
   51MOL0     C 6813   4.182   8.508   3.129  0.0243  0.2629  0.2143
   51MOL0     C 6814   4.303   8.499   3.139 -0.3233  0.7253  0.2852
   51MOL0     C 6815   3.603   8.101   2.875  0.6624  1.1345 -0.1638
   51MOL0     C 6816   3.492   8.026   2.825 -0.8696  0.2754 -0.4159
   51MOL0     C 6817   3.391   7.961   2.914  0.7160 -0.5525  0.1396
   51MOL0     H 6818   3.182   7.770   2.601  1.2368  1.9898  0.0645
   51MOL0     H 6819   3.064   7.552   2.529  0.3137  0.9754  1.3539
   51MOL0     H 6820   3.044   7.334   2.486 -0.7821 -0.5285 -0.4121
   51MOL0     H 6821   2.939   7.361   2.350 -0.8098 -0.7422  0.9021
   51MOL0     H 6822   3.011   7.127   2.427  1.4662  1.2924  1.1397
   51MOL0     H 6823   3.167   7.164   2.359  0.2783 -0.7569 -3.0150
   51MOL0     H 6824   3.084   7.210   2.133  0.4955 -2.6957 -1.0140
   51MOL0     H 6825   2.909   7.196   2.186 -0.3165 -0.4793  1.3256
   51MOL0     H 6826   3.141   7.001   2.189  0.1941  0.4603 -0.5882
   51MOL0     H 6827   2.980   6.983   2.262  0.9163 -0.3803 -0.0824
   51MOL0     H 6828   2.948   6.872   2.072  1.7426 -1.1494 -0.9368
   51MOL0     H 6829   2.894   7.029   2.023 -1.2491  0.8605  2.9660
   51MOL0     H 6830   3.189   6.923   1.997  0.6326 -3.0668 -1.1440
   51MOL0     H 6831   3.055   6.891   1.876 -0.7970  0.6049 -0.1172
   51MOL0     H 6832   3.082   7.178   1.913 -1.6531 -0.6769  0.3508
   51MOL0     H 6833   3.066   7.085   1.765 -2.2011  2.6391  0.2325
   51MOL0     H 6834   3.297   7.019   1.761 -0.8752 -0.5194 -0.5581
   51MOL0     H 6835   3.287   7.185   1.737  3.1851 -1.6199 -2.2472
   51MOL0     H 6836   3.332   7.352   2.002  0.7541 -0.1096  0.6782
   51MOL0     H 6837   3.706   7.274   2.126  0.5413  3.1804 -2.7733
   51MOL0     H 6838   3.602   7.425   2.116 -0.9075 -0.1800 -3.2860
   51MOL0     H 6839   3.517   7.394   2.307  0.9658  0.2820  1.5129
   51MOL0     H 6840   3.527   7.213   2.306  3.8779 -2.0034  1.6963
   51MOL0     H 6841   3.776   7.377   2.324  0.9198 -0.7761  2.1813
   51MOL0     H 6842   3.756   7.202   2.350  3.2088  1.8082 -1.8459
   51MOL0     H 6843   3.761   7.279   2.584 -1.6190  0.1555  0.9940
   51MOL0     H 6844   3.592   7.281   2.539 -0.8336  1.6898  0.7621
   51MOL0     H 6845   3.671   7.684   2.637 -0.9178 -2.2498 -1.9054
   51MOL0     H 6846   3.882   7.830   2.713  0.9426 -0.5421  1.3739
   51MOL0     H 6847   4.462   7.663   2.459  0.7344  1.0834 -1.3834
   51MOL0     H 6848   4.697   7.712   2.511 -2.3276 -4.6921  0.6119
   51MOL0     H 6849   4.871   8.030   2.805 -1.4332  0.5575 -3.1132
   51MOL0     H 6850   4.802   7.873   2.860 -1.5060 -1.2264 -0.8032
   51MOL0     H 6851   4.991   7.758   2.717  0.2732 -0.2804  2.1448
   51MOL0     H 6852   5.046   7.922   2.672  0.4382  0.3065  0.5328
   51MOL0     H 6853   5.072   7.988   2.918  1.8659  0.8008  0.0372
   51MOL0     H 6854   5.024   7.832   2.970  0.4431  1.9533  1.1296
   51MOL0     H 6855   5.262   7.884   2.799 -1.4162  1.9349 -0.1121
   51MOL0     H 6856   5.217   7.727   2.853 -1.7060  1.2477 -1.0109
   51MOL0     H 6857   5.239   7.813   3.095  0.5679 -1.1498  0.2543
   51MOL0     H 6858   5.285   7.971   3.024  2.9813  0.3893 -2.5663
   51MOL0     H 6859   5.448   7.709   2.979  5.3759 -0.0618  2.8655
   51MOL0     H 6860   5.482   7.869   2.910  0.5134  0.4931  1.4145
   51MOL0     H 6861   5.504   7.957   3.141 -1.7709 -0.6698  0.2597
   51MOL0     H 6862   5.635   7.849   3.088 -0.2467 -0.8046 -0.6321
   51MOL0     H 6863   5.397   7.769   3.248 -0.2479 -1.0861 -3.2344
   51MOL0     H 6864   5.529   7.657   3.230  1.2413  0.4015  2.9682
   51MOL0     H 6865   4.566   8.048   2.750 -3.2323  0.7118 -0.2909
   51MOL0     H 6866   4.334   7.993   2.702  0.9090  2.3444 -1.3685
   51MOL0     H 6867   4.119   7.568   2.480  1.1588  0.8517  0.5862
   51MOL0     H 6868   3.950   7.395   2.470  2.9354 -0.3822  2.0411
   51MOL0     H 6869   3.364   7.536   2.209  0.9155  1.7736 -0.2284
   51MOL0     H 6870   3.454   7.736   2.278  1.2891  0.6152  2.5098
   51MOL0     H 6871   3.604   8.048   2.496  2.1943 -2.4756  0.3920
   51MOL0     H 6872   3.771   8.199   2.603 -1.2655  3.1243  1.7286
   51MOL0     H 6873   3.741   8.407   2.779 -0.3203  0.0573  1.2800
   51MOL0     H 6874   3.919   8.362   2.762  0.3037 -2.3468  0.2048
   51MOL0     H 6875   3.775   8.442   3.032 -0.6888  2.8695 -0.3857
   51MOL0     H 6876   3.843   8.556   2.928 -2.0142 -0.1785 -1.5961
   51MOL0     H 6877   4.054   8.443   2.916 -1.2093 -0.8687 -0.6524
   51MOL0     H 6878   4.016   8.322   3.027  0.9047  0.3973 -1.7835
   51MOL0     H 6879   4.010   8.623   3.115  0.5395  0.4946  0.8388
   51MOL0     H 6880   3.981   8.479   3.210 -1.1817  1.2632 -1.1308
   51MOL0     H 6881   4.409   8.503   3.154 -0.4900  0.7231  1.5852
   51MOL0     H 6882   3.622   8.114   2.981  0.6258 -1.7170  0.2562
   51MOL0     H 6883   3.375   7.857   2.885  0.8892 -0.0052 -2.1265
   51MOL0     H 6884   3.431   7.959   3.016 -0.1405  2.2933  0.6220
   51MOL0     H 6885   3.302   8.023   2.927  0.6865 -0.6148  0.2280
   52MOL0     O 6886   0.702   9.635   2.405 -0.5376 -0.2057  0.1668
   52MOL0     C 6887   0.745   9.755   2.399  0.2030 -0.0265 -0.6713
   52MOL0     O 6888   0.717   9.849   2.487  0.0280  1.0954 -0.0479
   52MOL0     C 6889   0.599   9.835   2.554  0.8050  0.4233 -0.1694
   52MOL0     C 6890   0.599   9.799   2.690 -0.4027  0.9452  0.0632
   52MOL0     C 6891   0.482   9.765   2.759  0.4496  0.6153 -0.1847
   52MOL0     C 6892   0.357   9.789   2.701  0.1677  0.2322 -0.0754
   52MOL0     O 6893   0.248   9.777   2.783  0.7887  0.3307  1.0648
   52MOL0     C 6894   0.110   9.792   2.737 -0.3813  0.1460 -0.6476
   52MOL0     C 6895   0.050   9.653   2.704  0.2930 -0.6523  0.3757
   52MOL0     C 6896  -0.055   9.651   2.577  0.3734 -0.1316 -0.7507
   52MOL0     C 6897  -0.171   9.750   2.607  0.1467 -0.6303  0.3035
   52MOL0     C 6898  -0.273   9.759   2.491 -0.0107 -0.4118 -0.1542
   52MOL0     C 6899  -0.386   9.848   2.527  1.2156  0.3975 -0.4807
   52MOL0     C 6900  -0.487   9.844   2.406  0.5850  1.0492 -0.1939
   52MOL0     C 6901  -0.596   9.952   2.423  0.0538 -0.2552  0.0574
   52MOL0     N 6902  -0.695   9.955   2.332 -0.1935  0.2197 -0.5786
   52MOL0     C 6903  -0.689  10.012   2.206  0.2724  0.8131  0.6440
   52MOL0     C 6904  -0.805  10.009   2.145 -1.0811 -0.3690 -0.6006
   52MOL0     C 6905  -0.835  10.063   2.007 -0.5786 -0.3697 -0.1064
   52MOL0     C 6906  -0.817  10.216   2.010 -0.4613  0.7065 -0.3268
   52MOL0     C 6907  -0.853  10.267   1.882  0.2193  0.6285 -0.1817
   52MOL0     C 6908  -0.836  10.423   1.866  0.3619 -0.1240 -0.2180
   52MOL0     O 6909  -0.845  10.494   1.992  0.5153  0.1911  0.0525
   52MOL0     C 6910  -0.967  10.539   2.025  0.0974  0.7876  0.6399
   52MOL0     C 6911  -0.976  10.620   2.127  0.1216 -0.1311  0.1233
   52MOL0     C 6912  -1.097  10.680   2.174 -0.9584  0.8158  0.6605
   52MOL0     C 6913  -1.217  10.652   2.113 -0.1794 -0.2891  0.1479
   52MOL0     C 6914  -1.347  10.723   2.150 -0.1143  0.3740  0.2936
   52MOL0     O 6915  -1.354  10.784   2.267 -0.6795 -0.5448  0.0285
   52MOL0     C 6916  -1.463  10.840   2.320 -0.2706  0.4866  0.0920
   52MOL0     C 6917  -1.579  10.891   2.259 -0.1179 -0.4261  0.5133
   52MOL0     C 6918  -1.682  10.947   2.334  0.3508 -0.1825  0.0709
   52MOL0     C 6919  -1.661  10.965   2.472  0.0560  0.1982 -0.1755
   52MOL0     O 6920  -1.749  11.027   2.553  0.6078 -0.1056  0.1555
   52MOL0     C 6921  -1.760  11.171   2.538 -0.0855 -0.3183  0.2142
   52MOL0     C 6922  -1.700  11.260   2.647  0.5004 -0.2003  0.1376
   52MOL0     C 6923  -1.777  11.241   2.782  0.1688  0.5064  0.4916
   52MOL0     C 6924  -1.935  11.269   2.776  0.6663 -0.4836  0.0516
   52MOL0     C 6925  -1.986  11.276   2.924  0.0371  0.8330 -0.6674
   52MOL0     C 6926  -1.940  11.399   3.007  0.1929 -0.7384 -0.4608
   52MOL0     C 6927  -1.982  11.536   2.951  1.0176  0.4727 -0.4162
   52MOL0     C 6928  -2.126  11.581   2.997 -0.8403  0.2424  0.9206
   52MOL0    Cl 6929  -2.247  11.466   2.946 -0.4761  0.4223  0.2590
   52MOL0     C 6930  -1.541  10.939   2.528  0.1181 -0.9835 -0.0701
   52MOL0     C 6931  -1.448  10.862   2.460  1.0802 -0.4917  0.5779
   52MOL0     O 6932  -1.437  10.713   2.071  0.4846  0.4492  1.0038
   52MOL0     C 6933  -1.213  10.571   2.003 -0.6923  0.4413 -0.3730
   52MOL0     C 6934  -1.088  10.516   1.963 -0.6358 -0.4405  0.6257
   52MOL0     N 6935  -0.895   9.974   2.245 -0.6496 -0.6566 -0.7140
   52MOL0     N 6936  -0.829   9.953   2.361  0.7797  0.4490 -0.1704
   52MOL0     C 6937   0.357   9.833   2.562 -0.1969 -0.0208 -0.1590
   52MOL0     C 6938   0.477   9.850   2.488 -0.6744  0.0306 -0.6015
   52MOL0     C 6939   0.833   9.805   2.287  0.2794 -0.2356 -0.6628
   52MOL0     C 6940   0.777   9.868   2.175 -0.0785 -0.0848 -0.2433
   52MOL0     C 6941   0.855   9.895   2.062  0.0526  0.0322  0.4817
   52MOL0     C 6942   0.992   9.872   2.066  0.3384  0.8821  0.1405
   52MOL0     O 6943   1.074   9.888   1.950 -0.0939  0.0456  0.3406
   52MOL0     C 6944   1.016   9.911   1.818  0.0686  0.9938  0.3111
   52MOL0     C 6945   0.977  10.055   1.797 -0.0886  0.7144  0.3551
   52MOL0     C 6946   1.089  10.151   1.796 -0.0442  0.4705 -0.5277
   52MOL0     C 6947   1.120  10.240   1.923  0.5539 -0.4831  0.7145
   52MOL0     C 6948   1.039  10.361   1.917  0.4535 -0.2726 -0.5525
   52MOL0     C 6949   0.978  10.464   1.896 -0.0029 -0.3083  0.3202
   52MOL0     C 6950   1.042   9.823   2.188  0.1591 -0.5537 -0.1453
   52MOL0     C 6951   0.975   9.785   2.299 -0.3888  0.0724  0.5238
   52MOL0     C 6952   1.049   9.726   2.417 -0.4180  0.5478 -0.6942
   52MOL0     H 6953   0.691   9.791   2.745  0.6462  0.8326 -1.6278
   52MOL0     H 6954   0.500   9.748   2.865  2.9597 -0.3979 -0.6987
   52MOL0     H 6955   0.056   9.838   2.821 -0.8446 -2.0194  0.3238
   52MOL0     H 6956   0.105   9.856   2.649 -0.4930  0.1906 -0.6083
   52MOL0     H 6957  -0.000   9.604   2.787  2.1625  0.4003  2.2173
   52MOL0     H 6958   0.134   9.584   2.689  0.6842  0.0224 -0.6653
   52MOL0     H 6959  -0.088   9.547   2.577  0.0827 -0.1246  1.8651
   52MOL0     H 6960   0.002   9.673   2.486 -0.9230  1.7102 -1.1762
   52MOL0     H 6961  -0.224   9.723   2.699 -2.6882 -1.4677 -1.4456
   52MOL0     H 6962  -0.130   9.851   2.613 -0.2990 -0.1510 -2.8420
   52MOL0     H 6963  -0.211   9.796   2.408  2.1575  1.7764  2.2339
   52MOL0     H 6964  -0.317   9.663   2.466 -0.4342  0.0969 -1.4628
   52MOL0     H 6965  -0.427   9.808   2.621  1.1799  2.0239  0.2379
   52MOL0     H 6966  -0.357   9.949   2.558  1.5388  0.3594 -0.6569
   52MOL0     H 6967  -0.529   9.747   2.380  0.8455  0.4413  1.5068
   52MOL0     H 6968  -0.429   9.881   2.321  1.4324  1.2881  0.4797
   52MOL0     H 6969  -0.648   9.943   2.519  0.0443 -0.4831  0.0312
   52MOL0     H 6970  -0.547  10.050   2.415 -1.2819  0.2670 -3.7181
   52MOL0     H 6971  -0.603  10.033   2.143 -1.2769  0.8523 -1.5951
   52MOL0     H 6972  -0.769  10.023   1.930 -0.7937  1.4934 -1.3356
   52MOL0     H 6973  -0.929  10.016   1.977 -0.0001 -1.2276 -0.6017
   52MOL0     H 6974  -0.898  10.255   2.073  0.7222  1.1704  0.9701
   52MOL0     H 6975  -0.721  10.254   2.048  0.0134 -0.0514 -0.7531
   52MOL0     H 6976  -0.957  10.238   1.869  0.3187  0.1034  0.1547
   52MOL0     H 6977  -0.789  10.215   1.810 -0.0193  0.8442 -0.5498
   52MOL0     H 6978  -0.909  10.456   1.792 -1.1113 -1.0826  0.7636
   52MOL0     H 6979  -0.738  10.454   1.828  0.6111 -3.0149 -2.2703
   52MOL0     H 6980  -0.882  10.635   2.181  0.4335  0.8427 -0.6540
   52MOL0     H 6981  -1.098  10.747   2.260  2.0645  0.5685  1.0032
   52MOL0     H 6982  -1.589  10.882   2.151  1.4867 -0.6591  0.3584
   52MOL0     H 6983  -1.780  10.979   2.299  1.5040  3.3128 -0.3214
   52MOL0     H 6984  -1.708  11.208   2.449 -2.9741  1.9793 -0.6961
   52MOL0     H 6985  -1.866  11.197   2.531  1.0006  5.1128 -0.5296
   52MOL0     H 6986  -1.594  11.235   2.663  0.3481 -1.1932 -0.3337
   52MOL0     H 6987  -1.707  11.365   2.617  0.9973 -0.0533  0.5041
   52MOL0     H 6988  -1.776  11.134   2.806 -0.7451 -0.1114 -1.8372
   52MOL0     H 6989  -1.718  11.297   2.855 -0.4446  0.1444  1.2824
   52MOL0     H 6990  -1.972  11.193   2.706  1.7852 -1.3343  0.3419
   52MOL0     H 6991  -1.966  11.363   2.729  1.8435 -0.6373 -1.0812
   52MOL0     H 6992  -1.945  11.199   2.991 -0.4608  1.2938  0.1811
   52MOL0     H 6993  -2.094  11.259   2.915 -0.1218  0.4496  1.4818
   52MOL0     H 6994  -1.985  11.387   3.106 -1.8762  0.2012 -1.2339
   52MOL0     H 6995  -1.832  11.409   3.023  0.1312 -1.3253  0.3546
   52MOL0     H 6996  -1.974  11.550   2.843 -2.3510 -1.1600 -1.0526
   52MOL0     H 6997  -1.921  11.608   3.005  0.6901 -0.9386  2.0113
   52MOL0     H 6998  -2.119  11.573   3.106 -0.6168 -3.0169  0.7725
   52MOL0     H 6999  -2.153  11.676   2.951  2.4676  0.6591 -0.4262
   52MOL0     H 7000  -1.525  10.969   2.631 -1.4430  0.8657 -0.3203
   52MOL0     H 7001  -1.366  10.820   2.517  1.8751 -1.0874 -0.9451
   52MOL0     H 7002  -1.305  10.559   1.947  0.3077 -1.7637 -1.7014
   52MOL0     H 7003  -1.115  10.452   1.880 -2.0449 -0.9259  1.4340
   52MOL0     H 7004   0.265   9.849   2.505 -0.9732  0.8306  1.2543
   52MOL0     H 7005   0.477   9.872   2.382  1.3688  0.2313 -0.5985
   52MOL0     H 7006   0.673   9.895   2.162  0.0721  0.6334  0.0328
   52MOL0     H 7007   0.807   9.924   1.969  2.1742 -3.6738 -2.0556
   52MOL0     H 7008   0.921   9.858   1.804  0.7440 -0.6569  1.5925
   52MOL0     H 7009   1.076   9.891   1.729 -1.0487  0.3419 -0.3195
   52MOL0     H 7010   0.915  10.091   1.880 -0.4052  1.8106 -0.3383
   52MOL0     H 7011   0.919  10.062   1.705  0.8922  1.7771 -0.2031
   52MOL0     H 7012   1.061  10.209   1.708  0.1868  0.1027 -0.8473
   52MOL0     H 7013   1.173  10.088   1.767 -1.0338 -1.4882  0.6272
   52MOL0     H 7014   1.111  10.189   2.019  0.2832  0.3315  1.1309
   52MOL0     H 7015   1.223  10.272   1.902  0.3791  0.6463  1.4986
   52MOL0     H 7016   0.906  10.542   1.882  0.5727  0.6922  2.5062
   52MOL0     H 7017   1.149   9.804   2.190  0.2206 -0.2137  2.1790
   52MOL0     H 7018   1.146   9.683   2.392  0.2064 -0.7458  3.3221
   52MOL0     H 7019   1.084   9.805   2.483  1.3710 -1.1820  0.5345
   52MOL0     H 7020   0.989   9.661   2.481 -1.3393 -0.7752 -2.7951
   53MOL0     O 7021   2.889   2.937   9.481  0.1866 -0.0024 -0.4935
   53MOL0     C 7022   2.956   2.859   9.423  0.1541  0.5492  0.2419
   53MOL0     O 7023   2.915   2.736   9.388  0.0524 -0.7418  0.6543
   53MOL0     C 7024   2.789   2.680   9.432  0.2467 -0.0431 -0.7002
   53MOL0     C 7025   2.781   2.543   9.446  0.7838  1.1094  0.3565
   53MOL0     C 7026   2.652   2.489   9.476 -0.0059 -0.1852 -0.4676
   53MOL0     C 7027   2.542   2.574   9.497  0.1045  0.3571 -0.0504
   53MOL0     O 7028   2.412   2.528   9.517 -0.2062  0.0161 -0.2441
   53MOL0     C 7029   2.381   2.398   9.468  0.6823  0.3775 -0.1119
   53MOL0     C 7030   2.232   2.376   9.468 -0.6424 -0.9054  0.6360
   53MOL0     C 7031   2.176   2.373   9.614 -0.5563  0.9978  0.0970
   53MOL0     C 7032   2.196   2.244   9.697  0.7325 -0.4749  0.3006
   53MOL0     C 7033   2.111   2.127   9.656 -0.5702  0.8477 -0.9327
   53MOL0     C 7034   2.101   2.019   9.766  0.6522  0.0221  0.3711
   53MOL0     C 7035   1.982   1.921   9.731  0.2607 -1.0095  0.8537
   53MOL0     C 7036   1.958   1.813   9.838 -0.0945  0.6138 -0.2404
   53MOL0     N 7037   1.869   1.695   9.799 -0.0886 -0.0964 -0.0652
   53MOL0     C 7038   1.735   1.695   9.808  0.3163 -1.0133 -0.4036
   53MOL0     C 7039   1.692   1.575   9.766  0.3349 -0.6468 -0.1902
   53MOL0     C 7040   1.547   1.524   9.777  0.6004 -1.1087 -0.0185
   53MOL0     C 7041   1.532   1.394   9.844 -0.1430 -0.0208 -0.1125
   53MOL0     C 7042   1.389   1.359   9.860 -0.1260  0.5869 -0.2513
   53MOL0     C 7043   1.364   1.240   9.947  0.5072 -0.5838 -0.3446
   53MOL0     O 7044   1.435   1.230  10.070 -0.0508  0.0520  0.1219
   53MOL0     C 7045   1.374   1.158  10.169 -0.6134 -0.4747 -0.3932
   53MOL0     C 7046   1.398   1.191  10.301 -0.1634  0.1218 -1.1656
   53MOL0     C 7047   1.354   1.110  10.404 -0.3798 -0.3840 -0.0604
   53MOL0     C 7048   1.264   1.014  10.386  0.7157  0.0841  0.5625
   53MOL0     C 7049   1.206   0.939  10.499 -0.5610  0.5493 -1.0174
   53MOL0     O 7050   1.254   0.960  10.626  0.3454 -0.2618  0.2128
   53MOL0     C 7051   1.225   0.878  10.723 -0.4951 -0.0502  0.5559
   53MOL0     C 7052   1.167   0.930  10.840 -0.3691  0.2752 -0.1673
   53MOL0     C 7053   1.176   0.850  10.959  0.1196  0.1739 -0.6833
   53MOL0     C 7054   1.226   0.720  10.960 -0.1946  0.2122  0.4871
   53MOL0     O 7055   1.233   0.664  11.083  0.7161  1.0096  0.0699
   53MOL0     C 7056   1.274   0.528  11.094  0.1702 -0.0903  0.4220
   53MOL0     C 7057   1.252   0.500  11.238 -0.9472  0.6802  0.0428
   53MOL0     C 7058   1.285   0.342  11.246  0.1456  0.2542 -0.4429
   53MOL0     C 7059   1.419   0.317  11.321  0.5961 -0.5419  0.8005
   53MOL0     C 7060   1.410   0.179  11.370  0.5918  0.5229 -0.2565
   53MOL0     C 7061   1.533   0.145  11.456  0.3069 -1.0830 -0.1786
   53MOL0     C 7062   1.521   0.003  11.519 -0.2849  0.3853  0.1868
   53MOL0     C 7063   1.568  -0.114  11.431 -0.5670  0.0173 -0.0444
   53MOL0    Cl 7064   1.741  -0.103  11.408  0.4932 -0.3156 -0.1722
   53MOL0     C 7065   1.263   0.659  10.842 -0.8557  0.3079  0.4080
   53MOL0     C 7066   1.261   0.740  10.726  0.0612 -0.3147  0.0018
   53MOL0     O 7067   1.124   0.852  10.469 -0.8271 -0.4082  0.2228
   53MOL0     C 7068   1.223   0.989  10.253 -0.7560  0.3680  0.6202
   53MOL0     C 7069   1.284   1.059  10.144  0.6396  0.4562  0.0540
   53MOL0     N 7070   1.802   1.508   9.721 -0.6703  1.0209 -0.4555
   53MOL0     N 7071   1.905   1.577   9.735 -0.7992  0.0672 -0.8100
   53MOL0     C 7072   2.558   2.704   9.501  0.0825  0.9196  0.4923
   53MOL0     C 7073   2.679   2.758   9.470  1.0268 -0.2636  0.0889
   53MOL0     C 7074   3.097   2.890   9.391 -0.2834 -0.4641 -1.4082
   53MOL0     C 7075   3.172   2.778   9.387 -0.2404  0.0779  0.5404
   53MOL0     C 7076   3.308   2.788   9.340  0.0825 -0.4709 -0.2125
   53MOL0     C 7077   3.364   2.919   9.314 -0.5903  1.0568 -1.2762
   53MOL0     O 7078   3.504   2.941   9.297 -0.2348  1.1007 -0.7941
   53MOL0     C 7079   3.577   2.821   9.264  0.2399  0.0900 -0.0319
   53MOL0     C 7080   3.727   2.851   9.242 -0.1533  0.3395 -0.4215
   53MOL0     C 7081   3.812   2.884   9.361 -0.1852  0.0081 -0.4091
   53MOL0     C 7082   3.959   2.911   9.326  0.4710 -0.1802 -0.3069
   53MOL0     C 7083   3.967   3.020   9.230  0.3848  0.8586 -0.0651
   53MOL0     C 7084   3.979   3.104   9.143  0.6001  0.4862  0.8264
   53MOL0     C 7085   3.286   3.036   9.334  0.3362 -0.0023 -0.0116
   53MOL0     C 7086   3.155   3.016   9.370  0.8230  0.6627 -0.7659
   53MOL0     C 7087   3.074   3.143   9.387 -0.1732 -0.0207 -0.2912
   53MOL0     H 7088   2.870   2.482   9.438 -3.0475 -5.1972 -0.9694
   53MOL0     H 7089   2.644   2.382   9.490  2.3702 -0.4492 -0.6011
   53MOL0     H 7090   2.413   2.383   9.364 -1.5052 -1.4106 -0.6170
   53MOL0     H 7091   2.430   2.319   9.526  0.8475  0.4698 -0.1257
   53MOL0     H 7092   2.212   2.289   9.406 -0.8429  0.1924 -0.8890
   53MOL0     H 7093   2.186   2.456   9.410 -0.1177 -1.7338 -0.9900
   53MOL0     H 7094   2.069   2.388   9.602 -0.8030 -0.8820 -0.3905
   53MOL0     H 7095   2.220   2.458   9.667  1.7815 -1.0285  1.7007
   53MOL0     H 7096   2.303   2.222   9.695  1.1863  1.3591  1.6835
   53MOL0     H 7097   2.165   2.257   9.801 -2.6502  0.0616 -0.6459
   53MOL0     H 7098   2.008   2.161   9.643 -1.4077 -1.5837 -1.1732
   53MOL0     H 7099   2.131   2.097   9.552  0.8508 -0.2607 -0.3697
   53MOL0     H 7100   2.197   1.967   9.770  0.6845 -0.0170 -0.6563
   53MOL0     H 7101   2.084   2.059   9.866 -0.7646  0.3497  0.0222
   53MOL0     H 7102   2.000   1.879   9.631 -2.4427  2.8449 -1.5336
   53MOL0     H 7103   1.883   1.965   9.717 -0.1145 -2.3840 -1.5422
   53MOL0     H 7104   2.057   1.770   9.852  0.2454  1.8474  1.5700
   53MOL0     H 7105   1.932   1.867   9.930  1.6907  1.8527 -0.3922
   53MOL0     H 7106   1.670   1.777   9.838  0.9721 -0.1467 -1.2667
   53MOL0     H 7107   1.483   1.593   9.832 -1.6082 -2.2548 -1.0275
   53MOL0     H 7108   1.508   1.526   9.674  2.2847  4.5525 -0.8980
   53MOL0     H 7109   1.582   1.315   9.787  1.2148  0.0857  0.8853
   53MOL0     H 7110   1.574   1.395   9.945 -0.1238 -2.2827 -0.0419
   53MOL0     H 7111   1.347   1.332   9.763 -1.6272 -4.4562  1.4926
   53MOL0     H 7112   1.331   1.444   9.898 -2.3723  0.4732 -3.1159
   53MOL0     H 7113   1.392   1.147   9.897 -4.8380 -3.5707  1.4064
   53MOL0     H 7114   1.258   1.243   9.975  0.0347  3.4460 -1.8644
   53MOL0     H 7115   1.472   1.265  10.330 -2.1577  1.7276  0.0317
   53MOL0     H 7116   1.383   1.135  10.505  2.3047 -0.9586 -0.5995
   53MOL0     H 7117   1.113   1.023  10.854 -2.2898 -1.0849  2.4272
   53MOL0     H 7118   1.162   0.902  11.053  3.1137  0.2036 -0.1719
   53MOL0     H 7119   1.211   0.454  11.045  1.4621 -0.1681 -1.1837
   53MOL0     H 7120   1.376   0.529  11.055 -0.7340  2.0107 -2.1273
   53MOL0     H 7121   1.315   0.551  11.311  0.1264  0.2875 -0.5752
   53MOL0     H 7122   1.147   0.519  11.263 -0.8486 -2.9720  4.6029
   53MOL0     H 7123   1.202   0.290  11.295  1.6818  0.2592  2.3660
   53MOL0     H 7124   1.296   0.283  11.155  1.4583 -1.0274  0.5041
   53MOL0     H 7125   1.428   0.382  11.409 -2.8956  0.7414  0.3662
   53MOL0     H 7126   1.508   0.337  11.261 -1.1597  1.8506 -1.1887
   53MOL0     H 7127   1.396   0.103  11.292  1.6496  0.3690 -0.3228
   53MOL0     H 7128   1.330   0.177  11.444 -0.3576  2.7074 -1.1501
   53MOL0     H 7129   1.621   0.169  11.396  0.4047  0.2788  0.4744
   53MOL0     H 7130   1.525   0.206  11.546 -2.2603 -2.6745  0.8094
   53MOL0     H 7131   1.414  -0.005  11.542  0.4044 -2.1292  3.0382
   53MOL0     H 7132   1.570   0.003  11.616 -1.6983 -0.7900  0.9324
   53MOL0     H 7133   1.549  -0.212  11.476 -2.7241 -0.8502 -2.6124
   53MOL0     H 7134   1.525  -0.116  11.331 -0.3154 -2.9979 -0.1784
   53MOL0     H 7135   1.301   0.557  10.837 -1.7463 -0.1104  1.4800
   53MOL0     H 7136   1.298   0.714  10.627  0.4044  2.7691 -0.7891
   53MOL0     H 7137   1.143   0.923  10.222 -0.7656  0.2556  0.8838
   53MOL0     H 7138   1.257   1.032  10.042  1.1825  1.0510 -0.2562
   53MOL0     H 7139   2.480   2.772   9.535 -1.3623 -0.6696  0.5062
   53MOL0     H 7140   2.673   2.864   9.491 -0.3799 -0.4653  0.8002
   53MOL0     H 7141   3.133   2.678   9.408 -2.1069  0.9316  1.3891
   53MOL0     H 7142   3.356   2.692   9.326  1.7048  0.4842 -1.4022
   53MOL0     H 7143   3.538   2.773   9.173 -6.0873  4.5185 -0.2741
   53MOL0     H 7144   3.579   2.752   9.349 -0.0756  1.9871  1.5849
   53MOL0     H 7145   3.736   2.937   9.174  2.0682  0.5484  0.0679
   53MOL0     H 7146   3.766   2.764   9.189 -0.5762 -1.0302  1.4152
   53MOL0     H 7147   3.803   2.798   9.427 -1.3910 -1.4477 -2.3705
   53MOL0     H 7148   3.770   2.970   9.415  2.8484  0.9747  0.5899
   53MOL0     H 7149   4.012   2.943   9.416 -2.0286 -0.7485  1.4785
   53MOL0     H 7150   4.021   2.823   9.305  1.9116  0.3956  1.2544
   53MOL0     H 7151   3.987   3.174   9.062  4.4283 -2.2072 -1.4905
   53MOL0     H 7152   3.328   3.135   9.324  2.8118 -0.7462  1.8806
   53MOL0     H 7153   3.007   3.133   9.473 -0.6568 -1.9991 -0.8341
   53MOL0     H 7154   3.139   3.231   9.390 -1.2125  0.7624 -0.1962
   53MOL0     H 7155   3.009   3.151   9.299  0.9527  0.3719 -1.1080
   54MOL0     O 7156  10.493   1.134   9.936 -0.0297  0.3803 -0.5282
   54MOL0     C 7157  10.459   1.039   9.866  0.6821  0.3652  0.0540
   54MOL0     O 7158  10.543   0.947   9.817  0.5037  0.1411  0.6722
   54MOL0     C 7159  10.682   0.957   9.842  0.0857  0.6162  0.3456
   54MOL0     C 7160  10.756   1.072   9.829  0.9996 -0.3584  0.6897
   54MOL0     C 7161  10.898   1.071   9.834  0.8037  0.1856 -0.0638
   54MOL0     C 7162  10.964   0.947   9.849  0.6388  0.0746 -0.7083
   54MOL0     O 7163  11.100   0.930   9.869  0.9204  0.3301 -0.4572
   54MOL0     C 7164  11.176   1.021   9.959 -0.1766  0.4239 -0.3856
   54MOL0     C 7165  11.243   1.133   9.872 -0.1684  0.0445  0.5197
   54MOL0     C 7166  11.365   1.059   9.799 -0.0308 -0.6870 -0.4348
   54MOL0     C 7167  11.431   1.150   9.693 -0.1529 -0.0044  0.3403
   54MOL0     C 7168  11.549   1.078   9.619  0.5171  0.0876 -0.5040
   54MOL0     C 7169  11.559   1.138   9.479  0.4947 -0.3993  0.1865
   54MOL0     C 7170  11.681   1.086   9.394 -0.6897  0.2716 -0.0032
   54MOL0     C 7171  11.813   1.108   9.476 -0.6849  0.6467  0.7689
   54MOL0     N 7172  11.937   1.082   9.404 -0.1513 -0.2368  0.3769
   54MOL0     C 7173  12.056   1.153   9.407 -0.2718  0.5173 -0.7833
   54MOL0     C 7174  12.145   1.074   9.342  0.7543 -0.2087  0.3367
   54MOL0     C 7175  12.285   1.105   9.308 -0.5717 -0.0742 -0.0720
   54MOL0     C 7176  12.378   1.143   9.433 -0.7929  0.4190  0.6637
   54MOL0     C 7177  12.370   1.043   9.550 -0.4888 -1.1430 -0.0643
   54MOL0     C 7178  12.446   0.915   9.532  0.1242  0.0231 -0.5545
   54MOL0     O 7179  12.588   0.939   9.526  0.4930  0.5224 -0.2217
   54MOL0     C 7180  12.662   0.895   9.635 -0.2777  0.6144 -1.1701
   54MOL0     C 7181  12.785   0.963   9.670 -0.0769 -0.1393 -0.3688
   54MOL0     C 7182  12.857   0.921   9.784 -0.3636 -0.0119 -0.1176
   54MOL0     C 7183  12.809   0.828   9.871  0.6484 -0.4443 -0.2367
   54MOL0     C 7184  12.885   0.789   9.996 -0.0364 -0.7777 -0.1315
   54MOL0     O 7185  12.826   0.717  10.104 -0.0750  0.5229  0.3615
   54MOL0     C 7186  12.917   0.682  10.202  0.1569 -0.4774 -1.4663
   54MOL0     C 7187  12.861   0.691  10.326 -0.1100  0.2133  0.2496
   54MOL0     C 7188  12.930   0.663  10.442  0.3348 -0.0317 -0.6139
   54MOL0     C 7189  13.066   0.624  10.435  0.9042  0.6450 -0.3407
   54MOL0     O 7190  13.137   0.616  10.551 -0.3478 -1.0269  0.2685
   54MOL0     C 7191  13.253   0.533  10.549  0.5861 -0.2302  0.6572
   54MOL0     C 7192  13.336   0.562  10.677  0.0105  0.2519 -0.0597
   54MOL0     C 7193  13.420   0.693  10.653  0.4317  0.4451  0.1362
   54MOL0     C 7194  13.495   0.715  10.777 -0.7187 -0.2401 -0.5246
   54MOL0     C 7195  13.570   0.848  10.781 -0.0465 -0.0899 -0.2318
   54MOL0     C 7196  13.479   0.971  10.801  0.5767 -0.3765  0.6371
   54MOL0     C 7197  13.478   0.996  10.954 -0.6154 -0.0900 -0.4794
   54MOL0     C 7198  13.362   1.093  10.973 -0.3007  0.7277 -0.3447
   54MOL0    Cl 7199  13.319   1.095  11.143  0.0714  0.2346  0.1644
   54MOL0     C 7200  13.118   0.610  10.306 -0.1063  0.1515  0.1636
   54MOL0     C 7201  13.044   0.630  10.190 -0.2151  0.5557  0.1122
   54MOL0     O 7202  13.006   0.815   9.991  0.0921 -0.8561 -0.4547
   54MOL0     C 7203  12.684   0.770   9.843  0.2409 -0.1993 -0.1360
   54MOL0     C 7204  12.615   0.796   9.730 -0.3430 -0.2290  0.0419
   54MOL0     N 7205  12.078   0.953   9.305 -0.4653 -0.2541 -0.9062
   54MOL0     N 7206  11.956   0.960   9.347  0.6916  0.1280 -0.6605
   54MOL0     C 7207  10.886   0.827   9.852 -0.3600  0.6234  0.3743
   54MOL0     C 7208  10.748   0.831   9.844  0.2210  0.3192 -0.1581
   54MOL0     C 7209  10.316   1.006   9.847  0.1300  0.1376 -0.0558
   54MOL0     C 7210  10.275   0.877   9.878 -0.3980  0.5660  0.3973
   54MOL0     C 7211  10.146   0.843   9.866 -0.8867  0.2439  1.1877
   54MOL0     C 7212  10.047   0.939   9.834  0.2961  0.0069  0.5772
   54MOL0     O 7213   9.912   0.913   9.852  0.1516  0.6268 -0.0476
   54MOL0     C 7214   9.860   0.775   9.858 -0.4636 -0.0597  0.7688
   54MOL0     C 7215   9.720   0.771   9.944 -0.0726 -0.1151 -0.2030
   54MOL0     C 7216   9.741   0.857  10.064 -0.6068  0.2467 -0.1316
   54MOL0     C 7217   9.868   0.816  10.147 -1.4022  0.5857  0.3096
   54MOL0     C 7218   9.841   0.852  10.282  0.4664 -0.5907  0.8314
   54MOL0     C 7219   9.822   0.875  10.397 -0.3325 -0.0760 -0.6243
   54MOL0     C 7220  10.091   1.068   9.802 -0.5250  0.5930 -0.0493
   54MOL0     C 7221  10.224   1.102   9.810 -0.6449  0.9451 -0.7934
   54MOL0     C 7222  10.262   1.242   9.780 -0.1878 -0.2375 -0.1744
   54MOL0     H 7223  10.711   1.170   9.814 -0.6650 -1.3662 -1.3200
   54MOL0     H 7224  10.960   1.159   9.829 -0.9062  1.5750  1.7203
   54MOL0     H 7225  11.107   1.058  10.035 -0.7441 -0.1473 -0.6143
   54MOL0     H 7226  11.259   0.968  10.006 -0.4491 -1.2808 -1.7429
   54MOL0     H 7227  11.290   1.203   9.942 -1.5576 -0.6032  2.1738
   54MOL0     H 7228  11.180   1.190   9.803  0.1248  2.3627  2.0512
   54MOL0     H 7229  11.319   0.977   9.743 -3.0138  0.6729 -0.2201
   54MOL0     H 7230  11.437   1.034   9.877 -0.1449  1.2408  0.3482
   54MOL0     H 7231  11.353   1.173   9.620  0.9066 -0.0211 -0.8285
   54MOL0     H 7232  11.461   1.243   9.743 -0.3874  0.0399  0.4006
   54MOL0     H 7233  11.646   1.086   9.669 -1.2587 -0.9540  3.4438
   54MOL0     H 7234  11.521   0.975   9.599 -0.0984 -0.2955  1.9570
   54MOL0     H 7235  11.469   1.117   9.421  0.9311 -1.6025 -0.0921
   54MOL0     H 7236  11.578   1.245   9.484  2.5575 -0.4626 -3.2185
   54MOL0     H 7237  11.694   1.137   9.298  0.2849 -4.8534 -2.9500
   54MOL0     H 7238  11.662   0.979   9.383 -5.6747  0.7702  1.1244
   54MOL0     H 7239  11.815   1.209   9.519  0.6580 -0.2191  2.9344
   54MOL0     H 7240  11.802   1.034   9.555  0.7501  0.7819  1.1258
   54MOL0     H 7241  12.063   1.251   9.452 -3.0513  0.8379 -0.8889
   54MOL0     H 7242  12.324   1.023   9.247  0.8745  2.5356 -2.9231
   54MOL0     H 7243  12.281   1.194   9.244 -1.3837 -0.1975 -0.2035
   54MOL0     H 7244  12.485   1.157   9.417 -0.9808  0.7628 -0.3478
   54MOL0     H 7245  12.353   1.245   9.463  0.0616  1.6962 -2.6220
   54MOL0     H 7246  12.264   1.024   9.570 -0.2840 -0.9329  1.3714
   54MOL0     H 7247  12.411   1.095   9.638 -1.6080 -0.6342  0.1725
   54MOL0     H 7248  12.424   0.870   9.435  0.2247 -3.5240  0.9398
   54MOL0     H 7249  12.398   0.851   9.606  2.9082 -0.1898  1.2495
   54MOL0     H 7250  12.816   1.041   9.601  0.8081  2.1780  2.4653
   54MOL0     H 7251  12.957   0.960   9.801 -0.3943  1.5821 -2.9361
   54MOL0     H 7252  12.756   0.712  10.340 -0.2141  1.9247 -2.3211
   54MOL0     H 7253  12.881   0.665  10.539  1.5790  0.3335  0.0266
   54MOL0     H 7254  13.225   0.428  10.553  1.8719 -0.5755  4.3433
   54MOL0     H 7255  13.318   0.541  10.462 -0.4043 -2.4563 -0.3440
   54MOL0     H 7256  13.276   0.576  10.768  0.1878 -0.2778  0.1381
   54MOL0     H 7257  13.407   0.485  10.708  2.0061  2.5100  1.3184
   54MOL0     H 7258  13.488   0.685  10.568 -0.2687 -0.9780 -0.3231
   54MOL0     H 7259  13.348   0.775  10.644 -5.9549 -4.0688  2.6962
   54MOL0     H 7260  13.563   0.632  10.794 -2.5531 -2.1360 -1.9255
   54MOL0     H 7261  13.433   0.708  10.867 -0.1292 -3.3317 -0.2663
   54MOL0     H 7262  13.627   0.860  10.688  1.1409 -1.9855  0.1930
   54MOL0     H 7263  13.640   0.849  10.865 -0.0812  4.0538 -0.0504
   54MOL0     H 7264  13.519   1.056  10.744 -1.7815  0.8747  0.7233
   54MOL0     H 7265  13.379   0.955  10.759  1.6889 -3.2051 -1.2777
   54MOL0     H 7266  13.565   1.048  10.995 -1.1963  0.6252 -0.1098
   54MOL0     H 7267  13.460   0.907  11.016 -0.5952  0.9276  1.0369
   54MOL0     H 7268  13.387   1.193  10.935 -0.6167  0.6113 -0.8665
   54MOL0     H 7269  13.273   1.068  10.914 -1.7945  1.2363  1.6014
   54MOL0     H 7270  13.222   0.601  10.277 -0.9922  0.7972 -3.7498
   54MOL0     H 7271  13.091   0.594  10.099  1.3927  2.5693  0.0745
   54MOL0     H 7272  12.635   0.695   9.905  0.8030 -0.1387  0.3902
   54MOL0     H 7273  12.513   0.758   9.734 -0.6520  0.6522  1.0849
   54MOL0     H 7274  10.942   0.734   9.854  0.0599  0.7058 -2.6418
   54MOL0     H 7275  10.703   0.732   9.839  5.1208 -2.3396  1.2525
   54MOL0     H 7276  10.341   0.797   9.912  1.8698  0.7980 -2.9054
   54MOL0     H 7277  10.131   0.739   9.894  2.7228  0.2180  3.7351
   54MOL0     H 7278   9.921   0.692   9.893  0.2829  0.4887  0.8019
   54MOL0     H 7279   9.840   0.749   9.753  0.3725  2.9599 -0.2556
   54MOL0     H 7280   9.717   0.665   9.972  1.8038 -0.2078 -0.2019
   54MOL0     H 7281   9.635   0.810   9.887 -0.1295 -0.2896 -0.2392
   54MOL0     H 7282   9.658   0.850  10.134 -0.8167 -1.9956 -0.5188
   54MOL0     H 7283   9.745   0.960  10.029  2.8680 -0.1558 -1.3751
   54MOL0     H 7284   9.885   0.708  10.149  0.4630  0.8117 -0.7379
   54MOL0     H 7285   9.961   0.866  10.118 -1.1528  1.1649  2.0038
   54MOL0     H 7286   9.815   0.878  10.504  1.4135  1.1834 -0.5073
   54MOL0     H 7287  10.014   1.142   9.782 -0.2919  0.1110 -3.2659
   54MOL0     H 7288  10.185   1.284   9.715  1.0224  0.4705 -1.1747
   54MOL0     H 7289  10.270   1.289   9.879  0.9994 -1.3711  0.3137
   54MOL0     H 7290  10.355   1.261   9.726 -1.0176  0.7586 -1.2793
   55MOL0     O 7291   0.977   1.404   2.458  0.3364 -0.7732  0.3523
   55MOL0     C 7292   0.916   1.462   2.361 -0.4096 -0.0309  0.0645
   55MOL0     O 7293   0.796   1.534   2.369 -0.9596 -0.3719 -0.7867
   55MOL0     C 7294   0.739   1.548   2.498 -0.1137 -0.3456  0.6042
   55MOL0     C 7295   0.711   1.674   2.544  0.3923 -0.9159  0.3845
   55MOL0     C 7296   0.649   1.705   2.669  0.9373 -0.0047 -0.3338
   55MOL0     C 7297   0.611   1.597   2.750  0.5132  0.5868  0.0613
   55MOL0     O 7298   0.555   1.613   2.870 -0.3110  0.6189 -0.0116
   55MOL0     C 7299   0.619   1.710   2.957 -0.2263 -0.0043 -0.2513
   55MOL0     C 7300   0.550   1.727   3.096 -0.2614 -0.9510  0.0718
   55MOL0     C 7301   0.536   1.589   3.161 -0.1552  0.4867  0.6301
   55MOL0     C 7302   0.519   1.617   3.310  0.1012  0.9580 -0.2105
   55MOL0     C 7303   0.499   1.489   3.395  0.0738 -0.2316 -0.8474
   55MOL0     C 7304   0.502   1.531   3.547  0.3833 -0.0305 -0.0121
   55MOL0     C 7305   0.644   1.552   3.608  0.1074  0.1944 -0.0735
   55MOL0     C 7306   0.651   1.529   3.757 -0.0985 -0.4440 -0.5993
   55MOL0     N 7307   0.795   1.514   3.801 -0.2496  0.3288 -0.3793
   55MOL0     C 7308   0.898   1.583   3.748 -0.1034 -0.5483 -0.5959
   55MOL0     C 7309   1.003   1.532   3.809 -0.2562  0.4956  1.3641
   55MOL0     C 7310   1.148   1.570   3.791  0.3040 -0.7839 -0.4623
   55MOL0     C 7311   1.203   1.687   3.877  1.2589  0.2548 -0.5359
   55MOL0     C 7312   1.185   1.657   4.031 -0.2093  0.5714 -0.2487
   55MOL0     C 7313   1.286   1.737   4.127 -0.3529  0.0817 -0.3146
   55MOL0     O 7314   1.421   1.729   4.083  0.2306  0.4546 -0.2061
   55MOL0     C 7315   1.516   1.817   4.136  0.2458 -0.0451  0.1813
   55MOL0     C 7316   1.650   1.791   4.108 -0.3342 -0.1527  0.2262
   55MOL0     C 7317   1.756   1.870   4.147  0.3705 -1.2083 -0.7154
   55MOL0     C 7318   1.725   1.989   4.219 -0.3031 -0.6477  0.5073
   55MOL0     C 7319   1.827   2.079   4.265 -0.3518  0.2771 -0.5220
   55MOL0     O 7320   1.794   2.210   4.300  0.2675  0.5612 -0.7324
   55MOL0     C 7321   1.876   2.320   4.315 -1.1652 -1.1877 -0.7473
   55MOL0     C 7322   1.887   2.416   4.216 -0.5949 -0.4726  0.2964
   55MOL0     C 7323   1.957   2.533   4.232 -0.1746  0.4101 -0.3145
   55MOL0     C 7324   2.029   2.562   4.356  0.1438 -0.4221 -0.0378
   55MOL0     O 7325   2.115   2.669   4.366 -0.5897  0.3870  0.5175
   55MOL0     C 7326   2.210   2.691   4.251  0.4417  0.0800 -0.2405
   55MOL0     C 7327   2.198   2.845   4.218 -0.2466 -0.2515  0.0062
   55MOL0     C 7328   2.057   2.893   4.177 -0.1983 -0.1859  0.3819
   55MOL0     C 7329   2.047   3.040   4.130 -1.0869 -0.4221  0.3810
   55MOL0     C 7330   2.114   3.062   3.994 -0.6837 -0.9089  0.2593
   55MOL0     C 7331   2.199   3.190   3.986  0.0236 -0.7043 -0.0597
   55MOL0     C 7332   2.126   3.298   3.910  0.3621 -0.2746  0.3733
   55MOL0     C 7333   2.038   3.387   3.996  0.1151 -0.1687  0.1580
   55MOL0    Cl 7334   1.965   3.512   3.901 -0.3007 -0.1573 -0.0130
   55MOL0     C 7335   2.010   2.467   4.463 -0.3668  0.3675 -0.2175
   55MOL0     C 7336   1.953   2.340   4.431  0.1084 -0.0739 -0.2125
   55MOL0     O 7337   1.943   2.039   4.253  0.7398  0.0473 -0.0271
   55MOL0     C 7338   1.592   2.017   4.255  0.0607 -0.3819  1.1405
   55MOL0     C 7339   1.488   1.934   4.214  0.4923  0.2360 -0.1870
   55MOL0     N 7340   0.971   1.447   3.909 -0.3366 -0.0187  0.5773
   55MOL0     N 7341   0.845   1.424   3.896  0.7487 -0.2202  0.4352
   55MOL0     C 7342   0.638   1.473   2.701  0.4694 -0.2465 -0.5640
   55MOL0     C 7343   0.705   1.447   2.579 -0.7373  0.7047  0.3263
   55MOL0     C 7344   0.971   1.457   2.227 -1.4781  0.0262 -0.2285
   55MOL0     C 7345   0.956   1.569   2.141  0.6639  1.5816  0.0929
   55MOL0     C 7346   1.011   1.569   2.014  0.1175  0.8076  0.0551
   55MOL0     C 7347   1.076   1.461   1.963 -0.0916  0.3714  0.6715
   55MOL0     O 7348   1.102   1.476   1.830  0.0756 -0.6601 -0.0908
   55MOL0     C 7349   1.216   1.416   1.764 -0.4549 -0.9803 -1.1592
   55MOL0     C 7350   1.341   1.496   1.815 -0.3262  0.0441  0.0776
   55MOL0     C 7351   1.468   1.444   1.745 -0.5913  0.2440  0.0640
   55MOL0     C 7352   1.584   1.427   1.841 -0.2588  0.7701 -0.0308
   55MOL0     C 7353   1.571   1.333   1.947  0.4924 -0.1340 -0.2597
   55MOL0     C 7354   1.547   1.278   2.046  0.9431 -0.6016  0.3898
   55MOL0     C 7355   1.103   1.349   2.047  0.0559 -0.1679 -0.8955
   55MOL0     C 7356   1.042   1.342   2.179 -0.5238 -0.2661  0.1737
   55MOL0     C 7357   1.081   1.220   2.262  0.8325 -0.6622 -0.3862
   55MOL0     H 7358   0.740   1.757   2.481  1.9980  1.0878  3.4938
   55MOL0     H 7359   0.627   1.802   2.712  3.4595  0.3122  0.3700
   55MOL0     H 7360   0.717   1.671   2.986 -0.6493  0.1107  1.4540
   55MOL0     H 7361   0.623   1.811   2.914 -0.0102  0.9229  1.7806
   55MOL0     H 7362   0.453   1.777   3.086  0.2856  0.1308 -0.0437
   55MOL0     H 7363   0.605   1.799   3.158 -2.5490  1.4144 -0.4288
   55MOL0     H 7364   0.630   1.534   3.150  1.1057  2.3387  1.6611
   55MOL0     H 7365   0.449   1.525   3.144  0.0989  0.1007  0.7604
   55MOL0     H 7366   0.610   1.666   3.347  1.7472 -0.7834 -1.7299
   55MOL0     H 7367   0.440   1.690   3.333 -0.8963 -0.7592  2.1451
   55MOL0     H 7368   0.401   1.449   3.371  0.4250 -1.2581 -0.6130
   55MOL0     H 7369   0.566   1.405   3.372 -1.8255 -2.1266  0.2379
   55MOL0     H 7370   0.458   1.631   3.547 -1.2187 -0.6820 -1.1607
   55MOL0     H 7371   0.447   1.461   3.611  0.4214  0.0895  0.1519
   55MOL0     H 7372   0.687   1.649   3.586  4.0364 -0.8774  1.9927
   55MOL0     H 7373   0.694   1.463   3.568 -1.3519 -1.6570  1.9595
   55MOL0     H 7374   0.610   1.623   3.793 -0.8696 -0.0579 -2.3854
   55MOL0     H 7375   0.591   1.441   3.781  0.7374 -1.4199 -1.9345
   55MOL0     H 7376   0.898   1.646   3.659  0.2093  3.1857  1.8183
   55MOL0     H 7377   1.206   1.483   3.823 -0.5155 -0.6018  1.6774
   55MOL0     H 7378   1.156   1.587   3.684 -1.1846 -0.6974 -0.5728
   55MOL0     H 7379   1.309   1.705   3.860  1.2432 -0.0716 -1.0024
   55MOL0     H 7380   1.158   1.786   3.862 -0.0691 -0.3509 -0.7574
   55MOL0     H 7381   1.191   1.548   4.044 -4.9577 -0.2074 -2.4283
   55MOL0     H 7382   1.084   1.688   4.059  0.0404  0.1273  1.1864
   55MOL0     H 7383   1.275   1.710   4.233  1.1009 -2.0528 -0.6421
   55MOL0     H 7384   1.244   1.837   4.113 -2.7172 -0.7188  0.5390
   55MOL0     H 7385   1.671   1.704   4.046  2.7110  0.5070  0.1701
   55MOL0     H 7386   1.858   1.848   4.115  0.7051  0.1200 -0.6513
   55MOL0     H 7387   1.823   2.411   4.128  0.6259  1.5991 -0.7911
   55MOL0     H 7388   1.981   2.596   4.147 -1.4430 -0.2200 -1.1642
   55MOL0     H 7389   2.311   2.669   4.286  0.9248 -0.2647 -1.7710
   55MOL0     H 7390   2.190   2.628   4.164 -0.0571  0.7106 -0.5972
   55MOL0     H 7391   2.226   2.894   4.312 -2.4227  1.4699 -0.1434
   55MOL0     H 7392   2.270   2.884   4.146 -0.2679  1.9311  1.0919
   55MOL0     H 7393   2.032   2.830   4.091  2.6452 -1.4192  0.3358
   55MOL0     H 7394   1.991   2.858   4.257  1.4500 -4.2651  0.2470
   55MOL0     H 7395   2.094   3.092   4.213 -2.0940  1.5023 -0.1990
   55MOL0     H 7396   1.945   3.080   4.129  0.3824  3.9064  2.1236
   55MOL0     H 7397   2.041   3.060   3.913 -0.3803  2.5868 -0.2436
   55MOL0     H 7398   2.183   2.983   3.962  1.5161  0.5336  1.1693
   55MOL0     H 7399   2.237   3.214   4.086  0.3569 -1.7691  0.0850
   55MOL0     H 7400   2.294   3.171   3.935  0.2438 -0.9213  0.4313
   55MOL0     H 7401   2.061   3.259   3.830  1.6466  0.9083 -1.3415
   55MOL0     H 7402   2.209   3.356   3.869 -0.1851 -0.9820 -1.8828
   55MOL0     H 7403   1.954   3.329   4.035  2.4123 -2.8376  1.5258
   55MOL0     H 7404   2.089   3.435   4.080  0.0273  1.9430 -0.9481
   55MOL0     H 7405   2.063   2.479   4.557  1.1587 -1.7867 -0.7186
   55MOL0     H 7406   1.950   2.261   4.505  2.5389 -0.9389 -0.9600
   55MOL0     H 7407   1.571   2.095   4.327  0.6426  0.4863  0.3942
   55MOL0     H 7408   1.383   1.948   4.237  0.5566 -1.9751  1.8352
   55MOL0     H 7409   0.595   1.396   2.765  0.7681 -0.6359 -0.8273
   55MOL0     H 7410   0.705   1.347   2.539  1.3647  1.1887 -0.9915
   55MOL0     H 7411   0.915   1.665   2.169 -0.1017  1.2433  0.1634
   55MOL0     H 7412   0.999   1.662   1.959 -3.6068 -0.1185 -0.9709
   55MOL0     H 7413   1.199   1.404   1.656 -1.0847  0.3387 -1.2276
   55MOL0     H 7414   1.235   1.313   1.796 -1.0289 -1.4498 -2.2675
   55MOL0     H 7415   1.339   1.470   1.921 -3.0237 -1.2212 -0.1967
   55MOL0     H 7416   1.334   1.603   1.791 -2.1779  0.0338  0.4426
   55MOL0     H 7417   1.498   1.518   1.670  2.7678  0.1465  1.1268
   55MOL0     H 7418   1.454   1.346   1.698 -0.9376 -1.2226  2.9850
   55MOL0     H 7419   1.674   1.400   1.784 -0.4977 -0.6533  0.2166
   55MOL0     H 7420   1.615   1.525   1.876 -0.3149  0.4487  0.9533
   55MOL0     H 7421   1.531   1.225   2.138  0.1308 -2.1702 -0.6114
   55MOL0     H 7422   1.163   1.268   2.008  1.3599  0.7070 -0.7638
   55MOL0     H 7423   1.121   1.137   2.203 -0.2610 -0.3983 -1.5421
   55MOL0     H 7424   1.148   1.239   2.347  0.0491  0.7321 -0.0411
   55MOL0     H 7425   0.990   1.180   2.307  1.0855  1.3109  2.1549
   56MOL0     O 7426   6.681   3.817   8.723  0.6676 -0.5755 -0.1736
   56MOL0     C 7427   6.670   3.815   8.851  0.6702  0.3473 -0.3247
   56MOL0     O 7428   6.676   3.707   8.929  0.5737 -0.9375 -0.7411
   56MOL0     C 7429   6.735   3.596   8.879  0.4450 -0.3947 -0.5114
   56MOL0     C 7430   6.701   3.535   8.756  1.1895 -0.3685  0.1596
   56MOL0     C 7431   6.746   3.418   8.716 -0.7128  0.4499 -0.2226
   56MOL0     C 7432   6.852   3.355   8.779 -0.4038  0.3452 -0.8660
   56MOL0     O 7433   6.907   3.241   8.728 -0.2090  0.1412 -0.0570
   56MOL0     C 7434   7.009   3.161   8.791 -0.5008 -0.6203 -0.1840
   56MOL0     C 7435   6.992   3.020   8.735  0.3235  0.0138  0.2505
   56MOL0     C 7436   7.106   2.924   8.777 -0.0042 -0.6325 -0.2352
   56MOL0     C 7437   7.080   2.808   8.874  0.1202  0.7851 -0.7285
   56MOL0     C 7438   7.213   2.755   8.932  0.3389 -0.1118  0.6221
   56MOL0     C 7439   7.279   2.660   8.835  0.3512 -0.0813 -1.0268
   56MOL0     C 7440   7.383   2.573   8.903  0.9804 -1.1122  0.5614
   56MOL0     C 7441   7.519   2.644   8.926 -0.2276  0.0269  0.0087
   56MOL0     N 7442   7.616   2.548   8.967  0.0732 -0.7010 -0.3743
   56MOL0     C 7443   7.699   2.475   8.882  0.6070 -0.4042  0.2279
   56MOL0     C 7444   7.772   2.400   8.969 -0.0550  0.5581  0.3580
   56MOL0     C 7445   7.882   2.304   8.923 -0.0069  0.3675 -0.1889
   56MOL0     C 7446   7.997   2.307   9.017 -0.1444 -0.1479  0.6439
   56MOL0     C 7447   8.122   2.232   8.967 -0.1481 -1.0592 -0.2302
   56MOL0     C 7448   8.206   2.302   8.858 -0.1901  0.4269  0.4752
   56MOL0     O 7449   8.276   2.413   8.911 -0.1427  0.3274 -0.3226
   56MOL0     C 7450   8.386   2.399   8.991 -0.5436  0.1032  0.3897
   56MOL0     C 7451   8.451   2.283   9.012  0.1479 -0.0200  0.7024
   56MOL0     C 7452   8.569   2.277   9.084  0.0620 -0.5109  0.9546
   56MOL0     C 7453   8.625   2.393   9.143 -0.0952 -0.4317 -1.4215
   56MOL0     C 7454   8.747   2.384   9.221  0.1984 -0.0602  0.0858
   56MOL0     O 7455   8.769   2.258   9.270 -0.0545 -0.0716 -0.3818
   56MOL0     C 7456   8.883   2.217   9.331  0.2795 -0.1882  0.0118
   56MOL0     C 7457   8.871   2.113   9.421 -0.2620  0.7283 -0.7217
   56MOL0     C 7458   8.991   2.062   9.481  0.3705 -0.4492 -0.0460
   56MOL0     C 7459   9.122   2.100   9.442 -0.2559  0.2588  0.8073
   56MOL0     O 7460   9.228   2.040   9.506 -0.5202  0.1600  0.3122
   56MOL0     C 7461   9.357   2.101   9.481  0.3080  0.1637  0.3619
   56MOL0     C 7462   9.468   2.034   9.563  0.2218 -0.6046  0.2171
   56MOL0     C 7463   9.539   1.933   9.482  0.1506  0.5347  0.6789
   56MOL0     C 7464   9.489   1.786   9.501  0.5045  0.1007  0.0443
   56MOL0     C 7465   9.568   1.685   9.416  0.1508 -0.0875 -0.7416
   56MOL0     C 7466   9.697   1.645   9.488  0.1688 -0.4000  0.3790
   56MOL0     C 7467   9.788   1.550   9.403 -0.8920  0.4936 -0.0143
   56MOL0     C 7468   9.905   1.484   9.487  1.1092 -0.3972  0.0885
   56MOL0    Cl 7469   9.999   1.609   9.570  0.7276  0.1853 -0.0045
   56MOL0     C 7470   9.136   2.215   9.357 -0.2030  0.9536 -0.1025
   56MOL0     C 7471   9.014   2.272   9.307  0.0243 -0.2641  0.0090
   56MOL0     O 7472   8.805   2.484   9.255 -0.3051 -0.8300  0.8357
   56MOL0     C 7473   8.568   2.517   9.112 -0.4470 -0.2865  0.5800
   56MOL0     C 7474   8.450   2.516   9.037  0.7898  0.0111 -0.0754
   56MOL0     N 7475   7.734   2.424   9.100  0.7303  0.2750 -0.5813
   56MOL0     N 7476   7.642   2.516   9.091 -0.1776  0.6917  0.1757
   56MOL0     C 7477   6.883   3.411   8.904  0.8702  0.4877  0.0829
   56MOL0     C 7478   6.825   3.527   8.960 -0.3677 -0.1790 -0.4839
   56MOL0     C 7479   6.619   3.937   8.920 -0.5529 -0.1729  0.3445
   56MOL0     C 7480   6.622   4.057   8.840 -0.3629 -1.1094 -0.3332
   56MOL0     C 7481   6.571   4.178   8.888 -0.7452  0.1034 -0.6645
   56MOL0     C 7482   6.510   4.186   9.019  0.3764  0.5168 -0.9319
   56MOL0     O 7483   6.453   4.292   9.083 -0.7501 -0.7561  0.0932
   56MOL0     C 7484   6.487   4.422   9.037 -0.1357  0.6302  0.6495
   56MOL0     C 7485   6.376   4.520   9.056  0.4387 -0.2177  0.5608
   56MOL0     C 7486   6.251   4.497   8.972  0.2330 -0.7561  0.1681
   56MOL0     C 7487   6.244   4.363   8.898 -1.1638 -0.6351  0.7715
   56MOL0     C 7488   6.118   4.367   8.822 -0.8881  0.4107  0.6504
   56MOL0     C 7489   6.031   4.355   8.738  0.0485 -0.9973 -0.8188
   56MOL0     C 7490   6.512   4.066   9.097 -0.3209 -0.0339 -0.1825
   56MOL0     C 7491   6.559   3.942   9.049 -0.5854  0.2946  0.7592
   56MOL0     C 7492   6.534   3.831   9.145 -0.3734  0.0511 -1.6707
   56MOL0     H 7493   6.622   3.582   8.698 -0.7618  0.5268  3.2733
   56MOL0     H 7494   6.722   3.372   8.620 -0.6639 -1.8086  0.7886
   56MOL0     H 7495   7.110   3.195   8.767 -0.4632 -1.5058 -1.3630
   56MOL0     H 7496   6.995   3.155   8.899  1.1328 -0.2532  0.0810
   56MOL0     H 7497   6.997   3.029   8.626  3.1564 -0.1076  0.2886
   56MOL0     H 7498   6.899   2.984   8.780 -1.6123  1.3079 -2.4197
   56MOL0     H 7499   7.180   2.994   8.816  1.9442 -3.0706  0.7309
   56MOL0     H 7500   7.156   2.880   8.690 -0.7193  0.2898 -1.1307
   56MOL0     H 7501   7.004   2.847   8.942  0.1349  0.6491 -0.6332
   56MOL0     H 7502   7.032   2.724   8.824 -0.3635 -0.0653  1.0646
   56MOL0     H 7503   7.279   2.840   8.951 -0.8572  1.6353 -2.4065
   56MOL0     H 7504   7.191   2.696   9.021 -3.0418 -1.1302 -0.7014
   56MOL0     H 7505   7.210   2.592   8.784  1.8315 -1.4151 -1.3327
   56MOL0     H 7506   7.322   2.719   8.754 -1.2351 -2.6390 -3.9692
   56MOL0     H 7507   7.404   2.496   8.829  1.2307  1.8534 -2.6946
   56MOL0     H 7508   7.341   2.536   8.997 -0.6587 -1.3537 -0.2529
   56MOL0     H 7509   7.554   2.691   8.833 -0.1366  2.2188  1.0895
   56MOL0     H 7510   7.506   2.726   8.997 -0.3222 -0.1576  0.2022
   56MOL0     H 7511   7.687   2.473   8.774 -3.6706  1.9448  0.4442
   56MOL0     H 7512   7.832   2.207   8.930 -0.2142  0.5344  0.7728
   56MOL0     H 7513   7.915   2.312   8.819 -4.3776  0.7181 -1.7846
   56MOL0     H 7514   8.036   2.406   9.043  2.4068 -1.4689  2.3046
   56MOL0     H 7515   7.965   2.276   9.116 -3.1096  2.1753  0.5587
   56MOL0     H 7516   8.100   2.130   8.932  1.9630 -2.4293  2.1067
   56MOL0     H 7517   8.187   2.213   9.053  1.7492  0.4211 -1.2586
   56MOL0     H 7518   8.139   2.345   8.782  0.9528  1.1782 -0.1332
   56MOL0     H 7519   8.273   2.232   8.806 -0.5542 -0.3550  1.0331
   56MOL0     H 7520   8.413   2.191   8.968  0.0737 -0.4483  1.6283
   56MOL0     H 7521   8.622   2.183   9.097  1.6443  0.1286 -0.5143
   56MOL0     H 7522   8.772   2.075   9.444 -0.6773  1.3246 -1.4535
   56MOL0     H 7523   8.985   1.976   9.547  0.7781  0.3185  1.0161
   56MOL0     H 7524   9.382   2.106   9.375  2.2767  2.7766  0.8566
   56MOL0     H 7525   9.351   2.201   9.525 -2.1268  0.4854 -0.5247
   56MOL0     H 7526   9.544   2.109   9.588 -0.4110  0.4584 -0.9060
   56MOL0     H 7527   9.431   1.987   9.654  1.1355  1.2676  1.6285
   56MOL0     H 7528   9.540   1.966   9.378  1.5641  0.5945  0.6960
   56MOL0     H 7529   9.642   1.940   9.519  0.4981  1.0726 -0.3593
   56MOL0     H 7530   9.386   1.782   9.464  1.1423 -1.9803 -1.7062
   56MOL0     H 7531   9.484   1.764   9.608  2.4207  2.4014  0.7128
   56MOL0     H 7532   9.586   1.721   9.314 -1.9857  0.1592 -1.0808
   56MOL0     H 7533   9.508   1.595   9.404 -4.2231  2.3589  0.6465
   56MOL0     H 7534   9.757   1.734   9.508  0.3807 -0.5068  0.2101
   56MOL0     H 7535   9.675   1.600   9.585  3.0610  1.0511  1.8290
   56MOL0     H 7536   9.828   1.608   9.319  0.7261  0.6616  0.8233
   56MOL0     H 7537   9.727   1.465   9.371 -0.6542  0.6367 -0.8760
   56MOL0     H 7538   9.870   1.415   9.565  0.7903  1.1295  1.3538
   56MOL0     H 7539   9.964   1.429   9.414  0.6417 -2.3725  1.1339
   56MOL0     H 7540   9.235   2.254   9.340 -0.2187  1.5340  1.0447
   56MOL0     H 7541   9.024   2.366   9.252 -1.1771  0.6816  1.3520
   56MOL0     H 7542   8.606   2.612   9.150 -1.9311  0.5282  0.1196
   56MOL0     H 7543   8.401   2.609   9.010 -3.9676 -0.9500  3.8160
   56MOL0     H 7544   6.960   3.361   8.961  0.4048 -1.6972 -1.1097
   56MOL0     H 7545   6.874   3.578   9.043  2.3183  0.1166 -2.1273
   56MOL0     H 7546   6.654   4.047   8.737  0.4482 -0.3010 -0.1746
   56MOL0     H 7547   6.559   4.264   8.822  1.6590  0.9257 -0.1097
   56MOL0     H 7548   6.506   4.432   8.930  1.7611 -1.3974  0.7255
   56MOL0     H 7549   6.576   4.455   9.092  2.0438 -3.0206 -0.3216
   56MOL0     H 7550   6.421   4.616   9.031 -0.1107  0.0810  0.6899
   56MOL0     H 7551   6.336   4.532   9.157 -0.1271  0.9689  0.2119
   56MOL0     H 7552   6.253   4.572   8.892 -0.6639 -0.4529  0.4196
   56MOL0     H 7553   6.167   4.522   9.037 -0.0120  1.2982 -0.8740
   56MOL0     H 7554   6.320   4.365   8.819 -1.8914  1.4025  0.0355
   56MOL0     H 7555   6.245   4.286   8.975  0.0428 -0.4579  0.9490
   56MOL0     H 7556   5.962   4.366   8.657  0.0699  3.8768 -0.4608
   56MOL0     H 7557   6.472   4.070   9.198  3.0893 -2.7985  1.5131
   56MOL0     H 7558   6.612   3.760   9.170 -1.4527  0.4648  4.4560
   56MOL0     H 7559   6.487   3.868   9.237  2.2396  0.9661 -0.6286
   56MOL0     H 7560   6.455   3.768   9.103 -1.1538 -1.1541  1.3346
   57MOL0     O 7561   8.212   2.114   7.820 -1.0269 -0.0780 -0.2949
   57MOL0     C 7562   8.151   2.080   7.921 -0.0320 -0.5539  1.0958
   57MOL0     O 7563   8.113   2.162   8.028  0.2759 -0.3933 -0.3105
   57MOL0     C 7564   8.188   2.280   8.042  0.3046 -0.7925  0.0120
   57MOL0     C 7565   8.129   2.395   7.993 -0.1202  0.5149  0.0086
   57MOL0     C 7566   8.184   2.524   8.022  0.4086  0.1942  1.2599
   57MOL0     C 7567   8.308   2.525   8.072 -0.7679 -1.1027 -0.1280
   57MOL0     O 7568   8.373   2.656   8.082  0.4638  0.0299  0.3113
   57MOL0     C 7569   8.475   2.686   8.171 -0.4684 -0.1808  0.1765
   57MOL0     C 7570   8.482   2.818   8.258  0.9625  0.2863  0.3265
   57MOL0     C 7571   8.335   2.845   8.315  0.7764 -0.4811  0.4666
   57MOL0     C 7572   8.347   2.987   8.381  0.7575  0.1812  0.5950
   57MOL0     C 7573   8.225   3.040   8.436 -0.4285  0.4831 -0.1518
   57MOL0     C 7574   8.245   3.170   8.516 -0.1881  0.5788 -0.3386
   57MOL0     C 7575   8.111   3.246   8.561 -0.5466  0.8897  0.2238
   57MOL0     C 7576   8.026   3.161   8.657  0.0571  0.1870 -0.2413
   57MOL0     N 7577   8.099   3.155   8.781  0.2732 -0.5263 -0.3956
   57MOL0     C 7578   8.181   3.052   8.823 -0.3782  0.4579  1.1053
   57MOL0     C 7579   8.225   3.079   8.949  0.3712  0.0226  0.6546
   57MOL0     C 7580   8.307   2.993   9.042 -0.0105 -0.0380  0.9408
   57MOL0     C 7581   8.456   3.004   9.025 -0.1418 -0.6385  0.2938
   57MOL0     C 7582   8.516   2.943   8.897  0.0166 -0.5905  0.3150
   57MOL0     C 7583   8.666   2.915   8.902  0.1198  0.1512 -0.1378
   57MOL0     O 7584   8.701   2.838   9.018  0.6170  0.2741  0.1281
   57MOL0     C 7585   8.837   2.831   9.041  0.2566  0.5720 -0.6747
   57MOL0     C 7586   8.929   2.846   8.940  0.0610  0.3901  0.1030
   57MOL0     C 7587   9.068   2.835   8.958  0.2135 -0.1546 -0.2924
   57MOL0     C 7588   9.115   2.829   9.093  0.1969 -0.7123  0.5733
   57MOL0     C 7589   9.255   2.838   9.134  0.3649  0.1771 -0.7401
   57MOL0     O 7590   9.292   2.779   9.255  0.5258 -0.3207 -0.1893
   57MOL0     C 7591   9.427   2.769   9.292 -0.2322 -0.4794 -0.5873
   57MOL0     C 7592   9.523   2.706   9.214  0.2394 -0.3455  0.1448
   57MOL0     C 7593   9.648   2.693   9.272  1.1435  0.9936  0.6897
   57MOL0     C 7594   9.669   2.712   9.404 -0.2051  0.5913  0.6125
   57MOL0     O 7595   9.777   2.663   9.471 -0.2453 -0.1494 -0.2155
   57MOL0     C 7596   9.897   2.733   9.458  0.7193  0.5242 -0.1318
   57MOL0     C 7597   9.938   2.807   9.586 -0.1646  0.5380  0.5596
   57MOL0     C 7598  10.090   2.809   9.608 -0.4834 -0.1902 -0.0667
   57MOL0     C 7599  10.146   2.937   9.650  0.2236 -0.1468  0.1063
   57MOL0     C 7600  10.291   2.934   9.705 -0.0302  0.0881 -0.2259
   57MOL0     C 7601  10.338   3.063   9.763 -0.0774 -0.0791 -0.0578
   57MOL0     C 7602  10.488   3.051   9.817 -0.4955  0.3161 -0.4283
   57MOL0     C 7603  10.583   3.046   9.702  0.0720 -0.4129 -0.3171
   57MOL0    Cl 7604  10.754   3.023   9.767  0.0211  0.0489 -0.2250
   57MOL0     C 7605   9.563   2.765   9.476  0.7789  0.8454  0.2376
   57MOL0     C 7606   9.448   2.800   9.419  0.7799  0.6748 -0.6627
   57MOL0     O 7607   9.335   2.901   9.062  0.2699 -0.0400  0.4360
   57MOL0     C 7608   9.023   2.803   9.194 -0.1122 -0.4318  0.3517
   57MOL0     C 7609   8.888   2.811   9.171  0.9567 -0.0951 -0.0929
   57MOL0     N 7610   8.160   3.196   8.980 -0.4019 -0.0236 -0.1018
   57MOL0     N 7611   8.073   3.238   8.890  0.1916 -0.0922 -0.8561
   57MOL0     C 7612   8.376   2.416   8.115 -0.1641  0.8117  0.8134
   57MOL0     C 7613   8.315   2.291   8.101 -0.6552  0.8007  0.0323
   57MOL0     C 7614   8.095   1.947   7.906  0.6360  0.1979 -0.2261
   57MOL0     C 7615   7.989   1.934   7.812  0.0406  0.6320 -0.0036
   57MOL0     C 7616   7.927   1.805   7.790 -0.6832 -0.0294 -0.5216
   57MOL0     C 7617   7.977   1.692   7.861  0.1338  0.4691 -0.1701
   57MOL0     O 7618   7.897   1.592   7.819 -0.1078  0.7583 -0.7569
   57MOL0     C 7619   7.938   1.472   7.879  0.6036 -0.6890 -0.7192
   57MOL0     C 7620   7.853   1.362   7.830 -0.4140  0.3818 -0.4987
   57MOL0     C 7621   7.899   1.226   7.880  0.2117 -0.4661 -0.7238
   57MOL0     C 7622   7.830   1.099   7.823 -1.0779 -0.4442 -0.6050
   57MOL0     C 7623   7.926   0.990   7.848 -0.2090  0.9471  1.1348
   57MOL0     C 7624   8.001   0.895   7.866 -0.0022 -0.3005 -0.3468
   57MOL0     C 7625   8.069   1.705   7.963 -0.5476  0.0903 -0.6686
   57MOL0     C 7626   8.128   1.830   7.989  0.1415  0.2279  0.5478
   57MOL0     C 7627   8.222   1.838   8.104 -0.0795 -0.5773 -0.0058
   57MOL0     H 7628   8.045   2.388   7.925 -0.4254 -1.5536  0.5234
   57MOL0     H 7629   8.141   2.614   7.980 -1.6134 -1.6300 -0.9252
   57MOL0     H 7630   8.472   2.606   8.247 -0.6594 -1.4372 -1.1153
   57MOL0     H 7631   8.568   2.669   8.116 -0.4003  0.1649  0.1854
   57MOL0     H 7632   8.510   2.906   8.199 -3.3685  2.5771  1.2518
   57MOL0     H 7633   8.555   2.812   8.339 -0.6397  2.2629  2.0313
   57MOL0     H 7634   8.307   2.773   8.393  1.2992 -0.1150  1.0001
   57MOL0     H 7635   8.254   2.840   8.242 -0.0575 -1.5240  1.3993
   57MOL0     H 7636   8.425   2.971   8.456  1.6602 -0.2499 -0.4080
   57MOL0     H 7637   8.390   3.051   8.303 -1.5210  1.5362  0.3833
   57MOL0     H 7638   8.150   3.050   8.357 -0.3103 -1.0455 -0.4742
   57MOL0     H 7639   8.184   2.971   8.510  2.5978 -1.2486  0.0631
   57MOL0     H 7640   8.303   3.146   8.606 -0.1552 -3.9306 -1.3193
   57MOL0     H 7641   8.304   3.239   8.456  1.0270 -0.0942  0.0402
   57MOL0     H 7642   8.060   3.275   8.469  0.9219 -0.7302 -1.1757
   57MOL0     H 7643   8.134   3.333   8.622  0.9068  0.2856  0.5778
   57MOL0     H 7644   7.933   3.211   8.685 -0.4300 -1.4611  1.2536
   57MOL0     H 7645   8.011   3.060   8.616 -0.5281 -1.1759  3.0345
   57MOL0     H 7646   8.216   2.961   8.775 -1.1899  0.2389  0.9167
   57MOL0     H 7647   8.271   3.023   9.141 -2.8502  0.6049 -0.1703
   57MOL0     H 7648   8.279   2.888   9.031 -3.8913  0.8423  0.7534
   57MOL0     H 7649   8.489   3.108   9.030 -0.0903 -0.6754  0.7774
   57MOL0     H 7650   8.510   2.949   9.103 -0.0115  0.6552  1.1369
   57MOL0     H 7651   8.492   3.004   8.809  1.1768  2.1746  1.8003
   57MOL0     H 7652   8.474   2.843   8.880  0.2789 -0.2927 -2.4942
   57MOL0     H 7653   8.714   3.014   8.905 -0.4214  0.4167 -0.0751
   57MOL0     H 7654   8.699   2.864   8.812  0.2626 -0.4589  0.2524
   57MOL0     H 7655   8.908   2.860   8.834 -0.1737  2.1417  0.3535
   57MOL0     H 7656   9.135   2.827   8.872  1.8011 -3.5126  1.0910
   57MOL0     H 7657   9.496   2.683   9.112  0.1995 -1.4362  0.3919
   57MOL0     H 7658   9.712   2.639   9.203 -1.1762 -1.5428  0.3634
   57MOL0     H 7659   9.973   2.655   9.446 -0.4021 -0.4803 -1.0091
   57MOL0     H 7660   9.904   2.803   9.373  1.3522 -1.4827 -1.8256
   57MOL0     H 7661   9.903   2.911   9.586  2.7222  1.6326  1.5329
   57MOL0     H 7662   9.885   2.760   9.669  0.5784  0.3961  0.9697
   57MOL0     H 7663  10.106   2.755   9.702  1.8716  2.4212  1.1722
   57MOL0     H 7664  10.137   2.768   9.518 -2.2505 -1.3198 -0.5343
   57MOL0     H 7665  10.080   2.973   9.730 -0.7911  2.5975 -1.7829
   57MOL0     H 7666  10.135   3.012   9.571 -0.7620 -0.8370 -0.4222
   57MOL0     H 7667  10.368   2.901   9.635 -0.1875  0.1942 -0.4499
   57MOL0     H 7668  10.286   2.858   9.784 -0.5791  2.4898  2.2135
   57MOL0     H 7669  10.318   3.152   9.703  0.5315 -0.9614 -1.6291
   57MOL0     H 7670  10.281   3.078   9.856  1.4562  1.0966  0.7419
   57MOL0     H 7671  10.497   2.959   9.875 -4.1874 -0.2200 -0.4469
   57MOL0     H 7672  10.510   3.135   9.883 -0.8749  0.4946 -0.5247
   57MOL0     H 7673  10.551   2.975   9.625 -0.7316  0.4525 -0.8003
   57MOL0     H 7674  10.580   3.146   9.659 -3.8243  0.8836  2.4033
   57MOL0     H 7675   9.579   2.784   9.582 -0.4166 -1.1989  0.8317
   57MOL0     H 7676   9.371   2.838   9.486  0.1925 -2.1644  0.4375
   57MOL0     H 7677   9.049   2.783   9.298  2.3383 -2.1420 -0.4892
   57MOL0     H 7678   8.828   2.785   9.258  1.9064  0.7028  0.8219
   57MOL0     H 7679   8.480   2.421   8.145  0.1309 -1.5926  0.4025
   57MOL0     H 7680   8.381   2.211   8.132 -1.0258  0.7143  0.6174
   57MOL0     H 7681   7.957   2.020   7.753 -2.2864 -1.6303 -2.2819
   57MOL0     H 7682   7.854   1.820   7.711  0.2453  4.0295 -0.8812
   57MOL0     H 7683   7.935   1.474   7.989  0.9693  0.0782 -0.7176
   57MOL0     H 7684   8.045   1.452   7.863  1.0641 -1.8849  2.8489
   57MOL0     H 7685   7.853   1.351   7.721  0.2859  2.3735 -0.7286
   57MOL0     H 7686   7.751   1.383   7.863  0.6165  0.7364  2.8661
   57MOL0     H 7687   7.893   1.226   7.989 -1.7358  1.0823 -0.7705
   57MOL0     H 7688   8.005   1.224   7.852  0.0892  2.6787 -1.8391
   57MOL0     H 7689   7.742   1.071   7.882 -0.1582 -0.9979  0.5519
   57MOL0     H 7690   7.807   1.113   7.717  2.7718  2.8896 -1.2497
   57MOL0     H 7691   8.067   0.810   7.874  0.3047 -0.1638 -1.3084
   57MOL0     H 7692   8.107   1.625   8.024 -0.7533 -0.0036 -0.6631
   57MOL0     H 7693   8.172   1.906   8.173 -1.2522  1.5166 -2.7085
   57MOL0     H 7694   8.244   1.742   8.150  0.8663  0.0001  0.7838
   57MOL0     H 7695   8.309   1.887   8.058 -0.2532 -0.9069 -0.7074
   58MOL0     O 7696   5.918   5.370   0.830  0.0200 -0.0277  0.6065
   58MOL0     C 7697   5.959   5.299   0.918 -1.0903 -0.1990 -0.2181
   58MOL0     O 7698   5.880   5.226   0.996 -0.0342 -0.3173  0.1744
   58MOL0     C 7699   5.744   5.215   0.979 -0.7291  0.5477  0.3496
   58MOL0     C 7700   5.659   5.325   0.974 -0.2847  0.2488  0.3890
   58MOL0     C 7701   5.517   5.301   0.961  0.2922 -0.2929  0.1533
   58MOL0     C 7702   5.460   5.173   0.944  0.5444  0.7414 -0.2278
   58MOL0     O 7703   5.320   5.149   0.931 -0.6525  0.0948 -0.5131
   58MOL0     C 7704   5.237   5.269   0.898 -1.0776  0.9774  0.6414
   58MOL0     C 7705   5.095   5.200   0.871  0.0427  0.3725  0.5135
   58MOL0     C 7706   5.002   5.301   0.810 -0.3383 -1.1625 -0.9327
   58MOL0     C 7707   4.865   5.261   0.841  0.5154 -0.1137 -0.6386
   58MOL0     C 7708   4.773   5.358   0.760 -0.1306  0.8663  0.0747
   58MOL0     C 7709   4.636   5.349   0.825 -0.3550  0.0915  0.3020
   58MOL0     C 7710   4.525   5.437   0.773  0.1404 -0.8204 -0.4947
   58MOL0     C 7711   4.489   5.400   0.630  0.0809  0.2778 -0.5693
   58MOL0     N 7712   4.373   5.485   0.601 -0.1325 -0.1635 -0.3246
   58MOL0     C 7713   4.250   5.484   0.672 -0.0943 -0.0303  0.6534
   58MOL0     C 7714   4.176   5.575   0.600 -0.5625  0.5219 -0.2314
   58MOL0     C 7715   4.028   5.602   0.621  0.3471  0.1389  0.2203
   58MOL0     C 7716   3.953   5.667   0.501 -0.0916  0.6527  0.1014
   58MOL0     C 7717   3.801   5.688   0.525  0.2402  0.8190  0.0607
   58MOL0     C 7718   3.735   5.726   0.389  0.0139 -0.8280 -0.7320
   58MOL0     O 7719   3.754   5.620   0.296 -0.4026  0.0845  0.1850
   58MOL0     C 7720   3.720   5.660   0.168 -0.6732 -0.1689  0.2887
   58MOL0     C 7721   3.811   5.648   0.067  0.5715 -0.2574 -0.1041
   58MOL0     C 7722   3.787   5.706  -0.060  0.2729 -0.0940 -0.0289
   58MOL0     C 7723   3.654   5.751  -0.089  0.3649  0.5046 -0.2827
   58MOL0     C 7724   3.621   5.816  -0.217 -0.6084 -0.0326  0.2467
   58MOL0     O 7725   3.717   5.822  -0.311  0.1607  0.3112  0.4624
   58MOL0     C 7726   3.680   5.832  -0.441  0.1382  0.7454  0.0340
   58MOL0     C 7727   3.665   5.718  -0.519 -0.0398  0.2803  0.2310
   58MOL0     C 7728   3.622   5.733  -0.656 -1.3377 -0.7319 -0.9542
   58MOL0     C 7729   3.595   5.861  -0.708 -0.1104 -0.2733 -0.5068
   58MOL0     O 7730   3.540   5.888  -0.825  0.2703 -0.9372  0.0760
   58MOL0     C 7731   3.486   5.790  -0.905  0.7095 -0.5045  0.2796
   58MOL0     C 7732   3.467   5.860  -1.045 -0.4988 -0.0564 -0.6139
   58MOL0     C 7733   3.357   5.967  -1.043 -0.5085 -0.3054  0.2943
   58MOL0     C 7734   3.325   6.036  -1.183 -0.8481  1.0003  0.1792
   58MOL0     C 7735   3.239   6.161  -1.158  0.1106 -0.2136 -0.1977
   58MOL0     C 7736   3.159   6.171  -1.285  0.5318 -0.3816 -0.6657
   58MOL0     C 7737   3.079   6.304  -1.282  0.0654 -0.4876  0.2508
   58MOL0     C 7738   2.974   6.310  -1.389  1.1579 -0.0109  0.0345
   58MOL0    Cl 7739   2.877   6.460  -1.398 -0.0511 -0.2393  0.3816
   58MOL0     C 7740   3.612   5.982  -0.611  0.7001  0.1978  0.8246
   58MOL0     C 7741   3.650   5.962  -0.487 -0.3438  0.3407  0.3665
   58MOL0     O 7742   3.504   5.861  -0.228 -0.1533  0.0505 -1.0443
   58MOL0     C 7743   3.548   5.725   0.006 -0.2254 -0.9029 -0.0870
   58MOL0     C 7744   3.583   5.679   0.130 -0.1545 -0.1372 -0.1822
   58MOL0     N 7745   4.255   5.642   0.503  0.5352  0.4211  0.8039
   58MOL0     N 7746   4.374   5.590   0.506 -0.5964 -0.3017  0.1040
   58MOL0     C 7747   5.549   5.066   0.964  0.0678  0.2295 -0.2919
   58MOL0     C 7748   5.687   5.089   0.981  0.2361 -0.4051  0.9182
   58MOL0     C 7749   6.105   5.262   0.939 -0.9389  0.3967  0.1748
   58MOL0     C 7750   6.140   5.164   1.040 -0.7671  0.9649 -0.7750
   58MOL0     C 7751   6.276   5.137   1.079  0.4376 -0.1481  0.9835
   58MOL0     C 7752   6.382   5.196   1.012  0.2477 -0.0307 -0.2137
   58MOL0     O 7753   6.511   5.161   1.053 -0.6936  0.1814  0.1450
   58MOL0     C 7754   6.629   5.202   0.980  1.1164  0.4367 -0.1921
   58MOL0     C 7755   6.758   5.138   1.040 -0.0356 -1.2310  0.1028
   58MOL0     C 7756   6.770   4.985   1.025 -1.0651  0.6586  0.7343
   58MOL0     C 7757   6.913   4.932   1.011 -0.3484  0.1221 -0.4868
   58MOL0     C 7758   6.943   4.858   0.886 -0.0060  0.0178 -0.6667
   58MOL0     C 7759   6.971   4.795   0.784 -0.5983 -0.2157 -0.4088
   58MOL0     C 7760   6.354   5.278   0.909  0.3250 -1.0685  0.1940
   58MOL0     C 7761   6.226   5.314   0.877  0.0315 -0.0649  0.1607
   58MOL0     C 7762   6.211   5.423   0.767  0.2566  0.4824 -0.2090
   58MOL0     H 7763   5.679   5.431   0.982 -0.2720  0.1074  4.2841
   58MOL0     H 7764   5.449   5.385   0.957 -0.8106 -1.2002 -0.9362
   58MOL0     H 7765   5.218   5.339   0.979 -2.4758  0.2388  0.9993
   58MOL0     H 7766   5.277   5.315   0.808  0.7218  0.8598  1.3398
   58MOL0     H 7767   5.059   5.160   0.967 -3.2571 -0.3861 -0.8886
   58MOL0     H 7768   5.122   5.123   0.799 -2.7473  2.4083 -3.0536
   58MOL0     H 7769   5.014   5.326   0.704  2.6735 -2.2242 -0.9445
   58MOL0     H 7770   5.023   5.394   0.863 -0.6413  0.3702 -3.3273
   58MOL0     H 7771   4.853   5.157   0.811  1.6725  0.2310 -2.4314
   58MOL0     H 7772   4.846   5.253   0.949  0.6751  1.3874 -0.4719
   58MOL0     H 7773   4.807   5.461   0.765 -1.4806  1.5411 -2.7883
   58MOL0     H 7774   4.767   5.334   0.653  2.8819  1.8604 -0.4086
   58MOL0     H 7775   4.602   5.246   0.810  1.6761 -0.7876  1.2554
   58MOL0     H 7776   4.634   5.362   0.934  0.1946  0.0173  0.3257
   58MOL0     H 7777   4.547   5.543   0.788 -1.9512 -0.2019 -1.3495
   58MOL0     H 7778   4.445   5.420   0.846  2.5419 -0.8660  2.3504
   58MOL0     H 7779   4.569   5.415   0.558 -1.4709 -2.8541 -3.2081
   58MOL0     H 7780   4.447   5.299   0.627 -0.9364  0.6470  0.3849
   58MOL0     H 7781   4.214   5.417   0.749 -0.6458 -0.6499 -0.1237
   58MOL0     H 7782   3.982   5.505   0.641  3.9874 -1.5782  1.2039
   58MOL0     H 7783   4.005   5.666   0.707 -1.8129  1.2768 -1.1438
   58MOL0     H 7784   3.990   5.764   0.465 -2.0985  1.8744  1.1497
   58MOL0     H 7785   3.967   5.599   0.416  0.1112 -1.1626  1.5476
   58MOL0     H 7786   3.793   5.756   0.611  0.8572  0.0831  0.7166
   58MOL0     H 7787   3.757   5.597   0.567  2.6475  0.8046  2.9175
   58MOL0     H 7788   3.789   5.813   0.349  1.0646 -1.5220 -0.8656
   58MOL0     H 7789   3.630   5.756   0.395  0.3684  0.2782  0.6672
   58MOL0     H 7790   3.909   5.612   0.098  0.5348  0.3715  0.7876
   58MOL0     H 7791   3.859   5.716  -0.141 -0.5358  1.7157 -0.5859
   58MOL0     H 7792   3.688   5.622  -0.473  2.6547 -0.2141 -1.8624
   58MOL0     H 7793   3.623   5.658  -0.734 -1.6383  2.6005 -4.5032
   58MOL0     H 7794   3.535   5.695  -0.929 -0.4637 -1.1195  0.2515
   58MOL0     H 7795   3.390   5.775  -0.856 -0.0320  0.3896 -0.8561
   58MOL0     H 7796   3.560   5.914  -1.067  0.2154 -1.1951 -0.4567
   58MOL0     H 7797   3.447   5.785  -1.123 -0.3275 -1.7608  0.9265
   58MOL0     H 7798   3.261   5.925  -1.012 -1.0997  0.4690 -0.4309
   58MOL0     H 7799   3.391   6.050  -0.979 -1.8371  0.0157  0.6109
   58MOL0     H 7800   3.270   5.953  -1.228 -3.8393  1.0021  3.3910
   58MOL0     H 7801   3.415   6.046  -1.243  0.4549 -4.4617  0.6953
   58MOL0     H 7802   3.299   6.251  -1.144 -1.1599  1.0380 -2.3277
   58MOL0     H 7803   3.182   6.137  -1.067  0.9313 -0.2932  0.3036
   58MOL0     H 7804   3.235   6.178  -1.364  2.7766 -0.1610  1.3927
   58MOL0     H 7805   3.087   6.089  -1.298 -1.8937  1.8975 -2.6978
   58MOL0     H 7806   3.141   6.392  -1.300 -0.3592 -0.8984 -4.5084
   58MOL0     H 7807   3.046   6.329  -1.181  2.6992 -0.2380  1.1163
   58MOL0     H 7808   3.022   6.295  -1.486  0.7003 -0.6123 -0.1050
   58MOL0     H 7809   2.902   6.228  -1.377  2.5466 -1.4770 -1.2034
   58MOL0     H 7810   3.603   6.087  -0.637  1.3919  0.5959  2.0908
   58MOL0     H 7811   3.658   6.041  -0.413 -0.7594 -0.1869  0.9893
   58MOL0     H 7812   3.448   5.748  -0.027  0.3316 -0.7316 -1.7324
   58MOL0     H 7813   3.519   5.657   0.215 -1.0374  3.5938  0.2912
   58MOL0     H 7814   5.505   4.968   0.976 -1.2366  0.6625 -1.2918
   58MOL0     H 7815   5.756   5.013   1.016  1.2288 -0.1559 -0.4287
   58MOL0     H 7816   6.063   5.117   1.099 -0.5921 -1.3331 -2.2671
   58MOL0     H 7817   6.285   5.060   1.155 -2.2389  0.1888  1.7329
   58MOL0     H 7818   6.645   5.309   0.995  4.8254  0.2698 -1.8057
   58MOL0     H 7819   6.613   5.182   0.873  0.0777  1.9345 -0.3469
   58MOL0     H 7820   6.772   5.161   1.146 -2.0703 -1.4642  0.4541
   58MOL0     H 7821   6.832   5.193   0.982 -2.2453  0.6779 -1.0843
   58MOL0     H 7822   6.719   4.971   0.929  1.3670 -1.2358 -0.4219
   58MOL0     H 7823   6.711   4.924   1.093 -0.3333  1.3380  2.0290
   58MOL0     H 7824   6.987   5.012   1.022 -2.0920  1.8674 -0.8074
   58MOL0     H 7825   6.939   4.875   1.100  5.5641  2.4024 -0.3351
   58MOL0     H 7826   6.996   4.756   0.688  0.7351 -0.3156 -0.0346
   58MOL0     H 7827   6.424   5.337   0.852 -0.5902  2.8571  2.7076
   58MOL0     H 7828   6.309   5.468   0.750  1.7536 -1.9171  1.3215
   58MOL0     H 7829   6.171   5.388   0.671 -1.9891 -0.5310  1.0149
   58MOL0     H 7830   6.150   5.506   0.803 -0.0371 -0.4254  1.4659
   59MOL0     O 7831   0.626   9.539   5.960 -0.3409 -0.2126  0.3243
   59MOL0     C 7832   0.532   9.526   5.886  0.4254  0.9759 -0.0804
   59MOL0     O 7833   0.534   9.494   5.753  0.1335  0.6685 -1.0241
   59MOL0     C 7834   0.658   9.460   5.708  0.4849  0.0897 -0.5291
   59MOL0     C 7835   0.708   9.332   5.715  1.4252 -0.3471  0.2178
   59MOL0     C 7836   0.822   9.293   5.642 -0.2070  0.0605 -0.0332
   59MOL0     C 7837   0.907   9.387   5.577 -0.7993  0.5171 -0.1722
   59MOL0     O 7838   1.024   9.344   5.514  0.0730 -0.6470  0.6430
   59MOL0     C 7839   1.024   9.350   5.372  0.2868  0.3896  0.5500
   59MOL0     C 7840   1.169   9.325   5.322  0.7856 -0.3463  0.6212
   59MOL0     C 7841   1.246   9.452   5.360  0.1275  1.0584 -0.6259
   59MOL0     C 7842   1.384   9.447   5.280 -0.2454 -0.4466  0.8519
   59MOL0     C 7843   1.475   9.565   5.331  0.3387  1.1214  0.4864
   59MOL0     C 7844   1.609   9.588   5.273 -0.6452 -0.1190 -0.1012
   59MOL0     C 7845   1.602   9.593   5.118  0.0675  0.0052 -0.4029
   59MOL0     C 7846   1.736   9.602   5.047 -0.4495 -0.6067 -0.4601
   59MOL0     N 7847   1.806   9.733   5.062  0.4182  0.9268 -0.2026
   59MOL0     C 7848   1.795   9.845   4.981  0.1009 -1.0656 -0.2116
   59MOL0     C 7849   1.900   9.924   5.038 -0.0311  0.3075  0.2563
   59MOL0     C 7850   1.935  10.061   5.001 -0.7558 -0.5712  0.2985
   59MOL0     C 7851   2.050  10.075   4.896 -0.0954 -0.2891  0.3301
   59MOL0     C 7852   2.078  10.224   4.863  0.3233  0.1033  0.3996
   59MOL0     C 7853   2.209  10.250   4.788 -0.3675  0.1127  0.2883
   59MOL0     O 7854   2.249  10.383   4.761 -0.3551  1.1395 -0.2169
   59MOL0     C 7855   2.385  10.405   4.732 -0.6651 -1.0691 -0.9882
   59MOL0     C 7856   2.488  10.309   4.729  0.4963 -0.0599 -0.6988
   59MOL0     C 7857   2.612  10.343   4.678 -0.0689 -0.5469 -0.0102
   59MOL0     C 7858   2.637  10.470   4.631  0.3066 -0.6197 -0.4469
   59MOL0     C 7859   2.772  10.513   4.570 -0.1224  0.2883  0.5990
   59MOL0     O 7860   2.795  10.643   4.550  0.7936 -0.4192  0.5207
   59MOL0     C 7861   2.929  10.675   4.523 -0.2783  0.3408  0.4111
   59MOL0     C 7862   2.974  10.702   4.393  0.0420  0.0834 -0.6296
   59MOL0     C 7863   3.108  10.734   4.374 -0.2468 -0.0136 -0.0530
   59MOL0     C 7864   3.209  10.708   4.465 -0.5089 -0.1358 -0.3172
   59MOL0     O 7865   3.343  10.707   4.439 -0.2316  0.0748  0.0981
   59MOL0     C 7866   3.413  10.830   4.462 -0.7244  0.3369  0.7709
   59MOL0     C 7867   3.529  10.839   4.364 -0.1302 -0.1311 -0.2808
   59MOL0     C 7868   3.634  10.732   4.380 -0.0976  0.4344  0.0821
   59MOL0     C 7869   3.752  10.759   4.287  0.2664 -0.3940  0.3489
   59MOL0     C 7870   3.839  10.631   4.272  0.1757 -0.2366  0.8525
   59MOL0     C 7871   3.946  10.659   4.160 -0.4423  1.4473 -0.1494
   59MOL0     C 7872   4.067  10.747   4.219  0.6973  0.6360  0.3291
   59MOL0     C 7873   4.175  10.745   4.106  0.2144  0.4550  0.7743
   59MOL0    Cl 7874   4.149  10.863   3.977  0.0180 -0.3556  0.7300
   59MOL0     C 7875   3.165  10.675   4.593  0.4234  0.4058 -0.5042
   59MOL0     C 7876   3.028  10.676   4.624  0.8340 -0.1686  0.4475
   59MOL0     O 7877   2.852  10.421   4.547 -1.1044 -0.3787 -0.6429
   59MOL0     C 7878   2.538  10.571   4.647  0.5055 -0.5606 -0.1192
   59MOL0     C 7879   2.414  10.540   4.687 -0.9434 -0.0952 -1.1642
   59MOL0     N 7880   1.968   9.848   5.130 -0.4972 -0.6248  0.1014
   59MOL0     N 7881   1.903   9.741   5.157 -0.2543 -0.4375 -0.0557
   59MOL0     C 7882   0.862   9.520   5.579  0.1983 -0.0080  0.8475
   59MOL0     C 7883   0.742   9.555   5.645  0.5161  0.2033  0.3325
   59MOL0     C 7884   0.406   9.519   5.957 -0.4356 -0.3619 -0.2693
   59MOL0     C 7885   0.391   9.609   6.066 -0.0444 -0.6156 -0.6593
   59MOL0     C 7886   0.266   9.617   6.128 -1.0280  0.7974  0.5110
   59MOL0     C 7887   0.163   9.531   6.093  1.5273 -1.1024 -0.5010
   59MOL0     O 7888   0.037   9.532   6.150 -0.0974  0.5614 -0.8554
   59MOL0     C 7889   0.015   9.587   6.282  0.8192  0.9761  0.4509
   59MOL0     C 7890  -0.137   9.596   6.306 -0.3623 -0.2877  0.4561
   59MOL0     C 7891  -0.161   9.639   6.446  0.1942  0.1456 -0.9167
   59MOL0     C 7892  -0.308   9.663   6.479  0.4077  0.1908 -0.4923
   59MOL0     C 7893  -0.369   9.780   6.417  0.3143  0.4052  0.2617
   59MOL0     C 7894  -0.409   9.881   6.364  0.0105  0.6714 -0.3133
   59MOL0     C 7895   0.170   9.451   5.992 -0.9405 -0.5953 -0.0801
   59MOL0     C 7896   0.291   9.436   5.923 -0.1992 -1.1381  0.3824
   59MOL0     C 7897   0.286   9.356   5.799 -0.4811  0.1521 -1.0687
   59MOL0     H 7898   0.648   9.255   5.763 -0.3348  0.2687 -0.9015
   59MOL0     H 7899   0.852   9.189   5.634 -0.8863 -0.1165 -0.3464
   59MOL0     H 7900   0.965   9.265   5.336  3.0148 -2.0134  1.4214
   59MOL0     H 7901   0.991   9.444   5.326 -0.8336  2.0164  4.2754
   59MOL0     H 7902   1.176   9.290   5.219  0.4144  0.0259  0.4682
   59MOL0     H 7903   1.215   9.242   5.377 -2.5592 -2.0804  1.1148
   59MOL0     H 7904   1.263   9.436   5.467 -2.3435  0.1211 -0.2938
   59MOL0     H 7905   1.182   9.540   5.348  0.1723  1.1448 -0.2548
   59MOL0     H 7906   1.442   9.355   5.291 -2.8825 -2.2157  1.0543
   59MOL0     H 7907   1.353   9.462   5.176 -0.2481 -3.0904  0.3899
   59MOL0     H 7908   1.414   9.655   5.317 -1.3958  0.2233  1.8897
   59MOL0     H 7909   1.474   9.544   5.438  1.1539 -3.6992 -0.2354
   59MOL0     H 7910   1.661   9.678   5.308  0.2972 -0.9437  0.7063
   59MOL0     H 7911   1.676   9.503   5.292  0.1677  0.1439 -1.5677
   59MOL0     H 7912   1.546   9.683   5.093 -0.6538 -0.0944  0.7937
   59MOL0     H 7913   1.553   9.502   5.083  0.9024 -0.4518 -0.4159
   59MOL0     H 7914   1.809   9.533   5.091  0.5861  1.6773  1.6070
   59MOL0     H 7915   1.711   9.577   4.943 -3.6494 -2.5111  0.6336
   59MOL0     H 7916   1.729   9.877   4.901  1.4804  1.5801 -0.3683
   59MOL0     H 7917   1.846  10.113   4.966  0.2724  2.5017  1.8748
   59MOL0     H 7918   1.970  10.123   5.084  1.6342  2.1319 -2.4690
   59MOL0     H 7919   2.143  10.028   4.928  2.4291  2.6414 -1.9583
   59MOL0     H 7920   2.022  10.021   4.804  1.7777 -1.0869  0.1883
   59MOL0     H 7921   2.075  10.273   4.960 -3.0961 -0.9434  0.9440
   59MOL0     H 7922   1.989  10.263   4.814 -0.0493  1.0063  1.7311
   59MOL0     H 7923   2.209  10.195   4.693  0.4810  0.2797  0.1818
   59MOL0     H 7924   2.285  10.205   4.852 -0.9994 -0.4224  0.6777
   59MOL0     H 7925   2.475  10.208   4.765  0.4893  1.5167  4.6073
   59MOL0     H 7926   2.683  10.261   4.676  0.6509  0.0729 -0.4835
   59MOL0     H 7927   2.900  10.727   4.317 -0.9288 -1.2922 -0.1735
   59MOL0     H 7928   3.147  10.775   4.281 -0.4507  0.0997 -0.0908
   59MOL0     H 7929   3.352  10.921   4.455  1.4981  1.7425 -2.2233
   59MOL0     H 7930   3.462  10.834   4.560  2.0076 -0.7672 -0.4488
   59MOL0     H 7931   3.494  10.849   4.261 -1.1038  1.7623  0.1887
   59MOL0     H 7932   3.586  10.930   4.388  0.1456  0.2767 -2.3456
   59MOL0     H 7933   3.657  10.723   4.487 -1.0913  2.9889  0.5781
   59MOL0     H 7934   3.582  10.638   4.357  2.0023 -0.1608 -2.8438
   59MOL0     H 7935   3.815  10.842   4.323  0.9706 -0.1492 -1.3575
   59MOL0     H 7936   3.715  10.788   4.189  0.8661  1.3640  0.6003
   59MOL0     H 7937   3.765  10.554   4.245  0.1269 -0.0310  0.3988
   59MOL0     H 7938   3.887  10.604   4.367  1.7949  1.4336  0.5536
   59MOL0     H 7939   3.982  10.561   4.127  0.3045  0.8191  2.3021
   59MOL0     H 7940   3.916  10.727   4.081  2.2612  1.5918 -1.1313
   59MOL0     H 7941   4.115  10.694   4.302  1.0661  0.5850  0.0833
   59MOL0     H 7942   4.033  10.847   4.245 -1.1848  0.4828 -1.3403
   59MOL0     H 7943   4.272  10.765   4.152  1.5798  1.4676 -2.2961
   59MOL0     H 7944   4.183  10.648   4.057  1.7505 -0.7076  3.1137
   59MOL0     H 7945   3.231  10.680   4.679 -2.8870 -0.1755  2.3384
   59MOL0     H 7946   2.989  10.656   4.723  2.8532 -2.5455  0.8757
   59MOL0     H 7947   2.542  10.665   4.593 -3.2078  0.5386  1.2060
   59MOL0     H 7948   2.346  10.625   4.690  0.0031  0.6983  1.5000
   59MOL0     H 7949   0.929   9.594   5.536 -2.1061  1.3834 -0.5603
   59MOL0     H 7950   0.721   9.662   5.650  1.9892  0.5446 -0.1428
   59MOL0     H 7951   0.476   9.667   6.100 -1.0200  0.5540 -0.1213
   59MOL0     H 7952   0.267   9.679   6.218  3.6966 -1.3909  2.2697
   59MOL0     H 7953   0.055   9.688   6.274  0.1280  1.0997 -2.8398
   59MOL0     H 7954   0.068   9.530   6.359  0.0747  0.8119  0.8606
   59MOL0     H 7955  -0.178   9.495   6.299  0.3842 -0.5597 -0.0298
   59MOL0     H 7956  -0.176   9.659   6.226 -0.9497  1.4663  2.0494
   59MOL0     H 7957  -0.099   9.726   6.468  3.6199 -2.0177 -1.2974
   59MOL0     H 7958  -0.117   9.563   6.512 -0.9362 -0.7117 -1.1053
   59MOL0     H 7959  -0.362   9.577   6.436  0.6857  0.2041 -0.8701
   59MOL0     H 7960  -0.332   9.661   6.585 -1.9332 -2.4592 -0.9354
   59MOL0     H 7961  -0.437   9.967   6.306 -0.1471 -0.1188 -1.4340
   59MOL0     H 7962   0.083   9.394   5.960 -0.2680 -0.9908 -1.2664
   59MOL0     H 7963   0.295   9.421   5.712 -0.9436 -1.1937 -2.1536
   59MOL0     H 7964   0.377   9.296   5.785 -1.5761 -1.5579 -1.2469
   59MOL0     H 7965   0.189   9.305   5.791 -1.3074  0.9973  1.9847
   60MOL0     O 7966  11.234   1.792   8.581  0.0070  0.2892 -1.1007
   60MOL0     C 7967  11.240   1.669   8.604  0.0210  0.4633  0.0802
   60MOL0     O 7968  11.342   1.610   8.678  0.4826  0.2662  0.0971
   60MOL0     C 7969  11.469   1.659   8.696  0.2822  0.3737  0.1560
   60MOL0     C 7970  11.528   1.607   8.807  0.4629  0.8226  0.9576
   60MOL0     C 7971  11.667   1.638   8.838  0.2349  0.6430 -0.7573
   60MOL0     C 7972  11.741   1.719   8.747  0.4346  0.0215 -0.1384
   60MOL0     O 7973  11.865   1.758   8.778 -0.8748 -0.5162 -0.6460
   60MOL0     C 7974  11.955   1.784   8.678  0.1676  0.4560  0.1826
   60MOL0     C 7975  12.088   1.802   8.747  0.3339  0.2005 -0.0425
   60MOL0     C 7976  12.085   1.933   8.824  0.3157 -0.2990  0.2789
   60MOL0     C 7977  12.225   2.001   8.816  0.5092 -0.0823 -0.1537
   60MOL0     C 7978  12.210   2.122   8.903  1.0015  0.6786 -0.1013
   60MOL0     C 7979  12.346   2.203   8.884  0.5822  0.3237 -0.3578
   60MOL0     C 7980  12.381   2.301   8.999  0.1183 -0.7894  0.0474
   60MOL0     C 7981  12.517   2.374   8.971  0.0312  0.4943 -1.1904
   60MOL0     N 7982  12.560   2.449   9.086  0.1861 -1.2627 -0.2670
   60MOL0     C 7983  12.525   2.578   9.111  0.3944  0.5477  0.4239
   60MOL0     C 7984  12.581   2.610   9.233 -0.7095 -0.5757 -0.1184
   60MOL0     C 7985  12.568   2.747   9.296  0.8720  0.1417  0.7063
   60MOL0     C 7986  12.704   2.792   9.350 -0.0994 -0.0052  0.2892
   60MOL0     C 7987  12.682   2.917   9.448 -0.0702 -0.3859  0.3833
   60MOL0     C 7988  12.810   2.956   9.516 -0.7616 -0.9480 -0.7606
   60MOL0     O 7989  12.803   3.097   9.561  0.7418  0.0614  0.0957
   60MOL0     C 7990  12.881   3.196   9.506  0.4465  0.1254 -0.0203
   60MOL0     C 7991  12.817   3.320   9.482 -0.8038 -0.3679 -0.3902
   60MOL0     C 7992  12.892   3.426   9.438 -0.3573 -0.1833  1.1336
   60MOL0     C 7993  13.034   3.411   9.414  0.2935 -0.8311  0.8303
   60MOL0     C 7994  13.113   3.525   9.374  0.2113  0.8019 -0.0532
   60MOL0     O 7995  13.227   3.499   9.298  0.0533  0.0941  0.4915
   60MOL0     C 7996  13.278   3.617   9.245 -0.1480  0.0399 -0.5871
   60MOL0     C 7997  13.393   3.667   9.299 -0.1231  0.6550 -1.1742
   60MOL0     C 7998  13.454   3.772   9.236  0.1284  0.0907 -0.1701
   60MOL0     C 7999  13.413   3.840   9.122  0.6120 -0.1839 -0.7509
   60MOL0     O 8000  13.480   3.951   9.081 -0.5165  0.3843  0.5262
   60MOL0     C 8001  13.510   4.050   9.173 -0.6387 -0.8535  0.7854
   60MOL0     C 8002  13.479   4.186   9.104  0.3978  0.0686  0.4532
   60MOL0     C 8003  13.549   4.226   8.964  0.1584 -0.1250 -1.2141
   60MOL0     C 8004  13.697   4.173   8.944 -0.2514 -0.3277  0.8344
   60MOL0     C 8005  13.761   4.222   8.810 -0.9720 -0.5287  0.4497
   60MOL0     C 8006  13.925   4.223   8.824 -0.0474  0.9037  0.3195
   60MOL0     C 8007  13.982   4.220   8.678 -0.3784 -0.4661 -0.6237
   60MOL0     C 8008  14.130   4.226   8.665  0.0602 -0.2804 -0.2585
   60MOL0    Cl 8009  14.200   4.069   8.729 -0.3205 -0.3399  0.3087
   60MOL0     C 8010  13.295   3.786   9.060  0.4718  0.8091 -0.5937
   60MOL0     C 8011  13.233   3.672   9.128 -0.1596 -0.5364 -0.7944
   60MOL0     O 8012  13.048   3.638   9.377 -0.1326  0.1084 -0.3711
   60MOL0     C 8013  13.097   3.281   9.443 -0.3373  0.3704  0.2449
   60MOL0     C 8014  13.018   3.173   9.488  0.1553 -1.6361 -0.0363
   60MOL0     N 8015  12.627   2.492   9.290 -0.2423  0.1512 -0.1288
   60MOL0     N 8016  12.616   2.396   9.196  0.1589  0.3463  0.1911
   60MOL0     C 8017  11.674   1.784   8.647 -0.2497 -0.6940 -0.3265
   60MOL0     C 8018  11.539   1.753   8.616 -0.2012  0.2610 -0.6662
   60MOL0     C 8019  11.112   1.596   8.588 -0.4723  0.1313  0.8426
   60MOL0     C 8020  11.091   1.479   8.664  0.2701 -0.3636 -0.2303
   60MOL0     C 8021  10.986   1.382   8.643 -0.4038 -0.2658 -0.1096
   60MOL0     C 8022  10.898   1.413   8.541 -0.0763 -0.0392  0.3417
   60MOL0     O 8023  10.799   1.329   8.508 -0.2735  0.3061 -1.0647
   60MOL0     C 8024  10.827   1.185   8.509 -0.0338  0.2183 -0.5859
   60MOL0     C 8025  10.709   1.121   8.428 -0.0613  0.5945  0.5552
   60MOL0     C 8026  10.712   1.168   8.284 -1.3478  0.4307  0.3355
   60MOL0     C 8027  10.635   1.083   8.186  0.3683 -0.6121 -0.9696
   60MOL0     C 8028  10.503   1.045   8.234  0.2703  1.2342 -0.3947
   60MOL0     C 8029  10.400   0.989   8.275 -0.2018 -0.1981 -0.0915
   60MOL0     C 8030  10.914   1.523   8.464 -0.0782  0.2263 -0.3442
   60MOL0     C 8031  11.018   1.610   8.480  0.7318  0.0280  0.8985
   60MOL0     C 8032  11.022   1.725   8.385 -0.1656  0.0453 -0.5622
   60MOL0     H 8033  11.470   1.538   8.868  0.5813  0.1296  0.3094
   60MOL0     H 8034  11.723   1.597   8.922  2.9732  1.1100 -2.2443
   60MOL0     H 8035  11.973   1.697   8.615  0.7862  0.8668 -0.2247
   60MOL0     H 8036  11.923   1.871   8.620 -1.1302 -1.1851 -1.7048
   60MOL0     H 8037  12.170   1.804   8.674  1.3412  1.7767  1.0619
   60MOL0     H 8038  12.099   1.722   8.821 -0.6930  1.6929  1.8176
   60MOL0     H 8039  12.040   1.918   8.923 -1.3879  1.7047 -0.1227
   60MOL0     H 8040  12.009   1.998   8.780 -0.0209  0.5849  2.0618
   60MOL0     H 8041  12.302   1.929   8.845  1.9929  0.6164 -2.1246
   60MOL0     H 8042  12.224   2.021   8.708 -3.1750  1.2325 -0.0071
   60MOL0     H 8043  12.123   2.181   8.873  1.7546  2.6282  1.2984
   60MOL0     H 8044  12.203   2.094   9.008  1.6612  2.6457  0.5304
   60MOL0     H 8045  12.425   2.129   8.868 -3.8641 -4.6986 -2.3603
   60MOL0     H 8046  12.337   2.264   8.793 -1.0047  4.3370  2.2407
   60MOL0     H 8047  12.402   2.251   9.094 -1.7268  4.1999  3.5447
   60MOL0     H 8048  12.306   2.379   9.010  2.0615  1.7152 -2.7965
   60MOL0     H 8049  12.591   2.296   8.952 -1.5043 -0.4906 -3.7600
   60MOL0     H 8050  12.504   2.445   8.889 -2.5541  1.1217 -0.3469
   60MOL0     H 8051  12.473   2.644   9.042 -1.8374  0.7844  2.2421
   60MOL0     H 8052  12.529   2.820   9.224  1.0033  0.6017  1.0934
   60MOL0     H 8053  12.497   2.724   9.376 -0.0604  2.3588  0.5981
   60MOL0     H 8054  12.752   2.711   9.406 -0.2578 -1.8182 -2.0517
   60MOL0     H 8055  12.769   2.821   9.268 -1.7559  0.3598 -0.9550
   60MOL0     H 8056  12.612   2.894   9.529  1.2061 -2.4969  0.9702
   60MOL0     H 8057  12.648   3.007   9.397  1.0116  0.4900  1.1740
   60MOL0     H 8058  12.891   2.942   9.444 -1.4542 -2.5520 -1.2599
   60MOL0     H 8059  12.835   2.888   9.597  0.3035 -0.6291 -0.7988
   60MOL0     H 8060  12.709   3.324   9.489 -0.9277  0.5180 -2.1040
   60MOL0     H 8061  12.830   3.512   9.412 -1.0387 -0.3448  2.1717
   60MOL0     H 8062  13.447   3.631   9.386 -0.7081 -0.7556 -1.3728
   60MOL0     H 8063  13.550   3.806   9.275  0.3497  0.1065 -0.7079
   60MOL0     H 8064  13.451   4.039   9.264 -0.2433 -1.2138  1.0030
   60MOL0     H 8065  13.617   4.043   9.197 -0.2477 -1.0457 -0.9088
   60MOL0     H 8066  13.372   4.205   9.094  0.5304  0.6417  0.0473
   60MOL0     H 8067  13.520   4.266   9.166  1.1220  2.9429 -3.3576
   60MOL0     H 8068  13.482   4.210   8.879  0.3819 -2.1329 -1.0531
   60MOL0     H 8069  13.549   4.336   8.963  0.1337 -0.0609  1.3265
   60MOL0     H 8070  13.689   4.063   8.944 -0.7693 -0.2916  0.9014
   60MOL0     H 8071  13.771   4.207   9.016  0.8453  2.1240 -1.2857
   60MOL0     H 8072  13.719   4.320   8.785 -0.8898 -1.3643 -3.5971
   60MOL0     H 8073  13.737   4.158   8.725 -2.5674 -0.1978  0.6159
   60MOL0     H 8074  13.962   4.313   8.874 -1.0943  0.9805  0.9765
   60MOL0     H 8075  13.962   4.133   8.873 -1.4083 -0.1286 -0.4433
   60MOL0     H 8076  13.944   4.308   8.626  2.3858  0.0562 -1.8698
   60MOL0     H 8077  13.942   4.133   8.626 -0.4714  0.3246 -1.9161
   60MOL0     H 8078  14.170   4.250   8.567  0.7876 -0.1141  0.0727
   60MOL0     H 8079  14.164   4.314   8.721  2.1384 -0.6455 -0.8682
   60MOL0     H 8080  13.261   3.842   8.974 -2.4231  0.1620  0.0262
   60MOL0     H 8081  13.146   3.619   9.090  1.2551 -3.6990  0.0614
   60MOL0     H 8082  13.203   3.268   9.420 -0.9256  0.4798 -3.0987
   60MOL0     H 8083  13.061   3.077   9.515  1.5365 -0.7545  1.0476
   60MOL0     H 8084  11.723   1.858   8.584 -0.1449 -1.2282 -0.8784
   60MOL0     H 8085  11.487   1.789   8.528 -0.4465 -2.0385 -1.5508
   60MOL0     H 8086  11.164   1.456   8.741 -0.4644 -1.5868  0.1366
   60MOL0     H 8087  10.989   1.291   8.701  1.8378  0.6497  1.3545
   60MOL0     H 8088  10.831   1.130   8.604 -0.2374 -1.8266 -1.7028
   60MOL0     H 8089  10.921   1.176   8.453 -0.2732  2.2246 -1.3747
   60MOL0     H 8090  10.616   1.158   8.472  0.5486 -0.3118  2.7197
   60MOL0     H 8091  10.702   1.012   8.431  2.2015  0.4000  0.5548
   60MOL0     H 8092  10.813   1.178   8.241 -1.2731 -1.8164 -0.1322
   60MOL0     H 8093  10.672   1.269   8.277 -1.1611  0.4600 -0.4718
   60MOL0     H 8094  10.626   1.144   8.096  0.0194  1.0277  0.1293
   60MOL0     H 8095  10.693   0.994   8.159  1.5175 -0.4986  0.8694
   60MOL0     H 8096  10.319   0.924   8.300 -1.2678  1.1461  0.0493
   60MOL0     H 8097  10.846   1.515   8.380 -0.2816  0.4939 -0.2052
   60MOL0     H 8098  11.068   1.818   8.421  1.8117 -0.6061 -1.2887
   60MOL0     H 8099  11.089   1.692   8.306  0.3749  0.3929 -0.2542
   60MOL0     H 8100  10.929   1.753   8.334  0.2694 -0.5319 -1.6996
   61MOL0     O 8101   5.327   8.527   4.690 -0.6612 -0.0621  1.1028
   61MOL0     C 8102   5.242   8.453   4.731  0.5654  0.0096 -0.4889
   61MOL0     O 8103   5.267   8.330   4.771 -0.0109  0.1551 -0.4890
   61MOL0     C 8104   5.394   8.282   4.766  0.7973 -0.9525 -1.2454
   61MOL0     C 8105   5.446   8.200   4.670  0.8103  0.4914 -0.2333
   61MOL0     C 8106   5.580   8.154   4.677  0.4951 -0.8265  0.7398
   61MOL0     C 8107   5.668   8.195   4.777 -0.1431 -0.3250 -0.4690
   61MOL0     O 8108   5.804   8.171   4.781 -0.3630 -0.7286 -0.6144
   61MOL0     C 8109   5.847   8.117   4.909 -0.1108 -0.2061 -0.7444
   61MOL0     C 8110   5.967   8.031   4.888  0.0829  0.4640  0.5365
   61MOL0     C 8111   6.015   7.939   4.999 -0.2296 -0.9814  0.4582
   61MOL0     C 8112   6.165   7.948   5.037 -0.6863  0.0217 -0.1461
   61MOL0     C 8113   6.193   7.841   5.141  0.9482 -0.6035 -0.5109
   61MOL0     C 8114   6.338   7.831   5.185  0.2756 -0.6012  0.0781
   61MOL0     C 8115   6.378   7.739   5.299 -0.3030 -0.6974 -0.1609
   61MOL0     C 8116   6.399   7.604   5.255  0.2727  0.9992  0.5527
   61MOL0     N 8117   6.406   7.513   5.368  0.5620  0.2428 -0.0214
   61MOL0     C 8118   6.487   7.404   5.375  0.0714  0.4143  0.7001
   61MOL0     C 8119   6.444   7.336   5.482 -1.0548  0.9050 -0.6790
   61MOL0     C 8120   6.513   7.214   5.522  0.6230  1.1144 -0.3445
   61MOL0     C 8121   6.431   7.097   5.472  0.4577  0.1570  0.5413
   61MOL0     C 8122   6.295   7.084   5.533 -0.4354 -0.0962  0.2685
   61MOL0     C 8123   6.290   7.087   5.683  0.4446 -0.0551 -0.3609
   61MOL0     O 8124   6.169   7.021   5.730 -0.0492 -0.3276  0.2096
   61MOL0     C 8125   6.047   7.077   5.688 -0.5701  1.0502 -0.6463
   61MOL0     C 8126   6.036   7.212   5.653 -0.6438  0.0166  0.7170
   61MOL0     C 8127   5.920   7.271   5.610 -0.6623 -0.9546  0.1049
   61MOL0     C 8128   5.804   7.199   5.610 -0.3144  0.1850  0.4765
   61MOL0     C 8129   5.674   7.259   5.588 -0.1227 -1.1314  0.0090
   61MOL0     O 8130   5.681   7.383   5.517  0.3993  0.2048  0.1190
   61MOL0     C 8131   5.565   7.446   5.478 -0.8660  0.2227  1.0020
   61MOL0     C 8132   5.474   7.391   5.384  0.2698 -0.2062  0.6462
   61MOL0     C 8133   5.359   7.454   5.349 -0.1513 -0.1904 -0.0923
   61MOL0     C 8134   5.329   7.584   5.398 -0.1028  0.5805  0.1676
   61MOL0     O 8135   5.220   7.645   5.355  0.4010 -0.1545 -0.0180
   61MOL0     C 8136   5.201   7.781   5.380 -0.2471  0.6578  0.9943
   61MOL0     C 8137   5.075   7.833   5.317  0.2552  0.5975 -1.3605
   61MOL0     C 8138   5.067   7.980   5.346 -0.0067 -0.4517 -0.9120
   61MOL0     C 8139   4.930   8.031   5.303  0.1964  0.7335  0.4043
   61MOL0     C 8140   4.885   8.157   5.376 -0.1470 -0.6193  0.6040
   61MOL0     C 8141   4.778   8.228   5.279  0.2472  0.5738 -0.5429
   61MOL0     C 8142   4.735   8.348   5.353 -0.7108 -0.8614 -0.0663
   61MOL0     C 8143   4.630   8.441   5.280  0.0536  0.2549  0.7589
   61MOL0    Cl 8144   4.720   8.565   5.188  0.0164  0.4540 -0.0751
   61MOL0     C 8145   5.424   7.641   5.494  0.6274  0.3455 -0.1054
   61MOL0     C 8146   5.546   7.580   5.520 -0.4608 -0.2909  0.3775
   61MOL0     O 8147   5.576   7.185   5.607 -0.3029  0.4238 -0.0628
   61MOL0     C 8148   5.807   7.057   5.651 -0.8062 -0.4845 -0.2026
   61MOL0     C 8149   5.933   6.998   5.684  0.0962 -0.0988 -0.7514
   61MOL0     N 8150   6.335   7.395   5.543  0.2827 -0.5006  0.7725
   61MOL0     N 8151   6.312   7.506   5.471  0.1038  0.1225 -0.3452
   61MOL0     C 8152   5.609   8.274   4.882  0.5641  0.0481  0.6196
   61MOL0     C 8153   5.477   8.320   4.876  0.2722 -0.0335  1.0175
   61MOL0     C 8154   5.105   8.505   4.739  0.4056 -0.1224  0.7824
   61MOL0     C 8155   5.008   8.407   4.756  0.0421  0.5360 -0.1285
   61MOL0     C 8156   4.869   8.430   4.758  0.2886  0.3522 -0.1542
   61MOL0     C 8157   4.824   8.562   4.755  0.6480  0.3376  0.1446
   61MOL0     O 8158   4.697   8.593   4.767  0.4873  0.3989  0.7175
   61MOL0     C 8159   4.584   8.505   4.781 -0.9983  0.5312  0.4522
   61MOL0     C 8160   4.487   8.577   4.875 -0.4961 -0.0976  0.1519
   61MOL0     C 8161   4.407   8.690   4.821  0.2441  0.2954 -0.0622
   61MOL0     C 8162   4.351   8.780   4.933  0.1489  0.5777  0.6694
   61MOL0     C 8163   4.289   8.711   5.048 -0.3326  0.4110 -0.2030
   61MOL0     C 8164   4.241   8.660   5.145 -0.7796  0.3942 -0.6201
   61MOL0     C 8165   4.914   8.665   4.736  0.4441 -0.3246  0.0076
   61MOL0     C 8166   5.051   8.640   4.725 -0.3884  0.2928  0.5525
   61MOL0     C 8167   5.149   8.762   4.704  0.7757 -0.0443 -0.0731
   61MOL0     H 8168   5.379   8.174   4.589  0.1537  1.1333  0.0945
   61MOL0     H 8169   5.609   8.096   4.591  1.0992  2.1986 -1.2460
   61MOL0     H 8170   5.867   8.203   4.973  1.4642 -1.4581  0.5232
   61MOL0     H 8171   5.767   8.053   4.948  1.1132 -2.3488 -1.5727
   61MOL0     H 8172   6.052   8.089   4.849 -0.8779  0.4724 -1.7015
   61MOL0     H 8173   5.947   7.955   4.812  1.7201 -0.0072  0.5266
   61MOL0     H 8174   5.993   7.835   4.974  1.7347 -1.7889  1.8082
   61MOL0     H 8175   5.951   7.954   5.086 -0.2461 -0.5544  0.3792
   61MOL0     H 8176   6.246   7.928   4.965 -0.8818 -0.7409 -0.1697
   61MOL0     H 8177   6.204   8.042   5.077  4.0570 -0.5613 -2.5996
   61MOL0     H 8178   6.127   7.873   5.223 -0.0446  2.1984 -2.2459
   61MOL0     H 8179   6.164   7.745   5.098  0.0490 -0.3863 -0.4081
   61MOL0     H 8180   6.392   7.814   5.091  0.2553 -0.1649 -0.0130
   61MOL0     H 8181   6.356   7.932   5.220  0.4274 -0.7692  0.4871
   61MOL0     H 8182   6.307   7.746   5.382 -1.7430 -0.8467 -1.3348
   61MOL0     H 8183   6.463   7.786   5.349 -0.6617 -0.4058  0.1874
   61MOL0     H 8184   6.320   7.565   5.191  0.5942 -2.4692  2.0343
   61MOL0     H 8185   6.492   7.603   5.199 -1.0321  1.2185 -1.7308
   61MOL0     H 8186   6.564   7.383   5.303 -2.4698 -0.5702 -1.9294
   61MOL0     H 8187   6.611   7.204   5.474 -0.2122 -5.0914 -1.5777
   61MOL0     H 8188   6.528   7.202   5.629 -2.3626  0.7646  0.1228
   61MOL0     H 8189   6.422   7.106   5.364 -1.6752 -2.4879  0.3883
   61MOL0     H 8190   6.488   7.008   5.499 -0.4676  0.0567  2.3842
   61MOL0     H 8191   6.245   6.992   5.501 -1.0965  0.3482  0.0250
   61MOL0     H 8192   6.238   7.167   5.491  2.4326  0.8652 -2.0942
   61MOL0     H 8193   6.303   7.191   5.715 -3.0147  0.3153  0.2119
   61MOL0     H 8194   6.371   7.027   5.727  0.1126  0.1542  0.5695
   61MOL0     H 8195   6.122   7.278   5.668 -0.8168  0.1633  1.0920
   61MOL0     H 8196   5.929   7.375   5.581 -0.4457 -1.1249 -0.4419
   61MOL0     H 8197   5.491   7.296   5.333  0.4953  0.1398  0.0653
   61MOL0     H 8198   5.299   7.423   5.264  1.5229  1.0998 -1.8394
   61MOL0     H 8199   5.206   7.793   5.489  0.2678  0.0092  1.0499
   61MOL0     H 8200   5.285   7.836   5.336 -1.0680  0.0889 -1.3899
   61MOL0     H 8201   5.074   7.810   5.210 -1.8212 -0.9252 -1.0838
   61MOL0     H 8202   5.003   7.765   5.363  0.6950  2.1054  1.7818
   61MOL0     H 8203   5.086   7.999   5.452 -0.8409 -0.8193 -0.6809
   61MOL0     H 8204   5.144   8.031   5.289  1.0050 -0.1816  0.6297
   61MOL0     H 8205   4.857   7.951   5.317 -1.4465  2.5951  3.5948
   61MOL0     H 8206   4.935   8.061   5.198  0.8372  1.2211  0.5704
   61MOL0     H 8207   4.969   8.224   5.394 -0.1406 -0.1996 -0.8583
   61MOL0     H 8208   4.844   8.124   5.472 -2.9267 -2.9610 -1.2011
   61MOL0     H 8209   4.818   8.247   5.179  1.1463 -0.0228 -0.3111
   61MOL0     H 8210   4.692   8.161   5.263  0.2395  0.7888 -1.5038
   61MOL0     H 8211   4.817   8.414   5.381 -2.1627  0.0709  2.3164
   61MOL0     H 8212   4.691   8.313   5.447  2.0763  2.7794  2.9307
   61MOL0     H 8213   4.567   8.391   5.206 -0.0611  0.7848  0.4925
   61MOL0     H 8214   4.575   8.502   5.352  0.7102 -1.0344  2.4427
   61MOL0     H 8215   5.409   7.735   5.546 -0.8772 -0.3095  0.6838
   61MOL0     H 8216   5.619   7.641   5.573 -2.5528  3.0330 -0.2984
   61MOL0     H 8217   5.721   6.991   5.648  0.2963 -1.9938  0.2107
   61MOL0     H 8218   5.945   6.904   5.738 -1.5386  1.2226  2.1752
   61MOL0     H 8219   5.675   8.319   4.955  1.7641 -0.1353 -0.3035
   61MOL0     H 8220   5.438   8.372   4.963  0.0683  0.3385  0.7030
   61MOL0     H 8221   5.033   8.302   4.772 -1.2147  0.3637  0.8188
   61MOL0     H 8222   4.810   8.340   4.770  0.2736  0.5257  1.2370
   61MOL0     H 8223   4.616   8.412   4.830  0.7410 -0.2040 -1.8928
   61MOL0     H 8224   4.538   8.481   4.685 -1.8811  1.5002  0.6121
   61MOL0     H 8225   4.542   8.612   4.963  0.4371 -0.3283 -0.3229
   61MOL0     H 8226   4.418   8.504   4.919 -3.0465  0.8580 -2.0247
   61MOL0     H 8227   4.327   8.653   4.757  0.5580 -1.9447  0.7581
   61MOL0     H 8228   4.475   8.748   4.757  2.4583 -2.3635 -0.3277
   61MOL0     H 8229   4.428   8.845   4.977 -0.8713  2.4565 -0.2073
   61MOL0     H 8230   4.277   8.840   4.880 -2.6209 -3.1455  0.0101
   61MOL0     H 8231   4.188   8.610   5.224  0.3931  2.0224  1.3285
   61MOL0     H 8232   4.876   8.767   4.731 -1.3868 -0.4649  5.0970
   61MOL0     H 8233   5.218   8.737   4.623  2.0287  0.7169  0.7289
   61MOL0     H 8234   5.106   8.853   4.662  0.2077 -0.7296 -0.9987
   61MOL0     H 8235   5.202   8.790   4.796  1.2149  0.7569 -0.5562
   62MOL0     O 8236   4.610   8.855   6.064 -0.3969  0.3737 -0.4556
   62MOL0     C 8237   4.501   8.814   6.035 -0.1429 -0.0982 -0.1709
   62MOL0     O 8238   4.460   8.700   6.064  0.3701  1.0623 -0.1282
   62MOL0     C 8239   4.532   8.605   6.138 -0.0625 -0.0040 -0.0549
   62MOL0     C 8240   4.540   8.477   6.075  0.9048 -0.9420  0.0770
   62MOL0     C 8241   4.597   8.372   6.134  0.2023  0.2269 -0.0967
   62MOL0     C 8242   4.665   8.391   6.253  0.2258 -0.0417 -0.3605
   62MOL0     O 8243   4.718   8.282   6.314 -0.1256  0.5437 -0.2775
   62MOL0     C 8244   4.820   8.213   6.243 -0.4166 -0.9520 -0.4703
   62MOL0     C 8245   4.947   8.285   6.224  0.6064  0.0663  0.5575
   62MOL0     C 8246   5.027   8.196   6.126  0.0146  0.0850  0.1456
   62MOL0     C 8247   5.162   8.157   6.187 -0.1667  0.4324 -0.2373
   62MOL0     C 8248   5.254   8.081   6.091  0.8064  0.4502 -0.6830
   62MOL0     C 8249   5.393   8.066   6.144  0.0256 -0.4371 -0.2049
   62MOL0     C 8250   5.491   7.988   6.055  0.2873 -0.0016 -0.4484
   62MOL0     C 8251   5.497   8.044   5.910 -0.2534 -0.1547 -0.7195
   62MOL0     N 8252   5.629   8.010   5.849 -0.4088  0.3939 -1.0873
   62MOL0     C 8253   5.755   8.062   5.890 -0.2118  0.0315  0.4126
   62MOL0     C 8254   5.844   8.012   5.800  0.9270  0.6446  0.2437
   62MOL0     C 8255   5.993   8.048   5.800  0.4847 -0.8252 -1.0720
   62MOL0     C 8256   6.026   8.181   5.879 -0.1114 -0.5746 -1.3498
   62MOL0     C 8257   6.177   8.173   5.924  0.7478 -0.1142  0.4842
   62MOL0     C 8258   6.211   8.293   6.017 -0.2559 -0.3284 -0.1128
   62MOL0     O 8259   6.190   8.416   5.940 -0.2237  0.0441  0.2041
   62MOL0     C 8260   6.305   8.483   5.898  0.2953  0.7919 -0.6004
   62MOL0     C 8261   6.285   8.621   5.901  0.1704  0.4649  0.9464
   62MOL0     C 8262   6.391   8.709   5.876  0.5618 -0.2651  0.2482
   62MOL0     C 8263   6.517   8.652   5.848  0.5700  0.5980  0.1583
   62MOL0     C 8264   6.629   8.732   5.838  0.5819 -0.4312  0.7968
   62MOL0     O 8265   6.612   8.862   5.876 -0.2747 -0.2532  0.8538
   62MOL0     C 8266   6.697   8.965   5.849  0.5025  0.5020 -0.0065
   62MOL0     C 8267   6.675   9.084   5.928  0.2074 -0.8485  0.3337
   62MOL0     C 8268   6.743   9.194   5.900 -0.8085 -0.6781 -0.1295
   62MOL0     C 8269   6.826   9.204   5.787 -0.0925 -0.8111  0.2693
   62MOL0     O 8270   6.899   9.322   5.749  0.0270  0.3100  0.0073
   62MOL0     C 8271   6.836   9.447   5.739  0.8019  0.5824 -0.3640
   62MOL0     C 8272   6.921   9.521   5.624  0.7006  0.4494  0.1483
   62MOL0     C 8273   7.074   9.504   5.615  0.7318  1.2965 -0.3063
   62MOL0     C 8274   7.148   9.591   5.709 -0.2410  0.1225  0.0851
   62MOL0     C 8275   7.298   9.575   5.705  0.8841 -0.1615 -0.0636
   62MOL0     C 8276   7.367   9.671   5.805 -0.1055  0.4499 -0.1202
   62MOL0     C 8277   7.519   9.662   5.808 -0.1148  0.1190 -0.3249
   62MOL0     C 8278   7.577   9.654   5.669  0.1567 -0.6916  0.2443
   62MOL0    Cl 8279   7.509   9.784   5.566 -0.0558  0.1027  0.0845
   62MOL0     C 8280   6.840   9.090   5.710 -0.6877 -0.3497 -0.1523
   62MOL0     C 8281   6.777   8.977   5.735 -0.0229 -0.2887  0.0798
   62MOL0     O 8282   6.729   8.688   5.785  0.2944  0.2560  0.4615
   62MOL0     C 8283   6.533   8.508   5.840  0.1768  0.0064  0.8933
   62MOL0     C 8284   6.425   8.423   5.870 -0.1232  0.0162  0.2836
   62MOL0     N 8285   5.781   7.921   5.722 -0.3288  0.4680 -0.8254
   62MOL0     N 8286   5.653   7.923   5.749 -0.0968 -0.2714 -0.9092
   62MOL0     C 8287   4.671   8.517   6.327 -0.1298  0.1737  0.4904
   62MOL0     C 8288   4.602   8.617   6.258 -0.7297  0.0267  0.1722
   62MOL0     C 8289   4.401   8.900   5.973 -0.4850  0.4740  0.0854
   62MOL0     C 8290   4.392   9.038   5.993 -0.7659  0.3477 -0.0629
   62MOL0     C 8291   4.305   9.121   5.928 -0.3391 -0.4912  0.7101
   62MOL0     C 8292   4.216   9.066   5.837  0.0079  0.2288 -0.1998
   62MOL0     O 8293   4.109   9.146   5.782 -1.0078  0.2762 -0.0666
   62MOL0     C 8294   4.157   9.196   5.652 -0.6305  0.2273  0.4796
   62MOL0     C 8295   4.039   9.260   5.581 -0.6341 -0.8804  0.2685
   62MOL0     C 8296   3.910   9.163   5.568 -0.2925 -0.7092 -0.0353
   62MOL0     C 8297   3.805   9.257   5.496 -0.3754  0.7475 -0.5931
   62MOL0     C 8298   3.688   9.174   5.465  0.2921 -0.0587  0.7151
   62MOL0     C 8299   3.600   9.097   5.443 -0.4703 -0.5579 -0.4600
   62MOL0     C 8300   4.222   8.927   5.812 -0.0801  0.4951 -0.7067
   62MOL0     C 8301   4.309   8.840   5.877  0.1496  0.6307 -0.2598
   62MOL0     C 8302   4.280   8.690   5.854  0.0784  0.1822  0.1582
   62MOL0     H 8303   4.481   8.456   5.987 -1.7525  0.1623  1.4769
   62MOL0     H 8304   4.580   8.274   6.090  3.0282  0.2971 -1.5318
   62MOL0     H 8305   4.832   8.119   6.296  1.7130  0.3824  1.6206
   62MOL0     H 8306   4.781   8.180   6.146  1.5539 -3.4583 -0.5005
   62MOL0     H 8307   4.996   8.294   6.322 -2.3138 -1.2028  2.2815
   62MOL0     H 8308   4.926   8.379   6.173  3.0204  1.3338  1.7530
   62MOL0     H 8309   5.045   8.251   6.033 -0.0072 -1.5348 -0.8607
   62MOL0     H 8310   4.970   8.107   6.098  0.3931 -0.7332  1.8156
   62MOL0     H 8311   5.222   8.243   6.217  0.3439 -0.1318  0.4060
   62MOL0     H 8312   5.139   8.107   6.282 -2.2695  1.3754 -0.2052
   62MOL0     H 8313   5.206   7.987   6.064  0.0735  1.2866 -2.4569
   62MOL0     H 8314   5.265   8.147   6.004  1.0169  1.9428  0.4393
   62MOL0     H 8315   5.432   8.167   6.160  1.1767 -0.8909 -0.0800
   62MOL0     H 8316   5.393   8.020   6.243  2.8516  1.5399  0.8450
   62MOL0     H 8317   5.462   7.883   6.044  2.5930 -0.5286 -2.4567
   62MOL0     H 8318   5.587   7.984   6.108 -1.0826  0.2715  2.2644
   62MOL0     H 8319   5.418   8.001   5.847 -0.9215 -0.4959  0.3317
   62MOL0     H 8320   5.484   8.152   5.911  1.0043  0.0618 -2.3621
   62MOL0     H 8321   5.771   8.124   5.977 -2.2043 -1.3821  1.8926
   62MOL0     H 8322   6.048   7.965   5.845 -0.2816 -1.3424 -1.0721
   62MOL0     H 8323   6.025   8.057   5.696 -0.6359 -4.6773 -1.9118
   62MOL0     H 8324   6.023   8.265   5.809 -0.7063 -0.8507 -1.6643
   62MOL0     H 8325   5.956   8.199   5.960 -1.0121 -1.9011 -1.7915
   62MOL0     H 8326   6.250   8.169   5.842  2.1577  3.8843  1.2956
   62MOL0     H 8327   6.186   8.083   5.985  2.5405 -0.2711  0.0541
   62MOL0     H 8328   6.309   8.284   6.065 -0.0293 -2.0700 -0.8447
   62MOL0     H 8329   6.142   8.287   6.102 -2.6318 -0.7280 -1.9775
   62MOL0     H 8330   6.188   8.668   5.912 -0.3374  0.1005 -1.4642
   62MOL0     H 8331   6.374   8.816   5.872  1.1463 -0.1745 -3.4414
   62MOL0     H 8332   6.603   9.082   6.009 -0.0011  0.1942  0.1923
   62MOL0     H 8333   6.739   9.278   5.969  0.6779  0.0614 -0.8837
   62MOL0     H 8334   6.731   9.439   5.710  0.5801 -2.3205  0.8763
   62MOL0     H 8335   6.845   9.499   5.834 -0.9914 -0.7919  0.6137
   62MOL0     H 8336   6.885   9.495   5.524 -0.0032 -3.1258  1.1622
   62MOL0     H 8337   6.892   9.626   5.632 -3.5718 -0.2315 -2.9045
   62MOL0     H 8338   7.102   9.400   5.635  1.1196  1.8653  2.6323
   62MOL0     H 8339   7.106   9.519   5.512  3.0114  1.3639  0.3719
   62MOL0     H 8340   7.110   9.588   5.811 -0.8694  1.8032 -0.0681
   62MOL0     H 8341   7.116   9.691   5.679 -1.3944  0.1579  1.3755
   62MOL0     H 8342   7.339   9.594   5.606  0.1564 -2.0326 -0.7651
   62MOL0     H 8343   7.318   9.473   5.739  2.6146  1.3932  4.4061
   62MOL0     H 8344   7.347   9.774   5.773  0.6315 -0.0345 -2.2801
   62MOL0     H 8345   7.323   9.652   5.904 -1.5505  1.8011 -0.4632
   62MOL0     H 8346   7.556   9.573   5.858 -1.8567 -0.2410  0.4086
   62MOL0     H 8347   7.567   9.750   5.852 -1.2285  0.6368 -0.1055
   62MOL0     H 8348   7.683   9.677   5.676 -0.2424  0.7027  2.7565
   62MOL0     H 8349   7.557   9.560   5.615  0.5109  0.0951 -1.3200
   62MOL0     H 8350   6.896   9.093   5.616 -3.2444  0.5351 -1.7381
   62MOL0     H 8351   6.774   8.894   5.666 -2.6438  0.7090 -1.1515
   62MOL0     H 8352   6.629   8.459   5.834 -2.8560 -7.2491  1.7427
   62MOL0     H 8353   6.431   8.314   5.866  0.9738  0.0669 -3.6333
   62MOL0     H 8354   4.707   8.527   6.429 -1.5995 -1.5600  1.2439
   62MOL0     H 8355   4.612   8.722   6.281 -0.2825 -0.2029  1.0787
   62MOL0     H 8356   4.472   9.086   6.047  2.7909 -1.9246 -2.8377
   62MOL0     H 8357   4.287   9.224   5.957 -2.5441 -0.3282 -0.9481
   62MOL0     H 8358   4.184   9.107   5.595 -2.2009 -0.6040  0.9818
   62MOL0     H 8359   4.239   9.267   5.667  0.7465 -1.2504  0.1361
   62MOL0     H 8360   4.076   9.299   5.486 -2.9604  1.2076  0.1201
   62MOL0     H 8361   4.015   9.348   5.640 -1.0289  0.8618 -2.3029
   62MOL0     H 8362   3.878   9.144   5.671  1.0768 -0.4647  0.4499
   62MOL0     H 8363   3.939   9.075   5.510  3.6415  0.1338  0.4002
   62MOL0     H 8364   3.772   9.342   5.556  2.6733 -1.4556  4.8955
   62MOL0     H 8365   3.852   9.291   5.403 -0.2585  0.6153 -0.5833
   62MOL0     H 8366   3.523   9.024   5.425  0.7478 -2.1471  0.5188
   62MOL0     H 8367   4.154   8.892   5.736  1.1319  0.8192 -1.9920
   62MOL0     H 8368   4.185   8.663   5.901  1.9893 -1.2933  3.5198
   62MOL0     H 8369   4.261   8.683   5.747 -0.7015 -1.1093  0.3654
   62MOL0     H 8370   4.364   8.623   5.874  0.2245 -0.0121 -1.0239
   63MOL0     O 8371   6.691   6.710  10.777  0.3634  0.4964 -0.5662
   63MOL0     C 8372   6.657   6.642  10.872  0.6069  0.2546 -0.0408
   63MOL0     O 8373   6.721   6.637  10.993  0.2557 -0.1622  0.7016
   63MOL0     C 8374   6.849   6.680  10.992 -0.1093 -0.2141  0.3441
   63MOL0     C 8375   6.888   6.784  11.084  0.6456  0.3283 -0.2067
   63MOL0     C 8376   7.022   6.824  11.088 -0.4004  0.6185  0.3270
   63MOL0     C 8377   7.113   6.756  11.007 -0.8945 -0.2892 -0.0986
   63MOL0     O 8378   7.238   6.797  11.049  0.4710  0.1429 -0.1873
   63MOL0     C 8379   7.352   6.730  10.981  1.1619  0.2163  0.3901
   63MOL0     C 8380   7.483   6.803  11.003  0.5957  0.0731 -0.5765
   63MOL0     C 8381   7.586   6.765  10.890 -1.4269 -0.2884 -0.5555
   63MOL0     C 8382   7.717   6.844  10.901 -0.5654  0.2289  0.9857
   63MOL0     C 8383   7.823   6.778  10.817 -0.6155 -0.2141 -0.1842
   63MOL0     C 8384   7.937   6.875  10.769 -0.2309  0.2382  0.0720
   63MOL0     C 8385   8.061   6.795  10.741  0.1236 -0.5652  0.7172
   63MOL0     C 8386   8.179   6.893  10.719  0.8388  0.2801 -0.3023
   63MOL0     N 8387   8.304   6.830  10.685 -0.8368  0.2691 -0.2720
   63MOL0     C 8388   8.375   6.770  10.785 -0.3244 -0.0611 -0.5392
   63MOL0     C 8389   8.494   6.735  10.721  0.2479 -0.5424  0.0911
   63MOL0     C 8390   8.624   6.696  10.802 -1.0606 -0.3177 -0.3916
   63MOL0     C 8391   8.751   6.779  10.769  0.1730  0.7487 -0.0447
   63MOL0     C 8392   8.820   6.728  10.640  0.2567 -0.6017  0.4363
   63MOL0     C 8393   8.969   6.785  10.640  0.0167 -1.1539  0.8066
   63MOL0     O 8394   8.969   6.929  10.647  0.0002  0.4551 -0.4868
   63MOL0     C 8395   9.084   6.982  10.705  0.8286  0.7797 -0.4812
   63MOL0     C 8396   9.205   6.970  10.650  0.2221  0.4066  1.1849
   63MOL0     C 8397   9.311   7.036  10.706 -0.7907  0.6008  0.7630
   63MOL0     C 8398   9.296   7.115  10.828 -0.7826 -0.0555 -0.5270
   63MOL0     C 8399   9.412   7.192  10.887  0.7728 -0.2962  0.0852
   63MOL0     O 8400   9.503   7.237  10.796  0.3448  0.7974  0.0052
   63MOL0     C 8401   9.637   7.222  10.821 -1.3770  0.2864 -0.5775
   63MOL0     C 8402   9.690   7.148  10.927 -0.2325  0.4107 -0.9400
   63MOL0     C 8403   9.829   7.114  10.939  0.8085 -0.7189  0.3395
   63MOL0     C 8404   9.918   7.160  10.837  0.1712 -0.5382 -0.4751
   63MOL0     O 8405  10.053   7.132  10.854 -0.0155 -0.1525  0.4254
   63MOL0     C 8406  10.147   7.215  10.772  0.5768  0.0733  0.3330
   63MOL0     C 8407  10.291   7.158  10.763  0.1365  1.1106  0.3777
   63MOL0     C 8408  10.383   7.216  10.668 -0.0057  0.3479 -0.3274
   63MOL0     C 8409  10.514   7.131  10.639  0.0401 -0.0420  0.7610
   63MOL0     C 8410  10.506   7.034  10.513 -0.5137  0.2310  0.2353
   63MOL0     C 8411  10.468   7.102  10.384 -0.5807 -0.5138  1.8735
   63MOL0     C 8412  10.568   7.204  10.342  0.1410 -0.3417 -0.7569
   63MOL0     C 8413  10.602   7.194  10.200 -0.0054  0.7155  0.1861
   63MOL0    Cl 8414  10.656   7.035  10.152  0.1168  0.3083  0.2832
   63MOL0     C 8415   9.863   7.210  10.719  0.0374 -0.7811 -0.5639
   63MOL0     C 8416   9.725   7.252  10.721 -0.2224  0.3761 -0.4828
   63MOL0     O 8417   9.406   7.214  11.011  0.2743  0.5132 -0.8245
   63MOL0     C 8418   9.163   7.130  10.874 -0.6316  0.7697 -0.1162
   63MOL0     C 8419   9.056   7.067  10.808 -0.4872 -0.9488  0.1470
   63MOL0     N 8420   8.473   6.767  10.579  0.2153 -0.1627 -0.3956
   63MOL0     N 8421   8.359   6.814  10.560  0.6219 -0.3573  0.4421
   63MOL0     C 8422   7.075   6.645  10.931 -1.0946 -0.2441  0.3039
   63MOL0     C 8423   6.943   6.613  10.921 -0.7778 -0.1082 -0.6739
   63MOL0     C 8424   6.521   6.572  10.877  0.1075 -0.8087  0.4780
   63MOL0     C 8425   6.501   6.440  10.885  0.0089 -0.2407 -0.6108
   63MOL0     C 8426   6.385   6.366  10.861  0.2604  0.1543 -0.4952
   63MOL0     C 8427   6.264   6.436  10.842 -0.9978  0.3882 -0.0075
   63MOL0     O 8428   6.154   6.361  10.806 -0.4664  0.2019 -0.3192
   63MOL0     C 8429   6.031   6.434  10.785 -0.4395  0.0358 -0.7305
   63MOL0     C 8430   5.926   6.338  10.824  0.6314  0.2513  1.0217
   63MOL0     C 8431   5.921   6.316  10.977  0.2906  0.8397  0.4807
   63MOL0     C 8432   5.783   6.261  11.022  0.4994  0.8846 -0.2003
   63MOL0     C 8433   5.745   6.127  10.966  0.9694 -0.1094 -0.9617
   63MOL0     C 8434   5.713   6.015  10.933 -0.1693  0.3220  0.7727
   63MOL0     C 8435   6.271   6.583  10.839  0.4173  0.6949 -0.2947
   63MOL0     C 8436   6.396   6.651  10.855 -0.2637  0.2182  0.1614
   63MOL0     C 8437   6.399   6.800  10.838 -0.4585  0.7196  0.3640
   63MOL0     H 8438   6.816   6.831  11.150  1.0404  1.2519 -0.4215
   63MOL0     H 8439   7.066   6.902  11.150  1.1269 -0.9685  1.3134
   63MOL0     H 8440   7.365   6.635  11.035 -2.6232 -0.0934  1.0284
   63MOL0     H 8441   7.319   6.729  10.877 -2.3346 -0.7966  1.3766
   63MOL0     H 8442   7.527   6.773  11.099  1.2353  1.0514 -0.5555
   63MOL0     H 8443   7.470   6.911  10.993 -0.7424 -0.0949 -0.9137
   63MOL0     H 8444   7.549   6.766  10.787 -2.0013 -0.6164 -0.3545
   63MOL0     H 8445   7.626   6.664  10.902  3.0673  1.3837  1.0068
   63MOL0     H 8446   7.700   6.942  10.855  3.0903 -0.4123 -2.3277
   63MOL0     H 8447   7.746   6.860  11.005  2.4097 -0.8108  0.4093
   63MOL0     H 8448   7.864   6.700  10.882 -0.1943 -0.8748 -1.2226
   63MOL0     H 8449   7.784   6.725  10.730 -2.5660  1.0950 -0.1789
   63MOL0     H 8450   7.918   6.949  10.690 -0.4119 -0.1703 -0.2700
   63MOL0     H 8451   7.960   6.936  10.857 -0.8482 -0.1924  0.5384
   63MOL0     H 8452   8.040   6.739  10.649  3.7768  1.0675 -1.3110
   63MOL0     H 8453   8.093   6.732  10.825 -0.6374  1.7451  2.8714
   63MOL0     H 8454   8.157   6.966  10.641 -0.6877 -2.7316 -2.8537
   63MOL0     H 8455   8.199   6.957  10.806  1.3678 -1.0739  0.6051
   63MOL0     H 8456   8.358   6.778  10.892  0.8752  0.8607 -0.3985
   63MOL0     H 8457   8.596   6.701  10.907 -1.4592 -0.7934 -0.4739
   63MOL0     H 8458   8.653   6.591  10.790 -1.9945 -0.3818 -2.7062
   63MOL0     H 8459   8.733   6.883  10.741  1.7313  0.8535 -0.7885
   63MOL0     H 8460   8.819   6.774  10.854  0.5084 -2.1443 -0.3809
   63MOL0     H 8461   8.769   6.773  10.555  0.4702  0.9533  1.0985
   63MOL0     H 8462   8.813   6.620  10.626 -0.5257 -0.7679  1.8314
   63MOL0     H 8463   9.016   6.746  10.549  1.5808  1.1077  0.5669
   63MOL0     H 8464   9.039   6.741  10.711  0.2714 -0.0731  1.2424
   63MOL0     H 8465   9.215   6.916  10.557 -3.7906  0.4089  0.5528
   63MOL0     H 8466   9.411   7.001  10.679 -2.1483 -2.0109 -1.3134
   63MOL0     H 8467   9.635   7.114  11.014 -0.5101 -0.7861 -1.5526
   63MOL0     H 8468   9.880   7.059  11.017 -0.7259 -0.1697  1.7694
   63MOL0     H 8469  10.110   7.212  10.669  0.3292  0.4726  0.4064
   63MOL0     H 8470  10.149   7.318  10.809  1.9367  0.3788 -0.5013
   63MOL0     H 8471  10.329   7.169  10.865  1.0403  0.1611  0.1600
   63MOL0     H 8472  10.291   7.052  10.738  3.0118  1.5427 -2.0247
   63MOL0     H 8473  10.326   7.237  10.577 -1.6843 -0.2504  0.5405
   63MOL0     H 8474  10.405   7.310  10.719 -2.9411  0.6161  0.6591
   63MOL0     H 8475  10.554   7.069  10.719  4.2360  0.9670 -0.2769
   63MOL0     H 8476  10.596   7.203  10.625  1.2774 -1.4814  0.2874
   63MOL0     H 8477  10.416   6.971  10.523 -1.8360  2.2201  1.6664
   63MOL0     H 8478  10.586   6.962  10.497  0.4511  1.7803 -2.9867
   63MOL0     H 8479  10.467   7.025  10.306  3.4029  3.6098 -2.9396
   63MOL0     H 8480  10.370   7.151  10.385 -0.1809  0.4478 -0.2118
   63MOL0     H 8481  10.660   7.191  10.400  1.2338  1.1151 -2.0641
   63MOL0     H 8482  10.522   7.303  10.355  2.9594  1.1877 -1.4635
   63MOL0     H 8483  10.517   7.216  10.136 -1.2814  0.8222  1.8455
   63MOL0     H 8484  10.682   7.266  10.178  0.4161  1.5896  3.9104
   63MOL0     H 8485   9.910   7.236  10.624 -1.7040 -0.6270 -1.4401
   63MOL0     H 8486   9.693   7.300  10.629 -0.7826  1.3105  0.1783
   63MOL0     H 8487   9.147   7.177  10.971  1.2462  0.7793  0.2278
   63MOL0     H 8488   8.954   7.075  10.842  0.0297 -0.2510  1.6032
   63MOL0     H 8489   7.152   6.592  10.875 -0.1762  0.6748  0.6652
   63MOL0     H 8490   6.930   6.515  10.876  0.2820 -0.6159  0.0920
   63MOL0     H 8491   6.584   6.374  10.909  0.5349  1.3184  2.4308
   63MOL0     H 8492   6.388   6.258  10.857 -0.8884  0.0941 -0.0663
   63MOL0     H 8493   6.008   6.463  10.683 -1.6285 -0.5425 -0.6388
   63MOL0     H 8494   6.012   6.520  10.850 -1.0612 -1.4211  1.1254
   63MOL0     H 8495   5.942   6.239  10.780 -0.9232  0.9440 -1.2594
   63MOL0     H 8496   5.824   6.364  10.795 -0.1574 -0.4378  3.0173
   63MOL0     H 8497   5.947   6.403  11.038  0.0443  0.7999  0.6424
   63MOL0     H 8498   5.996   6.236  10.980 -0.2099  0.2569 -1.2881
   63MOL0     H 8499   5.806   6.240  11.127  2.2673  0.2087 -0.6812
   63MOL0     H 8500   5.699   6.330  11.009 -1.3851 -1.4118 -0.8496
   63MOL0     H 8501   5.687   5.913  10.913  1.2631  0.4741 -2.3823
   63MOL0     H 8502   6.180   6.640  10.826 -1.4877 -1.6854  1.5125
   63MOL0     H 8503   6.447   6.838  10.929  3.6859 -2.8721 -0.0236
   63MOL0     H 8504   6.462   6.817  10.750 -2.4819  0.5931 -1.1996
   63MOL0     H 8505   6.306   6.854  10.817 -2.1854 -1.3141  2.2883
   64MOL0     O 8506   7.300   2.512  10.554  0.0243 -0.2542  0.2205
   64MOL0     C 8507   7.389   2.465  10.488 -0.3837 -0.3555 -0.3042
   64MOL0     O 8508   7.379   2.402  10.365 -0.0540  0.3600 -0.3505
   64MOL0     C 8509   7.263   2.336  10.337  0.7747 -0.7118  0.6740
   64MOL0     C 8510   7.211   2.366  10.215 -0.8516  1.2311  0.3911
   64MOL0     C 8511   7.085   2.305  10.178 -0.2309  0.0948 -0.1953
   64MOL0     C 8512   7.013   2.224  10.270 -0.1258  0.5569 -0.9151
   64MOL0     O 8513   6.905   2.158  10.226  0.4862 -0.1972  0.3735
   64MOL0     C 8514   6.938   2.063  10.130  0.3794  0.6101  0.2165
   64MOL0     C 8515   6.836   1.954  10.099  0.3179 -0.1145 -0.1524
   64MOL0     C 8516   6.880   1.853  10.000 -0.1237  0.0540 -0.1696
   64MOL0     C 8517   6.767   1.773   9.930  0.2822 -0.1319 -0.1188
   64MOL0     C 8518   6.804   1.649   9.844 -0.3323 -0.0787 -0.4214
   64MOL0     C 8519   6.679   1.579   9.799  1.3201  0.2944 -0.7391
   64MOL0     C 8520   6.696   1.431   9.782  0.3210 -0.9513  1.0798
   64MOL0     C 8521   6.776   1.406   9.652 -0.4312 -0.3456  0.6887
   64MOL0     N 8522   6.715   1.447   9.521 -0.0906  0.3337  0.4748
   64MOL0     C 8523   6.607   1.398   9.468 -0.1682  0.1374  0.1673
   64MOL0     C 8524   6.576   1.472   9.365  0.8740 -0.0680  0.6489
   64MOL0     C 8525   6.449   1.449   9.284 -0.1404 -0.4986 -0.3469
   64MOL0     C 8526   6.469   1.336   9.184 -1.4054  0.1964  0.1088
   64MOL0     C 8527   6.349   1.331   9.097  0.0847  0.3093  0.2093
   64MOL0     C 8528   6.348   1.222   8.989  0.1439 -0.5288  0.1053
   64MOL0     O 8529   6.319   1.102   9.057 -0.5539 -0.0901  0.1539
   64MOL0     C 8530   6.222   1.021   9.006 -0.3238 -0.3446 -0.4812
   64MOL0     C 8531   6.092   1.061   8.965  0.8998  0.2322 -0.0514
   64MOL0     C 8532   5.998   0.970   8.899  0.5419  0.1791  0.6078
   64MOL0     C 8533   6.043   0.836   8.880 -0.5261 -0.3159 -0.0111
   64MOL0     C 8534   5.953   0.734   8.818 -0.0915 -0.0820  0.2359
   64MOL0     O 8535   5.820   0.776   8.811 -0.2006 -0.1422 -0.1032
   64MOL0     C 8536   5.723   0.690   8.758  0.3479  0.9131 -0.8625
   64MOL0     C 8537   5.603   0.663   8.824 -0.3269  0.5406 -0.8768
   64MOL0     C 8538   5.503   0.594   8.763  0.5709  0.2113 -0.3505
   64MOL0     C 8539   5.510   0.549   8.627 -0.5895  0.1818  0.2169
   64MOL0     O 8540   5.399   0.505   8.555 -0.7257 -0.1199  0.4172
   64MOL0     C 8541   5.271   0.557   8.591  0.2307 -0.6633 -0.4451
   64MOL0     C 8542   5.190   0.561   8.467 -0.3137 -0.1912  0.4692
   64MOL0     C 8543   5.036   0.577   8.498  0.1349 -0.0423 -0.5146
   64MOL0     C 8544   4.968   0.439   8.505 -0.3475  0.5492 -0.9047
   64MOL0     C 8545   4.809   0.438   8.509 -0.2878 -0.1197  0.6935
   64MOL0     C 8546   4.750   0.502   8.645 -0.1706  0.7335 -0.1820
   64MOL0     C 8547   4.594   0.497   8.658 -0.5225  0.1303 -0.1943
   64MOL0     C 8548   4.542   0.621   8.730  0.4137  0.4148 -0.0090
   64MOL0    Cl 8549   4.612   0.630   8.899  0.1406  0.0172  0.1566
   64MOL0     C 8550   5.634   0.564   8.570  0.1917  0.3966  0.2807
   64MOL0     C 8551   5.742   0.631   8.636 -0.4032  0.7111 -0.1650
   64MOL0     O 8552   5.995   0.630   8.780 -0.2161  0.1003  0.2377
   64MOL0     C 8553   6.179   0.801   8.907  0.0461  0.1211 -0.2234
   64MOL0     C 8554   6.255   0.894   8.976 -0.3079  0.4451  0.3112
   64MOL0     N 8555   6.670   1.569   9.352 -1.1082  0.4435  0.6585
   64MOL0     N 8556   6.755   1.558   9.449  0.0843 -0.6867 -0.1927
   64MOL0     C 8557   7.065   2.205  10.394  0.3552  0.0698 -0.6349
   64MOL0     C 8558   7.188   2.256  10.428 -0.0169  0.4624  0.1118
   64MOL0     C 8559   7.523   2.492  10.530  0.2260  0.0399  0.3372
   64MOL0     C 8560   7.626   2.544  10.447 -1.0819 -0.0471  0.3556
   64MOL0     C 8561   7.762   2.557  10.485 -0.7723  0.0838  1.1356
   64MOL0     C 8562   7.806   2.524  10.614 -0.3514  0.5579  0.1966
   64MOL0     O 8563   7.933   2.550  10.665 -0.7279  0.3757  0.4038
   64MOL0     C 8564   8.030   2.592  10.560  0.7398  0.1440  0.0119
   64MOL0     C 8565   8.162   2.608  10.637 -0.5414  0.2276 -0.0764
   64MOL0     C 8566   8.197   2.481  10.717 -0.1462 -0.6516 -0.0844
   64MOL0     C 8567   8.329   2.495  10.787 -0.6805  0.5594 -0.0901
   64MOL0     C 8568   8.443   2.437  10.707 -1.0465  0.2942  0.4622
   64MOL0     C 8569   8.528   2.391  10.630 -0.1045  0.2923 -0.1559
   64MOL0     C 8570   7.704   2.487  10.703 -0.6888 -0.1832  0.0056
   64MOL0     C 8571   7.564   2.468  10.663 -0.0307  0.2058  0.0023
   64MOL0     C 8572   7.477   2.399  10.767 -0.4413  0.4361 -0.3830
   64MOL0     H 8573   7.267   2.429  10.147  2.3403  1.0511  2.6525
   64MOL0     H 8574   7.032   2.311  10.084 -1.3635 -1.3290  0.3097
   64MOL0     H 8575   6.968   2.109  10.035 -0.5425  1.5283  0.3636
   64MOL0     H 8576   7.022   2.012  10.180  0.7621  0.8357 -0.1871
   64MOL0     H 8577   6.742   2.000  10.069 -0.7474 -1.5650  0.8135
   64MOL0     H 8578   6.811   1.906  10.194  1.5721 -1.3837 -0.4303
   64MOL0     H 8579   6.939   1.773  10.046  0.4881  0.8622  0.4916
   64MOL0     H 8580   6.942   1.906   9.928 -2.8140  1.2491 -1.7684
   64MOL0     H 8581   6.694   1.748  10.008 -1.6816 -0.2253 -1.9040
   64MOL0     H 8582   6.703   1.841   9.874 -2.0751  0.0897  2.6219
   64MOL0     H 8583   6.878   1.674   9.767 -1.3972  1.2944 -1.0559
   64MOL0     H 8584   6.866   1.586   9.908 -0.0942  1.2332  0.6760
   64MOL0     H 8585   6.601   1.596   9.874 -0.8519 -0.8076 -2.6194
   64MOL0     H 8586   6.650   1.627   9.706 -0.1588  3.0270  1.0044
   64MOL0     H 8587   6.598   1.383   9.775  0.1411 -0.3377 -3.3077
   64MOL0     H 8588   6.743   1.381   9.867  1.1775 -1.1133  0.5302
   64MOL0     H 8589   6.876   1.451   9.657 -0.6584  0.2220  0.1890
   64MOL0     H 8590   6.801   1.299   9.656  1.0296 -0.0232  1.0767
   64MOL0     H 8591   6.542   1.321   9.508 -2.3098  0.3923 -2.5406
   64MOL0     H 8592   6.374   1.421   9.358  1.3011  2.1618  2.3124
   64MOL0     H 8593   6.419   1.547   9.246  0.8926  0.7362  1.8291
   64MOL0     H 8594   6.549   1.364   9.115 -4.2850  1.0699 -3.2121
   64MOL0     H 8595   6.488   1.234   9.219 -2.5777 -0.0514  0.0635
   64MOL0     H 8596   6.340   1.426   9.045 -0.1860 -0.3403 -0.9688
   64MOL0     H 8597   6.260   1.325   9.161 -0.5760 -1.4288 -0.7752
   64MOL0     H 8598   6.442   1.228   8.935  1.2619  0.1146  2.0138
   64MOL0     H 8599   6.270   1.250   8.918  1.7259  1.6161 -0.8698
   64MOL0     H 8600   6.062   1.161   8.996  1.0565  0.6781 -1.2726
   64MOL0     H 8601   5.897   0.998   8.873  1.3289  2.4256 -0.2735
   64MOL0     H 8602   5.586   0.703   8.924 -1.0327  3.7775 -2.1710
   64MOL0     H 8603   5.408   0.572   8.810 -0.3836  0.9262 -1.8521
   64MOL0     H 8604   5.220   0.486   8.658 -1.5872  1.4324  0.5146
   64MOL0     H 8605   5.270   0.652   8.644 -2.3572 -1.1937  0.6007
   64MOL0     H 8606   5.228   0.646   8.409  0.0988 -0.8263 -0.2161
   64MOL0     H 8607   5.222   0.470   8.414  2.9596 -0.4493  2.6180
   64MOL0     H 8608   5.029   0.626   8.595  2.7054 -2.9921  1.3566
   64MOL0     H 8609   4.985   0.621   8.412 -1.9244 -0.1769  0.5726
   64MOL0     H 8610   5.014   0.390   8.591  4.0056 -0.1413 -3.3472
   64MOL0     H 8611   4.989   0.386   8.411 -0.9402 -0.3367 -0.5554
   64MOL0     H 8612   4.756   0.343   8.494 -0.8654  0.1810  0.8165
   64MOL0     H 8613   4.790   0.494   8.417 -0.8454 -1.0746  0.2084
   64MOL0     H 8614   4.795   0.449   8.729 -2.6233 -0.8080  0.2689
   64MOL0     H 8615   4.785   0.606   8.647 -2.0777  1.6260 -3.8979
   64MOL0     H 8616   4.560   0.403   8.703 -1.6451  1.6716  2.4170
   64MOL0     H 8617   4.555   0.501   8.557 -0.6664 -0.9734 -0.1923
   64MOL0     H 8618   4.584   0.713   8.688  1.1158  0.4367  0.7323
   64MOL0     H 8619   4.433   0.629   8.723  0.3275 -0.0757  0.7208
   64MOL0     H 8620   5.666   0.510   8.481  0.4143  0.1166  0.5288
   64MOL0     H 8621   5.830   0.653   8.576 -0.0011  2.7436  1.1046
   64MOL0     H 8622   6.230   0.707   8.887 -1.7468 -0.7303 -0.9850
   64MOL0     H 8623   6.348   0.866   9.025 -0.7233  2.2922  2.3098
   64MOL0     H 8624   7.006   2.146  10.464 -1.0463 -1.5070 -3.0124
   64MOL0     H 8625   7.231   2.244  10.527  1.9801  0.7268 -0.6779
   64MOL0     H 8626   7.597   2.576  10.347  1.2409  0.8873 -0.0694
   64MOL0     H 8627   7.816   2.592  10.398 -3.4529  2.6241  0.3584
   64MOL0     H 8628   8.004   2.686  10.511 -3.1524  1.1104  3.4268
   64MOL0     H 8629   8.042   2.508  10.490 -0.0983 -1.4242  1.6605
   64MOL0     H 8630   8.151   2.695  10.703 -1.0196 -1.0901  1.6582
   64MOL0     H 8631   8.247   2.626  10.570  2.5664 -1.3484  3.0879
   64MOL0     H 8632   8.213   2.398  10.649  3.0135 -0.5384  0.3728
   64MOL0     H 8633   8.124   2.464  10.797  1.2769  3.9187  2.6265
   64MOL0     H 8634   8.352   2.600  10.803  0.1835  0.8400 -2.6755
   64MOL0     H 8635   8.320   2.439  10.881  1.6265  0.5620  0.1953
   64MOL0     H 8636   8.605   2.351  10.567  1.6183  1.3893  1.1329
   64MOL0     H 8637   7.718   2.471  10.809 -2.0537  0.4557  0.3029
   64MOL0     H 8638   7.442   2.460  10.851  2.4863  0.3731  0.9921
   64MOL0     H 8639   7.400   2.337  10.720  1.5296 -2.3544 -0.1402
   64MOL0     H 8640   7.537   2.321  10.813  1.5039  0.6396 -2.3822
   65MOL0     O 8641   0.813   5.128   5.664 -0.2591  0.5051  0.2588
   65MOL0     C 8642   0.849   5.174   5.773  0.4310 -0.4562 -0.6920
   65MOL0     O 8643   0.778   5.266   5.842  0.3194 -0.4574 -0.3226
   65MOL0     C 8644   0.641   5.268   5.817 -0.2030 -0.2080 -0.1699
   65MOL0     C 8645   0.564   5.157   5.778  0.4015  0.3361  0.2712
   65MOL0     C 8646   0.430   5.174   5.752 -0.4378  0.5177 -0.4632
   65MOL0     C 8647   0.362   5.297   5.771  0.2430  0.0417  0.0054
   65MOL0     O 8648   0.228   5.307   5.764  0.0758 -0.0127 -0.7621
   65MOL0     C 8649   0.158   5.224   5.671  0.2782  0.7811  1.1723
   65MOL0     C 8650   0.029   5.299   5.661 -0.6198 -0.0203 -0.1854
   65MOL0     C 8651  -0.063   5.251   5.544  0.8102 -0.2060 -0.3307
   65MOL0     C 8652  -0.133   5.115   5.586 -0.5690 -0.3054 -0.5298
   65MOL0     C 8653  -0.191   5.037   5.464 -0.3993  0.1292  0.7963
   65MOL0     C 8654  -0.273   4.914   5.496  0.1995  0.4761 -0.5419
   65MOL0     C 8655  -0.357   4.856   5.382 -0.1511 -0.5885  0.1409
   65MOL0     C 8656  -0.413   4.723   5.406  0.1454  0.1618 -0.1928
   65MOL0     N 8657  -0.553   4.719   5.373  0.3859 -0.6370 -0.0868
   65MOL0     C 8658  -0.604   4.688   5.251  0.4479 -0.8230  1.1928
   65MOL0     C 8659  -0.727   4.670   5.290  0.0149  0.4990  0.4832
   65MOL0     C 8660  -0.830   4.612   5.204  0.4052 -0.5210  0.7637
   65MOL0     C 8661  -0.975   4.649   5.247  1.0892 -0.0867  0.4656
   65MOL0     C 8662  -1.069   4.597   5.135 -0.1971  0.0792 -0.3558
   65MOL0     C 8663  -1.221   4.612   5.157 -0.0884 -0.7084 -0.1040
   65MOL0     O 8664  -1.238   4.543   5.288 -0.5559 -0.3986  0.5904
   65MOL0     C 8665  -1.362   4.497   5.305  0.0405  0.9474  0.4890
   65MOL0     C 8666  -1.381   4.412   5.409 -0.3106  0.3120 -0.4617
   65MOL0     C 8667  -1.494   4.327   5.430  0.0339  0.0864  0.1719
   65MOL0     C 8668  -1.595   4.335   5.338 -0.3062 -0.3386 -0.4705
   65MOL0     C 8669  -1.725   4.265   5.367 -0.4528 -0.8029 -0.7164
   65MOL0     O 8670  -1.834   4.298   5.293  0.2340 -0.8073  0.6181
   65MOL0     C 8671  -1.953   4.233   5.306  0.7946  0.2634 -0.6863
   65MOL0     C 8672  -2.037   4.247   5.420 -0.0592 -0.2902 -1.2055
   65MOL0     C 8673  -2.164   4.185   5.432 -0.6860 -0.4250 -0.6930
   65MOL0     C 8674  -2.207   4.103   5.322  0.5031 -0.3979 -0.4665
   65MOL0     O 8675  -2.322   4.031   5.322  0.2358  0.0116  0.6656
   65MOL0     C 8676  -2.397   4.038   5.439 -0.0034 -0.4848 -0.1864
   65MOL0     C 8677  -2.534   3.970   5.401 -0.0785  0.8675 -0.0241
   65MOL0     C 8678  -2.617   4.040   5.287  0.1003  0.4220 -0.8759
   65MOL0     C 8679  -2.761   4.078   5.329  0.3184  0.6345  0.4633
   65MOL0     C 8680  -2.826   4.160   5.217  0.1754 -0.8353 -0.1498
   65MOL0     C 8681  -2.971   4.206   5.248 -0.8547 -0.5931 -0.3870
   65MOL0     C 8682  -3.028   4.286   5.134  0.0076 -0.8384  0.1057
   65MOL0     C 8683  -3.178   4.323   5.168 -0.3089 -0.2115  0.6667
   65MOL0    Cl 8684  -3.186   4.464   5.268  0.3367 -0.5092  0.4081
   65MOL0     C 8685  -2.129   4.101   5.209 -0.1142  0.0855 -0.0216
   65MOL0     C 8686  -2.003   4.164   5.195  1.1503 -0.1675 -1.0177
   65MOL0     O 8687  -1.730   4.183   5.458 -0.1106  0.5788  0.1441
   65MOL0     C 8688  -1.581   4.418   5.230  0.4396 -0.7950  0.1603
   65MOL0     C 8689  -1.470   4.496   5.212 -0.2737  0.1390  0.3766
   65MOL0     N 8690  -0.757   4.688   5.424  0.6377 -0.2543  0.5740
   65MOL0     N 8691  -0.643   4.724   5.472 -0.2784  0.2279 -0.4946
   65MOL0     C 8692   0.441   5.408   5.805 -0.5633  0.7372  1.0761
   65MOL0     C 8693   0.578   5.390   5.830  0.6557 -0.5791 -0.3885
   65MOL0     C 8694   0.966   5.124   5.851  0.1143  0.6473  0.8997
   65MOL0     C 8695   0.989   4.989   5.804 -0.1133  0.1447 -0.1115
   65MOL0     C 8696   1.109   4.923   5.846 -0.1290  0.4679  0.6310
   65MOL0     C 8697   1.206   4.990   5.927 -0.1479 -0.5109  0.0771
   65MOL0     O 8698   1.322   4.923   5.965  0.3975  0.0485  0.4977
   65MOL0     C 8699   1.440   5.001   5.966 -0.6765  0.6996  0.4385
   65MOL0     C 8700   1.550   4.912   6.021 -0.1424  0.8487 -0.0337
   65MOL0     C 8701   1.602   4.802   5.925  0.8524  0.2861 -0.3459
   65MOL0     C 8702   1.513   4.678   5.959 -0.3730 -0.6810 -0.8876
   65MOL0     C 8703   1.560   4.573   5.869 -0.1071 -1.2966  0.4556
   65MOL0     C 8704   1.601   4.489   5.796 -0.9271  1.0214  0.3630
   65MOL0     C 8705   1.179   5.129   5.959 -0.4165 -0.4483 -0.6766
   65MOL0     C 8706   1.056   5.193   5.925 -0.4113  0.5278 -0.0312
   65MOL0     C 8707   1.037   5.338   5.967  0.4010 -0.0162  1.0661
   65MOL0     H 8708   0.594   5.054   5.761 -0.6399 -0.3169  2.1116
   65MOL0     H 8709   0.364   5.093   5.724 -1.7232  1.5912 -0.6628
   65MOL0     H 8710   0.208   5.211   5.574 -1.2512 -1.5773  0.6308
   65MOL0     H 8711   0.133   5.128   5.716 -1.7668  1.4679  1.5708
   65MOL0     H 8712   0.059   5.404   5.649  0.1676 -0.3420 -1.2352
   65MOL0     H 8713  -0.029   5.290   5.753 -0.8111  0.3399 -0.2700
   65MOL0     H 8714   0.005   5.221   5.463 -0.6175  0.6375 -1.9194
   65MOL0     H 8715  -0.129   5.325   5.498 -0.3486 -0.7221  0.4555
   65MOL0     H 8716  -0.059   5.054   5.637  0.0734 -1.5579 -2.8152
   65MOL0     H 8717  -0.200   5.140   5.669  0.9389 -1.7827  1.2113
   65MOL0     H 8718  -0.263   5.098   5.408 -0.6462 -0.6062  0.3094
   65MOL0     H 8719  -0.114   5.014   5.390 -2.7590 -1.6049 -1.2867
   65MOL0     H 8720  -0.203   4.836   5.524 -0.8205 -1.0901 -2.1168
   65MOL0     H 8721  -0.332   4.950   5.581  0.4265  3.1796 -1.4272
   65MOL0     H 8722  -0.295   4.854   5.292  0.5197  1.3762  0.4897
   65MOL0     H 8723  -0.438   4.926   5.357 -1.1104 -1.9892 -0.7905
   65MOL0     H 8724  -0.372   4.638   5.350  0.8026  0.4974 -0.2270
   65MOL0     H 8725  -0.410   4.703   5.514  2.0987  2.3176  0.2407
   65MOL0     H 8726  -0.561   4.661   5.155  1.0874  1.7839  0.6737
   65MOL0     H 8727  -0.805   4.659   5.108  0.1759  3.3436  2.3933
   65MOL0     H 8728  -0.828   4.503   5.199 -1.4406 -0.6324  1.8867
   65MOL0     H 8729  -1.008   4.611   5.344 -0.8627 -1.8435 -0.7987
   65MOL0     H 8730  -0.974   4.755   5.274 -1.4613 -0.3351  1.9455
   65MOL0     H 8731  -1.049   4.492   5.112  0.7118 -0.2464  1.7140
   65MOL0     H 8732  -1.052   4.644   5.038 -1.4069 -0.4626 -0.8546
   65MOL0     H 8733  -1.266   4.566   5.068 -0.0925  1.4789 -1.2877
   65MOL0     H 8734  -1.250   4.714   5.182 -1.0273 -1.2955  1.3545
   65MOL0     H 8735  -1.304   4.430   5.483 -1.5684  1.3415  0.6500
   65MOL0     H 8736  -1.477   4.257   5.511  0.5186  0.8011  0.6954
   65MOL0     H 8737  -2.009   4.308   5.505 -1.8411 -0.1703 -0.6478
   65MOL0     H 8738  -2.217   4.201   5.526 -0.0716  1.9213 -0.6838
   65MOL0     H 8739  -2.359   3.972   5.518  0.4540 -1.1645 -0.9540
   65MOL0     H 8740  -2.423   4.138   5.475 -0.4827 -0.4543 -0.6104
   65MOL0     H 8741  -2.494   3.878   5.359  0.6192  0.6844  1.0150
   65MOL0     H 8742  -2.585   3.934   5.491 -2.4682 -3.8814 -2.8680
   65MOL0     H 8743  -2.570   4.129   5.245  0.8965  0.3596 -0.1609
   65MOL0     H 8744  -2.628   3.968   5.206  1.8238  2.2518 -2.8658
   65MOL0     H 8745  -2.761   4.142   5.418 -1.9812  1.6511 -0.2056
   65MOL0     H 8746  -2.823   3.991   5.351 -3.3089  2.8986 -0.0503
   65MOL0     H 8747  -2.838   4.111   5.120 -3.7948 -0.9755  0.2515
   65MOL0     H 8748  -2.768   4.253   5.207 -1.6245  0.3244 -0.3502
   65MOL0     H 8749  -3.028   4.116   5.270  2.4084 -2.9663 -0.8676
   65MOL0     H 8750  -2.958   4.262   5.340  0.2392 -3.0977  1.0909
   65MOL0     H 8751  -3.020   4.231   5.039 -1.0341  2.1774 -1.8663
   65MOL0     H 8752  -2.985   4.385   5.120  0.3827 -1.1278 -0.8648
   65MOL0     H 8753  -3.234   4.342   5.076 -2.7926 -1.6351  1.7766
   65MOL0     H 8754  -3.232   4.241   5.216  2.0273 -2.1500  0.1422
   65MOL0     H 8755  -2.173   4.040   5.130 -2.7272  2.6415 -0.7086
   65MOL0     H 8756  -1.944   4.161   5.104 -0.4634  2.8919 -2.3072
   65MOL0     H 8757  -1.661   4.419   5.156  1.2951 -0.7286 -0.7914
   65MOL0     H 8758  -1.456   4.568   5.132  0.5435 -1.8641 -1.4031
   65MOL0     H 8759   0.398   5.508   5.808 -0.8314  0.6764 -0.3544
   65MOL0     H 8760   0.640   5.474   5.858 -2.3944  1.4403  0.7688
   65MOL0     H 8761   0.917   4.944   5.736  0.4124 -1.3366  0.2868
   65MOL0     H 8762   1.124   4.822   5.809  0.5159  1.4340 -2.0590
   65MOL0     H 8763   1.440   5.082   6.039 -2.2032  0.2339  0.9948
   65MOL0     H 8764   1.460   5.031   5.863 -0.6893  3.7506  1.2426
   65MOL0     H 8765   1.527   4.872   6.120  0.5636  0.3376 -0.0691
   65MOL0     H 8766   1.637   4.973   6.046  0.7636 -0.7846  0.9532
   65MOL0     H 8767   1.709   4.781   5.936  0.9264  1.3033  1.2533
   65MOL0     H 8768   1.582   4.831   5.822 -1.5457  1.5367  0.3773
   65MOL0     H 8769   1.521   4.635   6.059  0.3350  1.5141  0.0695
   65MOL0     H 8770   1.411   4.699   5.926 -0.6572  0.8856  0.8145
   65MOL0     H 8771   1.642   4.419   5.726 -2.7397  1.5841 -1.3399
   65MOL0     H 8772   1.249   5.186   6.018 -0.3063  0.4477 -1.6411
   65MOL0     H 8773   0.948   5.365   6.025  1.2191  0.4806  2.1279
   65MOL0     H 8774   1.119   5.354   6.037 -0.4822 -1.7237  2.5811
   65MOL0     H 8775   1.042   5.402   5.878 -0.8240 -0.7492  0.4429
   66MOL0     O 8776  11.016  11.045  10.362  0.3900 -0.0688  0.6773
   66MOL0     C 8777  11.018  11.068  10.244  0.9355  0.2207 -0.0237
   66MOL0     O 8778  10.927  11.152  10.176  0.0821  0.7068 -0.4921
   66MOL0     C 8779  10.816  11.190  10.247 -0.6544 -0.4554 -0.3977
   66MOL0     C 8780  10.776  11.320  10.253 -0.9048 -0.0971  0.1498
   66MOL0     C 8781  10.662  11.356  10.326  0.4020 -1.0613  0.1241
   66MOL0     C 8782  10.580  11.261  10.387  0.4906 -0.9057  0.0997
   66MOL0     O 8783  10.463  11.287  10.469  0.3162  0.8091  0.9156
   66MOL0     C 8784  10.409  11.420  10.484 -1.6893  0.8975 -1.0384
   66MOL0     C 8785  10.264  11.419  10.521  0.4914 -0.2143 -0.3979
   66MOL0     C 8786  10.201  11.308  10.441  0.0025 -0.4804 -0.8332
   66MOL0     C 8787  10.052  11.325  10.419 -0.0718 -0.1950 -0.5764
   66MOL0     C 8788  10.017  11.391  10.280  0.1690 -0.2072 -0.2090
   66MOL0     C 8789  10.086  11.525  10.267  0.4826 -0.0708 -0.0202
   66MOL0     C 8790  10.083  11.581  10.125 -0.1016 -0.2274 -0.4842
   66MOL0     C 8791   9.994  11.693  10.100  0.8484 -0.4754  0.4934
   66MOL0     N 8792  10.038  11.816  10.169 -0.3926 -0.1457  0.7017
   66MOL0     C 8793  10.003  11.870  10.291 -0.1717  0.5974  0.2523
   66MOL0     C 8794  10.087  11.976  10.303  0.3093  0.8181  0.6685
   66MOL0     C 8795  10.089  12.071  10.415 -0.9364  0.3780 -0.5846
   66MOL0     C 8796  10.197  12.041  10.524  0.1351  0.8063  0.1592
   66MOL0     C 8797  10.219  11.891  10.576  0.1072 -0.9715  0.2063
   66MOL0     C 8798  10.316  11.903  10.691  0.1760 -0.3633 -0.0984
   66MOL0     O 8799  10.383  11.785  10.753 -0.1233 -0.4297 -0.2187
   66MOL0     C 8800  10.499  11.723  10.704  0.8810  0.5625  0.0404
   66MOL0     C 8801  10.546  11.606  10.768  0.3161 -0.4208  0.7535
   66MOL0     C 8802  10.668  11.543  10.726 -0.1909  0.7286 -0.1951
   66MOL0     C 8803  10.741  11.596  10.613  0.0120  0.5097 -0.3155
   66MOL0     C 8804  10.859  11.529  10.576  0.0318  0.4574  0.0424
   66MOL0     O 8805  10.908  11.561  10.450 -0.2159 -0.5465  0.1919
   66MOL0     C 8806  11.022  11.505  10.402 -0.0242 -0.1823  0.3705
   66MOL0     C 8807  11.076  11.588  10.311  0.2851  0.4595 -0.7488
   66MOL0     C 8808  11.196  11.559  10.247  0.1990 -0.1465 -0.4451
   66MOL0     C 8809  11.255  11.429  10.270 -0.6781  0.1899 -0.1298
   66MOL0     O 8810  11.377  11.410  10.214  0.7033 -0.4053  0.0279
   66MOL0     C 8811  11.430  11.282  10.209 -0.9176 -0.7991  0.3352
   66MOL0     C 8812  11.565  11.325  10.152 -1.0345 -0.6295 -0.4852
   66MOL0     C 8813  11.642  11.190  10.119  0.9255 -0.6967 -0.1317
   66MOL0     C 8814  11.780  11.191  10.174 -0.2743 -0.4389 -0.0877
   66MOL0     C 8815  11.870  11.085  10.103  0.9682  0.0844  0.2165
   66MOL0     C 8816  12.006  11.050  10.160 -0.1493 -0.4612  0.0052
   66MOL0     C 8817  12.101  11.169  10.179 -0.2295 -1.0560 -0.2917
   66MOL0     C 8818  12.238  11.127  10.231  0.2664 -0.6773  0.1755
   66MOL0    Cl 8819  12.321  11.030  10.103 -0.2511  0.5141  0.3102
   66MOL0     C 8820  11.183  11.336  10.348 -0.1084 -0.2164 -1.0140
   66MOL0     C 8821  11.067  11.375  10.419 -0.0295 -0.1238  0.1417
   66MOL0     O 8822  10.898  11.437  10.644 -0.2491 -0.5718 -0.8331
   66MOL0     C 8823  10.677  11.685  10.544  0.3218 -0.5545  0.4099
   66MOL0     C 8824  10.565  11.755  10.584 -0.7305 -1.3018 -0.4420
   66MOL0     N 8825  10.160  11.985  10.182 -0.1507 -0.9160 -0.5116
   66MOL0     N 8826  10.130  11.894  10.105 -0.0954 -0.8709  0.3248
   66MOL0     C 8827  10.615  11.132  10.371 -0.1338  0.4649  0.3014
   66MOL0     C 8828  10.732  11.097  10.299 -0.0874 -0.2318  0.2308
   66MOL0     C 8829  11.138  11.031  10.162 -0.2478 -0.2322  0.0502
   66MOL0     C 8830  11.129  11.072  10.025  0.8282  0.6411 -1.4059
   66MOL0     C 8831  11.230  11.027   9.934 -0.0431  0.1958 -0.6244
   66MOL0     C 8832  11.337  10.949   9.981 -0.0141 -0.5210  0.8901
   66MOL0     O 8833  11.431  10.908   9.886  0.4518 -0.4489 -0.0559
   66MOL0     C 8834  11.565  10.882   9.931 -0.3063 -0.2566  0.2761
   66MOL0     C 8835  11.636  10.819   9.800 -0.2516 -0.6505  0.2371
   66MOL0     C 8836  11.784  10.806   9.832 -0.0441 -0.0524 -0.1204
   66MOL0     C 8837  11.852  10.727   9.720 -0.1457 -0.8492 -0.0944
   66MOL0     C 8838  11.997  10.743   9.736  0.8968 -1.0590 -0.0207
   66MOL0     C 8839  12.107  10.764   9.760 -0.8206 -0.6156  0.0683
   66MOL0     C 8840  11.351  10.914  10.113 -0.2828 -0.1027 -0.1755
   66MOL0     C 8841  11.257  10.962  10.210  0.0733  0.6946 -0.2815
   66MOL0     C 8842  11.274  10.917  10.350  0.6737 -0.0007  0.4851
   66MOL0     H 8843  10.834  11.401  10.210 -0.6404  0.6811  1.8939
   66MOL0     H 8844  10.637  11.461  10.335  1.3633 -0.6856 -1.2253
   66MOL0     H 8845  10.475  11.462  10.560  0.7167 -0.0161 -2.4950
   66MOL0     H 8846  10.427  11.474  10.391  1.2971  1.0957 -0.4314
   66MOL0     H 8847  10.211  11.511  10.496  1.6180  0.0255 -2.0654
   66MOL0     H 8848  10.263  11.403  10.629  2.6367 -3.9683 -0.7700
   66MOL0     H 8849  10.211  11.209  10.487 -3.8222 -0.6613 -0.0348
   66MOL0     H 8850  10.254  11.298  10.346  0.5141  1.2829 -0.7738
   66MOL0     H 8851   9.998  11.230  10.415 -2.9351  1.3309 -0.5300
   66MOL0     H 8852  10.017  11.380  10.508  1.3941  3.1080 -1.8723
   66MOL0     H 8853  10.053  11.321  10.205  0.2314 -1.6502  1.1106
   66MOL0     H 8854   9.909  11.399  10.267 -0.0991  3.8216  2.5444
   66MOL0     H 8855  10.049  11.602  10.336 -0.1934 -0.4861  0.0915
   66MOL0     H 8856  10.191  11.511  10.293  0.7970 -1.9126 -2.0854
   66MOL0     H 8857  10.044  11.501  10.061 -1.8045  1.9594 -2.3400
   66MOL0     H 8858  10.185  11.604  10.094  0.1190  1.0756  1.0875
   66MOL0     H 8859   9.982  11.714   9.993 -0.3406 -3.6161 -0.0792
   66MOL0     H 8860   9.897  11.669  10.145  0.1752 -1.3991 -1.3338
   66MOL0     H 8861   9.924  11.832  10.355 -1.5484  0.7702 -1.2803
   66MOL0     H 8862  10.110  12.173  10.382 -0.8315  0.5024 -0.1480
   66MOL0     H 8863   9.992  12.081  10.465 -0.8923 -0.0159 -0.4110
   66MOL0     H 8864  10.289  12.080  10.479 -1.2979  2.6546 -1.3399
   66MOL0     H 8865  10.169  12.115  10.599 -1.1432 -0.0767  0.5924
   66MOL0     H 8866  10.252  11.817  10.502 -1.4434 -0.0652 -1.4645
   66MOL0     H 8867  10.125  11.848  10.610 -0.2095  0.5878  1.3898
   66MOL0     H 8868  10.269  11.949  10.779  3.0710 -1.0208  1.9541
   66MOL0     H 8869  10.395  11.972  10.662 -0.3842 -0.9023 -3.3040
   66MOL0     H 8870  10.498  11.570  10.858 -1.6018 -1.3477 -0.5868
   66MOL0     H 8871  10.718  11.470  10.788  0.6989  1.6376  0.1878
   66MOL0     H 8872  11.034  11.684  10.285 -1.1101  0.2299  0.5521
   66MOL0     H 8873  11.251  11.637  10.197  2.1672  0.0360  1.8154
   66MOL0     H 8874  11.440  11.213  10.294  1.2083 -2.2131 -0.9704
   66MOL0     H 8875  11.367  11.220  10.145 -2.3447 -0.0987  1.0263
   66MOL0     H 8876  11.560  11.387  10.061 -0.4112  0.8457  0.4411
   66MOL0     H 8877  11.617  11.386  10.227 -0.6927 -1.0019 -0.4128
   66MOL0     H 8878  11.585  11.108  10.163  3.6183 -1.9075  1.3325
   66MOL0     H 8879  11.653  11.178  10.011 -1.9483  1.0352 -0.7245
   66MOL0     H 8880  11.784  11.154  10.277  3.4076 -2.1998 -0.6741
   66MOL0     H 8881  11.829  11.288  10.171  0.5128 -0.8320 -0.2417
   66MOL0     H 8882  11.878  11.127  10.002  0.7099  3.4462  1.4859
   66MOL0     H 8883  11.813  10.991  10.101  0.2838  0.4934  0.1117
   66MOL0     H 8884  11.982  10.991  10.249 -2.7717 -1.3371 -1.1834
   66MOL0     H 8885  12.059  10.985  10.090  1.2912  0.7234 -0.0564
   66MOL0     H 8886  12.061  11.245  10.247  2.0116 -1.0956  1.1791
   66MOL0     H 8887  12.113  11.226  10.086  0.8549  2.3184  1.7511
   66MOL0     H 8888  12.295  11.217  10.257  1.6234 -1.1771 -0.9628
   66MOL0     H 8889  12.223  11.067  10.321  0.9012  0.3445  0.9900
   66MOL0     H 8890  11.216  11.234  10.359 -1.5602 -0.5901  0.1869
   66MOL0     H 8891  11.006  11.307  10.477 -3.4951  2.0446 -0.6615
   66MOL0     H 8892  10.731  11.728  10.460  1.3514  0.1847  1.4026
   66MOL0     H 8893  10.529  11.836  10.522  0.0248 -1.4297 -1.0696
   66MOL0     H 8894  10.547  11.060  10.414  1.6617  1.0540  4.5695
   66MOL0     H 8895  10.752  10.990  10.293 -0.7449 -0.5321  2.5579
   66MOL0     H 8896  11.050  11.133   9.982 -1.4198  1.5544  3.4305
   66MOL0     H 8897  11.243  11.071   9.835  0.3995  0.5596 -0.4079
   66MOL0     H 8898  11.581  10.814  10.015  0.8021  1.5358  1.6012
   66MOL0     H 8899  11.623  10.973   9.950 -0.8712  0.2546 -0.3527
   66MOL0     H 8900  11.637  10.879   9.709  1.2742 -1.3271 -0.2078
   66MOL0     H 8901  11.594  10.719   9.783  2.0003 -1.6763  0.2872
   66MOL0     H 8902  11.799  10.754   9.927  1.1076  0.4143 -0.0265
   66MOL0     H 8903  11.827  10.906   9.845  3.6204 -1.3490 -0.8630
   66MOL0     H 8904  11.821  10.623   9.731  0.0323 -0.9658 -0.6462
   66MOL0     H 8905  11.816  10.766   9.625 -0.3214  2.9799  1.3700
   66MOL0     H 8906  12.209  10.783   9.788 -0.8590 -1.6535  0.9626
   66MOL0     H 8907  11.414  10.831  10.144 -0.4331 -0.2572 -0.2846
   66MOL0     H 8908  11.376  10.879  10.366  0.6786 -0.7623 -1.1134
   66MOL0     H 8909  11.262  10.996  10.425  1.7065 -1.2552  2.0436
   66MOL0     H 8910  11.202  10.836  10.364  2.2006 -1.4408  0.2981
   67MOL0     O 8911   3.675   9.668   4.239  0.4654 -0.1019 -0.2825
   67MOL0     C 8912   3.665   9.598   4.340  0.1379 -0.5210 -0.5832
   67MOL0     O 8913   3.545   9.553   4.390  0.1496 -0.3587  0.6090
   67MOL0     C 8914   3.435   9.595   4.326 -0.0809 -0.0832  1.2290
   67MOL0     C 8915   3.386   9.732   4.331 -0.2969 -0.0623  0.8614
   67MOL0     C 8916   3.267   9.774   4.270 -0.5482 -0.7033  0.0539
   67MOL0     C 8917   3.200   9.681   4.188 -0.1193 -0.7105  0.7205
   67MOL0     O 8918   3.078   9.712   4.134 -0.1704 -0.8033 -0.2861
   67MOL0     C 8919   2.988   9.817   4.167  0.3640 -0.1500 -0.8084
   67MOL0     C 8920   2.870   9.813   4.075  1.1545  0.0074 -0.6485
   67MOL0     C 8921   2.742   9.900   4.125 -0.8624  0.3939 -0.2259
   67MOL0     C 8922   2.637   9.877   4.021 -0.5715  0.0025 -0.1822
   67MOL0     C 8923   2.525   9.992   4.022 -0.3119  0.1421  0.0913
   67MOL0     C 8924   2.400   9.954   3.943  0.0819  0.4298  0.7581
   67MOL0     C 8925   2.303  10.059   3.938  0.5063  0.2374  0.2442
   67MOL0     C 8926   2.175   9.997   3.871 -0.3814 -0.1176 -0.5072
   67MOL0     N 8927   2.079   9.921   3.962 -1.6644 -0.2584  0.1739
   67MOL0     C 8928   1.951   9.926   3.923 -0.2948 -0.0972  1.0613
   67MOL0     C 8929   1.891   9.831   3.996 -0.5736 -0.7594 -0.0569
   67MOL0     C 8930   1.745   9.789   3.990  0.2821 -0.7139 -0.9908
   67MOL0     C 8931   1.668   9.840   4.117 -0.0274  0.1509  0.3204
   67MOL0     C 8932   1.526   9.782   4.128  0.4109  0.6376  0.5104
   67MOL0     C 8933   1.457   9.831   4.262 -0.3387 -0.2551  0.0310
   67MOL0     O 8934   1.316   9.842   4.247  1.2416 -0.5255 -0.6864
   67MOL0     C 8935   1.235   9.821   4.356  1.1528 -0.3543  1.0067
   67MOL0     C 8936   1.277   9.827   4.484 -0.4468 -0.2396 -0.0295
   67MOL0     C 8937   1.190   9.834   4.596 -0.4975  0.5440 -0.0922
   67MOL0     C 8938   1.050   9.812   4.579  0.0832 -0.4153 -0.2908
   67MOL0     C 8939   0.956   9.808   4.687  0.1980  0.5254  0.0888
   67MOL0     O 8940   0.828   9.838   4.651  0.2238 -0.3924  0.6922
   67MOL0     C 8941   0.724   9.840   4.734 -0.5006 -0.2373  0.0689
   67MOL0     C 8942   0.607   9.782   4.689  1.1745  0.4954  1.2384
   67MOL0     C 8943   0.491   9.774   4.771 -0.6615 -0.4816  0.9030
   67MOL0     C 8944   0.499   9.835   4.897  0.7176 -0.2742 -0.1762
   67MOL0     O 8945   0.391   9.839   4.992 -0.3112 -0.0075 -0.2138
   67MOL0     C 8946   0.281   9.754   4.986 -0.0680 -0.3355 -0.0092
   67MOL0     C 8947   0.210   9.775   5.123  0.0724 -0.1097 -0.1970
   67MOL0     C 8948   0.145   9.909   5.123 -0.7521 -0.1814 -0.8898
   67MOL0     C 8949   0.071   9.922   5.251 -0.7438 -0.5163 -0.1554
   67MOL0     C 8950  -0.032  10.038   5.252 -0.4046  0.1368  0.4139
   67MOL0     C 8951  -0.135  10.016   5.360  0.7999  0.1154  0.5629
   67MOL0     C 8952  -0.246  10.120   5.373  0.3833  1.0367  1.1662
   67MOL0     C 8953  -0.336  10.110   5.489  0.5203  0.7514 -0.2178
   67MOL0    Cl 8954  -0.254  10.130   5.649  0.1413 -0.3360  0.1009
   67MOL0     C 8955   0.613   9.903   4.938  0.7083  0.7811  0.1957
   67MOL0     C 8956   0.731   9.901   4.861  0.0624  0.5316  0.0910
   67MOL0     O 8957   0.996   9.779   4.800 -0.4546 -0.5159  0.5154
   67MOL0     C 8958   1.008   9.787   4.449  0.0313 -0.0088 -0.2842
   67MOL0     C 8959   1.099   9.800   4.337  0.9037 -0.3542  0.2126
   67MOL0     N 8960   1.992   9.765   4.063  0.6609 -0.6098 -0.3445
   67MOL0     N 8961   2.110   9.821   4.045  0.1644  0.1855 -0.4600
   67MOL0     C 8962   3.253   9.550   4.180 -0.4294 -0.7288  0.1204
   67MOL0     C 8963   3.368   9.507   4.248  0.2821 -0.3091  0.4722
   67MOL0     C 8964   3.788   9.552   4.412  0.2957  0.8164 -0.1645
   67MOL0     C 8965   3.775   9.524   4.549 -0.3307  0.5693 -0.0748
   67MOL0     C 8966   3.888   9.502   4.635  0.0503 -0.5065 -0.3810
   67MOL0     C 8967   4.012   9.494   4.579 -0.7026  0.5933  0.6115
   67MOL0     O 8968   4.124   9.485   4.660 -0.6952  0.5308 -0.4735
   67MOL0     C 8969   4.126   9.474   4.803 -0.8322  0.2224  0.4348
   67MOL0     C 8970   4.267   9.460   4.865  0.3655  0.9517 -0.1641
   67MOL0     C 8971   4.351   9.349   4.803  0.1225  1.2051 -0.5031
   67MOL0     C 8972   4.464   9.306   4.892 -0.3361 -0.5175 -0.3613
   67MOL0     C 8973   4.509   9.172   4.870  0.2949 -0.1417  0.8630
   67MOL0     C 8974   4.555   9.066   4.826 -0.2478 -0.3558  0.0325
   67MOL0     C 8975   4.024   9.501   4.436  0.2082  0.0318 -0.4939
   67MOL0     C 8976   3.917   9.534   4.356  0.3047 -0.4376 -0.2781
   67MOL0     C 8977   3.940   9.550   4.208  0.3796  0.0785 -0.4429
   67MOL0     H 8978   3.431   9.817   4.380 -4.7628  3.7052 -0.8529
   67MOL0     H 8979   3.220   9.870   4.287 -1.0820 -1.3112  2.2985
   67MOL0     H 8980   2.957   9.806   4.271  0.9761  1.3212 -0.4449
   67MOL0     H 8981   3.026   9.919   4.156  2.5484 -0.9632 -1.4457
   67MOL0     H 8982   2.834   9.713   4.050  1.4055  0.2077 -1.8878
   67MOL0     H 8983   2.897   9.851   3.976 -2.5955 -0.8919 -2.1733
   67MOL0     H 8984   2.768  10.006   4.138  3.1643 -0.5124  0.4713
   67MOL0     H 8985   2.715   9.866   4.226 -1.1874 -1.9669 -1.0555
   67MOL0     H 8986   2.672   9.865   3.918 -1.8303  1.2077 -0.7898
   67MOL0     H 8987   2.584   9.787   4.054 -2.4494  1.1053  0.0137
   67MOL0     H 8988   2.497  10.019   4.124  0.1049  1.9175 -0.2258
   67MOL0     H 8989   2.559  10.086   3.978  1.2525 -1.1813 -1.7194
   67MOL0     H 8990   2.435   9.918   3.845  5.1573 -3.2930  3.4983
   67MOL0     H 8991   2.358   9.866   3.993  2.7977 -2.7103 -1.9908
   67MOL0     H 8992   2.345  10.145   3.886  1.6661 -0.1690  0.4768
   67MOL0     H 8993   2.272  10.101   4.034 -0.9803 -1.9674  0.8050
   67MOL0     H 8994   2.122  10.084   3.833  0.5094 -0.4451 -2.6777
   67MOL0     H 8995   2.192   9.942   3.779 -2.0318 -2.7483  0.6474
   67MOL0     H 8996   1.901  10.000   3.861 -1.1054 -2.9887 -2.0896
   67MOL0     H 8997   1.709   9.825   3.894  0.4775  0.8111 -0.5157
   67MOL0     H 8998   1.742   9.680   3.999 -0.8831 -0.5695  0.9098
   67MOL0     H 8999   1.718   9.803   4.207  2.3765  1.9864 -0.1535
   67MOL0     H 9000   1.655   9.948   4.121  2.2622  0.4359  3.4442
   67MOL0     H 9001   1.534   9.674   4.118  2.7878  0.7006  1.0763
   67MOL0     H 9002   1.467   9.827   4.047 -0.5143 -0.2456  0.6724
   67MOL0     H 9003   1.508   9.920   4.300  0.1952 -1.1569  1.4640
   67MOL0     H 9004   1.474   9.749   4.332 -2.3748 -1.2893 -0.5890
   67MOL0     H 9005   1.378   9.861   4.506 -2.0703  3.6627  2.2743
   67MOL0     H 9006   1.224   9.860   4.695  2.8314 -0.1858 -0.9050
   67MOL0     H 9007   0.590   9.740   4.591  1.3581 -1.1322  1.8679
   67MOL0     H 9008   0.399   9.721   4.749  1.5734 -3.7062 -1.7526
   67MOL0     H 9009   0.214   9.781   4.903  3.4319 -0.2082 -3.0419
   67MOL0     H 9010   0.306   9.648   4.974 -3.4242 -1.7014  3.0280
   67MOL0     H 9011   0.145   9.688   5.132  2.7488 -2.2340 -0.2124
   67MOL0     H 9012   0.287   9.767   5.200  0.2951 -0.5892 -0.4639
   67MOL0     H 9013   0.226   9.983   5.115 -1.7396  0.7425 -3.4682
   67MOL0     H 9014   0.073   9.918   5.041  2.3152  0.6554 -3.6969
   67MOL0     H 9015   0.144   9.946   5.328  0.2213  1.6660 -1.6391
   67MOL0     H 9016   0.031   9.826   5.286  2.2522 -0.8862  2.7539
   67MOL0     H 9017  -0.082  10.026   5.155  0.3722  3.8149 -0.6060
   67MOL0     H 9018   0.010  10.137   5.274 -3.2746  1.9284 -1.4068
   67MOL0     H 9019  -0.158   9.909   5.356  1.7276 -0.2609  3.2219
   67MOL0     H 9020  -0.075  10.027   5.451  0.6073  0.5456  0.6412
   67MOL0     H 9021  -0.317  10.107   5.291 -0.5467  1.6665  1.8550
   67MOL0     H 9022  -0.196  10.217   5.366  1.2114  0.5172 -2.9727
   67MOL0     H 9023  -0.418  10.182   5.489 -0.5102 -0.2906  2.7255
   67MOL0     H 9024  -0.371  10.007   5.497  0.1461  0.9722  1.0946
   67MOL0     H 9025   0.625   9.946   5.036 -0.4902  2.0079 -0.1695
   67MOL0     H 9026   0.827   9.930   4.903  0.8591 -2.8929  0.9373
   67MOL0     H 9027   0.911   9.749   4.418 -0.3025 -2.5282  3.2570
   67MOL0     H 9028   1.061   9.787   4.236 -1.1812 -0.5096  0.9846
   67MOL0     H 9029   3.215   9.474   4.112  0.7104 -0.7953 -0.4732
   67MOL0     H 9030   3.408   9.408   4.232 -0.9408 -0.5309 -1.7353
   67MOL0     H 9031   3.679   9.524   4.600 -2.0276 -3.0795 -2.8428
   67MOL0     H 9032   3.873   9.494   4.742 -1.1281  0.7005 -0.4265
   67MOL0     H 9033   4.060   9.391   4.831  1.1650 -2.4269 -2.0751
   67MOL0     H 9034   4.093   9.570   4.842 -1.2745  0.5875 -0.7944
   67MOL0     H 9035   4.251   9.439   4.971 -2.2363  0.5293 -0.5687
   67MOL0     H 9036   4.318   9.554   4.844  1.8501  0.3545  0.6749
   67MOL0     H 9037   4.394   9.378   4.707 -0.6768 -0.6132 -1.4741
   67MOL0     H 9038   4.287   9.260   4.796  0.0671  0.9711  1.9684
   67MOL0     H 9039   4.558   9.357   4.875  0.0321 -1.0881 -0.0709
   67MOL0     H 9040   4.431   9.316   4.996  3.4406  1.4520  0.8003
   67MOL0     H 9041   4.604   8.975   4.796  0.7762 -0.6980  2.5318
   67MOL0     H 9042   4.126   9.516   4.403  0.0058  0.8318 -0.7797
   67MOL0     H 9043   3.854   9.512   4.152  1.5882 -3.0588 -0.3425
   67MOL0     H 9044   3.953   9.657   4.186 -1.0876  0.5726  0.9138
   67MOL0     H 9045   4.027   9.486   4.190  0.2329 -0.7421  1.5086
   68MOL0     O 9046   2.294   1.029   4.580 -0.1187  0.0668 -0.7725
   68MOL0     C 9047   2.350   0.958   4.499  0.8043 -0.3264  0.0194
   68MOL0     O 9048   2.436   1.001   4.405 -0.0865  0.4570 -0.8993
   68MOL0     C 9049   2.501   1.117   4.431 -0.2488  0.3470 -0.5097
   68MOL0     C 9050   2.638   1.111   4.474  0.6602  0.7903  0.1190
   68MOL0     C 9051   2.714   1.228   4.482  0.1524  0.0360 -0.2741
   68MOL0     C 9052   2.642   1.354   4.462  0.2735 -0.1876 -0.1808
   68MOL0     O 9053   2.694   1.481   4.473  0.0188  0.2796 -0.1815
   68MOL0     C 9054   2.829   1.494   4.517  0.2200 -0.5131 -0.5774
   68MOL0     C 9055   2.872   1.639   4.544  0.9171  0.0817 -0.1037
   68MOL0     C 9056   2.904   1.714   4.409  0.4605  0.6154  0.2456
   68MOL0     C 9057   2.948   1.864   4.446  0.0167  0.1010  0.2738
   68MOL0     C 9058   2.830   1.948   4.481 -0.1952  0.3596  0.5032
   68MOL0     C 9059   2.872   2.087   4.532  0.6863 -0.3863  0.6847
   68MOL0     C 9060   2.754   2.190   4.528  0.7786  0.5338 -0.2857
   68MOL0     C 9061   2.785   2.302   4.628  0.2736 -0.3514 -0.0914
   68MOL0     N 9062   2.914   2.367   4.598 -1.0544  0.8608  0.3484
   68MOL0     C 9063   3.016   2.379   4.695 -1.1314 -0.8994  0.2681
   68MOL0     C 9064   3.104   2.458   4.634 -0.8933  0.3650 -0.3201
   68MOL0     C 9065   3.239   2.500   4.701  0.1825 -0.3207  0.2924
   68MOL0     C 9066   3.351   2.402   4.726 -0.1201  0.2980  0.7284
   68MOL0     C 9067   3.349   2.292   4.615 -0.7325 -0.4154  0.0753
   68MOL0     C 9068   3.477   2.219   4.601  0.0501  0.0146 -0.3493
   68MOL0     O 9069   3.580   2.317   4.565  0.4154 -0.0215 -0.2770
   68MOL0     C 9070   3.708   2.286   4.584  0.1329 -0.1780 -1.5968
   68MOL0     C 9071   3.791   2.404   4.585  0.1855  0.1009 -0.7036
   68MOL0     C 9072   3.926   2.393   4.606 -0.7302 -0.3464  0.7243
   68MOL0     C 9073   3.985   2.258   4.612 -0.1924  0.3905 -0.5712
   68MOL0     C 9074   4.132   2.251   4.644  0.7631 -0.0185 -0.1876
   68MOL0     O 9075   4.197   2.365   4.654 -0.6222 -0.0879  0.1524
   68MOL0     C 9076   4.337   2.354   4.645 -0.2170  0.1314  1.0043
   68MOL0     C 9077   4.422   2.305   4.743 -0.3861  0.3058  0.7342
   68MOL0     C 9078   4.559   2.283   4.716 -0.5391 -0.2087  0.0862
   68MOL0     C 9079   4.608   2.325   4.591 -0.3835  0.3380  0.3712
   68MOL0     O 9080   4.740   2.295   4.549  0.0829  0.7666 -0.5781
   68MOL0     C 9081   4.845   2.236   4.639 -0.7131 -1.0937  0.3817
   68MOL0     C 9082   4.976   2.248   4.574 -0.7501 -0.2391 -0.4150
   68MOL0     C 9083   5.045   2.113   4.597 -0.5384 -0.0122  0.0439
   68MOL0     C 9084   5.181   2.100   4.520 -0.1321  0.1198 -0.0891
   68MOL0     C 9085   5.292   2.197   4.569 -0.5450  0.3738  0.2072
   68MOL0     C 9086   5.413   2.168   4.480  0.5190 -0.5876 -0.3276
   68MOL0     C 9087   5.524   2.275   4.481  0.0899 -0.4414  0.4307
   68MOL0     C 9088   5.611   2.256   4.358 -0.6281 -0.0602 -0.6949
   68MOL0    Cl 9089   5.748   2.379   4.397 -0.5803  0.1105 -0.0300
   68MOL0     C 9090   4.521   2.381   4.500 -0.8393 -0.7548  0.3705
   68MOL0     C 9091   4.385   2.387   4.518 -0.1322  0.5580  1.5344
   68MOL0     O 9092   4.174   2.136   4.660  0.5273 -0.0343  0.2543
   68MOL0     C 9093   3.909   2.145   4.612  0.3160  0.4353  0.3372
   68MOL0     C 9094   3.764   2.160   4.599 -0.6807  0.3133  0.0530
   68MOL0     N 9095   3.065   2.488   4.502  0.0862  0.1763  0.3538
   68MOL0     N 9096   2.947   2.436   4.483 -0.6771 -0.4579 -0.5860
   68MOL0     C 9097   2.502   1.358   4.429 -0.4254  0.0239 -0.0163
   68MOL0     C 9098   2.435   1.239   4.410 -0.2152 -0.2250  0.5373
   68MOL0     C 9099   2.304   0.812   4.535 -0.0070 -0.1338  0.8817
   68MOL0     C 9100   2.168   0.781   4.563 -0.8374  0.9603 -0.6600
   68MOL0     C 9101   2.120   0.658   4.592  0.8618 -0.3233  0.1109
   68MOL0     C 9102   2.206   0.550   4.576  0.0878  0.6636  0.1195
   68MOL0     O 9103   2.153   0.416   4.602 -0.5329 -1.2695 -0.2147
   68MOL0     C 9104   2.239   0.307   4.621  0.2677 -0.4178 -0.0133
   68MOL0     C 9105   2.261   0.228   4.483  0.5725  0.1058  0.0947
   68MOL0     C 9106   2.139   0.142   4.446  0.0826  0.2371  0.0252
   68MOL0     C 9107   2.107   0.026   4.542 -0.0740  0.5121 -0.0474
   68MOL0     C 9108   2.218  -0.037   4.612  0.5054  0.5678  0.2148
   68MOL0     C 9109   2.308  -0.102   4.662  0.0413  0.0664 -0.1319
   68MOL0     C 9110   2.336   0.569   4.541 -0.2279  0.0996  0.5062
   68MOL0     C 9111   2.391   0.694   4.528 -0.3323 -0.0062  0.3258
   68MOL0     C 9112   2.538   0.704   4.492 -0.8677  0.4118  0.5855
   68MOL0     H 9113   2.704   1.025   4.481 -0.9222 -0.7635 -2.5014
   68MOL0     H 9114   2.817   1.221   4.515 -0.0740  0.1227  0.4708
   68MOL0     H 9115   2.839   1.440   4.612 -1.2302 -0.7594 -0.5407
   68MOL0     H 9116   2.890   1.447   4.440  0.2824 -1.0438 -0.2062
   68MOL0     H 9117   2.958   1.637   4.612 -0.3894 -1.8327  1.6238
   68MOL0     H 9118   2.791   1.682   4.603  1.2095 -0.6367  0.8547
   68MOL0     H 9119   2.820   1.709   4.338  0.5304 -2.4325  0.2618
   68MOL0     H 9120   2.985   1.653   4.367 -0.6228 -0.7316  0.0481
   68MOL0     H 9121   3.007   1.866   4.538 -0.4155  1.7159  0.5440
   68MOL0     H 9122   3.010   1.927   4.381  0.4014  0.1211  0.6551
   68MOL0     H 9123   2.781   1.958   4.383  0.2897  0.1499  0.2347
   68MOL0     H 9124   2.771   1.899   4.559  0.2071  0.4691  0.8781
   68MOL0     H 9125   2.901   2.075   4.637 -1.1609 -1.3530  1.1130
   68MOL0     H 9126   2.957   2.126   4.475  0.1435  1.7007  1.2088
   68MOL0     H 9127   2.658   2.145   4.554  1.0128  0.3415  0.2533
   68MOL0     H 9128   2.746   2.230   4.426  0.9595  1.6568  0.1334
   68MOL0     H 9129   2.713   2.384   4.625  1.9280  1.2568  1.3656
   68MOL0     H 9130   2.777   2.279   4.735  0.5353 -0.1160 -0.0176
   68MOL0     H 9131   3.035   2.354   4.799  3.2425  1.1292  0.1624
   68MOL0     H 9132   3.272   2.581   4.635 -5.1628  1.2711 -0.9224
   68MOL0     H 9133   3.218   2.549   4.797  2.8827  2.4302 -0.3629
   68MOL0     H 9134   3.442   2.461   4.733  0.0811  0.7075 -3.1014
   68MOL0     H 9135   3.334   2.342   4.816 -2.1940 -1.4135 -0.6931
   68MOL0     H 9136   3.327   2.330   4.515  0.7113 -5.0796 -2.2932
   68MOL0     H 9137   3.277   2.211   4.630 -0.1991 -1.5357 -2.8050
   68MOL0     H 9138   3.472   2.131   4.535 -1.6683 -1.6637  1.8450
   68MOL0     H 9139   3.502   2.182   4.701 -0.5189  1.5238  0.3900
   68MOL0     H 9140   3.743   2.502   4.579 -0.9266 -0.3281  0.6451
   68MOL0     H 9141   3.986   2.483   4.610 -2.2527  0.7209  0.2408
   68MOL0     H 9142   4.385   2.280   4.842 -3.1886  1.3074  0.0172
   68MOL0     H 9143   4.626   2.231   4.785 -1.0887 -1.3418 -0.2141
   68MOL0     H 9144   4.851   2.289   4.735  0.9265  1.7408 -1.1818
   68MOL0     H 9145   4.820   2.130   4.649 -0.0502 -1.4529 -1.4348
   68MOL0     H 9146   4.973   2.252   4.465 -2.4035 -0.4721 -0.3960
   68MOL0     H 9147   5.032   2.333   4.616  1.0779 -2.4016  1.8262
   68MOL0     H 9148   5.074   2.112   4.702  4.3523 -1.5605 -1.0503
   68MOL0     H 9149   4.988   2.022   4.576 -0.6686  0.0772  0.0064
   68MOL0     H 9150   5.164   2.115   4.413 -1.5054 -0.3357  0.0488
   68MOL0     H 9151   5.224   1.999   4.521 -2.3739 -0.9113 -1.7811
   68MOL0     H 9152   5.331   2.159   4.664  2.9599 -0.5687 -1.4477
   68MOL0     H 9153   5.261   2.301   4.577 -1.5226  0.0956  0.2385
   68MOL0     H 9154   5.461   2.072   4.504 -2.0657 -2.1362 -0.9752
   68MOL0     H 9155   5.385   2.169   4.374 -0.6000 -1.5478 -0.0615
   68MOL0     H 9156   5.578   2.276   4.576  1.1089 -0.2454 -0.1338
   68MOL0     H 9157   5.479   2.375   4.476  2.5694  0.7270 -0.0204
   68MOL0     H 9158   5.648   2.153   4.350  0.2826  0.1744  0.3613
   68MOL0     H 9159   5.561   2.280   4.263  1.8957 -4.4346 -3.4768
   68MOL0     H 9160   4.569   2.412   4.408  0.3869  1.1656  1.5793
   68MOL0     H 9161   4.325   2.420   4.434 -1.1556 -0.2930  1.9064
   68MOL0     H 9162   3.959   2.050   4.627 -1.0252 -0.8436 -2.5710
   68MOL0     H 9163   3.701   2.073   4.586  0.1827 -0.4011  0.5222
   68MOL0     H 9164   2.450   1.451   4.409 -3.9645 -1.7290  0.3035
   68MOL0     H 9165   2.333   1.234   4.371 -0.4676  1.9016  0.8274
   68MOL0     H 9166   2.108   0.872   4.569 -1.0529  0.7318  1.1405
   68MOL0     H 9167   2.013   0.655   4.608  1.0714 -2.2479  1.5146
   68MOL0     H 9168   2.187   0.247   4.696 -3.1053  4.0139  1.5744
   68MOL0     H 9169   2.333   0.338   4.666 -1.4152  1.7687  2.2593
   68MOL0     H 9170   2.351   0.165   4.488 -0.4126 -1.2711  1.5674
   68MOL0     H 9171   2.278   0.293   4.397  0.1876  1.4438  0.9922
   68MOL0     H 9172   2.157   0.092   4.350 -0.5243 -0.1191  0.0964
   68MOL0     H 9173   2.050   0.205   4.439 -0.0449  0.3809  2.1688
   68MOL0     H 9174   2.039   0.048   4.624 -0.2656  1.9372 -0.5519
   68MOL0     H 9175   2.067  -0.040   4.464  0.8282 -0.5666  0.3806
   68MOL0     H 9176   2.372  -0.161   4.724 -1.7066  0.4934  2.2520
   68MOL0     H 9177   2.406   0.486   4.529  1.3567  1.4408  0.1047
   68MOL0     H 9178   2.550   0.761   4.399 -1.0095 -0.5057 -0.0084
   68MOL0     H 9179   2.589   0.761   4.570 -0.5974  0.6911  0.2060
   68MOL0     H 9180   2.575   0.601   4.487 -3.0810 -0.3965 -3.8663
   69MOL0     O 9181   1.288   8.807   6.402  0.1444  0.0207 -0.2386
   69MOL0     C 9182   1.313   8.785   6.523 -0.3963 -0.7266  0.6886
   69MOL0     O 9183   1.430   8.808   6.576 -0.2826 -0.5354 -0.0341
   69MOL0     C 9184   1.528   8.859   6.493  0.9198  0.0479 -0.5130
   69MOL0     C 9185   1.510   8.986   6.444  0.0124 -0.0024  0.3324
   69MOL0     C 9186   1.606   9.036   6.348 -0.0317 -0.1723  0.5584
   69MOL0     C 9187   1.712   8.947   6.302  0.1667 -0.6699  0.6708
   69MOL0     O 9188   1.805   8.992   6.206  0.2669 -0.2934 -0.0925
   69MOL0     C 9189   1.759   9.075   6.096  0.2602 -0.0581  0.0391
   69MOL0     C 9190   1.865   9.059   5.980  0.1755  0.0750  0.8320
   69MOL0     C 9191   1.809   9.154   5.870  0.3905 -0.5787  0.8598
   69MOL0     C 9192   1.898   9.149   5.748 -0.2121 -0.0229  0.1569
   69MOL0     C 9193   1.848   9.195   5.616  0.3846 -0.3893 -0.2747
   69MOL0     C 9194   1.702   9.143   5.585  0.0847 -0.5065 -0.6720
   69MOL0     C 9195   1.647   9.204   5.463 -0.1235 -0.6023  0.0139
   69MOL0     C 9196   1.713   9.147   5.328 -0.2235  0.0240  0.1367
   69MOL0     N 9197   1.606   9.147   5.224 -0.4205 -0.6031  0.7994
   69MOL0     C 9198   1.514   9.049   5.209 -0.2743 -0.2369  0.4659
   69MOL0     C 9199   1.470   9.060   5.083  0.4631  0.4374  0.2284
   69MOL0     C 9200   1.376   8.964   5.014  0.0962  0.3229  0.3201
   69MOL0     C 9201   1.437   8.892   4.891  0.4488  0.1242 -0.8148
   69MOL0     C 9202   1.477   8.748   4.917 -0.2199  0.9442  0.3244
   69MOL0     C 9203   1.570   8.724   5.038 -0.4078 -0.2977  0.0615
   69MOL0     O 9204   1.683   8.813   5.024  0.1419  0.0570 -0.2080
   69MOL0     C 9205   1.775   8.822   5.126 -0.5574 -0.2517 -0.8275
   69MOL0     C 9206   1.868   8.931   5.128  0.4510  0.6942 -0.4117
   69MOL0     C 9207   1.972   8.940   5.221 -0.5520  0.0209  0.1883
   69MOL0     C 9208   1.987   8.844   5.322 -0.2175 -0.2033 -0.1136
   69MOL0     C 9209   2.093   8.860   5.425 -0.0479 -0.0221  0.4745
   69MOL0     O 9210   2.146   8.984   5.427  0.7892 -0.8447 -0.0507
   69MOL0     C 9211   2.254   9.014   5.515  0.5068  0.3051  0.0844
   69MOL0     C 9212   2.265   9.129   5.592 -0.3447  0.0635  0.2958
   69MOL0     C 9213   2.377   9.151   5.670  0.4359  0.2113  0.3959
   69MOL0     C 9214   2.490   9.064   5.662  0.0163 -0.6736  0.1874
   69MOL0     O 9215   2.594   9.077   5.744 -0.1608 -0.0902 -0.1285
   69MOL0     C 9216   2.624   9.200   5.822 -0.3906  0.6112 -0.4507
   69MOL0     C 9217   2.760   9.155   5.891 -0.3422 -0.4729 -0.3831
   69MOL0     C 9218   2.845   9.275   5.935 -0.1734 -0.6223 -0.6837
   69MOL0     C 9219   2.771   9.348   6.046 -0.1556 -0.8872  0.1773
   69MOL0     C 9220   2.693   9.473   6.007  0.1030  0.0082 -0.2143
   69MOL0     C 9221   2.619   9.529   6.125  1.0450  0.3356 -1.0118
   69MOL0     C 9222   2.580   9.676   6.108  0.8224  0.0243  0.4857
   69MOL0     C 9223   2.464   9.699   5.995  0.1690 -0.8321 -1.0184
   69MOL0    Cl 9224   2.530   9.831   5.887  0.3103 -0.1290 -0.0302
   69MOL0     C 9225   2.479   8.953   5.580  0.6672 -0.9728 -0.9756
   69MOL0     C 9226   2.364   8.930   5.505  0.5654 -0.2350 -0.3933
   69MOL0     O 9227   2.116   8.771   5.506 -0.3855 -0.4860 -0.0741
   69MOL0     C 9228   1.892   8.743   5.322  0.1418  0.2316  0.3427
   69MOL0     C 9229   1.786   8.731   5.235  0.0354  0.2338  0.0339
   69MOL0     N 9230   1.531   9.171   5.029 -0.2782  0.4032  0.0996
   69MOL0     N 9231   1.611   9.218   5.109 -0.2695  0.3951  0.3166
   69MOL0     C 9232   1.730   8.826   6.358 -0.7026  0.6671 -0.4952
   69MOL0     C 9233   1.637   8.781   6.454  0.2013  0.1556 -1.0967
   69MOL0     C 9234   1.209   8.728   6.601  0.7664 -0.5775 -0.6462
   69MOL0     C 9235   1.167   8.604   6.561  0.0749  0.2405 -0.9017
   69MOL0     C 9236   1.065   8.535   6.626 -0.0077  0.4725 -0.0384
   69MOL0     C 9237   1.006   8.590   6.739  0.1239  0.3834 -0.8136
   69MOL0     O 9238   0.910   8.521   6.806  0.2717 -0.0159 -0.5786
   69MOL0     C 9239   0.770   8.567   6.791 -0.1256 -0.1565 -0.0144
   69MOL0     C 9240   0.737   8.652   6.914  0.8279  0.0958  0.1116
   69MOL0     C 9241   0.782   8.611   7.054  0.0383 -0.9408 -0.3433
   69MOL0     C 9242   0.732   8.475   7.101  0.4768  0.3017 -0.0237
   69MOL0     C 9243   0.590   8.458   7.098  0.8412 -1.0527 -0.0721
   69MOL0     C 9244   0.469   8.457   7.092 -0.0466 -0.2063  0.0607
   69MOL0     C 9245   1.050   8.715   6.791 -0.3482  0.1335  0.0929
   69MOL0     C 9246   1.153   8.787   6.720  0.2843  0.6809  0.0329
   69MOL0     C 9247   1.199   8.913   6.786  0.1097  0.2677  0.0088
   69MOL0     H 9248   1.421   9.037   6.480  0.1521  1.5949 -1.3884
   69MOL0     H 9249   1.599   9.141   6.322 -1.5012 -0.5180 -0.5255
   69MOL0     H 9250   1.661   9.037   6.065 -0.2927  1.0674  0.3891
   69MOL0     H 9251   1.764   9.178   6.130 -1.1154 -0.3176  1.1387
   69MOL0     H 9252   1.881   8.958   5.942  3.1883  1.3325 -1.7079
   69MOL0     H 9253   1.959   9.104   6.010  0.7691 -0.8377  0.3877
   69MOL0     H 9254   1.809   9.254   5.916 -0.9816 -0.0320 -0.2382
   69MOL0     H 9255   1.706   9.130   5.841 -0.3664  2.3356  0.7723
   69MOL0     H 9256   1.981   9.206   5.790 -0.8279  1.2313 -0.2808
   69MOL0     H 9257   1.934   9.048   5.728 -1.9007 -0.7449  0.6264
   69MOL0     H 9258   1.842   9.304   5.616 -1.1034 -0.4174 -2.0633
   69MOL0     H 9259   1.923   9.168   5.542  1.7192 -1.5760  1.4259
   69MOL0     H 9260   1.683   9.035   5.580 -1.3041 -0.2647 -0.9846
   69MOL0     H 9261   1.631   9.166   5.666  0.5470  1.5017 -0.7790
   69MOL0     H 9262   1.659   9.312   5.453 -0.0154 -0.5674  0.5283
   69MOL0     H 9263   1.540   9.185   5.459 -0.2475  0.1898 -0.7216
   69MOL0     H 9264   1.806   9.202   5.313 -0.4766  1.4846  3.1018
   69MOL0     H 9265   1.743   9.042   5.341  2.2545  0.7670  1.0043
   69MOL0     H 9266   1.496   8.966   5.278  0.5770 -0.8019  0.0278
   69MOL0     H 9267   1.351   8.890   5.090  0.9397 -1.6486 -1.2527
   69MOL0     H 9268   1.284   9.018   4.986  1.2375  1.5951 -1.1711
   69MOL0     H 9269   1.358   8.872   4.817 -0.7985 -4.8531  1.4520
   69MOL0     H 9270   1.514   8.953   4.844  1.0674 -0.1922 -0.2253
   69MOL0     H 9271   1.509   8.698   4.826 -2.1328 -0.8090  0.5511
   69MOL0     H 9272   1.381   8.708   4.951 -0.2560  3.1149  3.2924
   69MOL0     H 9273   1.605   8.620   5.043  1.8837  0.4046 -0.3353
   69MOL0     H 9274   1.524   8.748   5.134 -0.6188 -0.8242  0.0953
   69MOL0     H 9275   1.859   9.017   5.063 -0.2771  1.1588  0.2770
   69MOL0     H 9276   2.035   9.027   5.209  1.1919 -1.3569 -1.2610
   69MOL0     H 9277   2.195   9.212   5.590 -0.4164  0.0294  1.0262
   69MOL0     H 9278   2.379   9.245   5.723  0.0303  2.6212 -3.4622
   69MOL0     H 9279   2.642   9.288   5.760 -1.6033  0.6497 -0.7743
   69MOL0     H 9280   2.550   9.225   5.899  1.1517  2.7927  0.4097
   69MOL0     H 9281   2.739   9.068   5.954  1.0554 -2.8500 -2.9804
   69MOL0     H 9282   2.820   9.115   5.809 -0.0532  1.3469 -1.1110
   69MOL0     H 9283   2.943   9.246   5.973 -0.7973 -0.7083  0.9262
   69MOL0     H 9284   2.858   9.342   5.849 -1.2212  2.0078  1.0830
   69MOL0     H 9285   2.854   9.374   6.112 -0.1357  1.8450 -0.8249
   69MOL0     H 9286   2.706   9.288   6.111 -0.3303 -1.4381 -0.4936
   69MOL0     H 9287   2.628   9.442   5.924 -0.5704  0.6567  0.0579
   69MOL0     H 9288   2.753   9.556   5.971 -0.6415  0.6828  0.0759
   69MOL0     H 9289   2.527   9.470   6.131  0.0442  1.8835 -0.4014
   69MOL0     H 9290   2.678   9.525   6.217 -2.5871 -0.8651  1.4906
   69MOL0     H 9291   2.669   9.735   6.082 -0.2991  2.1998  1.2620
   69MOL0     H 9292   2.529   9.710   6.199 -1.5023 -2.1132  0.0926
   69MOL0     H 9293   2.449   9.606   5.939 -1.8130 -0.5822 -0.9951
   69MOL0     H 9294   2.366   9.727   6.035  0.1346  1.6750 -2.6399
   69MOL0     H 9295   2.563   8.884   5.579 -0.6579 -2.6306 -1.7606
   69MOL0     H 9296   2.372   8.850   5.432 -0.4935 -0.3998 -0.3435
   69MOL0     H 9297   1.892   8.673   5.406  0.7507  0.5493  0.6120
   69MOL0     H 9298   1.711   8.655   5.254  0.5563 -0.1184  0.7503
   69MOL0     H 9299   1.810   8.756   6.336 -0.6623  0.5505  0.0009
   69MOL0     H 9300   1.648   8.681   6.496 -0.4659  0.5317  0.0527
   69MOL0     H 9301   1.210   8.556   6.473 -0.9508 -0.2849 -1.1285
   69MOL0     H 9302   1.031   8.436   6.594  1.3219  0.0815 -0.2810
   69MOL0     H 9303   0.701   8.483   6.795 -1.3280  0.6934 -1.5411
   69MOL0     H 9304   0.746   8.631   6.705 -2.6011 -1.3091 -0.2701
   69MOL0     H 9305   0.629   8.667   6.921  0.6873 -0.8161 -0.0208
   69MOL0     H 9306   0.766   8.756   6.896  1.8994  0.2020  2.1918
   69MOL0     H 9307   0.758   8.687   7.129  0.4535 -1.7963  0.6747
   69MOL0     H 9308   0.890   8.594   7.045 -0.3937 -3.8341 -1.4826
   69MOL0     H 9309   0.784   8.404   7.036  0.2015  0.3073 -0.2546
   69MOL0     H 9310   0.774   8.472   7.202  0.6593  0.6586 -0.0872
   69MOL0     H 9311   0.362   8.459   7.091 -0.0830  1.2525  1.8020
   69MOL0     H 9312   1.000   8.761   6.876  0.9131 -1.9322  2.0321
   69MOL0     H 9313   1.120   8.984   6.810  0.0438  0.4059 -0.6177
   69MOL0     H 9314   1.262   8.892   6.874 -2.3402  2.9400  2.6383
   69MOL0     H 9315   1.259   8.971   6.716 -1.3033  1.4854 -0.2514
   70MOL0     O 9316  10.537   9.042   4.610 -0.2590 -0.2949  0.0328
   70MOL0     C 9317  10.465   9.108   4.541 -0.9674  0.1758  0.8337
   70MOL0     O 9318  10.472   9.241   4.515 -0.0779  0.5937  1.0883
   70MOL0     C 9319  10.571   9.319   4.564 -0.8065  0.1505 -0.4302
   70MOL0     C 9320  10.526   9.449   4.610 -0.7706  1.2616  0.9545
   70MOL0     C 9321  10.620   9.538   4.668  0.8617  0.1536 -0.9394
   70MOL0     C 9322  10.754   9.498   4.681 -0.7676 -0.4760 -0.3697
   70MOL0     O 9323  10.858   9.579   4.732 -0.4106  0.0627  0.4414
   70MOL0     C 9324  10.842   9.727   4.732 -0.1006 -0.1143  0.5109
   70MOL0     C 9325  10.929   9.790   4.837  1.2545  0.3886 -0.3062
   70MOL0     C 9326  10.980   9.932   4.806  0.0035  0.7335  0.8901
   70MOL0     C 9327  11.080   9.996   4.907 -0.1451 -0.3083 -0.8357
   70MOL0     C 9328  11.076  10.142   4.890  1.3944  0.0533 -0.7040
   70MOL0     C 9329  11.149  10.223   4.997 -0.5824 -0.1785  0.4038
   70MOL0     C 9330  11.140  10.372   4.964  0.1880 -0.2489  0.3120
   70MOL0     C 9331  11.222  10.402   4.833  0.4570  0.5862 -0.1194
   70MOL0     N 9332  11.366  10.381   4.829  0.4860  0.2871  0.4490
   70MOL0     C 9333  11.452  10.446   4.912 -0.1682 -0.0776 -0.0936
   70MOL0     C 9334  11.567  10.383   4.893 -0.0957  0.3071  0.5153
   70MOL0     C 9335  11.691  10.394   4.972 -0.6924 -0.2148 -0.1753
   70MOL0     C 9336  11.652  10.355   5.118  0.3045 -0.9911 -0.2943
   70MOL0     C 9337  11.773  10.336   5.206 -0.1040 -0.1577  0.3155
   70MOL0     C 9338  11.851  10.203   5.200 -0.5739  0.0108 -0.1683
   70MOL0     O 9339  11.984  10.223   5.250  0.9054  0.6305  0.0643
   70MOL0     C 9340  12.085  10.204   5.159 -0.6126  0.2973  0.2223
   70MOL0     C 9341  12.080  10.271   5.040  0.4411  0.1857 -0.5129
   70MOL0     C 9342  12.178  10.250   4.936  0.3635  0.4257 -1.1190
   70MOL0     C 9343  12.299  10.176   4.967  0.5541 -0.1605 -0.0001
   70MOL0     C 9344  12.426  10.169   4.885 -0.3239  0.0020  0.4968
   70MOL0     O 9345  12.536  10.136   4.945 -0.3558  0.7387 -0.2607
   70MOL0     C 9346  12.658  10.105   4.881  0.4075  0.5754  0.1215
   70MOL0     C 9347  12.722   9.988   4.913  0.1953  0.3225  0.0092
   70MOL0     C 9348  12.844   9.954   4.873 -0.3426 -0.1276  0.2317
   70MOL0     C 9349  12.903  10.023   4.774 -0.6198 -0.1120  1.3258
   70MOL0     O 9350  13.027   9.978   4.731 -0.8494  0.4751 -0.5103
   70MOL0     C 9351  13.079  10.027   4.611  0.0934 -0.2848 -0.6371
   70MOL0     C 9352  13.218   9.960   4.584 -0.3611  0.0199  0.1124
   70MOL0     C 9353  13.256  10.001   4.438 -0.2594  0.5835 -0.9331
   70MOL0     C 9354  13.399   9.944   4.389  0.6657 -0.2282 -0.0103
   70MOL0     C 9355  13.512  10.010   4.471 -0.2254 -1.1412 -0.2901
   70MOL0     C 9356  13.645   9.990   4.397 -0.2516 -0.7239 -0.0052
   70MOL0     C 9357  13.686   9.846   4.396  0.1686 -0.0902  0.9045
   70MOL0     C 9358  13.810   9.812   4.303 -0.0476 -0.5662 -0.2580
   70MOL0    Cl 9359  13.894   9.668   4.372 -0.0217 -0.2652  0.0950
   70MOL0     C 9360  12.837  10.134   4.724  0.1388 -1.2930  0.0434
   70MOL0     C 9361  12.719  10.177   4.784 -0.1239  0.8380  1.1861
   70MOL0     O 9362  12.410  10.191   4.767 -0.1121 -0.2512  0.2624
   70MOL0     C 9363  12.307  10.122   5.098  0.7100  0.5177  0.2186
   70MOL0     C 9364  12.201  10.128   5.192 -0.1845  0.0812  0.5645
   70MOL0     N 9365  11.556  10.282   4.795 -0.0977 -0.0329 -1.2022
   70MOL0     N 9366  11.431  10.275   4.772  0.6657  0.4745 -0.3325
   70MOL0     C 9367  10.798   9.370   4.638  0.2202  0.0106 -0.7507
   70MOL0     C 9368  10.703   9.285   4.572 -0.1844  0.0685 -0.2770
   70MOL0     C 9369  10.361   9.031   4.462 -0.6222  0.6179  0.3905
   70MOL0     C 9370  10.390   8.895   4.435 -0.5728  0.0856  0.1570
   70MOL0     C 9371  10.304   8.815   4.360 -0.8394 -0.2648  0.5647
   70MOL0     C 9372  10.184   8.875   4.305  0.5495  0.1722 -0.5484
   70MOL0     O 9373  10.083   8.798   4.258 -0.2451 -0.2151 -0.3059
   70MOL0     C 9374  10.110   8.771   4.123 -0.7012  0.7173 -0.2403
   70MOL0     C 9375  10.017   8.854   4.035 -0.5083 -0.9890  0.5728
   70MOL0     C 9376   9.875   8.845   4.075 -0.2696 -1.0854  0.3297
   70MOL0     C 9377   9.785   8.919   3.980 -0.0620 -0.4358 -0.1565
   70MOL0     C 9378   9.643   8.890   4.002  0.1195 -0.4293 -0.8779
   70MOL0     C 9379   9.524   8.863   4.020 -1.5390  0.6727  0.4727
   70MOL0     C 9380  10.165   9.010   4.324 -0.7051 -0.2241 -0.0103
   70MOL0     C 9381  10.244   9.084   4.417  0.2627  0.2567 -0.0984
   70MOL0     C 9382  10.204   9.228   4.444  0.0259 -0.0189 -0.2061
   70MOL0     H 9383  10.424   9.485   4.599 -1.2115 -0.5944 -2.5789
   70MOL0     H 9384  10.594   9.639   4.698  0.9453 -0.2149  0.3978
   70MOL0     H 9385  10.857   9.769   4.632 -0.2530 -0.3363  0.3943
   70MOL0     H 9386  10.742   9.763   4.755 -0.9176 -0.8383 -1.6225
   70MOL0     H 9387  11.008   9.719   4.863 -0.1360 -0.7222  1.1147
   70MOL0     H 9388  10.863   9.796   4.924  3.7650 -3.8546  2.2455
   70MOL0     H 9389  10.898   9.999   4.780 -1.0231 -0.5882  0.6125
   70MOL0     H 9390  11.044   9.922   4.718 -0.7753 -0.8528  0.4757
   70MOL0     H 9391  11.051   9.963   5.007  2.8300  1.0192  0.6065
   70MOL0     H 9392  11.182   9.956   4.897  0.2060 -0.0196  1.1290
   70MOL0     H 9393  11.117  10.153   4.790 -0.4559 -2.1897 -1.8163
   70MOL0     H 9394  10.971  10.172   4.886  1.3255  0.2641  1.4641
   70MOL0     H 9395  11.102  10.212   5.095  0.5141 -2.1029  0.7658
   70MOL0     H 9396  11.256  10.201   4.993  0.2488  3.3281 -1.7927
   70MOL0     H 9397  11.186  10.417   5.053  3.1420 -5.6934  2.0226
   70MOL0     H 9398  11.036  10.394   4.937  1.6048  4.0853 -2.6591
   70MOL0     H 9399  11.174  10.362   4.743  1.1059  1.7445 -1.0040
   70MOL0     H 9400  11.216  10.511   4.824  1.3683  0.6173 -0.3437
   70MOL0     H 9401  11.437  10.524   4.987 -0.1153  2.9816 -3.0271
   70MOL0     H 9402  11.759  10.321   4.928  0.2518 -0.8334  2.1731
   70MOL0     H 9403  11.739  10.491   4.959  1.3825 -1.3413 -1.4082
   70MOL0     H 9404  11.589  10.437   5.154 -0.2511 -0.7210 -1.7947
   70MOL0     H 9405  11.592  10.263   5.119  0.1576 -0.9677 -2.1464
   70MOL0     H 9406  11.747  10.348   5.311 -0.4630  2.5914 -0.0104
   70MOL0     H 9407  11.834  10.423   5.178 -0.2083 -0.0632  0.3845
   70MOL0     H 9408  11.840  10.181   5.093 -3.2307 -0.2154  0.1045
   70MOL0     H 9409  11.797  10.130   5.259  0.0776 -1.2059 -1.0290
   70MOL0     H 9410  12.001  10.336   5.006  0.6899  1.3880  1.0989
   70MOL0     H 9411  12.172  10.312   4.847  2.4559  1.5052 -0.5548
   70MOL0     H 9412  12.674   9.933   4.993  1.0985 -3.9942 -2.1513
   70MOL0     H 9413  12.893   9.864   4.907 -0.4045 -0.4290 -0.4684
   70MOL0     H 9414  13.015  10.008   4.525  0.3666  1.8937 -1.3935
   70MOL0     H 9415  13.084  10.136   4.621 -2.0442 -0.2909  1.4184
   70MOL0     H 9416  13.300   9.994   4.647  3.6624 -1.6986 -3.6368
   70MOL0     H 9417  13.204   9.852   4.590  2.2247 -0.5939 -2.6021
   70MOL0     H 9418  13.191   9.945   4.369 -2.2373  0.5395  0.8471
   70MOL0     H 9419  13.252  10.110   4.430  0.9017  0.6724 -0.4090
   70MOL0     H 9420  13.409   9.966   4.282 -1.2889  0.4108 -0.0963
   70MOL0     H 9421  13.402   9.837   4.407 -3.2629 -0.9486 -2.3146
   70MOL0     H 9422  13.523   9.992   4.578 -2.3928 -1.9839 -0.1569
   70MOL0     H 9423  13.487  10.117   4.465 -1.4212 -1.2967  1.2536
   70MOL0     H 9424  13.630  10.022   4.294 -1.9929 -0.4420  0.3022
   70MOL0     H 9425  13.729  10.037   4.450  1.6251 -1.9862 -1.7525
   70MOL0     H 9426  13.611   9.775   4.360  1.3465 -0.7362 -0.4028
   70MOL0     H 9427  13.710   9.816   4.498 -1.2478 -1.5985  0.8368
   70MOL0     H 9428  13.781   9.800   4.198  3.7980 -0.9568 -1.4433
   70MOL0     H 9429  13.882   9.894   4.303 -1.1236  0.4206  1.0203
   70MOL0     H 9430  12.863  10.191   4.635 -1.9161  1.3150  0.9837
   70MOL0     H 9431  12.666  10.266   4.751 -3.1513 -1.0124  0.6494
   70MOL0     H 9432  12.398  10.071   5.131  0.8863 -0.1339 -1.1899
   70MOL0     H 9433  12.218  10.070   5.282  0.8055  0.0318  0.3556
   70MOL0     H 9434  10.900   9.335   4.649  1.2125  2.9442  0.0749
   70MOL0     H 9435  10.732   9.192   4.526 -0.1636 -0.6656  1.1594
   70MOL0     H 9436  10.482   8.845   4.461 -0.9493  0.1608  1.6824
   70MOL0     H 9437  10.328   8.709   4.357  2.4070  0.3658 -1.3005
   70MOL0     H 9438  10.083   8.665   4.117 -3.6927  1.1981  2.3019
   70MOL0     H 9439  10.207   8.790   4.076 -1.7439 -1.2709 -3.5377
   70MOL0     H 9440  10.032   8.814   3.934 -0.7801  0.4936 -0.0892
   70MOL0     H 9441  10.045   8.959   4.027 -1.6600 -0.7962 -3.1189
   70MOL0     H 9442   9.860   8.872   4.180  0.5432  1.8478 -0.2062
   70MOL0     H 9443   9.848   8.741   4.060 -1.2165 -0.9291  0.8490
   70MOL0     H 9444   9.808   9.026   3.977  1.6742 -0.6395  2.5106
   70MOL0     H 9445   9.811   8.900   3.875 -2.0104 -0.3659 -0.6906
   70MOL0     H 9446   9.420   8.837   4.024 -1.5546  0.6729  0.0901
   70MOL0     H 9447  10.070   9.040   4.280  0.5611 -1.5342 -4.0685
   70MOL0     H 9448  10.219   9.268   4.544  0.2001  0.8163 -0.5547
   70MOL0     H 9449  10.250   9.298   4.373  0.6276 -0.4507 -0.2540
   70MOL0     H 9450  10.096   9.229   4.429 -0.2945  0.3747  1.9387
   71MOL0     O 9451  10.388   8.754   3.851  0.8027  0.5356 -0.4657
   71MOL0     C 9452  10.447   8.671   3.918  0.7309 -0.6693  0.3203
   71MOL0     O 9453  10.419   8.534   3.910 -0.5356 -0.2325 -0.0601
   71MOL0     C 9454  10.338   8.485   3.818  0.5947 -0.5560  0.4193
   71MOL0     C 9455  10.208   8.449   3.850 -0.8434  0.0593  0.7865
   71MOL0     C 9456  10.131   8.377   3.755 -0.0410  0.3991 -0.0558
   71MOL0     C 9457  10.188   8.352   3.628 -0.7256 -0.3821 -0.0861
   71MOL0     O 9458  10.116   8.275   3.540  0.3861  0.5045 -0.3810
   71MOL0     C 9459   9.982   8.312   3.517  0.1612  0.1927  0.0052
   71MOL0     C 9460   9.957   8.252   3.380 -0.1536 -0.3729 -0.0921
   71MOL0     C 9461   9.819   8.298   3.333 -0.0342  1.0255 -0.2672
   71MOL0     C 9462   9.708   8.255   3.439 -0.4197  0.2505  0.2898
   71MOL0     C 9463   9.576   8.270   3.354  0.1182  0.4740  0.0791
   71MOL0     C 9464   9.538   8.410   3.325 -0.0017 -0.6865  0.3989
   71MOL0     C 9465   9.379   8.409   3.297  0.6269 -0.4455 -0.7861
   71MOL0     C 9466   9.322   8.548   3.290 -0.7713 -0.7434 -0.2427
   71MOL0     N 9467   9.176   8.537   3.293 -1.1114  0.6079 -0.7199
   71MOL0     C 9468   9.112   8.478   3.192  0.0386  1.0039 -0.3449
   71MOL0     C 9469   8.983   8.466   3.232  0.1904  0.0409 -0.2534
   71MOL0     C 9470   8.849   8.421   3.168 -0.1145 -0.8549 -0.4107
   71MOL0     C 9471   8.820   8.273   3.208 -0.0331  0.4967 -0.6318
   71MOL0     C 9472   8.828   8.252   3.362  0.7430 -0.1172  0.0552
   71MOL0     C 9473   8.728   8.326   3.449  0.0661 -0.9001 -0.3363
   71MOL0     O 9474   8.593   8.318   3.383 -0.2055  0.7274  0.1501
   71MOL0     C 9475   8.480   8.369   3.455 -0.5016  0.2323  0.4334
   71MOL0     C 9476   8.362   8.388   3.384  0.1799  0.1614 -0.3626
   71MOL0     C 9477   8.241   8.420   3.450  0.2226  0.4034 -0.9847
   71MOL0     C 9478   8.238   8.454   3.589  0.2423  0.2511 -0.8556
   71MOL0     C 9479   8.103   8.492   3.662 -0.0070 -0.7151  0.3161
   71MOL0     O 9480   7.993   8.483   3.582  0.5359  0.3815  0.8723
   71MOL0     C 9481   7.880   8.559   3.588  0.1713 -0.4031  0.3815
   71MOL0     C 9482   7.874   8.681   3.652  0.4013 -0.2025 -0.2974
   71MOL0     C 9483   7.754   8.758   3.655 -0.5371  0.0514 -0.5579
   71MOL0     C 9484   7.638   8.705   3.606  0.1172 -0.2420  0.4281
   71MOL0     O 9485   7.515   8.759   3.614  0.5662 -0.4323 -0.3479
   71MOL0     C 9486   7.467   8.809   3.738  0.0423  1.2190  0.0703
   71MOL0     C 9487   7.385   8.697   3.808  0.7904 -0.3766 -0.1122
   71MOL0     C 9488   7.351   8.732   3.957 -0.2503  0.2301 -0.2318
   71MOL0     C 9489   7.261   8.851   3.967  0.0348 -0.4299 -0.2666
   71MOL0     C 9490   7.243   8.875   4.119  0.5442 -0.5931 -0.8919
   71MOL0     C 9491   7.154   9.008   4.143 -0.2524  0.5644 -0.4580
   71MOL0     C 9492   7.147   9.055   4.292  0.3082  0.3232  0.3207
   71MOL0     C 9493   7.015   9.142   4.321  0.1646 -0.1440 -0.2721
   71MOL0    Cl 9494   6.977   9.131   4.494  0.2155 -0.2377 -0.4930
   71MOL0     C 9495   7.647   8.590   3.517  0.7131  0.2193  0.4398
   71MOL0     C 9496   7.768   8.517   3.508 -0.3747 -0.8799  0.4578
   71MOL0     O 9497   8.108   8.540   3.773  0.2502 -0.7885  0.0137
   71MOL0     C 9498   8.360   8.441   3.655  0.5367  0.2282 -0.0594
   71MOL0     C 9499   8.483   8.404   3.590  0.2329 -0.4230 -0.3497
   71MOL0     N 9500   8.979   8.533   3.353  0.0120 -0.8562  0.3833
   71MOL0     N 9501   9.094   8.571   3.396 -0.2880  0.0362 -0.0506
   71MOL0     C 9502  10.325   8.379   3.594  0.4900  0.7841  0.3288
   71MOL0     C 9503  10.390   8.446   3.693 -0.4186  1.6146 -0.4183
   71MOL0     C 9504  10.551   8.697   4.023  0.4181 -0.6866 -0.3687
   71MOL0     C 9505  10.648   8.592   4.066  0.6319 -0.9437 -0.4776
   71MOL0     C 9506  10.753   8.629   4.158 -0.0217 -0.3489  0.0093
   71MOL0     C 9507  10.764   8.758   4.209  0.3052  0.0799 -0.2832
   71MOL0     O 9508  10.862   8.794   4.299 -0.0944 -0.9043  0.0271
   71MOL0     C 9509  10.852   8.716   4.418  0.3451  0.0874 -0.6985
   71MOL0     C 9510  10.921   8.777   4.535 -0.7454  0.2716  0.4288
   71MOL0     C 9511  10.840   8.898   4.586  0.4535  0.3395  0.4708
   71MOL0     C 9512  10.901   8.982   4.699 -0.2081  0.3386 -1.0500
   71MOL0     C 9513  11.036   9.010   4.666 -0.3422  1.0104 -0.1153
   71MOL0     C 9514  11.156   9.028   4.649 -0.3703 -0.9717 -1.1314
   71MOL0     C 9515  10.661   8.846   4.177 -0.8490 -0.4550 -0.3758
   71MOL0     C 9516  10.559   8.820   4.092 -0.1727 -0.2371 -0.2915
   71MOL0     C 9517  10.472   8.946   4.074 -0.2508 -0.1565  0.0134
   71MOL0     H 9518  10.172   8.473   3.949  2.3857  1.0849  1.8341
   71MOL0     H 9519  10.032   8.342   3.780 -0.2165 -0.4744 -1.7704
   71MOL0     H 9520   9.918   8.265   3.592 -0.6474 -2.3015 -2.1392
   71MOL0     H 9521   9.972   8.421   3.525  1.5653  0.2752  1.2324
   71MOL0     H 9522   9.973   8.144   3.378  0.1657 -0.3378 -2.2897
   71MOL0     H 9523  10.032   8.288   3.310 -1.2751  2.0394 -0.1436
   71MOL0     H 9524   9.799   8.257   3.234 -0.7229 -0.7883  0.5745
   71MOL0     H 9525   9.816   8.407   3.326  0.2427  1.1271  0.9110
   71MOL0     H 9526   9.716   8.148   3.457 -0.4375 -0.5247 -3.5077
   71MOL0     H 9527   9.706   8.317   3.529 -2.1396  0.8873 -0.1585
   71MOL0     H 9528   9.584   8.205   3.266 -1.6796  0.8075 -0.3695
   71MOL0     H 9529   9.491   8.220   3.403  0.8972  0.5059  1.5319
   71MOL0     H 9530   9.554   8.484   3.405  2.0524  0.4082 -0.9513
   71MOL0     H 9531   9.587   8.440   3.232  2.9689  1.5858  2.4752
   71MOL0     H 9532   9.335   8.366   3.387 -0.5748 -0.1884 -1.2322
   71MOL0     H 9533   9.346   8.349   3.212 -2.4591 -0.9348  0.6185
   71MOL0     H 9534   9.367   8.613   3.366  1.2690 -1.5040 -0.7261
   71MOL0     H 9535   9.355   8.588   3.193  0.9640  0.3627  0.7410
   71MOL0     H 9536   9.140   8.465   3.088  1.2389  0.3123  0.0563
   71MOL0     H 9537   8.759   8.473   3.202 -0.2987 -1.6945  0.4219
   71MOL0     H 9538   8.857   8.436   3.060  2.8514  0.3543 -0.0886
   71MOL0     H 9539   8.731   8.232   3.160  0.5347 -2.3447  0.5384
   71MOL0     H 9540   8.903   8.214   3.169  2.1933 -0.4091  4.6612
   71MOL0     H 9541   8.928   8.281   3.396  0.7770  0.3120 -0.4054
   71MOL0     H 9542   8.815   8.150   3.398 -0.1039 -0.0099  0.0728
   71MOL0     H 9543   8.748   8.433   3.458  1.4770 -1.0580 -1.3050
   71MOL0     H 9544   8.732   8.274   3.545 -1.4852 -3.3461 -1.5021
   71MOL0     H 9545   8.358   8.357   3.280 -2.5120 -1.5921  0.1631
   71MOL0     H 9546   8.149   8.421   3.393 -0.3155  1.1014 -0.1262
   71MOL0     H 9547   7.958   8.729   3.703 -0.5249  0.8283  0.2953
   71MOL0     H 9548   7.776   8.846   3.715 -0.9050 -0.0699 -0.2420
   71MOL0     H 9549   7.549   8.846   3.802  3.9279 -1.5922 -2.8205
   71MOL0     H 9550   7.400   8.893   3.718 -0.6489  0.5149 -0.6185
   71MOL0     H 9551   7.291   8.683   3.755 -0.2530  1.7435  1.0507
   71MOL0     H 9552   7.443   8.604   3.798 -0.4083 -1.0390 -1.0956
   71MOL0     H 9553   7.292   8.650   3.999 -0.3079  1.1852  1.6167
   71MOL0     H 9554   7.444   8.730   4.014  0.0636  2.5207 -0.5450
   71MOL0     H 9555   7.160   8.824   3.934 -1.0368 -1.9203  3.5876
   71MOL0     H 9556   7.301   8.946   3.931 -1.1685 -0.2671 -1.2142
   71MOL0     H 9557   7.334   8.890   4.178 -2.7610  0.9109  4.6096
   71MOL0     H 9558   7.195   8.786   4.159  3.9382 -2.0239  0.3820
   71MOL0     H 9559   7.204   9.091   4.092  1.9153 -0.0308  0.5886
   71MOL0     H 9560   7.053   8.994   4.103 -0.5645 -0.9374  0.7776
   71MOL0     H 9561   7.233   9.119   4.316  0.4224  0.5970 -0.7737
   71MOL0     H 9562   7.145   8.963   4.350 -1.6803 -0.0618 -0.2803
   71MOL0     H 9563   7.020   9.247   4.291 -0.2136  0.3005  1.1681
   71MOL0     H 9564   6.933   9.105   4.259  2.2890 -4.1083 -1.1000
   71MOL0     H 9565   7.561   8.556   3.460  0.4225  0.4662  0.7292
   71MOL0     H 9566   7.780   8.430   3.445 -0.1401 -1.3643  1.1587
   71MOL0     H 9567   8.360   8.476   3.758 -1.0824  1.7665 -0.5259
   71MOL0     H 9568   8.573   8.391   3.649 -0.0073 -0.2763  0.0549
   71MOL0     H 9569  10.369   8.343   3.502 -1.7706  0.5014 -0.7037
   71MOL0     H 9570  10.497   8.462   3.697 -0.0194 -0.4412 -1.2603
   71MOL0     H 9571  10.637   8.491   4.028 -1.2244  0.1419 -3.1865
   71MOL0     H 9572  10.828   8.559   4.194 -1.3321 -0.7247  2.2096
   71MOL0     H 9573  10.884   8.613   4.401 -3.1794 -1.3646  0.5078
   71MOL0     H 9574  10.745   8.706   4.438  0.5618  0.2867  0.6523
   71MOL0     H 9575  11.014   8.813   4.490  0.4526 -1.0996  1.6862
   71MOL0     H 9576  10.945   8.706   4.615 -0.9962 -0.9943 -0.5837
   71MOL0     H 9577  10.745   8.861   4.627 -0.8957  0.8143 -2.0249
   71MOL0     H 9578  10.813   8.962   4.502  0.4588  3.7479  2.8804
   71MOL0     H 9579  10.837   9.069   4.718  1.8987  1.7291  0.0387
   71MOL0     H 9580  10.899   8.932   4.797 -4.3654  1.2161 -0.4710
   71MOL0     H 9581  11.260   9.052   4.646 -0.8125  1.7385  1.2053
   71MOL0     H 9582  10.670   8.947   4.215  0.0181  0.4763 -2.8890
   71MOL0     H 9583  10.490   9.026   4.147  1.4340 -0.4267 -0.0685
   71MOL0     H 9584  10.491   9.001   3.981 -0.0518 -2.6815 -1.5098
   71MOL0     H 9585  10.370   8.909   4.084  0.4060 -3.0884 -2.5586
   72MOL0     O 9586   7.621   3.200   2.481  0.3462 -0.2073 -0.2906
   72MOL0     C 9587   7.616   3.325   2.489 -0.2468  0.9383  0.2946
   72MOL0     O 9588   7.726   3.414   2.490  0.0649  0.1721  0.2660
   72MOL0     C 9589   7.858   3.363   2.490 -1.0251 -0.3217 -0.7870
   72MOL0     C 9590   7.959   3.445   2.435 -0.0055  0.1417  0.0911
   72MOL0     C 9591   8.094   3.415   2.451 -0.3964  0.1761 -0.7472
   72MOL0     C 9592   8.134   3.291   2.505 -0.3189  0.6319 -0.0895
   72MOL0     O 9593   8.260   3.236   2.515  0.2235  0.3124 -0.5937
   72MOL0     C 9594   8.367   3.306   2.454 -1.0232  0.5739  0.2208
   72MOL0     C 9595   8.495   3.229   2.454 -0.0701  0.3635 -1.0087
   72MOL0     C 9596   8.516   3.121   2.578 -0.5341 -0.7156  0.2466
   72MOL0     C 9597   8.654   3.045   2.565  1.0648  0.4757 -0.8437
   72MOL0     C 9598   8.653   2.935   2.465 -0.5572  0.1227  0.5794
   72MOL0     C 9599   8.773   2.841   2.499  1.1147 -0.2674 -0.3432
   72MOL0     C 9600   8.730   2.699   2.454 -0.3813  0.1003 -0.0458
   72MOL0     C 9601   8.849   2.601   2.475 -0.1993 -0.7226 -0.0763
   72MOL0     N 9602   8.957   2.627   2.379 -0.5142  0.3628  0.4531
   72MOL0     C 9603   8.948   2.685   2.254  0.7669  0.2663  0.4574
   72MOL0     C 9604   9.069   2.711   2.203 -0.3501 -1.0087 -0.1524
   72MOL0     C 9605   9.112   2.792   2.082  0.7395  0.1314 -0.4638
   72MOL0     C 9606   9.022   2.783   1.958 -1.3076  0.1973  0.3552
   72MOL0     C 9607   9.033   2.637   1.901 -0.6273  0.0607  0.0769
   72MOL0     C 9608   8.936   2.630   1.787 -0.2874  0.4733 -0.2956
   72MOL0     O 9609   8.804   2.672   1.840 -0.0911  0.4532  0.4490
   72MOL0     C 9610   8.699   2.657   1.754 -0.6632  0.3445  0.2965
   72MOL0     C 9611   8.691   2.558   1.649  0.6120  0.2788  0.0791
   72MOL0     C 9612   8.568   2.547   1.580 -0.1622 -0.6116 -0.6211
   72MOL0     C 9613   8.460   2.627   1.621  0.3850  0.8099  0.3965
   72MOL0     C 9614   8.329   2.616   1.547 -0.6009 -0.0276 -0.5223
   72MOL0     O 9615   8.223   2.672   1.608 -0.4635  1.0548 -0.1584
   72MOL0     C 9616   8.093   2.675   1.568  0.4443 -0.1052  0.7593
   72MOL0     C 9617   8.033   2.570   1.498  1.1498  0.2356 -0.1202
   72MOL0     C 9618   7.892   2.556   1.472  0.4746 -0.1857 -0.4889
   72MOL0     C 9619   7.809   2.657   1.515  0.3637  0.0115  0.6121
   72MOL0     O 9620   7.678   2.650   1.479  0.0501  0.6565  0.6638
   72MOL0     C 9621   7.584   2.709   1.563  0.0906  0.2597 -0.0009
   72MOL0     C 9622   7.561   2.856   1.522 -0.2208  0.8594 -0.4366
   72MOL0     C 9623   7.411   2.870   1.476 -0.5674  0.4361 -0.3158
   72MOL0     C 9624   7.372   3.016   1.454 -1.0691  0.0504 -0.1746
   72MOL0     C 9625   7.233   3.020   1.432  0.5513 -0.0617  1.2554
   72MOL0     C 9626   7.167   3.162   1.413  0.2942 -0.1965 -0.1052
   72MOL0     C 9627   7.019   3.151   1.383  0.0230 -0.1895 -0.0634
   72MOL0     C 9628   6.962   3.292   1.358  0.7440  0.3820 -0.1834
   72MOL0    Cl 9629   7.029   3.367   1.218  0.1221 -0.3826  0.2787
   72MOL0     C 9630   7.866   2.764   1.590  0.1288  0.3162 -1.2009
   72MOL0     C 9631   8.002   2.767   1.620  0.5273  0.5055  0.5192
   72MOL0     O 9632   8.327   2.561   1.436  0.1305  0.3374  0.0056
   72MOL0     C 9633   8.470   2.719   1.724  0.1883 -0.1957  0.5651
   72MOL0     C 9634   8.589   2.728   1.794 -0.8707  0.1208  0.4073
   72MOL0     N 9635   9.155   2.645   2.288 -0.2005 -0.4159 -0.4252
   72MOL0     N 9636   9.088   2.583   2.384  0.0495 -0.7363 -0.1470
   72MOL0     C 9637   8.037   3.218   2.561  0.4039  0.4364 -0.3530
   72MOL0     C 9638   7.897   3.243   2.553 -0.7830 -0.2946 -1.1711
   72MOL0     C 9639   7.480   3.387   2.481  0.8025  0.1814  0.2437
   72MOL0     C 9640   7.474   3.525   2.459  0.9787  0.1721 -1.0781
   72MOL0     C 9641   7.347   3.599   2.442  0.2214  0.1921 -0.3342
   72MOL0     C 9642   7.228   3.525   2.433  0.6149  0.3790  0.1435
   72MOL0     O 9643   7.114   3.590   2.389 -0.6053  0.1622 -0.4728
   72MOL0     C 9644   6.996   3.518   2.349 -0.0033 -0.6542  0.3451
   72MOL0     C 9645   6.923   3.611   2.247  0.5308  0.6074  0.4877
   72MOL0     C 9646   6.782   3.563   2.224 -0.4181 -0.1309 -0.5514
   72MOL0     C 9647   6.774   3.426   2.169  0.8089 -0.5178  0.3754
   72MOL0     C 9648   6.651   3.408   2.084 -0.4541 -0.5705 -0.6336
   72MOL0     C 9649   6.549   3.398   2.026  0.0129  0.2049  0.1689
   72MOL0     C 9650   7.228   3.389   2.459 -0.8035  0.0268  0.4529
   72MOL0     C 9651   7.355   3.315   2.486  0.0350  0.9334 -0.2520
   72MOL0     C 9652   7.348   3.169   2.507  0.1887  0.9809  0.4653
   72MOL0     H 9653   7.926   3.532   2.378  4.3954  1.7419 -0.4269
   72MOL0     H 9654   8.172   3.480   2.411  0.3790  2.5542  3.9112
   72MOL0     H 9655   8.355   3.322   2.346 -3.5224 -2.3766 -0.0994
   72MOL0     H 9656   8.373   3.400   2.509  3.0315  1.6192 -1.6601
   72MOL0     H 9657   8.566   3.311   2.469  0.4690  0.0678 -1.8675
   72MOL0     H 9658   8.515   3.190   2.354  0.8265 -1.5701 -0.1246
   72MOL0     H 9659   8.440   3.042   2.576  0.3454 -1.5712 -1.4651
   72MOL0     H 9660   8.518   3.181   2.669 -0.3599  1.5891 -1.1863
   72MOL0     H 9661   8.739   3.113   2.558 -0.0260  1.9405 -0.3530
   72MOL0     H 9662   8.665   3.011   2.669 -3.4412 -3.9418 -1.4687
   72MOL0     H 9663   8.556   2.885   2.456 -1.2685  1.7556 -1.5986
   72MOL0     H 9664   8.673   2.984   2.369 -0.3555 -0.5450  0.2782
   72MOL0     H 9665   8.864   2.872   2.449  1.7974 -0.8254  0.5165
   72MOL0     H 9666   8.784   2.844   2.608  1.1186 -0.0675 -0.3491
   72MOL0     H 9667   8.692   2.695   2.351 -0.3270 -2.6995 -0.0236
   72MOL0     H 9668   8.650   2.679   2.526 -0.7079  2.0761  0.2053
   72MOL0     H 9669   8.879   2.604   2.580  1.4391  1.1671 -0.5384
   72MOL0     H 9670   8.814   2.499   2.457  2.1750 -1.4194 -1.0863
   72MOL0     H 9671   8.862   2.722   2.200  1.4505  2.1029  0.5503
   72MOL0     H 9672   9.122   2.897   2.111  0.4895  0.4984 -1.6586
   72MOL0     H 9673   9.216   2.766   2.056  0.1555 -2.3272 -0.6694
   72MOL0     H 9674   8.923   2.805   1.999 -0.2655  1.9672  2.1058
   72MOL0     H 9675   9.048   2.855   1.879  2.7340 -1.0015  0.3496
   72MOL0     H 9676   9.002   2.554   1.965  0.8738 -0.6491 -0.0746
   72MOL0     H 9677   9.135   2.621   1.865 -0.4113 -1.2447  1.2018
   72MOL0     H 9678   8.932   2.524   1.760 -0.1049  0.1123  0.9975
   72MOL0     H 9679   8.958   2.697   1.704  0.0401  0.7905  0.0405
   72MOL0     H 9680   8.768   2.493   1.609 -0.5528 -0.1136 -1.6276
   72MOL0     H 9681   8.562   2.479   1.496  1.8665 -2.0815  0.3224
   72MOL0     H 9682   8.095   2.486   1.470 -0.7562 -1.4861  0.6337
   72MOL0     H 9683   7.852   2.463   1.433  1.3337 -1.3440  1.2482
   72MOL0     H 9684   7.494   2.649   1.545  0.2445  0.3440 -1.1312
   72MOL0     H 9685   7.612   2.712   1.669 -1.9719  0.0113  0.5845
   72MOL0     H 9686   7.577   2.918   1.612  1.3947 -0.0962 -0.0213
   72MOL0     H 9687   7.637   2.889   1.450  0.3900  0.5330  0.0382
   72MOL0     H 9688   7.402   2.815   1.382 -1.8440 -1.8814  1.0770
   72MOL0     H 9689   7.341   2.817   1.541 -0.1749 -2.5278 -2.1264
   72MOL0     H 9690   7.422   3.053   1.364 -2.6078  0.8962 -0.7116
   72MOL0     H 9691   7.402   3.078   1.538 -0.2028  2.1940 -1.9749
   72MOL0     H 9692   7.182   2.968   1.514  1.7854 -1.2766  1.2797
   72MOL0     H 9693   7.212   2.963   1.341 -0.6357 -0.3878  1.7083
   72MOL0     H 9694   7.177   3.214   1.508  4.8500 -3.3010  1.4717
   72MOL0     H 9695   7.210   3.215   1.328 -3.8420  0.0457 -2.3137
   72MOL0     H 9696   6.971   3.094   1.462  1.6105  0.1636  1.2318
   72MOL0     H 9697   6.996   3.076   1.307  0.4737 -2.3566  1.8166
   72MOL0     H 9698   6.854   3.286   1.347  0.6906  0.4044  0.2909
   72MOL0     H 9699   6.984   3.351   1.447 -0.9617 -0.6000  0.9478
   72MOL0     H 9700   7.805   2.835   1.645  1.1865 -0.1024  0.5789
   72MOL0     H 9701   8.044   2.844   1.684  0.3397  1.0025  0.0504
   72MOL0     H 9702   8.386   2.772   1.766  1.9970  0.4988  3.6035
   72MOL0     H 9703   8.612   2.792   1.879 -1.2423 -1.4286  1.7360
   72MOL0     H 9704   8.080   3.131   2.610 -1.5032 -0.1212  0.4506
   72MOL0     H 9705   7.831   3.169   2.599  0.9653 -2.3086 -1.7728
   72MOL0     H 9706   7.564   3.582   2.439  0.1752  1.2824 -1.7342
   72MOL0     H 9707   7.347   3.704   2.415 -0.5357  0.3954  0.4211
   72MOL0     H 9708   6.946   3.478   2.438  1.5587 -4.8346 -0.4273
   72MOL0     H 9709   7.026   3.426   2.297  2.1819 -0.5571  1.3374
   72MOL0     H 9710   6.970   3.607   2.148 -0.1783 -1.0112  0.1698
   72MOL0     H 9711   6.911   3.709   2.293 -2.2212 -0.7817  3.1145
   72MOL0     H 9712   6.748   3.637   2.150  0.0346  4.0787  3.0178
   72MOL0     H 9713   6.722   3.587   2.313  1.2964  2.2563  0.0574
   72MOL0     H 9714   6.861   3.406   2.106 -0.0222 -1.6453 -0.4426
   72MOL0     H 9715   6.773   3.365   2.260 -0.9574 -0.1812  0.6116
   72MOL0     H 9716   6.450   3.373   1.992 -0.4624  1.1805  0.7938
   72MOL0     H 9717   7.132   3.339   2.464 -0.3528 -0.7873  1.1946
   72MOL0     H 9718   7.244   3.137   2.507  0.5680 -0.3404  0.7290
   72MOL0     H 9719   7.389   3.111   2.423 -1.1800 -0.6839  0.8909
   72MOL0     H 9720   7.390   3.137   2.603 -1.5847 -1.4477  0.5287
   73MOL0     O 9721   1.364   7.785   4.877  0.1873 -0.1354  0.2984
   73MOL0     C 9722   1.376   7.710   4.779 -0.1548  0.1025 -0.1283
   73MOL0     O 9723   1.266   7.627   4.731 -0.2424  0.8006 -0.4190
   73MOL0     C 9724   1.163   7.597   4.815 -0.3296 -0.4070  0.1891
   73MOL0     C 9725   1.027   7.589   4.768 -0.0042 -0.7234  1.4797
   73MOL0     C 9726   0.928   7.585   4.863  1.3102  0.6464  0.6801
   73MOL0     C 9727   0.956   7.557   5.001  0.4017 -0.4601 -0.7411
   73MOL0     O 9728   0.845   7.550   5.082 -0.4018  0.0507 -0.4521
   73MOL0     C 9729   0.856   7.471   5.204  0.6909 -0.9455 -0.3125
   73MOL0     C 9730   0.726   7.492   5.270 -0.5845 -0.0475 -0.2492
   73MOL0     C 9731   0.739   7.420   5.407  0.9214  0.4576 -0.2124
   73MOL0     C 9732   0.853   7.458   5.499  0.1365 -0.0715  0.0799
   73MOL0     C 9733   0.824   7.405   5.639  0.0639  0.1557 -0.3180
   73MOL0     C 9734   0.946   7.405   5.726 -0.2651  0.6172  0.7498
   73MOL0     C 9735   0.914   7.319   5.847  0.0527  0.5553  0.3617
   73MOL0     C 9736   1.017   7.330   5.962  0.3178 -0.3213 -0.1952
   73MOL0     N 9737   1.151   7.326   5.909  0.7572 -0.0509  0.8283
   73MOL0     C 9738   1.223   7.212   5.896  0.1621  0.0703  0.4982
   73MOL0     C 9739   1.347   7.255   5.864 -0.2291 -0.2579  0.3300
   73MOL0     C 9740   1.472   7.165   5.869 -0.5462  0.0959  0.2308
   73MOL0     C 9741   1.581   7.218   5.774  0.6879 -0.2007  0.5116
   73MOL0     C 9742   1.657   7.109   5.700  0.7279 -0.4360  0.5858
   73MOL0     C 9743   1.767   7.042   5.781 -0.2541 -0.2876 -0.2567
   73MOL0     O 9744   1.839   7.142   5.858  0.1213  0.2438 -0.6058
   73MOL0     C 9745   1.974   7.119   5.863 -0.1048 -0.2841 -0.5929
   73MOL0     C 9746   2.019   7.143   5.996  0.3551  0.4015 -0.1287
   73MOL0     C 9747   2.158   7.127   6.025 -0.6561 -0.3214  0.2015
   73MOL0     C 9748   2.254   7.121   5.918 -0.8910  0.0215 -0.4385
   73MOL0     C 9749   2.392   7.092   5.937 -0.2703  0.0176 -0.1455
   73MOL0     O 9750   2.473   7.082   5.823  0.7320 -0.0890  0.3438
   73MOL0     C 9751   2.607   7.060   5.843 -0.6510  1.2208  0.7232
   73MOL0     C 9752   2.682   7.143   5.927  0.3882  0.3779  0.0802
   73MOL0     C 9753   2.817   7.121   5.935 -0.2493 -0.8580  0.4370
   73MOL0     C 9754   2.885   7.020   5.864 -0.1468  0.6027  0.5464
   73MOL0     O 9755   3.019   7.005   5.871 -0.4413  0.4179  0.6008
   73MOL0     C 9756   3.090   7.119   5.816 -1.2014 -0.3037 -0.6404
   73MOL0     C 9757   3.236   7.093   5.813  0.4693  0.0068 -0.7392
   73MOL0     C 9758   3.272   6.985   5.706  0.1653  0.1323  0.1164
   73MOL0     C 9759   3.426   6.964   5.709  0.0940 -0.4548  0.8095
   73MOL0     C 9760   3.478   6.883   5.591  0.5184  0.1651  0.2263
   73MOL0     C 9761   3.626   6.919   5.604  0.0598  0.1480 -0.5256
   73MOL0     C 9762   3.704   6.839   5.510 -0.7534  0.1519  0.8821
   73MOL0     C 9763   3.851   6.814   5.575 -0.2910  0.1576 -0.3021
   73MOL0    Cl 9764   3.955   6.956   5.535 -0.3493 -0.1155  0.0591
   73MOL0     C 9765   2.813   6.935   5.773  0.0216 -0.5696 -0.7995
   73MOL0     C 9766   2.675   6.954   5.771  0.4616  0.4784  0.8864
   73MOL0     O 9767   2.430   7.075   6.051 -0.1024 -0.0415  0.5953
   73MOL0     C 9768   2.207   7.108   5.786  0.2384 -0.8323  0.3467
   73MOL0     C 9769   2.068   7.098   5.758 -0.4191 -0.6054  0.1751
   73MOL0     N 9770   1.353   7.389   5.879  0.8219 -0.9596 -0.2647
   73MOL0     N 9771   1.227   7.431   5.899 -0.1545 -0.7933  1.2143
   73MOL0     C 9772   1.089   7.536   5.038 -0.4412 -0.8602  0.0417
   73MOL0     C 9773   1.190   7.552   4.946  0.0522 -1.2041 -0.9476
   73MOL0     C 9774   1.485   7.739   4.689 -0.0023  0.3484  0.1024
   73MOL0     C 9775   1.479   7.668   4.564 -0.6059  0.2483  1.2820
   73MOL0     C 9776   1.587   7.669   4.476  0.1204  0.0860  0.2336
   73MOL0     C 9777   1.705   7.739   4.504  1.2237  0.3301 -0.0627
   73MOL0     O 9778   1.801   7.760   4.418  0.3438 -0.3069  0.7458
   73MOL0     C 9779   1.845   7.633   4.367  0.3624  0.1870 -0.4400
   73MOL0     C 9780   1.985   7.651   4.312  0.9615  0.2657  0.4997
   73MOL0     C 9781   2.005   7.509   4.241  0.5083 -0.0938  0.2095
   73MOL0     C 9782   2.157   7.484   4.235  0.4366 -1.0945 -0.4593
   73MOL0     C 9783   2.224   7.563   4.126 -0.5809  0.8391 -0.4511
   73MOL0     C 9784   2.275   7.619   4.036  0.7638  0.4896 -0.2937
   73MOL0     C 9785   1.712   7.804   4.623  0.5893  0.1213 -0.8502
   73MOL0     C 9786   1.602   7.818   4.717  0.4951  0.3055 -0.5298
   73MOL0     C 9787   1.634   7.862   4.853  0.7102  0.4141 -0.6217
   73MOL0     H 9788   1.007   7.585   4.662  0.2634  1.6516  1.2966
   73MOL0     H 9789   0.825   7.585   4.828  1.8826  0.3130 -1.1487
   73MOL0     H 9790   0.867   7.366   5.173 -3.7590 -2.2129  1.6060
   73MOL0     H 9791   0.933   7.509   5.271 -1.1391 -2.7518  3.0615
   73MOL0     H 9792   0.645   7.454   5.207  0.5138 -3.1584  0.0379
   73MOL0     H 9793   0.703   7.597   5.289  0.7735  0.3927 -0.8573
   73MOL0     H 9794   0.749   7.312   5.396  1.2470  0.5405 -0.8415
   73MOL0     H 9795   0.645   7.445   5.456 -0.1975 -1.6721 -1.1594
   73MOL0     H 9796   0.945   7.404   5.472  2.2209  1.6028  3.1815
   73MOL0     H 9797   0.874   7.565   5.504 -0.1905 -0.0453  0.9403
   73MOL0     H 9798   0.732   7.445   5.682 -0.2033 -1.4913  0.7411
   73MOL0     H 9799   0.808   7.297   5.632  0.0963  0.1283  0.0123
   73MOL0     H 9800   1.032   7.360   5.675 -0.0940  0.6373  1.0149
   73MOL0     H 9801   0.982   7.505   5.755  1.9861 -0.6457  2.7301
   73MOL0     H 9802   0.896   7.212   5.832 -0.3230  0.4824  1.2353
   73MOL0     H 9803   0.818   7.354   5.886 -0.2481  0.8024 -0.5756
   73MOL0     H 9804   1.003   7.424   6.015 -0.0821 -0.3874 -0.1839
   73MOL0     H 9805   1.008   7.254   6.041  1.8103  0.5074  0.8309
   73MOL0     H 9806   1.175   7.115   5.891 -0.8750  0.6038 -4.1966
   73MOL0     H 9807   1.514   7.152   5.969  0.8839 -0.2175 -0.3701
   73MOL0     H 9808   1.431   7.068   5.840 -0.0056 -0.3189  0.8267
   73MOL0     H 9809   1.518   7.279   5.709  0.6762  1.5221  2.0518
   73MOL0     H 9810   1.662   7.282   5.811  1.8394 -2.2598  1.7201
   73MOL0     H 9811   1.709   7.144   5.610 -0.1734 -0.8531 -0.1178
   73MOL0     H 9812   1.596   7.029   5.658  1.1078 -0.5154  0.1840
   73MOL0     H 9813   1.831   6.987   5.712  0.1421 -3.2119  2.2472
   73MOL0     H 9814   1.723   6.968   5.848 -1.0658  2.2588  2.2191
   73MOL0     H 9815   1.950   7.172   6.075 -0.2179  3.6100 -1.6457
   73MOL0     H 9816   2.190   7.116   6.128 -2.0249 -1.4003  0.5486
   73MOL0     H 9817   2.626   7.216   5.984  1.6918 -0.0930  2.0653
   73MOL0     H 9818   2.882   7.191   5.988 -0.4635  0.6012 -1.1422
   73MOL0     H 9819   3.052   7.136   5.715 -0.4357  0.2441 -0.8491
   73MOL0     H 9820   3.069   7.207   5.877 -0.2006 -1.3410  1.3163
   73MOL0     H 9821   3.295   7.184   5.796  1.8868 -0.4710  1.1644
   73MOL0     H 9822   3.258   7.056   5.914 -0.9547  4.6773  1.5988
   73MOL0     H 9823   3.218   6.891   5.722  0.1639  0.0894 -0.1228
   73MOL0     H 9824   3.247   7.018   5.604 -0.2464 -0.4200  0.0303
   73MOL0     H 9825   3.445   6.917   5.806 -3.3371 -0.2470  1.7039
   73MOL0     H 9826   3.472   7.062   5.726  1.5938 -0.7161 -1.3055
   73MOL0     H 9827   3.443   6.913   5.491 -1.3636 -5.0721 -1.0084
   73MOL0     H 9828   3.445   6.779   5.595 -2.8615  1.0741 -0.7070
   73MOL0     H 9829   3.639   7.025   5.581  0.7314  0.3829  0.8565
   73MOL0     H 9830   3.655   6.891   5.706 -0.8293 -2.8296 -0.9748
   73MOL0     H 9831   3.708   6.884   5.410 -0.6312 -0.3038  0.6778
   73MOL0     H 9832   3.653   6.744   5.491 -0.7165  0.0917  1.0831
   73MOL0     H 9833   3.834   6.806   5.682 -1.1629  0.6414 -0.3920
   73MOL0     H 9834   3.893   6.726   5.526  1.3476  0.0985  1.1410
   73MOL0     H 9835   2.855   6.855   5.713 -2.0158 -1.1530 -1.5310
   73MOL0     H 9836   2.613   6.889   5.709  3.1707 -0.5508 -0.8928
   73MOL0     H 9837   2.278   7.080   5.709  1.6036 -1.5151  1.7833
   73MOL0     H 9838   2.016   7.096   5.663 -0.2251 -2.6345  0.0774
   73MOL0     H 9839   1.125   7.522   5.140 -3.9540 -1.2079  1.3956
   73MOL0     H 9840   1.294   7.542   4.972 -0.1345  0.3892  0.6249
   73MOL0     H 9841   1.394   7.610   4.528  1.9475 -1.7612 -2.1458
   73MOL0     H 9842   1.580   7.596   4.396  3.1877 -0.5669  0.4465
   73MOL0     H 9843   1.788   7.590   4.283  0.0212  0.6046 -0.4229
   73MOL0     H 9844   1.839   7.547   4.434 -0.7940  1.2065  0.8173
   73MOL0     H 9845   2.056   7.674   4.391  0.8329  0.6135  0.5141
   73MOL0     H 9846   1.988   7.723   4.230 -1.3310  0.7660  0.7894
   73MOL0     H 9847   1.967   7.516   4.139 -0.9928  1.3464  0.8302
   73MOL0     H 9848   1.961   7.429   4.303 -1.1210  1.0884  0.6575
   73MOL0     H 9849   2.191   7.497   4.338  0.0826 -2.0322 -0.2142
   73MOL0     H 9850   2.178   7.378   4.218  0.2555 -1.4136  1.2182
   73MOL0     H 9851   2.316   7.678   3.957  2.8274 -1.3582 -0.7103
   73MOL0     H 9852   1.814   7.838   4.637  1.3975 -1.0315 -3.2473
   73MOL0     H 9853   1.561   7.929   4.901  0.4016 -1.1533  1.2246
   73MOL0     H 9854   1.631   7.778   4.924 -0.4725 -0.2162 -1.3880
   73MOL0     H 9855   1.735   7.905   4.857  0.6755  0.4589 -0.0644
   74MOL0     O 9856  10.419   2.202   3.903 -0.0161  0.7338  0.1973
   74MOL0     C 9857  10.363   2.127   3.979  0.9176 -0.4925 -0.3662
   74MOL0     O 9858  10.427   2.046   4.065  0.4170 -0.0268 -0.3537
   74MOL0     C 9859  10.566   2.037   4.055  0.1986  0.6010  0.0960
   74MOL0     C 9860  10.625   1.986   3.940 -0.0705  0.5420  0.5311
   74MOL0     C 9861  10.762   1.954   3.944 -0.5265  0.4192 -0.0944
   74MOL0     C 9862  10.844   1.984   4.060  0.1732  0.1642 -0.4490
   74MOL0     O 9863  10.982   1.950   4.066 -0.2648  0.0876  1.0537
   74MOL0     C 9864  11.074   2.059   4.092  0.4088 -0.6456 -0.2136
   74MOL0     C 9865  11.202   2.033   4.008  0.2499 -0.0592 -0.0657
   74MOL0     C 9866  11.187   1.976   3.864  0.4799 -0.0919  0.2047
   74MOL0     C 9867  11.321   1.963   3.798  1.0364 -0.7904  0.1332
   74MOL0     C 9868  11.305   1.872   3.674 -0.7596  0.6922  0.4898
   74MOL0     C 9869  11.445   1.828   3.632 -1.4404  0.0145  0.0483
   74MOL0     C 9870  11.431   1.729   3.510  0.1761 -0.0637 -0.0625
   74MOL0     C 9871  11.576   1.683   3.480 -0.0396 -0.2466  0.7177
   74MOL0     N 9872  11.600   1.641   3.338  0.1278  0.0737 -0.4674
   74MOL0     C 9873  11.613   1.719   3.229  0.1965  0.1365  0.6483
   74MOL0     C 9874  11.589   1.639   3.123  0.1565 -0.1642 -0.1878
   74MOL0     C 9875  11.602   1.674   2.976 -0.2895 -0.4865  0.0052
   74MOL0     C 9876  11.478   1.619   2.895 -0.8212 -0.1888 -0.4128
   74MOL0     C 9877  11.492   1.477   2.836 -0.1705  0.1922  0.6253
   74MOL0     C 9878  11.360   1.410   2.801 -0.5973  0.7095  0.4577
   74MOL0     O 9879  11.289   1.484   2.697 -0.2080  0.7092  0.1118
   74MOL0     C 9880  11.302   1.458   2.556  0.5030 -0.6015 -0.2323
   74MOL0     C 9881  11.399   1.371   2.506 -0.5141 -1.2757 -0.1310
   74MOL0     C 9882  11.397   1.349   2.368  0.2745  0.4375 -0.1544
   74MOL0     C 9883  11.305   1.411   2.284  0.8646 -0.2382  0.1971
   74MOL0     C 9884  11.290   1.364   2.142 -0.8536 -0.3827 -0.7536
   74MOL0     O 9885  11.402   1.294   2.087 -0.4839 -0.3080  0.0299
   74MOL0     C 9886  11.411   1.254   1.956 -0.0944 -0.9528  0.7506
   74MOL0     C 9887  11.478   1.126   1.938  1.0769  0.3963 -0.9188
   74MOL0     C 9888  11.499   1.075   1.814 -0.0280  0.4668  0.1415
   74MOL0     C 9889  11.450   1.135   1.693 -0.2263  0.7978 -0.2453
   74MOL0     O 9890  11.477   1.070   1.582 -0.0520  0.4960  1.4769
   74MOL0     C 9891  11.401   1.112   1.469  0.0085 -0.6547 -0.4907
   74MOL0     C 9892  11.424   1.005   1.358 -0.3652 -0.2828  0.1607
   74MOL0     C 9893  11.579   0.993   1.336  0.9731  0.7365  0.5918
   74MOL0     C 9894  11.612   0.917   1.209  0.0722  1.3042  0.0250
   74MOL0     C 9895  11.579   0.773   1.227 -0.2255 -0.3583 -0.7397
   74MOL0     C 9896  11.576   0.694   1.092 -0.3772 -0.4082  1.1598
   74MOL0     C 9897  11.718   0.662   1.043  0.6518 -0.7044  0.4727
   74MOL0     C 9898  11.725   0.562   0.930 -0.3978  0.0307 -0.4004
   74MOL0    Cl 9899  11.870   0.463   0.921  0.3874 -0.4412 -0.0983
   74MOL0     C 9900  11.394   1.265   1.715 -0.2837  0.3169  0.4488
   74MOL0     C 9901  11.368   1.324   1.842  0.7355 -0.5519 -0.0192
   74MOL0     O 9902  11.190   1.394   2.085  0.2836  0.4077  0.0849
   74MOL0     C 9903  11.206   1.490   2.333  0.4830  0.3034 -0.3614
   74MOL0     C 9904  11.206   1.522   2.473  0.7241 -0.0342 -0.7894
   74MOL0     N 9905  11.553   1.513   3.168  0.0085 -0.7807  0.6433
   74MOL0     N 9906  11.569   1.518   3.292 -0.1513 -0.4947 -0.1438
   74MOL0     C 9907  10.780   2.040   4.170  0.0274  0.3107 -0.0499
   74MOL0     C 9908  10.643   2.072   4.170 -0.8056 -0.3571  0.1455
   74MOL0     C 9909  10.215   2.114   3.983 -0.3534 -0.2742 -0.4262
   74MOL0     C 9910  10.160   2.097   4.111 -0.4231  0.1864 -0.0960
   74MOL0     C 9911  10.034   2.054   4.124 -0.2442  0.4470  0.3849
   74MOL0     C 9912   9.948   2.046   4.010  0.1020 -0.7453 -0.5975
   74MOL0     O 9913   9.819   2.006   4.019  0.1923 -1.6345  0.0626
   74MOL0     C 9914   9.715   2.101   3.973  0.3538  0.9212 -0.6241
   74MOL0     C 9915   9.592   2.094   4.060 -0.9885  1.0871 -0.2533
   74MOL0     C 9916   9.467   2.155   3.981 -0.0521 -0.4474  0.3046
   74MOL0     C 9917   9.337   2.070   4.021 -0.7093 -0.2784 -0.3617
   74MOL0     C 9918   9.241   2.098   3.918 -0.5670  0.4912 -1.1250
   74MOL0     C 9919   9.149   2.115   3.836  0.1534  0.7942  0.5523
   74MOL0     C 9920  10.003   2.079   3.885 -1.0924  0.4116 -0.9574
   74MOL0     C 9921  10.135   2.101   3.865  0.9409  0.0539 -0.1569
   74MOL0     C 9922  10.189   2.119   3.724 -0.4000  0.3270  0.1128
   74MOL0     H 9923  10.568   1.958   3.852  2.1876  0.0702 -0.8698
   74MOL0     H 9924  10.812   1.915   3.856 -0.6843  1.7745 -0.8036
   74MOL0     H 9925  11.020   2.151   4.069  0.2871 -1.1244 -1.9685
   74MOL0     H 9926  11.095   2.061   4.199 -5.0896  0.2625  1.1244
   74MOL0     H 9927  11.269   1.962   4.058 -0.1663 -0.4858 -0.1152
   74MOL0     H 9928  11.262   2.124   4.009 -0.6453  0.5368 -0.0235
   74MOL0     H 9929  11.130   2.048   3.804 -1.6705 -1.0715  0.9600
   74MOL0     H 9930  11.129   1.884   3.868 -2.2836  1.5023 -0.4120
   74MOL0     H 9931  11.356   2.060   3.764  0.0204 -0.2602  0.5397
   74MOL0     H 9932  11.394   1.923   3.869  2.4079 -0.7592 -1.2094
   74MOL0     H 9933  11.231   1.793   3.685 -0.5976  0.7153  1.8846
   74MOL0     H 9934  11.259   1.926   3.590  0.6957 -0.9916 -1.5114
   74MOL0     H 9935  11.497   1.920   3.605 -0.8077  0.1159  1.5089
   74MOL0     H 9936  11.505   1.785   3.714 -1.7600 -2.7778 -1.0597
   74MOL0     H 9937  11.391   1.797   3.434 -1.2865  0.0718  0.7835
   74MOL0     H 9938  11.354   1.652   3.525 -0.7906  1.0909  1.2218
   74MOL0     H 9939  11.634   1.773   3.499  0.7138 -0.5307 -0.1824
   74MOL0     H 9940  11.617   1.614   3.554 -0.0750  1.9382  2.8788
   74MOL0     H 9941  11.654   1.819   3.219  1.7236 -0.5441 -0.2318
   74MOL0     H 9942  11.596   1.783   2.971  2.9461 -0.2213 -0.2533
   74MOL0     H 9943  11.702   1.655   2.935  0.8635  1.9968  1.4222
   74MOL0     H 9944  11.393   1.631   2.963  1.3768 -0.4412  2.5868
   74MOL0     H 9945  11.470   1.682   2.806  0.5083  2.2346  1.0544
   74MOL0     H 9946  11.542   1.407   2.905 -0.8026  1.3641  2.3495
   74MOL0     H 9947  11.550   1.482   2.743  1.5485 -0.7188  1.5830
   74MOL0     H 9948  11.308   1.415   2.897 -0.0112 -0.2433  0.8468
   74MOL0     H 9949  11.376   1.305   2.774  2.1015  1.3703 -0.9420
   74MOL0     H 9950  11.471   1.329   2.575 -0.4421 -0.4037  0.3329
   74MOL0     H 9951  11.469   1.280   2.326  1.2150  0.0735  1.9647
   74MOL0     H 9952  11.524   1.077   2.023 -1.3099  0.6632  0.6352
   74MOL0     H 9953  11.541   0.975   1.812  0.2215  0.5523  0.9696
   74MOL0     H 9954  11.294   1.113   1.492 -0.1066  0.5461 -0.9830
   74MOL0     H 9955  11.430   1.212   1.436 -1.4136 -0.2763 -0.6658
   74MOL0     H 9956  11.381   0.913   1.400 -2.0881  1.6449  2.9533
   74MOL0     H 9957  11.383   1.041   1.263  4.3143 -1.5713 -2.6713
   74MOL0     H 9958  11.616   1.095   1.328 -0.4085  1.2320  0.1806
   74MOL0     H 9959  11.618   0.944   1.426 -1.5200  1.5123  2.2129
   74MOL0     H 9960  11.720   0.916   1.191  0.2799  0.5014  1.2127
   74MOL0     H 9961  11.573   0.964   1.119  1.8878  1.8163 -0.5393
   74MOL0     H 9962  11.477   0.767   1.269 -0.1933 -0.5275 -0.6846
   74MOL0     H 9963  11.649   0.722   1.294  2.0107  0.3073 -2.4622
   74MOL0     H 9964  11.515   0.604   1.098 -1.8168  0.5158  0.8769
   74MOL0     H 9965  11.535   0.756   1.012 -0.6222 -0.5659  1.1617
   74MOL0     H 9966  11.768   0.613   1.127  0.0895 -2.6580 -0.2987
   74MOL0     H 9967  11.767   0.756   1.014 -2.4908  0.2927 -2.2556
   74MOL0     H 9968  11.647   0.489   0.953  0.9120 -0.3528  3.4336
   74MOL0     H 9969  11.715   0.611   0.833  4.0087  3.7263  0.6834
   74MOL0     H 9970  11.364   1.314   1.623  0.3726 -1.3647 -0.7059
   74MOL0     H 9971  11.332   1.424   1.867  1.4393 -0.4709  0.7382
   74MOL0     H 9972  11.118   1.524   2.280 -2.6836 -2.0887  2.9026
   74MOL0     H 9973  11.131   1.591   2.511  0.1565 -1.5015  0.8690
   74MOL0     H 9974  10.823   2.053   4.269  1.8543 -2.2502 -0.3820
   74MOL0     H 9975  10.591   2.123   4.250 -0.0015 -1.1647  1.2228
   74MOL0     H 9976  10.222   2.101   4.199  0.1088 -1.9636 -0.3078
   74MOL0     H 9977   9.991   2.051   4.224 -0.1808  4.2049  0.7027
   74MOL0     H 9978   9.690   2.065   3.872 -0.4655 -4.6982  1.2522
   74MOL0     H 9979   9.763   2.199   3.972  2.8228 -0.0401  3.1309
   74MOL0     H 9980   9.612   2.141   4.156  3.2789 -0.7498 -0.0599
   74MOL0     H 9981   9.572   1.991   4.090 -3.1398  1.4249 -0.3130
   74MOL0     H 9982   9.479   2.156   3.872  0.0057  3.4172  0.2105
   74MOL0     H 9983   9.455   2.259   4.013 -3.1494 -0.0705 -1.5924
   74MOL0     H 9984   9.355   1.962   4.031 -0.7825 -0.4779 -2.0975
   74MOL0     H 9985   9.293   2.101   4.117 -0.8416 -0.9355 -0.2042
   74MOL0     H 9986   9.057   2.140   3.788 -0.6105 -3.6275 -0.7501
   74MOL0     H 9987   9.934   2.073   3.802 -0.9880  2.4140 -1.2373
   74MOL0     H 9988  10.277   2.054   3.721 -1.4031 -1.0606 -0.0185
   74MOL0     H 9989  10.124   2.084   3.643  0.6526  2.3041 -1.7034
   74MOL0     H 9990  10.224   2.221   3.705 -1.3924  0.6158 -0.2513
   75MOL0     O 9991   1.046   8.136   8.231 -0.5017 -0.1474  0.2551
   75MOL0     C 9992   0.949   8.070   8.220 -0.8999  0.2765 -0.3990
   75MOL0     O 9993   0.826   8.109   8.257  0.0755 -0.2204  0.0393
   75MOL0     C 9994   0.796   8.234   8.321  0.0704  0.3192 -0.4344
   75MOL0     C 9995   0.877   8.296   8.416  0.0657  1.0581  0.7046
   75MOL0     C 9996   0.835   8.415   8.483  0.5667  1.0240  0.6258
   75MOL0     C 9997   0.705   8.463   8.457 -1.5156 -0.2604  0.0650
   75MOL0     O 9998   0.676   8.582   8.505 -0.2700  0.7494 -0.1058
   75MOL0     C 9999   0.605   8.580   8.632  0.0705 -0.0175  0.9380
   75MOL0     C10000   0.665   8.671   8.742  0.6720  0.2654 -0.7190
   75MOL0     C10001   0.557   8.705   8.849 -0.6493  0.1791 -0.5975
   75MOL0     C10002   0.603   8.814   8.943  0.6919 -0.1135 -0.5163
   75MOL0     C10003   0.497   8.835   9.058 -0.7676 -0.5646 -0.1123
   75MOL0     C10004   0.538   8.958   9.145  0.2459 -0.4679 -0.2818
   75MOL0     C10005   0.649   8.930   9.244 -0.9255  0.0769  0.4739
   75MOL0     C10006   0.645   9.041   9.349  0.5406 -0.0221  0.2943
   75MOL0     N10007   0.737   9.010   9.464 -0.2065  0.2321 -0.2897
   75MOL0     C10008   0.703   8.924   9.563  0.4056 -0.9103 -0.0355
   75MOL0     C10009   0.813   8.937   9.641 -0.1486  0.1819 -0.2473
   75MOL0     C10010   0.827   8.869   9.772 -0.2048 -0.8769 -0.6748
   75MOL0     C10011   0.949   8.901   9.862  0.6615 -1.0448  0.1240
   75MOL0     C10012   1.070   8.822   9.805  0.1706 -0.5522 -0.0683
   75MOL0     C10013   1.177   8.828   9.909  0.0055 -0.2649 -0.0846
   75MOL0     O10014   1.296   8.750   9.868 -0.1040  0.8209 -0.5294
   75MOL0     C10015   1.398   8.741   9.959 -0.2993 -0.0824  0.6632
   75MOL0     C10016   1.401   8.794  10.089 -0.5097 -0.3864  0.1665
   75MOL0     C10017   1.502   8.771  10.169  0.1133  0.6624  0.0907
   75MOL0     C10018   1.612   8.701  10.131 -0.2492  0.4482  0.0349
   75MOL0     C10019   1.728   8.678  10.222  0.2305  0.1483  0.1289
   75MOL0     O10020   1.835   8.625  10.155  0.4483  0.1014 -0.3133
   75MOL0     C10021   1.940   8.605  10.234 -0.2966 -0.7096 -0.1510
   75MOL0     C10022   2.018   8.704  10.299  0.7180 -0.5528 -0.2220
   75MOL0     C10023   2.117   8.665  10.386 -0.0999 -0.4430  0.2433
   75MOL0     C10024   2.150   8.533  10.419  0.4017  0.9036  1.0092
   75MOL0     O10025   2.246   8.509  10.513  0.6420 -0.1054 -0.0052
   75MOL0     C10026   2.265   8.374  10.556 -0.8315 -0.2130  0.0636
   75MOL0     C10027   2.322   8.378  10.694  0.2781  0.1774 -0.2296
   75MOL0     C10028   2.363   8.238  10.744  0.0028 -0.2846 -0.2690
   75MOL0     C10029   2.423   8.236  10.888  0.3421 -0.0204  0.7488
   75MOL0     C10030   2.435   8.100  10.948  0.5286  0.1201  0.4410
   75MOL0     C10031   2.297   8.034  10.960  0.2587 -0.8091 -0.4498
   75MOL0     C10032   2.319   7.900  11.038  0.2745 -1.0424  0.0407
   75MOL0     C10033   2.422   7.803  10.976  0.7300 -0.1969 -0.7202
   75MOL0    Cl10034   2.361   7.727  10.827  0.2031  0.4414  0.7564
   75MOL0     C10035   2.077   8.436  10.344  1.2232 -0.3686 -0.2248
   75MOL0     C10036   1.976   8.473  10.254  0.0574 -0.3797  0.3120
   75MOL0     O10037   1.711   8.708  10.343 -0.3274 -0.7660  0.2233
   75MOL0     C10038   1.615   8.653   9.996 -0.3470 -0.4564  0.2796
   75MOL0     C10039   1.507   8.672   9.909  0.1510 -0.4724  0.2094
   75MOL0     N10040   0.911   9.022   9.576 -0.0404  0.3517  0.3395
   75MOL0     N10041   0.867   9.062   9.471 -0.2740 -0.6763  0.5436
   75MOL0     C10042   0.625   8.401   8.367  0.1307 -0.6847  0.3068
   75MOL0     C10043   0.670   8.286   8.296  0.6719  0.4445 -0.6756
   75MOL0     C10044   0.972   7.932   8.182 -0.7010  0.2898  0.3311
   75MOL0     C10045   1.003   7.843   8.279  0.0018  0.0421 -0.9387
   75MOL0     C10046   1.016   7.707   8.250  0.2466 -0.3984 -0.8011
   75MOL0     C10047   1.009   7.658   8.119  0.3460  0.9747 -1.0023
   75MOL0     O10048   0.991   7.527   8.091  0.2340 -0.0967  0.4068
   75MOL0     C10049   1.021   7.429   8.192 -0.3720  0.4225  0.3268
   75MOL0     C10050   1.011   7.278   8.141  0.0680 -0.5218  0.7069
   75MOL0     C10051   1.108   7.231   8.023 -0.6461 -0.4267 -0.3449
   75MOL0     C10052   1.252   7.241   8.081  0.2239 -0.2393 -0.2776
   75MOL0     C10053   1.354   7.175   7.997  0.5005  0.5588 -0.4029
   75MOL0     C10054   1.446   7.131   7.940 -0.2077 -0.8874  0.7128
   75MOL0     C10055   1.002   7.756   8.024 -0.6250  0.6125 -0.9642
   75MOL0     C10056   0.987   7.892   8.044 -0.4644  0.7992  0.0897
   75MOL0     C10057   0.966   7.985   7.931  0.1403 -0.1354  0.1212
   75MOL0     H10058   0.973   8.254   8.443 -0.7433 -1.1843  0.3328
   75MOL0     H10059   0.910   8.467   8.541  1.7957  0.9804 -0.8736
   75MOL0     H10060   0.504   8.610   8.604  0.6145 -0.6064 -2.0177
   75MOL0     H10061   0.604   8.480   8.675  2.2387 -0.0663  0.9936
   75MOL0     H10062   0.695   8.768   8.703  0.0325  1.0494  0.6433
   75MOL0     H10063   0.752   8.629   8.794  2.2244  3.6328 -0.2737
   75MOL0     H10064   0.535   8.620   8.914  6.4696 -1.5223  0.4806
   75MOL0     H10065   0.468   8.740   8.796  0.5286 -0.2226 -2.9785
   75MOL0     H10066   0.699   8.781   8.984  0.8369 -1.7335 -2.0082
   75MOL0     H10067   0.622   8.908   8.891  3.6442  0.0040  0.5738
   75MOL0     H10068   0.400   8.853   9.010 -0.0695  3.7175 -0.3754
   75MOL0     H10069   0.492   8.742   9.115 -2.7680 -0.2758  0.2598
   75MOL0     H10070   0.554   9.046   9.082 -2.8479  1.1605  0.9532
   75MOL0     H10071   0.451   8.997   9.199 -1.3959 -0.3662 -2.8027
   75MOL0     H10072   0.743   8.913   9.191 -1.7616 -2.0940 -0.4135
   75MOL0     H10073   0.615   8.841   9.296  0.1784  0.5960  2.1795
   75MOL0     H10074   0.664   9.138   9.301 -0.6376  0.2642  0.3959
   75MOL0     H10075   0.546   9.042   9.394  1.5934 -2.4996  3.0018
   75MOL0     H10076   0.613   8.864   9.570 -0.3218  0.0078 -1.2255
   75MOL0     H10077   0.746   8.907   9.835 -0.0301  0.3376 -1.1451
   75MOL0     H10078   0.827   8.760   9.762 -1.7885 -1.1655  1.7602
   75MOL0     H10079   0.967   9.009   9.854 -0.4306 -0.9933 -2.3302
   75MOL0     H10080   0.927   8.869   9.964  0.3578 -1.0884  0.0478
   75MOL0     H10081   1.083   8.851   9.700 -3.0927  2.5632  0.2159
   75MOL0     H10082   1.054   8.714   9.792  2.1379 -0.7842 -0.8619
   75MOL0     H10083   1.132   8.796  10.003 -1.9008  2.2350 -0.0261
   75MOL0     H10084   1.212   8.932   9.908 -1.3453  0.2519 -2.7967
   75MOL0     H10085   1.326   8.856  10.137 -0.2258  0.1923 -0.1197
   75MOL0     H10086   1.501   8.810  10.270  1.5280 -2.5956  1.4933
   75MOL0     H10087   1.992   8.809  10.291  1.0291 -0.2829  1.7417
   75MOL0     H10088   2.172   8.747  10.431 -0.4315 -0.3603  0.4974
   75MOL0     H10089   2.164   8.331  10.560 -0.7170 -0.4331  0.7563
   75MOL0     H10090   2.330   8.307  10.499 -0.9480  2.1131 -3.0468
   75MOL0     H10091   2.405   8.449  10.694  1.0617 -0.6765  1.4447
   75MOL0     H10092   2.252   8.416  10.768  1.3657  0.4626  0.6674
   75MOL0     H10093   2.273   8.175  10.743 -1.7176  2.0293  0.4208
   75MOL0     H10094   2.430   8.192  10.670 -1.8355 -2.9397 -0.4200
   75MOL0     H10095   2.376   8.301  10.963 -1.9938 -0.4688 -0.2521
   75MOL0     H10096   2.527   8.268  10.872  0.9357 -2.0554  0.2414
   75MOL0     H10097   2.481   8.107  11.047  1.8285 -1.0617 -0.0496
   75MOL0     H10098   2.499   8.039  10.884 -0.1748 -1.9040  1.5769
   75MOL0     H10099   2.235   8.092  11.029  0.9603 -0.8612  0.2395
   75MOL0     H10100   2.252   8.006  10.864 -0.3122  0.9527 -0.7136
   75MOL0     H10101   2.225   7.848  11.060  1.0694 -3.7993 -2.4415
   75MOL0     H10102   2.352   7.936  11.136 -2.9897  1.1565  0.5169
   75MOL0     H10103   2.522   7.847  10.964  0.8983  0.1737  1.5811
   75MOL0     H10104   2.440   7.721  11.047 -1.5211 -0.3664 -0.2760
   75MOL0     H10105   2.094   8.329  10.353  2.0362 -0.0961  2.0381
   75MOL0     H10106   1.917   8.395  10.207 -0.3680  1.1076 -1.7734
   75MOL0     H10107   1.691   8.595   9.945 -0.2825  1.5355 -2.1293
   75MOL0     H10108   1.505   8.648   9.804 -2.7084  0.2129  0.0208
   75MOL0     H10109   0.539   8.458   8.332  0.4910 -0.1389  0.2883
   75MOL0     H10110   0.608   8.238   8.221 -0.8300 -2.7774  2.3162
   75MOL0     H10111   0.996   7.863   8.385 -2.7809  0.1209 -1.0803
   75MOL0     H10112   1.033   7.635   8.330 -3.2554 -1.6180 -1.0117
   75MOL0     H10113   0.956   7.445   8.279 -1.0312  3.2985 -0.6077
   75MOL0     H10114   1.126   7.449   8.213  0.0263 -1.5324  0.4660
   75MOL0     H10115   0.908   7.262   8.108  0.3919 -0.2765 -0.4604
   75MOL0     H10116   1.028   7.219   8.232 -1.5245  1.8029  2.6443
   75MOL0     H10117   1.100   7.304   7.942 -0.2246  2.4807  2.0752
   75MOL0     H10118   1.087   7.129   7.988 -0.9685 -0.7314  0.7096
   75MOL0     H10119   1.283   7.344   8.095 -1.4281  0.5113 -1.7687
   75MOL0     H10120   1.267   7.190   8.176 -0.4019 -0.7533 -0.4415
   75MOL0     H10121   1.527   7.090   7.884 -1.2415 -1.2609 -0.5484
   75MOL0     H10122   0.993   7.715   7.924 -0.0494  0.5159 -0.9751
   75MOL0     H10123   0.886   8.053   7.963 -0.0801  0.3619 -1.4253
   75MOL0     H10124   1.057   8.045   7.917 -0.9771  1.7943  0.7795
   75MOL0     H10125   0.936   7.929   7.843 -2.1052  2.6861 -1.0699
   76MOL0     O10126   3.129   8.523   0.421 -0.1236 -0.1359 -0.4685
   76MOL0     C10127   3.081   8.603   0.344 -0.6724  0.3100  1.1689
   76MOL0     O10128   3.114   8.735   0.326 -0.1359 -0.7756 -0.0069
   76MOL0     C10129   3.212   8.785   0.399  0.0319  0.0716 -0.8293
   76MOL0     C10130   3.192   8.914   0.460 -0.1716  0.5585  0.2248
   76MOL0     C10131   3.286   8.954   0.559  0.3138 -0.1028 -0.6364
   76MOL0     C10132   3.402   8.887   0.570  0.5778 -0.7595 -0.3376
   76MOL0     O10133   3.499   8.941   0.649 -0.3858 -0.3921 -0.7570
   76MOL0     C10134   3.482   8.948   0.788  0.4947  0.2453  0.0925
   76MOL0     C10135   3.579   9.051   0.844 -0.4835 -0.1702 -0.8806
   76MOL0     C10136   3.638   8.998   0.981  0.0112  0.0289  0.3275
   76MOL0     C10137   3.756   9.077   1.032 -0.2829  0.8446 -0.6695
   76MOL0     C10138   3.742   9.222   1.032 -0.1368 -0.3632 -0.5712
   76MOL0     C10139   3.882   9.289   1.058  0.1942 -0.1934  0.0721
   76MOL0     C10140   3.871   9.446   1.045 -0.4611 -0.5393 -0.8741
   76MOL0     C10141   3.976   9.519   1.116 -0.3852 -0.1393  0.2701
   76MOL0     N10142   4.110   9.529   1.053 -0.1636  0.2055  0.3667
   76MOL0     C10143   4.139   9.612   0.945 -0.7767  0.1519 -1.0128
   76MOL0     C10144   4.261   9.570   0.896  0.0720 -0.8477 -0.4341
   76MOL0     C10145   4.341   9.614   0.773  0.0248 -0.5836 -0.1789
   76MOL0     C10146   4.437   9.512   0.724 -1.4231  0.0103  0.0015
   76MOL0     C10147   4.456   9.522   0.579  0.2813 -0.2281  0.5289
   76MOL0     C10148   4.571   9.429   0.538  0.5150 -0.0117 -1.0382
   76MOL0     O10149   4.537   9.291   0.532 -0.3162  0.6850  0.3843
   76MOL0     C10150   4.621   9.194   0.481 -0.6785  0.3684  0.5818
   76MOL0     C10151   4.570   9.078   0.430  1.2360 -0.2991 -0.2467
   76MOL0     C10152   4.647   8.969   0.396 -0.0372  0.1592  0.8032
   76MOL0     C10153   4.787   8.967   0.413  0.0794  0.4496  0.3683
   76MOL0     C10154   4.872   8.847   0.379 -0.5694 -0.4070  0.1824
   76MOL0     O10155   4.811   8.739   0.320  0.0168 -0.3107 -0.3234
   76MOL0     C10156   4.881   8.631   0.286 -0.4532 -0.1254  0.0581
   76MOL0     C10157   4.987   8.569   0.356  0.1866 -0.7687 -0.2070
   76MOL0     C10158   5.033   8.443   0.328  0.8923 -0.2859 -0.5810
   76MOL0     C10159   4.977   8.378   0.224  0.1951 -0.0609  0.9204
   76MOL0     O10160   5.021   8.251   0.199  0.1131  0.4240 -0.2109
   76MOL0     C10161   4.949   8.164   0.112 -0.7341  0.2053  0.6373
   76MOL0     C10162   5.009   8.028   0.087  1.1247  0.5727  0.0737
   76MOL0     C10163   5.126   8.052  -0.009  0.7000  0.2163 -1.1499
   76MOL0     C10164   5.199   7.921  -0.010  0.5200 -0.9699 -0.3048
   76MOL0     C10165   5.133   7.789  -0.039  0.4389  0.4457 -0.4481
   76MOL0     C10166   5.056   7.771  -0.163 -0.7117  0.1115  0.0150
   76MOL0     C10167   5.142   7.793  -0.278 -0.1130  0.9211 -0.0703
   76MOL0     C10168   5.055   7.769  -0.395 -0.0486 -0.3614 -0.3188
   76MOL0    Cl10169   5.155   7.721  -0.526  0.0489 -0.2032  0.1949
   76MOL0     C10170   4.879   8.437   0.138  0.0026 -0.8914 -0.3232
   76MOL0     C10171   4.837   8.563   0.178  0.0927  1.0025  0.3409
   76MOL0     O10172   4.992   8.857   0.399  0.1430  0.5927 -0.4870
   76MOL0     C10173   4.848   9.084   0.461 -0.2012 -0.2509  0.5504
   76MOL0     C10174   4.762   9.196   0.493  0.1516 -0.8138  0.4279
   76MOL0     N10175   4.301   9.470   0.988 -0.4631 -0.6985  0.3366
   76MOL0     N10176   4.217   9.447   1.077 -0.9906  0.1308  0.3479
   76MOL0     C10177   3.429   8.776   0.494  0.3499  0.1347 -0.7881
   76MOL0     C10178   3.332   8.716   0.411 -0.2971 -0.3404  0.2535
   76MOL0     C10179   2.984   8.562   0.240  0.3927  0.2954 -0.1134
   76MOL0     C10180   2.990   8.629   0.122  0.3951 -0.4450  0.6793
   76MOL0     C10181   2.905   8.603   0.011 -0.1573  0.1563  0.0852
   76MOL0     C10182   2.804   8.509   0.022 -0.2253  0.1743 -0.3047
   76MOL0     O10183   2.719   8.485  -0.086  0.1915  0.3432  0.4971
   76MOL0     C10184   2.613   8.387  -0.054  1.4552 -1.1081  0.3195
   76MOL0     C10185   2.501   8.372  -0.158  0.0149  0.2352 -0.8169
   76MOL0     C10186   2.404   8.497  -0.152 -0.0723 -0.0448  1.1279
   76MOL0     C10187   2.303   8.513  -0.257 -0.7923  0.2524 -0.1273
   76MOL0     C10188   2.212   8.397  -0.266 -0.7258  0.2818 -0.6232
   76MOL0     C10189   2.137   8.300  -0.269 -0.4722 -0.2495 -0.0200
   76MOL0     C10190   2.808   8.425   0.128  0.0066 -0.7577 -0.4832
   76MOL0     C10191   2.894   8.449   0.236  0.0102 -0.1864 -0.6935
   76MOL0     C10192   2.890   8.354   0.355 -0.7923 -0.4672  0.1221
   76MOL0     H10193   3.109   8.983   0.452 -1.9964 -0.8981  4.1090
   76MOL0     H10194   3.265   9.042   0.619 -1.2262  0.0814 -1.3786
   76MOL0     H10195   3.381   8.984   0.810 -0.1530 -0.6593 -1.2216
   76MOL0     H10196   3.515   8.853   0.830  1.1100  1.4960  2.6712
   76MOL0     H10197   3.532   9.150   0.843  0.4975  0.3577  0.6479
   76MOL0     H10198   3.666   9.055   0.777 -0.9871 -0.7678 -1.5841
   76MOL0     H10199   3.672   8.895   0.966 -1.0339 -0.3829  0.6616
   76MOL0     H10200   3.555   8.991   1.052 -1.0945 -1.9575 -1.0582
   76MOL0     H10201   3.770   9.048   1.136 -3.2579  4.3939  0.9330
   76MOL0     H10202   3.835   9.037   0.968 -1.3422 -2.0302 -0.3034
   76MOL0     H10203   3.700   9.256   0.937  0.1855 -2.0453 -1.3627
   76MOL0     H10204   3.673   9.255   1.111  0.3320  1.0700 -0.7348
   76MOL0     H10205   3.909   9.263   1.161  1.0189 -0.4320 -0.1941
   76MOL0     H10206   3.950   9.237   0.990 -0.9536 -0.4683 -0.8918
   76MOL0     H10207   3.785   9.495   1.092  1.1488 -0.0822  1.8355
   76MOL0     H10208   3.877   9.486   0.944  1.7496  0.4630 -0.4118
   76MOL0     H10209   3.939   9.620   1.134  1.1717  1.5788 -4.6641
   76MOL0     H10210   3.981   9.465   1.211 -0.2019  0.5202  0.6416
   76MOL0     H10211   4.084   9.696   0.901  3.6025  3.3933 -0.9945
   76MOL0     H10212   4.271   9.643   0.694  0.2021  0.2409 -0.0400
   76MOL0     H10213   4.388   9.709   0.799 -2.1125  0.2282  0.9244
   76MOL0     H10214   4.535   9.539   0.766 -1.3446  3.2797 -1.9685
   76MOL0     H10215   4.398   9.410   0.732 -0.1261 -0.8322 -3.0560
   76MOL0     H10216   4.487   9.626   0.565  0.3641 -0.1463  1.2704
   76MOL0     H10217   4.359   9.509   0.529  0.8130  0.8888 -0.8623
   76MOL0     H10218   4.651   9.450   0.610  0.3702  1.0506 -1.1625
   76MOL0     H10219   4.612   9.473   0.447 -0.9606 -1.2310 -2.3648
   76MOL0     H10220   4.463   9.082   0.411  0.7898  1.0601  2.0429
   76MOL0     H10221   4.609   8.878   0.351  0.3989  0.6356 -0.6022
   76MOL0     H10222   5.035   8.617   0.440  0.0635 -0.2566 -0.4244
   76MOL0     H10223   5.093   8.387   0.399 -0.9730  0.1295  1.4138
   76MOL0     H10224   4.853   8.133   0.154 -0.1573 -0.1036  1.7521
   76MOL0     H10225   4.936   8.206   0.011  1.5283 -0.5841 -0.0474
   76MOL0     H10226   5.047   7.979   0.177  0.3466  3.3049  2.0117
   76MOL0     H10227   4.936   7.960   0.042 -1.2097  1.8651  1.6898
   76MOL0     H10228   5.076   8.060  -0.106 -0.3694  0.0824 -0.6297
   76MOL0     H10229   5.198   8.128   0.022 -0.9369  1.8210 -1.0832
   76MOL0     H10230   5.244   7.915   0.089 -1.0185  0.3928  0.5243
   76MOL0     H10231   5.285   7.925  -0.077  1.2985 -0.6989  0.6925
   76MOL0     H10232   5.070   7.760   0.045  1.7347 -3.3675 -0.5985
   76MOL0     H10233   5.206   7.707  -0.037 -0.1242 -0.0531  1.3174
   76MOL0     H10234   5.020   7.668  -0.157 -2.6041  0.7612  0.7442
   76MOL0     H10235   4.964   7.830  -0.162 -0.3769  0.6587 -0.5808
   76MOL0     H10236   5.227   7.726  -0.266  1.1336  2.3452 -0.6961
   76MOL0     H10237   5.184   7.894  -0.285  1.4718  0.2558 -0.4557
   76MOL0     H10238   4.988   7.685  -0.375  0.8308 -1.1039 -0.4448
   76MOL0     H10239   4.991   7.855  -0.415  2.0938  1.2301 -0.6825
   76MOL0     H10240   4.843   8.391   0.046  0.6710  0.2116 -1.1631
   76MOL0     H10241   4.765   8.629   0.131 -0.6663 -0.9397 -1.3417
   76MOL0     H10242   4.951   9.087   0.494 -1.4672 -3.2833  5.9251
   76MOL0     H10243   4.808   9.287   0.532  1.5927 -0.7623 -1.2578
   76MOL0     H10244   3.529   8.737   0.476  0.2067 -0.2713 -0.7283
   76MOL0     H10245   3.348   8.634   0.341 -0.6731  0.1911 -0.4612
   76MOL0     H10246   3.053   8.712   0.091 -0.1400 -0.4543 -0.4971
   76MOL0     H10247   2.921   8.639  -0.090  0.4336 -1.1273 -0.2984
   76MOL0     H10248   2.563   8.413   0.040 -2.1895 -1.9888 -1.2163
   76MOL0     H10249   2.654   8.286  -0.047 -0.0097 -1.9543 -2.0295
   76MOL0     H10250   2.445   8.280  -0.140  0.1010  0.7707  2.8858
   76MOL0     H10251   2.551   8.366  -0.255  1.3615 -3.6494 -0.0471
   76MOL0     H10252   2.464   8.587  -0.171  0.5567 -0.5462  0.6985
   76MOL0     H10253   2.360   8.510  -0.053 -0.0393  0.7169  1.0485
   76MOL0     H10254   2.238   8.601  -0.264 -1.8494 -0.5206 -0.2250
   76MOL0     H10255   2.360   8.520  -0.350  2.9027  0.4704  1.9349
   76MOL0     H10256   2.078   8.212  -0.254 -0.8884 -0.4340 -2.3871
   76MOL0     H10257   2.754   8.331   0.132 -0.4250 -0.4897  0.1980
   76MOL0     H10258   2.824   8.272   0.328  0.9957 -1.7019 -0.6493
   76MOL0     H10259   2.987   8.307   0.374 -0.7108  0.5889  2.7908
   76MOL0     H10260   2.855   8.398   0.449  0.1862 -0.9367  0.7221
   77MOL0     O10261   5.567   8.715   2.321 -0.0622  0.3336  0.5637
   77MOL0     C10262   5.555   8.600   2.357  0.1748 -0.2217 -0.7941
   77MOL0     O10263   5.655   8.526   2.400 -0.1408  0.3512  0.4207
   77MOL0     C10264   5.780   8.592   2.405  0.6320  0.2502  0.6266
   77MOL0     C10265   5.873   8.516   2.343 -0.0909  0.4499 -0.0929
   77MOL0     C10266   6.007   8.544   2.358 -0.8392 -0.6725 -0.9076
   77MOL0     C10267   6.041   8.664   2.424 -0.5437 -0.1087  0.3161
   77MOL0     O10268   6.169   8.704   2.425 -0.1782 -0.9891 -0.0151
   77MOL0     C10269   6.229   8.737   2.298 -0.1038 -0.2895  0.0899
   77MOL0     C10270   6.348   8.825   2.323 -0.2234  0.7028  0.4841
   77MOL0     C10271   6.332   8.975   2.354 -0.3410 -0.5112 -0.3210
   77MOL0     C10272   6.210   9.051   2.304  0.1684  0.0391  0.9038
   77MOL0     C10273   6.183   9.165   2.404 -0.2463 -0.5273  0.4896
   77MOL0     C10274   6.052   9.240   2.378  0.2190 -0.2314  0.1218
   77MOL0     C10275   6.021   9.323   2.497 -1.3525 -0.2002 -0.2710
   77MOL0     C10276   6.103   9.448   2.516 -0.3788 -0.0507 -0.0797
   77MOL0     N10277   6.045   9.541   2.609 -0.3291 -0.3898  0.3705
   77MOL0     C10278   5.925   9.602   2.595 -0.0531  0.2457  0.5520
   77MOL0     C10279   5.924   9.691   2.695  0.1082  0.1783 -0.2947
   77MOL0     C10280   5.797   9.758   2.745  0.9775 -0.2756  0.6468
   77MOL0     C10281   5.807   9.809   2.891 -0.0372 -0.1441 -0.2473
   77MOL0     C10282   5.680   9.856   2.949  0.3332  0.2193 -0.4818
   77MOL0     C10283   5.666   9.812   3.095  0.6953 -0.1402  0.3977
   77MOL0     O10284   5.622   9.678   3.091  0.1956 -0.0397 -0.3251
   77MOL0     C10285   5.615   9.624   3.217  0.2653  1.3708 -0.8713
   77MOL0     C10286   5.733   9.601   3.291  1.0112 -0.5550  0.9486
   77MOL0     C10287   5.731   9.526   3.409  0.1993 -0.1231  0.1935
   77MOL0     C10288   5.610   9.486   3.469  0.6000  0.2439  1.4880
   77MOL0     C10289   5.609   9.420   3.608 -0.0414  0.0629 -1.2752
   77MOL0     O10290   5.725   9.418   3.681  0.6094 -0.4028  0.1344
   77MOL0     C10291   5.729   9.358   3.798  0.6069  0.7458 -0.5621
   77MOL0     C10292   5.845   9.277   3.825 -0.7838  0.8545 -0.7071
   77MOL0     C10293   5.864   9.221   3.954 -0.1430 -0.7448  0.0096
   77MOL0     C10294   5.775   9.244   4.059  0.0245  0.1917 -0.4109
   77MOL0     O10295   5.806   9.193   4.193 -0.0477 -0.4884  0.2173
   77MOL0     C10296   5.802   9.291   4.288 -0.6584 -0.1513 -0.6453
   77MOL0     C10297   5.897   9.260   4.419  0.0764 -0.3057  0.8716
   77MOL0     C10298   5.862   9.361   4.532  0.4842 -1.1947  0.2449
   77MOL0     C10299   5.738   9.335   4.609 -0.8561 -0.0951 -0.4506
   77MOL0     C10300   5.701   9.445   4.718 -0.1498 -0.7803 -0.2056
   77MOL0     C10301   5.636   9.585   4.667  0.1461  0.1895 -0.7771
   77MOL0     C10302   5.489   9.565   4.633 -0.4415 -0.1886 -0.9422
   77MOL0     C10303   5.420   9.691   4.681  0.0870  0.0118 -0.4055
   77MOL0    Cl10304   5.486   9.839   4.604  0.0216 -0.0367  0.0777
   77MOL0     C10305   5.670   9.330   4.027  0.5854  0.1793 -0.0016
   77MOL0     C10306   5.642   9.390   3.903 -0.1052  0.4638 -0.7547
   77MOL0     O10307   5.502   9.367   3.645  0.1440  0.0813  0.3475
   77MOL0     C10308   5.495   9.506   3.385 -1.1243 -0.3489  0.1651
   77MOL0     C10309   5.498   9.558   3.261  0.8417  0.0094  0.1420
   77MOL0     N10310   6.039   9.685   2.769 -0.5618  0.4581 -0.2578
   77MOL0     N10311   6.113   9.589   2.711 -0.1990 -0.5936 -0.9114
   77MOL0     C10312   5.939   8.732   2.489 -0.5430  0.1364  0.4360
   77MOL0     C10313   5.807   8.700   2.491 -0.6941 -0.0898  0.3263
   77MOL0     C10314   5.418   8.533   2.350  0.2542 -0.2183  1.0856
   77MOL0     C10315   5.387   8.416   2.424  0.3954 -0.2634 -0.6024
   77MOL0     C10316   5.265   8.351   2.423 -0.4290  0.2144 -0.4074
   77MOL0     C10317   5.159   8.392   2.337 -0.2583 -0.5991  0.2250
   77MOL0     O10318   5.053   8.320   2.310 -0.6054  0.3681  0.1910
   77MOL0     C10319   4.927   8.366   2.264  0.0077 -0.6746  0.5921
   77MOL0     C10320   4.857   8.471   2.361 -0.4296  0.7889 -0.7471
   77MOL0     C10321   4.841   8.413   2.509 -0.3111  0.5386  0.4836
   77MOL0     C10322   4.697   8.367   2.551  0.7056 -0.5530  0.2015
   77MOL0     C10323   4.651   8.249   2.484 -0.5264 -0.3395  0.3937
   77MOL0     C10324   4.642   8.141   2.433 -0.0528  0.0375  0.0110
   77MOL0     C10325   5.184   8.509   2.268 -1.1399 -0.4414  0.8674
   77MOL0     C10326   5.310   8.577   2.264 -0.0282  1.4208  0.6836
   77MOL0     C10327   5.334   8.697   2.182  0.5175  0.4536 -0.4385
   77MOL0     H10328   5.833   8.439   2.278  0.5405  1.0842 -1.2750
   77MOL0     H10329   6.085   8.480   2.317  1.5449 -0.0278  2.2520
   77MOL0     H10330   6.258   8.642   2.253 -1.3251  0.2395 -1.9219
   77MOL0     H10331   6.158   8.788   2.233  0.6741  0.8317  0.1039
   77MOL0     H10332   6.418   8.829   2.239 -1.4574  1.0329 -0.5551
   77MOL0     H10333   6.406   8.777   2.402  1.4710  1.9737  0.0825
   77MOL0     H10334   6.417   9.038   2.323 -2.4076  2.8818  0.3797
   77MOL0     H10335   6.336   8.978   2.463  1.4947  1.0351 -0.3756
   77MOL0     H10336   6.229   9.082   2.201  0.6980 -1.6674  0.4503
   77MOL0     H10337   6.125   8.984   2.290 -0.2418  0.7211  0.0678
   77MOL0     H10338   6.178   9.127   2.507  1.6960  1.3488  1.3687
   77MOL0     H10339   6.268   9.233   2.410  0.9318 -1.9702  0.8476
   77MOL0     H10340   6.056   9.302   2.288  0.9769  1.1494  1.0800
   77MOL0     H10341   5.972   9.167   2.361 -1.5487  1.6465  0.0721
   77MOL0     H10342   6.016   9.270   2.592  1.3518 -0.1554 -0.0041
   77MOL0     H10343   5.921   9.360   2.477 -0.8322  1.0873 -0.6139
   77MOL0     H10344   6.203   9.424   2.555 -0.7018 -1.8276 -0.2812
   77MOL0     H10345   6.124   9.500   2.421  1.4706 -2.2560 -0.9839
   77MOL0     H10346   5.853   9.591   2.514  1.5315 -1.8199 -0.6530
   77MOL0     H10347   5.762   9.837   2.677  3.3232  1.7664  1.6720
   77MOL0     H10348   5.713   9.687   2.747 -0.3300  1.2019  0.2195
   77MOL0     H10349   5.853   9.729   2.949  0.8917 -2.3743 -3.7589
   77MOL0     H10350   5.877   9.894   2.890  0.9418 -0.9365 -1.0572
   77MOL0     H10351   5.598   9.812   2.891 -0.4814  0.5527  0.3900
   77MOL0     H10352   5.673   9.965   2.943 -0.5797  0.1262 -1.3321
   77MOL0     H10353   5.593   9.866   3.156  0.7630 -1.7579  1.9912
   77MOL0     H10354   5.767   9.826   3.136  0.4264  0.8723  0.7494
   77MOL0     H10355   5.825   9.628   3.239 -0.0662 -4.8556 -4.0028
   77MOL0     H10356   5.826   9.500   3.455  0.3804  0.4606  0.1638
   77MOL0     H10357   5.907   9.252   3.740  0.7852  1.7189  0.1380
   77MOL0     H10358   5.947   9.152   3.963  1.2070  0.8078 -0.0828
   77MOL0     H10359   5.845   9.383   4.247  0.6543  0.1920  1.3744
   77MOL0     H10360   5.698   9.317   4.309 -0.9163 -1.8878  0.4383
   77MOL0     H10361   5.880   9.157   4.450  1.6920 -0.4692  1.3259
   77MOL0     H10362   6.004   9.271   4.400  0.5430 -1.6773  2.4608
   77MOL0     H10363   5.954   9.361   4.591  1.4162 -0.5831 -1.1649
   77MOL0     H10364   5.856   9.464   4.496  2.6212 -1.3778 -0.8084
   77MOL0     H10365   5.742   9.237   4.658  3.1814 -1.2343 -2.5971
   77MOL0     H10366   5.660   9.317   4.535  1.1364  1.3652 -3.0919
   77MOL0     H10367   5.795   9.471   4.767 -0.9097 -1.2395  1.5700
   77MOL0     H10368   5.636   9.397   4.793 -0.2673  2.0211  1.6407
   77MOL0     H10369   5.648   9.654   4.751 -3.2423 -3.1014  2.8426
   77MOL0     H10370   5.688   9.612   4.575 -0.8542  1.4312 -0.9981
   77MOL0     H10371   5.450   9.479   4.688 -0.4208 -0.3390 -1.1606
   77MOL0     H10372   5.485   9.542   4.526  0.8565 -0.6644 -0.9164
   77MOL0     H10373   5.317   9.683   4.646 -0.1373  0.5905  0.1088
   77MOL0     H10374   5.425   9.692   4.790 -3.7834  0.3476 -0.0928
   77MOL0     H10375   5.602   9.358   4.107 -1.6122  0.5469 -1.8895
   77MOL0     H10376   5.560   9.461   3.893 -0.3449  0.2821 -0.1568
   77MOL0     H10377   5.398   9.472   3.420 -0.6047 -2.9551 -0.7163
   77MOL0     H10378   5.418   9.537   3.191  0.8715  0.8110 -0.1341
   77MOL0     H10379   5.980   8.820   2.540  0.5277  0.8178 -1.4915
   77MOL0     H10380   5.727   8.754   2.541  0.4678  1.1278  0.9370
   77MOL0     H10381   5.449   8.383   2.506 -0.6654  1.0175  0.7714
   77MOL0     H10382   5.253   8.263   2.486 -1.0862  0.0181 -0.7960
   77MOL0     H10383   4.854   8.287   2.248 -0.0035 -0.5988  0.2511
   77MOL0     H10384   4.944   8.420   2.170 -2.1025  0.4019  0.7650
   77MOL0     H10385   4.760   8.492   2.317 -0.0140  3.5384 -0.4949
   77MOL0     H10386   4.917   8.562   2.373 -1.4016  1.0705  3.5447
   77MOL0     H10387   4.880   8.488   2.578  1.5219  0.4363 -0.3945
   77MOL0     H10388   4.909   8.328   2.522 -0.5701  0.3095  0.3456
   77MOL0     H10389   4.709   8.340   2.656 -0.3497 -1.6548  0.0552
   77MOL0     H10390   4.633   8.456   2.550  1.7424  0.4514  3.9386
   77MOL0     H10391   4.637   8.039   2.400  1.1955 -1.0378  2.8860
   77MOL0     H10392   5.104   8.556   2.211 -0.8054  0.0212  0.7839
   77MOL0     H10393   5.259   8.709   2.103  2.5271 -0.2884 -2.5726
   77MOL0     H10394   5.341   8.783   2.249  3.3489 -0.4358  0.5504
   77MOL0     H10395   5.424   8.684   2.121 -0.2254  2.8702 -2.2115
   78MOL0     O10396   8.211   8.131  10.597  0.3209  0.6670 -0.6164
   78MOL0     C10397   8.219   8.008  10.605 -0.8318 -0.1289  0.3821
   78MOL0     O10398   8.329   7.932  10.584 -0.7944  0.4127  0.4301
   78MOL0     C10399   8.457   8.003  10.583  0.3907  0.8478  0.7987
   78MOL0     C10400   8.527   8.001  10.461 -0.5717  0.0449 -0.5384
   78MOL0     C10401   8.648   8.074  10.452  0.9261 -0.7246  0.8413
   78MOL0     C10402   8.700   8.134  10.567 -1.0973 -0.3355 -0.2225
   78MOL0     O10403   8.822   8.198  10.556  0.0285 -0.8166 -0.2623
   78MOL0     C10404   8.917   8.133  10.473 -0.2608 -0.0776  0.4565
   78MOL0     C10405   9.053   8.196  10.497  0.5099 -0.1035 -0.1980
   78MOL0     C10406   9.061   8.334  10.442  0.8713  0.0938  0.4587
   78MOL0     C10407   9.208   8.383  10.477 -0.2238  1.0189 -0.1170
   78MOL0     C10408   9.213   8.536  10.495 -0.0661 -0.4647  0.7268
   78MOL0     C10409   9.346   8.562  10.564 -0.5121 -0.8525  1.1542
   78MOL0     C10410   9.344   8.557  10.708  0.1548 -0.5020 -0.1708
   78MOL0     C10411   9.473   8.572  10.777 -0.6570 -0.9500 -0.0162
   78MOL0     N10412   9.560   8.454  10.809  0.2832  0.1858 -0.5796
   78MOL0     C10413   9.618   8.375  10.714  0.0810  0.5731 -0.1695
   78MOL0     C10414   9.705   8.296  10.779 -0.5636  0.6323  0.1082
   78MOL0     C10415   9.805   8.184  10.729 -0.1338 -0.3701  0.1707
   78MOL0     C10416   9.943   8.245  10.734  0.4533 -0.4691  0.5458
   78MOL0     C10417  10.055   8.137  10.722  0.2822  0.0795  0.0884
   78MOL0     C10418  10.193   8.201  10.710 -0.1118 -0.2833 -0.2216
   78MOL0     O10419  10.222   8.273  10.590  0.4972 -0.4633  0.0341
   78MOL0     C10420  10.335   8.347  10.599 -0.0559 -0.9688  0.6084
   78MOL0     C10421  10.354   8.438  10.494  0.1533  0.1099 -0.6576
   78MOL0     C10422  10.470   8.514  10.471  0.5985 -0.4269 -0.4718
   78MOL0     C10423  10.573   8.502  10.566 -0.6681 -1.0326  0.2031
   78MOL0     C10424  10.693   8.582  10.540  0.3986 -0.1820  0.2751
   78MOL0     O10425  10.683   8.702  10.460  0.2463 -0.1819 -0.1740
   78MOL0     C10426  10.780   8.785  10.432  0.0519 -0.1982  0.2357
   78MOL0     C10427  10.734   8.897  10.359  0.3429 -0.5862 -0.1020
   78MOL0     C10428  10.826   8.996  10.321  0.1087  0.1088  0.3612
   78MOL0     C10429  10.957   8.984  10.354  0.6705  0.2185 -0.6070
   78MOL0     O10430  11.037   9.080  10.300  0.2268 -0.3205 -0.0985
   78MOL0     C10431  11.177   9.066  10.315  0.3391  0.0400  0.5087
   78MOL0     C10432  11.248   9.177  10.233 -0.4283  0.1687  0.0848
   78MOL0     C10433  11.399   9.179  10.260  0.4479 -0.2687 -0.2187
   78MOL0     C10434  11.436   9.234  10.394 -0.4910  0.0886 -0.2522
   78MOL0     C10435  11.589   9.249  10.419  0.2468  0.5441 -0.0483
   78MOL0     C10436  11.654   9.097  10.428  1.2511 -1.2254 -0.3594
   78MOL0     C10437  11.805   9.111  10.453 -0.4565 -0.0173 -0.2886
   78MOL0     C10438  11.870   8.980  10.473 -0.1586  0.0462 -0.0955
   78MOL0    Cl10439  12.013   9.014  10.575  0.2419  0.2897  0.1650
   78MOL0     C10440  11.003   8.878  10.428 -0.3156  0.3138  0.2933
   78MOL0     C10441  10.919   8.777  10.465 -0.3237  0.7043  0.0939
   78MOL0     O10442  10.795   8.537  10.589  0.3802  1.1893  0.4463
   78MOL0     C10443  10.566   8.402  10.670 -0.1202  0.3776 -0.5256
   78MOL0     C10444  10.444   8.337  10.685  0.6561  0.8164 -0.8130
   78MOL0     N10445   9.707   8.338  10.910 -0.4236  0.4449  0.0651
   78MOL0     N10446   9.610   8.421  10.936 -0.0091  0.8025  0.1436
   78MOL0     C10447   8.638   8.113  10.687 -0.5829  0.3221  0.6935
   78MOL0     C10448   8.517   8.048  10.696  0.4975  0.4347 -0.3872
   78MOL0     C10449   8.095   7.935  10.638 -0.3171 -0.9539 -0.4052
   78MOL0     C10450   7.981   7.963  10.559  0.3225 -0.8340 -0.3766
   78MOL0     C10451   7.853   7.904  10.589 -0.3615 -1.1007  0.6229
   78MOL0     C10452   7.846   7.814  10.694 -0.3779 -0.1050 -0.0251
   78MOL0     O10453   7.722   7.765  10.733 -0.0056 -0.5968  0.4023
   78MOL0     C10454   7.695   7.732  10.866 -0.4581 -0.6816  1.0965
   78MOL0     C10455   7.553   7.682  10.881 -0.5639  0.9906 -0.7744
   78MOL0     C10456   7.433   7.778  10.845  0.7828  0.2457  0.7217
   78MOL0     C10457   7.295   7.737  10.890 -0.1838 -0.2149 -0.8367
   78MOL0     C10458   7.191   7.840  10.836 -0.1546  1.0714 -0.7489
   78MOL0     C10459   7.112   7.925  10.805  1.4765 -0.0533 -0.5702
   78MOL0     C10460   7.964   7.776  10.756 -0.1893 -0.5404  0.3082
   78MOL0     C10461   8.087   7.840  10.739 -0.4609  0.1465  0.6650
   78MOL0     C10462   8.204   7.785  10.819  0.8039 -0.1711 -0.4681
   78MOL0     H10463   8.488   7.958  10.369 -0.7912 -2.0330  0.4755
   78MOL0     H10464   8.705   8.088  10.361 -0.5378 -1.2441 -0.1806
   78MOL0     H10465   8.918   8.027  10.501 -2.3364  0.4788  3.0557
   78MOL0     H10466   8.907   8.148  10.366  3.2226 -0.3797 -0.0030
   78MOL0     H10467   9.126   8.124  10.461  1.4145  0.2139  0.9552
   78MOL0     H10468   9.063   8.209  10.605  1.3573  0.7945 -0.3681
   78MOL0     H10469   8.987   8.399  10.490  0.3122  0.0605 -0.3525
   78MOL0     H10470   9.046   8.335  10.334  1.1825 -1.3217  0.3822
   78MOL0     H10471   9.241   8.344  10.573  3.6073  1.6421 -1.0369
   78MOL0     H10472   9.278   8.338  10.406  0.9099  0.9401  1.0293
   78MOL0     H10473   9.208   8.583  10.397 -0.0772  1.2853  1.5270
   78MOL0     H10474   9.126   8.573  10.552  0.6789  1.0326  0.9497
   78MOL0     H10475   9.407   8.479  10.527 -1.5696 -0.8581 -0.7013
   78MOL0     H10476   9.381   8.661  10.531 -1.9576 -1.2359 -1.9060
   78MOL0     H10477   9.296   8.467  10.748 -1.0438  0.0085 -0.4074
   78MOL0     H10478   9.278   8.640  10.735  1.5709  0.2645  1.0911
   78MOL0     H10479   9.537   8.632  10.712  0.6952 -0.5906  1.5749
   78MOL0     H10480   9.457   8.632  10.866 -0.3147  1.5235 -1.5276
   78MOL0     H10481   9.606   8.366  10.607  1.4598 -2.9920 -0.1519
   78MOL0     H10482   9.807   8.103  10.803  0.6550 -0.7503 -0.2607
   78MOL0     H10483   9.774   8.142  10.633 -0.7156  0.2154  0.0878
   78MOL0     H10484   9.953   8.314  10.650  3.3701 -1.6835 -0.2257
   78MOL0     H10485   9.962   8.290  10.831  1.7838 -3.4957  1.8256
   78MOL0     H10486  10.032   8.078  10.633  1.3492  0.0731 -0.1884
   78MOL0     H10487  10.042   8.065  10.803 -0.6674  0.9964  0.7880
   78MOL0     H10488  10.268   8.123  10.728  2.0294  1.7039  0.0279
   78MOL0     H10489  10.199   8.274  10.791  0.4014 -0.5696  0.0001
   78MOL0     H10490  10.276   8.447  10.420  0.7866  0.2786 -1.3246
   78MOL0     H10491  10.473   8.587  10.390 -2.4042 -0.2586 -0.5392
   78MOL0     H10492  10.630   8.894  10.328 -1.0493 -0.4458  4.0298
   78MOL0     H10493  10.793   9.072  10.251 -2.1599 -0.2311  0.9813
   78MOL0     H10494  11.203   9.076  10.421  1.5186 -1.6880  0.4171
   78MOL0     H10495  11.198   8.964  10.282  0.1572 -0.1837  1.0707
   78MOL0     H10496  11.224   9.157  10.128  0.8180  1.3351 -0.4557
   78MOL0     H10497  11.211   9.276  10.261 -1.9706 -0.3924  0.1032
   78MOL0     H10498  11.437   9.076  10.259  1.1798 -0.0273  0.9880
   78MOL0     H10499  11.440   9.229  10.172  0.5751  1.1833  0.6413
   78MOL0     H10500  11.393   9.175  10.475  0.4030  2.2953  1.9344
   78MOL0     H10501  11.390   9.333  10.401 -1.2444 -0.2477 -0.3460
   78MOL0     H10502  11.612   9.310  10.506  2.2424  0.8556 -0.7376
   78MOL0     H10503  11.621   9.311  10.334  0.6140 -1.8065 -1.7120
   78MOL0     H10504  11.604   9.047  10.511  1.1627  0.5812  0.7125
   78MOL0     H10505  11.638   9.043  10.334  0.7907  1.4408 -1.9024
   78MOL0     H10506  11.821   9.182  10.534  2.4356 -1.8999  0.9367
   78MOL0     H10507  11.854   9.158  10.367  0.1135  0.0687  0.0850
   78MOL0     H10508  11.800   8.913  10.523  0.1540  1.3228  2.1946
   78MOL0     H10509  11.906   8.942  10.377  0.5790  1.1406 -0.2733
   78MOL0     H10510  11.109   8.864  10.447 -0.2271  0.9249  0.2852
   78MOL0     H10511  10.965   8.689  10.511  1.2994  1.1669 -0.5814
   78MOL0     H10512  10.647   8.373  10.737 -1.5437 -1.2190  0.5889
   78MOL0     H10513  10.438   8.259  10.761  0.9409 -0.9433 -2.5297
   78MOL0     H10514   8.690   8.163  10.768 -0.6229 -0.1973  1.0442
   78MOL0     H10515   8.470   8.065  10.792  2.3482 -0.5983  0.7618
   78MOL0     H10516   7.992   8.033  10.476 -3.7388  0.1628 -0.2941
   78MOL0     H10517   7.768   7.948  10.537  1.6417 -1.8125 -3.6728
   78MOL0     H10518   7.726   7.801  10.944  1.1451 -3.4012  3.0287
   78MOL0     H10519   7.758   7.645  10.885 -0.0521 -0.6030  0.1916
   78MOL0     H10520   7.549   7.661  10.988 -2.1333  2.4123 -0.5198
   78MOL0     H10521   7.550   7.595  10.814 -1.4576  0.0967  0.3835
   78MOL0     H10522   7.439   7.806  10.739  2.9947 -0.9149  0.4754
   78MOL0     H10523   7.455   7.875  10.891 -1.8153  1.9614 -1.3254
   78MOL0     H10524   7.277   7.633  10.859  2.0545 -0.3714 -1.8344
   78MOL0     H10525   7.276   7.735  10.998 -2.6620  0.5280 -1.1794
   78MOL0     H10526   7.030   7.993  10.798  0.1989 -1.5686 -7.6553
   78MOL0     H10527   7.959   7.698  10.831  1.9218  0.7815  1.9785
   78MOL0     H10528   8.190   7.679  10.840  0.1054  0.3696  2.2016
   78MOL0     H10529   8.301   7.793  10.769  0.8368  0.9008 -0.2643
   78MOL0     H10530   8.211   7.843  10.912 -0.4056 -0.6444 -0.0622
   79MOL0     O10531   7.190   8.354   6.753  0.0088  0.0299  0.8201
   79MOL0     C10532   7.264   8.275   6.699  0.4648 -0.1577  0.4675
   79MOL0     O10533   7.218   8.173   6.619 -0.8369  0.0273 -0.0056
   79MOL0     C10534   7.089   8.155   6.608  1.0247  0.3077 -0.6158
   79MOL0     C10535   7.033   8.042   6.674 -0.6182  0.2608  0.3324
   79MOL0     C10536   6.908   8.011   6.668  0.4207 -0.2595  0.6851
   79MOL0     C10537   6.819   8.103   6.614  0.5083  0.0668  0.5952
   79MOL0     O10538   6.680   8.075   6.629 -1.1715 -0.0351  0.1490
   79MOL0     C10539   6.594   8.185   6.605  0.7153 -0.4413  0.6179
   79MOL0     C10540   6.454   8.148   6.657 -0.8560 -0.7250  0.0115
   79MOL0     C10541   6.369   8.277   6.652 -0.2526  0.4737 -0.3128
   79MOL0     C10542   6.268   8.248   6.764  0.1355  0.6886  1.3901
   79MOL0     C10543   6.177   8.373   6.806 -0.0192 -0.1465  1.0037
   79MOL0     C10544   6.219   8.466   6.920 -0.1973 -0.0276  0.2283
   79MOL0     C10545   6.236   8.410   7.061 -0.4958 -0.6348 -0.0309
   79MOL0     C10546   6.105   8.351   7.111  0.4553 -0.8581  0.3155
   79MOL0     N10547   6.105   8.323   7.253  0.4872 -0.6505 -0.4690
   79MOL0     C10548   6.047   8.211   7.303 -0.9215 -0.0015  0.4567
   79MOL0     C10549   6.087   8.199   7.435 -0.0654 -0.0830 -0.0772
   79MOL0     C10550   6.050   8.103   7.542 -0.7588 -0.0955 -0.5929
   79MOL0     C10551   5.982   8.161   7.664  0.3811  0.0717 -0.1702
   79MOL0     C10552   6.058   8.259   7.756  1.3727 -0.0110  0.2248
   79MOL0     C10553   6.205   8.225   7.782  0.4239  0.1560  0.1271
   79MOL0     O10554   6.255   8.320   7.884  0.1580  0.1137  0.8366
   79MOL0     C10555   6.346   8.415   7.844  0.3325 -0.5669  0.6884
   79MOL0     C10556   6.447   8.444   7.938 -0.5611 -0.0559 -0.4414
   79MOL0     C10557   6.556   8.522   7.906  0.0483  0.1065 -0.4701
   79MOL0     C10558   6.560   8.587   7.781 -0.5661  0.4311  1.0846
   79MOL0     C10559   6.664   8.669   7.737 -0.2637  0.6425 -0.1418
   79MOL0     O10560   6.778   8.668   7.811  0.6176  0.0168 -0.0483
   79MOL0     C10561   6.899   8.713   7.763 -1.0102 -0.5862  0.3161
   79MOL0     C10562   7.003   8.687   7.852  0.5801 -0.0191 -0.5861
   79MOL0     C10563   7.136   8.733   7.825 -0.3655 -0.1039  0.5743
   79MOL0     C10564   7.169   8.806   7.707  0.7055 -0.4999  0.9886
   79MOL0     O10565   7.300   8.813   7.661  0.2200 -0.6872 -0.3690
   79MOL0     C10566   7.329   8.834   7.526  0.1028  0.0239 -0.1392
   79MOL0     C10567   7.471   8.888   7.493  0.6125 -0.0699  0.2061
   79MOL0     C10568   7.519   8.874   7.342  1.2442 -0.0504 -0.7724
   79MOL0     C10569   7.669   8.924   7.338 -0.0974  0.4137 -0.4291
   79MOL0     C10570   7.725   8.920   7.201 -0.7143  0.5021 -0.5682
   79MOL0     C10571   7.860   9.000   7.204 -0.7705  1.1197 -0.2865
   79MOL0     C10572   7.948   8.978   7.073 -0.2074  0.5634  0.0013
   79MOL0     C10573   8.087   9.055   7.068 -0.3003  0.8017  0.3342
   79MOL0    Cl10574   8.044   9.227   7.054  0.2943  0.0137  0.1789
   79MOL0     C10575   7.061   8.832   7.624  0.5537  0.1371 -0.0567
   79MOL0     C10576   6.933   8.777   7.644 -1.1344  0.6040 -0.2490
   79MOL0     O10577   6.645   8.742   7.638  0.2752 -0.3994  0.0577
   79MOL0     C10578   6.454   8.559   7.691  0.3433  0.3142  1.1653
   79MOL0     C10579   6.351   8.472   7.721 -0.1560 -0.0693  0.2575
   79MOL0     N10580   6.173   8.309   7.459  0.4581  0.6133  0.1080
   79MOL0     N10581   6.180   8.375   7.349  0.2137 -0.3428 -0.6921
   79MOL0     C10582   6.868   8.220   6.551 -0.2659  0.5174 -0.7114
   79MOL0     C10583   7.007   8.242   6.547  0.5125  0.8238  0.2292
   79MOL0     C10584   7.412   8.281   6.711  0.3279 -0.3712 -0.2534
   79MOL0     C10585   7.484   8.159   6.709 -0.1649 -0.3644 -0.9639
   79MOL0     C10586   7.614   8.151   6.760  0.2130 -0.0147 -0.0455
   79MOL0     C10587   7.678   8.272   6.797 -0.1406  0.4195 -0.3574
   79MOL0     O10588   7.807   8.259   6.833  0.5847 -0.7036 -0.4131
   79MOL0     C10589   7.896   8.233   6.721 -0.7981  1.4720 -0.1158
   79MOL0     C10590   7.962   8.098   6.770 -0.0257 -0.3438 -0.6773
   79MOL0     C10591   8.091   8.130   6.858 -0.9233  0.0804 -0.1452
   79MOL0     C10592   8.172   8.003   6.885  0.0039 -0.3186  0.3776
   79MOL0     C10593   8.309   8.034   6.946 -0.4269  0.0208  0.2563
   79MOL0     C10594   8.410   8.072   6.995  0.5586 -0.2621 -1.0628
   79MOL0     C10595   7.613   8.392   6.781 -0.2707  0.3976 -0.4142
   79MOL0     C10596   7.477   8.407   6.748 -0.3971  0.1824  0.2822
   79MOL0     C10597   7.412   8.536   6.746  0.0626 -0.2485  0.5766
   79MOL0     H10598   7.110   7.975   6.713  0.0755  1.2126  0.6253
   79MOL0     H10599   6.876   7.919   6.716  1.7034 -0.8871  0.3708
   79MOL0     H10600   6.623   8.273   6.662 -0.5498  1.9627 -2.2304
   79MOL0     H10601   6.586   8.206   6.499 -0.1579  1.5454  1.0351
   79MOL0     H10602   6.466   8.115   6.761  3.9626  2.5799  0.8340
   79MOL0     H10603   6.404   8.070   6.600  0.1216 -1.2319 -0.1575
   79MOL0     H10604   6.319   8.302   6.557 -1.2133 -1.9960 -0.5204
   79MOL0     H10605   6.431   8.362   6.681  2.3192 -1.2565 -0.4521
   79MOL0     H10606   6.191   8.175   6.737  1.3035 -0.6841  1.6486
   79MOL0     H10607   6.317   8.204   6.851  2.6903  2.3825  0.9095
   79MOL0     H10608   6.161   8.434   6.716  2.1921 -1.8304 -0.6561
   79MOL0     H10609   6.076   8.346   6.837 -1.3437  3.8965  0.8151
   79MOL0     H10610   6.303   8.531   6.895  2.3493 -3.5331 -1.1217
   79MOL0     H10611   6.137   8.535   6.940 -0.1846 -0.6357  2.7459
   79MOL0     H10612   6.265   8.489   7.131  2.0239 -1.3732 -0.1514
   79MOL0     H10613   6.307   8.327   7.069 -0.5690 -0.5816  1.4096
   79MOL0     H10614   6.029   8.428   7.092  1.0812  0.2325  1.9883
   79MOL0     H10615   6.093   8.259   7.052  3.2483 -2.7308  2.4362
   79MOL0     H10616   6.004   8.133   7.242  2.1967  0.3808 -2.5233
   79MOL0     H10617   5.975   8.039   7.495 -1.6901  0.5132  0.0393
   79MOL0     H10618   6.139   8.052   7.580 -1.2935 -0.1718  0.5888
   79MOL0     H10619   5.896   8.221   7.635 -1.7021 -2.7489 -0.2077
   79MOL0     H10620   5.958   8.074   7.726 -1.7652  0.2443 -0.6893
   79MOL0     H10621   6.009   8.266   7.854  1.2175 -0.6518  0.1969
   79MOL0     H10622   6.063   8.354   7.702  2.2771 -0.3160 -0.2404
   79MOL0     H10623   6.263   8.221   7.689  0.6412  0.5943  0.2382
   79MOL0     H10624   6.215   8.124   7.822  0.3971 -0.1298 -0.5749
   79MOL0     H10625   6.432   8.401   8.036 -0.2648  1.5707  0.3558
   79MOL0     H10626   6.627   8.542   7.985 -0.4262 -0.2252  0.0429
   79MOL0     H10627   6.975   8.658   7.953  2.6479  1.9043  0.6440
   79MOL0     H10628   7.221   8.718   7.891  2.0316  0.6664 -2.0901
   79MOL0     H10629   7.320   8.739   7.473 -1.9306 -0.1351  0.3852
   79MOL0     H10630   7.268   8.909   7.475  1.6153  0.7415 -0.9394
   79MOL0     H10631   7.474   8.991   7.529  2.5447 -0.6249  1.8692
   79MOL0     H10632   7.539   8.836   7.562  0.0787 -1.8155 -0.5487
   79MOL0     H10633   7.500   8.777   7.294 -3.1993  0.3810 -0.2684
   79MOL0     H10634   7.459   8.943   7.283  2.1236  2.2632  0.9030
   79MOL0     H10635   7.725   8.852   7.398 -0.2853  0.6548  0.0412
   79MOL0     H10636   7.680   9.026   7.377  0.4844  0.8050 -1.5743
   79MOL0     H10637   7.660   8.962   7.124  0.2168  0.2338 -1.5193
   79MOL0     H10638   7.747   8.816   7.175  1.7263  1.4973 -2.9193
   79MOL0     H10639   7.832   9.106   7.210 -0.3259  1.1863  0.9151
   79MOL0     H10640   7.921   8.980   7.293 -2.6159  0.7268  0.9366
   79MOL0     H10641   7.890   8.997   6.983 -0.9443  2.4886  0.8345
   79MOL0     H10642   7.956   8.869   7.073 -0.7023  0.5193 -0.7287
   79MOL0     H10643   8.145   9.025   7.156  0.2211 -1.2713 -0.6592
   79MOL0     H10644   8.137   9.008   6.983 -1.2951 -0.2916  0.3303
   79MOL0     H10645   7.078   8.885   7.531  1.6727 -0.4027 -0.1757
   79MOL0     H10646   6.861   8.801   7.567 -1.2755 -3.0419 -1.4370
   79MOL0     H10647   6.446   8.609   7.595  1.3086 -0.3686  0.7145
   79MOL0     H10648   6.274   8.466   7.645 -1.0856 -0.0036  1.1836
   79MOL0     H10649   6.799   8.297   6.521 -1.1273 -0.5426 -1.5432
   79MOL0     H10650   7.039   8.324   6.484 -2.3952  1.2275 -0.8758
   79MOL0     H10651   7.431   8.069   6.680 -1.0132  0.0698 -0.7900
   79MOL0     H10652   7.678   8.064   6.756  2.6992  1.5597  2.0444
   79MOL0     H10653   7.965   8.318   6.715  1.5289 -0.2720  0.2215
   79MOL0     H10654   7.844   8.218   6.626 -0.3712  1.4411 -0.3474
   79MOL0     H10655   8.003   8.058   6.677  1.5335  1.6407 -0.9039
   79MOL0     H10656   7.892   8.021   6.805 -1.3111  0.6050 -1.0627
   79MOL0     H10657   8.054   8.171   6.952  0.5380  1.3672 -0.0818
   79MOL0     H10658   8.160   8.197   6.805  1.4179 -1.3867  0.9019
   79MOL0     H10659   8.111   7.938   6.948 -2.3277  2.9804  1.8351
   79MOL0     H10660   8.187   7.958   6.786  0.6476 -3.6206  1.8684
   79MOL0     H10661   8.490   8.112   7.054 -1.9261  0.3936  2.1049
   79MOL0     H10662   7.671   8.480   6.809  0.6390 -0.8741  2.0011
   79MOL0     H10663   7.362   8.557   6.651  2.1649 -0.2008 -0.5660
   79MOL0     H10664   7.342   8.533   6.830  1.3354 -1.1761  1.6548
   79MOL0     H10665   7.492   8.608   6.763  2.2026 -2.2134 -0.5461
   80MOL0     O10666   0.482  10.717   9.150 -0.2683 -0.2437  0.2976
   80MOL0     C10667   0.438  10.699   9.265  0.0576 -0.0098 -0.1036
   80MOL0     O10668   0.506  10.661   9.378 -0.5217 -0.7149  0.1361
   80MOL0     C10669   0.632  10.615   9.364 -0.7481 -0.0189  0.0222
   80MOL0     C10670   0.737  10.687   9.416  0.2514 -0.7472  0.9379
   80MOL0     C10671   0.864  10.638   9.393 -0.0514 -0.6003 -1.2184
   80MOL0     C10672   0.891  10.517   9.322  0.4531  0.1266  0.1304
   80MOL0     O10673   1.015  10.465   9.310  0.4101  0.1372  0.1646
   80MOL0     C10674   1.122  10.551   9.363  0.4516 -0.0839  0.4651
   80MOL0     C10675   1.255  10.475   9.330  0.6481 -0.2727 -0.5633
   80MOL0     C10676   1.373  10.542   9.402 -0.4184 -0.3181  0.2540
   80MOL0     C10677   1.503  10.523   9.331 -0.1415  0.4558 -0.1553
   80MOL0     C10678   1.634  10.554   9.408 -0.2739 -0.4546  0.4630
   80MOL0     C10679   1.763  10.552   9.325  0.8097  0.2384 -0.3275
   80MOL0     C10680   1.889  10.584   9.415  0.0646  0.1265  0.8407
   80MOL0     C10681   2.004  10.628   9.324 -0.4254  0.1496  0.5512
   80MOL0     N10682   2.130  10.648   9.389  0.1288  0.8504  0.1567
   80MOL0     C10683   2.179  10.768   9.431 -0.2761 -0.0847 -1.1398
   80MOL0     C10684   2.285  10.734   9.518 -0.0643  1.3499  1.0271
   80MOL0     C10685   2.363  10.823   9.596 -0.5726  0.5002  0.7134
   80MOL0     C10686   2.524  10.815   9.594 -0.0560  0.8592  0.4079
   80MOL0     C10687   2.568  10.866   9.463  0.4000 -0.1616  0.3866
   80MOL0     C10688   2.575  10.762   9.346 -0.0108  0.2855 -0.8756
   80MOL0     O10689   2.595  10.821   9.214 -0.9824 -0.0673 -0.0293
   80MOL0     C10690   2.714  10.799   9.158  0.1579  0.8055  0.0107
   80MOL0     C10691   2.831  10.776   9.225 -0.2422  0.0752  0.5561
   80MOL0     C10692   2.945  10.746   9.159 -0.2859 -0.2606 -0.5090
   80MOL0     C10693   2.953  10.739   9.018  0.2733 -0.1035 -0.4916
   80MOL0     C10694   3.072  10.697   8.944 -0.1011  1.0892  0.6121
   80MOL0     O10695   3.165  10.637   9.025  0.5392  0.1666  0.7803
   80MOL0     C10696   3.281  10.592   8.969 -0.9763 -0.1452 -0.2777
   80MOL0     C10697   3.317  10.460   8.997  0.1303  0.0937 -0.1597
   80MOL0     C10698   3.438  10.407   8.948 -0.5139 -0.8071  0.9226
   80MOL0     C10699   3.530  10.485   8.879  0.3219  0.2949  0.2919
   80MOL0     O10700   3.652  10.424   8.831  0.2839  0.0047  0.1356
   80MOL0     C10701   3.722  10.503   8.722  0.5544 -0.0684 -1.0301
   80MOL0     C10702   3.839  10.422   8.669 -0.6355 -0.5434  0.2096
   80MOL0     C10703   3.791  10.298   8.601  0.4340  0.1332  0.2805
   80MOL0     C10704   3.882  10.249   8.497 -0.2700 -0.1032  0.2311
   80MOL0     C10705   3.839  10.123   8.418 -0.9550  0.1967  0.8903
   80MOL0     C10706   3.695  10.130   8.378 -0.0435  0.9391 -0.4448
   80MOL0     C10707   3.680  10.013   8.283  1.0933  0.4908  0.7628
   80MOL0     C10708   3.533   9.986   8.229  0.1074 -0.4208  0.0061
   80MOL0    Cl10709   3.456  10.144   8.184 -0.6181  0.7179  0.0008
   80MOL0     C10710   3.492  10.620   8.855  0.4102 -0.5138  0.2457
   80MOL0     C10711   3.369  10.669   8.892 -0.3918 -0.3858  0.4044
   80MOL0     O10712   3.093  10.736   8.828 -0.7230 -0.3509  0.2540
   80MOL0     C10713   2.834  10.763   8.945  0.5638 -0.6937 -0.3047
   80MOL0     C10714   2.719  10.799   9.019 -1.2402  0.2138  0.5391
   80MOL0     N10715   2.290  10.586   9.526 -0.0558 -0.0522  0.0446
   80MOL0     N10716   2.200  10.545   9.440 -0.3825  0.0369 -0.3095
   80MOL0     C10717   0.780  10.446   9.281  0.3994 -0.1414  0.6823
   80MOL0     C10718   0.649  10.494   9.298  0.4038 -0.1635 -0.0961
   80MOL0     C10719   0.302  10.733   9.308  0.5052 -0.1436  0.2669
   80MOL0     C10720   0.244  10.654   9.410  0.1519  0.9583  0.3192
   80MOL0     C10721   0.110  10.655   9.433 -0.7760 -0.4099  0.1647
   80MOL0     C10722   0.028  10.754   9.372  0.2617  0.8111  0.1011
   80MOL0     O10723  -0.103  10.758   9.413 -0.9359 -0.2476 -0.2866
   80MOL0     C10724  -0.128  10.890   9.477 -0.2115 -0.1596  1.0691
   80MOL0     C10725  -0.237  10.965   9.395  0.3403 -0.0658  0.5040
   80MOL0     C10726  -0.246  11.106   9.445 -0.4280 -0.6388  1.0071
   80MOL0     C10727  -0.345  11.191   9.362  0.1828 -0.6190  0.1512
   80MOL0     C10728  -0.294  11.212   9.223 -0.7515 -0.7374 -0.4395
   80MOL0     C10729  -0.274  11.237   9.107 -0.4379  0.4574 -0.5246
   80MOL0     C10730   0.079  10.838   9.275 -0.2548 -0.0232 -0.7035
   80MOL0     C10731   0.214  10.822   9.235  0.1517  0.6208 -0.2394
   80MOL0     C10732   0.250  10.905   9.118  0.1109 -1.3265  0.6816
   80MOL0     H10733   0.714  10.777   9.472 -0.5678 -1.4977  1.8307
   80MOL0     H10734   0.943  10.705   9.424 -0.9541 -0.2622  0.4716
   80MOL0     H10735   1.117  10.642   9.303  4.0193 -1.0835 -1.6470
   80MOL0     H10736   1.128  10.574   9.470 -1.5331  1.8487  0.2237
   80MOL0     H10737   1.266  10.471   9.221  0.3515 -1.5141 -0.5634
   80MOL0     H10738   1.251  10.379   9.382 -0.0625  1.6355  3.2263
   80MOL0     H10739   1.378  10.507   9.505 -4.4645  0.3155  0.8399
   80MOL0     H10740   1.365  10.651   9.405  2.6591  0.0369 -0.6296
   80MOL0     H10741   1.510  10.420   9.297  1.0403  0.7201 -0.7516
   80MOL0     H10742   1.496  10.592   9.246  0.4285  2.3540  1.2825
   80MOL0     H10743   1.621  10.656   9.448  2.9009  0.4825 -0.5878
   80MOL0     H10744   1.653  10.491   9.496 -0.5283  1.2819  1.8267
   80MOL0     H10745   1.782  10.459   9.271 -0.9241 -0.8993  0.8985
   80MOL0     H10746   1.758  10.629   9.248  2.4377  2.3720  1.5806
   80MOL0     H10747   1.915  10.497   9.477 -0.8644 -1.7934 -1.2804
   80MOL0     H10748   1.857  10.669   9.475  1.2127  0.7255  0.6259
   80MOL0     H10749   2.030  10.552   9.250  1.1662 -1.9443  3.1085
   80MOL0     H10750   1.983  10.718   9.265 -2.3657 -1.7957 -1.9524
   80MOL0     H10751   2.152  10.871   9.409  0.0545 -0.1585 -1.9135
   80MOL0     H10752   2.337  10.926   9.570  0.2940  0.7964  0.9457
   80MOL0     H10753   2.334  10.796   9.698  2.0648 -2.6784  0.8044
   80MOL0     H10754   2.565  10.887   9.666 -0.8749  2.1325 -0.3461
   80MOL0     H10755   2.554  10.711   9.607 -1.6575  0.2368 -0.6091
   80MOL0     H10756   2.671  10.899   9.479 -0.6322  2.6360  1.8182
   80MOL0     H10757   2.507  10.953   9.436 -0.3166 -0.7065  0.2128
   80MOL0     H10758   2.479  10.709   9.346  0.9670 -1.6183 -2.3789
   80MOL0     H10759   2.646  10.681   9.366 -0.3970  0.2097  0.2419
   80MOL0     H10760   2.840  10.780   9.333 -0.1099  0.1029  0.5440
   80MOL0     H10761   3.037  10.732   9.215 -2.3038  1.0337  3.5167
   80MOL0     H10762   3.245  10.392   9.043 -0.0209 -0.1336 -0.7241
   80MOL0     H10763   3.472  10.306   8.969  0.4740 -1.1360 -1.8742
   80MOL0     H10764   3.646  10.531   8.649 -2.4804  0.5733  2.0928
   80MOL0     H10765   3.769  10.587   8.773  0.6181 -1.4928  1.4179
   80MOL0     H10766   3.890  10.488   8.598  0.4070 -1.1742  0.3546
   80MOL0     H10767   3.910  10.418   8.753 -0.7762  1.4073  0.4648
   80MOL0     H10768   3.786  10.209   8.665  1.5474 -1.2636 -1.4483
   80MOL0     H10769   3.691  10.320   8.561  0.8876  1.6473 -0.0602
   80MOL0     H10770   3.980  10.225   8.539 -0.2192 -2.8647 -1.2453
   80MOL0     H10771   3.901  10.326   8.421  1.1353  0.9972  1.6401
   80MOL0     H10772   3.843  10.028   8.472 -0.0804 -0.6657 -0.6283
   80MOL0     H10773   3.909  10.109   8.335  0.7511  1.7930  1.9710
   80MOL0     H10774   3.622  10.132   8.459  0.3943  0.7142 -0.0488
   80MOL0     H10775   3.683  10.226   8.326  4.8215  0.4144 -3.0833
   80MOL0     H10776   3.704   9.914   8.321  0.4464 -0.1401 -0.4218
   80MOL0     H10777   3.742  10.020   8.194 -1.7557  0.1250 -1.4096
   80MOL0     H10778   3.536   9.926   8.138 -1.1734  0.8526 -0.9152
   80MOL0     H10779   3.473   9.943   8.310 -1.9299 -0.1613 -1.2910
   80MOL0     H10780   3.552  10.690   8.798  1.5127 -1.4317  0.2606
   80MOL0     H10781   3.347  10.773   8.867 -0.5742 -0.1988  1.3142
   80MOL0     H10782   2.844  10.754   8.837 -0.2530 -0.9016 -0.3666
   80MOL0     H10783   2.631  10.816   8.958 -3.8148 -6.8116  1.2789
   80MOL0     H10784   0.786  10.354   9.223  2.2543  0.1415  0.3754
   80MOL0     H10785   0.560  10.439   9.269 -0.0389  0.4368  0.1192
   80MOL0     H10786   0.289  10.569   9.462 -0.6450 -1.2790 -2.3881
   80MOL0     H10787   0.062  10.584   9.500 -1.5745 -1.5930 -1.5789
   80MOL0     H10788  -0.036  10.947   9.496 -1.1077  0.5739  3.6106
   80MOL0     H10789  -0.171  10.875   9.577  0.7539 -1.8133  1.2683
   80MOL0     H10790  -0.341  10.931   9.394 -0.6173  2.4274  2.4046
   80MOL0     H10791  -0.187  10.970   9.298 -3.3557  2.2577 -1.5161
   80MOL0     H10792  -0.149  11.155   9.440 -0.3270 -0.7760  1.5588
   80MOL0     H10793  -0.271  11.108   9.552 -2.4654 -0.3157  0.5681
   80MOL0     H10794  -0.450  11.161   9.366 -0.1577  0.5956  1.2919
   80MOL0     H10795  -0.350  11.292   9.404 -0.8649 -0.0296 -1.3338
   80MOL0     H10796  -0.287  11.253   9.002 -1.1568  0.8445 -0.3850
   80MOL0     H10797   0.020  10.912   9.221 -0.6330 -0.2421 -0.5918
   80MOL0     H10798   0.287  10.837   9.041 -0.4184 -0.4414 -0.3998
   80MOL0     H10799   0.171  10.961   9.066  1.1958 -1.7354 -1.5112
   80MOL0     H10800   0.330  10.970   9.154  0.7552 -0.9085 -1.3821
   81MOL0     O10801  11.212   0.046   0.485  0.0722 -0.0393 -0.7778
   81MOL0     C10802  11.189  -0.069   0.532 -0.0838 -0.1435  0.1175
   81MOL0     O10803  11.239  -0.114   0.657 -0.1316  0.3404  0.3340
   81MOL0     C10804  11.371  -0.085   0.667  0.5072 -0.5320 -0.2928
   81MOL0     C10805  11.407   0.035   0.735  0.7306  0.2912 -0.0508
   81MOL0     C10806  11.545   0.077   0.747  0.4752  0.1074 -0.0378
   81MOL0     C10807  11.645  -0.004   0.699 -1.1534 -0.0413  0.3069
   81MOL0     O10808  11.779   0.009   0.718 -0.4716  0.1071 -0.5177
   81MOL0     C10809  11.829   0.119   0.801 -0.7873 -0.8167  0.2764
   81MOL0     C10810  11.983   0.105   0.826 -0.1186  0.1100  0.3331
   81MOL0     C10811  12.022  -0.031   0.892  0.8024 -0.8536  0.5495
   81MOL0     C10812  12.171  -0.046   0.920 -0.0523 -0.5688 -0.8245
   81MOL0     C10813  12.215  -0.175   0.994 -0.1986 -1.4713  0.6362
   81MOL0     C10814  12.156  -0.310   0.943  0.7937 -1.7020  0.0094
   81MOL0     C10815  12.236  -0.432   1.002 -0.5047 -0.2940  0.8557
   81MOL0     C10816  12.355  -0.451   0.903 -0.4172 -0.7720  0.5220
   81MOL0     N10817  12.445  -0.560   0.933 -0.0081 -0.2186  0.5093
   81MOL0     C10818  12.433  -0.693   0.890 -0.1017 -0.7212  0.6140
   81MOL0     C10819  12.517  -0.761   0.958  0.1741  0.5153  0.4029
   81MOL0     C10820  12.526  -0.913   0.947  0.0350 -0.8382 -0.5867
   81MOL0     C10821  12.595  -0.977   0.831  0.1517 -0.0078  0.0658
   81MOL0     C10822  12.704  -0.886   0.772 -1.0407 -0.4689  0.1597
   81MOL0     C10823  12.830  -0.872   0.862 -0.0056 -0.6674  0.1619
   81MOL0     O10824  12.942  -0.821   0.789 -0.3202  0.1793  0.7087
   81MOL0     C10825  13.055  -0.788   0.862 -0.2107 -0.3256 -0.9190
   81MOL0     C10826  13.181  -0.778   0.786  0.1659  0.5619 -0.9598
   81MOL0     C10827  13.299  -0.747   0.855 -0.4655  0.6711 -0.2896
   81MOL0     C10828  13.306  -0.729   0.992 -0.3046 -0.1394 -0.4925
   81MOL0     C10829  13.440  -0.707   1.058 -0.8448 -0.7891 -0.3967
   81MOL0     O10830  13.567  -0.734   0.992 -0.0187  0.3198  0.0939
   81MOL0     C10831  13.685  -0.706   1.052  0.1620 -1.4060 -0.4258
   81MOL0     C10832  13.702  -0.591   1.137  0.3441  0.5670  0.0954
   81MOL0     C10833  13.827  -0.546   1.178  0.2935  0.0779 -0.1686
   81MOL0     C10834  13.940  -0.626   1.136  0.3329 -0.1849  1.1415
   81MOL0     O10835  14.072  -0.605   1.185 -0.1120 -0.2147  1.0181
   81MOL0     C10836  14.101  -0.493   1.276  0.2949  0.1937 -0.0348
   81MOL0     C10837  14.252  -0.473   1.294  0.1309  0.2895  0.0341
   81MOL0     C10838  14.290  -0.380   1.405 -0.0318 -0.4440 -1.0496
   81MOL0     C10839  14.443  -0.368   1.431 -0.7318 -0.9292 -0.0885
   81MOL0     C10840  14.466  -0.269   1.547 -0.3304 -0.6336  1.0288
   81MOL0     C10841  14.609  -0.222   1.553 -0.2027  0.3686 -0.0669
   81MOL0     C10842  14.644  -0.127   1.664 -0.0189 -0.1465 -0.2126
   81MOL0     C10843  14.557  -0.003   1.645  0.0905  0.2263  0.3376
   81MOL0    Cl10844  14.568   0.075   1.478  0.0755 -0.2117  0.0832
   81MOL0     C10845  13.924  -0.726   1.037 -0.0124  0.3683  1.2855
   81MOL0     C10846  13.798  -0.770   0.998 -0.2020 -0.0466  0.6763
   81MOL0     O10847  13.430  -0.649   1.170 -0.8351  0.3556  0.9142
   81MOL0     C10848  13.183  -0.737   1.067  0.6595  0.3799 -0.0377
   81MOL0     C10849  13.063  -0.772   1.002  0.4205  0.6467  0.2193
   81MOL0     N10850  12.587  -0.671   1.038 -0.4487  0.3512  0.4353
   81MOL0     N10851  12.547  -0.547   1.024 -0.0559 -0.1484 -0.2352
   81MOL0     C10852  11.606  -0.106   0.620 -0.0388  0.4268  1.0081
   81MOL0     C10853  11.477  -0.155   0.613 -0.7326 -0.6292  0.0299
   81MOL0     C10854  11.066  -0.134   0.483  0.8989 -0.0111 -0.1933
   81MOL0     C10855  10.965  -0.058   0.413 -1.5222  0.2463  0.1960
   81MOL0     C10856  10.841  -0.117   0.379  0.2395  0.1004 -0.4744
   81MOL0     C10857  10.812  -0.248   0.406 -1.3192  0.5537  0.2191
   81MOL0     O10858  10.688  -0.306   0.380 -0.1640  0.5258 -0.1881
   81MOL0     C10859  10.683  -0.399   0.278  0.5504  0.3804  0.8842
   81MOL0     C10860  10.714  -0.344   0.136  0.0228  0.3398 -0.0351
   81MOL0     C10861  10.596  -0.260   0.082  0.2485  0.3725 -0.4833
   81MOL0     C10862  10.487  -0.337   0.012 -0.3410 -0.5152  0.3008
   81MOL0     C10863  10.373  -0.250   0.018  0.8910 -0.0251 -0.3164
   81MOL0     C10864  10.272  -0.194   0.027  0.7879  0.7898  0.2258
   81MOL0     C10865  10.918  -0.320   0.459  0.2042  0.5718  0.5935
   81MOL0     C10866  11.038  -0.271   0.506 -1.2501 -0.5442  0.3042
   81MOL0     C10867  11.146  -0.376   0.542  0.1022  0.0802  0.4840
   81MOL0     H10868  11.333   0.095   0.787 -1.0722 -1.0615 -0.9527
   81MOL0     H10869  11.571   0.167   0.802  0.2085  0.4910 -0.5288
   81MOL0     H10870  11.810   0.217   0.756  0.9172  0.9509  3.1191
   81MOL0     H10871  11.781   0.120   0.899 -0.0727  1.5442  0.6644
   81MOL0     H10872  12.029   0.185   0.885  2.4515  0.0155 -1.3926
   81MOL0     H10873  12.031   0.118   0.729 -1.3998 -1.9184 -0.6316
   81MOL0     H10874  11.992  -0.112   0.824 -1.3832 -0.9548  1.5584
   81MOL0     H10875  11.971  -0.053   0.986  3.7325 -0.7016  2.3204
   81MOL0     H10876  12.230  -0.041   0.827  0.8056 -1.4289 -0.3450
   81MOL0     H10877  12.212   0.029   0.988  2.3187 -2.2456 -0.2786
   81MOL0     H10878  12.324  -0.178   0.992 -0.0865  0.5546  1.7939
   81MOL0     H10879  12.180  -0.166   1.097 -1.1504 -0.0604  0.2250
   81MOL0     H10880  12.053  -0.309   0.979  0.7381 -0.5584 -0.1519
   81MOL0     H10881  12.152  -0.313   0.834 -3.0781  0.0298 -0.0683
   81MOL0     H10882  12.179  -0.526   0.999  0.0710 -0.6411  0.6643
   81MOL0     H10883  12.284  -0.408   1.097 -0.1827 -0.0564  0.6319
   81MOL0     H10884  12.311  -0.474   0.806  0.0657 -0.6855  0.2802
   81MOL0     H10885  12.410  -0.357   0.899 -1.5893  0.0028  1.7178
   81MOL0     H10886  12.375  -0.745   0.814  0.1789  1.9881 -1.6331
   81MOL0     H10887  12.570  -0.962   1.035  1.0833 -0.5497 -0.9262
   81MOL0     H10888  12.423  -0.949   0.941 -0.8009  1.1748  0.6351
   81MOL0     H10889  12.644  -1.071   0.858  1.1704  0.6711  0.6289
   81MOL0     H10890  12.519  -0.997   0.755  4.1274 -2.5386 -3.7243
   81MOL0     H10891  12.673  -0.786   0.741 -0.2625 -0.6981 -1.4465
   81MOL0     H10892  12.736  -0.944   0.684  0.6741 -0.0902  0.5172
   81MOL0     H10893  12.870  -0.966   0.903  0.9701 -0.3562 -0.0546
   81MOL0     H10894  12.797  -0.811   0.946  1.0226  0.3874 -0.1786
   81MOL0     H10895  13.175  -0.804   0.680  1.6873  0.5778 -1.0689
   81MOL0     H10896  13.396  -0.744   0.805 -1.0389  2.1906 -1.4093
   81MOL0     H10897  13.622  -0.522   1.160 -0.1386 -0.4607  1.6812
   81MOL0     H10898  13.834  -0.452   1.232 -2.2798  0.6031 -0.6098
   81MOL0     H10899  14.053  -0.406   1.231 -0.4191  0.0927  0.5166
   81MOL0     H10900  14.052  -0.514   1.372 -1.3331 -3.5314 -1.4684
   81MOL0     H10901  14.293  -0.570   1.322  2.7521  1.1414 -0.5182
   81MOL0     H10902  14.298  -0.449   1.198 -1.4798 -2.1588 -1.4768
   81MOL0     H10903  14.261  -0.282   1.365  3.3075  0.5810 -1.3058
   81MOL0     H10904  14.239  -0.396   1.500  2.9440  1.9933  1.1598
   81MOL0     H10905  14.488  -0.331   1.339 -3.2055 -1.6170 -1.6821
   81MOL0     H10906  14.497  -0.459   1.459  0.3227 -0.7968 -1.6253
   81MOL0     H10907  14.441  -0.315   1.643  4.0806 -0.8887  2.2685
   81MOL0     H10908  14.398  -0.187   1.522  0.6628  0.1931  0.9703
   81MOL0     H10909  14.663  -0.315   1.572  0.5695  1.2934  2.7018
   81MOL0     H10910  14.629  -0.172   1.458  0.7597 -1.9343 -1.1439
   81MOL0     H10911  14.750  -0.101   1.663  0.0642 -0.0350  2.7303
   81MOL0     H10912  14.620  -0.176   1.759  1.1021  1.3584  0.9064
   81MOL0     H10913  14.452  -0.018   1.670  0.2608 -0.3626  0.7210
   81MOL0     H10914  14.596   0.070   1.717  4.6311 -1.5950  0.0564
   81MOL0     H10915  14.011  -0.771   0.991 -1.5494 -1.7129  0.2264
   81MOL0     H10916  13.793  -0.849   0.924 -2.4026 -1.0838  1.8401
   81MOL0     H10917  13.193  -0.741   1.175 -0.1669  1.1013  0.0737
   81MOL0     H10918  12.985  -0.772   1.078  2.9838 -3.8715  3.3444
   81MOL0     H10919  11.668  -0.173   0.561 -2.1897 -0.8496  0.0565
   81MOL0     H10920  11.457  -0.248   0.560 -1.4591 -0.3003 -0.2912
   81MOL0     H10921  10.994   0.046   0.402  1.8415 -0.4741  1.2313
   81MOL0     H10922  10.770  -0.049   0.334 -0.6457  1.1122  2.2335
   81MOL0     H10923  10.582  -0.438   0.269  0.6437  0.5909 -1.9072
   81MOL0     H10924  10.756  -0.478   0.296  1.8564  0.5590 -2.7658
   81MOL0     H10925  10.725  -0.428   0.067 -1.4471  1.0656 -1.2066
   81MOL0     H10926  10.808  -0.289   0.130  0.4799 -0.4472 -0.1661
   81MOL0     H10927  10.629  -0.197  -0.001 -0.3297  2.0109  0.4757
   81MOL0     H10928  10.548  -0.196   0.157 -1.2276 -0.8551 -0.3196
   81MOL0     H10929  10.517  -0.342  -0.093 -1.3650  0.9587 -0.0973
   81MOL0     H10930  10.476  -0.439   0.048 -4.5821 -0.5217 -0.5784
   81MOL0     H10931  10.178  -0.145   0.042 -0.1337 -0.9113  0.1792
   81MOL0     H10932  10.908  -0.428   0.466 -0.4917  0.1871 -3.5059
   81MOL0     H10933  11.098  -0.474   0.538  2.8036 -1.5765  3.9106
   81MOL0     H10934  11.233  -0.366   0.477  1.6526 -0.6215  2.3805
   81MOL0     H10935  11.179  -0.358   0.645  3.7050 -1.2476 -0.3125
   82MOL0     O10936   3.317   4.900   9.253 -0.1797  0.1449 -0.3083
   82MOL0     C10937   3.423   4.929   9.204  0.6274 -1.3054  0.3455
   82MOL0     O10938   3.506   4.850   9.137  0.4791  0.2552  0.0623
   82MOL0     C10939   3.478   4.715   9.105 -0.4440 -0.3094  0.1568
   82MOL0     C10940   3.435   4.621   9.198 -1.0705  0.3301 -0.4766
   82MOL0     C10941   3.408   4.488   9.160  0.0686 -0.0437 -0.8499
   82MOL0     C10942   3.450   4.444   9.036 -0.3934  0.9733 -0.7687
   82MOL0     O10943   3.434   4.307   9.013  0.1976  0.3371  0.0450
   82MOL0     C10944   3.492   4.252   8.891  1.8725  1.1433  0.8279
   82MOL0     C10945   3.488   4.102   8.889  0.1206  0.1381 -0.6913
   82MOL0     C10946   3.550   4.028   9.008 -0.0140 -0.0980  0.2873
   82MOL0     C10947   3.564   3.878   8.986 -0.0254 -0.4630 -0.5519
   82MOL0     C10948   3.644   3.805   9.084 -0.1500 -0.0015 -1.0436
   82MOL0     C10949   3.638   3.657   9.054 -0.0353  0.5557 -0.0224
   82MOL0     C10950   3.742   3.618   8.947  0.4632  0.6280 -0.1946
   82MOL0     C10951   3.781   3.464   8.942  0.1141 -0.2705  0.4216
   82MOL0     N10952   3.882   3.425   9.045 -0.0040  0.6264 -0.1281
   82MOL0     C10953   3.866   3.412   9.182  1.0006  0.6209 -0.7050
   82MOL0     C10954   3.983   3.420   9.248 -0.0960  0.5903 -0.0479
   82MOL0     C10955   4.002   3.408   9.403  0.3274  0.4821  0.3184
   82MOL0     C10956   4.152   3.433   9.441  0.1149  0.3172 -0.1411
   82MOL0     C10957   4.237   3.306   9.425  0.6326 -0.0804  0.6666
   82MOL0     C10958   4.368   3.330   9.506  0.5682 -0.5033 -1.4836
   82MOL0     O10959   4.452   3.420   9.436  0.4576 -0.5795  0.6812
   82MOL0     C10960   4.578   3.415   9.475  0.4344  0.2203  0.3066
   82MOL0     C10961   4.679   3.391   9.383  0.4891  0.0981 -0.4285
   82MOL0     C10962   4.812   3.385   9.422  1.4599 -0.0025  0.2376
   82MOL0     C10963   4.853   3.440   9.541 -0.2746  0.8743  0.0784
   82MOL0     C10964   5.003   3.457   9.569  0.6483  0.5841  0.5065
   82MOL0     O10965   5.083   3.407   9.470 -0.2321  0.6481 -0.0650
   82MOL0     C10966   5.218   3.420   9.480 -0.0300 -0.4892  0.5302
   82MOL0     C10967   5.298   3.394   9.594  1.2046 -0.3260  0.3986
   82MOL0     C10968   5.441   3.413   9.586  0.0893  0.0327  0.1472
   82MOL0     C10969   5.514   3.458   9.475  0.3924 -1.3075  0.0362
   82MOL0     O10970   5.640   3.452   9.479  0.0013 -0.3680 -0.5009
   82MOL0     C10971   5.708   3.431   9.358 -0.3267  0.4924 -0.3420
   82MOL0     C10972   5.855   3.400   9.364  0.4696  0.8511  0.4335
   82MOL0     C10973   5.883   3.264   9.432  0.1848 -1.6522  0.7114
   82MOL0     C10974   6.029   3.229   9.398 -0.4476  0.3808  0.3971
   82MOL0     C10975   6.086   3.112   9.483  0.0730 -0.2851  0.5737
   82MOL0     C10976   6.236   3.105   9.456 -0.8531  0.5548 -0.6289
   82MOL0     C10977   6.300   2.979   9.522  0.2846 -0.5232 -0.1338
   82MOL0     C10978   6.441   2.946   9.466 -0.2317  0.4092 -0.5809
   82MOL0    Cl10979   6.534   3.105   9.521 -0.1262 -0.0194  0.1298
   82MOL0     C10980   5.432   3.479   9.360 -1.0164 -0.5605 -1.0052
   82MOL0     C10981   5.290   3.452   9.361 -0.0218 -0.3814  0.7769
   82MOL0     O10982   5.041   3.525   9.665  0.7005  0.1453  0.1376
   82MOL0     C10983   4.752   3.496   9.619 -0.2235  0.4998 -0.7063
   82MOL0     C10984   4.619   3.475   9.590 -0.1381 -0.3490  0.0556
   82MOL0     N10985   4.074   3.446   9.147 -0.0360  0.6660  0.0132
   82MOL0     N10986   4.021   3.444   9.030 -0.1561  0.1387  0.5263
   82MOL0     C10987   3.496   4.538   8.944 -0.7698 -0.3577  0.9206
   82MOL0     C10988   3.504   4.680   8.970  0.2351  0.2149 -0.7787
   82MOL0     C10989   3.466   5.075   9.207  0.0264  0.2440 -0.3061
   82MOL0     C10990   3.549   5.130   9.108 -0.0574 -0.0679  0.6408
   82MOL0     C10991   3.590   5.259   9.117 -0.5321  0.2395 -0.0356
   82MOL0     C10992   3.559   5.344   9.213  0.0025 -0.6382 -0.2441
   82MOL0     O10993   3.617   5.470   9.217  0.8464 -0.8850  0.0019
   82MOL0     C10994   3.587   5.557   9.327 -0.5876 -0.7185  0.0406
   82MOL0     C10995   3.662   5.680   9.322 -0.4325  0.2515  0.1366
   82MOL0     C10996   3.817   5.670   9.316 -0.1047  0.4931  0.4526
   82MOL0     C10997   3.866   5.755   9.197  0.6501  0.3003 -0.8989
   82MOL0     C10998   3.876   5.899   9.243  0.5120 -0.7866 -1.3594
   82MOL0     C10999   3.885   6.014   9.280  0.6091 -0.5002  0.6322
   82MOL0     C11000   3.481   5.288   9.320  0.2762  0.1792 -0.2113
   82MOL0     C11001   3.435   5.156   9.315 -0.0246 -0.1725 -0.9010
   82MOL0     C11002   3.362   5.120   9.442 -0.1156  0.4288  0.2038
   82MOL0     H11003   3.417   4.651   9.301 -3.6237 -0.2196 -0.6811
   82MOL0     H11004   3.363   4.417   9.228  0.2271 -0.0065 -0.7046
   82MOL0     H11005   3.439   4.288   8.802 -1.5419 -2.5438  1.0728
   82MOL0     H11006   3.596   4.284   8.884  2.9045 -1.9078  0.6987
   82MOL0     H11007   3.529   4.066   8.793  0.1363 -1.7266 -0.0375
   82MOL0     H11008   3.383   4.068   8.889  0.4819 -1.1795 -2.4625
   82MOL0     H11009   3.490   4.049   9.097 -0.7192  1.1759 -0.4531
   82MOL0     H11010   3.650   4.071   9.019 -0.2408  0.2040  1.2724
   82MOL0     H11011   3.463   3.835   8.989  0.6198 -3.1447 -5.9613
   82MOL0     H11012   3.607   3.857   8.888 -0.7827 -0.7180 -0.8420
   82MOL0     H11013   3.748   3.837   9.080  0.8510 -2.5482  1.3157
   82MOL0     H11014   3.614   3.822   9.188  0.9678 -0.5408 -0.6234
   82MOL0     H11015   3.667   3.615   9.151  0.8468  0.2015 -0.4197
   82MOL0     H11016   3.537   3.628   9.026 -0.2263  0.6547  0.5559
   82MOL0     H11017   3.831   3.681   8.957 -0.6188  1.8488  2.9785
   82MOL0     H11018   3.697   3.637   8.849 -1.3700  1.1344  0.7069
   82MOL0     H11019   3.690   3.409   8.969  0.6037 -1.5546 -0.4601
   82MOL0     H11020   3.802   3.428   8.841  0.1441 -0.3835  0.4674
   82MOL0     H11021   3.771   3.383   9.227  2.0130  0.6451  1.5755
   82MOL0     H11022   3.940   3.486   9.447 -0.2052 -0.5189  1.3822
   82MOL0     H11023   3.971   3.311   9.442  0.3759 -0.7457 -2.4907
   82MOL0     H11024   4.195   3.515   9.383  0.5115  0.0847 -0.1858
   82MOL0     H11025   4.151   3.464   9.546 -0.6406  1.8718 -0.5756
   82MOL0     H11026   4.278   3.287   9.325 -1.6508 -0.1642 -0.3027
   82MOL0     H11027   4.174   3.218   9.443 -2.3486  1.4685 -1.4352
   82MOL0     H11028   4.417   3.236   9.531  2.4889  0.7090 -0.4162
   82MOL0     H11029   4.341   3.377   9.601  0.1339  0.0861 -1.8855
   82MOL0     H11030   4.657   3.361   9.281 -2.9414 -0.7543  0.4416
   82MOL0     H11031   4.882   3.353   9.345  2.6656 -0.8392  1.6484
   82MOL0     H11032   5.269   3.351   9.689 -0.2585  2.2867  1.2383
   82MOL0     H11033   5.504   3.380   9.668  0.9235 -1.8178 -1.1565
   82MOL0     H11034   5.657   3.348   9.307  0.6536  1.3484 -2.8820
   82MOL0     H11035   5.700   3.522   9.298 -0.5905  1.2746  0.8484
   82MOL0     H11036   5.887   3.396   9.259 -0.0425  0.3151  0.2909
   82MOL0     H11037   5.895   3.483   9.422  3.3572 -1.2966  1.7291
   82MOL0     H11038   5.873   3.267   9.541  1.6096  1.3034  0.8605
   82MOL0     H11039   5.822   3.182   9.391 -0.4634 -1.3721  1.1019
   82MOL0     H11040   6.091   3.312   9.431  1.8854 -1.5585  1.1910
   82MOL0     H11041   6.048   3.219   9.290  0.6664 -1.0154  0.6945
   82MOL0     H11042   6.040   3.018   9.451  0.8220 -1.3610  2.4598
   82MOL0     H11043   6.074   3.130   9.591  0.5122  1.0854  0.4202
   82MOL0     H11044   6.250   3.113   9.347 -1.9466 -0.5064 -0.8629
   82MOL0     H11045   6.284   3.196   9.493 -0.1461  0.1035 -0.4244
   82MOL0     H11046   6.228   2.898   9.503  1.4517 -1.5151 -0.4872
   82MOL0     H11047   6.298   3.001   9.629 -0.3997 -0.8896 -0.0649
   82MOL0     H11048   6.481   2.857   9.516 -1.6252 -0.0985 -0.3381
   82MOL0     H11049   6.450   2.912   9.363  1.8048  0.0851 -0.3430
   82MOL0     H11050   5.458   3.511   9.259 -0.3275 -1.8120 -1.2468
   82MOL0     H11051   5.231   3.459   9.271  1.2201 -1.0513 -0.1225
   82MOL0     H11052   4.781   3.556   9.705 -3.1803  1.9362 -0.5868
   82MOL0     H11053   4.537   3.510   9.652 -0.9440  0.8847 -1.6441
   82MOL0     H11054   3.524   4.505   8.844  0.2048 -1.3117  1.4925
   82MOL0     H11055   3.553   4.758   8.914 -1.0227  1.7121  0.1348
   82MOL0     H11056   3.572   5.065   9.024 -2.4860 -0.0242 -0.1273
   82MOL0     H11057   3.656   5.291   9.037  2.3494 -2.1535  1.1840
   82MOL0     H11058   3.625   5.512   9.419  0.7987  0.4328  0.0694
   82MOL0     H11059   3.484   5.592   9.331 -0.8133 -1.4768  3.7415
   82MOL0     H11060   3.638   5.729   9.416  0.5462  2.0656 -0.5198
   82MOL0     H11061   3.617   5.745   9.246 -0.3724  1.7353  1.3340
   82MOL0     H11062   3.844   5.567   9.294  1.8205  1.0173  0.1624
   82MOL0     H11063   3.861   5.704   9.410 -2.1023  0.5093  1.4256
   82MOL0     H11064   3.966   5.718   9.170  0.8671 -0.1939  0.4917
   82MOL0     H11065   3.817   5.744   9.100  2.0375  2.3328 -1.8916
   82MOL0     H11066   3.892   6.120   9.297 -0.8377  0.3877 -3.3544
   82MOL0     H11067   3.462   5.350   9.407  1.2836  0.9858 -0.5436
   82MOL0     H11068   3.387   5.172   9.534 -2.3865  0.7850  0.6751
   82MOL0     H11069   3.256   5.138   9.425  0.3727  1.9692 -1.5955
   82MOL0     H11070   3.355   5.012   9.458 -2.7847  0.3968 -0.7258
   83MOL0     O11071   3.601   9.756   5.092  0.1415  0.3162  0.6443
   83MOL0     C11072   3.551   9.694   4.997  0.4210  0.3394 -0.1711
   83MOL0     O11073   3.603   9.584   4.939 -0.0694  0.5562 -0.2050
   83MOL0     C11074   3.692   9.511   5.003  0.9056  1.0461 -0.0219
   83MOL0     C11075   3.686   9.374   5.008 -0.0489  0.5744 -0.5964
   83MOL0     C11076   3.789   9.293   5.051 -0.5945 -0.4070  0.4860
   83MOL0     C11077   3.912   9.347   5.082 -1.2393  0.4617 -0.8249
   83MOL0     O11078   4.025   9.272   5.120  0.2821 -0.9245  0.5942
   83MOL0     C11079   4.039   9.130   5.080 -0.5332 -0.5145  0.6736
   83MOL0     C11080   4.179   9.080   5.096  0.6303  0.1890  0.8921
   83MOL0     C11081   4.210   9.067   5.242  0.0284 -0.9916  0.4783
   83MOL0     C11082   4.365   9.051   5.267  0.2736  0.6883  0.9253
   83MOL0     C11083   4.390   8.958   5.388 -0.1730 -0.2774 -0.4862
   83MOL0     C11084   4.541   8.946   5.399  0.7052  1.0699 -0.2699
   83MOL0     C11085   4.589   8.843   5.508  0.3625 -0.2576  0.1632
   83MOL0     C11086   4.736   8.823   5.507 -0.2559  0.1470  1.0198
   83MOL0     N11087   4.786   8.729   5.613  0.6424 -0.3724  0.2766
   83MOL0     C11088   4.807   8.754   5.746 -0.9751 -0.8678 -0.2122
   83MOL0     C11089   4.861   8.640   5.800 -1.3589 -1.0487  0.3196
   83MOL0     C11090   4.898   8.625   5.940 -0.4190 -0.5084 -0.2241
   83MOL0     C11091   5.004   8.721   6.002  0.0065  0.4274 -0.2188
   83MOL0     C11092   5.044   8.669   6.143 -0.5562 -0.7575  0.1944
   83MOL0     C11093   5.167   8.766   6.177  0.2274  0.0139 -0.7724
   83MOL0     O11094   5.290   8.722   6.116  0.0924  0.3776 -0.1804
   83MOL0     C11095   5.357   8.617   6.154 -0.0612 -0.0085 -0.2939
   83MOL0     C11096   5.315   8.510   6.241 -0.0336  0.3197  0.3753
   83MOL0     C11097   5.411   8.410   6.280 -0.0057  0.3066  0.0112
   83MOL0     C11098   5.543   8.413   6.220 -0.0985 -1.0344 -1.2047
   83MOL0     C11099   5.649   8.319   6.270 -0.3100 -1.1214  0.2664
   83MOL0     O11100   5.599   8.237   6.378 -0.3178 -0.1209 -0.3093
   83MOL0     C11101   5.694   8.185   6.469 -0.3667 -0.8167 -0.1742
   83MOL0     C11102   5.811   8.259   6.516 -0.0351 -0.7850  0.2784
   83MOL0     C11103   5.891   8.203   6.621 -0.8045 -0.3245 -1.0851
   83MOL0     C11104   5.855   8.078   6.681  0.1006 -0.0176 -0.2420
   83MOL0     O11105   5.941   8.039   6.776 -0.7363  0.0478 -0.0839
   83MOL0     C11106   5.933   7.902   6.794  0.4277 -0.1115  0.5990
   83MOL0     C11107   6.072   7.845   6.811  0.9241  1.1160 -0.0596
   83MOL0     C11108   6.166   7.852   6.692 -0.4490 -0.1881  0.8063
   83MOL0     C11109   6.306   7.790   6.732 -1.4095 -0.6515 -0.2942
   83MOL0     C11110   6.362   7.849   6.867  0.5178  0.4808  0.6188
   83MOL0     C11111   6.512   7.809   6.885  0.4721 -0.9243 -1.3093
   83MOL0     C11112   6.584   7.867   7.013  0.1770 -0.4127  0.3978
   83MOL0     C11113   6.726   7.918   6.986  0.3451 -0.0271  0.2041
   83MOL0    Cl11114   6.837   7.792   6.917 -0.2083 -0.2430  0.1411
   83MOL0     C11115   5.743   8.014   6.633 -0.1611 -0.6521  0.2832
   83MOL0     C11116   5.665   8.066   6.531 -0.1398  1.3038 -0.7339
   83MOL0     O11117   5.756   8.300   6.206 -0.3551  0.0199  0.8788
   83MOL0     C11118   5.575   8.518   6.131 -0.8142 -0.3917  0.7135
   83MOL0     C11119   5.485   8.621   6.106  0.0739 -0.3307  0.4214
   83MOL0     N11120   4.897   8.564   5.689  0.1328 -0.5853 -0.3747
   83MOL0     N11121   4.851   8.611   5.581 -0.3725 -0.1751 -0.2653
   83MOL0     C11122   3.921   9.486   5.072 -0.3184 -0.2041 -0.0695
   83MOL0     C11123   3.820   9.566   5.034  0.9241 -0.0099  0.3053
   83MOL0     C11124   3.423   9.732   4.928  0.7104  0.1017 -0.2405
   83MOL0     C11125   3.359   9.639   4.844  0.7079 -0.5940  0.2742
   83MOL0     C11126   3.251   9.671   4.763 -0.0894 -0.6985  0.8845
   83MOL0     C11127   3.190   9.793   4.774 -0.9302  0.0971  0.2084
   83MOL0     O11128   3.091   9.842   4.691 -0.1491  0.1555  0.3696
   83MOL0     C11129   3.027   9.747   4.601 -1.0379 -0.2427  0.4211
   83MOL0     C11130   2.899   9.817   4.551  0.4808 -0.3070  0.0975
   83MOL0     C11131   2.790   9.832   4.656  1.4801 -0.1627  0.1404
   83MOL0     C11132   2.660   9.856   4.576 -0.3167  0.1974  0.9729
   83MOL0     C11133   2.545   9.862   4.668  0.7316  0.2570  0.3303
   83MOL0     C11134   2.452   9.863   4.739 -0.2542 -0.3460 -0.0691
   83MOL0     C11135   3.237   9.882   4.872 -1.0707  0.1152  0.3395
   83MOL0     C11136   3.354   9.858   4.944 -0.5587  0.5767  0.0462
   83MOL0     C11137   3.425   9.970   5.019  0.5059  0.5286 -0.8705
   83MOL0     H11138   3.598   9.320   4.974  1.2926 -1.6006 -0.7946
   83MOL0     H11139   3.784   9.184   5.056  1.1520 -0.4719  2.3172
   83MOL0     H11140   3.956   9.075   5.126 -2.7344  1.3551 -0.7686
   83MOL0     H11141   4.016   9.121   4.973  1.5843  2.5698 -0.1762
   83MOL0     H11142   4.262   9.134   5.049  2.2388 -2.5473  0.3517
   83MOL0     H11143   4.185   8.985   5.041 -3.5085  0.4512 -0.3124
   83MOL0     H11144   4.157   8.978   5.278 -1.5292 -1.1884 -2.0859
   83MOL0     H11145   4.183   9.150   5.309  4.4130  0.1838  1.0847
   83MOL0     H11146   4.410   8.993   5.186 -0.6662 -1.7913  2.0823
   83MOL0     H11147   4.411   9.148   5.292 -1.5703  1.7380  0.3930
   83MOL0     H11148   4.348   8.998   5.481 -0.1983  1.3980 -1.1853
   83MOL0     H11149   4.340   8.864   5.363 -0.8287  0.2116 -1.0591
   83MOL0     H11150   4.584   8.927   5.301 -0.4243 -1.3486 -0.3678
   83MOL0     H11151   4.568   9.046   5.433 -0.2243  0.5702  2.2045
   83MOL0     H11152   4.543   8.745   5.494 -2.5849  1.2159 -1.5339
   83MOL0     H11153   4.570   8.869   5.613 -0.5102 -0.1969  0.0004
   83MOL0     H11154   4.773   8.786   5.411  2.3176  2.5569  0.9551
   83MOL0     H11155   4.788   8.919   5.499 -1.6739  0.8112 -1.4516
   83MOL0     H11156   4.766   8.834   5.807  2.0351  1.2801 -0.7257
   83MOL0     H11157   4.800   8.645   5.985  0.0022  0.8887  0.1069
   83MOL0     H11158   4.922   8.522   5.969 -2.3594 -0.7854  0.5704
   83MOL0     H11159   5.090   8.737   5.937 -0.7580 -0.6502 -1.5383
   83MOL0     H11160   4.948   8.814   6.010  0.2352  0.4469  1.9613
   83MOL0     H11161   5.059   8.561   6.133 -1.2106 -0.7431 -1.2112
   83MOL0     H11162   4.973   8.696   6.221  2.1013  1.5846  2.0095
   83MOL0     H11163   5.171   8.775   6.286 -1.9470  1.4005 -0.7626
   83MOL0     H11164   5.139   8.867   6.147  0.9454  0.9711  1.5723
   83MOL0     H11165   5.212   8.514   6.275 -0.9886  2.7948 -2.3650
   83MOL0     H11166   5.373   8.333   6.346 -2.1159  1.7109  0.5288
   83MOL0     H11167   5.829   8.356   6.472 -2.9910  0.0651  0.7668
   83MOL0     H11168   5.984   8.249   6.654 -0.3294 -1.8724 -0.1548
   83MOL0     H11169   5.872   7.873   6.880 -1.0645  3.2952  0.8691
   83MOL0     H11170   5.903   7.850   6.703  1.8671  1.1790 -0.6618
   83MOL0     H11171   6.128   7.895   6.890  1.6803 -1.2070  0.9486
   83MOL0     H11172   6.067   7.739   6.839 -1.1940  1.0109 -0.6042
   83MOL0     H11173   6.127   7.802   6.603 -0.1917 -0.1580  0.6741
   83MOL0     H11174   6.180   7.950   6.645 -2.1408 -1.5049 -2.8622
   83MOL0     H11175   6.381   7.800   6.654  1.0039  0.2500  2.0068
   83MOL0     H11176   6.301   7.681   6.738 -0.6346 -0.6306  1.8006
   83MOL0     H11177   6.305   7.808   6.951  2.3375 -2.3486  0.5950
   83MOL0     H11178   6.361   7.959   6.866  1.4680  0.6731  4.7837
   83MOL0     H11179   6.519   7.700   6.885  1.9245 -0.8715 -0.2477
   83MOL0     H11180   6.566   7.850   6.799  2.0820  1.0982  0.5294
   83MOL0     H11181   6.594   7.789   7.090  2.4708  0.7898  1.4190
   83MOL0     H11182   6.534   7.943   7.074  2.3051  1.1205  0.3501
   83MOL0     H11183   6.741   8.000   6.914  3.1736 -0.7572 -0.1647
   83MOL0     H11184   6.774   7.940   7.082 -2.8021 -0.6726  2.0371
   83MOL0     H11185   5.711   7.918   6.672  1.5882 -2.0773 -1.6185
   83MOL0     H11186   5.576   8.014   6.497 -1.2103  2.6510 -0.1077
   83MOL0     H11187   5.680   8.535   6.109 -0.8593  0.5969  1.2099
   83MOL0     H11188   5.502   8.709   6.045 -0.6911  0.0318  0.7239
   83MOL0     H11189   4.018   9.529   5.098 -0.0228 -1.1978  0.5344
   83MOL0     H11190   3.845   9.671   5.019  0.8820  0.0878  0.8937
   83MOL0     H11191   3.385   9.533   4.840 -1.4814 -1.1998  0.5079
   83MOL0     H11192   3.221   9.588   4.701  1.9270 -1.1220  0.4115
   83MOL0     H11193   2.994   9.658   4.655 -2.6203  0.1866  0.2145
   83MOL0     H11194   3.100   9.721   4.524 -1.8272  0.6812 -0.6793
   83MOL0     H11195   2.853   9.765   4.467  1.4393  1.0916 -1.3519
   83MOL0     H11196   2.924   9.921   4.525  0.7727 -0.7030 -1.2686
   83MOL0     H11197   2.814   9.911   4.728  0.8475  0.0766  0.0984
   83MOL0     H11198   2.788   9.741   4.717  0.3353 -0.8828 -0.9389
   83MOL0     H11199   2.665   9.956   4.531 -2.8645  0.5506  1.3358
   83MOL0     H11200   2.651   9.776   4.501 -1.3436  1.2400 -0.0579
   83MOL0     H11201   2.366   9.862   4.803 -1.7235 -1.4389 -1.9945
   83MOL0     H11202   3.184   9.977   4.876 -2.5389 -0.7218  2.0318
   83MOL0     H11203   3.514  10.008   4.967 -0.1858  3.4913 -0.0905
   83MOL0     H11204   3.357  10.052   5.045 -0.9818 -1.4932  2.2522
   83MOL0     H11205   3.456   9.941   5.120  0.5460  2.4441 -0.3004
   84MOL0     O11206   4.920   9.996   1.124 -0.4523 -0.1464  0.3187
   84MOL0     C11207   4.882   9.985   1.241  0.5435 -0.0685  0.0011
   84MOL0     O11208   4.941  10.047   1.342 -0.8214  0.3864  0.1481
   84MOL0     C11209   5.046  10.126   1.318  0.4230  0.0218  0.8049
   84MOL0     C11210   5.178  10.085   1.353  0.9603 -0.7965  0.0316
   84MOL0     C11211   5.279  10.178   1.332  0.2934 -0.6952  0.5169
   84MOL0     C11212   5.263  10.304   1.267 -0.0935 -0.0598  0.1160
   84MOL0     O11213   5.370  10.396   1.254  0.4019  0.5179  0.4138
   84MOL0     C11214   5.486  10.347   1.185 -0.0072 -0.4151 -0.2094
   84MOL0     C11215   5.585  10.473   1.158  0.1401  0.1463 -0.1862
   84MOL0     C11216   5.560  10.558   1.024 -0.2272  0.4231 -0.0207
   84MOL0     C11217   5.616  10.700   1.042 -0.8046  0.1754  0.2017
   84MOL0     C11218   5.648  10.766   0.908 -0.0021  0.4962 -0.2677
   84MOL0     C11219   5.716  10.898   0.934  0.2817 -0.6768  0.1464
   84MOL0     C11220   5.799  10.915   0.811 -0.5355  0.4279  0.2961
   84MOL0     C11221   5.873  11.052   0.812  0.8118  0.2889  0.3684
   84MOL0     N11222   5.942  11.060   0.684 -0.9343  0.5064  0.5774
   84MOL0     C11223   6.059  11.005   0.655 -0.6045  0.6057  0.5232
   84MOL0     C11224   6.088  11.039   0.529 -0.5905  0.1478 -0.3629
   84MOL0     C11225   6.207  11.019   0.444 -1.0426  0.5448  0.1416
   84MOL0     C11226   6.186  10.912   0.334  0.2073 -0.2949 -0.0989
   84MOL0     C11227   6.101  10.960   0.222  0.0485 -0.2703  0.2144
   84MOL0     C11228   6.166  10.975   0.084  0.1389  0.3902  0.0223
   84MOL0     O11229   6.238  10.846   0.058  0.5977  0.0674  0.5171
   84MOL0     C11230   6.204  10.773  -0.055  0.4817 -0.5638 -0.5377
   84MOL0     C11231   6.248  10.647  -0.041 -1.0191 -0.3075  0.1752
   84MOL0     C11232   6.216  10.550  -0.133 -0.2175  0.5120 -0.1776
   84MOL0     C11233   6.138  10.587  -0.250  0.2267 -0.0997  0.0745
   84MOL0     C11234   6.113  10.493  -0.356  1.1780 -0.1411  0.2353
   84MOL0     O11235   6.153  10.359  -0.331 -0.0475 -0.0268  0.2684
   84MOL0     C11236   6.125  10.268  -0.431  0.1710  0.2166  0.0222
   84MOL0     C11237   6.038  10.161  -0.403  0.0276  0.0422  0.6943
   84MOL0     C11238   5.992  10.082  -0.509  0.4791 -0.3887  0.5681
   84MOL0     C11239   6.049  10.089  -0.639  0.9354  0.3066 -1.0286
   84MOL0     O11240   6.022   9.991  -0.735  0.9652  0.2978  0.1207
   84MOL0     C11241   5.995   9.854  -0.692  0.4502 -0.1962  0.5385
   84MOL0     C11242   6.032   9.757  -0.799  0.3892 -0.9867 -0.1968
   84MOL0     C11243   5.997   9.616  -0.746 -0.0498  0.3998  0.7191
   84MOL0     C11244   6.080   9.503  -0.813 -0.1532 -0.0163  0.0496
   84MOL0     C11245   6.106   9.513  -0.956 -0.9487  0.3656  0.2559
   84MOL0     C11246   6.127   9.379  -1.030  0.0860 -0.6108 -0.2181
   84MOL0     C11247   6.230   9.283  -0.977  0.1761  0.1068 -1.0466
   84MOL0     C11248   6.197   9.133  -1.002  0.3782 -0.6909 -0.1202
   84MOL0    Cl11249   6.055   9.076  -0.917  0.0040  0.1907  0.0793
   84MOL0     C11250   6.147  10.180  -0.657 -0.5303 -0.8298 -0.1171
   84MOL0     C11251   6.182  10.270  -0.557 -0.8783 -0.3635 -0.3496
   84MOL0     O11252   6.049  10.534  -0.460  0.1953 -0.1247  0.0840
   84MOL0     C11253   6.101  10.721  -0.267 -0.4484  0.1323  0.7891
   84MOL0     C11254   6.136  10.817  -0.171  0.5943  0.6490  0.9460
   84MOL0     N11255   5.990  11.120   0.492  0.4771 -0.2660  0.5653
   84MOL0     N11256   5.901  11.139   0.579 -0.0569  0.1449  0.2488
   84MOL0     C11257   5.145  10.327   1.217  0.8034  0.6133 -0.0629
   84MOL0     C11258   5.028  10.246   1.252  0.1901 -0.0612 -0.2050
   84MOL0     C11259   4.748   9.920   1.280  0.8237  0.4024 -0.5256
   84MOL0     C11260   4.690   9.947   1.401  0.6745 -0.5416 -0.4545
   84MOL0     C11261   4.577   9.891   1.447  1.0385  0.7724  0.2216
   84MOL0     C11262   4.507   9.787   1.376  0.1561  0.1777 -0.5460
   84MOL0     O11263   4.383   9.759   1.432  0.1529 -0.3350  0.1044
   84MOL0     C11264   4.305   9.664   1.362 -0.3140  0.1386  0.2589
   84MOL0     C11265   4.158   9.639   1.418 -0.2496 -0.5459  0.7127
   84MOL0     C11266   4.074   9.767   1.390  0.9569  0.2614  0.0583
   84MOL0     C11267   3.948   9.776   1.465  0.3543 -0.7774 -0.3992
   84MOL0     C11268   3.868   9.652   1.448 -0.4656  0.6677 -0.1679
   84MOL0     C11269   3.796   9.565   1.404  0.5526  0.4285  0.8542
   84MOL0     C11270   4.568   9.749   1.255 -0.5216  0.5503  0.5935
   84MOL0     C11271   4.687   9.812   1.208 -0.0344  0.9178 -0.1084
   84MOL0     C11272   4.736   9.748   1.086 -0.2110 -0.4863  0.2114
   84MOL0     H11273   5.186   9.995   1.413  3.2861 -0.8246 -0.2041
   84MOL0     H11274   5.376  10.153   1.374 -0.3461  1.0147  3.3231
   84MOL0     H11275   5.529  10.279   1.259  0.0566 -0.4865 -0.3128
   84MOL0     H11276   5.461  10.309   1.086  0.7842  2.7612 -1.7525
   84MOL0     H11277   5.688  10.436   1.158  0.6609  1.3027  2.5605
   84MOL0     H11278   5.583  10.544   1.241  1.8513 -0.4938  0.4600
   84MOL0     H11279   5.458  10.567   0.987 -0.3878  0.3822  0.4124
   84MOL0     H11280   5.617  10.508   0.945  2.2971  0.6536  1.5391
   84MOL0     H11281   5.547  10.768   1.092 -2.7597 -1.5850  0.0490
   84MOL0     H11282   5.709  10.689   1.099 -0.8593  1.3675  0.5453
   84MOL0     H11283   5.725  10.698   0.870  0.0982  0.2533  0.3559
   84MOL0     H11284   5.558  10.784   0.849 -1.0894 -0.4228  1.0521
   84MOL0     H11285   5.635  10.972   0.932 -0.1501 -1.1541 -0.2759
   84MOL0     H11286   5.774  10.913   1.026 -0.6925  0.3778  0.6143
   84MOL0     H11287   5.733  10.917   0.723 -0.7888  1.2816  0.4918
   84MOL0     H11288   5.871  10.837   0.788 -0.8084 -0.3908  2.1311
   84MOL0     H11289   5.799  11.131   0.831 -0.6956 -0.9746 -0.0650
   84MOL0     H11290   5.950  11.067   0.889  0.7199 -2.0658  1.0059
   84MOL0     H11291   6.126  10.950   0.720 -1.3914  1.2209  1.8909
   84MOL0     H11292   6.246  11.115   0.407 -0.1522  1.7659  3.8067
   84MOL0     H11293   6.292  10.986   0.506  0.5047  2.4705 -0.8279
   84MOL0     H11294   6.283  10.881   0.296  0.1018 -2.7548  1.3807
   84MOL0     H11295   6.137  10.823   0.374  1.6632 -1.8300 -1.5762
   84MOL0     H11296   6.055  11.058   0.242 -0.7595 -0.6335  0.1953
   84MOL0     H11297   6.016  10.890   0.222 -0.7192  0.6324  0.6352
   84MOL0     H11298   6.226  11.067   0.077 -0.5545  0.6965 -3.7851
   84MOL0     H11299   6.086  10.997   0.013 -1.5299 -0.3575  1.6003
   84MOL0     H11300   6.312  10.630   0.045 -0.5742 -0.7781 -0.2390
   84MOL0     H11301   6.262  10.452  -0.123 -1.5289 -0.3893 -2.2941
   84MOL0     H11302   6.000  10.161  -0.301 -3.1607 -0.5999 -0.3614
   84MOL0     H11303   5.918  10.004  -0.491  0.7948 -1.1991 -1.3467
   84MOL0     H11304   6.043   9.831  -0.596  1.1927 -2.0758 -0.2393
   84MOL0     H11305   5.890   9.837  -0.667  0.5811 -1.3324  0.3846
   84MOL0     H11306   5.988   9.781  -0.896  1.9481 -1.1497 -0.9725
   84MOL0     H11307   6.140   9.764  -0.810  0.1582 -0.2481 -2.3769
   84MOL0     H11308   6.026   9.619  -0.641  1.2491 -1.0554  0.4488
   84MOL0     H11309   5.893   9.585  -0.753 -0.5402  2.3001 -1.8463
   84MOL0     H11310   6.027   9.409  -0.795  0.7336 -0.7905 -1.2704
   84MOL0     H11311   6.171   9.480  -0.757 -1.9703 -2.1212  2.4201
   84MOL0     H11312   6.199   9.572  -0.958 -0.3427 -0.5677  0.1491
   84MOL0     H11313   6.033   9.572  -1.012 -1.3212 -2.0981 -2.0499
   84MOL0     H11314   6.030   9.328  -1.037 -1.3594  1.7810  1.2183
   84MOL0     H11315   6.158   9.399  -1.133  1.2302 -0.7720  0.0834
   84MOL0     H11316   6.240   9.300  -0.869  0.4370  0.5663 -1.1392
   84MOL0     H11317   6.329   9.307  -1.017  0.3465  1.4848  0.1139
   84MOL0     H11318   6.172   9.122  -1.108 -0.9038  1.3011 -0.0757
   84MOL0     H11319   6.274   9.062  -0.972 -0.3018 -1.0340  0.8350
   84MOL0     H11320   6.198  10.195  -0.751 -1.2308  1.8078 -0.1756
   84MOL0     H11321   6.266  10.333  -0.584 -0.7212 -0.0213  0.8641
   84MOL0     H11322   6.031  10.743  -0.347 -1.5186 -2.1157  1.0250
   84MOL0     H11323   6.105  10.920  -0.173  1.8099  1.0280 -0.3943
   84MOL0     H11324   5.124  10.416   1.158 -0.4499  2.1099  2.4699
   84MOL0     H11325   4.928  10.272   1.217 -0.2780 -2.6063 -0.9403
   84MOL0     H11326   4.727  10.013   1.479 -3.2606 -0.7512  1.8704
   84MOL0     H11327   4.533   9.924   1.540 -1.0892  0.6305 -0.6729
   84MOL0     H11328   4.353   9.565   1.366  0.5647  0.6010  2.0860
   84MOL0     H11329   4.291   9.698   1.259 -1.0860 -2.0301 -0.4127
   84MOL0     H11330   4.168   9.615   1.524  1.5794  0.9276  0.9147
   84MOL0     H11331   4.106   9.555   1.371  0.1352 -0.4086  0.0259
   84MOL0     H11332   4.050   9.746   1.285 -1.1760 -5.4752  1.3401
   84MOL0     H11333   4.121   9.866   1.393  0.9473  0.2406  1.0768
   84MOL0     H11334   3.966   9.781   1.573  1.7671 -0.8354 -0.6128
   84MOL0     H11335   3.893   9.865   1.433  0.8595  0.5917  2.1978
   84MOL0     H11336   3.726   9.491   1.369  2.9709 -1.0665 -1.1123
   84MOL0     H11337   4.515   9.672   1.201  3.7718 -2.7247  0.4698
   84MOL0     H11338   4.716   9.820   1.007  0.8666 -1.3950 -0.9274
   84MOL0     H11339   4.844   9.727   1.086 -0.1950 -0.4966  1.6974
   84MOL0     H11340   4.677   9.659   1.066 -1.0809 -1.2293  4.8896
   85MOL0     O11341   2.887   3.678   7.608  0.0608  0.4345  0.0524
   85MOL0     C11342   2.882   3.668   7.479 -0.0547  0.3723 -0.4160
   85MOL0     O11343   2.981   3.665   7.394  0.4021  0.0101  0.3718
   85MOL0     C11344   3.113   3.663   7.426 -0.7211  0.0960 -0.3864
   85MOL0     C11345   3.169   3.585   7.521  0.3253  0.1707  1.3770
   85MOL0     C11346   3.307   3.595   7.557  0.3832 -0.0436  0.9036
   85MOL0     C11347   3.393   3.678   7.480  0.3464 -0.3320  0.3715
   85MOL0     O11348   3.524   3.663   7.507  0.3396 -0.1736 -0.6750
   85MOL0     C11349   3.602   3.774   7.474 -0.5501  0.7768 -0.1921
   85MOL0     C11350   3.736   3.775   7.546  0.2153 -0.3384 -0.8158
   85MOL0     C11351   3.819   3.888   7.496  0.6192  0.6688 -1.0694
   85MOL0     C11352   3.846   4.001   7.600 -0.3582  0.0134  1.3678
   85MOL0     C11353   3.915   4.131   7.553  0.0342  0.0831  0.1782
   85MOL0     C11354   3.952   4.229   7.675 -0.7687 -0.0294  0.0819
   85MOL0     C11355   3.996   4.373   7.637 -0.5555  0.1746 -0.0050
   85MOL0     C11356   4.146   4.360   7.605 -0.4363  0.1892 -1.0272
   85MOL0     N11357   4.211   4.484   7.559  0.9698  0.4326  1.3189
   85MOL0     C11358   4.234   4.588   7.642 -0.4603 -0.8060  0.5160
   85MOL0     C11359   4.314   4.670   7.566  0.1575  0.1641 -0.3913
   85MOL0     C11360   4.369   4.807   7.588 -0.5438  0.6344 -0.6418
   85MOL0     C11361   4.417   4.819   7.732  0.2690 -0.4371 -0.8938
   85MOL0     C11362   4.533   4.722   7.764  0.9407 -0.4134 -0.5054
   85MOL0     C11363   4.667   4.790   7.742 -0.0796  0.0150  0.8048
   85MOL0     O11364   4.770   4.689   7.717  0.1829 -0.2707  0.2629
   85MOL0     C11365   4.796   4.608   7.822 -0.8488  0.2236 -0.8621
   85MOL0     C11366   4.857   4.655   7.945 -0.0371  0.2732  0.1513
   85MOL0     C11367   4.909   4.561   8.036 -0.0446  0.1204 -0.7537
   85MOL0     C11368   4.888   4.424   8.023 -0.5673  0.7798  0.1534
   85MOL0     C11369   4.958   4.335   8.119  1.3129 -0.0410  0.6868
   85MOL0     O11370   5.019   4.389   8.226 -0.2809 -0.0255  0.7533
   85MOL0     C11371   5.118   4.328   8.294 -0.7055 -0.1309 -0.1236
   85MOL0     C11372   5.252   4.337   8.257  0.6124 -0.4987 -0.7440
   85MOL0     C11373   5.354   4.282   8.332  0.2870  0.1082  0.3556
   85MOL0     C11374   5.321   4.205   8.447  0.1690  0.0627  1.2382
   85MOL0     O11375   5.421   4.154   8.531  0.2403  0.2492  0.5785
   85MOL0     C11376   5.555   4.147   8.483 -0.3520 -0.0057 -0.7387
   85MOL0     C11377   5.655   4.079   8.578  0.8300  0.2133 -0.4269
   85MOL0     C11378   5.692   4.159   8.699  0.4567 -0.0778 -0.6322
   85MOL0     C11379   5.794   4.079   8.769 -0.4511 -0.1522 -0.7302
   85MOL0     C11380   5.833   4.137   8.911  0.0568  0.6991 -0.3292
   85MOL0     C11381   5.958   4.069   8.955  0.6550 -0.2472  0.1568
   85MOL0     C11382   5.976   4.086   9.108  0.3204  0.2073 -0.0580
   85MOL0     C11383   6.126   4.049   9.149 -0.5802 -0.2308  0.1287
   85MOL0    Cl11384   6.142   4.040   9.319 -0.0284 -0.4458 -0.4386
   85MOL0     C11385   5.191   4.200   8.482 -0.8355 -0.5454  0.5808
   85MOL0     C11386   5.088   4.255   8.412  0.4022 -0.3308  1.5236
   85MOL0     O11387   4.947   4.212   8.098 -0.3917  0.2626  1.0642
   85MOL0     C11388   4.823   4.383   7.903  0.4052 -0.1722  0.0123
   85MOL0     C11389   4.785   4.467   7.800  0.1425  0.6227 -0.7111
   85MOL0     N11390   4.340   4.605   7.444 -0.2299 -0.4999  0.1642
   85MOL0     N11391   4.277   4.494   7.444  0.7916  0.3350 -0.4864
   85MOL0     C11392   3.334   3.756   7.373  0.7794 -0.5614  0.0705
   85MOL0     C11393   3.193   3.751   7.350 -1.0260 -0.1512 -1.0750
   85MOL0     C11394   2.749   3.657   7.417  0.4938  0.4062  0.8526
   85MOL0     C11395   2.745   3.567   7.301 -0.5778 -0.8331 -0.6481
   85MOL0     C11396   2.630   3.553   7.225 -0.6074  0.2072 -0.6476
   85MOL0     C11397   2.518   3.625   7.258  0.2946  0.5427 -0.0751
   85MOL0     O11398   2.406   3.651   7.183  0.1498  0.1271 -0.9097
   85MOL0     C11399   2.344   3.533   7.126 -0.4960 -0.2093 -0.9574
   85MOL0     C11400   2.196   3.576   7.103 -1.0169  0.0016  0.2352
   85MOL0     C11401   2.098   3.471   7.039 -0.5709  0.6768  0.2090
   85MOL0     C11402   1.958   3.459   7.110 -0.0097 -0.0475 -0.4418
   85MOL0     C11403   1.863   3.563   7.067 -0.5634  0.0007  0.1933
   85MOL0     C11404   1.788   3.665   7.041 -1.0521  0.2445 -0.2040
   85MOL0     C11405   2.529   3.703   7.371  0.1868 -0.5315 -0.2641
   85MOL0     C11406   2.630   3.723   7.459  0.5365 -0.0592  0.0624
   85MOL0     C11407   2.624   3.820   7.580  0.3800  1.1689 -0.1828
   85MOL0     H11408   3.100   3.518   7.570  0.7994 -1.2169  0.2148
   85MOL0     H11409   3.341   3.521   7.629 -0.4153  0.2859  1.6374
   85MOL0     H11410   3.610   3.787   7.365  0.2673  0.1316 -0.2218
   85MOL0     H11411   3.555   3.865   7.512 -1.4297  0.7741 -1.2028
   85MOL0     H11412   3.782   3.679   7.519 -2.4526 -1.1618 -2.8746
   85MOL0     H11413   3.728   3.777   7.655 -1.6612  1.0103 -0.9230
   85MOL0     H11414   3.772   3.937   7.409 -2.2416  1.7813  0.9510
   85MOL0     H11415   3.914   3.838   7.478  1.6059  2.1945 -0.3219
   85MOL0     H11416   3.756   4.025   7.656 -0.2330 -1.0790  2.0665
   85MOL0     H11417   3.909   3.954   7.676 -0.9709  0.4290  2.1458
   85MOL0     H11418   4.003   4.122   7.490 -0.1088  0.8021 -0.1421
   85MOL0     H11419   3.844   4.182   7.488  2.0644 -1.2239 -3.3148
   85MOL0     H11420   3.872   4.233   7.750 -0.8289 -3.9367  0.4682
   85MOL0     H11421   4.025   4.186   7.744  0.7604  1.7748 -0.3584
   85MOL0     H11422   3.979   4.452   7.710  1.6672  0.0816  0.6564
   85MOL0     H11423   3.944   4.403   7.545  0.0630 -0.5718 -0.6117
   85MOL0     H11424   4.201   4.326   7.693 -0.0396  0.4516 -1.1704
   85MOL0     H11425   4.151   4.279   7.532 -2.6764 -0.4162 -0.5949
   85MOL0     H11426   4.183   4.620   7.732 -1.2475 -0.9046  0.1187
   85MOL0     H11427   4.453   4.821   7.519 -0.2494  1.5533 -0.1147
   85MOL0     H11428   4.299   4.885   7.557 -2.4771  0.0194  1.8437
   85MOL0     H11429   4.424   4.925   7.759  0.4439 -0.6989  0.1464
   85MOL0     H11430   4.337   4.790   7.800  0.7569  0.9098  0.3070
   85MOL0     H11431   4.527   4.629   7.708  0.4941 -1.0563  0.5791
   85MOL0     H11432   4.526   4.697   7.871  1.6514  0.4158 -0.2559
   85MOL0     H11433   4.698   4.843   7.832 -1.5263 -0.1731  1.4335
   85MOL0     H11434   4.651   4.865   7.663 -0.0790  1.0779  1.7831
   85MOL0     H11435   4.865   4.760   7.971 -1.9292 -0.3917  4.3950
   85MOL0     H11436   4.949   4.598   8.130 -0.9438  1.9235 -1.0401
   85MOL0     H11437   5.274   4.395   8.168  0.5786 -0.9868 -1.0748
   85MOL0     H11438   5.456   4.305   8.304  0.4535  1.1207  1.6618
   85MOL0     H11439   5.558   4.111   8.381  0.0703 -0.6017 -0.5184
   85MOL0     H11440   5.586   4.251   8.469 -3.3162  1.6588  3.0596
   85MOL0     H11441   5.602   3.990   8.614 -0.1761  0.2966 -1.6651
   85MOL0     H11442   5.735   4.037   8.517 -0.0007 -2.9869  0.4561
   85MOL0     H11443   5.725   4.263   8.686 -0.2654  0.3229  0.5741
   85MOL0     H11444   5.606   4.168   8.766  0.5091 -3.8154  0.1449
   85MOL0     H11445   5.885   4.059   8.711  1.1080 -1.3244  1.8876
   85MOL0     H11446   5.763   3.977   8.791  1.4107 -0.6778 -0.3602
   85MOL0     H11447   5.743   4.120   8.972 -0.4089  2.4365 -0.4766
   85MOL0     H11448   5.850   4.242   8.889  1.8121  1.0167  2.1895
   85MOL0     H11449   5.949   3.964   8.926  3.2526  0.1942 -2.7868
   85MOL0     H11450   6.046   4.111   8.905  0.4719 -0.3743 -0.2742
   85MOL0     H11451   5.900   4.016   9.144 -0.6253  1.8444  1.2498
   85MOL0     H11452   5.958   4.189   9.141  0.1004 -0.7828  3.2432
   85MOL0     H11453   6.134   3.946   9.112  3.4176  0.6446 -2.0409
   85MOL0     H11454   6.188   4.118   9.092 -2.2410  1.2428  0.0314
   85MOL0     H11455   5.173   4.159   8.580 -2.1291  1.4747  1.2537
   85MOL0     H11456   4.986   4.238   8.444 -0.0845 -1.6510 -0.5423
   85MOL0     H11457   4.820   4.277   7.878 -2.7472 -0.5185  1.3368
   85MOL0     H11458   4.741   4.440   7.704 -3.0877 -0.9290  1.0396
   85MOL0     H11459   3.389   3.819   7.304  0.5416  1.0168  1.2551
   85MOL0     H11460   3.140   3.803   7.270 -3.2916  0.9771  1.0442
   85MOL0     H11461   2.831   3.506   7.275  3.3813  2.0814  3.8547
   85MOL0     H11462   2.625   3.494   7.134  1.0192 -0.8960 -0.0641
   85MOL0     H11463   2.354   3.451   7.198  1.4176 -0.2922 -1.2520
   85MOL0     H11464   2.379   3.489   7.033  0.4488 -0.9642 -0.2701
   85MOL0     H11465   2.199   3.658   7.031  0.2252  2.0713  2.4726
   85MOL0     H11466   2.153   3.617   7.195 -0.6743 -0.3499  0.5580
   85MOL0     H11467   2.160   3.381   7.032  2.0383  2.4925 -2.5899
   85MOL0     H11468   2.083   3.504   6.936 -0.0710  0.2765  0.0004
   85MOL0     H11469   1.923   3.356   7.098  1.8830 -0.7574 -0.2035
   85MOL0     H11470   1.970   3.468   7.218  0.1697 -0.1628 -0.4507
   85MOL0     H11471   1.713   3.734   7.008 -3.9873 -3.3674 -1.7677
   85MOL0     H11472   2.448   3.773   7.391  0.4189 -1.0350  2.9658
   85MOL0     H11473   2.712   3.885   7.583 -0.3020  2.3030 -2.2615
   85MOL0     H11474   2.539   3.888   7.583 -0.7117 -0.1705  0.0182
   85MOL0     H11475   2.622   3.758   7.670  1.5466  2.0362  0.4683
   86MOL0     O11476   3.826   5.691  10.316 -0.4104 -0.0919 -0.0083
   86MOL0     C11477   3.882   5.786  10.269  0.6273  0.3914 -0.4924
   86MOL0     O11478   3.926   5.791  10.145 -0.0869  0.5513  0.4505
   86MOL0     C11479   3.911   5.684  10.059  0.9203 -0.2936  0.1972
   86MOL0     C11480   3.797   5.690   9.971 -0.9679 -0.3070  1.2414
   86MOL0     C11481   3.789   5.580   9.880 -0.0162 -0.1172 -0.9341
   86MOL0     C11482   3.895   5.486   9.864 -0.6425  0.0898 -0.2460
   86MOL0     O11483   3.900   5.386   9.776  0.1321 -1.4989 -0.1219
   86MOL0     C11484   3.839   5.424   9.654  0.5190  0.5474 -0.1502
   86MOL0     C11485   3.907   5.348   9.541  0.5951  1.0799  0.5346
   86MOL0     C11486   3.818   5.228   9.485 -0.7799 -0.5379 -0.5952
   86MOL0     C11487   3.834   5.091   9.564  0.0206  0.2666  0.2865
   86MOL0     C11488   3.707   5.005   9.554 -0.7544  0.4370  0.4152
   86MOL0     C11489   3.754   4.863   9.598  0.1834  0.4400  0.2424
   86MOL0     C11490   3.661   4.755   9.548 -0.9598  0.5508  0.3609
   86MOL0     C11491   3.681   4.622   9.616  0.2576  0.0586 -0.9647
   86MOL0     N11492   3.614   4.527   9.529 -0.5733  0.2907  1.0744
   86MOL0     C11493   3.674   4.460   9.426 -0.5476  0.0149 -0.9635
   86MOL0     C11494   3.596   4.356   9.395  0.6009  0.0679 -0.6086
   86MOL0     C11495   3.614   4.242   9.300  0.8749 -0.3226  1.0013
   86MOL0     C11496   3.698   4.126   9.345 -0.5768  0.5069 -0.1331
   86MOL0     C11497   3.617   4.039   9.446 -0.5247 -0.1178 -0.2239
   86MOL0     C11498   3.708   3.942   9.518  0.1176  1.0717  0.2378
   86MOL0     O11499   3.764   3.848   9.426  0.9943 -0.5602 -0.3601
   86MOL0     C11500   3.893   3.861   9.370 -0.0450  1.2580 -0.7003
   86MOL0     C11501   3.916   3.764   9.280 -0.8374  0.6687  0.1956
   86MOL0     C11502   4.033   3.756   9.203  0.1303 -0.4432 -0.5897
   86MOL0     C11503   4.133   3.849   9.223 -0.2799  0.1515 -0.7226
   86MOL0     C11504   4.258   3.834   9.139  0.7985  0.5306  0.1142
   86MOL0     O11505   4.296   3.709   9.118  0.2182 -0.4294  0.4459
   86MOL0     C11506   4.417   3.661   9.080  0.0783 -0.1659  0.4395
   86MOL0     C11507   4.418   3.522   9.060 -0.9677  0.0432 -0.1292
   86MOL0     C11508   4.541   3.456   9.041  0.3216 -0.2064  0.4501
   86MOL0     C11509   4.661   3.522   9.018 -0.3469  0.4586 -0.1171
   86MOL0     O11510   4.771   3.442   9.012 -0.0686 -0.1493  0.2194
   86MOL0     C11511   4.898   3.495   8.960  0.6596  1.1946 -1.4097
   86MOL0     C11512   4.993   3.539   9.073 -0.2061 -1.2607 -0.6049
   86MOL0     C11513   5.135   3.574   9.024  0.6512 -0.0417  1.1120
   86MOL0     C11514   5.219   3.456   8.979 -0.5444 -0.2794  0.1182
   86MOL0     C11515   5.358   3.498   8.958 -0.6781 -0.3694  0.2497
   86MOL0     C11516   5.445   3.375   8.930 -1.3373 -0.5937  0.1596
   86MOL0     C11517   5.509   3.302   9.057  0.3871  0.6776 -0.5797
   86MOL0     C11518   5.588   3.171   9.015 -0.0921 -0.9898 -0.5499
   86MOL0    Cl11519   5.631   3.062   9.159 -0.2248 -0.1661 -0.1838
   86MOL0     C11520   4.655   3.665   9.019 -0.0340 -0.2450  0.4030
   86MOL0     C11521   4.531   3.733   9.037  0.0241 -0.3142 -0.4961
   86MOL0     O11522   4.324   3.931   9.095  0.1920 -0.1812 -0.2710
   86MOL0     C11523   4.117   3.954   9.314  0.7395 -0.5084 -0.4887
   86MOL0     C11524   3.994   3.960   9.383  1.0914  0.2524  0.5723
   86MOL0     N11525   3.491   4.361   9.484  0.3797 -0.4076  1.1750
   86MOL0     N11526   3.504   4.453   9.573  0.1679 -0.3480 -0.5992
   86MOL0     C11527   4.009   5.494   9.948 -0.0091 -0.9280 -0.8589
   86MOL0     C11528   4.015   5.598  10.042  0.1744 -0.1919  0.4093
   86MOL0     C11529   3.919   5.899  10.360 -0.4662 -0.8016  0.7241
   86MOL0     C11530   3.967   6.026  10.303  0.9083 -0.1692  0.4250
   86MOL0     C11531   4.019   6.131  10.381 -0.0491 -0.7308  0.2254
   86MOL0     C11532   4.007   6.125  10.522  0.1850  0.3667  0.0794
   86MOL0     O11533   4.023   6.234  10.605  0.2605 -0.0279  0.0529
   86MOL0     C11534   4.096   6.347  10.551  0.1358 -0.5767  0.0337
   86MOL0     C11535   4.109   6.451  10.656  0.0860 -0.5007 -0.3888
   86MOL0     C11536   3.969   6.496  10.699 -0.2198  0.3312  0.0735
   86MOL0     C11537   3.958   6.566  10.842 -0.0087 -0.3157  0.1665
   86MOL0     C11538   3.848   6.660  10.846 -0.2190 -0.1402  1.1987
   86MOL0     C11539   3.750   6.731  10.852  0.3365  0.4976  0.0170
   86MOL0     C11540   3.958   6.008  10.586 -0.1799  0.2430  0.1224
   86MOL0     C11541   3.921   5.899  10.506 -0.7833  0.1145 -0.2575
   86MOL0     C11542   3.889   5.763  10.577 -0.9727 -0.4349  0.9169
   86MOL0     H11543   3.713   5.758   9.979 -1.1176 -0.6075  2.5691
   86MOL0     H11544   3.695   5.573   9.826 -1.6037  1.5133  1.4237
   86MOL0     H11545   3.736   5.388   9.661  0.8595 -0.9403 -2.1022
   86MOL0     H11546   3.834   5.532   9.636  0.7485  0.3158 -1.7013
   86MOL0     H11547   4.005   5.307   9.567  0.7376 -1.0862 -2.7457
   86MOL0     H11548   3.929   5.413   9.456  0.9129  0.0315 -0.2191
   86MOL0     H11549   3.829   5.222   9.376 -1.0627 -0.1775 -0.6449
   86MOL0     H11550   3.715   5.263   9.495  0.1892  2.3339  0.1274
   86MOL0     H11551   3.925   5.040   9.532 -1.0522 -0.7028 -1.3971
   86MOL0     H11552   3.843   5.124   9.668  1.1885  2.5811 -0.4701
   86MOL0     H11553   3.628   5.047   9.617 -1.8250 -1.3718  0.3234
   86MOL0     H11554   3.662   5.002   9.454  2.0079  0.6928 -0.9304
   86MOL0     H11555   3.851   4.837   9.556 -1.3174 -1.5018 -2.3074
   86MOL0     H11556   3.758   4.856   9.707 -4.2686 -1.1027  0.5060
   86MOL0     H11557   3.689   4.741   9.443 -1.5283 -0.9356  0.3708
   86MOL0     H11558   3.554   4.777   9.542 -1.3777 -1.6419 -2.0475
   86MOL0     H11559   3.785   4.590   9.626 -0.3002 -0.9642  4.8174
   86MOL0     H11560   3.644   4.630   9.718  0.0750 -0.3635 -0.9960
   86MOL0     H11561   3.775   4.482   9.395 -0.6736  5.3559  1.1995
   86MOL0     H11562   3.513   4.209   9.271  1.4973 -1.0585 -0.4431
   86MOL0     H11563   3.657   4.283   9.208 -1.8844  0.4769 -0.0453
   86MOL0     H11564   3.741   4.071   9.261 -1.2433  0.4636 -0.4559
   86MOL0     H11565   3.792   4.164   9.386  0.2329  1.3181 -2.5719
   86MOL0     H11566   3.539   3.978   9.399 -0.4840 -0.9922  0.7849
   86MOL0     H11567   3.569   4.096   9.526 -0.6944 -0.8146  0.1798
   86MOL0     H11568   3.664   3.889   9.602  0.5970  1.6663  0.8855
   86MOL0     H11569   3.792   3.996   9.563  0.1192  1.2375  0.0396
   86MOL0     H11570   3.842   3.687   9.260 -0.3063  0.6336 -1.8448
   86MOL0     H11571   4.027   3.681   9.125 -0.0017 -0.1316 -0.8835
   86MOL0     H11572   4.325   3.470   9.079  1.0295 -2.8756  2.7973
   86MOL0     H11573   4.554   3.348   9.041  0.7021 -0.1888 -1.2018
   86MOL0     H11574   4.959   3.422   8.906  0.1612 -1.1423  0.9526
   86MOL0     H11575   4.883   3.576   8.889 -2.2557  1.5965 -0.4876
   86MOL0     H11576   4.955   3.629   9.122  1.4438 -0.3883 -0.8529
   86MOL0     H11577   5.000   3.466   9.153  1.0344  0.8212  1.3016
   86MOL0     H11578   5.130   3.651   8.946 -1.7277 -0.4715  0.7662
   86MOL0     H11579   5.189   3.623   9.105  1.5878 -0.5965  0.8335
   86MOL0     H11580   5.179   3.410   8.888  1.6506  0.7140 -1.4415
   86MOL0     H11581   5.224   3.384   9.061 -0.8726  0.8317  1.1208
   86MOL0     H11582   5.405   3.548   9.044  2.7655 -0.4386 -1.4268
   86MOL0     H11583   5.368   3.559   8.868  1.0622 -2.8299 -1.3438
   86MOL0     H11584   5.401   3.307   8.856  2.6470 -0.7547 -2.3151
   86MOL0     H11585   5.531   3.419   8.880 -0.7174  3.0279  3.8335
   86MOL0     H11586   5.419   3.282   9.116  0.5534  0.8719 -0.2566
   86MOL0     H11587   5.570   3.378   9.108 -0.5874  1.0728  0.0253
   86MOL0     H11588   5.533   3.111   8.942  0.3273 -0.3737 -1.3897
   86MOL0     H11589   5.680   3.200   8.964 -1.6933  1.9322 -2.0597
   86MOL0     H11590   4.745   3.719   8.989 -1.7186  0.7892 -3.4122
   86MOL0     H11591   4.530   3.842   9.028 -1.7912 -0.3360 -1.0907
   86MOL0     H11592   4.202   4.017   9.336 -0.3708  0.1440  2.3222
   86MOL0     H11593   3.968   4.035   9.457  0.8824 -0.7173  1.5104
   86MOL0     H11594   4.093   5.425   9.943 -1.5758 -2.9634 -0.7273
   86MOL0     H11595   4.106   5.617  10.097 -0.7811  4.3697  0.7756
   86MOL0     H11596   3.960   6.026  10.195 -2.2362 -1.4409  0.5309
   86MOL0     H11597   4.053   6.215  10.322  0.3374 -1.7269 -1.0130
   86MOL0     H11598   4.046   6.396  10.467  2.7131 -0.1515 -1.3698
   86MOL0     H11599   4.192   6.325  10.504  0.7964  0.9400  0.5994
   86MOL0     H11600   4.158   6.537  10.610  2.4892 -2.2883 -1.4484
   86MOL0     H11601   4.177   6.413  10.734  1.1153  0.7355 -0.6510
   86MOL0     H11602   3.894   6.418  10.688  0.5340 -0.4867  0.5584
   86MOL0     H11603   3.933   6.572  10.630 -2.0945 -0.9844 -0.4620
   86MOL0     H11604   3.950   6.492  10.922 -1.5472 -0.3474  0.0211
   86MOL0     H11605   4.047   6.626  10.864  2.2174 -0.6108 -6.0397
   86MOL0     H11606   3.657   6.783  10.859 -0.8265 -0.8624 -3.3809
   86MOL0     H11607   3.942   5.999  10.693  0.1023  3.1337  0.4973
   86MOL0     H11608   3.911   5.769  10.684 -0.8756 -0.9000  0.9239
   86MOL0     H11609   3.787   5.731  10.554 -0.7734 -0.7701  0.4892
   86MOL0     H11610   3.962   5.688  10.545  0.8446  0.0882  3.5702
   87MOL0     O11611   5.370   7.849  10.074  0.1585  1.2924 -0.4528
   87MOL0     C11612   5.459   7.771  10.106  0.8071 -0.0218 -0.1736
   87MOL0     O11613   5.571   7.748  10.038 -0.5646  0.1376  0.3473
   87MOL0     C11614   5.586   7.794   9.909 -0.6478  0.5199 -0.0349
   87MOL0     C11615   5.632   7.702   9.820  0.0942  0.3769 -0.1340
   87MOL0     C11616   5.657   7.735   9.686  0.5076 -0.1274 -0.7666
   87MOL0     C11617   5.647   7.864   9.637  0.0572 -0.0959 -0.4101
   87MOL0     O11618   5.667   7.898   9.504  0.1397  0.2507 -0.1310
   87MOL0     C11619   5.674   7.793   9.405  0.0289 -0.6699 -0.3614
   87MOL0     C11620   5.681   7.856   9.267 -0.4852 -0.0599 -0.2127
   87MOL0     C11621   5.596   7.985   9.239  0.4656  0.2298 -0.3437
   87MOL0     C11622   5.546   7.988   9.093  1.0985  1.1983  0.0116
   87MOL0     C11623   5.444   8.094   9.051 -0.0296  0.4944 -0.7225
   87MOL0     C11624   5.371   8.049   8.919 -0.7180  0.2528  0.1853
   87MOL0     C11625   5.268   7.934   8.941  0.8146  0.2563  0.4157
   87MOL0     C11626   5.154   7.960   9.038  0.9323 -0.5782 -0.2123
   87MOL0     N11627   5.177   7.884   9.149  0.1231  1.1674  0.2159
   87MOL0     C11628   5.195   7.918   9.279 -0.4871 -0.7752  0.1012
   87MOL0     C11629   5.229   7.809   9.349  0.8427 -0.7934 -0.6777
   87MOL0     C11630   5.267   7.806   9.493  0.4432 -0.4803  0.8005
   87MOL0     C11631   5.144   7.794   9.579 -0.1205  0.1746 -0.1702
   87MOL0     C11632   5.192   7.749   9.717  0.5947 -0.2411  0.0842
   87MOL0     C11633   5.080   7.702   9.807  1.0676 -0.2749 -0.2976
   87MOL0     O11634   5.009   7.601   9.733  0.5871  0.6046 -0.0892
   87MOL0     C11635   4.878   7.571   9.744  0.7032  0.7473 -0.3300
   87MOL0     C11636   4.821   7.477   9.647  0.2672  0.0425 -0.7848
   87MOL0     C11637   4.683   7.465   9.634 -0.1204  0.4261  0.2768
   87MOL0     C11638   4.594   7.534   9.710  0.5688 -0.0075 -0.6693
   87MOL0     C11639   4.446   7.526   9.683  1.7725  0.8493 -0.0200
   87MOL0     O11640   4.390   7.411   9.619  0.5973 -0.1192 -0.3301
   87MOL0     C11641   4.263   7.402   9.626  0.1462 -0.1600  1.2456
   87MOL0     C11642   4.179   7.458   9.523 -0.1938 -0.2289 -0.9834
   87MOL0     C11643   4.045   7.438   9.533  0.1651 -0.1275  0.0129
   87MOL0     C11644   3.981   7.348   9.623 -0.5590  0.5255  0.1878
   87MOL0     O11645   3.846   7.321   9.621 -0.1382 -0.3423 -0.6642
   87MOL0     C11646   3.747   7.398   9.556 -0.4709  0.7821  0.2993
   87MOL0     C11647   3.605   7.345   9.560 -0.5779 -0.6659  0.0001
   87MOL0     C11648   3.523   7.376   9.691 -0.1496  0.0443 -0.1808
   87MOL0     C11649   3.380   7.310   9.693  0.0980 -0.2978  0.2511
   87MOL0     C11650   3.310   7.314   9.827 -0.2588  0.3514  0.4256
   87MOL0     C11651   3.378   7.220   9.933 -0.1893  0.8280  0.5986
   87MOL0     C11652   3.317   7.223  10.068 -1.4598 -0.6031  0.0633
   87MOL0     C11653   3.201   7.128  10.097  0.1951  0.2031 -0.4876
   87MOL0    Cl11654   3.124   7.177  10.242  0.2461  0.2621  0.1132
   87MOL0     C11655   4.063   7.273   9.710  0.9027 -0.2167  0.1216
   87MOL0     C11656   4.203   7.307   9.709  0.6627  0.5975 -0.0488
   87MOL0     O11657   4.381   7.613   9.735  0.4082  0.3362  0.0925
   87MOL0     C11658   4.650   7.616   9.808 -0.6218  0.2222 -0.2578
   87MOL0     C11659   4.791   7.636   9.833  0.3413 -0.0672 -1.1086
   87MOL0     N11660   5.207   7.700   9.263 -0.0661 -0.4124  0.0416
   87MOL0     N11661   5.173   7.748   9.153  1.0263  0.2446 -0.1081
   87MOL0     C11662   5.604   7.960   9.734 -0.4556  0.8416  0.7965
   87MOL0     C11663   5.573   7.928   9.866  0.4666  0.2444  0.4666
   87MOL0     C11664   5.435   7.697  10.230 -0.6115  0.3599 -0.5005
   87MOL0     C11665   5.365   7.769  10.328 -0.1666 -0.0388 -0.0655
   87MOL0     C11666   5.325   7.719  10.455  0.3045  0.5071 -0.5431
   87MOL0     C11667   5.373   7.596  10.488 -0.4380  0.2300 -0.9783
   87MOL0     O11668   5.352   7.541  10.611 -0.4481 -0.2127  0.6322
   87MOL0     C11669   5.471   7.511  10.691 -0.0380  0.0431  0.0339
   87MOL0     C11670   5.453   7.391  10.787  0.7324  0.1118 -0.0451
   87MOL0     C11671   5.420   7.258  10.700  0.5377  0.3362  0.3219
   87MOL0     C11672   5.382   7.133  10.776 -0.0365 -0.1171 -0.5921
   87MOL0     C11673   5.374   7.015  10.684  0.0096 -0.2415 -1.1245
   87MOL0     C11674   5.371   6.931  10.601 -0.5964 -0.0714 -0.3117
   87MOL0     C11675   5.449   7.523  10.396 -0.4690  0.5021 -0.2985
   87MOL0     C11676   5.478   7.579  10.272 -0.5126  0.4496  0.8734
   87MOL0     C11677   5.549   7.492  10.172 -0.6513 -0.3217  1.1372
   87MOL0     H11678   5.656   7.600   9.846  2.2358  1.2229  1.4737
   87MOL0     H11679   5.687   7.652   9.623 -0.4160 -1.3103  0.2978
   87MOL0     H11680   5.757   7.730   9.442 -1.4326 -0.9965  2.7234
   87MOL0     H11681   5.587   7.727   9.397  0.9726 -1.9643 -0.3660
   87MOL0     H11682   5.666   7.775   9.195  1.0205  0.2400 -0.9047
   87MOL0     H11683   5.786   7.880   9.252 -0.2115  0.9352  2.6467
   87MOL0     H11684   5.659   8.074   9.245  0.4234  0.2425 -0.0811
   87MOL0     H11685   5.512   7.987   9.309  1.2131  0.5922  0.5638
   87MOL0     H11686   5.629   7.990   9.022 -0.0252 -1.9561 -1.6103
   87MOL0     H11687   5.492   7.892   9.084 -0.4668  2.1490 -1.3852
   87MOL0     H11688   5.363   8.114   9.123 -1.2647  1.0469 -2.2153
   87MOL0     H11689   5.494   8.190   9.040 -0.6993  0.9409 -0.0042
   87MOL0     H11690   5.319   8.137   8.881  0.7661  1.0788 -0.0053
   87MOL0     H11691   5.451   8.030   8.847 -1.5248  3.0922 -1.6050
   87MOL0     H11692   5.316   7.838   8.965 -0.3191 -0.0149  1.6987
   87MOL0     H11693   5.217   7.910   8.847  0.5373 -0.1093  0.6597
   87MOL0     H11694   5.147   8.067   9.058  2.6444 -0.4271 -0.2313
   87MOL0     H11695   5.057   7.932   8.997 -1.0386  2.5480  1.8553
   87MOL0     H11696   5.199   8.018   9.321  0.3257 -0.5531 -0.4639
   87MOL0     H11697   5.332   7.718   9.503  1.2540  0.0926  0.6465
   87MOL0     H11698   5.329   7.891   9.524 -1.4044  2.1501 -2.1249
   87MOL0     H11699   5.098   7.892   9.590  0.9467  0.9445 -1.9633
   87MOL0     H11700   5.071   7.727   9.531  0.4796 -0.6995  0.1051
   87MOL0     H11701   5.249   7.830   9.764  1.3553 -0.4262 -0.4959
   87MOL0     H11702   5.255   7.661   9.707 -1.1337 -1.3949 -1.0590
   87MOL0     H11703   5.024   7.792   9.835  1.3679 -0.2434  0.2142
   87MOL0     H11704   5.130   7.664   9.896  3.0420 -0.8048 -1.5623
   87MOL0     H11705   4.892   7.418   9.590  1.8667  0.0047  1.1362
   87MOL0     H11706   4.651   7.391   9.561  0.1026  1.5225 -0.9688
   87MOL0     H11707   4.220   7.528   9.451  0.5466 -1.6911 -2.0266
   87MOL0     H11708   3.969   7.486   9.471 -1.6632 -0.6317  1.7546
   87MOL0     H11709   3.752   7.501   9.590  3.1448 -0.2403  3.5432
   87MOL0     H11710   3.777   7.403   9.450 -2.5464 -0.0568 -0.3747
   87MOL0     H11711   3.552   7.382   9.472 -0.3488  0.0689  0.1641
   87MOL0     H11712   3.606   7.236   9.555 -3.8339 -0.8230  0.5424
   87MOL0     H11713   3.590   7.370   9.778  1.5331  5.5899 -0.7159
   87MOL0     H11714   3.494   7.482   9.690 -2.3318 -0.4971 -1.7879
   87MOL0     H11715   3.394   7.202   9.682  1.1038 -0.3946  2.0689
   87MOL0     H11716   3.317   7.349   9.613  1.9685 -1.1765 -1.7560
   87MOL0     H11717   3.210   7.269   9.828  0.2003 -0.7207  0.0865
   87MOL0     H11718   3.315   7.415   9.868  1.8608 -0.8746  3.6660
   87MOL0     H11719   3.377   7.115   9.901 -2.5419 -0.0872  3.2906
   87MOL0     H11720   3.483   7.247   9.945 -0.1794  1.2635 -0.3434
   87MOL0     H11721   3.275   7.323  10.079 -0.3894 -0.4031  3.3430
   87MOL0     H11722   3.400   7.212  10.138 -1.4950  0.0359  0.2040
   87MOL0     H11723   3.134   7.128  10.011  0.6035 -1.7476 -0.8422
   87MOL0     H11724   3.240   7.028  10.116 -1.3817 -0.3051  0.1747
   87MOL0     H11725   4.020   7.196   9.774 -1.8500  0.8276 -0.3364
   87MOL0     H11726   4.256   7.237   9.772 -0.6947 -0.3122  0.1141
   87MOL0     H11727   4.579   7.652   9.881 -2.5410 -3.8618  0.1551
   87MOL0     H11728   4.817   7.698   9.918 -0.8655  0.6846 -1.2490
   87MOL0     H11729   5.599   8.062   9.697  0.5546  0.7232  0.2997
   87MOL0     H11730   5.536   7.996   9.943 -2.7313  1.7810 -2.1859
   87MOL0     H11731   5.326   7.869  10.310 -0.5819  0.0813  1.3760
   87MOL0     H11732   5.258   7.774  10.520 -1.2451 -1.1041 -0.7009
   87MOL0     H11733   5.484   7.601  10.752  1.0363  0.8341 -1.2859
   87MOL0     H11734   5.568   7.491  10.645  0.8004  0.9711  1.3136
   87MOL0     H11735   5.374   7.417  10.858 -0.7787 -2.5497 -0.6126
   87MOL0     H11736   5.550   7.379  10.835  0.1843  1.0013  1.3443
   87MOL0     H11737   5.506   7.228  10.640  0.6818  2.0929 -0.4114
   87MOL0     H11738   5.339   7.276  10.629 -0.6478 -0.7767  1.3385
   87MOL0     H11739   5.464   7.118  10.847  0.1954 -0.7150 -0.9714
   87MOL0     H11740   5.288   7.141  10.831  0.1790  0.2359 -0.2734
   87MOL0     H11741   5.359   6.855  10.526  1.0168  0.6475 -1.3572
   87MOL0     H11742   5.481   7.421  10.415  1.6997  0.7513 -2.2286
   87MOL0     H11743   5.525   7.508  10.067 -1.8311  0.2847  1.4777
   87MOL0     H11744   5.655   7.515  10.184 -0.3706 -0.4784 -0.7764
   87MOL0     H11745   5.527   7.388  10.200  1.0300 -0.9610  0.2353
   88MOL0     O11746   6.618  10.209   7.040  0.5296  0.3022 -0.9562
   88MOL0     C11747   6.717  10.233   7.111 -0.1436 -0.0964  0.2181
   88MOL0     O11748   6.715  10.237   7.245 -0.8339 -0.0375 -0.8642
   88MOL0     C11749   6.601  10.232   7.325  0.2991 -0.0964 -0.3706
   88MOL0     C11750   6.606  10.195   7.461 -0.2908 -0.5597  0.4671
   88MOL0     C11751   6.500  10.180   7.546  0.2898  0.4893  0.3688
   88MOL0     C11752   6.376  10.209   7.503  1.2268  0.0943 -0.1735
   88MOL0     O11753   6.284  10.194   7.594  0.6671  0.6936 -1.0433
   88MOL0     C11754   6.145  10.209   7.555  0.2898 -0.0034 -0.8281
   88MOL0     C11755   6.062  10.171   7.683 -0.7527 -0.2488 -0.4552
   88MOL0     C11756   6.062  10.279   7.790  0.0384 -1.3080 -0.1562
   88MOL0     C11757   5.959  10.398   7.784  0.8797 -0.3400 -0.9252
   88MOL0     C11758   5.853  10.383   7.899 -0.2328  0.1993  0.0256
   88MOL0     C11759   5.727  10.485   7.900 -0.2263 -0.7313 -0.0079
   88MOL0     C11760   5.770  10.628   7.919  0.1141 -0.6415 -0.2786
   88MOL0     C11761   5.666  10.736   7.906 -1.0958  0.2591 -0.1869
   88MOL0     N11762   5.634  10.770   7.762 -0.2049  0.7064 -0.9465
   88MOL0     C11763   5.718  10.810   7.658  0.2215  0.1372 -0.2894
   88MOL0     C11764   5.635  10.830   7.550  0.4170  0.3618  0.5626
   88MOL0     C11765   5.676  10.884   7.409  0.5421 -0.7810 -0.5904
   88MOL0     C11766   5.653  11.036   7.385  0.2729  0.5465  0.0895
   88MOL0     C11767   5.749  11.097   7.281 -0.4132 -0.9858 -0.1168
   88MOL0     C11768   5.902  11.088   7.318  0.3024  0.2385  0.1620
   88MOL0     O11769   5.995  11.171   7.249  0.2604 -0.0138 -0.3905
   88MOL0     C11770   6.132  11.153   7.283 -0.2092 -1.0479  0.1990
   88MOL0     C11771   6.214  11.227   7.205  0.4773 -0.3427  1.0527
   88MOL0     C11772   6.349  11.238   7.236 -0.5387  0.6501 -0.4805
   88MOL0     C11773   6.407  11.159   7.337  0.8746  0.3717  1.0149
   88MOL0     C11774   6.556  11.166   7.363  0.1117  0.0656  0.7411
   88MOL0     O11775   6.638  11.226   7.275  0.0534 -0.0865 -0.1830
   88MOL0     C11776   6.774  11.224   7.297  1.0972 -0.9568  0.3083
   88MOL0     C11777   6.846  11.204   7.185 -0.2261  1.1388 -0.0882
   88MOL0     C11778   6.980  11.205   7.199 -0.1371 -0.2268  0.0008
   88MOL0     C11779   7.051  11.215   7.312 -0.9519  0.9187 -0.6312
   88MOL0     O11780   7.191  11.227   7.324 -1.0515 -0.2199 -0.3429
   88MOL0     C11781   7.286  11.194   7.221 -0.0336 -0.1332 -0.5749
   88MOL0     C11782   7.430  11.207   7.275 -0.5554  0.8561  0.5574
   88MOL0     C11783   7.460  11.343   7.319 -0.9510  0.1535  0.1131
   88MOL0     C11784   7.616  11.375   7.324 -0.1106 -0.5187  0.6767
   88MOL0     C11785   7.701  11.327   7.441  0.3737 -0.0205  0.7922
   88MOL0     C11786   7.689  11.427   7.560 -0.1541  0.5033 -0.0288
   88MOL0     C11787   7.756  11.361   7.679 -0.1253 -0.4497  0.2863
   88MOL0     C11788   7.717  11.446   7.811  0.2698 -0.4091  0.1369
   88MOL0    Cl11789   7.538  11.463   7.832 -0.8315  0.5179  0.2985
   88MOL0     C11790   6.976  11.233   7.435  0.7756  0.2673  0.5899
   88MOL0     C11791   6.837  11.245   7.426 -0.7824  0.1384  0.4650
   88MOL0     O11792   6.590  11.096   7.460 -0.7498 -0.1513  0.3883
   88MOL0     C11793   6.324  11.078   7.413 -0.0459  0.7209  1.3130
   88MOL0     C11794   6.186  11.077   7.387  0.2423 -0.1393 -0.2171
   88MOL0     N11795   5.505  10.815   7.593  0.5901  0.0039  0.5057
   88MOL0     N11796   5.505  10.776   7.715  0.1171 -1.2200  0.5508
   88MOL0     C11797   6.358  10.258   7.369  0.0504  0.7491  0.4355
   88MOL0     C11798   6.466  10.275   7.280  0.2868 -0.0415  0.0351
   88MOL0     C11799   6.847  10.270   7.031 -0.7500  0.7501  0.0830
   88MOL0     C11800   6.966  10.240   7.104 -0.2310  0.9999  0.9270
   88MOL0     C11801   7.092  10.265   7.044  0.0277  0.0850 -1.5354
   88MOL0     C11802   7.111  10.321   6.917 -1.5382 -0.4410  0.0730
   88MOL0     O11803   7.227  10.338   6.842  0.7441  0.2090 -0.2044
   88MOL0     C11804   7.352  10.329   6.907 -0.3866  0.1338  0.5019
   88MOL0     C11805   7.455  10.392   6.814 -0.6742 -0.0136  0.3019
   88MOL0     C11806   7.586  10.312   6.788 -0.3432  0.1405 -0.5645
   88MOL0     C11807   7.699  10.335   6.888 -0.1482  1.0183  0.2008
   88MOL0     C11808   7.832  10.281   6.867  0.0648  0.0024 -0.4335
   88MOL0     C11809   7.943  10.233   6.879 -0.4713 -0.1913  0.0582
   88MOL0     C11810   6.992  10.357   6.853 -0.2551  0.0670 -0.0334
   88MOL0     C11811   6.859  10.338   6.909  0.9004  0.6032  0.3698
   88MOL0     C11812   6.737  10.402   6.847  0.2350 -0.6941 -0.5304
   88MOL0     H11813   6.698  10.155   7.504 -1.0210 -1.5628  1.1409
   88MOL0     H11814   6.521  10.140   7.644  3.0295 -0.9371 -0.6818
   88MOL0     H11815   6.129  10.313   7.526 -6.1764  0.0434  1.2320
   88MOL0     H11816   6.104  10.146   7.475 -1.3856 -0.8383  0.6162
   88MOL0     H11817   6.108  10.084   7.729 -1.3023 -0.2654  0.0665
   88MOL0     H11818   5.958  10.140   7.669 -0.4490 -1.9694  0.8240
   88MOL0     H11819   6.163  10.322   7.787 -0.1972 -0.7975 -1.4716
   88MOL0     H11820   6.056  10.227   7.886  3.9146  0.9182  1.5299
   88MOL0     H11821   6.021  10.489   7.787  3.7339 -1.9314 -4.2233
   88MOL0     H11822   5.917  10.395   7.683 -1.8455  0.7645  0.0902
   88MOL0     H11823   5.819  10.280   7.892  1.0239 -0.2969  0.7185
   88MOL0     H11824   5.899  10.392   7.998  1.1619 -2.8670 -0.2184
   88MOL0     H11825   5.685  10.474   7.799  2.3923  2.0239 -1.5586
   88MOL0     H11826   5.655  10.445   7.973  1.0442  0.1756  1.8287
   88MOL0     H11827   5.853  10.654   7.852 -0.2221 -0.6909 -0.7174
   88MOL0     H11828   5.818  10.640   8.016  2.1215 -1.1176 -1.1545
   88MOL0     H11829   5.572  10.719   7.958 -1.8704  3.2526 -0.4353
   88MOL0     H11830   5.708  10.828   7.948  2.2456  0.3455 -3.1496
   88MOL0     H11831   5.827  10.812   7.660  0.2114  0.2093  0.3689
   88MOL0     H11832   5.780  10.864   7.383  0.0347 -0.3138 -3.3603
   88MOL0     H11833   5.623  10.820   7.338 -0.1969  0.9963 -1.7246
   88MOL0     H11834   5.551  11.052   7.349  0.3458 -0.5331 -0.6630
   88MOL0     H11835   5.658  11.083   7.483 -0.1010  1.6141 -0.3927
   88MOL0     H11836   5.729  11.202   7.259 -1.1825 -1.2483 -0.7318
   88MOL0     H11837   5.731  11.047   7.185 -1.6775  1.0535 -1.0034
   88MOL0     H11838   5.929  10.984   7.294 -0.7240  0.6133 -3.2488
   88MOL0     H11839   5.922  11.104   7.424  2.2917  2.2958 -0.4349
   88MOL0     H11840   6.183  11.291   7.123  2.4762  2.0756  2.0606
   88MOL0     H11841   6.418  11.302   7.181  3.6484 -1.5918  1.5947
   88MOL0     H11842   6.801  11.200   7.087  0.8128 -0.7262 -0.5387
   88MOL0     H11843   7.027  11.191   7.103 -1.0138  1.6452 -0.7471
   88MOL0     H11844   7.266  11.090   7.194 -0.1544  0.0708 -1.3104
   88MOL0     H11845   7.277  11.259   7.133  0.1328 -1.5471 -1.6892
   88MOL0     H11846   7.440  11.143   7.363 -1.1947 -0.5937 -0.3790
   88MOL0     H11847   7.504  11.168   7.205 -2.6409  0.5379 -1.5888
   88MOL0     H11848   7.414  11.413   7.248 -1.5354 -0.9722 -0.6488
   88MOL0     H11849   7.432  11.348   7.424  0.7090 -1.1088  0.6664
   88MOL0     H11850   7.630  11.483   7.322  0.6135 -0.5774 -2.2874
   88MOL0     H11851   7.652  11.332   7.230  1.0763  0.4598  0.6589
   88MOL0     H11852   7.806  11.311   7.417  0.8366 -1.4501  3.3732
   88MOL0     H11853   7.656  11.230   7.465 -2.9086  1.1378 -0.0772
   88MOL0     H11854   7.737  11.524   7.541  2.2414 -0.5315  0.3568
   88MOL0     H11855   7.581  11.429   7.573 -0.1850 -2.5379  0.8305
   88MOL0     H11856   7.865  11.356   7.675 -0.0018  1.1780  0.6538
   88MOL0     H11857   7.716  11.261   7.694 -0.0143 -0.6655 -0.8501
   88MOL0     H11858   7.761  11.412   7.905  2.6366 -0.3749 -0.8877
   88MOL0     H11859   7.753  11.549   7.797 -1.1790  0.2326  0.9054
   88MOL0     H11860   7.025  11.243   7.532  0.0057  0.2754  0.9838
   88MOL0     H11861   6.776  11.265   7.513 -1.7227 -2.7317  0.5758
   88MOL0     H11862   6.359  11.001   7.480  0.8623 -0.0102  0.0359
   88MOL0     H11863   6.115  11.010   7.434 -0.5419 -1.5269 -3.1213
   88MOL0     H11864   6.257  10.273   7.329 -0.3226 -0.8067  0.7434
   88MOL0     H11865   6.455  10.322   7.183  0.7339  2.6080  1.1842
   88MOL0     H11866   6.961  10.192   7.201  0.9365 -2.1389 -0.4208
   88MOL0     H11867   7.174  10.242   7.110 -2.6894 -2.7063  1.2103
   88MOL0     H11868   7.375  10.227   6.941  1.6268 -0.7981 -3.1418
   88MOL0     H11869   7.336  10.396   6.991  3.0624  3.5378 -1.2360
   88MOL0     H11870   7.490  10.483   6.865  3.0582 -0.8544 -0.4695
   88MOL0     H11871   7.413  10.401   6.714 -0.4826 -0.3373  0.1931
   88MOL0     H11872   7.638  10.341   6.696  3.2920 -0.7488  1.0218
   88MOL0     H11873   7.572  10.203   6.786  0.8154 -0.0361  0.0053
   88MOL0     H11874   7.708  10.444   6.893  0.5576  1.0158 -0.8152
   88MOL0     H11875   7.663  10.286   6.979  0.1560 -2.1666 -1.2514
   88MOL0     H11876   8.038  10.183   6.885 -0.2476  0.2368  0.1232
   88MOL0     H11877   6.998  10.398   6.752  0.2014 -1.1196 -0.5030
   88MOL0     H11878   6.778  10.459   6.763 -1.0965 -2.1711 -2.2533
   88MOL0     H11879   6.672  10.323   6.809 -0.8975 -0.5131  0.9146
   88MOL0     H11880   6.676  10.460   6.917 -0.1067 -2.1499  0.4277
   89MOL0     O11881   2.581   3.142   0.622 -0.2656 -0.3050 -0.1620
   89MOL0     C11882   2.467   3.126   0.665 -1.0297 -0.8514 -0.4934
   89MOL0     O11883   2.413   3.193   0.773 -0.1245  0.0492  0.1060
   89MOL0     C11884   2.497   3.286   0.835  0.2152 -0.5839  0.5164
   89MOL0     C11885   2.535   3.415   0.786 -0.7773  0.4975 -0.4380
   89MOL0     C11886   2.624   3.496   0.850 -0.2365 -0.7535  0.0181
   89MOL0     C11887   2.680   3.463   0.971  1.4053  0.0148 -0.3189
   89MOL0     O11888   2.777   3.542   1.032  0.1430  0.2477  0.4622
   89MOL0     C11889   2.868   3.613   0.944 -0.2239  0.0044 -0.0812
   89MOL0     C11890   2.980   3.665   1.033  0.8957  0.5905 -0.4733
   89MOL0     C11891   3.085   3.737   0.947 -0.6346  0.0097  0.6839
   89MOL0     C11892   3.223   3.706   1.023 -0.2968 -0.3661  0.5054
   89MOL0     C11893   3.227   3.781   1.160 -0.0824  0.0903 -0.4200
   89MOL0     C11894   3.348   3.737   1.236 -0.5264 -0.3162 -0.0519
   89MOL0     C11895   3.390   3.813   1.359  0.4443  0.0524 -0.1437
   89MOL0     C11896   3.274   3.824   1.460  0.4570  0.6711  1.2299
   89MOL0     N11897   3.337   3.886   1.577 -0.2766 -0.4546 -0.6111
   89MOL0     C11898   3.389   3.821   1.689  0.9556  0.3629  1.7526
   89MOL0     C11899   3.437   3.920   1.761 -0.7259  0.8339  0.1691
   89MOL0     C11900   3.499   3.907   1.893 -0.2027  0.2114  0.2171
   89MOL0     C11901   3.382   3.853   1.985 -0.1855 -0.5106 -0.0365
   89MOL0     C11902   3.414   3.833   2.129  0.3746  0.2183  0.3107
   89MOL0     C11903   3.422   3.963   2.189 -0.5547 -1.1038 -0.4543
   89MOL0     O11904   3.460   3.966   2.324 -0.1955  0.3302 -0.7053
   89MOL0     C11905   3.362   3.963   2.424 -0.5695  0.4980  1.8685
   89MOL0     C11906   3.299   4.074   2.475 -0.8017  0.7648  0.3527
   89MOL0     C11907   3.199   4.068   2.575 -0.2842  0.8982  0.0151
   89MOL0     C11908   3.162   3.946   2.637  0.1088 -0.1354  0.8334
   89MOL0     C11909   3.054   3.950   2.736  0.0510 -0.4706 -0.0945
   89MOL0     O11910   3.016   3.827   2.777 -0.6210 -0.2021  0.7686
   89MOL0     C11911   2.907   3.820   2.851  0.2641 -0.8607  0.7716
   89MOL0     C11912   2.781   3.857   2.810 -0.1355  0.7019 -0.6255
   89MOL0     C11913   2.670   3.838   2.901 -1.2453 -0.8873  1.2024
   89MOL0     C11914   2.681   3.772   3.022  0.2309 -0.4839  1.0188
   89MOL0     O11915   2.566   3.737   3.085 -0.3770 -0.7341 -0.0606
   89MOL0     C11916   2.557   3.674   3.216 -0.3982  0.6918 -0.1602
   89MOL0     C11917   2.504   3.774   3.326  0.1100  0.0832 -0.5312
   89MOL0     C11918   2.595   3.893   3.332 -0.5781  0.7163  0.5796
   89MOL0     C11919   2.553   3.989   3.441 -0.1791  0.0109 -0.3796
   89MOL0     C11920   2.434   4.082   3.395  0.5544 -0.0375 -0.0451
   89MOL0     C11921   2.415   4.203   3.488 -1.5498 -0.1148 -0.5824
   89MOL0     C11922   2.412   4.180   3.648  0.7614 -0.5392  0.6020
   89MOL0     C11923   2.263   4.179   3.695 -0.2364  0.3811 -0.4867
   89MOL0    Cl11924   2.160   4.061   3.604 -0.2412 -0.3789  0.2263
   89MOL0     C11925   2.812   3.748   3.059 -0.7104 -0.2995  0.1286
   89MOL0     C11926   2.924   3.774   2.984  0.1400 -0.6731  0.0069
   89MOL0     O11927   2.992   4.057   2.754 -0.5787  0.7866 -0.3075
   89MOL0     C11928   3.227   3.829   2.587 -0.5541 -0.3325 -0.3026
   89MOL0     C11929   3.326   3.840   2.487  1.7118  0.4110  0.4846
   89MOL0     N11930   3.410   4.038   1.699  0.1237 -0.3784 -0.9421
   89MOL0     N11931   3.341   4.017   1.595 -0.8815 -0.6186  0.1172
   89MOL0     C11932   2.642   3.347   1.027  0.0001  0.0004 -1.0117
   89MOL0     C11933   2.560   3.252   0.958  0.1810  0.3529 -0.0536
   89MOL0     C11934   2.370   3.034   0.609 -0.2165 -0.4216 -0.5572
   89MOL0     C11935   2.245   3.009   0.678 -0.7626  0.0883 -0.5126
   89MOL0     C11936   2.154   2.908   0.647  0.1284  0.4889  0.2912
   89MOL0     C11937   2.180   2.841   0.527  0.2476  0.7951 -0.0835
   89MOL0     O11938   2.088   2.745   0.493  0.4404  0.2575 -0.9326
   89MOL0     C11939   2.019   2.781   0.370  0.0427 -0.4662  0.2270
   89MOL0     C11940   1.872   2.796   0.398 -0.4798 -0.6632 -0.0453
   89MOL0     C11941   1.847   2.939   0.457 -0.8409  0.4547 -0.1714
   89MOL0     C11942   1.699   2.977   0.485  0.7433  0.1708 -0.4777
   89MOL0     C11943   1.616   2.977   0.363 -1.4201 -0.1051  0.0031
   89MOL0     C11944   1.553   2.995   0.262 -0.4263  0.3011 -0.1577
   89MOL0     C11945   2.293   2.871   0.458 -0.1067  0.9623 -0.7014
   89MOL0     C11946   2.389   2.963   0.494  0.5357  0.5640 -0.4718
   89MOL0     C11947   2.519   2.956   0.415  0.3634 -0.4541 -0.4270
   89MOL0     H11948   2.496   3.463   0.697 -0.0768  0.5996 -0.7005
   89MOL0     H11949   2.643   3.597   0.816  0.1262 -0.4934  0.9389
   89MOL0     H11950   2.917   3.541   0.877 -2.3236 -3.6056  1.9381
   89MOL0     H11951   2.818   3.698   0.898  0.3980  1.1238  1.2369
   89MOL0     H11952   3.022   3.583   1.092 -1.0225 -1.0292 -1.2370
   89MOL0     H11953   2.947   3.727   1.117  3.7719  0.3314  0.9821
   89MOL0     H11954   3.067   3.845   0.948 -0.8380 -0.0215  0.5677
   89MOL0     H11955   3.088   3.711   0.841 -0.8253 -2.1299  1.1558
   89MOL0     H11956   3.235   3.599   1.041  4.8702 -0.0377  0.3850
   89MOL0     H11957   3.302   3.739   0.955 -2.9702 -0.1178 -2.7568
   89MOL0     H11958   3.251   3.884   1.131  0.7283 -0.7312 -3.0024
   89MOL0     H11959   3.140   3.765   1.223 -0.7094 -3.3085 -1.9182
   89MOL0     H11960   3.321   3.639   1.276  2.0087 -0.7945  0.6941
   89MOL0     H11961   3.438   3.724   1.174 -0.6567  1.9539 -0.7843
   89MOL0     H11962   3.445   3.904   1.336  2.1289 -1.1285 -1.0217
   89MOL0     H11963   3.462   3.748   1.409 -0.4481 -0.4693  0.4957
   89MOL0     H11964   3.182   3.871   1.425  0.8650 -1.2437 -2.9515
   89MOL0     H11965   3.244   3.722   1.487 -2.8794  0.4526 -2.4089
   89MOL0     H11966   3.376   3.715   1.709 -2.8066  0.8411  2.5577
   89MOL0     H11967   3.587   3.842   1.883  0.4916  1.0876  0.4446
   89MOL0     H11968   3.540   4.001   1.932 -1.9563  1.1390 -0.1064
   89MOL0     H11969   3.292   3.913   1.972 -0.6255 -1.1168  0.1584
   89MOL0     H11970   3.347   3.756   1.948 -1.5746  0.3869 -1.1648
   89MOL0     H11971   3.500   3.770   2.154  1.3773  2.4423  3.1077
   89MOL0     H11972   3.323   3.781   2.161 -0.8446  0.4269 -2.4996
   89MOL0     H11973   3.323   4.010   2.187 -0.4075 -0.4572  2.6866
   89MOL0     H11974   3.495   4.026   2.137 -1.2441  0.9638  0.9519
   89MOL0     H11975   3.323   4.169   2.428  0.9174 -0.5120 -1.5204
   89MOL0     H11976   3.162   4.163   2.614  2.5928  1.6708  1.1620
   89MOL0     H11977   2.767   3.897   2.710 -4.6625 -1.2706 -1.0288
   89MOL0     H11978   2.578   3.873   2.855  0.5579  1.3959 -0.9255
   89MOL0     H11979   2.483   3.594   3.211  0.3360 -0.0071 -4.7670
   89MOL0     H11980   2.652   3.630   3.246  0.5237  4.1135  2.5602
   89MOL0     H11981   2.402   3.805   3.302  0.5493  3.0739  0.9171
   89MOL0     H11982   2.507   3.720   3.421  0.7083 -1.0929 -1.1956
   89MOL0     H11983   2.692   3.857   3.368 -0.1432  1.7383  0.4611
   89MOL0     H11984   2.613   3.940   3.235 -2.5023 -1.6386 -1.0595
   89MOL0     H11985   2.639   4.054   3.457  1.0436 -1.7222  0.4568
   89MOL0     H11986   2.535   3.932   3.533  1.1740 -0.4758 -0.3937
   89MOL0     H11987   2.344   4.019   3.397  0.1438  0.4752 -1.1145
   89MOL0     H11988   2.441   4.097   3.287  2.1205  2.3245  0.3282
   89MOL0     H11989   2.508   4.259   3.476 -2.0525  1.1699  1.2036
   89MOL0     H11990   2.325   4.256   3.456 -3.1007 -1.2686  1.6011
   89MOL0     H11991   2.468   4.266   3.686 -1.5892  1.9323 -1.1917
   89MOL0     H11992   2.461   4.086   3.675  2.1854 -0.7710 -2.4093
   89MOL0     H11993   2.248   4.147   3.798  0.6444 -2.5279 -1.1719
   89MOL0     H11994   2.225   4.280   3.676 -0.5448  0.4582  0.4697
   89MOL0     H11995   2.826   3.698   3.155 -0.6214 -5.0442 -2.0740
   89MOL0     H11996   3.026   3.758   3.017  0.4911 -0.9218 -1.1363
   89MOL0     H11997   3.197   3.734   2.631 -0.8834  0.6515  1.7256
   89MOL0     H11998   3.356   3.741   2.454 -1.8831 -0.3264 -0.9995
   89MOL0     H11999   2.663   3.320   1.130 -4.1066 -0.2258 -0.0852
   89MOL0     H12000   2.541   3.152   0.996 -0.0326  0.8361  1.1536
   89MOL0     H12001   2.211   3.066   0.763 -1.9139 -1.4618  0.1045
   89MOL0     H12002   2.066   2.910   0.711 -1.1331  1.6108 -1.3896
   89MOL0     H12003   2.046   2.711   0.290 -0.1517 -1.6835  1.1873
   89MOL0     H12004   2.053   2.876   0.328  0.6921 -1.2148 -1.0203
   89MOL0     H12005   1.842   2.731   0.481  0.0570 -0.7490  0.0833
   89MOL0     H12006   1.812   2.772   0.310  3.2801 -5.1731 -1.8002
   89MOL0     H12007   1.877   3.016   0.386  4.4903 -1.8134 -0.9260
   89MOL0     H12008   1.913   2.956   0.543  1.1269 -1.9861 -1.0438
   89MOL0     H12009   1.664   2.915   0.568 -0.7127  1.1391 -0.3360
   89MOL0     H12010   1.704   3.078   0.527  1.4540  0.3405 -0.9420
   89MOL0     H12011   1.491   2.990   0.175 -0.3850 -2.4882 -0.1145
   89MOL0     H12012   2.299   2.810   0.368 -1.7282  0.6725 -0.6467
   89MOL0     H12013   2.549   3.052   0.372  0.3694 -0.0394  0.4652
   89MOL0     H12014   2.603   2.920   0.475  1.0584  0.8342 -0.5764
   89MOL0     H12015   2.497   2.888   0.333 -1.4844  0.7892 -1.0381
   90MOL0     O12016   9.995   6.686   7.396 -0.0984 -0.5428 -0.6248
   90MOL0     C12017   9.892   6.645   7.442 -0.0461 -0.2249 -0.6855
   90MOL0     O12018   9.867   6.627   7.576  0.2008  0.3535 -0.0989
   90MOL0     C12019   9.966   6.662   7.667  0.6016 -0.1808  0.1275
   90MOL0     C12020   9.942   6.775   7.740 -0.3025 -0.4068 -1.1979
   90MOL0     C12021  10.036   6.817   7.834 -0.6827 -0.3287 -0.7533
   90MOL0     C12022  10.150   6.739   7.860  1.0289 -0.2817  0.9749
   90MOL0     O12023  10.241   6.790   7.956 -0.2694  0.3942 -0.1706
   90MOL0     C12024  10.382   6.764   7.930 -0.2567  0.6728  0.4482
   90MOL0     C12025  10.470   6.850   8.018  0.4223 -1.2596  0.9732
   90MOL0     C12026  10.620   6.840   7.993 -0.7877  0.5974  0.0011
   90MOL0     C12027  10.665   6.921   7.869 -0.8570  0.5366  0.6511
   90MOL0     C12028  10.809   6.883   7.834 -0.8671  0.6944  0.6279
   90MOL0     C12029  10.845   6.936   7.689 -0.5395  0.3755  0.1091
   90MOL0     C12030  10.834   7.092   7.663 -0.4459 -0.8746 -0.1645
   90MOL0     C12031  10.852   7.114   7.517  0.1157  0.8555  0.2939
   90MOL0     N12032  10.813   7.244   7.470 -0.0595 -0.1680  0.1102
   90MOL0     C12033  10.742   7.264   7.355  0.0005 -0.3243  0.3253
   90MOL0     C12034  10.738   7.395   7.341  1.0659  0.6381 -0.7030
   90MOL0     C12035  10.690   7.451   7.213 -0.1740 -0.5487  0.6144
   90MOL0     C12036  10.816   7.500   7.134  0.2158 -0.7220  0.6491
   90MOL0     C12037  10.776   7.597   7.018  0.3494  0.0825 -0.4929
   90MOL0     C12038  10.899   7.624   6.928  0.0709  0.0668 -0.5100
   90MOL0     O12039  10.847   7.707   6.822  0.6701 -0.4155  0.2780
   90MOL0     C12040  10.902   7.711   6.694  0.2141 -0.0932 -0.9022
   90MOL0     C12041  11.043   7.732   6.671  0.0038 -0.4821 -1.0706
   90MOL0     C12042  11.104   7.716   6.540  0.3058 -0.6310  0.0450
   90MOL0     C12043  11.027   7.698   6.423  0.0722  0.6316 -0.1306
   90MOL0     C12044  11.093   7.682   6.286  0.3443 -0.5152 -0.5652
   90MOL0     O12045  11.214   7.745   6.273 -0.0055 -0.5098  0.7882
   90MOL0     C12046  11.290   7.752   6.155  0.3846 -0.0583 -0.9405
   90MOL0     C12047  11.428   7.760   6.168  0.7350  0.5135  0.2442
   90MOL0     C12048  11.510   7.762   6.055 -0.4791 -0.5168  0.6817
   90MOL0     C12049  11.451   7.767   5.925  0.6811  0.4223 -0.2634
   90MOL0     O12050  11.507   7.749   5.809 -0.1383  0.9925  0.1921
   90MOL0     C12051  11.638   7.804   5.798  0.6017  0.2961  0.5889
   90MOL0     C12052  11.627   7.897   5.677 -1.0710  0.1186  0.4496
   90MOL0     C12053  11.575   7.840   5.555  0.2233 -0.0572 -1.1394
   90MOL0     C12054  11.597   7.939   5.445 -0.6054  0.1857  1.6751
   90MOL0     C12055  11.548   7.880   5.303  0.2559  1.2253 -0.2420
   90MOL0     C12056  11.582   7.949   5.184  0.5156 -0.8321 -0.5898
   90MOL0     C12057  11.548   8.103   5.183 -0.0074  0.2537  0.0330
   90MOL0     C12058  11.390   8.125   5.183 -0.2002  0.4019  0.7300
   90MOL0    Cl12059  11.298   8.094   5.028  0.2366 -0.0587  0.4034
   90MOL0     C12060  11.312   7.770   5.917 -0.1446  0.2974  0.7630
   90MOL0     C12061  11.227   7.766   6.031  0.3222  0.6679  0.1677
   90MOL0     O12062  11.023   7.626   6.198  0.1547 -1.0181 -0.4757
   90MOL0     C12063  10.890   7.688   6.449 -0.3205 -0.1729 -0.8684
   90MOL0     C12064  10.828   7.705   6.576  1.4283  0.4058  0.3657
   90MOL0     N12065  10.770   7.454   7.455 -0.3494  0.6016  0.7787
   90MOL0     N12066  10.824   7.368   7.532 -0.4118 -0.4394  0.5296
   90MOL0     C12067  10.177   6.624   7.775 -0.5874  0.2537 -0.4249
   90MOL0     C12068  10.078   6.579   7.687  0.0896 -0.3995 -1.0742
   90MOL0     C12069   9.784   6.618   7.342 -0.8753 -0.3565 -0.0990
   90MOL0     C12070   9.656   6.675   7.368  0.4536  0.2994 -0.1141
   90MOL0     C12071   9.545   6.625   7.299  0.1030 -0.5430  0.9202
   90MOL0     C12072   9.558   6.523   7.205  0.0176  0.5423 -0.3007
   90MOL0     O12073   9.447   6.469   7.149  0.7144 -0.0544 -0.3625
   90MOL0     C12074   9.435   6.488   7.012 -0.6132 -0.1170 -0.0023
   90MOL0     C12075   9.293   6.453   6.970  0.8385 -0.8557  0.1086
   90MOL0     C12076   9.280   6.410   6.835  0.9040  0.3218  0.8847
   90MOL0     C12077   9.317   6.518   6.728 -1.0287  0.4298 -0.1398
   90MOL0     C12078   9.248   6.484   6.602 -0.4445  0.1868 -0.0594
   90MOL0     C12079   9.193   6.476   6.500  0.6448  0.2271  0.2739
   90MOL0     C12080   9.684   6.466   7.181  0.6640 -0.5043 -0.3276
   90MOL0     C12081   9.802   6.523   7.240 -0.6989 -0.3123  0.6265
   90MOL0     C12082   9.931   6.448   7.201  0.2490  0.4038  1.1272
   90MOL0     H12083   9.847   6.825   7.724 -0.5417 -0.6478 -0.5480
   90MOL0     H12084  10.011   6.902   7.896 -0.5808 -1.9481  1.6430
   90MOL0     H12085  10.402   6.657   7.946  3.5414  0.6658 -2.8285
   90MOL0     H12086  10.410   6.787   7.827 -2.0461  2.7506  0.3542
   90MOL0     H12087  10.450   6.821   8.121  1.0846 -1.6497  0.9975
   90MOL0     H12088  10.435   6.953   8.005  0.1370 -1.1972  2.1362
   90MOL0     H12089  10.634   6.732   7.985  1.4308  0.5951  2.5377
   90MOL0     H12090  10.680   6.878   8.076  0.3067 -0.9294 -0.0618
   90MOL0     H12091  10.610   6.887   7.780  0.5193 -0.0499 -0.0118
   90MOL0     H12092  10.639   7.027   7.877 -0.8724  0.5889  0.0152
   90MOL0     H12093  10.878   6.920   7.910  0.4512 -1.1779  0.4237
   90MOL0     H12094  10.815   6.774   7.844 -0.7860  0.4152 -1.9916
   90MOL0     H12095  10.946   6.899   7.670  0.2880  2.4404  0.3176
   90MOL0     H12096  10.774   6.889   7.620  0.2915 -0.5476 -0.1396
   90MOL0     H12097  10.922   7.138   7.708 -0.7890 -1.7689  1.5007
   90MOL0     H12098  10.744   7.143   7.697  1.0403  3.0921 -1.5904
   90MOL0     H12099  10.958   7.094   7.499  0.0278  1.6256 -1.2037
   90MOL0     H12100  10.786   7.036   7.478 -0.1431 -0.6837  3.4882
   90MOL0     H12101  10.715   7.186   7.285  0.9724 -0.1351 -0.2735
   90MOL0     H12102  10.628   7.379   7.158  1.9017 -2.6446  0.8622
   90MOL0     H12103  10.624   7.535   7.236  0.6954 -0.6096  3.7895
   90MOL0     H12104  10.905   7.518   7.194  1.2286 -0.4916 -0.8665
   90MOL0     H12105  10.844   7.410   7.078 -1.8301 -0.0942 -1.5601
   90MOL0     H12106  10.735   7.694   7.048 -2.1956 -1.1907  0.3555
   90MOL0     H12107  10.701   7.535   6.968 -1.2429  0.6523  1.0862
   90MOL0     H12108  10.933   7.528   6.888 -2.9978 -1.7392  0.8871
   90MOL0     H12109  10.981   7.667   6.985  0.9426 -0.2676 -1.4679
   90MOL0     H12110  11.088   7.744   6.768 -1.7295 -0.8163 -0.1842
   90MOL0     H12111  11.211   7.726   6.522 -0.1431 -1.1320 -3.7763
   90MOL0     H12112  11.471   7.757   6.267  0.5249 -3.0498  0.3767
   90MOL0     H12113  11.619   7.757   6.055 -0.5162 -2.9623  2.1473
   90MOL0     H12114  11.667   7.871   5.879 -4.3870  1.8252  1.4698
   90MOL0     H12115  11.706   7.721   5.774 -0.5442 -0.5163  0.0605
   90MOL0     H12116  11.564   7.979   5.713  1.1844  1.6744  1.0705
   90MOL0     H12117  11.727   7.938   5.662  0.6503 -3.3218  1.3108
   90MOL0     H12118  11.627   7.744   5.547 -1.2682 -1.4571  3.2405
   90MOL0     H12119  11.468   7.821   5.564 -0.3519  2.9792 -0.4415
   90MOL0     H12120  11.705   7.951   5.430 -0.6693 -1.9443 -1.6084
   90MOL0     H12121  11.553   8.036   5.469  0.6146  1.7717 -1.7566
   90MOL0     H12122  11.439   7.872   5.313  0.5777 -4.4094  3.6858
   90MOL0     H12123  11.585   7.778   5.288 -1.3286  0.6315 -0.2936
   90MOL0     H12124  11.691   7.943   5.175  1.4334 -2.6050  6.1693
   90MOL0     H12125  11.534   7.904   5.097 -0.7432  0.8968 -0.8509
   90MOL0     H12126  11.594   8.149   5.095 -1.5789 -0.0926 -1.0276
   90MOL0     H12127  11.598   8.151   5.267  0.4544  1.0413 -0.6758
   90MOL0     H12128  11.347   8.059   5.258 -3.5977  0.7324 -0.7366
   90MOL0     H12129  11.361   8.228   5.206 -0.7574  0.6549 -0.9189
   90MOL0     H12130  11.270   7.779   5.817  2.3373 -1.7394 -0.5769
   90MOL0     H12131  11.119   7.758   6.024  0.4379 -3.0124  0.4547
   90MOL0     H12132  10.818   7.655   6.374 -3.8347 -2.0499  2.9165
   90MOL0     H12133  10.720   7.715   6.569  1.2520 -1.8448 -1.6397
   90MOL0     H12134  10.260   6.555   7.781 -1.5975 -1.1114 -1.3598
   90MOL0     H12135  10.080   6.479   7.645  2.8599 -0.7673 -0.2464
   90MOL0     H12136   9.645   6.732   7.459 -0.8110 -3.0091  2.0094
   90MOL0     H12137   9.445   6.657   7.326 -1.5859 -1.6492 -3.2315
   90MOL0     H12138   9.512   6.430   6.959 -2.9240 -1.6551 -1.8955
   90MOL0     H12139   9.444   6.593   6.981 -2.4460 -0.4995 -2.1378
   90MOL0     H12140   9.225   6.539   6.979 -2.3170 -3.2673  1.5112
   90MOL0     H12141   9.239   6.378   7.028 -2.0878  0.3367 -0.8775
   90MOL0     H12142   9.172   6.390   6.827  0.9475  0.4231 -0.0806
   90MOL0     H12143   9.340   6.320   6.819 -0.9957 -0.7591 -0.6697
   90MOL0     H12144   9.285   6.616   6.765 -0.6494  0.9999 -1.2636
   90MOL0     H12145   9.426   6.523   6.717 -1.0518  0.3043 -0.4386
   90MOL0     H12146   9.145   6.465   6.405  0.2011  0.7447  0.4327
   90MOL0     H12147   9.696   6.377   7.120  1.8913 -0.7156  0.1727
   90MOL0     H12148   9.917   6.380   7.116  3.9034 -0.9619  1.4170
   90MOL0     H12149  10.012   6.518   7.181  1.4002 -1.8253 -3.2160
   90MOL0     H12150   9.958   6.390   7.290  0.9501 -0.1463  0.5760
   91MOL0     O12151   1.715   0.773   0.164  0.4465  0.2986  0.1460
   91MOL0     C12152   1.632   0.722   0.086  0.0866  0.7843 -1.3108
   91MOL0     O12153   1.504   0.690   0.121 -0.0381  0.7491 -0.1908
   91MOL0     C12154   1.489   0.653   0.251  0.6634 -0.6397 -0.3955
   91MOL0     C12155   1.505   0.520   0.280  0.3882 -0.6465  0.1126
   91MOL0     C12156   1.486   0.468   0.414  1.1296  0.4303  0.6519
   91MOL0     C12157   1.448   0.552   0.522 -0.2810  0.9799  0.2603
   91MOL0     O12158   1.441   0.490   0.647  0.3664  0.2604  0.3651
   91MOL0     C12159   1.573   0.479   0.705  0.1904  0.0818  0.5274
   91MOL0     C12160   1.632   0.335   0.685  0.2647 -0.0988  0.1642
   91MOL0     C12161   1.702   0.273   0.803 -0.1337 -1.1099  0.4461
   91MOL0     C12162   1.853   0.304   0.816 -0.8587 -0.3046  0.1501
   91MOL0     C12163   1.955   0.292   0.693 -0.1355 -0.0206  0.5829
   91MOL0     C12164   1.971   0.143   0.656 -0.3700  0.0172  0.0825
   91MOL0     C12165   2.106   0.124   0.578  0.1673  1.0784 -0.4969
   91MOL0     C12166   2.117  -0.022   0.517  0.4033  0.6585  0.0684
   91MOL0     N12167   2.249  -0.032   0.472 -0.6600  0.0944  0.5798
   91MOL0     C12168   2.363  -0.004   0.546 -0.1705  0.7569 -0.4395
   91MOL0     C12169   2.462  -0.006   0.454  0.0983 -0.4006  0.8624
   91MOL0     C12170   2.601   0.031   0.474 -0.8990 -0.5987 -0.2374
   91MOL0     C12171   2.674  -0.088   0.533 -0.3109  0.9513  0.2420
   91MOL0     C12172   2.830  -0.070   0.536 -0.5893  0.7698 -0.0303
   91MOL0     C12173   2.908  -0.039   0.412 -0.1808 -1.0104  0.0760
   91MOL0     O12174   3.046  -0.068   0.445 -1.0713  0.7075  0.2263
   91MOL0     C12175   3.131   0.035   0.501  0.2540 -0.4375  1.3779
   91MOL0     C12176   3.267   0.010   0.503 -0.1990  0.4373  0.7328
   91MOL0     C12177   3.359   0.099   0.560  0.5764 -0.6332 -0.0632
   91MOL0     C12178   3.315   0.222   0.609  0.2899 -0.5273  0.2060
   91MOL0     C12179   3.418   0.315   0.666 -0.4913 -0.2477  0.5593
   91MOL0     O12180   3.547   0.273   0.644 -0.0917  0.4612 -1.0210
   91MOL0     C12181   3.650   0.353   0.676 -0.1829 -0.1035  0.4735
   91MOL0     C12182   3.667   0.385   0.809 -0.3312 -0.7747  0.4633
   91MOL0     C12183   3.784   0.459   0.847 -0.1784 -0.2908 -0.2016
   91MOL0     C12184   3.878   0.499   0.751 -0.1640 -0.5860 -0.2049
   91MOL0     O12185   3.995   0.567   0.788  0.9527 -0.4247 -0.6296
   91MOL0     C12186   3.979   0.677   0.880 -0.4091 -1.1222 -0.1108
   91MOL0     C12187   4.092   0.790   0.875  1.0867  0.6760  0.7269
   91MOL0     C12188   4.113   0.855   0.730 -0.2106 -0.0574 -1.7658
   91MOL0     C12189   4.256   0.911   0.718  0.4913 -0.1665  0.2642
   91MOL0     C12190   4.269   0.984   0.580  0.2128  0.4999 -0.5536
   91MOL0     C12191   4.417   1.001   0.545 -0.3601  0.2485  1.1147
   91MOL0     C12192   4.425   1.049   0.396 -0.5735 -0.0284 -0.3160
   91MOL0     C12193   4.567   1.083   0.354  0.6802 -0.0023 -0.1291
   91MOL0    Cl12194   4.593   1.090   0.185  0.0174 -0.1872  0.1310
   91MOL0     C12195   3.849   0.472   0.616  0.1510 -0.6392  0.6183
   91MOL0     C12196   3.729   0.404   0.574 -0.6239  0.5537  0.7367
   91MOL0     O12197   3.381   0.418   0.716 -0.1532 -0.2092 -0.0807
   91MOL0     C12198   3.176   0.251   0.612 -0.9479 -0.2327  0.9909
   91MOL0     C12199   3.083   0.158   0.564  0.2669  0.3081  0.2664
   91MOL0     N12200   2.417  -0.030   0.325  0.9993 -0.4209 -0.7168
   91MOL0     N12201   2.285  -0.047   0.338 -0.1784  1.2551 -0.4413
   91MOL0     C12202   1.437   0.685   0.491  0.2605 -0.1219  0.1430
   91MOL0     C12203   1.436   0.736   0.358 -0.2433  0.6604 -0.0230
   91MOL0     C12204   1.658   0.735  -0.053  0.6937 -0.3946  0.9775
   91MOL0     C12205   1.548   0.744  -0.139 -0.4145 -0.6802 -0.3058
   91MOL0     C12206   1.566   0.742  -0.278 -0.9076 -0.8308  0.0750
   91MOL0     C12207   1.691   0.741  -0.346  0.9362  0.8496 -0.3082
   91MOL0     O12208   1.700   0.735  -0.482 -0.5242  0.5044  0.1789
   91MOL0     C12209   1.587   0.736  -0.577 -0.1733  0.2482 -0.4596
   91MOL0     C12210   1.606   0.839  -0.684  0.2106  1.1351  0.2290
   91MOL0     C12211   1.591   0.987  -0.642  1.0671 -0.7990  0.3996
   91MOL0     C12212   1.641   1.084  -0.749  0.3690  0.3867 -0.6772
   91MOL0     C12213   1.621   1.226  -0.701  0.0296  0.5155 -0.3455
   91MOL0     C12214   1.583   1.339  -0.666  0.8776  0.4697  0.0531
   91MOL0     C12215   1.804   0.740  -0.257  0.7423  0.2383  0.8170
   91MOL0     C12216   1.790   0.742  -0.117  0.5005 -0.4288  0.5541
   91MOL0     C12217   1.927   0.705  -0.049 -0.1560 -0.3075 -0.3844
   91MOL0     H12218   1.521   0.459   0.192  2.0279  0.6993 -0.5783
   91MOL0     H12219   1.502   0.364   0.439 -3.1251 -0.4138  0.5725
   91MOL0     H12220   1.648   0.548   0.666 -0.1675  1.1927  1.7210
   91MOL0     H12221   1.564   0.502   0.812  0.4098 -1.8083  0.9911
   91MOL0     H12222   1.697   0.345   0.598  0.9995  2.4989  0.8990
   91MOL0     H12223   1.549   0.266   0.667  1.4954 -1.8226  0.8337
   91MOL0     H12224   1.711   0.165   0.787  1.0244 -1.3027  2.1436
   91MOL0     H12225   1.649   0.292   0.897 -1.7709 -2.3404 -0.1689
   91MOL0     H12226   1.856   0.405   0.859 -0.2897 -1.7227  3.7509
   91MOL0     H12227   1.901   0.244   0.894  1.6270 -0.9460 -1.7565
   91MOL0     H12228   1.917   0.341   0.602  0.5228  0.3246  0.4867
   91MOL0     H12229   2.044   0.347   0.725  1.1808 -0.5986 -1.8124
   91MOL0     H12230   1.956   0.078   0.742 -0.6731  0.9758  0.7768
   91MOL0     H12231   1.886   0.115   0.593 -0.0407  3.2345 -2.0310
   91MOL0     H12232   2.188   0.134   0.650 -0.9684  0.7664  0.8738
   91MOL0     H12233   2.113   0.189   0.490  1.3595 -0.0361 -1.2607
   91MOL0     H12234   2.084  -0.107   0.577 -2.0671  0.3312 -1.6173
   91MOL0     H12235   2.056  -0.035   0.427 -1.9111  0.8143  1.5273
   91MOL0     H12236   2.380   0.006   0.653 -0.4892 -1.1824 -0.1725
   91MOL0     H12237   2.633   0.059   0.373  2.8240  0.4521  1.0650
   91MOL0     H12238   2.618   0.117   0.540  1.1691 -0.8604 -0.3381
   91MOL0     H12239   2.641  -0.111   0.635  0.5679 -0.5796  0.2152
   91MOL0     H12240   2.646  -0.179   0.479 -1.8333  0.0233  2.4557
   91MOL0     H12241   2.873  -0.166   0.564  0.2560  0.9148 -0.7661
   91MOL0     H12242   2.849  -0.002   0.619 -4.6582  1.1305  0.8454
   91MOL0     H12243   2.902   0.067   0.386  1.7686  0.1855  3.8056
   91MOL0     H12244   2.879  -0.104   0.329 -1.5065  0.0882 -0.3632
   91MOL0     H12245   3.296  -0.090   0.471 -1.1568  0.3449  0.1116
   91MOL0     H12246   3.462   0.067   0.578  1.3508  1.1178 -1.1114
   91MOL0     H12247   3.594   0.368   0.888  1.6287  2.1649  3.1476
   91MOL0     H12248   3.789   0.485   0.952 -2.1694 -0.8105  0.0658
   91MOL0     H12249   3.882   0.724   0.861  1.0550  2.6464  0.8369
   91MOL0     H12250   3.969   0.640   0.983  1.2813 -0.7707  0.2063
   91MOL0     H12251   4.070   0.872   0.945  1.4385 -0.3002  2.0073
   91MOL0     H12252   4.175   0.733   0.917  2.5049  0.7534 -1.7730
   91MOL0     H12253   4.097   0.774   0.659  0.2978 -2.7225  0.9217
   91MOL0     H12254   4.028   0.922   0.716 -0.0590 -0.2213 -3.6211
   91MOL0     H12255   4.329   0.831   0.738 -1.1774 -2.8241 -3.2071
   91MOL0     H12256   4.258   0.990   0.794 -2.1311  0.9594 -0.7070
   91MOL0     H12257   4.220   1.081   0.579 -0.4044  0.1893 -0.9234
   91MOL0     H12258   4.208   0.925   0.511 -1.4950 -2.8853  3.3880
   91MOL0     H12259   4.460   1.074   0.614 -1.7522  0.7301  1.5076
   91MOL0     H12260   4.475   0.909   0.558  0.8828  1.0557  1.4421
   91MOL0     H12261   4.360   1.133   0.368 -0.3889  0.1483 -0.2166
   91MOL0     H12262   4.405   0.967   0.327  3.5866 -0.5542 -1.1449
   91MOL0     H12263   4.598   1.179   0.397  1.5809 -1.0579  1.7347
   91MOL0     H12264   4.633   1.012   0.406 -0.5580  0.0220  1.5554
   91MOL0     H12265   3.911   0.512   0.536  0.2057 -0.7459  0.6074
   91MOL0     H12266   3.708   0.377   0.471 -2.5972 -2.7558  1.8458
   91MOL0     H12267   3.145   0.346   0.652  0.4190 -0.0507  1.7021
   91MOL0     H12268   2.977   0.181   0.571  0.2451  0.0731  0.7875
   91MOL0     H12269   1.411   0.751   0.573  4.6058 -0.4003  2.0180
   91MOL0     H12270   1.423   0.843   0.345 -0.1870  0.5465 -1.2048
   91MOL0     H12271   1.449   0.726  -0.099  0.8598 -2.1668  2.4907
   91MOL0     H12272   1.471   0.730  -0.330 -1.2385  0.1874  0.4311
   91MOL0     H12273   1.490   0.754  -0.529  0.3899  0.6604  0.5593
   91MOL0     H12274   1.587   0.635  -0.619  1.4498 -1.0543  2.3827
   91MOL0     H12275   1.542   0.808  -0.768  2.0089 -1.2767 -0.3478
   91MOL0     H12276   1.704   0.820  -0.728  0.2115 -1.5704  1.2462
   91MOL0     H12277   1.644   1.002  -0.548  0.2370 -1.0320  0.9136
   91MOL0     H12278   1.486   1.010  -0.621  1.6288  1.2800  1.2088
   91MOL0     H12279   1.746   1.054  -0.760  0.5244 -1.4792  3.8266
   91MOL0     H12280   1.579   1.069  -0.837  0.0584 -2.3817 -0.0743
   91MOL0     H12281   1.559   1.442  -0.649 -1.0643  0.0727 -0.0837
   91MOL0     H12282   1.905   0.728  -0.296  1.1442 -1.6867  2.3484
   91MOL0     H12283   2.003   0.687  -0.126 -0.8485 -1.4668 -0.8286
   91MOL0     H12284   1.951   0.779   0.027 -3.0410  0.6846 -0.3068
   91MOL0     H12285   1.914   0.613   0.008 -0.1637  0.9742  1.7931
   92MOL0     O12286   3.036   4.240   7.703  0.6476  0.1898  0.2196
   92MOL0     C12287   2.945   4.329   7.689  0.5120  0.8641  0.4466
   92MOL0     O12288   2.961   4.463   7.688  0.6687  0.5220 -0.1844
   92MOL0     C12289   3.084   4.503   7.652 -0.7138 -1.6158 -0.6003
   92MOL0     C12290   3.152   4.589   7.739 -0.6666 -0.0097  0.0717
   92MOL0     C12291   3.264   4.663   7.689 -0.7909  0.2901  0.5388
   92MOL0     C12292   3.296   4.658   7.553 -0.2891 -0.4320 -0.0590
   92MOL0     O12293   3.400   4.732   7.504  0.5138  0.5410  0.7574
   92MOL0     C12294   3.498   4.670   7.425  0.3329 -0.5698  0.1541
   92MOL0     C12295   3.628   4.747   7.441 -0.9105  0.8133  0.1216
   92MOL0     C12296   3.734   4.714   7.341  0.0038 -0.9068  0.2473
   92MOL0     C12297   3.848   4.799   7.379  1.0765 -0.2112 -0.1635
   92MOL0     C12298   3.945   4.781   7.270 -0.2624 -0.2355  0.4014
   92MOL0     C12299   4.074   4.878   7.302 -1.0967 -0.0967  0.2335
   92MOL0     C12300   4.192   4.841   7.210  0.2676  0.8745  0.3247
   92MOL0     C12301   4.315   4.934   7.223  0.1735 -0.2290  0.0363
   92MOL0     N12302   4.426   4.877   7.152  0.6989  0.1907  0.5370
   92MOL0     C12303   4.507   4.777   7.194  0.0453  0.8815 -0.1362
   92MOL0     C12304   4.577   4.727   7.093 -0.2347  1.0156  0.6071
   92MOL0     C12305   4.653   4.597   7.086 -0.2239  0.9968  0.5633
   92MOL0     C12306   4.801   4.628   7.060  0.5066 -0.0306 -0.5462
   92MOL0     C12307   4.889   4.505   7.080  0.4286 -0.1270 -0.1963
   92MOL0     C12308   5.034   4.543   7.046 -0.6483 -0.3253 -1.4049
   92MOL0     O12309   5.052   4.558   6.907 -0.1304  0.5596  0.4850
   92MOL0     C12310   5.178   4.545   6.858  0.1201  0.0320 -0.8887
   92MOL0     C12311   5.293   4.562   6.940  0.6127 -1.2332 -0.0829
   92MOL0     C12312   5.422   4.556   6.894  0.0513 -0.3925  0.2105
   92MOL0     C12313   5.441   4.535   6.763  0.0322  0.3669  0.1244
   92MOL0     C12314   5.582   4.527   6.708  0.3955  0.1830  0.0682
   92MOL0     O12315   5.683   4.587   6.775 -0.8308 -0.6969 -0.1866
   92MOL0     C12316   5.809   4.584   6.720 -0.2632 -0.6480 -0.0350
   92MOL0     C12317   5.849   4.682   6.630 -0.7446  0.3888 -0.5171
   92MOL0     C12318   5.976   4.677   6.577 -0.5260 -0.4217  0.3452
   92MOL0     C12319   6.066   4.566   6.608  0.2862  0.3925  0.6758
   92MOL0     O12320   6.187   4.545   6.547  0.0504  0.2563  0.2213
   92MOL0     C12321   6.222   4.607   6.424 -0.8009  0.1979  0.2183
   92MOL0     C12322   6.375   4.613   6.396 -0.1267  0.3734 -0.7288
   92MOL0     C12323   6.434   4.467   6.385  0.5978  0.2041 -0.9028
   92MOL0     C12324   6.588   4.459   6.401 -0.3514 -0.2873  0.7674
   92MOL0     C12325   6.637   4.327   6.344 -0.4482  0.4745 -0.4730
   92MOL0     C12326   6.786   4.314   6.374 -0.7073 -0.1053  0.6466
   92MOL0     C12327   6.851   4.192   6.312 -0.3755 -0.6636  0.2486
   92MOL0     C12328   6.994   4.177   6.361 -0.0166  0.0094 -0.5241
   92MOL0    Cl12329   7.008   4.129   6.523  0.3710 -0.0428 -0.3681
   92MOL0     C12330   6.028   4.464   6.692 -0.3521 -0.1874  0.2531
   92MOL0     C12331   5.899   4.474   6.743 -0.1232  0.0962 -0.1875
   92MOL0     O12332   5.591   4.457   6.614 -0.3418  0.7136  0.3125
   92MOL0     C12333   5.334   4.512   6.674  0.2474  0.2095 -0.5100
   92MOL0     C12334   5.205   4.513   6.730 -0.2808  0.0533 -0.7018
   92MOL0     N12335   4.528   4.791   6.987 -0.5862 -0.1350 -0.5110
   92MOL0     N12336   4.445   4.887   7.019  0.6553 -0.3479  0.0047
   92MOL0     C12337   3.230   4.574   7.460 -0.8285 -0.6472 -0.7520
   92MOL0     C12338   3.129   4.495   7.517  0.7798 -0.3787 -0.0555
   92MOL0     C12339   2.808   4.283   7.666 -0.1463 -0.0465 -0.0628
   92MOL0     C12340   2.734   4.359   7.569 -0.4490 -0.2051 -0.0859
   92MOL0     C12341   2.602   4.318   7.543  1.0846  0.0914  0.7816
   92MOL0     C12342   2.545   4.210   7.609 -0.0844  0.0745 -0.2464
   92MOL0     O12343   2.420   4.170   7.575  0.9206  0.7780  0.1004
   92MOL0     C12344   2.315   4.123   7.675  0.3904  1.3224  0.8751
   92MOL0     C12345   2.187   4.090   7.602  0.8695  0.1667 -0.2461
   92MOL0     C12346   2.195   3.993   7.482  1.2448 -0.2910  0.1089
   92MOL0     C12347   2.125   3.856   7.507  0.1047 -0.3035 -0.1457
   92MOL0     C12348   2.207   3.760   7.577 -0.7049 -0.3055  0.4468
   92MOL0     C12349   2.282   3.683   7.642  0.4208 -0.4798  0.1186
   92MOL0     C12350   2.619   4.133   7.701  0.4783 -0.3165 -0.2030
   92MOL0     C12351   2.754   4.159   7.731 -0.0471  0.6131 -0.5746
   92MOL0     C12352   2.823   4.065   7.820 -0.7901  0.2746 -0.6827
   92MOL0     H12353   3.108   4.610   7.836  0.0127 -1.5554  0.7474
   92MOL0     H12354   3.333   4.724   7.747 -0.3456  0.1543  0.1558
   92MOL0     H12355   3.502   4.570   7.469 -1.5553 -0.2707  1.1472
   92MOL0     H12356   3.463   4.668   7.322  1.8984  0.1332 -0.4233
   92MOL0     H12357   3.657   4.726   7.545 -1.6117  0.9641  0.3598
   92MOL0     H12358   3.607   4.852   7.421  3.7201  2.1328  1.0282
   92MOL0     H12359   3.705   4.731   7.237 -0.0748 -1.2287  0.2159
   92MOL0     H12360   3.766   4.611   7.357 -0.9874 -1.3618 -0.6438
   92MOL0     H12361   3.820   4.905   7.379  0.7235 -0.3049 -0.5469
   92MOL0     H12362   3.873   4.763   7.479 -2.2633  1.2554  1.3351
   92MOL0     H12363   3.987   4.680   7.263  1.9354  0.7425 -3.2689
   92MOL0     H12364   3.902   4.814   7.175 -1.3953 -1.5438  0.4351
   92MOL0     H12365   4.053   4.983   7.280  1.9438  0.4183 -0.7132
   92MOL0     H12366   4.113   4.874   7.404 -0.7107 -0.6837  0.0705
   92MOL0     H12367   4.156   4.851   7.107 -0.5218 -0.4782  0.4467
   92MOL0     H12368   4.218   4.736   7.223  2.1473  1.2540 -0.1173
   92MOL0     H12369   4.287   5.029   7.175  1.4655  0.1830  0.0767
   92MOL0     H12370   4.339   4.944   7.329 -2.8927  3.1112  0.6329
   92MOL0     H12371   4.504   4.743   7.297 -0.0449  1.2143 -0.0281
   92MOL0     H12372   4.641   4.539   7.178  0.8167 -2.4383 -1.2840
   92MOL0     H12373   4.624   4.523   7.010 -0.3259 -0.3613  1.8699
   92MOL0     H12374   4.806   4.667   6.957  0.3875  1.1609 -0.1221
   92MOL0     H12375   4.841   4.701   7.130  0.4300 -2.0085  1.6765
   92MOL0     H12376   4.878   4.422   7.009 -1.9831 -0.5532  0.5953
   92MOL0     H12377   4.878   4.469   7.182 -1.5566  1.0126  0.0314
   92MOL0     H12378   5.097   4.461   7.080 -2.8701 -1.9009 -0.8521
   92MOL0     H12379   5.059   4.638   7.094  0.9814 -0.7326 -1.4044
   92MOL0     H12380   5.274   4.580   7.045 -3.7010  1.1584 -1.0505
   92MOL0     H12381   5.501   4.564   6.968  1.0217  2.5766 -0.9804
   92MOL0     H12382   5.777   4.761   6.609  0.6106  1.8839  0.2179
   92MOL0     H12383   6.007   4.755   6.508  0.5786  0.7623  2.1068
   92MOL0     H12384   6.167   4.559   6.342  1.2155  0.4144 -1.3311
   92MOL0     H12385   6.184   4.709   6.430  1.1351  0.9909 -0.2317
   92MOL0     H12386   6.389   4.654   6.296  0.5070 -0.6413 -1.0737
   92MOL0     H12387   6.430   4.680   6.462  0.4169  1.3326 -2.1054
   92MOL0     H12388   6.386   4.415   6.468  2.1426 -2.1268 -1.3846
   92MOL0     H12389   6.397   4.424   6.291  0.4209 -1.4290 -0.1205
   92MOL0     H12390   6.625   4.462   6.504 -1.9619 -1.2148  1.4095
   92MOL0     H12391   6.639   4.534   6.340 -1.2564  1.8609  2.5224
   92MOL0     H12392   6.620   4.323   6.236 -1.4079 -0.6432 -0.2985
   92MOL0     H12393   6.579   4.251   6.397  1.2252 -0.3672  0.2114
   92MOL0     H12394   6.840   4.402   6.339 -2.5568  0.6909 -0.3722
   92MOL0     H12395   6.797   4.310   6.482  2.3229  2.2896  0.5486
   92MOL0     H12396   6.860   4.208   6.204  3.5616 -1.6477  0.2931
   92MOL0     H12397   6.795   4.102   6.340  1.7084 -1.4918  2.0463
   92MOL0     H12398   7.041   4.095   6.306 -0.9657 -1.6044  0.9372
   92MOL0     H12399   7.047   4.271   6.348 -1.8163  1.5123  2.0597
   92MOL0     H12400   6.093   4.378   6.691 -0.0691  0.0250 -0.8958
   92MOL0     H12401   5.867   4.391   6.806 -1.2290  0.1770 -0.6214
   92MOL0     H12402   5.352   4.504   6.568  1.3891 -1.7668 -0.2273
   92MOL0     H12403   5.124   4.492   6.661 -1.3859  1.3155  0.1624
   92MOL0     H12404   3.244   4.553   7.354 -3.0546 -2.5058 -0.7648
   92MOL0     H12405   3.075   4.431   7.448 -0.5060  3.2506 -2.7126
   92MOL0     H12406   2.783   4.443   7.520 -0.9879  2.9523  4.1586
   92MOL0     H12407   2.537   4.352   7.464  1.1776 -3.0657 -0.8265
   92MOL0     H12408   2.275   4.205   7.736 -1.0213 -0.2421  2.1640
   92MOL0     H12409   2.343   4.040   7.740 -0.8244  1.2769  1.3758
   92MOL0     H12410   2.140   4.179   7.559 -1.4473 -1.7933 -2.0056
   92MOL0     H12411   2.115   4.044   7.670  1.9916 -3.8152 -1.5008
   92MOL0     H12412   2.300   3.969   7.465  1.4513 -0.6091  1.7021
   92MOL0     H12413   2.136   4.033   7.399 -0.4242  3.1441  2.6758
   92MOL0     H12414   2.032   3.869   7.564 -1.8400 -3.8054 -2.1364
   92MOL0     H12415   2.108   3.812   7.409  1.7708 -1.0099 -0.1487
   92MOL0     H12416   2.348   3.613   7.689  1.5178 -1.1370 -2.2627
   92MOL0     H12417   2.564   4.047   7.737 -1.3990 -0.0581 -2.2051
   92MOL0     H12418   2.846   4.125   7.908 -3.3455  0.5638 -0.1228
   92MOL0     H12419   2.764   3.976   7.844 -2.8464  1.4226 -1.1823
   92MOL0     H12420   2.913   4.022   7.776  0.0312 -1.9609  2.8107
   93MOL0     O12421  11.342  10.710   3.051 -0.4601  0.4821 -0.1259
   93MOL0     C12422  11.339  10.669   2.934  0.2224  0.7205 -0.2801
   93MOL0     O12423  11.436  10.686   2.837  0.4293 -0.1273 -0.0868
   93MOL0     C12424  11.554  10.731   2.881 -0.9724  0.8841  0.1683
   93MOL0     C12425  11.644  10.643   2.945  0.3518  0.2945 -0.2786
   93MOL0     C12426  11.769  10.685   2.996 -0.2372 -0.6379 -0.7495
   93MOL0     C12427  11.816  10.817   2.977  0.8781  0.6204  0.0388
   93MOL0     O12428  11.939  10.853   3.026 -0.2863 -0.1909  0.0065
   93MOL0     C12429  12.046  10.763   3.024  0.5253 -0.2029 -0.3730
   93MOL0     C12430  12.063  10.698   3.163  0.0554  0.0635 -0.5376
   93MOL0     C12431  12.141  10.569   3.146  0.5585 -0.1247 -1.1077
   93MOL0     C12432  12.280  10.587   3.083  0.5890  0.5076  0.4740
   93MOL0     C12433  12.365  10.682   3.169 -0.1150 -0.0924  0.1089
   93MOL0     C12434  12.509  10.651   3.157 -0.1587 -0.2140 -0.3284
   93MOL0     C12435  12.551  10.511   3.204  0.3537  0.5550  0.2573
   93MOL0     C12436  12.697  10.482   3.191 -1.0016  0.0625  1.3359
   93MOL0     N12437  12.734  10.456   3.050  0.1952  0.2560 -0.3283
   93MOL0     C12438  12.786  10.541   2.959 -0.6173 -0.0230  0.2312
   93MOL0     C12439  12.816  10.463   2.852  0.4391  0.0801  0.0237
   93MOL0     C12440  12.874  10.515   2.725  0.4043 -0.5700  0.0311
   93MOL0     C12441  12.888  10.426   2.597  0.1370  0.7136 -0.0962
   93MOL0     C12442  12.879  10.499   2.467  1.2685 -1.0017 -0.5111
   93MOL0     C12443  12.942  10.431   2.342 -0.1314  0.2764 -0.0665
   93MOL0     O12444  13.081  10.434   2.349 -0.4712  0.5394  0.5818
   93MOL0     C12445  13.166  10.330   2.400  0.5657 -0.5660  0.4023
   93MOL0     C12446  13.294  10.369   2.450 -0.5344 -0.8334  0.1826
   93MOL0     C12447  13.375  10.264   2.493 -0.1372 -0.0440 -0.1327
   93MOL0     C12448  13.335  10.129   2.491 -0.1491 -0.5522  0.0014
   93MOL0     C12449  13.426  10.021   2.525 -0.3524  0.7422  0.0009
   93MOL0     O12450  13.380   9.906   2.578 -0.1585  0.4368 -0.3441
   93MOL0     C12451  13.462   9.828   2.657  1.0022 -0.4608 -0.6424
   93MOL0     C12452  13.577   9.871   2.726 -0.3319  0.3976  0.2750
   93MOL0     C12453  13.646   9.780   2.807  0.7732  0.3926  0.3666
   93MOL0     C12454  13.619   9.641   2.823 -0.0176 -0.4748  0.0780
   93MOL0     O12455  13.679   9.546   2.897 -0.2345  0.4305 -0.0691
   93MOL0     C12456  13.827   9.543   2.918 -0.3437 -0.7675  0.0601
   93MOL0     C12457  13.876   9.407   2.879 -0.7864 -0.2185 -0.3366
   93MOL0     C12458  13.810   9.281   2.944 -0.0231 -0.4158  0.2129
   93MOL0     C12459  13.845   9.151   2.868  0.0104  0.4554  0.1328
   93MOL0     C12460  13.991   9.110   2.873  0.7629  0.1067 -1.4021
   93MOL0     C12461  14.051   9.089   3.005 -0.8451  0.1083 -0.5208
   93MOL0     C12462  14.178   9.009   2.996  0.8644  0.1369 -0.3253
   93MOL0     C12463  14.271   9.006   3.121  0.1394  0.5999  0.2953
   93MOL0    Cl12464  14.174   8.982   3.265 -0.1785 -0.5851 -0.2027
   93MOL0     C12465  13.499   9.601   2.758 -0.1567 -0.4988 -0.1905
   93MOL0     C12466  13.421   9.685   2.680  0.2945 -0.8459 -0.2931
   93MOL0     O12467  13.546  10.046   2.505  0.5503  0.5110  0.3024
   93MOL0     C12468  13.205  10.100   2.444 -1.1119  0.4601  0.5284
   93MOL0     C12469  13.123  10.197   2.388  0.2240  0.0792 -0.1458
   93MOL0     N12470  12.797  10.329   2.886 -1.0491 -0.8918  0.2454
   93MOL0     N12471  12.753  10.330   3.005  0.0260 -0.6801  0.0799
   93MOL0     C12472  11.731  10.909   2.908  0.3869  0.2454 -0.0357
   93MOL0     C12473  11.599  10.866   2.866  1.1815 -0.1251  0.6820
   93MOL0     C12474  11.214  10.603   2.892 -0.0891 -0.6855 -0.0074
   93MOL0     C12475  11.150  10.533   3.004 -0.0102 -0.7552  0.3761
   93MOL0     C12476  11.025  10.472   2.980 -0.1722  0.0914  0.2543
   93MOL0     C12477  10.964  10.489   2.851  1.2423 -0.2576  0.1371
   93MOL0     O12478  10.845  10.440   2.805 -0.9515 -0.0748  0.2698
   93MOL0     C12479  10.760  10.358   2.888  0.5718 -0.3898 -0.1534
   93MOL0     C12480  10.687  10.445   2.992 -0.5063  0.1704  0.5175
   93MOL0     C12481  10.545  10.383   3.014 -0.2730  0.0549  0.7835
   93MOL0     C12482  10.475  10.433   3.137  0.2165  0.4138  0.1019
   93MOL0     C12483  10.332  10.399   3.134 -0.2792  0.0903 -0.9007
   93MOL0     C12484  10.226  10.355   3.125  0.7324  0.3996  0.5214
   93MOL0     C12485  11.034  10.543   2.750  0.0320  0.3377  0.5341
   93MOL0     C12486  11.160  10.607   2.760  1.3932 -0.1269 -0.1037
   93MOL0     C12487  11.210  10.686   2.643  0.1546 -0.1292  0.0010
   93MOL0     H12488  11.606  10.546   2.973 -0.8931  0.5685 -0.9395
   93MOL0     H12489  11.828  10.603   3.037 -1.1069 -1.2186 -0.6207
   93MOL0     H12490  12.026  10.689   2.946 -0.1306 -2.8473  2.0842
   93MOL0     H12491  12.134  10.820   2.995  2.0878 -1.2086  2.0360
   93MOL0     H12492  11.967  10.677   3.211  1.0054  0.2143  1.5395
   93MOL0     H12493  12.109  10.775   3.226 -1.9176  0.3267  0.6480
   93MOL0     H12494  12.081  10.493   3.095 -0.7405  0.2696 -0.2140
   93MOL0     H12495  12.160  10.524   3.244  1.4401  0.5766 -0.9449
   93MOL0     H12496  12.322  10.486   3.083 -0.7712 -0.2369  4.1796
   93MOL0     H12497  12.264  10.624   2.982 -2.3496  1.0190  1.0342
   93MOL0     H12498  12.345  10.787   3.144 -1.0216 -0.3886 -0.4608
   93MOL0     H12499  12.338  10.665   3.274  1.7148 -1.4084  0.4148
   93MOL0     H12500  12.535  10.662   3.051  0.7877 -2.7820 -0.4291
   93MOL0     H12501  12.564  10.722   3.219 -4.3350  0.9108  2.4574
   93MOL0     H12502  12.493  10.428   3.162 -0.0053  1.1152 -0.3700
   93MOL0     H12503  12.533  10.507   3.312  1.2186 -0.5622  0.3763
   93MOL0     H12504  12.744  10.575   3.224 -0.7237  2.5472 -4.7763
   93MOL0     H12505  12.730  10.398   3.253 -1.0615  0.9724  2.6391
   93MOL0     H12506  12.793  10.649   2.965 -0.5985 -0.0559  0.8188
   93MOL0     H12507  12.801  10.593   2.703  1.0574 -0.8476 -3.9216
   93MOL0     H12508  12.969  10.565   2.745  0.8180 -2.3683  3.0602
   93MOL0     H12509  12.985  10.374   2.601  0.0562  0.4603 -1.1738
   93MOL0     H12510  12.813  10.347   2.602  1.2912 -0.3752  1.4632
   93MOL0     H12511  12.904  10.606   2.472  0.2567 -0.7088  5.2647
   93MOL0     H12512  12.771  10.506   2.449  1.4111 -1.5557 -1.6469
   93MOL0     H12513  12.924  10.487   2.250  2.1694  1.5382  0.1717
   93MOL0     H12514  12.915  10.326   2.329  1.5717 -0.8970  4.1397
   93MOL0     H12515  13.310  10.476   2.459  0.4288 -1.1031  2.0754
   93MOL0     H12516  13.475  10.290   2.526 -1.1833  1.5076  2.0141
   93MOL0     H12517  13.615   9.972   2.724 -1.1632  0.7142  0.0114
   93MOL0     H12518  13.736   9.812   2.859  1.0468 -0.1153  0.2082
   93MOL0     H12519  13.876   9.618   2.855 -0.9044  0.8319  1.4432
   93MOL0     H12520  13.844   9.568   3.023  0.7866 -0.2830 -0.2263
   93MOL0     H12521  13.867   9.383   2.773 -0.4852  1.4860 -0.7685
   93MOL0     H12522  13.984   9.402   2.897 -0.4663 -2.6927 -2.4056
   93MOL0     H12523  13.836   9.276   3.050  3.0960  0.2309 -0.4212
   93MOL0     H12524  13.702   9.289   2.928  0.0471 -2.1508 -1.3663
   93MOL0     H12525  13.807   9.140   2.766  0.0417 -2.4217  0.3480
   93MOL0     H12526  13.790   9.078   2.928  1.9533 -1.1713  0.0397
   93MOL0     H12527  14.059   9.178   2.822  1.9115  0.8603  0.9653
   93MOL0     H12528  14.004   9.012   2.826 -0.3926 -1.4661  1.2944
   93MOL0     H12529  14.076   9.189   3.041  0.1203 -0.0376 -0.7665
   93MOL0     H12530  13.984   9.043   3.078  2.4718 -1.2738  1.9020
   93MOL0     H12531  14.232   9.030   2.903  1.7664 -2.3754 -0.4549
   93MOL0     H12532  14.146   8.905   3.005 -1.0433  0.8611  2.2078
   93MOL0     H12533  14.361   8.943   3.122 -0.2400 -0.0090  2.7579
   93MOL0     H12534  14.324   9.100   3.134  3.6417 -1.3771  1.7485
   93MOL0     H12535  13.482   9.495   2.780  0.0535 -0.9895 -2.2230
   93MOL0     H12536  13.337   9.662   2.616  3.7982 -1.0742 -5.3742
   93MOL0     H12537  13.183   9.995   2.430 -2.9383  0.8296  0.3624
   93MOL0     H12538  13.023  10.169   2.358  0.3581  0.8370 -1.3674
   93MOL0     H12539  11.753  11.011   2.878  0.9602  0.4598  1.0642
   93MOL0     H12540  11.532  10.937   2.818  0.0288 -0.1768  2.1394
   93MOL0     H12541  11.197  10.524   3.102 -0.4578  2.6691  1.0154
   93MOL0     H12542  10.983  10.419   3.065 -1.8869 -0.3994 -0.8541
   93MOL0     H12543  10.822  10.286   2.940 -2.3432 -2.0039  1.3344
   93MOL0     H12544  10.689  10.305   2.824 -2.0035  1.1958  1.2101
   93MOL0     H12545  10.669  10.547   2.956 -1.6663 -0.7695 -1.7851
   93MOL0     H12546  10.738  10.453   3.088  1.4192  0.6356 -0.5108
   93MOL0     H12547  10.559  10.275   3.019  2.8864  0.4114  1.5931
   93MOL0     H12548  10.481  10.406   2.928 -1.1230 -2.5181  0.6218
   93MOL0     H12549  10.511  10.388   3.230  0.7571  2.8190  1.1238
   93MOL0     H12550  10.483  10.541   3.153  2.2551 -0.0762  3.7228
   93MOL0     H12551  10.127  10.319   3.104  0.6199  0.3097  1.1617
   93MOL0     H12552  10.994  10.543   2.649  1.0790  0.7567  0.1026
   93MOL0     H12553  11.207  10.794   2.659  0.4199 -0.4025  2.1902
   93MOL0     H12554  11.314  10.659   2.624  0.5828  2.2767 -1.4143
   93MOL0     H12555  11.151  10.674   2.551 -0.0107  2.9817 -0.4098
   94MOL0     O12556   4.186   1.107   2.771  0.1825  0.2571 -0.5112
   94MOL0     C12557   4.213   1.082   2.886 -0.3155  0.0275 -0.8491
   94MOL0     O12558   4.122   1.083   2.991  0.7508 -0.9700 -0.7009
   94MOL0     C12559   3.986   1.104   2.971 -0.2835 -0.3264  0.5882
   94MOL0     C12560   3.916   1.218   3.029  0.9129 -0.3638  0.2206
   94MOL0     C12561   3.769   1.232   3.015 -0.0734 -0.0541 -0.0660
   94MOL0     C12562   3.693   1.143   2.936  1.0949 -0.3690 -0.1709
   94MOL0     O12563   3.558   1.154   2.907 -0.2139  0.0481  0.7798
   94MOL0     C12564   3.469   1.229   2.977 -0.0219  0.2115 -0.2363
   94MOL0     C12565   3.440   1.159   3.105 -0.4788  0.9341 -0.0751
   94MOL0     C12566   3.310   1.213   3.171  0.2057 -0.0270  0.6535
   94MOL0     C12567   3.298   1.136   3.300  0.8773 -0.7222 -0.3383
   94MOL0     C12568   3.198   1.215   3.392  0.7372 -0.0350 -0.6563
   94MOL0     C12569   3.281   1.291   3.501 -0.1985 -0.2586  0.2375
   94MOL0     C12570   3.310   1.436   3.453  0.0656 -0.0678 -0.4983
   94MOL0     C12571   3.356   1.527   3.563  0.5410 -0.1114 -0.3289
   94MOL0     N12572   3.496   1.508   3.605 -0.7935  0.1637  0.2405
   94MOL0     C12573   3.570   1.394   3.614  0.3267 -0.0918  0.5742
   94MOL0     C12574   3.685   1.424   3.657 -1.1691 -0.0834 -0.4758
   94MOL0     C12575   3.790   1.331   3.706 -0.5434  0.2369 -0.4293
   94MOL0     C12576   3.817   1.217   3.600 -0.2042 -0.0854  0.0169
   94MOL0     C12577   3.926   1.239   3.495  0.3060  0.3142  0.6377
   94MOL0     C12578   3.924   1.115   3.393 -0.4803  0.1290  1.0296
   94MOL0     O12579   3.964   0.992   3.457  0.5509  0.2514 -0.3782
   94MOL0     C12580   4.091   0.978   3.488 -0.5617  0.7165 -0.5182
   94MOL0     C12581   4.187   0.948   3.393 -0.5489  0.0322 -1.0479
   94MOL0     C12582   4.321   0.919   3.415 -0.1119  0.2452  0.8808
   94MOL0     C12583   4.376   0.929   3.540  1.2233 -0.3592 -0.6673
   94MOL0     C12584   4.528   0.911   3.575  1.2286 -0.1907  0.6007
   94MOL0     O12585   4.558   0.914   3.702 -1.3816 -0.3481 -0.1303
   94MOL0     C12586   4.689   0.925   3.740  0.3509 -0.3954 -0.5144
   94MOL0     C12587   4.742   1.053   3.779  0.2458  0.4816 -0.7204
   94MOL0     C12588   4.875   1.065   3.807 -0.1290 -0.0772  0.6500
   94MOL0     C12589   4.966   0.956   3.804 -0.0534 -0.9968 -1.0502
   94MOL0     O12590   5.098   0.963   3.822 -0.3042  0.0819 -0.2230
   94MOL0     C12591   5.166   1.090   3.840  0.0442  0.5976  0.6381
   94MOL0     C12592   5.313   1.054   3.852 -0.6620 -0.0540  0.2806
   94MOL0     C12593   5.415   1.179   3.866 -0.4865 -0.0080 -0.3625
   94MOL0     C12594   5.560   1.127   3.898  0.4064 -0.3212 -0.2156
   94MOL0     C12595   5.651   1.247   3.906  0.3327  0.5831 -0.5292
   94MOL0     C12596   5.787   1.195   3.968 -0.2590 -0.2751 -0.6439
   94MOL0     C12597   5.899   1.296   3.972 -0.2629 -0.1561  0.2713
   94MOL0     C12598   6.035   1.228   4.017  0.0865  0.1033  0.1374
   94MOL0    Cl12599   6.159   1.358   4.039  0.1773  0.1453 -0.2519
   94MOL0     C12600   4.906   0.830   3.780 -0.9925 -0.8799  0.0362
   94MOL0     C12601   4.768   0.820   3.744 -0.5089  0.9803 -0.1071
   94MOL0     O12602   4.600   0.879   3.480  0.1783  0.5263  0.3611
   94MOL0     C12603   4.276   0.954   3.636  0.0266  0.5183  0.0667
   94MOL0     C12604   4.144   0.980   3.616 -0.7580  0.5225 -0.3174
   94MOL0     N12605   3.694   1.562   3.690  0.1746  0.2631  0.2868
   94MOL0     N12606   3.581   1.615   3.642 -0.8710 -0.1701  0.4945
   94MOL0     C12607   3.767   1.039   2.878 -0.5623  0.3585 -0.8156
   94MOL0     C12608   3.911   1.023   2.889  0.3431  0.4766  0.7352
   94MOL0     C12609   4.359   1.051   2.929  1.2372 -0.8675 -0.4713
   94MOL0     C12610   4.388   1.060   3.066  0.4448  0.4442  0.7016
   94MOL0     C12611   4.522   1.043   3.114  0.5173  0.1792 -0.1308
   94MOL0     C12612   4.626   1.002   3.025 -0.4470 -0.2100 -0.9669
   94MOL0     O12613   4.756   0.985   3.059 -0.1810  0.4333  0.1966
   94MOL0     C12614   4.795   0.962   3.203  1.7207  0.1761  0.1610
   94MOL0     C12615   4.940   0.914   3.203 -0.0161  0.2936 -0.2526
   94MOL0     C12616   4.972   0.793   3.121  0.4590  0.0867 -0.1944
   94MOL0     C12617   5.114   0.744   3.140 -0.2033  0.0255 -0.2782
   94MOL0     C12618   5.214   0.824   3.068  0.5878  0.6740  0.3750
   94MOL0     C12619   5.293   0.868   2.979 -0.3983 -0.3299  0.2088
   94MOL0     C12620   4.589   0.981   2.894 -0.2833 -0.2592  0.7429
   94MOL0     C12621   4.460   1.010   2.845  1.3937  1.0183 -0.0112
   94MOL0     C12622   4.428   0.990   2.698 -0.4602  0.8598 -0.0865
   94MOL0     H12623   3.965   1.289   3.095  2.1860 -1.0080 -0.0006
   94MOL0     H12624   3.722   1.313   3.071 -0.0258 -0.6160  0.7989
   94MOL0     H12625   3.516   1.325   2.999 -0.2192 -0.2350  2.3924
   94MOL0     H12626   3.380   1.237   2.913 -1.4464 -3.4902  1.0196
   94MOL0     H12627   3.529   1.182   3.164 -1.2374  1.6557  0.8317
   94MOL0     H12628   3.433   1.051   3.090  0.0315  1.0597 -1.3087
   94MOL0     H12629   3.215   1.205   3.119  0.1633  3.8732 -0.1284
   94MOL0     H12630   3.327   1.319   3.192 -0.5510  0.2331 -0.0059
   94MOL0     H12631   3.253   1.040   3.276  1.1372 -0.6503 -1.1505
   94MOL0     H12632   3.393   1.119   3.352  2.0973  3.0399 -1.0182
   94MOL0     H12633   3.138   1.293   3.344  1.0335  0.0479 -0.8892
   94MOL0     H12634   3.136   1.142   3.446  3.1204 -2.9873 -1.6496
   94MOL0     H12635   3.229   1.295   3.597  1.9410  0.2600  1.4419
   94MOL0     H12636   3.372   1.235   3.525  1.2718  2.6294  1.8020
   94MOL0     H12637   3.215   1.470   3.412  0.0749 -1.1904 -1.5036
   94MOL0     H12638   3.375   1.444   3.365  2.6541 -0.1559  1.2874
   94MOL0     H12639   3.345   1.635   3.546 -1.6249 -0.0234  1.2715
   94MOL0     H12640   3.296   1.507   3.652  2.1790 -1.7528  0.4676
   94MOL0     H12641   3.536   1.291   3.615 -1.3991  0.4347  0.6822
   94MOL0     H12642   3.882   1.383   3.735 -1.5636  0.5825  2.5664
   94MOL0     H12643   3.754   1.292   3.801  1.6099 -2.6491 -0.6843
   94MOL0     H12644   3.845   1.125   3.653  3.7118  0.5467 -0.6027
   94MOL0     H12645   3.725   1.192   3.547  1.6685 -2.0651 -2.5319
   94MOL0     H12646   4.028   1.251   3.533  0.1232 -1.6705  1.9274
   94MOL0     H12647   3.904   1.323   3.430  1.2104 -0.5278 -0.8276
   94MOL0     H12648   3.980   1.140   3.303  0.0976 -2.7994  0.4659
   94MOL0     H12649   3.818   1.107   3.367  0.2744 -1.7546 -1.9224
   94MOL0     H12650   4.160   0.941   3.288  1.6087 -0.1024 -1.6381
   94MOL0     H12651   4.367   0.882   3.324 -4.1772 -1.3506 -0.7975
   94MOL0     H12652   4.693   1.149   3.770  1.2339  0.8716 -2.5038
   94MOL0     H12653   4.926   1.161   3.812  2.1749 -1.0980 -1.1826
   94MOL0     H12654   5.153   1.151   3.750 -0.9121 -1.2880 -0.5582
   94MOL0     H12655   5.125   1.146   3.925 -0.1691  0.6249  0.5179
   94MOL0     H12656   5.327   0.988   3.938  6.8106  1.0905  0.5869
   94MOL0     H12657   5.337   0.988   3.768 -0.0930 -0.0379  0.4242
   94MOL0     H12658   5.423   1.239   3.775  0.8582 -1.4021 -1.2128
   94MOL0     H12659   5.378   1.249   3.941 -3.3998  1.1352 -2.7050
   94MOL0     H12660   5.590   1.060   3.817  1.7179  2.2947 -2.0514
   94MOL0     H12661   5.570   1.068   3.990  0.0541 -0.7950 -0.4734
   94MOL0     H12662   5.615   1.323   3.976 -0.1067  0.1323 -0.2634
   94MOL0     H12663   5.666   1.295   3.808 -0.9265  0.8512 -0.6131
   94MOL0     H12664   5.773   1.179   4.075 -0.1119  2.2143 -0.2034
   94MOL0     H12665   5.814   1.099   3.922  0.2791 -0.2687 -0.3475
   94MOL0     H12666   5.879   1.374   4.046 -3.9769 -1.5669  0.9625
   94MOL0     H12667   5.903   1.344   3.874  0.7041 -0.3389  0.2081
   94MOL0     H12668   6.025   1.168   4.108  1.9047 -0.5357 -0.0490
   94MOL0     H12669   6.069   1.155   3.943 -0.1887 -1.1541  1.2215
   94MOL0     H12670   4.965   0.740   3.787 -0.6067 -0.6968 -0.8182
   94MOL0     H12671   4.723   0.728   3.709  2.4773 -0.3572 -0.8299
   94MOL0     H12672   4.306   0.948   3.741 -2.7924 -1.0242  0.8698
   94MOL0     H12673   4.075   0.983   3.699  1.2478 -2.2781  1.6560
   94MOL0     H12674   3.703   0.969   2.826 -2.0163  0.5635  0.5991
   94MOL0     H12675   3.942   0.934   2.835 -3.5922  0.2188 -1.4987
   94MOL0     H12676   4.311   1.086   3.137 -0.9352  0.2800 -0.6864
   94MOL0     H12677   4.541   1.061   3.219 -2.5133  2.5467  0.1435
   94MOL0     H12678   4.729   0.883   3.241 -0.0079  2.0735  1.2863
   94MOL0     H12679   4.786   1.052   3.264  1.3199  0.1196  0.1913
   94MOL0     H12680   4.977   0.886   3.302 -0.8259 -0.7178 -0.2198
   94MOL0     H12681   4.993   0.999   3.158 -1.4858  1.7847  0.6997
   94MOL0     H12682   4.941   0.815   3.018  0.5182  3.2105  0.3545
   94MOL0     H12683   4.907   0.708   3.144 -1.3034  1.1701 -0.9321
   94MOL0     H12684   5.137   0.720   3.244  1.0850  1.2897 -0.2387
   94MOL0     H12685   5.107   0.642   3.100  1.4194 -1.1256  2.1814
   94MOL0     H12686   5.366   0.889   2.903 -0.4781  0.2390  0.2879
   94MOL0     H12687   4.669   0.942   2.832 -1.8620  0.5368 -1.9598
   94MOL0     H12688   4.397   1.079   2.643 -3.0655  1.2690  1.8375
   94MOL0     H12689   4.514   0.956   2.641 -1.6523  0.1767 -1.5437
   94MOL0     H12690   4.355   0.911   2.682  2.6039 -1.5174 -4.1598
   95MOL0     O12691   7.417   0.053   0.492  0.2234 -0.3000 -0.5399
   95MOL0     C12692   7.424   0.084   0.606  0.5921 -0.1091  0.9987
   95MOL0     O12693   7.515   0.034   0.695  0.1157  0.1927 -0.1008
   95MOL0     C12694   7.613  -0.046   0.645 -0.5533 -0.9510 -0.2918
   95MOL0     C12695   7.595  -0.179   0.641  0.0861  0.3863  0.0611
   95MOL0     C12696   7.695  -0.264   0.594 -0.6353  0.0527 -0.5025
   95MOL0     C12697   7.818  -0.221   0.548  0.8300 -0.3116  0.3863
   95MOL0     O12698   7.919  -0.302   0.507 -0.0544 -0.0531 -0.5735
   95MOL0     C12699   7.881  -0.439   0.472  0.0097 -0.5379  0.3272
   95MOL0     C12700   8.008  -0.511   0.438  0.6571 -0.3182  0.3595
   95MOL0     C12701   8.100  -0.534   0.565  0.7715 -0.1652  0.2713
   95MOL0     C12702   8.225  -0.622   0.532  0.3735 -0.1680  0.0323
   95MOL0     C12703   8.344  -0.548   0.482  0.6808 -0.1730 -0.2478
   95MOL0     C12704   8.468  -0.631   0.452  0.8025  0.3910 -0.1869
   95MOL0     C12705   8.577  -0.543   0.386  0.1862  0.4511 -0.4143
   95MOL0     C12706   8.690  -0.627   0.342 -0.7494 -0.0675 -0.2245
   95MOL0     N12707   8.750  -0.705   0.450  0.7795 -0.2551  0.2038
   95MOL0     C12708   8.867  -0.679   0.505 -0.3630 -0.0133  0.1930
   95MOL0     C12709   8.885  -0.780   0.600 -0.3360  0.7425  0.5018
   95MOL0     C12710   8.999  -0.790   0.690 -0.2998 -0.2315 -0.4703
   95MOL0     C12711   9.127  -0.803   0.610 -0.4084  0.0580 -0.4752
   95MOL0     C12712   9.252  -0.828   0.711 -0.1293  0.1481 -0.2578
   95MOL0     C12713   9.356  -0.721   0.693  0.0655 -1.0258 -0.6864
   95MOL0     O12714   9.469  -0.760   0.761 -0.1758 -0.8320 -0.0412
   95MOL0     C12715   9.573  -0.666   0.782 -0.0905  0.1164  0.4950
   95MOL0     C12716   9.624  -0.583   0.689 -0.2170 -0.5350  1.1216
   95MOL0     C12717   9.731  -0.503   0.707 -0.2083  0.2881 -0.2051
   95MOL0     C12718   9.801  -0.513   0.824 -0.9011 -1.1360 -1.2800
   95MOL0     C12719   9.928  -0.434   0.845 -0.4562  0.3232  0.5086
   95MOL0     O12720   9.985  -0.450   0.966 -0.1451  0.6291 -0.8919
   95MOL0     C12721  10.092  -0.372   1.011 -0.0633  0.7298  1.2657
   95MOL0     C12722  10.212  -0.440   1.039 -0.1907  0.0706  0.2052
   95MOL0     C12723  10.322  -0.370   1.086 -0.9851  0.2263  0.3571
   95MOL0     C12724  10.318  -0.232   1.108 -0.7423  0.9048  0.0891
   95MOL0     O12725  10.438  -0.180   1.159  0.4236 -0.0284  0.7023
   95MOL0     C12726  10.437  -0.040   1.157  0.5739 -0.1259  0.0096
   95MOL0     C12727  10.581   0.012   1.143 -0.0027 -0.4452  0.2289
   95MOL0     C12728  10.611   0.160   1.176  0.3109  0.8322  1.1020
   95MOL0     C12729  10.547   0.246   1.071  1.2312 -0.1889  0.4768
   95MOL0     C12730  10.588   0.390   1.081  0.1908  0.7748 -0.7297
   95MOL0     C12731  10.733   0.430   1.045  0.0670  0.4807 -0.5205
   95MOL0     C12732  10.734   0.578   1.016  0.0680 -1.0473  0.0578
   95MOL0     C12733  10.698   0.656   1.143 -0.0054  0.4717  0.5936
   95MOL0    Cl12734  10.710   0.826   1.108 -0.4953  0.2034 -0.3142
   95MOL0     C12735  10.200  -0.162   1.079 -0.6242  0.0421  0.2076
   95MOL0     C12736  10.087  -0.233   1.026 -0.1168  0.6801  0.0929
   95MOL0     O12737   9.963  -0.355   0.758 -0.0210  0.0478 -0.4162
   95MOL0     C12738   9.759  -0.598   0.928  0.3221 -0.3018  0.6094
   95MOL0     C12739   9.640  -0.671   0.911 -0.1269  0.2656  1.1720
   95MOL0     N12740   8.788  -0.873   0.586 -0.2056 -0.3526 -0.8825
   95MOL0     N12741   8.708  -0.833   0.492  0.3552  0.3801  0.5082
   95MOL0     C12742   7.842  -0.086   0.554  0.2106  0.0169  0.0231
   95MOL0     C12743   7.736   0.004   0.601  0.0528 -0.7790 -0.1537
   95MOL0     C12744   7.324   0.177   0.654  0.0453 -0.4817 -0.9914
   95MOL0     C12745   7.266   0.162   0.784 -0.0501  0.2345 -0.3012
   95MOL0     C12746   7.153   0.245   0.833 -0.0751 -0.0737  0.6240
   95MOL0     C12747   7.116   0.353   0.750 -0.2182 -0.1196  0.3891
   95MOL0     O12748   7.018   0.432   0.784 -1.0546 -0.3022 -0.0820
   95MOL0     C12749   6.990   0.560   0.706  1.0902 -0.8069  0.3522
   95MOL0     C12750   6.887   0.640   0.788 -0.3178 -0.2076  0.3237
   95MOL0     C12751   6.845   0.766   0.711 -0.5675 -0.3246 -0.0817
   95MOL0     C12752   6.957   0.878   0.706 -0.7677 -0.6263 -0.6845
   95MOL0     C12753   6.904   0.982   0.625  0.6054 -0.3026 -0.4737
   95MOL0     C12754   6.855   1.041   0.535  0.3021 -0.1223  0.1382
   95MOL0     C12755   7.178   0.365   0.626  0.4392 -0.3642  0.2100
   95MOL0     C12756   7.277   0.284   0.571 -0.1925  0.1510 -0.3678
   95MOL0     C12757   7.338   0.322   0.434  0.2122  0.3104 -0.2069
   95MOL0     H12758   7.504  -0.220   0.684 -0.6687 -1.1016 -2.7189
   95MOL0     H12759   7.670  -0.370   0.590 -3.3979  0.5614  0.8061
   95MOL0     H12760   7.834  -0.478   0.563  0.2845 -0.9482  0.2921
   95MOL0     H12761   7.806  -0.431   0.393  1.0190  3.7986 -0.4667
   95MOL0     H12762   8.061  -0.441   0.373  0.4146 -1.5567 -1.2400
   95MOL0     H12763   7.991  -0.604   0.383 -0.4442  0.2256 -0.2629
   95MOL0     H12764   8.038  -0.581   0.641  1.6124 -2.5636 -0.4416
   95MOL0     H12765   8.123  -0.436   0.609 -0.4526  0.0760  0.4014
   95MOL0     H12766   8.265  -0.669   0.622 -1.9380 -1.0854  0.6501
   95MOL0     H12767   8.191  -0.708   0.474 -2.0027  1.3276 -0.8989
   95MOL0     H12768   8.323  -0.496   0.388 -1.4722  1.8530  1.2192
   95MOL0     H12769   8.371  -0.471   0.555 -2.3312  0.4064  0.4295
   95MOL0     H12770   8.491  -0.675   0.549 -2.1026 -0.8992  0.0170
   95MOL0     H12771   8.444  -0.716   0.387 -0.6697  0.2726  0.4960
   95MOL0     H12772   8.613  -0.473   0.462  0.9973 -2.4488  2.0314
   95MOL0     H12773   8.534  -0.481   0.306  0.7529  3.0509  1.1669
   95MOL0     H12774   8.651  -0.703   0.274 -1.1106 -0.0802 -0.0070
   95MOL0     H12775   8.775  -0.583   0.290  0.9318 -1.6218  1.0934
   95MOL0     H12776   8.936  -0.597   0.486  0.0976 -0.2704  0.6956
   95MOL0     H12777   9.001  -0.702   0.754 -5.1291  0.7198 -1.2714
   95MOL0     H12778   8.984  -0.879   0.752  2.1289  0.1239  0.7388
   95MOL0     H12779   9.126  -0.890   0.543 -2.8429 -2.3655  2.4280
   95MOL0     H12780   9.139  -0.717   0.544 -0.8699 -1.6234 -2.9009
   95MOL0     H12781   9.285  -0.931   0.693 -3.0510 -1.1224  1.0133
   95MOL0     H12782   9.226  -0.826   0.817 -0.1989  2.0848 -0.2731
   95MOL0     H12783   9.301  -0.631   0.725  0.2329 -1.5199  1.0580
   95MOL0     H12784   9.373  -0.711   0.585 -1.2822  3.3972 -0.7186
   95MOL0     H12785   9.593  -0.575   0.585  4.7964  1.1067 -0.5849
   95MOL0     H12786   9.782  -0.443   0.632 -0.0672 -0.2487 -0.5510
   95MOL0     H12787  10.231  -0.545   1.019  4.2465  0.0899  2.9910
   95MOL0     H12788  10.410  -0.428   1.109 -0.8873 -0.2009 -0.9836
   95MOL0     H12789  10.389  -0.008   1.064  2.2583  1.5057 -0.3495
   95MOL0     H12790  10.390   0.016   1.238  3.9245  0.9046  1.3924
   95MOL0     H12791  10.641  -0.050   1.210 -0.4491 -0.2900  0.7783
   95MOL0     H12792  10.608  -0.014   1.040  1.9859 -0.4825  0.7143
   95MOL0     H12793  10.559   0.178   1.271  0.3604 -0.1479  1.3208
   95MOL0     H12794  10.719   0.173   1.184  0.7531 -0.0436 -1.9665
   95MOL0     H12795  10.441   0.234   1.099  1.5933 -1.4063  1.4447
   95MOL0     H12796  10.555   0.219   0.965  0.8871 -0.6317  0.5603
   95MOL0     H12797  10.585   0.414   1.187  1.2883 -1.4461 -0.1255
   95MOL0     H12798  10.521   0.450   1.018 -0.5993 -0.5691 -1.2096
   95MOL0     H12799  10.810   0.385   1.109 -0.4179 -3.0422 -2.1966
   95MOL0     H12800  10.763   0.385   0.950  0.9256  0.7431 -0.3827
   95MOL0     H12801  10.675   0.608   0.929  0.4094  0.9983  0.4752
   95MOL0     H12802  10.838   0.601   0.992  0.1049 -2.5026 -1.2683
   95MOL0     H12803  10.598   0.623   1.173 -0.6505 -1.7133 -3.4113
   95MOL0     H12804  10.760   0.628   1.229 -0.1386 -1.3074  0.1295
   95MOL0     H12805  10.190  -0.054   1.076 -1.1721  0.2160  3.7201
   95MOL0     H12806   9.999  -0.173   1.006 -1.0678 -0.0492  1.9036
   95MOL0     H12807   9.811  -0.615   1.022  0.5464  1.2454  0.7970
   95MOL0     H12808   9.604  -0.730   0.995 -0.8800 -1.6797 -0.4513
   95MOL0     H12809   7.934  -0.037   0.527 -1.4627  2.4042 -1.8028
   95MOL0     H12810   7.745   0.112   0.603  1.0198 -0.8589  0.6251
   95MOL0     H12811   7.295   0.080   0.849  0.4400  1.3408  0.9338
   95MOL0     H12812   7.100   0.225   0.925 -0.9870  0.1036  0.1534
   95MOL0     H12813   6.936   0.538   0.614  0.9020  3.1277 -0.6638
   95MOL0     H12814   7.082   0.612   0.677  2.2628 -2.3734  1.0710
   95MOL0     H12815   6.944   0.652   0.881  0.3369 -0.8461  0.0048
   95MOL0     H12816   6.795   0.588   0.817 -0.2028  0.6443  2.4322
   95MOL0     H12817   6.756   0.805   0.762  0.1906  1.2030  0.1363
   95MOL0     H12818   6.825   0.733   0.609  2.3853  1.7761 -1.4690
   95MOL0     H12819   6.975   0.921   0.805 -0.6645  0.0872 -1.0046
   95MOL0     H12820   7.044   0.840   0.652 -0.9318  2.4152 -3.4115
   95MOL0     H12821   6.820   1.091   0.447  0.7776  0.8400  0.4870
   95MOL0     H12822   7.145   0.439   0.554 -1.1249 -0.1727  1.0740
   95MOL0     H12823   7.316   0.424   0.401 -0.2889 -0.2358 -1.6496
   95MOL0     H12824   7.447   0.312   0.441  0.1462  0.1298  0.8173
   95MOL0     H12825   7.300   0.251   0.360 -4.3622  1.4176  0.7696
   96MOL0     O12826   3.703   2.972  10.111 -0.3449 -0.2048  0.5998
   96MOL0     C12827   3.751   3.018  10.217  0.1808  0.0197  0.9592
   96MOL0     O12828   3.671   3.060  10.319 -0.5588 -0.4035  0.3897
   96MOL0     C12829   3.540   3.074  10.296  0.2532  0.5248  0.3205
   96MOL0     C12830   3.468   3.004  10.388  1.2417 -0.1820 -0.5837
   96MOL0     C12831   3.328   3.015  10.399  1.2381  0.1623  0.0146
   96MOL0     C12832   3.252   3.094  10.301 -0.7224 -0.1538  0.2371
   96MOL0     O12833   3.115   3.101  10.313  0.2365 -0.1484 -0.0257
   96MOL0     C12834   3.044   3.209  10.263  0.3985 -0.1030  0.3843
   96MOL0     C12835   2.912   3.225  10.320 -1.0814  0.2330  0.2586
   96MOL0     C12836   2.910   3.190  10.468  0.9524  0.3278  0.4397
   96MOL0     C12837   2.871   3.050  10.499 -0.1619 -0.4372 -0.3263
   96MOL0     C12838   2.892   3.025  10.649 -0.2688  1.5429  0.5881
   96MOL0     C12839   2.770   3.046  10.727  0.3392 -0.7802 -0.1759
   96MOL0     C12840   2.800   3.079  10.870 -0.0942 -0.2466  0.4787
   96MOL0     C12841   2.663   3.084  10.929 -0.2483 -0.1022 -0.5332
   96MOL0     N12842   2.662   3.110  11.077 -0.9482  0.6731 -0.4356
   96MOL0     C12843   2.746   3.194  11.148 -0.1371  0.4035 -0.5104
   96MOL0     C12844   2.683   3.212  11.266  0.2595 -0.3213 -0.5122
   96MOL0     C12845   2.717   3.301  11.385 -0.6382 -0.7206 -0.3760
   96MOL0     C12846   2.695   3.225  11.516  0.5471  0.1701  0.1870
   96MOL0     C12847   2.799   3.109  11.523 -0.3815 -0.7031  0.5434
   96MOL0     C12848   2.903   3.120  11.642 -0.0713  0.0428 -0.0461
   96MOL0     O12849   2.997   3.225  11.612 -0.2491  0.6373 -0.1045
   96MOL0     C12850   3.122   3.224  11.661  0.6974  0.0213 -0.3828
   96MOL0     C12851   3.178   3.130  11.745 -0.4053 -0.6996 -0.5776
   96MOL0     C12852   3.309   3.119  11.785  0.1068  0.1826 -0.7903
   96MOL0     C12853   3.407   3.203  11.734  0.7951  1.1448  0.1953
   96MOL0     C12854   3.559   3.187  11.740 -0.1399 -0.0016 -0.0209
   96MOL0     O12855   3.636   3.280  11.676  0.5985  0.1211 -0.2054
   96MOL0     C12856   3.763   3.260  11.638 -0.8793  0.0041 -0.4243
   96MOL0     C12857   3.833   3.377  11.599  0.0515 -0.0751 -0.0256
   96MOL0     C12858   3.957   3.365  11.532 -0.4465  0.6033  0.5339
   96MOL0     C12859   4.011   3.244  11.505  0.0342  0.1172  0.2513
   96MOL0     O12860   4.133   3.254  11.437  0.0814  0.2451 -0.0075
   96MOL0     C12861   4.210   3.132  11.417 -0.3286 -0.1708  0.1157
   96MOL0     C12862   4.359   3.163  11.383  0.6766 -0.3966  0.2477
   96MOL0     C12863   4.377   3.237  11.249 -0.0282  0.4638  0.6153
   96MOL0     C12864   4.524   3.265  11.231 -0.0794 -0.6398  0.0590
   96MOL0     C12865   4.553   3.302  11.086 -0.7644  0.0364  0.6871
   96MOL0     C12866   4.706   3.291  11.060  0.2154 -0.1679 -0.4828
   96MOL0     C12867   4.719   3.319  10.908  0.5988  0.8540 -0.3383
   96MOL0     C12868   4.723   3.198  10.826 -0.0615  0.5109 -0.6082
   96MOL0    Cl12869   4.743   3.248  10.658 -0.3098 -0.3815 -0.2402
   96MOL0     C12870   3.950   3.129  11.547  0.2716 -0.4802  0.0331
   96MOL0     C12871   3.819   3.135  11.605  0.5975 -0.8286  0.5098
   96MOL0     O12872   3.600   3.094  11.808  0.3425 -0.3685 -0.1961
   96MOL0     C12873   3.347   3.307  11.649 -0.7747 -0.1402 -0.2987
   96MOL0     C12874   3.215   3.323  11.628  0.2322 -0.1194 -0.2473
   96MOL0     N12875   2.564   3.135  11.275 -0.8948 -0.1722  1.2232
   96MOL0     N12876   2.555   3.085  11.158 -0.1765  0.3613 -0.1533
   96MOL0     C12877   3.333   3.160  10.199  0.2144  0.5728 -0.2751
   96MOL0     C12878   3.475   3.149  10.201  0.4983 -0.6763  0.4640
   96MOL0     C12879   3.898   3.012  10.232 -0.1402 -0.5944  0.0498
   96MOL0     C12880   3.976   3.031  10.120 -0.3215  1.1188  0.0081
   96MOL0     C12881   4.114   3.060  10.133 -0.2643 -0.1865 -0.7306
   96MOL0     C12882   4.180   3.031  10.247  0.1205  0.5596  0.1924
   96MOL0     O12883   4.314   3.066  10.261 -0.1631  0.4346 -0.0456
   96MOL0     C12884   4.412   3.037  10.156  0.2337 -0.3225 -0.2588
   96MOL0     C12885   4.543   3.009  10.235 -0.6321 -0.5326  0.1536
   96MOL0     C12886   4.583   3.133  10.307  0.7286 -0.7750  0.2205
   96MOL0     C12887   4.733   3.139  10.310  0.2485 -0.7223  0.8548
   96MOL0     C12888   4.790   3.275  10.330  1.5550  0.1391 -0.3342
   96MOL0     C12889   4.848   3.375  10.352  0.7307  0.3219 -0.0268
   96MOL0     C12890   4.108   2.990  10.358 -0.7805  0.1051 -0.0425
   96MOL0     C12891   3.962   2.995  10.354 -0.0541  0.1205 -0.3761
   96MOL0     C12892   3.886   2.967  10.487  0.8891  0.7389 -0.1001
   96MOL0     H12893   3.518   2.950  10.467  1.1554  0.4261 -0.1112
   96MOL0     H12894   3.264   2.964  10.470  0.3873 -2.8496 -2.6281
   96MOL0     H12895   3.113   3.294  10.277  1.3961 -1.0065  1.1547
   96MOL0     H12896   3.018   3.200  10.158 -0.9143 -2.3914  0.8490
   96MOL0     H12897   2.843   3.166  10.259  1.0173 -0.8728 -1.1984
   96MOL0     H12898   2.893   3.330  10.295 -3.1230  0.0244  0.7696
   96MOL0     H12899   2.839   3.261  10.511 -1.5163 -0.9832 -1.2020
   96MOL0     H12900   3.008   3.219  10.507 -0.0651  3.5958  0.8601
   96MOL0     H12901   2.765   3.025  10.484 -0.6221  0.0337  1.7732
   96MOL0     H12902   2.937   2.984  10.443  0.2332 -0.2926 -0.0361
   96MOL0     H12903   2.909   2.921  10.676 -2.1112  1.3700  1.2694
   96MOL0     H12904   2.978   3.083  10.684  1.6893 -0.1807 -1.1003
   96MOL0     H12905   2.723   3.129  10.675 -0.0497 -1.8775 -1.6414
   96MOL0     H12906   2.689   2.973  10.725 -1.5776  1.0105  3.0583
   96MOL0     H12907   2.858   3.172  10.880  1.0508 -1.1324  2.7774
   96MOL0     H12908   2.863   2.994  10.896  2.0024  0.8300 -0.7552
   96MOL0     H12909   2.602   3.161  10.881 -1.2573  0.4836  1.5728
   96MOL0     H12910   2.614   2.988  10.909  0.1740 -0.0239 -2.0575
   96MOL0     H12911   2.841   3.231  11.114 -0.2537  2.1117  0.8758
   96MOL0     H12912   2.820   3.338  11.385 -0.6211 -0.7642 -1.1134
   96MOL0     H12913   2.654   3.391  11.391  1.4777  0.7416  2.5187
   96MOL0     H12914   2.715   3.281  11.608 -1.8916  0.1862  0.7726
   96MOL0     H12915   2.590   3.195  11.519  0.5821  0.0428  3.5477
   96MOL0     H12916   2.857   3.098  11.431  2.4515  2.6061  1.7130
   96MOL0     H12917   2.745   3.015  11.532 -2.2258  0.2783  0.3795
   96MOL0     H12918   2.963   3.028  11.638 -0.5058 -0.2549  0.1705
   96MOL0     H12919   2.849   3.128  11.737  0.1008 -2.9092  0.4080
   96MOL0     H12920   3.113   3.057  11.791 -0.9584  0.9606  1.4378
   96MOL0     H12921   3.333   3.039  11.855 -1.6835 -0.7381 -1.1665
   96MOL0     H12922   3.779   3.471  11.605  2.3352  1.3566 -0.5840
   96MOL0     H12923   4.016   3.450  11.499 -0.4728  0.3871 -0.0853
   96MOL0     H12924   4.209   3.054  11.494 -3.1813 -2.5035 -2.0593
   96MOL0     H12925   4.154   3.098  11.330  1.3714  0.3139 -1.2274
   96MOL0     H12926   4.402   3.230  11.457  1.9555 -0.4138 -0.4505
   96MOL0     H12927   4.423   3.074  11.388  2.8474  0.9597 -1.2979
   96MOL0     H12928   4.342   3.168  11.171 -3.3519 -0.1089  2.4430
   96MOL0     H12929   4.323   3.330  11.227 -1.7201 -1.0147 -1.9893
   96MOL0     H12930   4.592   3.185  11.261  0.4179 -2.0550 -4.1463
   96MOL0     H12931   4.537   3.353  11.295 -2.6845 -1.3131  1.6492
   96MOL0     H12932   4.521   3.403  11.059  1.1732  0.5414  0.1064
   96MOL0     H12933   4.497   3.235  11.020 -1.9441  1.6157  0.0151
   96MOL0     H12934   4.767   3.364  11.113  5.0097 -1.5896 -3.3957
   96MOL0     H12935   4.743   3.190  11.078  0.7717  0.0061 -0.6073
   96MOL0     H12936   4.819   3.359  10.894  2.2755 -3.3299 -1.9066
   96MOL0     H12937   4.649   3.396  10.874  0.0639 -0.0179 -1.2649
   96MOL0     H12938   4.794   3.121  10.857  0.4128  1.7673  1.5534
   96MOL0     H12939   4.629   3.142  10.837  1.5481 -2.2096  0.3018
   96MOL0     H12940   3.985   3.028  11.530  2.8577  0.5408 -1.1510
   96MOL0     H12941   3.771   3.043  11.638  0.1440 -1.4949 -1.8082
   96MOL0     H12942   3.416   3.375  11.600 -1.0048  0.2881 -0.0318
   96MOL0     H12943   3.178   3.412  11.577 -0.9886  0.3519  1.3814
   96MOL0     H12944   3.288   3.223  10.124  1.4693  0.2059 -1.3779
   96MOL0     H12945   3.527   3.196  10.119  1.6302  1.2956  2.2330
   96MOL0     H12946   3.930   3.032  10.021 -0.4166 -1.5525 -0.0508
   96MOL0     H12947   4.170   3.070  10.041  2.0728 -0.6614  0.5467
   96MOL0     H12948   4.426   3.126  10.093 -2.4084 -0.4014 -1.0765
   96MOL0     H12949   4.387   2.955  10.089  0.9277 -2.2632  1.7518
   96MOL0     H12950   4.624   2.974  10.170 -0.7505 -0.8148  0.1551
   96MOL0     H12951   4.530   2.927  10.306 -1.6193 -2.9729 -2.6917
   96MOL0     H12952   4.544   3.134  10.409 -0.1680 -1.0026 -0.1022
   96MOL0     H12953   4.543   3.221  10.254  0.3327 -1.1826 -0.1674
   96MOL0     H12954   4.761   3.078  10.395 -1.4552 -1.0508  1.2182
   96MOL0     H12955   4.784   3.095  10.224  0.1292  2.6322 -1.1364
   96MOL0     H12956   4.915   3.459  10.352  0.4383  0.5582  0.7145
   96MOL0     H12957   4.158   2.985  10.455  0.7136  2.1323 -0.6161
   96MOL0     H12958   3.811   2.887  10.488  0.7385  0.8812  0.2208
   96MOL0     H12959   3.960   2.936  10.562 -0.7567 -2.0580  0.5243
   96MOL0     H12960   3.833   3.057  10.518 -2.9316 -1.8768  1.7343
   97MOL0     O12961   2.201   9.518  10.560  0.2287  0.9517 -0.3750
   97MOL0     C12962   2.117   9.595  10.538  0.2689 -0.2759 -0.5312
   97MOL0     O12963   2.057   9.614  10.414  0.2487 -0.2652 -0.1174
   97MOL0     C12964   2.101   9.539  10.303 -0.0706 -0.1181 -0.8447
   97MOL0     C12965   2.008   9.530  10.194 -0.6179  0.6391  0.1188
   97MOL0     C12966   2.047   9.460  10.080 -0.0952  0.1199  0.0444
   97MOL0     C12967   2.182   9.409  10.063 -0.1570  0.2349  0.5402
   97MOL0     O12968   2.223   9.335   9.954  0.2436 -0.4696  0.5049
   97MOL0     C12969   2.140   9.227   9.917  0.3615 -0.1297 -0.3184
   97MOL0     C12970   2.195   9.167   9.787  1.0294 -0.3499  0.6889
   97MOL0     C12971   2.309   9.066   9.814  0.5052  1.3626 -0.5049
   97MOL0     C12972   2.420   9.138   9.891 -0.8663  0.3760  0.0790
   97MOL0     C12973   2.550   9.051   9.893  0.2205  0.1231  1.6054
   97MOL0     C12974   2.542   8.908   9.953  0.3230  0.3189  0.0761
   97MOL0     C12975   2.671   8.820   9.935  0.8437  0.0763 -0.0916
   97MOL0     C12976   2.708   8.784   9.789  0.4749 -0.6525 -0.1766
   97MOL0     N12977   2.594   8.736   9.713 -0.9320  0.3349 -0.5336
   97MOL0     C12978   2.509   8.815   9.642  0.3276  0.8356  0.8489
   97MOL0     C12979   2.425   8.733   9.582  0.6278 -1.4010 -0.8693
   97MOL0     C12980   2.301   8.780   9.520 -0.1948  0.2642 -0.2670
   97MOL0     C12981   2.304   8.772   9.370 -0.0088 -0.0706  0.0655
   97MOL0     C12982   2.202   8.669   9.317  0.2637  0.1992  0.9059
   97MOL0     C12983   2.255   8.559   9.227  0.1019  0.0215  0.5678
   97MOL0     O12984   2.338   8.631   9.125 -0.1545  0.0017  0.5138
   97MOL0     C12985   2.418   8.554   9.049 -0.2608  0.6703 -0.0384
   97MOL0     C12986   2.367   8.500   8.931 -0.3120 -0.0508  0.0250
   97MOL0     C12987   2.452   8.405   8.869  0.4735 -0.6602 -0.2708
   97MOL0     C12988   2.578   8.373   8.920 -0.9984  0.1651  0.5443
   97MOL0     C12989   2.667   8.269   8.865 -0.9056  0.6727 -0.0181
   97MOL0     O12990   2.796   8.306   8.856  0.0925  0.1397  0.0725
   97MOL0     C12991   2.886   8.254   8.759 -0.2446  0.6808  0.0984
   97MOL0     C12992   3.021   8.277   8.786 -0.6397  0.0773  0.0330
   97MOL0     C12993   3.116   8.213   8.702  0.4631 -0.2509 -0.2189
   97MOL0     C12994   3.088   8.139   8.589  0.8110 -0.5704 -0.2474
   97MOL0     O12995   3.195   8.081   8.523  0.2586 -0.6806 -0.3601
   97MOL0     C12996   3.185   7.997   8.402  0.8191 -0.2205  0.3079
   97MOL0     C12997   3.306   7.920   8.363 -0.1254  0.1482 -1.0639
   97MOL0     C12998   3.416   8.020   8.332  0.0113 -0.0697 -0.2661
   97MOL0     C12999   3.407   8.095   8.192  0.1676 -1.2249 -0.4131
   97MOL0     C13000   3.545   8.121   8.138  0.4856 -0.2117  0.1371
   97MOL0     C13001   3.534   8.168   7.988  0.6054 -0.0246  0.3956
   97MOL0     C13002   3.664   8.200   7.915 -0.8550 -0.8386  0.5019
   97MOL0     C13003   3.660   8.230   7.768  0.1642  0.6182  0.6932
   97MOL0    Cl13004   3.570   8.108   7.663  0.2193  0.7836 -0.0206
   97MOL0     C13005   2.951   8.121   8.564 -0.3623 -1.5206  0.6730
   97MOL0     C13006   2.851   8.171   8.651 -1.3976 -0.0841  0.4358
   97MOL0     O13007   2.614   8.163   8.830  0.0194  0.1782  0.3472
   97MOL0     C13008   2.622   8.418   9.042 -0.6915  0.1714 -0.3488
   97MOL0     C13009   2.543   8.513   9.100 -0.0140 -0.6060  0.4107
   97MOL0     N13010   2.450   8.600   9.619  0.3212 -0.2907 -0.0976
   97MOL0     N13011   2.557   8.604   9.699  0.2602 -0.3668  0.5331
   97MOL0     C13012   2.276   9.431  10.156  0.3880 -0.0165 -0.0451
   97MOL0     C13013   2.233   9.499  10.277  0.3545  0.2127 -0.2860
   97MOL0     C13014   2.051   9.662  10.653 -0.1733 -0.3431  0.5187
   97MOL0     C13015   2.036   9.803  10.633 -0.0850  0.7083 -0.0692
   97MOL0     C13016   1.974   9.877  10.735  0.2183 -0.1939 -0.1922
   97MOL0     C13017   1.934   9.816  10.849  0.1572  0.4690  0.4212
   97MOL0     O13018   1.886   9.888  10.951  0.0786 -0.7566 -0.1055
   97MOL0     C13019   1.973   9.894  11.063 -0.0435  0.1712 -0.9887
   97MOL0     C13020   1.918   9.976  11.179  0.2106 -0.5523 -0.0288
   97MOL0     C13021   2.022   9.987  11.289 -0.1253 -0.3726  0.4868
   97MOL0     C13022   2.019   9.859  11.370 -0.0840  0.3239 -1.4707
   97MOL0     C13023   2.133   9.863  11.461  0.2498 -0.8186 -0.7513
   97MOL0     C13024   2.226   9.860  11.546  0.3884 -0.5167  0.3590
   97MOL0     C13025   1.943   9.676  10.859 -0.4104  0.0560 -0.7644
   97MOL0     C13026   2.012   9.598  10.766  0.9116 -0.4451 -0.8096
   97MOL0     C13027   2.020   9.448  10.776  0.2881 -0.1062 -0.1685
   97MOL0     H13028   1.910   9.575  10.199 -0.1444  1.9157 -1.5008
   97MOL0     H13029   1.974   9.450  10.000  1.9894  0.2156 -1.9591
   97MOL0     H13030   2.114   9.157   9.997 -3.1594  1.7636  0.4087
   97MOL0     H13031   2.040   9.264   9.892 -0.1204 -1.7680 -0.9715
   97MOL0     H13032   2.214   9.236   9.704 -2.6812 -2.4424 -2.2576
   97MOL0     H13033   2.121   9.104   9.737  2.4586 -0.2797 -1.6317
   97MOL0     H13034   2.347   9.031   9.718 -0.3529 -0.5310 -0.2187
   97MOL0     H13035   2.279   8.971   9.860  2.0497  0.3925 -1.4147
   97MOL0     H13036   2.448   9.227   9.835  4.6167 -2.3846 -2.3526
   97MOL0     H13037   2.392   9.162   9.994  3.7161  1.4118  1.3443
   97MOL0     H13038   2.585   9.039   9.789 -1.4029 -1.4927  1.2092
   97MOL0     H13039   2.630   9.102   9.949  2.0209  0.5433 -1.1110
   97MOL0     H13040   2.517   8.921  10.059  0.8053  0.0418  0.2272
   97MOL0     H13041   2.458   8.859   9.904 -2.9314  3.0129  2.4832
   97MOL0     H13042   2.662   8.724   9.985 -0.0364  0.5211  0.6291
   97MOL0     H13043   2.751   8.877   9.984  0.4978  1.0394 -0.6085
   97MOL0     H13044   2.756   8.871   9.743  1.3901 -0.7929  0.4785
   97MOL0     H13045   2.782   8.704   9.785 -0.9623 -2.2031  1.7684
   97MOL0     H13046   2.512   8.922   9.620  0.2832  0.4141 -1.4560
   97MOL0     H13047   2.227   8.716   9.568 -1.0967  2.5922  1.6565
   97MOL0     H13048   2.289   8.885   9.548  2.5175 -0.1503  3.1438
   97MOL0     H13049   2.275   8.868   9.327 -1.4148 -1.3695 -2.0996
   97MOL0     H13050   2.402   8.750   9.325 -1.5675 -2.3427 -2.5656
   97MOL0     H13051   2.131   8.723   9.254 -0.7895  0.8647  2.5876
   97MOL0     H13052   2.164   8.608   9.399  0.2056  0.4992  1.1059
   97MOL0     H13053   2.172   8.502   9.185  1.7924 -2.1025 -0.1029
   97MOL0     H13054   2.310   8.488   9.290 -2.0149 -0.9632  1.4184
   97MOL0     H13055   2.268   8.523   8.895 -0.3202 -0.8734 -0.4994
   97MOL0     H13056   2.419   8.353   8.779 -0.3655 -4.1236  1.8515
   97MOL0     H13057   3.034   8.336   8.876 -4.2192  1.7715 -0.3779
   97MOL0     H13058   3.221   8.233   8.719  1.3892 -0.0497 -4.9405
   97MOL0     H13059   3.103   7.924   8.412 -0.5869  1.4568  1.6894
   97MOL0     H13060   3.161   8.059   8.315  0.0370 -3.4088 -1.9532
   97MOL0     H13061   3.337   7.863   8.451 -0.1983  1.2752 -0.2831
   97MOL0     H13062   3.278   7.847   8.286  0.2226 -0.7544 -0.3483
   97MOL0     H13063   3.432   8.091   8.414 -0.4967 -0.7892  0.4810
   97MOL0     H13064   3.503   7.955   8.319 -0.6294 -0.6264 -1.9797
   97MOL0     H13065   3.356   8.191   8.208  2.3738 -0.5105  3.6629
   97MOL0     H13066   3.346   8.032   8.127  0.2102 -0.2009 -1.4765
   97MOL0     H13067   3.604   8.031   8.152  0.8682  0.4091  3.1292
   97MOL0     H13068   3.589   8.199   8.201 -2.9946  1.0571  1.2580
   97MOL0     H13069   3.479   8.090   7.936  0.7180 -0.1930  0.5301
   97MOL0     H13070   3.469   8.257   7.979 -2.8677 -2.1350  2.3850
   97MOL0     H13071   3.724   8.109   7.925 -0.8121 -1.5023 -3.8176
   97MOL0     H13072   3.719   8.287   7.953  0.6292 -0.5453 -2.0914
   97MOL0     H13073   3.611   8.327   7.755  0.3489  0.6213 -0.0187
   97MOL0     H13074   3.762   8.245   7.732  1.5292 -2.8379  2.5841
   97MOL0     H13075   2.916   8.061   8.480  2.4484 -1.2994 -0.8151
   97MOL0     H13076   2.750   8.157   8.616 -2.0867 -2.3907  3.0073
   97MOL0     H13077   2.719   8.389   9.078 -0.3613 -0.5908 -1.7673
   97MOL0     H13078   2.582   8.555   9.192 -0.3246 -0.5056  0.4963
   97MOL0     H13079   2.380   9.400  10.147  0.4775  0.3750 -0.3935
   97MOL0     H13080   2.314   9.515  10.348  1.7204  0.1573 -1.7592
   97MOL0     H13081   2.075   9.842  10.540  0.8315  0.2035  0.0958
   97MOL0     H13082   1.968   9.984  10.722  3.3096  0.0331 -0.6178
   97MOL0     H13083   2.076   9.920  11.038 -0.5990  0.7712 -2.7618
   97MOL0     H13084   1.980   9.789  11.093 -0.4850  0.2923 -0.4428
   97MOL0     H13085   1.822   9.940  11.219 -1.4413  2.5663 -0.8773
   97MOL0     H13086   1.906  10.079  11.144 -0.7798  0.0631  1.9696
   97MOL0     H13087   2.005  10.074  11.353 -0.4231  1.4024 -1.8830
   97MOL0     H13088   2.117  10.006  11.239 -0.5976  1.5312  0.2473
   97MOL0     H13089   1.921   9.862  11.418 -0.9173 -1.4140 -2.9360
   97MOL0     H13090   2.015   9.764  11.316  2.0111 -1.1804  0.7924
   97MOL0     H13091   2.315   9.865  11.606 -0.1771 -0.1685  1.1892
   97MOL0     H13092   1.889   9.637  10.945 -0.0963  0.8548 -0.1911
   97MOL0     H13093   1.967   9.412  10.687 -1.4934  1.9898 -0.0371
   97MOL0     H13094   2.121   9.407  10.784 -0.6437 -3.3668 -2.6211
   97MOL0     H13095   1.969   9.414  10.867 -0.8502  4.0687  0.9540
   98MOL0     O13096   8.695   0.170   2.064  0.0451 -0.0719  0.9711
   98MOL0     C13097   8.748   0.264   2.124 -0.5094 -0.0027 -0.0372
   98MOL0     O13098   8.880   0.298   2.114  0.3218 -0.1344 -0.0863
   98MOL0     C13099   8.975   0.193   2.104 -0.7610  0.7432  0.0155
   98MOL0     C13100   9.103   0.236   2.063 -0.7744 -0.9577  0.4858
   98MOL0     C13101   9.208   0.148   2.061 -0.0558  0.9377 -0.2079
   98MOL0     C13102   9.193   0.017   2.099 -0.6006 -0.6159 -0.4277
   98MOL0     O13103   9.300  -0.056   2.091  0.5168  0.0487 -1.1438
   98MOL0     C13104   9.354  -0.133   2.200 -0.2426  0.0830 -0.1361
   98MOL0     C13105   9.416  -0.052   2.312  0.0125  0.1022  1.2389
   98MOL0     C13106   9.558  -0.006   2.281 -0.3586 -0.0330 -0.5478
   98MOL0     C13107   9.589   0.125   2.353  0.2453 -0.1537  0.4751
   98MOL0     C13108   9.717   0.209   2.299 -0.0581  0.3783 -0.0972
   98MOL0     C13109   9.848   0.130   2.331  0.2614  0.2269  0.4524
   98MOL0     C13110   9.978   0.185   2.271 -0.1574  0.3045 -0.6544
   98MOL0     C13111  10.009   0.322   2.325 -0.7137  1.1947 -0.7421
   98MOL0     N13112  10.152   0.354   2.332  0.4595  0.0121 -0.1863
   98MOL0     C13113  10.226   0.394   2.226 -0.3238  0.6514 -0.2504
   98MOL0     C13114  10.354   0.374   2.269 -0.1162  0.0582  0.3970
   98MOL0     C13115  10.483   0.397   2.191  0.6749  0.2000  0.1900
   98MOL0     C13116  10.505   0.539   2.150 -0.4068 -0.3891  0.3399
   98MOL0     C13117  10.413   0.587   2.036 -0.4270 -0.6387  0.2285
   98MOL0     C13118  10.343   0.728   2.053  0.4084 -0.0905 -0.5226
   98MOL0     O13119  10.424   0.818   2.131  0.5995 -1.4280 -0.2177
   98MOL0     C13120  10.365   0.940   2.182 -0.1815 -0.2008  0.3697
   98MOL0     C13121  10.252   1.010   2.133 -1.0114  0.4690 -0.5219
   98MOL0     C13122  10.204   1.140   2.177  0.1052 -0.0759  0.1522
   98MOL0     C13123  10.285   1.213   2.272  0.4353  0.1050  0.2198
   98MOL0     C13124  10.257   1.348   2.322  0.0119 -0.2950  0.8832
   98MOL0     O13125  10.366   1.417   2.377 -0.0603 -0.7279 -0.3654
   98MOL0     C13126  10.345   1.546   2.395  0.2811  0.0205 -0.1090
   98MOL0     C13127  10.430   1.629   2.323 -0.7019  0.4463 -0.2930
   98MOL0     C13128  10.417   1.763   2.346 -0.0580 -0.0084  0.3442
   98MOL0     C13129  10.338   1.821   2.440 -0.4138  1.2879  0.6585
   98MOL0     O13130  10.325   1.953   2.471 -0.4901  0.9009 -0.0526
   98MOL0     C13131  10.382   2.045   2.379 -0.3813 -0.1547  0.0127
   98MOL0     C13132  10.384   2.188   2.438  0.2567 -0.4727 -0.4872
   98MOL0     C13133  10.242   2.255   2.428 -1.6433  0.0379 -0.2375
   98MOL0     C13134  10.218   2.387   2.508  0.2524  0.1976  1.6603
   98MOL0     C13135  10.094   2.450   2.449 -0.6654  0.2634  0.0948
   98MOL0     C13136  10.055   2.576   2.528  0.4098  0.0105 -0.1391
   98MOL0     C13137   9.907   2.602   2.525 -1.3218 -0.0327 -0.0279
   98MOL0     C13138   9.857   2.649   2.387  0.1743  0.4735  0.2248
   98MOL0    Cl13139   9.935   2.793   2.330 -0.1027 -0.0208  0.2078
   98MOL0     C13140  10.264   1.733   2.517  0.0197  0.1152 -0.6964
   98MOL0     C13141  10.256   1.598   2.492 -0.4588  0.9380  0.0652
   98MOL0     O13142  10.150   1.401   2.283  0.1710  0.4099  0.1171
   98MOL0     C13143  10.396   1.135   2.323  1.0637  0.4025  0.5220
   98MOL0     C13144  10.434   1.003   2.283 -0.7215 -0.4222 -0.1051
   98MOL0     N13145  10.341   0.323   2.391 -0.7854 -0.1312 -0.6375
   98MOL0     N13146  10.229   0.305   2.431 -0.6534 -0.3063 -0.4018
   98MOL0     C13147   9.070  -0.027   2.132  0.2260 -0.1827 -1.0169
   98MOL0     C13148   8.961   0.060   2.136 -0.8549 -0.0488  0.0889
   98MOL0     C13149   8.674   0.341   2.234 -0.5359  0.0182  0.2975
   98MOL0     C13150   8.753   0.422   2.316 -0.1879 -0.3289  1.2696
   98MOL0     C13151   8.689   0.494   2.423 -0.5950  0.3789  0.5512
   98MOL0     C13152   8.558   0.488   2.443  0.3206  0.5234 -1.0939
   98MOL0     O13153   8.510   0.560   2.551  0.0439 -1.0239 -0.1324
   98MOL0     C13154   8.374   0.544   2.584  0.6257  0.3011  0.3180
   98MOL0     C13155   8.359   0.615   2.719 -0.1420  0.2674 -0.8745
   98MOL0     C13156   8.211   0.659   2.753 -0.7223  0.0123 -0.2701
   98MOL0     C13157   8.195   0.757   2.866 -0.1514  0.4592  0.5540
   98MOL0     C13158   8.053   0.806   2.870 -0.1719  0.2620  0.1513
   98MOL0     C13159   7.945   0.857   2.899  0.1654  0.1509  0.6664
   98MOL0     C13160   8.471   0.405   2.358 -0.0925  0.6457 -0.6718
   98MOL0     C13161   8.536   0.323   2.263 -0.6346  0.1148 -0.1642
   98MOL0     C13162   8.462   0.216   2.199  0.9134 -0.2326 -0.2257
   98MOL0     H13163   9.121   0.341   2.042  1.2027 -1.8857 -3.5118
   98MOL0     H13164   9.306   0.180   2.028  1.8505 -0.0512  3.8224
   98MOL0     H13165   9.277  -0.193   2.249 -3.3879  3.2580 -0.7747
   98MOL0     H13166   9.428  -0.192   2.144 -0.4143  0.7765 -1.1105
   98MOL0     H13167   9.425  -0.121   2.396 -2.0060 -2.1064 -0.2359
   98MOL0     H13168   9.357   0.039   2.324  3.1658  3.1720 -3.0810
   98MOL0     H13169   9.561   0.009   2.173  0.4077 -1.5075 -0.7607
   98MOL0     H13170   9.643  -0.071   2.306  0.4261  0.5105 -1.7466
   98MOL0     H13171   9.504   0.193   2.357  1.4299  1.5887 -1.7574
   98MOL0     H13172   9.614   0.089   2.453 -2.7725 -1.1632  0.9668
   98MOL0     H13173   9.707   0.220   2.190 -0.2271  0.2813 -0.0917
   98MOL0     H13174   9.714   0.306   2.350  3.2500  1.3754 -1.4822
   98MOL0     H13175   9.850   0.120   2.440 -0.9341 -1.6514  0.3514
   98MOL0     H13176   9.845   0.026   2.298 -0.7405  0.2546  0.4194
   98MOL0     H13177   9.957   0.194   2.164 -0.4610 -4.1110 -1.1523
   98MOL0     H13178  10.061   0.115   2.288 -1.9794 -1.3890  1.8351
   98MOL0     H13179   9.962   0.398   2.263 -0.2227  1.2278 -1.0836
   98MOL0     H13180   9.964   0.335   2.423  0.2655 -0.2256 -0.0597
   98MOL0     H13181  10.193   0.418   2.126  0.6820  1.9523 -0.2807
   98MOL0     H13182  10.569   0.374   2.254  0.5376 -0.3096  0.1903
   98MOL0     H13183  10.491   0.340   2.098  0.6978 -0.2393  0.4603
   98MOL0     H13184  10.493   0.589   2.246 -0.3205 -0.9009  0.6244
   98MOL0     H13185  10.607   0.551   2.114 -0.8962 -0.1425 -0.9978
   98MOL0     H13186  10.342   0.513   1.999 -2.4660  1.5418 -0.4507
   98MOL0     H13187  10.475   0.599   1.946 -1.4162  0.6685 -0.3165
   98MOL0     H13188  10.250   0.707   2.106  0.4570  2.0162  0.4907
   98MOL0     H13189  10.328   0.769   1.952  1.0269  1.3185 -0.0730
   98MOL0     H13190  10.190   0.964   2.057 -0.7006  1.2309 -1.2484
   98MOL0     H13191  10.115   1.178   2.128  0.9227 -0.4651 -1.7248
   98MOL0     H13192  10.493   1.592   2.243 -1.3605  0.2174 -0.7100
   98MOL0     H13193  10.480   1.831   2.290 -0.8919  1.4731  1.1371
   98MOL0     H13194  10.487   2.021   2.360  0.0978  0.8126  1.3111
   98MOL0     H13195  10.329   2.050   2.284 -0.8620  3.3746  0.3300
   98MOL0     H13196  10.414   2.179   2.542 -3.3572 -0.2461  0.7061
   98MOL0     H13197  10.457   2.249   2.383  0.4050  0.5252  0.7903
   98MOL0     H13198  10.213   2.278   2.326  0.7962 -1.4250 -1.3424
   98MOL0     H13199  10.166   2.184   2.463 -1.3370 -1.0202 -1.6840
   98MOL0     H13200  10.304   2.453   2.514 -0.3019  0.9625  1.3428
   98MOL0     H13201  10.203   2.350   2.611  2.9212 -0.1181  1.9939
   98MOL0     H13202  10.011   2.378   2.448  0.9549 -1.7034  1.0559
   98MOL0     H13203  10.112   2.478   2.345 -1.3016 -1.4878 -0.5247
   98MOL0     H13204  10.084   2.580   2.633 -0.4222  0.1121  0.0964
   98MOL0     H13205  10.116   2.650   2.474 -1.3281  0.4307 -1.6352
   98MOL0     H13206   9.885   2.685   2.593 -2.2827  1.3740 -1.9557
   98MOL0     H13207   9.852   2.511   2.552  0.0263 -0.8148  0.1384
   98MOL0     H13208   9.875   2.574   2.310 -1.3095  1.0353 -0.7003
   98MOL0     H13209   9.750   2.667   2.379  0.5932  3.4380  0.2061
   98MOL0     H13210  10.202   1.779   2.593 -0.5078  2.9600 -2.7028
   98MOL0     H13211  10.220   1.520   2.558  2.5693 -1.4527 -0.8519
   98MOL0     H13212  10.450   1.178   2.407  0.6136 -2.5478  2.4556
   98MOL0     H13213  10.520   0.954   2.327  2.2139  2.0208 -2.6442
   98MOL0     H13214   9.062  -0.131   2.162 -1.3588  0.2882  0.3005
   98MOL0     H13215   8.863   0.027   2.168  0.2407 -0.5396  3.3303
   98MOL0     H13216   8.860   0.431   2.297 -0.0719 -2.4742  0.6170
   98MOL0     H13217   8.751   0.536   2.502  0.7264 -0.9396  0.2762
   98MOL0     H13218   8.331   0.443   2.581 -0.6806  0.8523 -1.3780
   98MOL0     H13219   8.320   0.599   2.507  3.1136  0.6207 -1.3433
   98MOL0     H13220   8.420   0.706   2.724  1.1483 -0.6414  1.1115
   98MOL0     H13221   8.398   0.540   2.789 -1.0183  1.6993  1.2367
   98MOL0     H13222   8.149   0.575   2.787 -1.6025  0.5489 -0.5086
   98MOL0     H13223   8.171   0.703   2.661  1.7140 -1.5134 -2.1858
   98MOL0     H13224   8.212   0.711   2.965 -0.0455 -1.1136 -0.1636
   98MOL0     H13225   8.252   0.846   2.840  1.5269 -1.0561 -1.3311
   98MOL0     H13226   7.846   0.887   2.925 -0.2162 -0.7083  0.2737
   98MOL0     H13227   8.365   0.405   2.384  0.4833  2.9797  2.2728
   98MOL0     H13228   8.463   0.238   2.092 -0.3625  0.2778 -0.1513
   98MOL0     H13229   8.521   0.126   2.218  1.9083  0.0816 -1.7076
   98MOL0     H13230   8.363   0.208   2.245 -0.4778  3.3747 -2.1834
   99MOL0     O13231   3.510   0.148  10.492  0.2272 -0.3159 -0.3565
   99MOL0     C13232   3.554   0.165  10.384 -0.4020 -0.4034 -0.4785
   99MOL0     O13233   3.683   0.171  10.346  0.3164  0.1741  0.5050
   99MOL0     C13234   3.778   0.176  10.444  0.0684 -0.1363  0.2240
   99MOL0     C13235   3.874   0.075  10.436 -0.8827  0.3014  0.0677
   99MOL0     C13236   3.976   0.051  10.540  0.1428  0.0950  0.5421
   99MOL0     C13237   3.970   0.126  10.658 -0.3971  0.0608  0.0588
   99MOL0     O13238   4.051   0.100  10.770  0.2137  0.3667 -0.3185
   99MOL0     C13239   4.163   0.013  10.764  1.1238 -0.1361 -0.5893
   99MOL0     C13240   4.222  -0.002  10.897  0.1536 -0.3491  0.3708
   99MOL0     C13241   4.131  -0.088  10.993 -0.3936  0.1586 -0.1237
   99MOL0     C13242   4.175  -0.065  11.137  0.0283  0.3762 -0.6078
   99MOL0     C13243   4.079  -0.128  11.243 -0.6877  0.0787  0.3430
   99MOL0     C13244   4.125  -0.127  11.383 -0.6822 -0.1915  0.7284
   99MOL0     C13245   4.263  -0.195  11.419  0.7923  1.1136 -0.2698
   99MOL0     C13246   4.273  -0.348  11.400  0.1957 -0.9197  0.2035
   99MOL0     N13247   4.263  -0.403  11.259  0.2708  0.1919 -0.3304
   99MOL0     C13248   4.348  -0.368  11.157 -0.5242 -1.1976 -1.4345
   99MOL0     C13249   4.296  -0.428  11.051  0.5670 -0.1012 -1.1661
   99MOL0     C13250   4.359  -0.424  10.916  0.4877  0.2377  0.3562
   99MOL0     C13251   4.276  -0.348  10.816 -0.0492 -0.5728 -0.1079
   99MOL0     C13252   4.276  -0.408  10.677  1.1155  0.2394  0.1186
   99MOL0     C13253   4.408  -0.407  10.604 -0.0764 -0.4955  0.1025
   99MOL0     O13254   4.450  -0.269  10.578 -0.2721 -0.3363 -0.1347
   99MOL0     C13255   4.579  -0.260  10.523  0.4738  0.2659  0.1674
   99MOL0     C13256   4.609  -0.134  10.482 -1.2976  0.1367 -0.4085
   99MOL0     C13257   4.736  -0.114  10.433 -0.2505 -0.5416  0.8998
   99MOL0     C13258   4.835  -0.202  10.408 -0.5766  0.7773 -0.3069
   99MOL0     C13259   4.967  -0.171  10.350 -1.0709  0.2510 -0.4585
   99MOL0     O13260   5.036  -0.273  10.311 -0.7656  0.7653  0.8248
   99MOL0     C13261   5.172  -0.257  10.270  0.3829 -0.2966 -0.5624
   99MOL0     C13262   5.255  -0.213  10.376  0.2855  0.2745  0.4464
   99MOL0     C13263   5.387  -0.191  10.353 -0.3187  0.7446  0.6957
   99MOL0     C13264   5.443  -0.221  10.231  0.5350  0.7215  0.4436
   99MOL0     O13265   5.577  -0.216  10.196 -0.4623  0.1898  0.0283
   99MOL0     C13266   5.673  -0.134  10.268  0.3465  0.2686  0.8988
   99MOL0     C13267   5.791  -0.095  10.193  0.5065  0.3334  0.1499
   99MOL0     C13268   5.875  -0.217  10.182  0.0462  0.0455 -0.1348
   99MOL0     C13269   6.014  -0.174  10.120  0.7526 -0.2097  1.0677
   99MOL0     C13270   6.136  -0.205  10.207  0.6451 -0.1468  1.0665
   99MOL0     C13271   6.142  -0.132  10.346 -0.5321 -0.6436 -0.0707
   99MOL0     C13272   6.280  -0.143  10.409  0.1700  0.1906  0.1513
   99MOL0     C13273   6.299  -0.271  10.479  0.2733 -0.1811 -0.7884
   99MOL0    Cl13274   6.349  -0.403  10.358  0.2998  0.1032 -0.4421
   99MOL0     C13275   5.361  -0.275  10.122 -0.5179 -0.3012 -0.0163
   99MOL0     C13276   5.219  -0.283  10.138 -0.8902  1.1676  1.0734
   99MOL0     O13277   4.983  -0.056  10.318  0.1339 -0.2208  0.1681
   99MOL0     C13278   4.803  -0.333  10.457  0.1404  0.0326  0.1914
   99MOL0     C13279   4.678  -0.362  10.514 -0.5149  0.1163  0.3713
   99MOL0     N13280   4.174  -0.492  11.088 -0.8463  0.4132 -0.2930
   99MOL0     N13281   4.159  -0.475  11.213 -0.8145 -0.2234 -0.2997
   99MOL0     C13282   3.875   0.231  10.661  0.1492 -0.5657 -0.8729
   99MOL0     C13283   3.783   0.261  10.558 -1.1014  0.8255 -0.5158
   99MOL0     C13284   3.453   0.158  10.270  0.1273 -0.4217 -0.5895
   99MOL0     C13285   3.491   0.093  10.154  0.3008 -0.2368 -0.1107
   99MOL0     C13286   3.418   0.100  10.036 -0.6595  0.0956  0.0741
   99MOL0     C13287   3.299   0.169  10.041 -0.2854  0.4378  0.3642
   99MOL0     O13288   3.242   0.178   9.916 -0.3135 -0.8671  0.4136
   99MOL0     C13289   3.099   0.169   9.913 -0.5682 -0.8521  1.2061
   99MOL0     C13290   3.057   0.145   9.773  0.5216  0.2776  0.2138
   99MOL0     C13291   3.130   0.027   9.713 -0.8005  0.1870  1.2396
   99MOL0     C13292   3.088  -0.026   9.577  0.3670  0.3583  0.5373
   99MOL0     C13293   3.109   0.066   9.472  0.4759 -0.8738  1.1842
   99MOL0     C13294   3.128   0.151   9.389 -1.5484  0.0350 -0.0686
   99MOL0     C13295   3.256   0.237  10.155  0.2171  0.2446  0.9793
   99MOL0     C13296   3.325   0.225  10.272 -0.7905  0.0210 -0.2020
   99MOL0     C13297   3.274   0.297  10.395  0.0643 -0.5238 -0.5787
   99MOL0     H13298   3.881  -0.000  10.358  2.1516 -1.6570  2.0276
   99MOL0     H13299   4.047  -0.031  10.544 -0.6930 -0.6113  1.6046
   99MOL0     H13300   4.135  -0.084  10.723  2.2250 -0.4290 -0.6927
   99MOL0     H13301   4.235   0.055  10.693  1.1263  2.7752  0.9769
   99MOL0     H13302   4.236   0.098  10.939  0.4413 -0.5869  0.8388
   99MOL0     H13303   4.322  -0.044  10.876  1.3627  2.2444  0.5541
   99MOL0     H13304   4.130  -0.194  10.967 -0.0959 -0.1064  0.8732
   99MOL0     H13305   4.031  -0.046  10.985 -1.1441 -1.4614  0.4543
   99MOL0     H13306   4.274  -0.107  11.156 -0.9168 -2.6389 -1.6956
   99MOL0     H13307   4.178   0.043  11.153  1.6257  0.3179 -0.4314
   99MOL0     H13308   3.985  -0.073  11.240  1.1715  3.6142 -3.6060
   99MOL0     H13309   4.064  -0.231  11.211  0.1158 -0.0818  0.4603
   99MOL0     H13310   4.138  -0.020  11.403 -0.1217 -0.2688  0.7886
   99MOL0     H13311   4.047  -0.162  11.452  0.6564  0.2293  2.5425
   99MOL0     H13312   4.271  -0.193  11.528  1.4981  0.3092 -0.2975
   99MOL0     H13313   4.340  -0.142  11.362  2.7617 -2.1286 -0.9024
   99MOL0     H13314   4.370  -0.377  11.442  0.3717 -2.4360 -1.1571
   99MOL0     H13315   4.193  -0.400  11.453 -1.1513  1.2880  0.4810
   99MOL0     H13316   4.443  -0.315  11.162  0.3449 -2.7051 -1.2705
   99MOL0     H13317   4.453  -0.368  10.924  0.2396  0.5250  1.4925
   99MOL0     H13318   4.385  -0.525  10.883 -2.0956 -0.5213  0.4430
   99MOL0     H13319   4.171  -0.335  10.844  0.4632  1.5525  1.0428
   99MOL0     H13320   4.326  -0.252  10.799  1.6755 -1.6532 -1.4303
   99MOL0     H13321   4.199  -0.360  10.617  0.3344 -0.2125  0.7331
   99MOL0     H13322   4.258  -0.515  10.692  0.1673  0.5935  1.7758
   99MOL0     H13323   4.396  -0.462  10.510 -2.3598  0.7049 -0.3841
   99MOL0     H13324   4.492  -0.441  10.666  1.5825  6.6485  2.6949
   99MOL0     H13325   4.546  -0.046  10.488 -1.1666  0.1408  3.7688
   99MOL0     H13326   4.743  -0.015  10.390 -0.1565 -2.4141 -4.0692
   99MOL0     H13327   5.204  -0.196  10.470 -4.0268  1.6322 -1.8422
   99MOL0     H13328   5.438  -0.151  10.441 -2.5601  2.0688  1.4765
   99MOL0     H13329   5.628  -0.042  10.308 -2.2637 -0.3911 -0.3182
   99MOL0     H13330   5.704  -0.196  10.352 -1.0390 -0.8905  0.6041
   99MOL0     H13331   5.766  -0.061  10.092  0.0242 -2.8581 -0.9210
   99MOL0     H13332   5.844  -0.016  10.247  3.2296 -1.0059 -0.3711
   99MOL0     H13333   5.900  -0.262  10.278 -0.9330  5.6156  3.2244
   99MOL0     H13334   5.820  -0.282  10.114 -3.0144 -0.0487  2.2156
   99MOL0     H13335   6.018  -0.065  10.114 -1.6147 -0.1702 -2.1167
   99MOL0     H13336   6.024  -0.226  10.024 -3.1836  1.0507 -0.2233
   99MOL0     H13337   6.223  -0.173  10.148 -1.1269  1.8378 -0.6352
   99MOL0     H13338   6.145  -0.312  10.229 -0.9174 -0.4839  0.2261
   99MOL0     H13339   6.125  -0.027  10.320  0.4075 -0.6520 -0.7794
   99MOL0     H13340   6.065  -0.174  10.410 -0.7600 -0.4322 -0.2026
   99MOL0     H13341   6.302  -0.059  10.476  6.0388 -0.8314  0.0372
   99MOL0     H13342   6.360  -0.129  10.336  1.6227  3.6223  2.1611
   99MOL0     H13343   6.377  -0.263  10.555  1.2338 -1.1833 -1.6273
   99MOL0     H13344   6.217  -0.292  10.548 -0.0761  1.5736 -0.6257
   99MOL0     H13345   5.404  -0.292  10.024  0.9008  1.1848  0.3055
   99MOL0     H13346   5.154  -0.319  10.060  1.0460  2.3006 -1.1939
   99MOL0     H13347   4.870  -0.418  10.454  1.4683  1.0414  0.2241
   99MOL0     H13348   4.658  -0.460  10.556  0.3548 -0.9068 -1.4673
   99MOL0     H13349   3.884   0.290  10.751 -1.8828 -0.6893 -0.5543
   99MOL0     H13350   3.715   0.345  10.567 -0.3561  1.3678  0.2253
   99MOL0     H13351   3.583   0.035  10.152 -0.6877 -1.9954  1.9252
   99MOL0     H13352   3.451   0.048   9.947  0.8479  0.1478  0.5789
   99MOL0     H13353   3.044   0.256   9.951 -0.6173 -0.7198  0.8345
   99MOL0     H13354   3.071   0.085   9.977 -0.0526 -0.0989  2.4498
   99MOL0     H13355   3.066   0.224   9.698  1.8790  0.0814  0.1562
   99MOL0     H13356   2.955   0.107   9.785  0.0800  1.9055  2.2334
   99MOL0     H13357   3.147  -0.047   9.792 -0.9783 -0.5709  0.5864
   99MOL0     H13358   3.231   0.062   9.688 -0.4121 -2.3200 -1.2721
   99MOL0     H13359   3.143  -0.119   9.559  0.7036  0.6284  0.1812
   99MOL0     H13360   2.979  -0.037   9.576  0.4485 -0.8599  1.4489
   99MOL0     H13361   3.147   0.228   9.317  0.3026 -0.3710 -0.0811
   99MOL0     H13362   3.161   0.290  10.153 -0.4832 -0.9075  2.2615
   99MOL0     H13363   3.270   0.400  10.356  1.1272  0.1335  0.9454
   99MOL0     H13364   3.174   0.268  10.428  0.9888 -2.2660  0.8230
   99MOL0     H13365   3.336   0.301  10.484  1.5981  1.9664 -1.6440
  100MOL0     O13366   0.147   9.056   8.938  0.1705 -0.0488  0.3857
  100MOL0     C13367   0.188   9.065   8.821  0.5758  0.2863  0.1531
  100MOL0     O13368   0.282   9.150   8.783 -0.3182  0.3382  0.6802
  100MOL0     C13369   0.303   9.273   8.839  0.1496  0.2652  0.0703
  100MOL0     C13370   0.200   9.356   8.877 -1.0677  0.4712  0.9893
  100MOL0     C13371   0.231   9.481   8.922  0.4590  0.7792  0.4367
  100MOL0     C13372   0.363   9.515   8.943  0.2038 -0.6246 -0.3081
  100MOL0     O13373   0.369   9.644   8.992 -0.5050  0.2395  0.4647
  100MOL0     C13374   0.497   9.718   9.013  0.1574 -0.0534  0.3264
  100MOL0     C13375   0.514   9.762   9.154  0.8491 -1.1014  0.1218
  100MOL0     C13376   0.646   9.843   9.164  0.6789  0.5143  0.1761
  100MOL0     C13377   0.700   9.879   9.308 -0.6402 -0.2874  1.6199
  100MOL0     C13378   0.805   9.991   9.307  0.4682  0.5766 -0.4220
  100MOL0     C13379   0.854  10.026   9.452 -0.3514 -0.0214 -0.8507
  100MOL0     C13380   0.758  10.078   9.553 -0.1590 -0.1187  0.3968
  100MOL0     C13381   0.691  10.213   9.521 -0.3464 -0.6225 -0.0732
  100MOL0     N13382   0.590  10.230   9.620  0.9810 -0.1174 -0.5252
  100MOL0     C13383   0.580  10.190   9.749 -0.6271  1.0060  0.1835
  100MOL0     C13384   0.447  10.195   9.782  0.4444 -0.9458  0.9742
  100MOL0     C13385   0.380  10.157   9.915  0.3420 -0.0946 -0.5046
  100MOL0     C13386   0.393   9.999   9.947 -0.2824  0.0217  0.4800
  100MOL0     C13387   0.328   9.990  10.092  0.2749 -0.2313  0.1859
  100MOL0     C13388   0.187   9.922  10.090 -0.1338 -0.2895 -0.2481
  100MOL0     O13389   0.101  10.015  10.028  0.6878 -0.4636  0.4374
  100MOL0     C13390  -0.018   9.960   9.981  1.0390  0.0001 -0.4080
  100MOL0     C13391  -0.073   9.831  10.012 -0.4387  0.4315 -0.0705
  100MOL0     C13392  -0.193   9.793   9.953  0.2529  1.1923  0.0824
  100MOL0     C13393  -0.261   9.874   9.856  0.0372  0.2977  1.3942
  100MOL0     C13394  -0.382   9.840   9.789  0.0262  0.5668  0.9119
  100MOL0     O13395  -0.438   9.714   9.817  0.0685  0.1116  0.3826
  100MOL0     C13396  -0.511   9.650   9.722  0.4585 -0.0588  0.8411
  100MOL0     C13397  -0.629   9.584   9.755 -0.4305  0.2278 -0.1375
  100MOL0     C13398  -0.697   9.505   9.661  0.1742 -0.0159 -0.3587
  100MOL0     C13399  -0.646   9.497   9.530  0.3651 -0.7221 -0.0744
  100MOL0     O13400  -0.720   9.420   9.444 -0.4610  0.0387 -0.2222
  100MOL0     C13401  -0.700   9.409   9.306 -0.3901  0.0296  0.6322
  100MOL0     C13402  -0.783   9.294   9.238 -0.2161 -0.6062 -0.5788
  100MOL0     C13403  -0.931   9.318   9.220  0.0564 -0.8589  0.1617
  100MOL0     C13404  -1.007   9.294   9.351 -0.0779  0.1618 -0.3505
  100MOL0     C13405  -1.154   9.339   9.334 -0.9712  0.7858 -0.9889
  100MOL0     C13406  -1.234   9.315   9.461 -0.0216 -1.1800 -0.7599
  100MOL0     C13407  -1.324   9.438   9.496 -1.0822  0.7913 -0.0368
  100MOL0     C13408  -1.445   9.426   9.407  0.3466 -0.1929  0.0445
  100MOL0    Cl13409  -1.531   9.276   9.436  0.2949  0.0122 -0.2820
  100MOL0     C13410  -0.527   9.572   9.501 -0.0697  0.4631 -0.4011
  100MOL0     C13411  -0.449   9.638   9.593 -0.1586  0.1004 -0.2917
  100MOL0     O13412  -0.437   9.924   9.709  0.2739 -0.3107 -0.0414
  100MOL0     C13413  -0.207  10.000   9.820  0.0199 -0.0959 -0.6630
  100MOL0     C13414  -0.088  10.039   9.885 -0.5360  0.5899 -0.5181
  100MOL0     N13415   0.377  10.241   9.672 -0.6861  0.4740 -0.4517
  100MOL0     N13416   0.464  10.253   9.574  0.3631 -0.5867  0.1551
  100MOL0     C13417   0.468   9.435   8.896  0.4611 -0.0193  0.8251
  100MOL0     C13418   0.432   9.309   8.854  0.1311  0.5518 -0.0658
  100MOL0     C13419   0.146   8.964   8.716 -0.1244  0.4714  0.6180
  100MOL0     C13420   0.185   8.987   8.579  0.1067 -0.4754 -1.0498
  100MOL0     C13421   0.133   8.914   8.470  1.1963  0.2469 -0.2783
  100MOL0     C13422   0.057   8.792   8.493  0.1720  0.0399 -0.5718
  100MOL0     O13423   0.004   8.701   8.399 -0.9375 -0.7578 -0.2588
  100MOL0     C13424   0.050   8.714   8.264  0.4275  0.5390  0.7158
  100MOL0     C13425   0.033   8.588   8.180  0.2439  0.3946  0.0882
  100MOL0     C13426  -0.119   8.568   8.177 -0.0461  0.6850  0.7744
  100MOL0     C13427  -0.145   8.468   8.060  0.2658  1.4235 -0.4870
  100MOL0     C13428  -0.289   8.444   8.043  0.1668  0.0482 -0.5631
  100MOL0     C13429  -0.408   8.432   8.022  0.5025 -0.0245  0.0068
  100MOL0     C13430   0.031   8.759   8.625  0.5806 -0.4748 -0.6398
  100MOL0     C13431   0.062   8.847   8.735 -0.4210  0.4298  0.1697
  100MOL0     C13432   0.013   8.815   8.872  0.3131 -0.1787  0.7375
  100MOL0     H13433   0.100   9.314   8.884 -0.3311 -1.5137  0.3712
  100MOL0     H13434   0.150   9.549   8.946 -0.6015  0.3201 -1.5947
  100MOL0     H13435   0.586   9.666   8.976 -0.8277 -0.9604 -0.8402
  100MOL0     H13436   0.496   9.806   8.948  1.1852 -0.3268 -0.0752
  100MOL0     H13437   0.514   9.682   9.228  1.1561 -1.3537 -0.1513
  100MOL0     H13438   0.424   9.824   9.166 -0.8634 -3.3586 -0.5071
  100MOL0     H13439   0.632   9.933   9.104  3.2069  1.6962  1.1840
  100MOL0     H13440   0.731   9.794   9.114 -0.7633 -1.6443 -0.2894
  100MOL0     H13441   0.613   9.909   9.368 -3.1851 -2.4583 -0.6743
  100MOL0     H13442   0.748   9.797   9.362  1.2515  0.1588  0.6799
  100MOL0     H13443   0.891   9.961   9.246 -1.2226 -1.2141 -2.0862
  100MOL0     H13444   0.753  10.079   9.269 -1.0139  2.0176  4.2687
  100MOL0     H13445   0.904   9.935   9.487 -2.6459 -2.3475 -3.2220
  100MOL0     H13446   0.929  10.106   9.447 -0.9524  0.8357  2.1066
  100MOL0     H13447   0.796  10.091   9.655 -0.0210 -0.2222  0.3599
  100MOL0     H13448   0.685   9.997   9.561 -0.8588  0.7164  3.8693
  100MOL0     H13449   0.757  10.300   9.525 -2.0823  1.0041 -3.2157
  100MOL0     H13450   0.644  10.211   9.422 -1.0673  1.9803  0.1517
  100MOL0     H13451   0.657  10.156   9.817 -1.7801 -0.0807  0.9913
  100MOL0     H13452   0.425  10.218   9.994  0.8500 -1.1439  0.0364
  100MOL0     H13453   0.274  10.180   9.904  1.0187  3.5337 -0.7380
  100MOL0     H13454   0.355   9.938   9.865  2.6179 -0.7157 -0.4303
  100MOL0     H13455   0.500   9.974   9.950  0.0567  0.4798 -3.1487
  100MOL0     H13456   0.319  10.090  10.135 -1.6014  0.2455 -1.2142
  100MOL0     H13457   0.397   9.930  10.153 -0.3742 -0.0434  1.1270
  100MOL0     H13458   0.155   9.884  10.188  1.5310  0.6078  0.6992
  100MOL0     H13459   0.215   9.838  10.026 -1.8494 -0.4606 -0.8011
  100MOL0     H13460  -0.034   9.769  10.092  1.7376  1.1496 -0.5096
  100MOL0     H13461  -0.238   9.699   9.985  1.0602  0.5490 -0.6393
  100MOL0     H13462  -0.674   9.605   9.852 -1.7641  0.3124 -0.7614
  100MOL0     H13463  -0.798   9.474   9.688 -0.4739 -0.7656 -3.2331
  100MOL0     H13464  -0.727   9.498   9.249  0.4035  1.3246  2.1912
  100MOL0     H13465  -0.598   9.381   9.279 -1.4023 -3.0539 -0.3851
  100MOL0     H13466  -0.735   9.253   9.149  0.7085  1.6093 -1.1860
  100MOL0     H13467  -0.779   9.216   9.315  0.3699  1.8481  2.0757
  100MOL0     H13468  -0.955   9.419   9.184 -0.1587 -1.4617 -1.4884
  100MOL0     H13469  -0.966   9.257   9.136 -0.6305  0.3842 -0.4828
  100MOL0     H13470  -0.958   9.350   9.431  1.6222 -0.8010 -0.6536
  100MOL0     H13471  -0.998   9.186   9.367  0.3157  0.4497  1.7103
  100MOL0     H13472  -1.197   9.266   9.264 -0.6806 -1.2986  0.8878
  100MOL0     H13473  -1.162   9.442   9.298 -2.3815  1.3218  0.7077
  100MOL0     H13474  -1.284   9.218   9.473 -1.2299 -0.2786  2.2698
  100MOL0     H13475  -1.159   9.307   9.540  0.8562 -2.0654 -1.6550
  100MOL0     H13476  -1.280   9.537   9.479  1.3125  0.5692  3.7884
  100MOL0     H13477  -1.362   9.422   9.597 -1.7589  0.2865 -0.3626
  100MOL0     H13478  -1.512   9.504   9.445 -0.0860 -0.8810  0.7307
  100MOL0     H13479  -1.420   9.449   9.304  2.1126 -0.7402  0.3264
  100MOL0     H13480  -0.484   9.553   9.403  0.0460 -2.5273  0.1314
  100MOL0     H13481  -0.357   9.688   9.566 -1.0541  1.9021 -0.1649
  100MOL0     H13482  -0.253  10.066   9.748  0.6486  0.7168 -0.3391
  100MOL0     H13483  -0.054  10.140   9.861 -1.8485  1.5051  1.1964
  100MOL0     H13484   0.572   9.465   8.896  0.1055  1.2790  0.3692
  100MOL0     H13485   0.506   9.236   8.822  0.1453  0.2373  0.6763
  100MOL0     H13486   0.244   9.074   8.554  0.1270 -0.1896 -0.0314
  100MOL0     H13487   0.177   8.950   8.377  3.4103 -1.9109 -0.1538
  100MOL0     H13488   0.158   8.734   8.271  0.5281 -0.1695  1.3929
  100MOL0     H13489   0.005   8.796   8.207 -0.3261  0.4100  1.1193
  100MOL0     H13490   0.085   8.500   8.220  0.9044 -0.4104 -2.3420
  100MOL0     H13491   0.075   8.604   8.080  1.2279 -0.2444  0.3890
  100MOL0     H13492  -0.163   8.665   8.154  2.3284  1.4005 -1.0855
  100MOL0     H13493  -0.151   8.513   8.266  1.9181 -1.0344  0.5070
  100MOL0     H13494  -0.107   8.494   7.961 -0.4788  0.1034 -1.1391
  100MOL0     H13495  -0.110   8.367   8.084 -1.2271  1.4888  2.4698
  100MOL0     H13496  -0.514   8.421   8.009  0.5913  0.8091 -1.7036
  100MOL0     H13497  -0.016   8.663   8.643  1.2654 -0.8937 -1.0315
  100MOL0     H13498   0.101   8.812   8.937 -0.0627 -1.5202  1.2132
  100MOL0     H13499  -0.046   8.900   8.908 -0.9322 -0.3142 -0.8886
  100MOL0     H13500  -0.040   8.720   8.880 -0.1045  0.0192  0.4078
  101MOL0     O13501   8.235   5.786   8.086 -0.2414  0.9984  0.0558
  101MOL0     C13502   8.168   5.876   8.044 -0.9743 -0.0076 -0.2949
  101MOL0     O13503   8.210   6.000   8.029 -0.1693  0.0416  0.1586
  101MOL0     C13504   8.341   6.031   8.051 -0.4578 -0.1897 -0.3531
  101MOL0     C13505   8.436   5.991   7.961  0.0865  0.2808 -0.3364
  101MOL0     C13506   8.573   6.021   7.978 -0.1234  0.1554  1.1842
  101MOL0     C13507   8.611   6.106   8.081 -0.6384 -0.7341 -0.2778
  101MOL0     O13508   8.739   6.154   8.073 -0.1505  0.2314  0.1353
  101MOL0     C13509   8.818   6.147   8.186 -0.2685 -0.0623 -0.6478
  101MOL0     C13510   8.845   6.283   8.255  0.3458 -0.5875  0.9591
  101MOL0     C13511   8.898   6.253   8.394 -0.8784  0.7475 -0.1638
  101MOL0     C13512   9.039   6.189   8.397  0.5747 -0.2551  0.0834
  101MOL0     C13513   9.157   6.279   8.363  0.0510 -0.2772  0.0636
  101MOL0     C13514   9.292   6.234   8.409  0.5579 -1.1103 -0.3512
  101MOL0     C13515   9.386   6.139   8.335  0.2080  0.5108  0.4522
  101MOL0     C13516   9.313   6.021   8.274  0.8746 -0.6560 -0.4069
  101MOL0     N13517   9.394   5.927   8.203 -0.4628  0.2128 -0.4174
  101MOL0     C13518   9.373   5.873   8.082  0.7887  0.6078  0.3713
  101MOL0     C13519   9.444   5.756   8.074  0.2811  0.8078  0.5217
  101MOL0     C13520   9.412   5.645   7.972  0.6697 -0.3679  0.4571
  101MOL0     C13521   9.483   5.681   7.836  0.1237 -0.3746 -0.1250
  101MOL0     C13522   9.411   5.797   7.764  0.0159 -0.8846 -0.2114
  101MOL0     C13523   9.271   5.757   7.706 -0.6632 -0.0469  0.3226
  101MOL0     O13524   9.148   5.772   7.779 -0.7126 -0.2033  0.0460
  101MOL0     C13525   9.020   5.747   7.722 -0.1942  0.4499  0.3850
  101MOL0     C13526   9.006   5.727   7.585 -0.8087  0.4833 -0.5155
  101MOL0     C13527   8.878   5.712   7.525  0.5418 -0.4545  0.4142
  101MOL0     C13528   8.764   5.718   7.613 -0.0354  0.9078  0.1308
  101MOL0     C13529   8.626   5.704   7.558 -0.7210  0.0396  0.5375
  101MOL0     O13530   8.524   5.732   7.646 -0.1324  0.2384  0.5827
  101MOL0     C13531   8.394   5.708   7.609 -0.5951 -0.3175  0.8360
  101MOL0     C13532   8.300   5.818   7.587  0.1556  0.1708  0.9367
  101MOL0     C13533   8.163   5.793   7.566 -0.6002 -0.1591 -0.0636
  101MOL0     C13534   8.114   5.662   7.569  0.1700 -0.2456  0.5357
  101MOL0     O13535   7.978   5.638   7.566 -0.0480 -0.0619  0.4536
  101MOL0     C13536   7.877   5.740   7.570 -0.9212 -0.5224  0.6641
  101MOL0     C13537   7.749   5.667   7.567  0.1996 -0.4222 -0.6713
  101MOL0     C13538   7.636   5.761   7.612  0.0091  1.0771 -0.1813
  101MOL0     C13539   7.602   5.858   7.499 -0.2590  0.7060  0.5481
  101MOL0     C13540   7.488   5.938   7.544 -0.7178  0.3186  0.2858
  101MOL0     C13541   7.366   5.851   7.539 -0.5288  0.8267  1.0768
  101MOL0     C13542   7.247   5.944   7.538 -0.1538 -0.1143  1.2417
  101MOL0     C13543   7.178   5.960   7.672 -0.6804  0.1482  0.6421
  101MOL0    Cl13544   7.113   5.801   7.743  0.3037 -0.0773 -0.3240
  101MOL0     C13545   8.209   5.557   7.570 -0.0833 -0.3214 -0.8709
  101MOL0     C13546   8.349   5.576   7.593  0.6052  0.2444  0.2385
  101MOL0     O13547   8.609   5.658   7.445 -0.2260  0.3509 -0.1169
  101MOL0     C13548   8.778   5.751   7.744  0.0092  0.3505  0.3255
  101MOL0     C13549   8.906   5.753   7.801  0.5401 -0.8346 -0.4033
  101MOL0     N13550   9.527   5.750   8.178  0.3826  0.5392 -0.4336
  101MOL0     N13551   9.497   5.852   8.259  0.3713  0.1215  0.4369
  101MOL0     C13552   8.511   6.157   8.169  0.7635 -0.5517 -0.1537
  101MOL0     C13553   8.378   6.120   8.154  0.3454  0.4967  0.0731
  101MOL0     C13554   8.023   5.828   7.997 -0.4326  0.4002  0.9350
  101MOL0     C13555   7.920   5.915   8.026 -0.6003  0.5502 -0.3053
  101MOL0     C13556   7.786   5.880   8.023  0.2662 -0.1322  1.0892
  101MOL0     C13557   7.751   5.762   7.964  0.0060  0.1078 -0.2146
  101MOL0     O13558   7.618   5.735   7.984 -0.7561  0.0336 -0.6223
  101MOL0     C13559   7.574   5.609   7.967 -0.5504  0.2914 -0.2896
  101MOL0     C13560   7.429   5.622   7.972 -0.0467 -0.8589  0.2175
  101MOL0     C13561   7.344   5.497   7.926  0.5675  0.0455  0.0340
  101MOL0     C13562   7.390   5.363   7.985  0.4449 -0.0899 -0.1203
  101MOL0     C13563   7.390   5.358   8.133 -0.1704  0.3420  0.5720
  101MOL0     C13564   7.388   5.358   8.251  0.4470 -0.6063 -0.8983
  101MOL0     C13565   7.851   5.671   7.920 -0.5813 -0.6974 -0.0672
  101MOL0     C13566   7.983   5.704   7.941  0.5364 -0.9056 -0.2902
  101MOL0     C13567   8.088   5.602   7.900 -0.5764  0.3299 -0.3595
  101MOL0     H13568   8.397   5.932   7.879  2.3741  1.1821 -2.2032
  101MOL0     H13569   8.647   5.981   7.910 -2.6104  0.1869 -1.7243
  101MOL0     H13570   8.767   6.090   8.264  0.3451  0.5817  0.2442
  101MOL0     H13571   8.910   6.090   8.168 -0.7077 -2.0908  2.6445
  101MOL0     H13572   8.759   6.349   8.256  2.2701  2.1509 -0.6589
  101MOL0     H13573   8.919   6.330   8.189 -1.6598  0.3485 -0.7375
  101MOL0     H13574   8.829   6.191   8.451  1.8709 -2.1467  0.3254
  101MOL0     H13575   8.897   6.355   8.435  2.2619  1.5098 -1.6630
  101MOL0     H13576   9.034   6.171   8.505 -3.2324  0.5576  0.1877
  101MOL0     H13577   9.039   6.092   8.347  0.2064 -0.7138  0.9371
  101MOL0     H13578   9.166   6.300   8.256  1.3521 -0.3216  0.1479
  101MOL0     H13579   9.144   6.371   8.420  3.4407 -0.1609  0.8878
  101MOL0     H13580   9.345   6.330   8.417  0.4221 -1.1735  2.0093
  101MOL0     H13581   9.268   6.206   8.512 -2.2061 -0.4018 -0.7213
  101MOL0     H13582   9.463   6.110   8.408 -0.0681 -0.4733  0.3634
  101MOL0     H13583   9.439   6.186   8.251 -0.1840  1.9021  0.9624
  101MOL0     H13584   9.267   5.969   8.358 -0.2979  0.8241 -0.0966
  101MOL0     H13585   9.244   6.050   8.194  0.4544 -0.4298  0.0308
  101MOL0     H13586   9.299   5.911   8.012  1.6399  0.9344 -0.3795
  101MOL0     H13587   9.456   5.555   8.015 -1.1674 -0.3737  2.4644
  101MOL0     H13588   9.307   5.624   7.955  0.7759 -0.0322 -0.7150
  101MOL0     H13589   9.584   5.715   7.861 -0.6391  0.5207  1.9511
  101MOL0     H13590   9.491   5.594   7.770  0.8538  0.2306 -0.8525
  101MOL0     H13591   9.478   5.815   7.679  0.2354  2.4613  0.5321
  101MOL0     H13592   9.407   5.889   7.822  0.6792 -1.8522  1.4318
  101MOL0     H13593   9.273   5.650   7.683 -3.2204  0.0622 -0.6720
  101MOL0     H13594   9.269   5.829   7.624 -2.1832 -0.3295  0.0978
  101MOL0     H13595   9.086   5.715   7.513  1.1588 -0.0493  1.6227
  101MOL0     H13596   8.868   5.686   7.420  1.7303 -0.0177  0.1782
  101MOL0     H13597   8.340   5.918   7.583  2.1118 -0.5813  0.3699
  101MOL0     H13598   8.104   5.883   7.568  0.1240  0.3259  1.4779
  101MOL0     H13599   7.882   5.809   7.655 -1.3971 -1.2028  1.2579
  101MOL0     H13600   7.885   5.796   7.476 -1.5107 -0.4680  0.6411
  101MOL0     H13601   7.730   5.641   7.462  0.8555  0.1212 -0.9323
  101MOL0     H13602   7.747   5.574   7.625 -3.6276  0.8166  1.5332
  101MOL0     H13603   7.550   5.699   7.640  3.5555 -3.9470  0.9435
  101MOL0     H13604   7.657   5.815   7.704 -0.0441  1.7876 -0.5797
  101MOL0     H13605   7.575   5.811   7.404 -2.6819  0.4519  1.3039
  101MOL0     H13606   7.693   5.916   7.483 -1.5063  2.2794 -1.2519
  101MOL0     H13607   7.485   6.024   7.476  0.2766  0.3302  0.2359
  101MOL0     H13608   7.502   5.984   7.643  2.5885  0.6443 -0.2026
  101MOL0     H13609   7.355   5.805   7.441  0.9523  0.8116  0.8918
  101MOL0     H13610   7.352   5.771   7.612 -0.6485  0.8688  1.0987
  101MOL0     H13611   7.173   5.906   7.466  3.0620 -1.5459 -1.5891
  101MOL0     H13612   7.280   6.041   7.502 -0.1745 -0.9169 -1.1284
  101MOL0     H13613   7.253   6.000   7.740  0.7145 -3.3231  1.3578
  101MOL0     H13614   7.105   6.041   7.665 -0.8378 -0.1519 -2.2211
  101MOL0     H13615   8.166   5.457   7.561 -1.7730  0.2190  0.6518
  101MOL0     H13616   8.407   5.485   7.606  0.6751 -0.0672 -1.9617
  101MOL0     H13617   8.689   5.768   7.805  1.3846  0.0712  2.5190
  101MOL0     H13618   8.913   5.778   7.907  0.2962  2.7178 -1.0985
  101MOL0     H13619   8.541   6.245   8.225 -0.5979  0.5812 -1.1338
  101MOL0     H13620   8.302   6.166   8.216 -0.0616  1.3743 -1.0464
  101MOL0     H13621   7.944   6.006   8.081 -2.9424  1.5972 -0.8710
  101MOL0     H13622   7.713   5.949   8.065 -1.3156 -2.0888  1.7090
  101MOL0     H13623   7.607   5.546   8.050 -1.6724  0.4679  0.3039
  101MOL0     H13624   7.596   5.566   7.868 -2.3921 -0.6953 -0.2996
  101MOL0     H13625   7.402   5.709   7.912  1.0277  1.0249  2.3369
  101MOL0     H13626   7.390   5.658   8.068  0.3318  4.4444 -1.3349
  101MOL0     H13627   7.360   5.495   7.818  0.5551 -3.0926 -0.0167
  101MOL0     H13628   7.239   5.516   7.952  0.2970 -1.5378  0.1970
  101MOL0     H13629   7.322   5.287   7.946 -0.9433  0.8560  0.3839
  101MOL0     H13630   7.494   5.360   7.949  1.6370  5.8223  1.7757
  101MOL0     H13631   7.387   5.355   8.358  2.7903  0.2478 -0.7892
  101MOL0     H13632   7.809   5.576   7.889  0.1251 -1.7348  1.9642
  101MOL0     H13633   8.135   5.547   7.982 -3.4528  1.4147  2.1940
  101MOL0     H13634   8.046   5.536   7.824  3.7237 -1.7089 -1.3203
  101MOL0     H13635   8.170   5.648   7.843 -2.3879  2.9556 -1.0380
  102MOL0     O13636   0.247  10.491  10.945  0.1046  0.2231  0.0833
  102MOL0     C13637   0.215  10.441  11.054 -0.4551  0.3303  0.2783
  102MOL0     O13638   0.310  10.388  11.138 -0.3022  0.1022 -0.4841
  102MOL0     C13639   0.439  10.387  11.104  0.6353 -0.6890 -0.0782
  102MOL0     C13640   0.485  10.301  11.005  0.6484  0.3435  0.2097
  102MOL0     C13641   0.618  10.309  10.963 -0.9781 -0.3102  0.4588
  102MOL0     C13642   0.714  10.404  11.025  0.0206  0.7897 -0.1479
  102MOL0     O13643   0.847  10.429  10.987 -0.1523  0.1564  0.1642
  102MOL0     C13644   0.897  10.330  10.887  0.5037 -0.2758  0.0049
  102MOL0     C13645   1.031  10.360  10.838  0.7515  0.3544  0.2187
  102MOL0     C13646   1.136  10.313  10.928 -0.0375 -0.0894  0.0139
  102MOL0     C13647   1.165  10.163  10.899 -0.4379 -0.4293 -0.1248
  102MOL0     C13648   1.231  10.075  11.003  0.2775  0.9882  0.6875
  102MOL0     C13649   1.356  10.124  11.065 -0.5109 -0.5000  0.4659
  102MOL0     C13650   1.471  10.170  10.969  0.4222  0.0541  0.5260
  102MOL0     C13651   1.550  10.052  10.907  0.2851 -0.0865 -0.0440
  102MOL0     N13652   1.642  10.094  10.807 -0.0889 -0.0796  0.4914
  102MOL0     C13653   1.755  10.158  10.838 -0.3753 -0.3012 -0.4625
  102MOL0     C13654   1.815  10.184  10.717  0.2702 -0.3438  0.2171
  102MOL0     C13655   1.929  10.273  10.688 -0.5077  0.3252 -0.2057
  102MOL0     C13656   2.023  10.300  10.807  0.1044  0.9550 -0.1311
  102MOL0     C13657   2.156  10.371  10.773  0.2314 -0.3419  1.0602
  102MOL0     C13658   2.244  10.265  10.716 -0.2740 -0.1615  0.2629
  102MOL0     O13659   2.379  10.298  10.722  0.3121  0.6365 -0.0879
  102MOL0     C13660   2.482  10.214  10.675 -0.1480  0.3395 -1.1172
  102MOL0     C13661   2.463  10.085  10.628 -0.4253  0.0498 -1.4760
  102MOL0     C13662   2.572  10.008  10.582  0.5626 -0.3948 -0.1451
  102MOL0     C13663   2.704  10.050  10.610 -0.4578  0.1744  0.3826
  102MOL0     C13664   2.825   9.971  10.574  0.3158  0.0610  0.8126
  102MOL0     O13665   2.944  10.019  10.624 -0.2266  1.3520  0.0407
  102MOL0     C13666   3.062   9.968  10.583  0.1300 -0.1112 -1.0716
  102MOL0     C13667   3.144   9.902  10.676 -0.6172 -0.3683  0.1526
  102MOL0     C13668   3.274   9.868  10.643  0.3672 -0.8947  0.3217
  102MOL0     C13669   3.319   9.881  10.515 -0.0883 -0.2021 -0.1652
  102MOL0     O13670   3.441   9.847  10.468 -0.2277  0.6893 -0.1046
  102MOL0     C13671   3.491   9.725  10.514  0.2062  0.2552 -0.4937
  102MOL0     C13672   3.620   9.706  10.430  0.2673 -1.2913 -0.6842
  102MOL0     C13673   3.697   9.573  10.444 -0.2189  0.8435  0.5340
  102MOL0     C13674   3.804   9.564  10.336 -0.0886  0.0481 -0.7484
  102MOL0     C13675   3.827   9.420  10.296 -0.3945  0.2616  0.0184
  102MOL0     C13676   3.928   9.413  10.183 -0.3884  0.2883  0.3402
  102MOL0     C13677   4.078   9.456  10.212 -0.4316 -0.1730  0.1122
  102MOL0     C13678   4.175   9.387  10.113  0.3238  0.3037 -0.2790
  102MOL0    Cl13679   4.328   9.472  10.111 -0.3157 -0.5232 -0.2614
  102MOL0     C13680   3.246   9.959  10.426  0.2227  0.3807  0.7068
  102MOL0     C13681   3.113   9.994  10.457 -0.7250 -0.3479  0.4847
  102MOL0     O13682   2.816   9.871  10.502 -0.2580 -0.7349 -0.6864
  102MOL0     C13683   2.720  10.178  10.669 -0.0321  0.3758  0.1577
  102MOL0     C13684   2.611  10.257  10.702 -1.1504 -0.6002  0.3746
  102MOL0     N13685   1.736  10.126  10.615 -0.4053  0.6404  0.2417
  102MOL0     N13686   1.630  10.076  10.673 -0.1040 -0.8881  0.6566
  102MOL0     C13687   0.666  10.486  11.127  0.2686  0.5817  0.0130
  102MOL0     C13688   0.526  10.481  11.160 -0.1921  0.0610  0.3181
  102MOL0     C13689   0.071  10.409  11.079 -0.7774  0.9798  0.6219
  102MOL0     C13690   0.036  10.362  11.212  0.2356  0.7490  0.7476
  102MOL0     C13691  -0.098  10.343  11.251  0.5999 -0.2277  0.2872
  102MOL0     C13692  -0.195  10.344  11.148  0.5657  0.3040  0.2981
  102MOL0     O13693  -0.334  10.324  11.171  0.1191  0.0902  0.4815
  102MOL0     C13694  -0.368  10.266  11.296  0.1021  0.6719 -0.1153
  102MOL0     C13695  -0.404  10.373  11.399 -0.2665 -0.1440  0.3957
  102MOL0     C13696  -0.553  10.420  11.375 -0.2501  0.2532  0.0961
  102MOL0     C13697  -0.651  10.311  11.419 -0.1355 -0.2363 -0.8623
  102MOL0     C13698  -0.646  10.306  11.564  0.7802 -0.3066 -0.5979
  102MOL0     C13699  -0.623  10.322  11.689 -1.2899  0.8275  0.1864
  102MOL0     C13700  -0.167  10.394  11.019  0.2383  0.4478  0.7195
  102MOL0     C13701  -0.033  10.422  10.984 -0.0081  0.3622 -0.2982
  102MOL0     C13702  -0.015  10.478  10.848 -0.2092 -0.3849 -0.2324
  102MOL0     H13703   0.420  10.226  10.963  0.0235  2.1031 -2.1479
  102MOL0     H13704   0.636  10.236  10.885  0.5463  1.9961 -1.5014
  102MOL0     H13705   0.887  10.230  10.932  0.9990 -0.7441 -0.8944
  102MOL0     H13706   0.828  10.340  10.802  0.6960  0.3434 -0.0815
  102MOL0     H13707   1.048  10.467  10.823  2.5517 -0.0022 -0.5384
  102MOL0     H13708   1.051  10.315  10.740  2.4866  0.7042  0.3837
  102MOL0     H13709   1.107  10.333  11.031 -0.5878  0.3964 -0.2331
  102MOL0     H13710   1.227  10.371  10.906 -0.4472  0.5930  0.1034
  102MOL0     H13711   1.068  10.119  10.874 -0.6314  1.7994 -4.0635
  102MOL0     H13712   1.230  10.153  10.812 -1.2286 -0.4606 -0.7260
  102MOL0     H13713   1.149  10.071  11.076 -1.0016  3.5775 -0.4750
  102MOL0     H13714   1.244   9.977  10.957  0.0735  1.4725 -0.4316
  102MOL0     H13715   1.328  10.208  11.130  1.8942  1.1656 -0.5168
  102MOL0     H13716   1.389  10.046  11.134 -0.8633  0.0603  1.2864
  102MOL0     H13717   1.539  10.233  11.027 -0.1314 -0.2037  1.4676
  102MOL0     H13718   1.441  10.248  10.898  3.3935 -0.9263 -2.0416
  102MOL0     H13719   1.612  10.006  10.985 -0.5679  0.3672  0.9234
  102MOL0     H13720   1.480   9.975  10.874  1.3459 -0.7213 -0.8834
  102MOL0     H13721   1.785  10.180  10.940 -1.4899 -2.0431  0.2925
  102MOL0     H13722   1.983  10.212  10.615  1.3239  0.2193  1.1564
  102MOL0     H13723   1.887  10.365  10.647 -0.0004  0.3778 -0.6180
  102MOL0     H13724   1.970  10.374  10.868 -0.2212  1.2100 -0.7106
  102MOL0     H13725   2.045  10.217  10.875 -1.0028  2.5667  2.3306
  102MOL0     H13726   2.190  10.403  10.872  2.1771  2.1245 -0.2713
  102MOL0     H13727   2.141  10.446  10.694 -1.4039 -2.3864 -0.6963
  102MOL0     H13728   2.219  10.252  10.610  1.4861  1.4499 -0.4023
  102MOL0     H13729   2.229  10.173  10.772 -1.3398  0.3976  0.9238
  102MOL0     H13730   2.364  10.047  10.605 -0.6116  0.2648 -1.0404
  102MOL0     H13731   2.553   9.921  10.521  2.3216  0.9563 -2.7884
  102MOL0     H13732   3.110   9.872  10.774  4.1019 -0.7898  1.9222
  102MOL0     H13733   3.331   9.818  10.720  3.2443  2.1317  0.3842
  102MOL0     H13734   3.513   9.729  10.621 -0.9602 -2.6218 -0.0658
  102MOL0     H13735   3.421   9.644  10.488 -2.6707  3.4985 -4.1350
  102MOL0     H13736   3.596   9.711  10.323 -1.9565  2.4398 -0.2042
  102MOL0     H13737   3.679   9.791  10.465 -2.8527  1.5107 -1.6817
  102MOL0     H13738   3.741   9.555  10.542  1.1833 -0.1873 -0.2488
  102MOL0     H13739   3.626   9.495  10.416 -0.5821  1.5650 -0.6225
  102MOL0     H13740   3.894   9.609  10.380 -0.9901  0.8117  0.3947
  102MOL0     H13741   3.782   9.620  10.244 -1.8414  2.8119  1.1852
  102MOL0     H13742   3.736   9.376  10.254  0.2995  0.1568 -1.4401
  102MOL0     H13743   3.870   9.351  10.370 -0.5682  1.2719  1.0770
  102MOL0     H13744   3.936   9.311  10.143  4.2537 -0.3538  2.2224
  102MOL0     H13745   3.885   9.479  10.107  2.7676  0.3045 -1.5927
  102MOL0     H13746   4.094   9.418  10.314  3.3002 -0.4529 -0.4409
  102MOL0     H13747   4.088   9.565  10.212 -0.5898 -0.1077 -2.4484
  102MOL0     H13748   4.180   9.283  10.146 -2.0522  0.1069 -0.3463
  102MOL0     H13749   4.134   9.392  10.012  0.8308  1.5454 -0.4340
  102MOL0     H13750   3.280   9.979  10.325  1.8806 -0.9988  0.9339
  102MOL0     H13751   3.065  10.049  10.376  2.9998 -1.3158 -2.6755
  102MOL0     H13752   2.815  10.218  10.702 -0.5471 -0.2448  2.6352
  102MOL0     H13753   2.631  10.352  10.752  1.9630 -0.5005 -0.8566
  102MOL0     H13754   0.737  10.556  11.171 -1.7620  2.0461  1.1209
  102MOL0     H13755   0.485  10.548  11.235 -2.3950 -0.0815 -0.6924
  102MOL0     H13756   0.115  10.352  11.286  0.6177 -0.6406  0.1661
  102MOL0     H13757  -0.116  10.348  11.358 -0.1802  3.4599  0.1065
  102MOL0     H13758  -0.283  10.215  11.341 -0.1651  0.1348 -0.2128
  102MOL0     H13759  -0.447  10.192  11.278  4.9948 -5.1693 -0.9117
  102MOL0     H13760  -0.339  10.459  11.383  0.8481 -0.9537  0.4625
  102MOL0     H13761  -0.376  10.345  11.501 -1.7016 -0.0674  0.8346
  102MOL0     H13762  -0.565  10.438  11.268  0.7774 -3.8581 -0.8672
  102MOL0     H13763  -0.586  10.507  11.434 -0.9860 -0.0888  0.2050
  102MOL0     H13764  -0.748  10.343  11.379  0.6294 -0.5335 -3.0596
  102MOL0     H13765  -0.635  10.210  11.380 -1.9153 -0.2741 -1.5711
  102MOL0     H13766  -0.596  10.327  11.793 -1.0007 -0.2920  0.1881
  102MOL0     H13767  -0.248  10.411  10.949 -0.1720  2.9018  1.6712
  102MOL0     H13768   0.039  10.574  10.852  0.0374 -0.5536  0.7539
  102MOL0     H13769   0.060  10.417  10.796  3.0508  2.1978  1.0301
  102MOL0     H13770  -0.111  10.494  10.799 -0.1193  2.9500  0.4273
  103MOL0     O13771   6.015   3.355   0.534  0.3229  0.0027  0.8923
  103MOL0     C13772   6.070   3.296   0.627 -0.5827  0.0323 -0.1479
  103MOL0     O13773   6.197   3.321   0.673 -0.6558  0.3871 -0.0855
  103MOL0     C13774   6.268   3.430   0.634  0.0800 -0.9545 -0.5667
  103MOL0     C13775   6.295   3.461   0.503 -0.8122  0.7569  0.4591
  103MOL0     C13776   6.391   3.559   0.476  0.0426  0.3788 -0.3401
  103MOL0     C13777   6.468   3.626   0.579  0.5697  1.0257  0.5362
  103MOL0     O13778   6.559   3.717   0.560 -0.7156 -0.5473  0.1379
  103MOL0     C13779   6.619   3.742   0.430  0.1204  0.4323  0.6904
  103MOL0     C13780   6.747   3.823   0.433  0.7711  0.6881 -0.7191
  103MOL0     C13781   6.831   3.782   0.557  0.0333 -0.1636  0.0550
  103MOL0     C13782   6.972   3.836   0.543  0.0942 -0.6405 -0.0163
  103MOL0     C13783   7.056   3.747   0.645 -0.5137  0.2827 -0.1384
  103MOL0     C13784   7.202   3.793   0.648 -0.3679  0.5829 -0.3975
  103MOL0     C13785   7.279   3.768   0.518  0.3593  0.2736  0.2887
  103MOL0     C13786   7.421   3.815   0.532 -0.9228 -0.0005  0.2395
  103MOL0     N13787   7.493   3.830   0.405  0.0035 -0.0280  0.5447
  103MOL0     C13788   7.547   3.947   0.357  0.3929  0.2591  0.7236
  103MOL0     C13789   7.626   3.908   0.254 -0.2600  0.0857 -0.8888
  103MOL0     C13790   7.697   3.994   0.158  0.9514  0.0327 -1.0140
  103MOL0     C13791   7.852   3.979   0.175 -1.2029 -0.8995 -1.2076
  103MOL0     C13792   7.896   4.007   0.322 -0.1581 -0.1330  0.2245
  103MOL0     C13793   8.054   4.030   0.324  0.4896 -0.3514 -0.6190
  103MOL0     O13794   8.117   3.901   0.323  0.7221  0.3660 -0.4087
  103MOL0     C13795   8.245   3.889   0.371  0.4031 -0.9231  0.2593
  103MOL0     C13796   8.285   3.765   0.427  0.4875  0.2287 -0.1263
  103MOL0     C13797   8.422   3.751   0.468 -0.6200  0.4650 -0.4256
  103MOL0     C13798   8.515   3.852   0.430 -0.5558 -0.3354  0.0760
  103MOL0     C13799   8.663   3.830   0.438 -0.3202 -0.6342  0.5288
  103MOL0     O13800   8.686   3.699   0.468  0.4461 -0.6203 -0.1635
  103MOL0     C13801   8.818   3.652   0.468  0.8837 -0.6367 -0.0437
  103MOL0     C13802   8.927   3.721   0.528 -0.1541 -0.1253 -0.2861
  103MOL0     C13803   9.052   3.665   0.533 -0.4361  0.6166 -0.0774
  103MOL0     C13804   9.073   3.541   0.487 -0.6273  0.3483 -0.8695
  103MOL0     O13805   9.201   3.481   0.504  0.0060  0.5454  0.3394
  103MOL0     C13806   9.210   3.339   0.508  0.5922 -0.3439 -0.2737
  103MOL0     C13807   9.333   3.302   0.582 -0.4205 -0.4946 -0.0732
  103MOL0     C13808   9.452   3.278   0.477  0.0610 -0.6262 -0.0501
  103MOL0     C13809   9.584   3.239   0.535  0.6434  0.0033 -0.1383
  103MOL0     C13810   9.697   3.255   0.440 -0.2769 -0.5382  0.4718
  103MOL0     C13811   9.669   3.183   0.308 -0.0413  0.8403 -0.0448
  103MOL0     C13812   9.803   3.167   0.236 -1.1255  0.9053  0.4210
  103MOL0     C13813   9.782   3.091   0.101 -0.1412  0.0677  0.2230
  103MOL0    Cl13814   9.663   3.182  -0.000 -0.2671  1.1015  0.0374
  103MOL0     C13815   8.964   3.476   0.430 -1.1031 -0.7078 -0.3990
  103MOL0     C13816   8.844   3.537   0.406 -0.4565  0.3616  0.9038
  103MOL0     O13817   8.744   3.913   0.394  0.1368  0.4100 -0.6136
  103MOL0     C13818   8.472   3.978   0.377  0.2422 -0.0077 -0.8958
  103MOL0     C13819   8.333   3.996   0.352  0.1985 -0.0577 -0.5501
  103MOL0     N13820   7.617   3.772   0.233 -0.3226 -0.5831 -0.5788
  103MOL0     N13821   7.529   3.729   0.316  0.8446 -1.0181  0.4364
  103MOL0     C13822   6.421   3.599   0.713  0.9268 -0.3676  0.3401
  103MOL0     C13823   6.327   3.498   0.738  0.7957  0.9420  0.5242
  103MOL0     C13824   6.020   3.155   0.648  0.4303  0.4901  0.4031
  103MOL0     C13825   6.111   3.045   0.673  0.4562 -0.4875  0.2372
  103MOL0     C13826   6.064   2.911   0.649 -0.7370 -0.1059 -0.0998
  103MOL0     C13827   5.931   2.871   0.642  0.1135 -0.7205 -0.0869
  103MOL0     O13828   5.894   2.740   0.650  0.4923 -0.0518  0.1953
  103MOL0     C13829   5.755   2.709   0.634 -0.0654 -0.6266  0.1983
  103MOL0     C13830   5.743   2.563   0.656 -0.5294  0.2705  0.0068
  103MOL0     C13831   5.848   2.479   0.579  0.7058 -0.4591  0.0158
  103MOL0     C13832   5.819   2.325   0.579 -0.3243 -0.8694 -0.5951
  103MOL0     C13833   5.695   2.301   0.506 -0.8736 -0.0260 -0.1391
  103MOL0     C13834   5.580   2.296   0.459 -0.3178 -0.5130  0.0660
  103MOL0     C13835   5.839   2.985   0.647  0.0797 -0.9304 -0.0963
  103MOL0     C13836   5.883   3.121   0.654  0.7939 -0.2760  0.1922
  103MOL0     C13837   5.771   3.228   0.655  0.1508 -0.1494  0.9421
  103MOL0     H13838   6.245   3.401   0.428 -0.2589  1.1335 -0.2248
  103MOL0     H13839   6.410   3.585   0.372 -1.1581 -0.8380 -0.8970
  103MOL0     H13840   6.633   3.643   0.387 -0.5604  2.3625 -4.7329
  103MOL0     H13841   6.559   3.800   0.360  0.9332  1.3265  0.7100
  103MOL0     H13842   6.724   3.929   0.443 -1.7899  0.1873 -0.4744
  103MOL0     H13843   6.805   3.820   0.341  1.3665 -0.1652 -0.3291
  103MOL0     H13844   6.832   3.674   0.539  4.6615 -0.1789 -1.0479
  103MOL0     H13845   6.778   3.810   0.648 -1.4288  0.5721 -0.9824
  103MOL0     H13846   7.018   3.826   0.444  1.7067  1.1315  0.4833
  103MOL0     H13847   6.982   3.942   0.569 -0.3998 -1.1534  2.4735
  103MOL0     H13848   7.018   3.739   0.747  0.0100  0.9241  0.1110
  103MOL0     H13849   7.049   3.641   0.619 -0.2878  0.6535 -1.8540
  103MOL0     H13850   7.190   3.900   0.669  0.7310  0.6354  0.0188
  103MOL0     H13851   7.253   3.742   0.731 -1.5451  2.1239  1.3486
  103MOL0     H13852   7.238   3.834   0.441 -2.4143 -2.4768 -0.7898
  103MOL0     H13853   7.272   3.662   0.493  0.6881  0.4539 -0.6021
  103MOL0     H13854   7.423   3.912   0.583 -3.5622  0.2459 -0.0100
  103MOL0     H13855   7.471   3.739   0.593  1.2191 -0.2043 -1.6417
  103MOL0     H13856   7.526   4.045   0.399 -3.3156  0.8404 -1.9638
  103MOL0     H13857   7.655   3.984   0.057 -2.3711  0.3399  0.1905
  103MOL0     H13858   7.663   4.096   0.181 -0.1748 -0.6946  0.7402
  103MOL0     H13859   7.884   3.878   0.148  0.6794 -0.7790  0.3438
  103MOL0     H13860   7.910   4.051   0.116  0.7756  0.2462  1.9079
  103MOL0     H13861   7.872   3.924   0.389 -3.8806  1.3974  0.9878
  103MOL0     H13862   7.841   4.096   0.354 -0.3154 -0.8018  1.9055
  103MOL0     H13863   8.071   4.076   0.422  2.0526 -1.2083 -0.4524
  103MOL0     H13864   8.088   4.083   0.235  2.2314  1.1724  0.8768
  103MOL0     H13865   8.198   3.709   0.461 -0.7760  1.2634 -1.5148
  103MOL0     H13866   8.454   3.652   0.496 -0.7868 -0.5537 -3.4753
  103MOL0     H13867   8.925   3.824   0.562 -5.6738  1.1916 -3.4262
  103MOL0     H13868   9.135   3.725   0.569 -1.0157  1.6362 -0.3721
  103MOL0     H13869   9.131   3.300   0.574  1.9727  0.1743  1.7932
  103MOL0     H13870   9.204   3.286   0.413  0.5789  1.4834 -1.3469
  103MOL0     H13871   9.373   3.388   0.635  0.3458  1.0455 -2.9724
  103MOL0     H13872   9.322   3.214   0.646  3.7959 -1.9497 -1.0199
  103MOL0     H13873   9.420   3.197   0.412 -0.5019 -1.6340  1.4421
  103MOL0     H13874   9.466   3.367   0.415  1.7168 -1.4445 -0.9079
  103MOL0     H13875   9.579   3.136   0.571  1.9540  0.8513  2.7217
  103MOL0     H13876   9.598   3.300   0.625  1.1283 -1.3924  0.7732
  103MOL0     H13877   9.787   3.206   0.478 -0.1328 -1.0946 -0.5376
  103MOL0     H13878   9.713   3.362   0.422 -1.8140 -0.0759  1.6724
  103MOL0     H13879   9.637   3.081   0.331 -0.3134  1.3764  2.0955
  103MOL0     H13880   9.594   3.233   0.245  0.0161  2.1906  0.9231
  103MOL0     H13881   9.871   3.105   0.294 -2.3167 -0.6365  0.2276
  103MOL0     H13882   9.851   3.261   0.208 -1.3035  1.5534  2.1719
  103MOL0     H13883   9.878   3.074   0.050 -0.0694 -1.7648  0.8858
  103MOL0     H13884   9.746   2.988   0.108  2.4956 -1.0268 -0.7074
  103MOL0     H13885   8.976   3.381   0.379 -0.0390 -1.2057  0.7178
  103MOL0     H13886   8.770   3.481   0.350 -0.7659  0.6778  0.9958
  103MOL0     H13887   8.547   4.056   0.367 -0.1174  0.4380 -0.2105
  103MOL0     H13888   8.292   4.088   0.311 -0.3349  1.2840  2.6627
  103MOL0     H13889   6.460   3.664   0.791 -0.4593  0.2015  0.5895
  103MOL0     H13890   6.306   3.465   0.839  1.6046  2.4825  1.2252
  103MOL0     H13891   6.218   3.066   0.679 -0.1037  2.7143  1.2321
  103MOL0     H13892   6.136   2.830   0.651  1.7910  2.0318  2.7817
  103MOL0     H13893   5.714   2.747   0.540  0.8723  1.3276  0.5383
  103MOL0     H13894   5.698   2.747   0.719 -1.7276 -1.3686 -0.5486
  103MOL0     H13895   5.643   2.523   0.640 -1.2864  1.3760  1.7703
  103MOL0     H13896   5.764   2.549   0.762  0.5164 -0.4670 -0.2717
  103MOL0     H13897   5.950   2.500   0.612  0.4701  0.2234  0.3199
  103MOL0     H13898   5.839   2.521   0.478  0.6505 -0.8600 -0.1506
  103MOL0     H13899   5.899   2.269   0.529 -0.2195 -1.8957  0.6659
  103MOL0     H13900   5.818   2.285   0.680 -1.9127 -1.0145 -0.6507
  103MOL0     H13901   5.485   2.284   0.411  0.1890 -3.1522 -0.4097
  103MOL0     H13902   5.733   2.973   0.664 -0.2725  0.2243 -1.3159
  103MOL0     H13903   5.729   3.221   0.554 -0.2809  1.5172  0.9790
  103MOL0     H13904   5.706   3.207   0.740  2.2448 -0.6319  2.5263
  103MOL0     H13905   5.809   3.330   0.667  0.5717  0.4499 -3.7496
  104MOL0     O13906   0.392   3.851   8.623 -0.5036 -0.2057 -0.4122
  104MOL0     C13907   0.317   3.841   8.527 -0.8852 -0.2694 -0.8929
  104MOL0     O13908   0.342   3.883   8.404  0.0248 -0.9944 -0.1826
  104MOL0     C13909   0.460   3.955   8.395 -0.2663  1.2146  0.8346
  104MOL0     C13910   0.584   3.897   8.365 -0.1951  0.3949  0.4719
  104MOL0     C13911   0.699   3.984   8.347  0.2582  1.0886  0.6799
  104MOL0     C13912   0.687   4.124   8.356 -0.0681 -0.8647 -0.3974
  104MOL0     O13913   0.804   4.196   8.358  0.2582  0.4782  0.5541
  104MOL0     C13914   0.802   4.335   8.326  0.0491  0.0697  0.0054
  104MOL0     C13915   0.941   4.390   8.276 -0.6835 -0.6060  0.9749
  104MOL0     C13916   0.968   4.352   8.121 -0.2987  0.2333 -0.1906
  104MOL0     C13917   1.083   4.434   8.056  0.7567  0.1505 -0.0310
  104MOL0     C13918   1.192   4.474   8.154 -0.2411 -0.0397 -0.3631
  104MOL0     C13919   1.323   4.531   8.080  0.2487 -0.5284 -0.4736
  104MOL0     C13920   1.402   4.609   8.188  0.2357  0.0088 -0.0897
  104MOL0     C13921   1.519   4.693   8.130  0.3613  0.5822  0.0531
  104MOL0     N13922   1.615   4.592   8.073  0.2166  0.5102  1.0110
  104MOL0     C13923   1.647   4.595   7.936  0.4974 -0.1366 -0.2641
  104MOL0     C13924   1.746   4.502   7.927  0.5810  0.2586 -0.2900
  104MOL0     C13925   1.811   4.456   7.803  0.2526  0.5545  0.5670
  104MOL0     C13926   1.709   4.376   7.712 -0.1357 -0.0888 -0.8669
  104MOL0     C13927   1.786   4.315   7.590 -0.4124 -0.0307 -0.1498
  104MOL0     C13928   1.714   4.325   7.456  0.4719  1.0047 -0.0733
  104MOL0     O13929   1.584   4.257   7.470  0.6869  0.4242  0.0169
  104MOL0     C13930   1.504   4.244   7.356  0.1688 -0.0225 -0.9698
  104MOL0     C13931   1.533   4.297   7.232  1.1273 -0.1423 -0.2469
  104MOL0     C13932   1.444   4.288   7.132 -1.0208 -0.2036  0.6814
  104MOL0     C13933   1.329   4.219   7.143  0.5391  0.3061  0.4550
  104MOL0     C13934   1.243   4.212   7.025  0.2325  0.7126  0.1047
  104MOL0     O13935   1.171   4.095   7.013 -0.4117  0.2213 -0.5717
  104MOL0     C13936   1.091   4.096   6.908  0.4519 -1.4619 -0.7471
  104MOL0     C13937   0.968   4.168   6.914  0.4303  0.3471  0.9156
  104MOL0     C13938   0.877   4.158   6.811 -0.5641  0.0856 -1.1599
  104MOL0     C13939   0.900   4.093   6.696  0.0119 -0.3457 -0.3325
  104MOL0     O13940   0.805   4.092   6.598 -0.5048 -0.4607 -0.8654
  104MOL0     C13941   0.844   4.185   6.492  0.5251 -0.5558 -0.6715
  104MOL0     C13942   0.722   4.259   6.450  0.7595  0.1140  0.6180
  104MOL0     C13943   0.760   4.336   6.326 -0.6685  0.5773  0.4451
  104MOL0     C13944   0.851   4.453   6.352  0.3553 -0.2367 -0.1719
  104MOL0     C13945   0.888   4.512   6.217 -0.3991  0.8304 -0.2067
  104MOL0     C13946   0.977   4.640   6.225 -0.1363 -0.4570  0.1475
  104MOL0     C13947   1.121   4.602   6.195  0.0138  0.0157  0.5737
  104MOL0     C13948   1.217   4.729   6.187 -0.1299 -0.2095 -0.0270
  104MOL0    Cl13949   1.264   4.778   6.355  0.0230  0.1725  0.2835
  104MOL0     C13950   1.015   4.017   6.683 -1.3533  0.2910 -0.2542
  104MOL0     C13951   1.108   4.023   6.791  0.9524  1.0506 -0.1992
  104MOL0     O13952   1.252   4.301   6.940  0.8645 -0.1354 -0.1374
  104MOL0     C13953   1.293   4.154   7.265  0.2095 -0.1596  0.6099
  104MOL0     C13954   1.380   4.176   7.373 -0.0972 -0.0529 -0.0217
  104MOL0     N13955   1.767   4.451   8.051  0.4110 -0.1960 -0.2502
  104MOL0     N13956   1.689   4.504   8.134 -1.0123 -0.0041 -0.6913
  104MOL0     C13957   0.560   4.181   8.370  0.2404 -0.0924  0.4624
  104MOL0     C13958   0.450   4.098   8.392  0.2022  0.2498  0.1405
  104MOL0     C13959   0.183   3.784   8.542  0.1094  1.1601  0.8640
  104MOL0     C13960   0.135   3.707   8.433 -1.0636 -0.6318 -0.0926
  104MOL0     C13961   0.016   3.639   8.446  0.3934  0.4126  0.5607
  104MOL0     C13962  -0.067   3.660   8.556  0.0081  0.5289  1.4350
  104MOL0     O13963  -0.181   3.582   8.565 -0.1384  0.4867 -0.3851
  104MOL0     C13964  -0.218   3.531   8.696  0.0494  0.8628  0.7441
  104MOL0     C13965  -0.349   3.453   8.689  0.2605 -0.0923  0.1796
  104MOL0     C13966  -0.340   3.358   8.568  0.7357 -0.8053  0.1096
  104MOL0     C13967  -0.452   3.255   8.561  0.0324  0.3933 -1.0661
  104MOL0     C13968  -0.584   3.308   8.559  0.4373 -1.1030 -0.8765
  104MOL0     C13969  -0.698   3.345   8.551 -0.9278  0.2820 -0.3231
  104MOL0     C13970  -0.020   3.746   8.663  1.2082  0.7947  1.0929
  104MOL0     C13971   0.101   3.803   8.654 -0.4893 -0.1056 -0.9436
  104MOL0     C13972   0.145   3.873   8.790 -0.9377 -0.2266 -0.1073
  104MOL0     H13973   0.598   3.789   8.361  2.2642  0.6695  0.5397
  104MOL0     H13974   0.794   3.931   8.339 -0.4769 -0.4031  1.3214
  104MOL0     H13975   0.733   4.348   8.243  2.7519 -2.6748 -2.9322
  104MOL0     H13976   0.772   4.398   8.411  0.6685 -0.6055  0.7496
  104MOL0     H13977   1.015   4.338   8.337 -1.0306 -4.1486 -1.3208
  104MOL0     H13978   0.949   4.497   8.297 -0.2877  0.3679 -3.2889
  104MOL0     H13979   0.878   4.376   8.064  0.3414  1.5676 -0.6953
  104MOL0     H13980   0.994   4.246   8.110 -0.9216  0.1525 -1.0339
  104MOL0     H13981   1.121   4.367   7.978  2.1573 -2.4582  2.6888
  104MOL0     H13982   1.043   4.523   8.006  2.0639  0.0297 -1.3617
  104MOL0     H13983   1.149   4.544   8.226 -0.2028  0.5787 -0.9358
  104MOL0     H13984   1.227   4.390   8.216 -0.7197 -0.7269 -1.0057
  104MOL0     H13985   1.368   4.442   8.036 -0.2771 -0.9145 -0.2459
  104MOL0     H13986   1.293   4.607   8.007 -3.3116  0.8485  2.1150
  104MOL0     H13987   1.448   4.531   8.250  1.6507 -1.2843 -2.6134
  104MOL0     H13988   1.335   4.674   8.245 -0.2132 -1.8274  1.6005
  104MOL0     H13989   1.493   4.769   8.056 -3.1178  1.1350  1.6262
  104MOL0     H13990   1.566   4.747   8.213  2.9356  0.6988 -1.3902
  104MOL0     H13991   1.600   4.662   7.866 -1.2904  1.0209  1.9085
  104MOL0     H13992   1.857   4.535   7.743 -1.0054  0.6057 -0.3773
  104MOL0     H13993   1.890   4.385   7.830 -0.1411  0.1445  0.6648
  104MOL0     H13994   1.657   4.297   7.766 -2.4120  0.4461 -2.1595
  104MOL0     H13995   1.637   4.451   7.678 -3.4306 -1.7856  1.7626
  104MOL0     H13996   1.794   4.208   7.613 -0.3753 -0.1138 -0.5317
  104MOL0     H13997   1.890   4.349   7.594 -0.0910 -0.9554 -0.2183
  104MOL0     H13998   1.774   4.287   7.373 -0.1595  0.8238 -0.4596
  104MOL0     H13999   1.687   4.427   7.429 -1.0950  0.6061 -0.1335
  104MOL0     H14000   1.627   4.346   7.207  1.2336 -0.8177 -1.1958
  104MOL0     H14001   1.475   4.333   7.038 -3.3777  0.4769  0.1421
  104MOL0     H14002   0.951   4.227   7.003  1.8234 -2.8291  3.4790
  104MOL0     H14003   0.778   4.191   6.840 -0.0707 -0.4112  1.3639
  104MOL0     H14004   0.904   4.262   6.542 -0.3079  1.1394 -2.1829
  104MOL0     H14005   0.904   4.138   6.414  1.0473  0.2601 -0.7712
  104MOL0     H14006   0.639   4.191   6.433  0.4527  0.9386 -1.4610
  104MOL0     H14007   0.690   4.333   6.524  1.1451 -0.5074  1.4169
  104MOL0     H14008   0.805   4.270   6.251 -0.8566 -0.0036  0.8366
  104MOL0     H14009   0.670   4.377   6.279 -0.0207  1.2357 -0.2476
  104MOL0     H14010   0.941   4.429   6.409  0.3128  0.5363  0.2255
  104MOL0     H14011   0.782   4.516   6.409 -2.6786 -1.2602 -2.3886
  104MOL0     H14012   0.799   4.540   6.159 -0.1652  0.4563 -0.7592
  104MOL0     H14013   0.942   4.430   6.168  0.9731  0.3560  1.9765
  104MOL0     H14014   0.943   4.700   6.140  0.7501 -1.7675 -1.1820
  104MOL0     H14015   0.960   4.698   6.316 -2.1441  0.6759 -0.8980
  104MOL0     H14016   1.121   4.550   6.099 -0.8758  0.2305  0.4545
  104MOL0     H14017   1.171   4.534   6.265 -0.5424 -2.1366 -1.0142
  104MOL0     H14018   1.308   4.703   6.133 -0.6989 -1.0185 -0.6382
  104MOL0     H14019   1.183   4.819   6.136 -1.3311  2.2909  4.5946
  104MOL0     H14020   1.039   3.976   6.586 -2.5089  1.4534 -1.0493
  104MOL0     H14021   1.191   3.953   6.793  0.6355  0.6777  1.2376
  104MOL0     H14022   1.197   4.105   7.274 -0.9221  2.0529  1.1361
  104MOL0     H14023   1.358   4.152   7.477  0.5351  1.4022  0.4646
  104MOL0     H14024   0.536   4.286   8.365 -0.8071 -0.2192  2.1287
  104MOL0     H14025   0.348   4.135   8.392 -0.5918 -1.7609  0.3721
  104MOL0     H14026   0.201   3.684   8.350  2.0550 -0.0797  2.0555
  104MOL0     H14027  -0.014   3.563   8.375 -0.8459  0.2964  1.1815
  104MOL0     H14028  -0.225   3.612   8.769  0.2911  2.3824 -0.8552
  104MOL0     H14029  -0.136   3.471   8.736  1.0359  1.2117 -0.6785
  104MOL0     H14030  -0.434   3.521   8.682  0.4299 -0.0525 -2.2329
  104MOL0     H14031  -0.361   3.401   8.785  0.5825  1.7634  1.2805
  104MOL0     H14032  -0.245   3.305   8.569  0.3800 -1.4755  2.0535
  104MOL0     H14033  -0.336   3.418   8.476  3.3661 -0.2630  0.5015
  104MOL0     H14034  -0.431   3.181   8.484  0.4758 -3.5559  2.5118
  104MOL0     H14035  -0.449   3.192   8.650  0.1514  2.3235  0.3810
  104MOL0     H14036  -0.797   3.382   8.537 -2.1660 -1.9963  1.6575
  104MOL0     H14037  -0.084   3.753   8.750 -1.0492  0.7280 -0.4470
  104MOL0     H14038   0.225   3.816   8.838 -2.1044 -1.9396 -0.1227
  104MOL0     H14039   0.176   3.977   8.775 -2.0628 -0.0565 -1.4712
  104MOL0     H14040   0.058   3.862   8.856 -4.5312  0.9724 -4.1519
  105MOL0     O14041   3.879   4.762   3.390  0.3784  0.3393  0.5495
  105MOL0     C14042   3.771   4.717   3.362  0.7822 -0.2640  0.0812
  105MOL0     O14043   3.730   4.586   3.380 -0.6356 -0.1014 -0.1192
  105MOL0     C14044   3.836   4.503   3.412  0.4854  0.1517  0.0755
  105MOL0     C14045   3.845   4.444   3.541  0.2573 -0.1099  0.6520
  105MOL0     C14046   3.942   4.356   3.572  0.7920 -0.5528  0.4428
  105MOL0     C14047   4.042   4.331   3.473  0.0306 -0.0472 -0.6075
  105MOL0     O14048   4.129   4.234   3.493  0.2821  0.4493 -0.2879
  105MOL0     C14049   4.219   4.245   3.607 -0.4944 -0.2153  0.6279
  105MOL0     C14050   4.347   4.170   3.563  0.1063 -0.4158  0.2674
  105MOL0     C14051   4.412   4.225   3.438 -0.1584 -0.2542 -0.7544
  105MOL0     C14052   4.417   4.379   3.443  0.0241 -0.4471 -0.6331
  105MOL0     C14053   4.466   4.429   3.308  0.3518 -0.0717 -0.0196
  105MOL0     C14054   4.364   4.449   3.191 -0.1481  0.2219 -0.0391
  105MOL0     C14055   4.436   4.467   3.061 -0.8489  0.1830 -0.2854
  105MOL0     C14056   4.352   4.517   2.944  0.5007  0.5172  0.3765
  105MOL0     N14057   4.231   4.432   2.939 -0.4769 -0.2113 -1.1846
  105MOL0     C14058   4.220   4.313   2.892  0.4610 -0.0635 -0.3787
  105MOL0     C14059   4.098   4.284   2.865 -0.5191 -0.1815  1.0214
  105MOL0     C14060   4.057   4.159   2.785 -0.3985 -0.7862 -0.6420
  105MOL0     C14061   3.975   4.211   2.675 -0.8068  0.6743 -0.0472
  105MOL0     C14062   3.921   4.099   2.585 -0.8194  0.1192  0.2015
  105MOL0     C14063   3.814   4.140   2.481 -1.2166 -0.5708 -0.6460
  105MOL0     O14064   3.800   4.034   2.389 -0.1465 -0.3916  0.7046
  105MOL0     C14065   3.879   4.043   2.273  0.7272  0.0204 -0.0160
  105MOL0     C14066   3.917   3.921   2.213 -0.0995 -0.6116 -0.7387
  105MOL0     C14067   3.999   3.918   2.092  0.6267  0.3406 -1.5490
  105MOL0     C14068   4.032   4.046   2.036 -0.3526  0.5009 -0.4870
  105MOL0     C14069   4.112   4.039   1.903 -0.8448 -0.1350 -1.6087
  105MOL0     O14070   4.102   4.145   1.820 -0.3965 -1.1689 -0.3452
  105MOL0     C14071   4.182   4.152   1.712  0.5138  0.0791 -0.6943
  105MOL0     C14072   4.128   4.123   1.581 -0.1912 -0.6186 -0.5541
  105MOL0     C14073   4.215   4.139   1.474 -0.0904  0.4908 -0.7662
  105MOL0     C14074   4.363   4.156   1.490  0.0761  0.0995  0.5306
  105MOL0     O14075   4.431   4.154   1.372 -0.4373  0.3104  1.2524
  105MOL0     C14076   4.575   4.159   1.375 -0.0715  0.8014 -0.6588
  105MOL0     C14077   4.622   4.155   1.232  1.4451  0.5820 -0.9046
  105MOL0     C14078   4.611   4.288   1.170  0.5493  0.6380 -0.0984
  105MOL0     C14079   4.688   4.297   1.034  0.1696 -0.9528 -0.8773
  105MOL0     C14080   4.631   4.414   0.945 -0.2238 -0.6977  0.5863
  105MOL0     C14081   4.489   4.388   0.894 -0.2147 -0.3976 -0.0048
  105MOL0     C14082   4.455   4.475   0.769  0.1379 -0.3078  0.1878
  105MOL0     C14083   4.310   4.465   0.727 -0.0190  0.2668 -1.6895
  105MOL0    Cl14084   4.280   4.584   0.603 -0.1021 -0.1586 -0.5533
  105MOL0     C14085   4.416   4.183   1.618  0.3024 -0.3968 -0.0704
  105MOL0     C14086   4.322   4.190   1.733  0.2671  0.2327 -0.0516
  105MOL0     O14087   4.173   3.940   1.878 -0.0256  0.9704 -0.1488
  105MOL0     C14088   3.992   4.163   2.099 -0.0170  0.3528  0.0100
  105MOL0     C14089   3.913   4.164   2.213 -0.0179  0.0329  0.4710
  105MOL0     N14090   4.026   4.384   2.925  1.0459  0.4745  0.2979
  105MOL0     N14091   4.110   4.472   2.972 -0.0570 -0.0378  0.3708
  105MOL0     C14092   4.031   4.379   3.348 -0.9097 -0.0522 -0.3593
  105MOL0     C14093   3.920   4.464   3.318 -0.1190  0.2717 -0.7586
  105MOL0     C14094   3.656   4.801   3.310 -0.5945 -0.6331 -0.4752
  105MOL0     C14095   3.529   4.791   3.366  0.1902 -0.1062 -0.7594
  105MOL0     C14096   3.432   4.877   3.338  0.0073 -0.6354 -0.6833
  105MOL0     C14097   3.453   4.988   3.256 -0.7302  0.5898 -0.2047
  105MOL0     O14098   3.370   5.091   3.247  0.8816 -0.3282  0.7364
  105MOL0     C14099   3.258   5.063   3.157 -0.2295 -0.8619  0.1166
  105MOL0     C14100   3.138   5.005   3.212  0.4982  0.8377 -0.1952
  105MOL0     C14101   3.006   5.030   3.132 -1.2755 -0.3465  0.0489
  105MOL0     C14102   2.885   4.964   3.191 -0.0611  0.2479  0.0232
  105MOL0     C14103   2.896   4.822   3.211 -0.4611 -0.0109  0.1640
  105MOL0     C14104   2.922   4.707   3.240  0.2816  0.9162 -0.1020
  105MOL0     C14105   3.576   5.003   3.205  0.2635  0.7184 -0.4752
  105MOL0     C14106   3.682   4.909   3.222 -0.7956  0.0868  0.0849
  105MOL0     C14107   3.810   4.944   3.150  0.1837 -0.3736  0.6254
  105MOL0     H14108   3.770   4.480   3.610 -0.5217  0.7415 -0.6030
  105MOL0     H14109   3.960   4.302   3.664 -2.6882 -1.9330  0.4967
  105MOL0     H14110   4.232   4.350   3.636 -2.8511  0.9037 -1.9180
  105MOL0     H14111   4.180   4.197   3.697 -1.2077 -2.1926 -0.6781
  105MOL0     H14112   4.326   4.063   3.561  0.7261 -0.5902  1.9721
  105MOL0     H14113   4.406   4.181   3.654  0.3381 -1.2998  0.2253
  105MOL0     H14114   4.355   4.193   3.350  1.1167 -0.9390 -1.3559
  105MOL0     H14115   4.516   4.193   3.445 -0.6309 -1.9632 -1.0482
  105MOL0     H14116   4.323   4.431   3.462  0.9346  0.4766  1.8241
  105MOL0     H14117   4.488   4.419   3.515 -0.5126  2.1165 -1.4397
  105MOL0     H14118   4.515   4.526   3.325 -1.6391  1.0385 -0.2184
  105MOL0     H14119   4.558   4.382   3.273  1.6589  1.3558  1.3002
  105MOL0     H14120   4.293   4.366   3.185 -0.4001  0.4715 -0.6397
  105MOL0     H14121   4.297   4.533   3.214 -1.4709 -1.2483  1.8638
  105MOL0     H14122   4.491   4.385   3.014 -0.9683 -0.5911  0.8954
  105MOL0     H14123   4.509   4.546   3.079  1.6756 -2.4690  2.1447
  105MOL0     H14124   4.319   4.617   2.973 -0.8164 -0.2299  1.5978
  105MOL0     H14125   4.393   4.521   2.843 -0.5283  0.8317 -0.0404
  105MOL0     H14126   4.301   4.246   2.865  2.5428  2.3760 -0.6278
  105MOL0     H14127   4.149   4.115   2.747  2.2275  1.6466  2.2993
  105MOL0     H14128   3.989   4.097   2.845 -0.6276 -0.9270 -1.0456
  105MOL0     H14129   3.889   4.265   2.717 -0.2319  0.7317  1.0763
  105MOL0     H14130   4.031   4.283   2.614  1.4640 -0.0510  1.1096
  105MOL0     H14131   3.873   4.029   2.654 -1.7328 -1.9141 -2.3234
  105MOL0     H14132   4.004   4.043   2.541 -1.6744 -1.9515  1.0861
  105MOL0     H14133   3.849   4.233   2.436  3.0165 -2.3708 -1.5399
  105MOL0     H14134   3.719   4.162   2.531 -1.8362  1.6893 -2.6283
  105MOL0     H14135   3.861   3.837   2.253  0.5271 -0.6920  0.0085
  105MOL0     H14136   4.030   3.822   2.053 -3.4582 -0.8746 -2.3242
  105MOL0     H14137   4.028   4.084   1.568 -0.2538 -0.3566 -0.8768
  105MOL0     H14138   4.166   4.121   1.378  0.8554 -4.2513 -0.6040
  105MOL0     H14139   4.611   4.247   1.429 -0.2791  0.0872  0.6691
  105MOL0     H14140   4.615   4.069   1.423 -3.1206 -0.3363 -0.0744
  105MOL0     H14141   4.728   4.128   1.233  2.5212  4.2038  1.0953
  105MOL0     H14142   4.562   4.079   1.181  1.5239 -1.6129  2.0132
  105MOL0     H14143   4.507   4.317   1.148  0.2581 -1.5423 -1.9584
  105MOL0     H14144   4.658   4.362   1.235  2.1166  1.2993 -1.8722
  105MOL0     H14145   4.704   4.199   0.989  2.5425 -1.4581  0.8900
  105MOL0     H14146   4.791   4.323   1.058  0.7666 -0.5769 -3.5463
  105MOL0     H14147   4.700   4.443   0.866 -2.7220  0.2425 -1.3808
  105MOL0     H14148   4.628   4.506   1.004  3.0177 -0.8579  1.1764
  105MOL0     H14149   4.471   4.281   0.886 -0.8654 -0.4441  1.6548
  105MOL0     H14150   4.424   4.429   0.972 -0.5245  1.1524 -1.0317
  105MOL0     H14151   4.517   4.448   0.682  0.3967 -0.6162  0.4612
  105MOL0     H14152   4.465   4.582   0.789 -1.2234 -0.0001 -0.6645
  105MOL0     H14153   4.278   4.368   0.687  0.1157 -0.2765 -0.5458
  105MOL0     H14154   4.242   4.499   0.806 -0.6063  0.0676 -2.1070
  105MOL0     H14155   4.522   4.207   1.624 -0.2447  2.1084  1.1984
  105MOL0     H14156   4.360   4.226   1.828  0.1773 -0.7176  0.3546
  105MOL0     H14157   4.024   4.260   2.061  1.0004  0.4804  1.1230
  105MOL0     H14158   3.870   4.259   2.243 -2.3891 -0.1517 -1.9223
  105MOL0     H14159   4.099   4.353   3.267  0.5148 -2.6729  1.5052
  105MOL0     H14160   3.910   4.499   3.216 -2.0937  1.7506 -0.1161
  105MOL0     H14161   3.511   4.705   3.430 -1.0444  1.7760  1.5882
  105MOL0     H14162   3.330   4.867   3.374 -0.9420  1.5368 -2.5065
  105MOL0     H14163   3.281   4.995   3.074 -0.8305 -0.5051 -0.3544
  105MOL0     H14164   3.236   5.161   3.114  0.8147 -1.1565 -1.1667
  105MOL0     H14165   3.131   5.051   3.311  2.1399 -1.2050  0.9432
  105MOL0     H14166   3.159   4.900   3.231  2.1265  1.3563  1.1658
  105MOL0     H14167   3.020   4.998   3.028  1.9399 -1.0632  0.5760
  105MOL0     H14168   2.991   5.138   3.126  1.8928  0.1865 -0.0578
  105MOL0     H14169   2.863   5.003   3.291 -0.6761  0.4699 -0.1993
  105MOL0     H14170   2.793   4.985   3.137 -1.4329 -0.4252  1.9872
  105MOL0     H14171   2.940   4.602   3.245  0.2028  0.9124  0.1218
  105MOL0     H14172   3.609   5.087   3.144  3.4970  1.5384  2.1174
  105MOL0     H14173   3.781   5.009   3.067  0.4749 -2.5589 -1.2964
  105MOL0     H14174   3.884   4.997   3.210 -0.0728  0.8047 -0.0595
  105MOL0     H14175   3.860   4.853   3.116  2.7825  1.6710 -1.4781
  106MOL0     O14176  10.730   0.439   1.823  0.5019 -0.2100  0.0292
  106MOL0     C14177  10.841   0.482   1.802 -0.5597 -0.2514  0.6877
  106MOL0     O14178  10.872   0.611   1.768  0.4408 -1.0605 -0.3318
  106MOL0     C14179  10.775   0.703   1.753  0.8212  0.0358  0.0088
  106MOL0     C14180  10.717   0.738   1.625  0.3111 -0.5358  0.2678
  106MOL0     C14181  10.612   0.826   1.615 -0.1078  0.4546 -0.2090
  106MOL0     C14182  10.568   0.893   1.726  0.3556 -0.6578 -0.6167
  106MOL0     O14183  10.467   0.986   1.708 -0.1876  0.1258 -0.1486
  106MOL0     C14184  10.426   1.064   1.820 -0.3251  0.1761  0.2416
  106MOL0     C14185  10.289   1.123   1.784 -0.9240 -1.5602 -0.0569
  106MOL0     C14186  10.178   1.019   1.743 -0.1063 -0.3389  0.3275
  106MOL0     C14187  10.041   1.080   1.744 -0.3196 -0.1207 -0.1844
  106MOL0     C14188   9.946   0.963   1.736 -0.0140  0.1088  0.7737
  106MOL0     C14189   9.937   0.900   1.594 -0.9964 -1.0435 -0.4677
  106MOL0     C14190   9.822   0.798   1.587  0.9153 -1.3582  0.2829
  106MOL0     C14191   9.777   0.741   1.448 -0.3093 -1.4569  0.1998
  106MOL0     N14192   9.868   0.646   1.390  0.2335 -0.1847  0.5720
  106MOL0     C14193   9.995   0.679   1.347 -0.0097 -0.3414  0.0129
  106MOL0     C14194  10.054   0.574   1.307  1.6734 -0.7525 -0.4322
  106MOL0     C14195  10.178   0.555   1.245 -0.7609 -0.4887  0.3373
  106MOL0     C14196  10.300   0.573   1.335  0.0495 -0.3493  0.6564
  106MOL0     C14197  10.289   0.468   1.442 -0.4516 -0.2572 -0.0650
  106MOL0     C14198  10.384   0.470   1.554 -0.5888 -0.6039  0.1238
  106MOL0     O14199  10.513   0.438   1.496 -0.3961 -0.0302 -0.1985
  106MOL0     C14200  10.565   0.310   1.526 -0.4091  0.2218  0.4084
  106MOL0     C14201  10.699   0.321   1.505 -0.2506 -0.1088  0.3862
  106MOL0     C14202  10.772   0.196   1.506  0.6539 -1.0680  0.3575
  106MOL0     C14203  10.710   0.070   1.510  0.3286 -0.0522 -0.8289
  106MOL0     C14204  10.762  -0.067   1.504 -0.1722 -0.8180  0.5767
  106MOL0     O14205  10.679  -0.166   1.524 -0.4602 -0.2145  0.0673
  106MOL0     C14206  10.714  -0.293   1.505 -1.0271 -0.0742  0.1481
  106MOL0     C14207  10.782  -0.371   1.592  0.3759 -0.0542  0.0541
  106MOL0     C14208  10.819  -0.501   1.559 -0.7876 -0.5141 -0.3810
  106MOL0     C14209  10.802  -0.550   1.439 -0.2240  0.5337  0.3086
  106MOL0     O14210  10.849  -0.674   1.414 -0.2026 -0.0413 -0.4970
  106MOL0     C14211  10.751  -0.783   1.429 -0.5644  0.1786 -0.0702
  106MOL0     C14212  10.764  -0.853   1.568 -0.8858 -0.0410 -0.0828
  106MOL0     C14213  10.863  -0.972   1.551  0.4425 -0.2801 -0.1110
  106MOL0     C14214  10.926  -1.007   1.683 -0.5260  0.2569  0.1118
  106MOL0     C14215  11.043  -1.097   1.663  0.3208  0.4245  0.7973
  106MOL0     C14216  11.096  -1.176   1.785  0.6122  0.4409 -0.0837
  106MOL0     C14217  11.125  -1.080   1.895  0.0565 -0.3917 -0.7934
  106MOL0     C14218  11.231  -1.120   2.003 -0.4568  1.1107  0.4597
  106MOL0    Cl14219  11.209  -1.293   2.053  0.0119  0.1928 -0.4794
  106MOL0     C14220  10.742  -0.467   1.344 -0.6105 -0.5597 -0.5967
  106MOL0     C14221  10.701  -0.338   1.378  0.4662  0.3641 -0.0513
  106MOL0     O14222  10.880  -0.075   1.485  0.3887  0.3760 -0.0778
  106MOL0     C14223  10.567   0.072   1.533 -0.2750  0.3703 -0.1064
  106MOL0     C14224  10.486   0.196   1.530 -0.8966  0.2026 -0.3045
  106MOL0     N14225   9.948   0.472   1.310 -0.4221  0.0219  0.9184
  106MOL0     N14226   9.838   0.516   1.365  0.1626  0.1023  0.4704
  106MOL0     C14227  10.625   0.863   1.851 -0.0879  0.1764 -0.6571
  106MOL0     C14228  10.732   0.775   1.864  0.0986 -0.2284  0.3974
  106MOL0     C14229  10.958   0.391   1.812  0.3601 -0.6447 -0.5704
  106MOL0     C14230  11.066   0.419   1.730 -0.2422 -0.3379 -0.3392
  106MOL0     C14231  11.187   0.355   1.746  0.0897  1.1509  0.1128
  106MOL0     C14232  11.201   0.244   1.825 -1.0927 -0.3471 -0.4707
  106MOL0     O14233  11.311   0.156   1.828 -0.8417  0.2002  0.4089
  106MOL0     C14234  11.381   0.141   1.698 -0.7342 -0.9367 -0.1234
  106MOL0     C14235  11.530   0.125   1.717 -0.2193  0.4373 -0.4468
  106MOL0     C14236  11.590   0.074   1.582  0.8917  0.0265 -0.4432
  106MOL0     C14237  11.713  -0.015   1.618  0.2545 -0.2937  0.2471
  106MOL0     C14238  11.762  -0.090   1.508 -0.2157  0.0616  0.0129
  106MOL0     C14239  11.806  -0.160   1.419  0.5649 -0.9288  0.0609
  106MOL0     C14240  11.097   0.202   1.900  0.3740  0.9173  1.3529
  106MOL0     C14241  10.971   0.271   1.892  0.4062  0.2962  0.0756
  106MOL0     C14242  10.861   0.231   1.991  0.3203  1.3223 -0.2770
  106MOL0     H14243  10.751   0.687   1.536 -1.2733  1.2552 -1.4568
  106MOL0     H14244  10.566   0.850   1.520  0.6016 -1.2569 -1.0264
  106MOL0     H14245  10.416   1.002   1.910  2.3706 -0.2018  0.3571
  106MOL0     H14246  10.493   1.147   1.843 -1.0355  0.8466 -0.0641
  106MOL0     H14247  10.305   1.212   1.722  0.6906  0.8162  3.3965
  106MOL0     H14248  10.255   1.170   1.877 -0.0579 -0.6457 -0.1869
  106MOL0     H14249  10.189   0.935   1.813 -1.6908 -2.1507 -1.4974
  106MOL0     H14250  10.185   0.976   1.643 -0.8857  0.4500 -0.0827
  106MOL0     H14251  10.018   1.130   1.839  0.1875 -0.2697  0.0185
  106MOL0     H14252  10.036   1.151   1.661 -0.8610 -0.5392 -0.5126
  106MOL0     H14253   9.954   0.886   1.813 -2.4101 -2.0149 -0.9181
  106MOL0     H14254   9.846   1.006   1.750  0.5794  2.2867 -1.0596
  106MOL0     H14255   9.933   0.984   1.524 -0.3665  1.4527  2.2367
  106MOL0     H14256  10.031   0.850   1.574 -0.5983 -0.0619 -1.1301
  106MOL0     H14257   9.731   0.844   1.628  1.0688 -0.3301 -0.5017
  106MOL0     H14258   9.861   0.709   1.638 -0.3780 -2.2918 -0.2988
  106MOL0     H14259   9.685   0.686   1.472 -0.2486 -2.6649 -1.9855
  106MOL0     H14260   9.767   0.825   1.379  1.7069 -1.6092 -0.3532
  106MOL0     H14261  10.023   0.783   1.334 -0.2980  0.0533  2.1979
  106MOL0     H14262  10.183   0.463   1.186 -0.8281  0.5992 -1.4085
  106MOL0     H14263  10.181   0.629   1.165 -1.2163 -0.3167  0.4751
  106MOL0     H14264  10.392   0.559   1.278 -0.4046  0.5683 -0.3484
  106MOL0     H14265  10.311   0.676   1.370  0.0010  0.2267 -0.9407
  106MOL0     H14266  10.300   0.374   1.388  1.4078  1.7526 -3.5219
  106MOL0     H14267  10.191   0.472   1.491 -0.9980  3.5044 -1.1680
  106MOL0     H14268  10.353   0.404   1.636 -0.6030 -1.0572 -0.2446
  106MOL0     H14269  10.401   0.571   1.594 -1.8371 -0.6265  0.7764
  106MOL0     H14270  10.748   0.416   1.488  0.9010 -0.2239  2.7241
  106MOL0     H14271  10.880   0.196   1.502  0.6297  0.4155 -1.8542
  106MOL0     H14272  10.806  -0.332   1.691 -0.9369  0.9547  0.0041
  106MOL0     H14273  10.868  -0.554   1.640 -1.5924 -0.8661 -0.1181
  106MOL0     H14274  10.650  -0.744   1.414 -1.1924 -1.4078 -0.1609
  106MOL0     H14275  10.773  -0.847   1.343 -1.1132  0.2440 -0.2678
  106MOL0     H14276  10.809  -0.774   1.629  2.4416 -2.3851  0.7530
  106MOL0     H14277  10.670  -0.891   1.609 -0.4112 -2.9525 -1.4060
  106MOL0     H14278  10.823  -1.060   1.501  0.2452 -1.2335  1.6560
  106MOL0     H14279  10.939  -0.922   1.490 -2.0045  1.0185 -2.2607
  106MOL0     H14280  10.849  -1.059   1.741  0.3868 -0.4571  0.7252
  106MOL0     H14281  10.951  -0.925   1.751  0.2750 -0.7880  1.1365
  106MOL0     H14282  11.124  -1.030   1.633  0.2959  0.1534  0.1018
  106MOL0     H14283  11.026  -1.171   1.584  2.3318  1.8577 -1.1008
  106MOL0     H14284  11.024  -1.246   1.829  2.6580 -0.6106  1.7634
  106MOL0     H14285  11.186  -1.232   1.761  2.2319  1.9823  2.0226
  106MOL0     H14286  11.028  -1.059   1.942 -0.2523  2.1094 -2.3882
  106MOL0     H14287  11.171  -0.994   1.845  2.0084 -1.1737 -0.4174
  106MOL0     H14288  11.330  -1.131   1.957 -1.4511 -1.9220 -1.2427
  106MOL0     H14289  11.236  -1.049   2.086  0.1636  0.6850  0.7969
  106MOL0     H14290  10.731  -0.507   1.244  0.6886 -3.9433  0.4623
  106MOL0     H14291  10.687  -0.262   1.302  1.2672  1.8674  1.2594
  106MOL0     H14292  10.519  -0.025   1.540  2.5907 -1.0221  2.0568
  106MOL0     H14293  10.378   0.198   1.531 -0.8946  1.3561 -1.0784
  106MOL0     H14294  10.593   0.907   1.945 -0.7744  2.0885 -1.7484
  106MOL0     H14295  10.780   0.754   1.959  0.4300 -2.0738 -0.1311
  106MOL0     H14296  11.044   0.489   1.650 -2.7348 -1.3251 -0.6351
  106MOL0     H14297  11.269   0.385   1.681 -1.5711  2.8945 -1.3076
  106MOL0     H14298  11.364   0.228   1.634  0.7561  1.0124  1.9727
  106MOL0     H14299  11.338   0.053   1.648 -0.3931 -1.8895  1.2169
  106MOL0     H14300  11.550   0.062   1.804 -0.3696 -0.8989 -1.3487
  106MOL0     H14301  11.562   0.227   1.739 -0.1265 -0.2734  3.3828
  106MOL0     H14302  11.621   0.162   1.525  0.5149 -0.0252 -0.7344
  106MOL0     H14303  11.511   0.018   1.530 -1.2465 -2.0347  4.3815
  106MOL0     H14304  11.792   0.052   1.654 -0.8978  1.1403  0.2132
  106MOL0     H14305  11.697  -0.090   1.695  2.5967 -0.3112  0.7823
  106MOL0     H14306  11.843  -0.231   1.347 -0.0770 -1.2206  0.0127
  106MOL0     H14307  11.116   0.118   1.965  1.6827  1.8693  2.2557
  106MOL0     H14308  10.852   0.316   2.058 -0.2883  0.7486  0.3819
  106MOL0     H14309  10.763   0.212   1.946 -0.1728  0.1363  1.2163
  106MOL0     H14310  10.892   0.144   2.049  1.0297  0.2591 -2.1603
  107MOL0     O14311   9.519  11.041   3.648 -0.3278  0.2073 -0.0459
  107MOL0     C14312   9.481  11.157   3.647 -0.1396 -0.0834  0.7833
  107MOL0     O14313   9.524  11.259   3.562 -0.0286 -0.4404  0.2682
  107MOL0     C14314   9.615  11.224   3.471 -0.2820  0.3145 -0.2317
  107MOL0     C14315   9.738  11.168   3.502 -0.0775  0.3802 -0.1136
  107MOL0     C14316   9.834  11.158   3.403 -0.1185 -0.5150 -0.0001
  107MOL0     C14317   9.807  11.190   3.274  0.1189 -0.2419 -0.2530
  107MOL0     O14318   9.917  11.172   3.188  0.5796  0.0409 -0.6101
  107MOL0     C14319   9.996  11.301   3.168  0.7650  0.9509 -0.4420
  107MOL0     C14320  10.107  11.280   3.058  0.4570  0.8347  0.3088
  107MOL0     C14321  10.039  11.292   2.915 -0.9018 -0.4351 -0.8008
  107MOL0     C14322  10.151  11.255   2.812  1.0222  0.0001 -0.4765
  107MOL0     C14323  10.128  11.330   2.679  0.7774 -0.3863  0.1168
  107MOL0     C14324  10.214  11.273   2.565 -0.0229 -1.1216 -0.2901
  107MOL0     C14325  10.238  11.367   2.441 -0.9815 -0.1081 -0.3250
  107MOL0     C14326  10.349  11.309   2.351 -0.0048 -0.4414  0.1535
  107MOL0     N14327  10.480  11.338   2.407 -0.4744  0.3085  0.1041
  107MOL0     C14328  10.560  11.453   2.392 -0.0706  0.0635 -0.3944
  107MOL0     C14329  10.676  11.436   2.463  0.1567  0.0003  0.2925
  107MOL0     C14330  10.781  11.542   2.487  0.3068  0.4782 -0.1656
  107MOL0     C14331  10.869  11.549   2.368  0.5419 -0.1763 -0.4134
  107MOL0     C14332  10.949  11.414   2.364 -0.7078  0.6988  0.5056
  107MOL0     C14333  11.067  11.424   2.269  0.3049  0.1954 -0.8017
  107MOL0     O14334  11.160  11.516   2.326 -0.1585 -0.1543  0.2400
  107MOL0     C14335  11.286  11.525   2.274 -0.2068  0.7381 -0.6833
  107MOL0     C14336  11.335  11.437   2.168  0.6042  0.3358 -0.5859
  107MOL0     C14337  11.472  11.453   2.123  0.2350  0.8891 -0.3000
  107MOL0     C14338  11.565  11.544   2.184  0.3605 -0.1610 -0.6863
  107MOL0     C14339  11.713  11.547   2.153  0.0557 -0.3460  0.7118
  107MOL0     O14340  11.797  11.636   2.209  0.9652 -0.2784  0.3088
  107MOL0     C14341  11.922  11.645   2.162 -0.6765  0.4993  0.8180
  107MOL0     C14342  12.020  11.556   2.130 -0.3328  0.2448  0.1239
  107MOL0     C14343  12.148  11.590   2.098  0.0071  0.0611  0.4263
  107MOL0     C14344  12.192  11.725   2.094 -0.1915 -0.8347  0.4099
  107MOL0     O14345  12.325  11.739   2.067 -0.1944  0.0421 -0.1143
  107MOL0     C14346  12.383  11.868   2.025 -0.7288 -0.0071 -0.6993
  107MOL0     C14347  12.503  11.858   1.927 -0.5318  1.3300 -0.0027
  107MOL0     C14348  12.605  11.744   1.969  0.5687 -0.2386 -0.1591
  107MOL0     C14349  12.753  11.766   1.961 -0.6130 -1.1531 -0.6815
  107MOL0     C14350  12.828  11.644   2.020 -0.1550 -0.0430  0.3107
  107MOL0     C14351  12.802  11.509   1.948 -0.3347  1.2229  0.6182
  107MOL0     C14352  12.920  11.411   1.985  0.2244  0.0061 -0.5371
  107MOL0     C14353  12.897  11.276   1.929 -0.2155  0.6252 -0.0061
  107MOL0    Cl14354  12.931  11.289   1.754  0.2316 -0.0972  0.2168
  107MOL0     C14355  12.096  11.831   2.130 -0.3509  0.8936 -0.6982
  107MOL0     C14356  11.966  11.780   2.171 -0.4289 -1.0195 -0.1459
  107MOL0     O14357  11.743  11.455   2.079 -0.7595 -0.0584  0.5076
  107MOL0     C14358  11.510  11.630   2.284 -1.3295 -0.4689 -0.0465
  107MOL0     C14359  11.370  11.619   2.327 -1.2697  0.8814  1.2701
  107MOL0     N14360  10.667  11.310   2.521 -0.2097 -0.4897  0.1460
  107MOL0     N14361  10.555  11.257   2.488 -0.2606 -0.2177  0.8879
  107MOL0     C14362   9.684  11.242   3.231  0.0054  0.1873 -0.5613
  107MOL0     C14363   9.590  11.273   3.336  0.0062  0.5770 -0.2461
  107MOL0     C14364   9.369  11.194   3.746  0.2529 -0.5655  0.0281
  107MOL0     C14365   9.354  11.335   3.766  0.0384  0.9551 -1.1922
  107MOL0     C14366   9.250  11.380   3.850 -0.7108  0.4486 -0.1007
  107MOL0     C14367   9.152  11.292   3.905  0.1831 -0.2030 -1.0707
  107MOL0     O14368   9.047  11.334   3.992 -0.4755 -0.3985 -0.2157
  107MOL0     C14369   8.924  11.329   3.912  0.6001 -1.0276 -0.2859
  107MOL0     C14370   8.916  11.467   3.846 -0.3664  0.3486 -0.5357
  107MOL0     C14371   8.779  11.481   3.772 -0.0445 -0.0416  0.0264
  107MOL0     C14372   8.658  11.516   3.869  0.0644  0.0634 -0.2534
  107MOL0     C14373   8.596  11.641   3.817  0.7714  1.3452 -0.3496
  107MOL0     C14374   8.519  11.717   3.769  0.3782  0.0067 -0.6796
  107MOL0     C14375   9.175  11.155   3.889  0.2470  0.1513 -0.4634
  107MOL0     C14376   9.281  11.103   3.812 -0.0691 -0.1698 -0.3609
  107MOL0     C14377   9.295  10.962   3.793 -0.3962 -0.1718 -1.4017
  107MOL0     H14378   9.764  11.132   3.601 -1.8766  0.6625  0.4987
  107MOL0     H14379   9.932  11.123   3.432  0.9962  1.9448 -0.5287
  107MOL0     H14380   9.931  11.385   3.140 -0.7521 -0.0446 -0.0637
  107MOL0     H14381  10.046  11.320   3.263 -1.7755 -1.3076  1.5194
  107MOL0     H14382  10.161  11.188   3.080 -0.0885  0.1168 -1.2066
  107MOL0     H14383  10.183  11.358   3.063  3.7627 -2.1953  1.8353
  107MOL0     H14384  10.011  11.396   2.894 -0.4471  0.2087  1.5109
  107MOL0     H14385   9.953  11.225   2.905 -1.4131  0.4986 -3.3496
  107MOL0     H14386  10.248  11.293   2.846  1.5005 -1.2718 -0.3677
  107MOL0     H14387  10.167  11.147   2.810 -1.4036 -0.4093 -0.8675
  107MOL0     H14388  10.022  11.319   2.652  0.6056 -0.6505  0.8846
  107MOL0     H14389  10.140  11.438   2.691 -2.0214 -0.1046  1.3234
  107MOL0     H14390  10.314  11.258   2.606  0.5504  0.7086 -0.9418
  107MOL0     H14391  10.171  11.183   2.520 -0.2054  0.1113 -2.7503
  107MOL0     H14392  10.250  11.469   2.478 -3.2105  0.0523  0.1113
  107MOL0     H14393  10.149  11.361   2.377 -1.2824 -2.8856  0.2281
  107MOL0     H14394  10.349  11.200   2.355 -1.8212 -0.4507  0.8270
  107MOL0     H14395  10.327  11.349   2.252  0.6768 -0.0186  0.1690
  107MOL0     H14396  10.536  11.542   2.335  1.2945  0.6060 -0.1626
  107MOL0     H14397  10.733  11.637   2.512 -0.6279 -0.2686  0.9745
  107MOL0     H14398  10.841  11.531   2.578  2.1145  3.1156 -0.9240
  107MOL0     H14399  10.807  11.561   2.280  0.1635 -0.6186 -0.2131
  107MOL0     H14400  10.936  11.635   2.373  0.5546 -0.1220 -1.4298
  107MOL0     H14401  10.884  11.337   2.322  1.3372 -0.7537 -0.1289
  107MOL0     H14402  10.980  11.369   2.459  1.5534  1.0580 -0.0112
  107MOL0     H14403  11.025  11.473   2.181 -0.9549  0.4913 -0.0683
  107MOL0     H14404  11.096  11.324   2.235 -1.7144 -0.8495  0.3505
  107MOL0     H14405  11.268  11.367   2.119 -2.1585  3.5613 -1.7588
  107MOL0     H14406  11.510  11.383   2.049  1.0852 -0.7528  1.5786
  107MOL0     H14407  12.002  11.449   2.139 -1.4515  0.5826  3.6214
  107MOL0     H14408  12.220  11.509   2.093 -0.1978 -0.1623  1.0147
  107MOL0     H14409  12.306  11.922   1.969  0.4152  0.9083 -1.4247
  107MOL0     H14410  12.407  11.925   2.114 -1.2046 -2.5118  1.1448
  107MOL0     H14411  12.469  11.861   1.823 -0.6659  0.3100  0.0038
  107MOL0     H14412  12.560  11.949   1.948 -0.5395  0.7856  2.7246
  107MOL0     H14413  12.573  11.726   2.073 -5.2833 -4.4421 -2.1464
  107MOL0     H14414  12.566  11.649   1.931  1.6790  0.0485 -2.0885
  107MOL0     H14415  12.787  11.847   2.027  1.9133 -0.4443 -2.6601
  107MOL0     H14416  12.787  11.787   1.860  0.8517  2.3828  0.3904
  107MOL0     H14417  12.812  11.619   2.125 -0.1316 -0.5181  0.2026
  107MOL0     H14418  12.934  11.670   2.018 -0.3176  0.6272 -1.8719
  107MOL0     H14419  12.710  11.462   1.982  0.0940  1.7065  2.5879
  107MOL0     H14420  12.812  11.520   1.839  1.9609  2.2862  0.8637
  107MOL0     H14421  12.911  11.404   2.093 -1.8076  1.2903 -0.5552
  107MOL0     H14422  13.014  11.455   1.950  1.3188  0.4000  2.6240
  107MOL0     H14423  12.961  11.199   1.975 -1.5496 -1.3804 -1.3144
  107MOL0     H14424  12.798  11.242   1.961  1.0601 -2.8064  0.8231
  107MOL0     H14425  12.108  11.939   2.124 -0.4056  0.8519 -1.6419
  107MOL0     H14426  11.901  11.863   2.198 -0.1581 -1.5753  2.4831
  107MOL0     H14427  11.571  11.711   2.322 -2.8974 -0.2840  2.3085
  107MOL0     H14428  11.345  11.690   2.405  0.5861  1.7793  1.1042
  107MOL0     H14429   9.663  11.273   3.130 -0.1807 -0.4047 -0.7061
  107MOL0     H14430   9.503  11.329   3.303  0.0091  0.7659  0.0550
  107MOL0     H14431   9.428  11.407   3.732  2.5347 -0.4740  0.8980
  107MOL0     H14432   9.237  11.487   3.859  1.5915  0.7363  0.4844
  107MOL0     H14433   8.834  11.303   3.967  0.0420  0.8793 -0.2226
  107MOL0     H14434   8.928  11.262   3.826  3.1587 -0.7414 -0.4724
  107MOL0     H14435   9.002  11.458   3.780 -1.5164 -2.7814 -1.7654
  107MOL0     H14436   8.925  11.539   3.928  0.3692 -1.7251  1.2978
  107MOL0     H14437   8.753  11.388   3.720  0.7844  0.3547 -1.1262
  107MOL0     H14438   8.801  11.555   3.695  0.5098  0.1456  0.3542
  107MOL0     H14439   8.593  11.428   3.874 -0.2020  0.3119  0.9267
  107MOL0     H14440   8.676  11.552   3.971 -0.4554 -2.0331  0.6322
  107MOL0     H14441   8.444  11.785   3.734  0.6144  0.3524 -0.5225
  107MOL0     H14442   9.094  11.092   3.926 -1.2528  1.8189 -0.7696
  107MOL0     H14443   9.207  10.918   3.841 -0.5527  0.4639 -1.1016
  107MOL0     H14444   9.293  10.936   3.686  1.1009 -0.5039 -1.3747
  107MOL0     H14445   9.389  10.931   3.839 -0.0746  2.5502 -0.0466
  108MOL0     O14446   9.246   9.168   0.141 -0.3665 -0.3733  0.5924
  108MOL0     C14447   9.278   9.060   0.170  0.4209  0.5588 -0.4453
  108MOL0     O14448   9.403   9.010   0.166 -0.2393  0.2191 -1.0495
  108MOL0     C14449   9.498   9.100   0.129  0.1929 -0.3690 -1.1250
  108MOL0     C14450   9.553   9.178   0.234  0.0959  0.4898  0.2862
  108MOL0     C14451   9.640   9.281   0.211  1.2551  0.4906  0.4660
  108MOL0     C14452   9.687   9.308   0.076  0.1484  0.5318 -0.5997
  108MOL0     O14453   9.775   9.418   0.046  0.0962  0.0555  0.4566
  108MOL0     C14454   9.863   9.452   0.149 -0.2634  0.5093 -0.5606
  108MOL0     C14455   9.999   9.478   0.087 -0.1838  0.2259 -0.3228
  108MOL0     C14456  10.061   9.355   0.029 -0.7285 -0.2157  0.3466
  108MOL0     C14457  10.193   9.388  -0.047 -0.0721 -0.0898 -0.8455
  108MOL0     C14458  10.257   9.255  -0.105 -0.9944  0.4212 -0.5219
  108MOL0     C14459  10.393   9.285  -0.173  0.2963  0.5346  0.2264
  108MOL0     C14460  10.453   9.142  -0.216 -0.2203  0.1598 -0.0931
  108MOL0     C14461  10.573   9.152  -0.310 -0.6337 -0.4452 -1.2929
  108MOL0     N14462  10.674   9.233  -0.253 -0.2745  0.5971 -0.5752
  108MOL0     C14463  10.799   9.180  -0.221 -0.2339 -0.6204 -0.3690
  108MOL0     C14464  10.874   9.293  -0.219  0.0550 -0.2042 -0.0753
  108MOL0     C14465  11.012   9.298  -0.171  0.3476 -0.8749  0.7598
  108MOL0     C14466  11.036   9.337  -0.022  0.1091 -0.8194  0.8581
  108MOL0     C14467  10.971   9.248   0.085  0.0807  0.0526  0.4677
  108MOL0     C14468  10.979   9.305   0.215  0.2969 -0.4522  0.5572
  108MOL0     O14469  11.117   9.298   0.270  0.9273  0.5692 -0.5649
  108MOL0     C14470  11.144   9.385   0.377 -0.0233  0.1117 -0.2779
  108MOL0     C14471  11.275   9.377   0.432 -0.0408 -0.8046  0.7201
  108MOL0     C14472  11.326   9.473   0.516  0.1041  0.7161 -0.0707
  108MOL0     C14473  11.235   9.572   0.565 -0.0917  0.1895 -0.9384
  108MOL0     C14474  11.276   9.684   0.656 -0.3554  0.7583 -0.0542
  108MOL0     O14475  11.180   9.744   0.730 -0.2354 -0.0441 -0.0618
  108MOL0     C14476  11.212   9.830   0.836 -0.0668  0.7372 -0.1322
  108MOL0     C14477  11.286   9.944   0.819 -0.0377  0.5320  1.0378
  108MOL0     C14478  11.319  10.039   0.914 -0.8544  0.2981 -1.0328
  108MOL0     C14479  11.252  10.029   1.037  0.2351 -0.9135  0.5349
  108MOL0     O14480  11.278  10.122   1.136  0.2474  0.4528 -0.1263
  108MOL0     C14481  11.174  10.222   1.161  0.1873  0.5856  0.5231
  108MOL0     C14482  11.076  10.175   1.265 -0.1068  0.4709  0.9666
  108MOL0     C14483  10.948  10.130   1.184 -0.4689  0.2766 -0.8328
  108MOL0     C14484  10.871  10.020   1.252 -0.4684 -0.1667 -0.2625
  108MOL0     C14485  10.721  10.019   1.222  0.4002 -0.7179 -0.1749
  108MOL0     C14486  10.638  10.124   1.297  0.6489  0.1697  0.1387
  108MOL0     C14487  10.616  10.098   1.442  0.0457 -0.5617 -0.2331
  108MOL0     C14488  10.530  10.210   1.512 -0.0567 -1.2406 -0.1066
  108MOL0    Cl14489  10.381  10.142   1.585  0.2684 -0.1042 -0.0791
  108MOL0     C14490  11.164   9.918   1.057 -0.8427 -1.1532 -0.5198
  108MOL0     C14491  11.143   9.820   0.957  0.7161  0.7461  1.0467
  108MOL0     O14492  11.393   9.714   0.657 -0.0300 -0.3602  0.4881
  108MOL0     C14493  11.095   9.566   0.526 -1.1633 -0.8392 -0.3734
  108MOL0     C14494  11.053   9.476   0.433 -0.4936 -0.8916 -0.4922
  108MOL0     N14495  10.795   9.402  -0.241  0.8412 -0.3086 -0.3612
  108MOL0     N14496  10.680   9.368  -0.269  0.0289  0.4369 -0.1290
  108MOL0     C14497   9.640   9.226  -0.024 -0.3286  0.5064  0.3791
  108MOL0     C14498   9.547   9.114  -0.000 -0.1123 -0.7548 -0.1365
  108MOL0     C14499   9.181   8.962   0.228  0.1520 -0.0616 -0.3934
  108MOL0     C14500   9.064   9.019   0.293  0.3664 -0.2063 -0.4138
  108MOL0     C14501   8.971   8.946   0.363 -0.4233  0.2620  0.0756
  108MOL0     C14502   8.976   8.799   0.357 -0.9654 -0.5243 -0.0148
  108MOL0     O14503   8.879   8.726   0.409  0.2974 -0.6089  0.3798
  108MOL0     C14504   8.764   8.703   0.323 -0.0937  0.2139 -0.0055
  108MOL0     C14505   8.752   8.555   0.293  0.4611  0.7560 -1.0209
  108MOL0     C14506   8.609   8.505   0.264  1.3681  0.2206  0.2419
  108MOL0     C14507   8.617   8.366   0.209  0.1160  0.1551  0.5474
  108MOL0     C14508   8.487   8.300   0.193  0.7913 -0.2467 -0.0240
  108MOL0     C14509   8.373   8.258   0.178  0.7262  0.6441 -0.0619
  108MOL0     C14510   9.084   8.744   0.282  0.4338  0.8623  0.2487
  108MOL0     C14511   9.188   8.819   0.222 -0.6723  1.3010 -0.1092
  108MOL0     C14512   9.279   8.726   0.152 -0.8013  0.3310  0.4389
  108MOL0     H14513   9.523   9.156   0.336  1.5399 -2.2507  0.2114
  108MOL0     H14514   9.678   9.339   0.294  1.7596 -0.1525  0.6990
  108MOL0     H14515   9.826   9.546   0.191  0.3623  1.7980 -2.7089
  108MOL0     H14516   9.886   9.382   0.229 -1.5549  0.0767 -0.5505
  108MOL0     H14517  10.064   9.531   0.157  0.9155  0.1141 -1.2289
  108MOL0     H14518   9.979   9.549   0.007 -0.3449 -0.6896 -1.1128
  108MOL0     H14519   9.983   9.320  -0.040 -0.6642 -0.3112  0.3232
  108MOL0     H14520  10.079   9.273   0.099  2.2128 -0.2275 -0.3041
  108MOL0     H14521  10.167   9.445  -0.137  0.6528  2.9102  0.7189
  108MOL0     H14522  10.258   9.451   0.014 -1.0027  0.6820 -0.6158
  108MOL0     H14523  10.285   9.187  -0.024  1.8488  0.3976 -1.4048
  108MOL0     H14524  10.188   9.209  -0.177 -1.9778  2.3948 -0.9069
  108MOL0     H14525  10.389   9.365  -0.248  3.9162  1.6500  1.0317
  108MOL0     H14526  10.463   9.326  -0.099 -0.1803  1.6049  0.1024
  108MOL0     H14527  10.375   9.072  -0.247  0.1600 -0.3704  0.1359
  108MOL0     H14528  10.488   9.092  -0.125  5.4079  2.2457 -0.7330
  108MOL0     H14529  10.608   9.049  -0.327  2.0498  0.3126 -0.8307
  108MOL0     H14530  10.545   9.208  -0.400 -0.1033  4.9769  1.4978
  108MOL0     H14531  10.827   9.076  -0.215 -2.5300 -1.2722  0.1012
  108MOL0     H14532  11.060   9.205  -0.203  0.8060 -0.4169  0.0649
  108MOL0     H14533  11.067   9.368  -0.235 -0.8710 -1.8683 -1.5161
  108MOL0     H14534  11.142   9.346   0.002  0.2282 -2.5204  1.1365
  108MOL0     H14535  10.994   9.438  -0.018 -1.1057 -1.2466  5.8001
  108MOL0     H14536  11.021   9.152   0.075  0.7162  0.4087  0.1261
  108MOL0     H14537  10.867   9.219   0.068 -0.3508  0.7404  1.8100
  108MOL0     H14538  10.916   9.251   0.287 -1.1852  2.4132  1.5402
  108MOL0     H14539  10.936   9.405   0.204 -0.1693 -0.8100 -1.2979
  108MOL0     H14540  11.331   9.294   0.390  0.2965 -0.3890  0.3418
  108MOL0     H14541  11.433   9.472   0.537  0.3653  1.3138 -1.2678
  108MOL0     H14542  11.335   9.947   0.722 -0.8855 -1.8174  0.4827
  108MOL0     H14543  11.392  10.119   0.920  1.2664 -1.6853  2.0479
  108MOL0     H14544  11.222  10.316   1.190  2.0005  0.6023 -2.1482
  108MOL0     H14545  11.126  10.236   1.063  2.5329 -4.4279 -1.7247
  108MOL0     H14546  11.123  10.095   1.322 -2.1183 -0.5215  1.3232
  108MOL0     H14547  11.060  10.257   1.336 -1.9581  0.4673  0.5919
  108MOL0     H14548  10.881  10.216   1.180 -0.3862  0.4137  0.2806
  108MOL0     H14549  10.960  10.087   1.084 -1.4816 -2.5650  0.1684
  108MOL0     H14550  10.886  10.029   1.360  1.1974 -3.5601 -0.0667
  108MOL0     H14551  10.918   9.923   1.234  0.4022  0.1078  0.4300
  108MOL0     H14552  10.686   9.916   1.225  0.5918 -0.7545  1.5069
  108MOL0     H14553  10.713  10.049   1.117  3.5932  0.8558 -0.0978
  108MOL0     H14554  10.691  10.219   1.278 -2.6369  2.2539  0.6930
  108MOL0     H14555  10.540  10.133   1.250  1.7174  0.2579 -2.2796
  108MOL0     H14556  10.713  10.109   1.490 -0.5655  2.0308  0.5716
  108MOL0     H14557  10.576   9.998   1.462  3.2505 -1.6617  1.3785
  108MOL0     H14558  10.573  10.266   1.596 -1.0681 -0.9038  0.1919
  108MOL0     H14559  10.508  10.287   1.437 -1.6722 -0.0381  1.5386
  108MOL0     H14560  11.113   9.909   1.153 -3.1633  2.1376 -1.2791
  108MOL0     H14561  11.078   9.734   0.970  0.0010  1.5817  3.4586
  108MOL0     H14562  11.032   9.648   0.557  1.3624  1.7141 -1.5835
  108MOL0     H14563  10.946   9.480   0.415 -0.6393  2.0104  0.5357
  108MOL0     H14564   9.676   9.246  -0.124  1.3311 -1.0826  0.6086
  108MOL0     H14565   9.498   9.055  -0.077  0.0566 -0.3556 -0.5575
  108MOL0     H14566   9.055   9.127   0.296  0.3944 -0.1031 -2.8290
  108MOL0     H14567   8.898   8.983   0.434 -0.4234 -0.8458  0.6662
  108MOL0     H14568   8.760   8.760   0.230  0.4388 -2.7100 -1.9555
  108MOL0     H14569   8.676   8.742   0.374 -0.9323  2.6998 -3.0494
  108MOL0     H14570   8.794   8.499   0.377 -0.7238  0.2746 -0.7293
  108MOL0     H14571   8.817   8.534   0.208  3.5424 -0.9110  1.5152
  108MOL0     H14572   8.560   8.571   0.191  1.8185  0.5428  0.2308
  108MOL0     H14573   8.556   8.513   0.359  0.6891  1.8376 -0.2321
  108MOL0     H14574   8.677   8.347   0.120 -1.3642 -2.9780  0.0842
  108MOL0     H14575   8.659   8.304   0.289 -2.1416 -1.6333  0.4243
  108MOL0     H14576   8.273   8.228   0.157 -0.3510  2.9596  1.3733
  108MOL0     H14577   9.074   8.636   0.272 -0.9396  0.9606  0.4471
  108MOL0     H14578   9.383   8.758   0.151 -0.1484 -1.7105 -0.3850
  108MOL0     H14579   9.286   8.629   0.203  1.1056  0.6632  0.8909
  108MOL0     H14580   9.249   8.705   0.049 -1.7640 -3.0541  1.2762
  109MOL0     O14581   7.495  10.910   7.443  0.0227 -0.3467  0.0854
  109MOL0     C14582   7.499  10.798   7.499 -0.2691 -0.1804  0.2855
  109MOL0     O14583   7.615  10.736   7.549 -0.4512 -0.4986  1.1403
  109MOL0     C14584   7.743  10.785   7.534 -0.1232 -0.1366 -0.3143
  109MOL0     C14585   7.781  10.917   7.539 -0.1906  0.1041  0.2748
  109MOL0     C14586   7.913  10.963   7.537  0.7831  0.7595  0.1682
  109MOL0     C14587   8.019  10.877   7.526 -0.6343  0.0422 -0.4235
  109MOL0     O14588   8.149  10.915   7.549  0.5214 -0.0221 -0.0593
  109MOL0     C14589   8.240  10.817   7.600 -1.2054 -0.5733 -0.1337
  109MOL0     C14590   8.356  10.874   7.680 -0.0863 -0.0841  0.0534
  109MOL0     C14591   8.318  10.921   7.818  0.6803  0.6044  0.0940
  109MOL0     C14592   8.449  10.966   7.887 -0.2429 -0.7145  0.1737
  109MOL0     C14593   8.429  11.019   8.028 -0.2349 -0.5054  0.0196
  109MOL0     C14594   8.427  11.172   8.047 -0.1431 -0.6911  1.1096
  109MOL0     C14595   8.401  11.191   8.201  0.8187 -0.1151  0.1473
  109MOL0     C14596   8.426  11.333   8.230  0.3794 -0.8217  0.5984
  109MOL0     N14597   8.563  11.377   8.203  0.5459  0.1102 -0.1972
  109MOL0     C14598   8.677  11.306   8.218  0.3838 -0.5545 -0.0200
  109MOL0     C14599   8.779  11.393   8.203  0.1396  0.4005 -0.1858
  109MOL0     C14600   8.920  11.360   8.230 -0.3842 -0.6613  0.0223
  109MOL0     C14601   9.020  11.482   8.199 -0.1711 -0.2433  0.7283
  109MOL0     C14602   9.011  11.523   8.051  0.3778  0.4934 -0.4606
  109MOL0     C14603   9.145  11.587   7.995 -0.2086  0.2141  0.1562
  109MOL0     O14604   9.255  11.490   7.984  0.9284 -0.1427  0.6947
  109MOL0     C14605   9.371  11.554   7.968  0.8290 -0.7827 -0.5416
  109MOL0     C14606   9.473  11.468   7.983  0.2217  0.1719 -0.0446
  109MOL0     C14607   9.613  11.495   7.977 -0.9126  0.2358  0.0411
  109MOL0     C14608   9.638  11.630   7.951 -0.7804  0.4322  0.1590
  109MOL0     C14609   9.778  11.675   7.963 -0.5101  0.7602 -0.3187
  109MOL0     O14610   9.864  11.626   8.054  0.0127  0.6007 -0.6723
  109MOL0     C14611   9.998  11.637   8.039  0.4713 -0.5265 -0.4459
  109MOL0     C14612  10.072  11.624   7.925  0.0446 -0.2937 -0.0541
  109MOL0     C14613  10.210  11.637   7.932  0.1563 -0.1733 -0.5954
  109MOL0     C14614  10.280  11.659   8.050  0.6667  0.0221  0.5624
  109MOL0     O14615  10.416  11.665   8.054 -0.1753  0.8329  0.5313
  109MOL0     C14616  10.478  11.550   7.998 -0.1443 -0.4575 -1.3961
  109MOL0     C14617  10.633  11.546   8.042 -0.1360 -0.0479  0.6307
  109MOL0     C14618  10.657  11.548   8.198 -0.6123 -1.2663  0.0529
  109MOL0     C14619  10.787  11.474   8.229 -0.0298  0.2499  0.9050
  109MOL0     C14620  10.829  11.492   8.374 -0.1567 -0.0132  1.2305
  109MOL0     C14621  10.719  11.468   8.474 -0.2674  0.1261  0.1829
  109MOL0     C14622  10.778  11.472   8.619 -0.7363  0.3378  0.1105
  109MOL0     C14623  10.839  11.341   8.657  0.3032  0.3166  1.0405
  109MOL0    Cl14624  10.887  11.345   8.827  0.1456  0.1596 -0.1762
  109MOL0     C14625  10.208  11.687   8.164 -0.1827  0.4724 -1.0386
  109MOL0     C14626  10.070  11.669   8.158 -0.4448 -0.5204  0.1599
  109MOL0     O14627   9.808  11.766   7.882 -0.0222  0.1150 -0.5861
  109MOL0     C14628   9.538  11.728   7.935  0.7082  1.2964  1.0869
  109MOL0     C14629   9.406  11.686   7.928  0.6224  0.1649  0.2748
  109MOL0     N14630   8.722  11.517   8.180 -0.3737  0.1212  0.5260
  109MOL0     N14631   8.596  11.504   8.177  0.3184 -0.2842 -0.2249
  109MOL0     C14632   7.976  10.751   7.485  0.5656 -0.0420  0.0747
  109MOL0     C14633   7.848  10.702   7.496  0.1649  0.1080 -0.7561
  109MOL0     C14634   7.370  10.717   7.522  0.4762  0.4473  1.2355
  109MOL0     C14635   7.382  10.595   7.588 -0.2685  0.0212  0.5456
  109MOL0     C14636   7.275  10.507   7.602 -0.0350 -1.0233  0.4430
  109MOL0     C14637   7.149  10.536   7.555  0.0804 -0.3598  0.0676
  109MOL0     O14638   7.039  10.454   7.564 -0.3402 -0.6824  0.3305
  109MOL0     C14639   7.043  10.328   7.634  0.3108 -0.1119 -0.3499
  109MOL0     C14640   7.041  10.336   7.781 -0.1530  0.1031 -0.5966
  109MOL0     C14641   6.914  10.425   7.828 -1.6046  0.3866 -0.4506
  109MOL0     C14642   6.912  10.472   7.974  0.1767  0.0250 -0.2117
  109MOL0     C14643   6.777  10.532   8.011 -0.1343 -0.8151 -0.0778
  109MOL0     C14644   6.673  10.578   8.041  0.6713  0.0404 -1.4162
  109MOL0     C14645   7.136  10.658   7.495  0.0775 -0.5292  0.3391
  109MOL0     C14646   7.238  10.744   7.467 -0.2641 -0.0301 -0.3257
  109MOL0     C14647   7.205  10.861   7.375 -0.5043  0.5189 -0.4628
  109MOL0     H14648   7.713  11.002   7.545  1.1679  1.2057  0.6686
  109MOL0     H14649   7.945  11.067   7.546  0.1808  0.8736  1.0616
  109MOL0     H14650   8.186  10.747   7.665  3.6286 -2.0634  2.8061
  109MOL0     H14651   8.280  10.747   7.526  1.0329  1.2363 -0.7407
  109MOL0     H14652   8.413  10.949   7.624  1.1755 -1.4168 -0.5227
  109MOL0     H14653   8.429  10.794   7.695 -0.5155 -0.1004  2.4720
  109MOL0     H14654   8.262  10.850   7.880 -0.4656  1.5818  0.2174
  109MOL0     H14655   8.249  11.006   7.818  2.6495  2.2729  1.4067
  109MOL0     H14656   8.509  10.877   7.905 -1.5608 -1.5858  0.3436
  109MOL0     H14657   8.508  11.038   7.830 -0.2273 -1.6607 -1.0387
  109MOL0     H14658   8.334  10.973   8.060  0.8924 -1.5647  2.0467
  109MOL0     H14659   8.515  10.979   8.082  1.8641  1.5113 -1.6392
  109MOL0     H14660   8.529  11.198   8.019 -1.4316  3.2577 -0.6503
  109MOL0     H14661   8.352  11.223   7.986  0.9618 -1.5018 -1.0242
  109MOL0     H14662   8.467  11.130   8.263 -0.2929 -1.6491 -0.1380
  109MOL0     H14663   8.295  11.172   8.220  1.0349 -0.6336  0.8659
  109MOL0     H14664   8.358  11.396   8.173  0.8586 -1.8270 -1.1557
  109MOL0     H14665   8.400  11.362   8.333 -1.3527  1.7164 -0.4482
  109MOL0     H14666   8.681  11.203   8.254 -1.9329 -0.1680  1.5715
  109MOL0     H14667   8.914  11.339   8.337 -0.5569 -0.7441 -0.0034
  109MOL0     H14668   8.934  11.266   8.176 -0.8445 -2.8596  3.4371
  109MOL0     H14669   9.005  11.575   8.255  4.9362  0.8409  0.7705
  109MOL0     H14670   9.126  11.466   8.221  0.0393  1.0796  0.7481
  109MOL0     H14671   8.925  11.590   8.053 -2.3481 -2.7216  2.6298
  109MOL0     H14672   8.984  11.435   7.990  0.6675  0.6693 -0.8480
  109MOL0     H14673   9.171  11.655   8.077 -0.9720 -2.4807  2.8589
  109MOL0     H14674   9.119  11.627   7.897 -0.8792 -4.2294 -1.7442
  109MOL0     H14675   9.448  11.370   8.021  0.1199  0.6657  1.1952
  109MOL0     H14676   9.690  11.420   7.991  0.0813  1.3226  0.5617
  109MOL0     H14677  10.015  11.613   7.833  1.0725 -0.7049 -0.6621
  109MOL0     H14678  10.257  11.626   7.835  0.9319 -0.0899 -0.2336
  109MOL0     H14679  10.445  11.458   8.048 -1.2656  1.9004  2.7018
  109MOL0     H14680  10.458  11.525   7.893 -2.8821 -0.8132 -0.8626
  109MOL0     H14681  10.680  11.460   7.993  0.4067  0.4712  0.2217
  109MOL0     H14682  10.683  11.635   8.003  0.7318 -2.1492 -3.7489
  109MOL0     H14683  10.663  11.655   8.222 -1.4110 -0.7363 -1.9091
  109MOL0     H14684  10.573  11.496   8.244  0.8363 -5.9269 -1.8971
  109MOL0     H14685  10.860  11.503   8.154  1.0978 -0.5560  1.6492
  109MOL0     H14686  10.782  11.366   8.212 -0.7580  0.5545 -1.0252
  109MOL0     H14687  10.850  11.599   8.379 -1.4386  0.5989 -2.6785
  109MOL0     H14688  10.922  11.435   8.383 -0.3468 -1.3622 -3.1085
  109MOL0     H14689  10.644  11.546   8.465  0.0545  0.6773  1.8199
  109MOL0     H14690  10.670  11.376   8.442 -2.4703  2.1176 -2.6792
  109MOL0     H14691  10.696  11.505   8.685 -1.1881  0.2799 -0.4180
  109MOL0     H14692  10.862  11.541   8.631  2.3076 -2.7126 -1.9494
  109MOL0     H14693  10.767  11.260   8.650  2.9674 -2.0837 -1.0972
  109MOL0     H14694  10.930  11.313   8.603 -0.5050 -1.9681  0.7549
  109MOL0     H14695  10.263  11.701   8.257  0.6609  0.9787 -1.5981
  109MOL0     H14696  10.007  11.694   8.244 -2.5027 -1.5886 -0.9673
  109MOL0     H14697   9.564  11.832   7.924  5.6923  0.1181 -1.3701
  109MOL0     H14698   9.335  11.767   7.919 -0.3706 -0.5955  0.9297
  109MOL0     H14699   8.051  10.680   7.452  2.2189  0.1576  3.1107
  109MOL0     H14700   7.823  10.599   7.476 -1.1550 -0.0607  1.3909
  109MOL0     H14701   7.477  10.557   7.625  0.5829  0.6417 -0.9128
  109MOL0     H14702   7.294  10.418   7.661 -0.7988 -2.1269 -0.9035
  109MOL0     H14703   7.134  10.277   7.604 -0.3318 -1.0167 -0.8020
  109MOL0     H14704   6.953  10.277   7.598 -1.7127  3.4722 -0.8564
  109MOL0     H14705   7.130  10.381   7.825  2.7703 -5.9544  0.7369
  109MOL0     H14706   7.020  10.242   7.831 -2.0741  1.1618  0.7300
  109MOL0     H14707   6.828  10.360   7.809  0.1972 -3.0196  2.1158
  109MOL0     H14708   6.913  10.511   7.759  3.3586  0.5148 -0.6998
  109MOL0     H14709   6.938  10.389   8.041 -1.8804  1.3472  2.4173
  109MOL0     H14710   6.996  10.542   7.982  2.4753 -2.4517 -1.0072
  109MOL0     H14711   6.593  10.637   8.082  0.4419 -1.2599  0.1069
  109MOL0     H14712   7.041  10.694   7.457  0.5870  0.2666 -0.2177
  109MOL0     H14713   7.281  10.866   7.295 -0.5940 -2.3383 -0.8130
  109MOL0     H14714   7.101  10.853   7.342  0.4132  0.8589 -3.8778
  109MOL0     H14715   7.208  10.955   7.430 -1.6969 -0.0468  0.6097
  110MOL0     O14716   9.555  11.167   1.344  0.1445 -0.0345  0.2600
  110MOL0     C14717   9.621  11.066   1.310  1.0096 -0.8455 -0.1576
  110MOL0     O14718   9.574  10.958   1.234  0.2802 -0.6338 -0.2028
  110MOL0     C14719   9.471  10.984   1.160 -0.0510 -0.2664  0.8708
  110MOL0     C14720   9.388  10.873   1.137  0.3501 -0.9385  0.5825
  110MOL0     C14721   9.279  10.884   1.045 -0.7046 -0.0552  0.0915
  110MOL0     C14722   9.266  11.002   0.964  0.5351  0.1663 -0.0837
  110MOL0     O14723   9.164  11.018   0.867  0.1434 -0.1301 -0.0485
  110MOL0     C14724   9.033  11.002   0.915  0.0890  0.0478  0.6948
  110MOL0     C14725   8.933  11.009   0.805 -0.3004  0.3306  0.4484
  110MOL0     C14726   8.795  10.957   0.845  0.1346 -0.2120  0.4454
  110MOL0     C14727   8.722  11.053   0.932  0.3218  0.0792 -0.2426
  110MOL0     C14728   8.586  11.020   0.987  0.1437 -0.2323 -0.1736
  110MOL0     C14729   8.480  10.966   0.886  0.3820 -0.1358  0.1707
  110MOL0     C14730   8.349  10.914   0.949  0.3842  0.1007 -0.0466
  110MOL0     C14731   8.364  10.778   1.030  0.2045  0.4089 -0.6224
  110MOL0     N14732   8.364  10.659   0.942  0.2347  0.5754  0.2190
  110MOL0     C14733   8.473  10.616   0.869  0.0577  0.4281  0.3501
  110MOL0     C14734   8.427  10.493   0.818  0.3070 -0.0141 -0.0495
  110MOL0     C14735   8.500  10.400   0.718  0.3075 -0.7955 -0.4702
  110MOL0     C14736   8.424  10.387   0.578  0.7687  0.3566  1.0759
  110MOL0     C14737   8.466  10.269   0.500 -0.4558  0.0446 -0.5458
  110MOL0     C14738   8.393  10.280   0.366 -0.1187  0.0945  0.5596
  110MOL0     O14739   8.472  10.354   0.273 -0.1357  0.1657  0.1974
  110MOL0     C14740   8.560  10.281   0.200 -0.0098  0.6235 -0.2028
  110MOL0     C14741   8.538  10.158   0.143  0.2275 -0.0023  0.1982
  110MOL0     C14742   8.644  10.101   0.067 -0.2241 -0.3416 -0.5107
  110MOL0     C14743   8.768  10.159   0.038  0.3541 -1.2760  0.6429
  110MOL0     C14744   8.876  10.096  -0.039  0.0335  0.1054 -0.1160
  110MOL0     O14745   8.983  10.170  -0.079  0.1313  0.4255  0.0428
  110MOL0     C14746   9.075  10.103  -0.158 -0.2412 -0.4578 -0.4214
  110MOL0     C14747   9.153  10.000  -0.105 -1.4577 -0.8864 -0.5280
  110MOL0     C14748   9.269   9.964  -0.163  0.2512  0.6239 -1.0789
  110MOL0     C14749   9.311  10.012  -0.282  0.8596  0.1672 -0.5296
  110MOL0     O14750   9.431   9.978  -0.337 -0.9231  0.3408  0.2197
  110MOL0     C14751   9.463  10.010  -0.478  0.4362 -0.3879 -0.3615
  110MOL0     C14752   9.568   9.920  -0.522  0.2310 -0.2900  0.1520
  110MOL0     C14753   9.715   9.937  -0.460 -0.0591  0.6862  0.4590
  110MOL0     C14754   9.818   9.864  -0.549  0.3807 -0.2690  0.0887
  110MOL0     C14755   9.955   9.865  -0.481  0.3303 -0.6689  0.4679
  110MOL0     C14756  10.067   9.854  -0.590  0.4656  0.7781  0.4440
  110MOL0     C14757  10.196   9.920  -0.553  0.2003  0.5424 -0.3505
  110MOL0     C14758  10.302   9.876  -0.663 -1.0759 -0.4168  0.9040
  110MOL0    Cl14759  10.447   9.965  -0.594 -0.7210 -0.3987 -0.3532
  110MOL0     C14760   9.229  10.107  -0.345 -0.4273  1.2769  0.2457
  110MOL0     C14761   9.107  10.147  -0.286  0.7002  0.3575  0.0363
  110MOL0     O14762   8.860   9.982  -0.065  0.2336 -0.1658  1.0420
  110MOL0     C14763   8.779  10.286   0.090 -0.8219 -0.8500  0.5922
  110MOL0     C14764   8.681  10.345   0.165  0.7926  0.4959  0.1221
  110MOL0     N14765   8.300  10.476   0.849  0.5626  0.6763 -0.1910
  110MOL0     N14766   8.263  10.572   0.929  0.9738  0.3736 -0.0971
  110MOL0     C14767   9.342  11.105   0.989 -0.6434  0.1752 -0.2088
  110MOL0     C14768   9.448  11.095   1.082  0.0947 -0.6529  0.4217
  110MOL0     C14769   9.749  11.045   1.365  0.2569  0.5676  0.3170
  110MOL0     C14770   9.853  11.040   1.273  0.6025 -0.0902  0.2932
  110MOL0     C14771   9.972  11.018   1.319 -1.7250 -0.1244  0.2974
  110MOL0     C14772  10.005  10.997   1.453  0.6981  0.0168 -0.1288
  110MOL0     O14773  10.127  10.947   1.504 -0.6671 -0.3668  0.6171
  110MOL0     C14774  10.250  11.011   1.467 -0.4772 -0.1057  0.4757
  110MOL0     C14775  10.377  10.924   1.502 -0.5967  0.0960 -0.2243
  110MOL0     C14776  10.398  10.891   1.654  0.0868 -0.5788  0.3556
  110MOL0     C14777  10.473  10.768   1.666  0.3736  0.8588  0.6335
  110MOL0     C14778  10.398  10.654   1.618 -0.3712  0.1630  0.5173
  110MOL0     C14779  10.333  10.565   1.571  0.7394  0.4507 -1.3685
  110MOL0     C14780   9.899  10.998   1.546  0.4952  0.4328 -0.3238
  110MOL0     C14781   9.767  11.027   1.503 -0.2688 -0.1959  0.2277
  110MOL0     C14782   9.664  11.047   1.613  0.1621 -0.0490  0.7938
  110MOL0     H14783   9.406  10.778   1.187  0.9386  0.2675  2.8181
  110MOL0     H14784   9.214  10.797   1.034 -2.7560  1.2036  1.5692
  110MOL0     H14785   9.035  10.905   0.965  0.3410 -0.3194 -0.0177
  110MOL0     H14786   9.005  11.077   0.990  0.1246  0.7981 -0.0274
  110MOL0     H14787   8.966  10.936   0.732  1.3757  1.0086  0.4751
  110MOL0     H14788   8.927  11.112   0.768 -1.7329  0.5386  1.1532
  110MOL0     H14789   8.804  10.857   0.889  0.0622 -0.3460  0.1526
  110MOL0     H14790   8.733  10.932   0.759 -3.0674  0.6431  2.3264
  110MOL0     H14791   8.777  11.089   1.019 -1.6995 -0.5417  1.3804
  110MOL0     H14792   8.703  11.133   0.861 -3.5728 -1.0471 -0.7115
  110MOL0     H14793   8.603  10.943   1.063  3.9417  1.2429  0.6555
  110MOL0     H14794   8.552  11.116   1.026  3.7280  1.1912 -0.2465
  110MOL0     H14795   8.465  11.055   0.823 -0.2720  0.0328  0.5511
  110MOL0     H14796   8.519  10.887   0.821 -0.0569  1.2384 -1.8683
  110MOL0     H14797   8.280  10.879   0.872  1.0047  0.3867 -0.7479
  110MOL0     H14798   8.301  11.002   0.993 -3.7175 -1.4437 -0.9885
  110MOL0     H14799   8.462  10.775   1.079 -0.2005 -0.2160  0.1793
  110MOL0     H14800   8.298  10.761   1.115  0.3914 -2.4083 -0.9375
  110MOL0     H14801   8.566  10.669   0.851  0.5479  0.2452  2.2161
  110MOL0     H14802   8.600  10.442   0.703 -0.6035  1.9809  0.5107
  110MOL0     H14803   8.508  10.304   0.769  0.8388 -0.1799  0.6590
  110MOL0     H14804   8.319  10.365   0.598  0.2990  1.2669 -0.2751
  110MOL0     H14805   8.429  10.475   0.514 -0.6827 -1.8834 -2.3645
  110MOL0     H14806   8.439  10.175   0.550 -0.7070 -0.6726 -1.9494
  110MOL0     H14807   8.575  10.269   0.486 -0.5680  0.8949 -1.5578
  110MOL0     H14808   8.296  10.331   0.372 -0.0094  0.6533 -1.7433
  110MOL0     H14809   8.375  10.180   0.326 -1.1569  0.4784  0.0155
  110MOL0     H14810   8.442  10.108   0.144  0.3486 -0.4321 -2.5843
  110MOL0     H14811   8.644  10.000   0.026  4.2539 -0.3260 -1.1155
  110MOL0     H14812   9.126   9.952  -0.011 -1.7539  1.4021  0.6331
  110MOL0     H14813   9.330   9.891  -0.110  0.4117  0.7876 -1.0364
  110MOL0     H14814   9.378   9.982  -0.541  0.3865 -0.9855 -0.0370
  110MOL0     H14815   9.491  10.114  -0.492  2.3807 -0.5677  1.6272
  110MOL0     H14816   9.531   9.817  -0.524 -0.3178 -0.1822 -3.9019
  110MOL0     H14817   9.576   9.961  -0.623  1.6668  2.0333  1.1354
  110MOL0     H14818   9.737  10.042  -0.438 -2.1647  1.1714  0.4106
  110MOL0     H14819   9.707   9.888  -0.363  3.1628 -0.2248  0.3631
  110MOL0     H14820   9.818   9.918  -0.644 -4.4403  2.8079  1.4694
  110MOL0     H14821   9.782   9.763  -0.569  0.6063 -0.1147 -1.2307
  110MOL0     H14822   9.965   9.785  -0.407 -1.7400 -2.1097 -0.7096
  110MOL0     H14823   9.963   9.960  -0.427 -0.7636  0.1923 -0.8201
  110MOL0     H14824  10.079   9.746  -0.600  2.1274  0.8679  1.0154
  110MOL0     H14825  10.034   9.893  -0.686  1.7352  0.8948  0.0349
  110MOL0     H14826  10.238   9.886  -0.458 -0.2691 -0.1478 -0.3813
  110MOL0     H14827  10.183  10.028  -0.558 -0.6486  0.6365  2.3920
  110MOL0     H14828  10.319   9.770  -0.645  1.2819  0.3209  3.7211
  110MOL0     H14829  10.269   9.903  -0.764  2.2991 -1.3617 -0.5933
  110MOL0     H14830   9.258  10.149  -0.440  0.7478  3.5733  1.5415
  110MOL0     H14831   9.034  10.203  -0.344 -1.8139 -2.0477  0.6509
  110MOL0     H14832   8.870  10.345   0.082 -2.2979  1.8288  2.1809
  110MOL0     H14833   8.699  10.446   0.202  0.6668 -0.7349  3.9322
  110MOL0     H14834   9.334  11.189   0.920  1.6252  1.3850  0.9037
  110MOL0     H14835   9.526  11.169   1.098  0.4093 -1.0538  0.7790
  110MOL0     H14836   9.835  11.048   1.166  0.2895  1.4999  0.4445
  110MOL0     H14837  10.060  11.024   1.255 -1.4224  0.4913  0.7708
  110MOL0     H14838  10.257  11.113   1.506 -1.9592  0.7839 -1.4003
  110MOL0     H14839  10.254  11.017   1.358  2.4750 -3.5964  0.1923
  110MOL0     H14840  10.472  10.970   1.472  1.3311 -3.9499 -0.9361
  110MOL0     H14841  10.367  10.834   1.442 -0.1592  0.3472 -0.6786
  110MOL0     H14842  10.303  10.878   1.707 -0.4598 -1.4442 -0.7892
  110MOL0     H14843  10.455  10.976   1.692 -1.8812  1.7810 -1.6218
  110MOL0     H14844  10.563  10.773   1.604  1.2684 -2.9627  1.3622
  110MOL0     H14845  10.498  10.747   1.770  1.0791 -1.4372  0.0482
  110MOL0     H14846  10.272  10.486   1.531  2.1993 -0.2764 -2.2638
  110MOL0     H14847   9.920  10.972   1.649  1.6125  3.0333  0.1718
  110MOL0     H14848   9.563  11.012   1.588  1.3990 -2.4677 -1.3310
  110MOL0     H14849   9.693  10.980   1.694 -1.5835 -2.6267 -0.5439
  110MOL0     H14850   9.672  11.151   1.646  1.1677  0.1791 -0.1089
  111MOL0     O14851   4.636   1.441   1.965  0.3420 -0.3792 -0.6689
  111MOL0     C14852   4.749   1.479   1.946 -0.0840 -0.5606 -0.1087
  111MOL0     O14853   4.803   1.489   1.822  0.7464 -1.0478 -0.0978
  111MOL0     C14854   4.735   1.453   1.708  0.1281  0.5452 -0.0650
  111MOL0     C14855   4.668   1.558   1.639 -0.6414 -0.4005  0.6657
  111MOL0     C14856   4.577   1.517   1.535  0.0797 -0.1390 -0.8707
  111MOL0     C14857   4.556   1.376   1.507 -0.0538  0.7332 -0.0980
  111MOL0     O14858   4.476   1.349   1.404 -0.3192 -0.8144  0.0259
  111MOL0     C14859   4.487   1.227   1.333  0.0344 -0.9579 -0.4874
  111MOL0     C14860   4.393   1.225   1.205 -0.2482 -0.1639  0.1407
  111MOL0     C14861   4.431   1.336   1.105  0.3496  0.0187  0.7384
  111MOL0     C14862   4.548   1.296   0.999 -0.3905  0.8827  0.1870
  111MOL0     C14863   4.579   1.404   0.901 -0.2222 -0.4107  0.3392
  111MOL0     C14864   4.692   1.365   0.806 -0.1674  0.7900 -0.0511
  111MOL0     C14865   4.720   1.484   0.708 -0.4040  0.7443 -0.4439
  111MOL0     C14866   4.845   1.459   0.618 -0.8676  0.1656 -0.5559
  111MOL0     N14867   4.871   1.574   0.543  0.1003  0.0004 -0.3831
  111MOL0     C14868   4.962   1.668   0.580  0.0208 -0.7064  0.2878
  111MOL0     C14869   4.925   1.768   0.493  0.4462  1.0414 -0.7847
  111MOL0     C14870   4.988   1.896   0.454  0.2839  0.6172 -0.3280
  111MOL0     C14871   5.060   1.970   0.577  0.5235  0.1680  0.7516
  111MOL0     C14872   5.168   2.065   0.528 -0.4965  0.5203 -0.1217
  111MOL0     C14873   5.272   2.091   0.643 -0.1969  0.6455  0.4424
  111MOL0     O14874   5.346   1.972   0.654 -0.4889  0.3647 -0.8492
  111MOL0     C14875   5.480   1.995   0.658 -0.9089  0.1151 -0.6714
  111MOL0     C14876   5.561   2.015   0.770  0.2008  0.5078  0.3288
  111MOL0     C14877   5.697   2.018   0.760 -0.4404  0.0291  0.8290
  111MOL0     C14878   5.759   1.980   0.636 -0.4352  0.3252 -0.5504
  111MOL0     C14879   5.910   1.979   0.633  0.5803  1.3705  0.2983
  111MOL0     O14880   5.981   2.013   0.744  0.0709 -0.0945  0.6255
  111MOL0     C14881   6.116   2.016   0.745 -0.8428 -0.0018  0.0209
  111MOL0     C14882   6.186   1.992   0.864  0.2932  0.7833 -0.0808
  111MOL0     C14883   6.329   1.997   0.871  0.2498  0.1145 -0.3512
  111MOL0     C14884   6.405   2.034   0.771 -0.8577 -1.3357 -0.0027
  111MOL0     O14885   6.542   2.040   0.772  0.1180 -0.1591  0.1926
  111MOL0     C14886   6.609   1.941   0.842 -0.2145 -0.1361  0.2787
  111MOL0     C14887   6.746   1.938   0.790 -0.6520 -0.1105  0.6266
  111MOL0     C14888   6.840   2.057   0.838  0.1724  0.0263 -0.0784
  111MOL0     C14889   6.876   2.036   0.989  0.4626  0.2971  1.1168
  111MOL0     C14890   6.967   2.159   1.050 -0.2535 -0.2948  0.7837
  111MOL0     C14891   7.098   2.192   0.972 -0.0254 -0.0749 -0.1749
  111MOL0     C14892   7.202   2.296   1.028  0.5795 -0.1745  0.4126
  111MOL0     C14893   7.244   2.268   1.171  0.0277  0.3779  0.8245
  111MOL0    Cl14894   7.327   2.418   1.255  0.1047  0.8389 -0.4138
  111MOL0     C14895   6.338   2.070   0.652 -0.3542 -0.2823 -0.2568
  111MOL0     C14896   6.201   2.062   0.636  0.4372 -0.6524  0.7630
  111MOL0     O14897   5.957   1.921   0.533 -0.3996  0.0046 -0.3229
  111MOL0     C14898   5.677   1.952   0.524 -0.0060  0.1793  0.0526
  111MOL0     C14899   5.548   1.964   0.535  0.7906 -0.2567 -0.1138
  111MOL0     N14900   4.822   1.730   0.408  0.4950  0.5270  0.1080
  111MOL0     N14901   4.787   1.610   0.447  0.3772 -0.5575 -0.0581
  111MOL0     C14902   4.627   1.276   1.577 -0.1641 -1.0930  0.0912
  111MOL0     C14903   4.729   1.322   1.673  0.7934 -0.3386  1.0988
  111MOL0     C14904   4.830   1.519   2.059 -0.6834  0.3177  0.0301
  111MOL0     C14905   4.968   1.523   2.042  0.0321  0.1441 -0.4549
  111MOL0     C14906   5.053   1.546   2.148 -0.3760 -0.2341 -0.0046
  111MOL0     C14907   5.002   1.553   2.278  0.4305  0.3354 -0.8656
  111MOL0     O14908   5.070   1.557   2.395  0.0062  0.3306 -0.2857
  111MOL0     C14909   5.066   1.436   2.470  0.6616 -0.7510 -0.4092
  111MOL0     C14910   5.210   1.365   2.490  0.8667  0.0568 -0.0674
  111MOL0     C14911   5.282   1.330   2.358  0.6673  0.0475  0.4090
  111MOL0     C14912   5.359   1.440   2.290 -0.3404 -0.5451 -0.9031
  111MOL0     C14913   5.379   1.411   2.150  0.1917 -0.3090 -0.3980
  111MOL0     C14914   5.403   1.393   2.035 -0.8038  0.0255 -0.6029
  111MOL0     C14915   4.866   1.551   2.296  0.6957 -0.6534 -0.6055
  111MOL0     C14916   4.778   1.535   2.189  0.1967  0.2945  0.2130
  111MOL0     C14917   4.633   1.553   2.226 -0.1098  0.6146  0.5230
  111MOL0     H14918   4.671   1.662   1.671  1.9876 -0.2115  0.0444
  111MOL0     H14919   4.518   1.590   1.482 -0.6700  1.1339  1.5672
  111MOL0     H14920   4.592   1.213   1.306  0.1917  0.6888 -0.8590
  111MOL0     H14921   4.475   1.146   1.406 -0.6978  1.4767  2.3316
  111MOL0     H14922   4.292   1.228   1.248  0.1281 -1.5711  1.1892
  111MOL0     H14923   4.401   1.128   1.156 -1.2092  1.0313 -2.5277
  111MOL0     H14924   4.452   1.426   1.163 -1.4605  1.3388 -0.5252
  111MOL0     H14925   4.344   1.349   1.040  2.7160 -0.7808 -2.8991
  111MOL0     H14926   4.642   1.269   1.047  0.0652  3.9076  1.1719
  111MOL0     H14927   4.511   1.208   0.944 -1.5175  1.1236  0.5228
  111MOL0     H14928   4.488   1.422   0.843  1.3140  5.3672 -0.9464
  111MOL0     H14929   4.593   1.495   0.961  1.3329 -1.5055  1.7194
  111MOL0     H14930   4.784   1.337   0.858  0.9068 -1.6464 -2.9454
  111MOL0     H14931   4.661   1.276   0.750 -1.6486  1.2748 -0.0338
  111MOL0     H14932   4.735   1.576   0.764  0.1823  0.6582 -0.4527
  111MOL0     H14933   4.634   1.500   0.642  0.2344  0.5417 -1.3472
  111MOL0     H14934   4.925   1.436   0.690  0.0887 -0.8220 -1.8848
  111MOL0     H14935   4.832   1.372   0.553  0.8912 -0.8906  0.4127
  111MOL0     H14936   5.023   1.671   0.669 -2.3508 -0.1333  2.0067
  111MOL0     H14937   5.055   1.873   0.372 -0.6732 -3.7427 -0.1087
  111MOL0     H14938   4.914   1.974   0.432 -2.0605 -1.5685 -0.5834
  111MOL0     H14939   4.990   2.029   0.637 -0.3006 -1.7627  1.7472
  111MOL0     H14940   5.104   1.896   0.644 -2.7455 -0.9284  1.8871
  111MOL0     H14941   5.123   2.164   0.521 -3.0589 -0.2701  2.8299
  111MOL0     H14942   5.216   2.039   0.433  0.7303  2.2508 -0.0160
  111MOL0     H14943   5.220   2.107   0.738 -0.6834 -1.0072  0.4751
  111MOL0     H14944   5.335   2.176   0.616 -0.2001  0.3538 -0.5182
  111MOL0     H14945   5.519   2.047   0.865  2.9523  2.2776  1.0714
  111MOL0     H14946   5.748   2.052   0.849 -0.1711  0.4564  0.5182
  111MOL0     H14947   6.133   1.983   0.958 -1.0953  0.4404 -0.8582
  111MOL0     H14948   6.374   1.971   0.966 -1.4874 -0.5223  0.3463
  111MOL0     H14949   6.612   1.949   0.951  1.8817  0.4795  0.2144
  111MOL0     H14950   6.560   1.845   0.820 -0.1098  0.6210 -4.2387
  111MOL0     H14951   6.799   1.847   0.818  1.1365  1.2300  1.8148
  111MOL0     H14952   6.754   1.937   0.681  2.5080 -3.0082  0.7173
  111MOL0     H14953   6.929   2.047   0.775  1.5856 -0.4474  1.8847
  111MOL0     H14954   6.778   2.145   0.817  1.1290  0.2264 -2.4304
  111MOL0     H14955   6.939   1.946   0.997  0.5747  0.2423 -0.0937
  111MOL0     H14956   6.784   2.019   1.045 -2.0056 -1.3557 -2.9768
  111MOL0     H14957   6.994   2.118   1.148  0.1337  2.4966  1.9173
  111MOL0     H14958   6.902   2.244   1.073 -1.1315 -0.4482 -0.9197
  111MOL0     H14959   7.148   2.095   0.972  2.8023  1.2756  0.4558
  111MOL0     H14960   7.082   2.218   0.867 -1.0662  1.9446  0.4274
  111MOL0     H14961   7.153   2.393   1.014  1.4692 -0.0346 -2.4917
  111MOL0     H14962   7.289   2.287   0.962 -2.2398 -3.3807 -3.3766
  111MOL0     H14963   7.155   2.248   1.231  0.1653 -0.5892  0.7374
  111MOL0     H14964   7.313   2.183   1.177  0.0598  0.0385 -2.3844
  111MOL0     H14965   6.395   2.101   0.564 -2.6126  1.0964 -1.3010
  111MOL0     H14966   6.172   2.105   0.541  3.9360  2.1341  0.7302
  111MOL0     H14967   5.724   1.922   0.431 -2.1557  2.7181 -2.0070
  111MOL0     H14968   5.497   1.945   0.441  3.4349 -2.9335 -1.1508
  111MOL0     H14969   4.636   1.169   1.563 -0.4842 -1.3065  1.3741
  111MOL0     H14970   4.795   1.254   1.725  0.0881 -1.4305  0.6145
  111MOL0     H14971   5.016   1.515   1.944  0.0200  0.0602 -0.4545
  111MOL0     H14972   5.160   1.561   2.140 -0.9001  4.7412 -0.5235
  111MOL0     H14973   5.002   1.360   2.424 -0.1738 -0.4846  0.2793
  111MOL0     H14974   5.028   1.453   2.571  1.8295  0.6633 -0.1722
  111MOL0     H14975   5.202   1.265   2.534 -0.7572 -0.0002 -0.4052
  111MOL0     H14976   5.269   1.422   2.562 -0.6269  0.1349  1.1652
  111MOL0     H14977   5.199   1.298   2.295 -0.4014 -0.6852  2.1231
  111MOL0     H14978   5.329   1.232   2.374 -3.5241 -2.4296 -0.6883
  111MOL0     H14979   5.305   1.534   2.307 -1.9835 -1.2944 -1.6659
  111MOL0     H14980   5.455   1.450   2.341 -0.6094 -1.8918 -0.1034
  111MOL0     H14981   5.433   1.378   1.933  0.5914 -1.5259 -0.0217
  111MOL0     H14982   4.826   1.554   2.397  0.7867  0.5016 -0.5923
  111MOL0     H14983   4.616   1.584   2.329 -0.6901  0.9073  0.3428
  111MOL0     H14984   4.581   1.626   2.164 -0.4795  0.8889  1.1519
  111MOL0     H14985   4.587   1.454   2.222  1.0013  0.0913  0.1456
  112MOL0     O14986   1.229   7.341   2.405  0.0277  1.4447 -0.4402
  112MOL0     C14987   1.298   7.408   2.334 -0.9836  0.2113 -0.4564
  112MOL0     O14988   1.281   7.457   2.213 -0.1298 -0.0208 -0.5211
  112MOL0     C14989   1.148   7.469   2.175  1.1262  0.9391  0.6528
  112MOL0     C14990   1.085   7.595   2.164 -0.2620 -0.1483  0.4938
  112MOL0     C14991   0.948   7.604   2.143  1.0768 -0.1733 -0.5152
  112MOL0     C14992   0.866   7.496   2.127 -1.3720  0.1485  0.0407
  112MOL0     O14993   0.736   7.501   2.120 -0.4859  0.2065 -0.3489
  112MOL0     C14994   0.657   7.612   2.145  0.3502 -0.2141 -0.0423
  112MOL0     C14995   0.509   7.569   2.142 -0.9814  0.0509  0.1288
  112MOL0     C14996   0.423   7.690   2.192 -1.0142 -0.8305 -0.3707
  112MOL0     C14997   0.281   7.663   2.169 -0.3057  0.1786  0.8195
  112MOL0     C14998   0.187   7.761   2.235  0.5486 -0.5251  0.1701
  112MOL0     C14999   0.048   7.729   2.187  0.2795  0.0547  0.1355
  112MOL0     C15000  -0.049   7.830   2.255 -0.6401 -0.1334  0.1061
  112MOL0     C15001  -0.189   7.803   2.223  1.0196  0.0769  0.6870
  112MOL0     N15002  -0.224   7.850   2.089  0.6005 -0.8176 -0.1050
  112MOL0     C15003  -0.247   7.757   1.985  0.4377  0.8906 -0.6870
  112MOL0     C15004  -0.250   7.835   1.873 -0.9757 -0.2350 -0.0143
  112MOL0     C15005  -0.255   7.780   1.737  0.0334 -1.0200 -0.8359
  112MOL0     C15006  -0.122   7.759   1.681 -0.2873  0.7789  0.9481
  112MOL0     C15007  -0.060   7.633   1.737 -0.0165  0.3272  0.1956
  112MOL0     C15008   0.067   7.587   1.666  0.1071 -0.1224  1.0555
  112MOL0     O15009   0.166   7.676   1.722 -0.4294  0.0504 -0.3537
  112MOL0     C15010   0.295   7.639   1.710  0.0704  0.4078  0.4158
  112MOL0     C15011   0.343   7.553   1.614  0.2104 -0.0692 -0.4637
  112MOL0     C15012   0.483   7.503   1.613  0.9574  0.6188  0.8686
  112MOL0     C15013   0.569   7.570   1.706 -0.0173  0.1573 -0.8029
  112MOL0     C15014   0.707   7.530   1.701  1.0025  0.0508 -0.9815
  112MOL0     O15015   0.791   7.603   1.770 -0.5730  0.7262 -0.0655
  112MOL0     C15016   0.928   7.570   1.749 -0.3930 -0.8362 -0.1519
  112MOL0     C15017   0.985   7.444   1.789 -0.1908 -0.2370  0.5127
  112MOL0     C15018   1.117   7.410   1.785  0.2199 -0.1834 -0.1304
  112MOL0     C15019   1.207   7.510   1.742  0.6457 -0.0256  0.5496
  112MOL0     O15020   1.341   7.474   1.736 -0.3935  0.6629  0.2557
  112MOL0     C15021   1.435   7.539   1.818 -0.4666 -0.8439 -0.7715
  112MOL0     C15022   1.573   7.473   1.836  0.7941 -0.1382  0.2328
  112MOL0     C15023   1.648   7.536   1.953 -0.4017 -0.6939 -0.3519
  112MOL0     C15024   1.674   7.680   1.921 -0.2078 -0.4582 -0.6964
  112MOL0     C15025   1.754   7.746   2.038 -0.2405 -0.1868  0.8976
  112MOL0     C15026   1.897   7.681   2.065  0.4985 -0.4576  0.3810
  112MOL0     C15027   1.983   7.763   2.162 -0.3305  0.5003  0.5536
  112MOL0     C15028   2.112   7.813   2.092 -0.4585 -0.2361  0.1354
  112MOL0    Cl15029   2.206   7.897   2.219  0.0445  0.3178  0.1092
  112MOL0     C15030   1.153   7.646   1.715  0.3211  0.5764  0.1060
  112MOL0     C15031   1.017   7.670   1.722 -0.4274  0.4645 -0.2149
  112MOL0     O15032   0.733   7.431   1.636  0.2631 -0.1131 -0.5006
  112MOL0     C15033   0.525   7.673   1.786  0.3921 -0.6172 -1.0175
  112MOL0     C15034   0.385   7.709   1.788 -0.1126  0.9189 -0.3891
  112MOL0     N15035  -0.235   7.971   1.916 -0.4233  0.2997  0.7908
  112MOL0     N15036  -0.223   7.974   2.038 -0.1445 -0.3930 -0.6536
  112MOL0     C15037   0.935   7.369   2.134  0.2668  0.5101 -0.3312
  112MOL0     C15038   1.070   7.360   2.152  0.8516  0.6158  0.1469
  112MOL0     C15039   1.436   7.446   2.391  0.7067  0.3195  0.9486
  112MOL0     C15040   1.508   7.351   2.472 -0.0355  0.4668  0.3193
  112MOL0     C15041   1.638   7.365   2.508  0.0299 -0.6613 -0.1120
  112MOL0     C15042   1.706   7.478   2.481  0.3769  0.4538  0.2211
  112MOL0     O15043   1.841   7.499   2.508  0.3457 -0.2098  0.4734
  112MOL0     C15044   1.879   7.445   2.641 -0.3910 -0.3156 -0.3290
  112MOL0     C15045   1.802   7.514   2.750 -0.2360 -0.2800 -0.6275
  112MOL0     C15046   1.840   7.489   2.899  0.6602 -0.4517 -0.5045
  112MOL0     C15047   1.968   7.574   2.927  0.3214  0.1572 -0.0709
  112MOL0     C15048   1.992   7.559   3.078  0.1832  0.0503  0.2027
  112MOL0     C15049   2.007   7.536   3.193 -0.5528 -0.4651  0.3649
  112MOL0     C15050   1.638   7.586   2.414  0.0572 -0.5909 -0.4483
  112MOL0     C15051   1.503   7.566   2.356 -0.1591 -0.6366  0.1726
  112MOL0     C15052   1.439   7.692   2.291 -0.3149 -0.1588  0.0983
  112MOL0     H15053   1.144   7.682   2.192  2.8045 -1.2635 -1.9164
  112MOL0     H15054   0.910   7.706   2.148  3.9523  0.9967  3.3598
  112MOL0     H15055   0.690   7.645   2.244  0.5449 -4.1687  1.4013
  112MOL0     H15056   0.673   7.687   2.068  0.4882  1.1780  1.2870
  112MOL0     H15057   0.492   7.476   2.197  0.3310  0.6797  1.6911
  112MOL0     H15058   0.482   7.540   2.040  1.0815 -0.0598 -0.4400
  112MOL0     H15059   0.452   7.777   2.133  2.2713 -1.1510  0.6093
  112MOL0     H15060   0.433   7.713   2.298  1.2211 -2.9828 -0.0309
  112MOL0     H15061   0.257   7.673   2.063 -3.9807  2.2516  1.6537
  112MOL0     H15062   0.245   7.566   2.205 -2.1020  1.4840  2.8159
  112MOL0     H15063   0.200   7.752   2.343  1.4757  0.8106  0.1812
  112MOL0     H15064   0.218   7.861   2.204  1.5643 -0.6441  0.7992
  112MOL0     H15065   0.057   7.735   2.078 -1.3993 -2.3902 -0.2190
  112MOL0     H15066   0.034   7.624   2.212  2.9082 -0.1469  1.0417
  112MOL0     H15067  -0.022   7.932   2.226  0.5541 -0.9733 -1.9172
  112MOL0     H15068  -0.043   7.833   2.364 -1.9576  0.0476  0.1886
  112MOL0     H15069  -0.215   7.697   2.234 -0.5823  0.2105 -1.3381
  112MOL0     H15070  -0.249   7.846   2.304  2.0218 -0.2912  1.6453
  112MOL0     H15071  -0.240   7.649   1.989 -4.4476  0.2654 -2.0988
  112MOL0     H15072  -0.310   7.686   1.724  0.1501 -0.8113 -3.1993
  112MOL0     H15073  -0.308   7.858   1.682 -0.8163 -0.5500  0.6071
  112MOL0     H15074  -0.144   7.758   1.574 -2.2926  1.9642  1.3034
  112MOL0     H15075  -0.055   7.843   1.701  0.2680  1.0462 -1.6330
  112MOL0     H15076  -0.119   7.542   1.721 -0.8598  0.9344 -0.2032
  112MOL0     H15077  -0.039   7.650   1.843 -1.0783  1.8539  0.1923
  112MOL0     H15078   0.071   7.597   1.557  0.3992 -3.1713  0.6903
  112MOL0     H15079   0.082   7.480   1.679  0.4229 -0.9342 -4.0103
  112MOL0     H15080   0.281   7.510   1.536  0.1493 -0.9877  0.0780
  112MOL0     H15081   0.518   7.429   1.542  1.1460  0.2852  1.3114
  112MOL0     H15082   0.927   7.366   1.839  1.8726 -2.6808 -0.6831
  112MOL0     H15083   1.152   7.308   1.799 -0.9097 -0.1871  3.8455
  112MOL0     H15084   1.449   7.641   1.782 -1.9811 -0.0023  0.8425
  112MOL0     H15085   1.398   7.539   1.922  0.7648 -2.6968 -0.2851
  112MOL0     H15086   1.556   7.367   1.857  1.5198  0.1447  2.6529
  112MOL0     H15087   1.632   7.481   1.745  2.0617  1.7801  1.1617
  112MOL0     H15088   1.579   7.523   2.037 -0.6671 -0.3063 -0.5070
  112MOL0     H15089   1.738   7.477   1.975 -1.7551 -2.2973  1.2197
  112MOL0     H15090   1.579   7.732   1.906  0.0595 -0.1091 -1.2569
  112MOL0     H15091   1.735   7.676   1.830  2.2494 -2.4094  0.8866
  112MOL0     H15092   1.693   7.743   2.129 -1.5731 -0.1933  0.0298
  112MOL0     H15093   1.782   7.848   2.009 -0.3932 -0.5158 -0.4424
  112MOL0     H15094   1.891   7.584   2.113  0.0844 -0.6560 -0.0595
  112MOL0     H15095   1.951   7.647   1.976  0.8518 -1.1603  0.8571
  112MOL0     H15096   2.005   7.714   2.257 -0.5495 -1.0791 -0.1683
  112MOL0     H15097   1.921   7.850   2.187 -0.8644 -0.4892  2.8942
  112MOL0     H15098   2.159   7.724   2.049 -0.7554 -1.4503  2.2245
  112MOL0     H15099   2.073   7.881   2.015  1.6370 -1.9122 -2.6234
  112MOL0     H15100   1.223   7.727   1.697  2.4889 -0.7477  1.9333
  112MOL0     H15101   0.993   7.771   1.690 -0.9537  0.0381 -1.2194
  112MOL0     H15102   0.594   7.728   1.849 -2.2881 -0.0424  1.6651
  112MOL0     H15103   0.351   7.792   1.850 -1.6655  0.1876 -0.2208
  112MOL0     H15104   0.890   7.271   2.122  0.8424  0.2810 -0.6722
  112MOL0     H15105   1.101   7.256   2.142 -1.3855 -0.5055  3.0860
  112MOL0     H15106   1.454   7.258   2.492 -1.6508  1.3471  0.2524
  112MOL0     H15107   1.677   7.287   2.572 -0.5968 -0.1514  0.9087
  112MOL0     H15108   1.984   7.473   2.658  0.2939 -3.0972  0.4362
  112MOL0     H15109   1.873   7.337   2.649  1.2204 -0.5575 -1.9014
  112MOL0     H15110   1.694   7.502   2.738 -0.3325  1.4413 -1.8670
  112MOL0     H15111   1.809   7.623   2.737 -0.4945  0.0024  1.3387
  112MOL0     H15112   1.850   7.381   2.912 -0.2161 -0.6225 -1.1305
  112MOL0     H15113   1.761   7.515   2.970  2.0487 -2.9951  2.1675
  112MOL0     H15114   2.052   7.531   2.873  1.9524  0.6485  1.9460
  112MOL0     H15115   1.950   7.679   2.902  0.6575 -0.2732 -2.3568
  112MOL0     H15116   2.023   7.535   3.299  1.5544  0.3029  0.1118
  112MOL0     H15117   1.671   7.689   2.415 -0.4994 -0.2903  3.5595
  112MOL0     H15118   1.420   7.676   2.184 -2.6436 -2.2013  0.7246
  112MOL0     H15119   1.343   7.705   2.343 -0.1539 -0.2158  0.4100
  112MOL0     H15120   1.507   7.776   2.307  0.2682 -0.6347  0.1497
  113MOL0     O15121   7.085   9.551   7.819  1.0591 -0.2304  0.4699
  113MOL0     C15122   7.110   9.559   7.931 -0.2254  0.2341 -0.3688
  113MOL0     O15123   7.243   9.549   7.978  0.4720  0.2141 -0.2058
  113MOL0     C15124   7.357   9.507   7.909  0.3487 -0.0252  0.8658
  113MOL0     C15125   7.350   9.428   7.789 -0.5903  0.3307 -0.2922
  113MOL0     C15126   7.468   9.371   7.739 -0.4597 -0.0352  0.0740
  113MOL0     C15127   7.596   9.401   7.786 -0.3975 -0.0137 -0.9341
  113MOL0     O15128   7.712   9.342   7.736 -0.0914 -0.1319  0.7209
  113MOL0     C15129   7.716   9.278   7.604 -0.6466  0.0965  0.0010
  113MOL0     C15130   7.861   9.242   7.556  0.4349 -0.1596  0.1864
  113MOL0     C15131   7.962   9.362   7.535 -0.7831 -0.1436  0.7588
  113MOL0     C15132   8.110   9.321   7.504  0.2062  0.5321  0.0015
  113MOL0     C15133   8.122   9.280   7.353 -0.4072 -0.2060  0.4342
  113MOL0     C15134   8.265   9.284   7.300 -0.0018 -0.6432 -0.3605
  113MOL0     C15135   8.373   9.229   7.394 -0.4251 -0.5925  0.0750
  113MOL0     C15136   8.508   9.294   7.365 -0.3717 -0.2075 -0.3641
  113MOL0     N15137   8.629   9.202   7.367 -0.1076 -0.1168  0.7224
  113MOL0     C15138   8.666   9.148   7.484 -0.0422 -0.1710 -0.2097
  113MOL0     C15139   8.784   9.072   7.455  0.8539 -0.6068  0.0508
  113MOL0     C15140   8.871   8.993   7.551  0.0886  0.0318  0.3999
  113MOL0     C15141   8.950   9.070   7.651 -0.3373  0.4461  0.3163
  113MOL0     C15142   9.029   8.982   7.753  0.1661  0.1484  0.5407
  113MOL0     C15143   9.166   9.037   7.775 -0.7172 -0.2196 -0.3901
  113MOL0     O15144   9.154   9.162   7.854 -0.0704  0.5545  0.0079
  113MOL0     C15145   9.262   9.225   7.905  0.2482 -0.9835  0.2448
  113MOL0     C15146   9.243   9.339   7.982 -0.0579 -0.0773 -0.5327
  113MOL0     C15147   9.350   9.417   8.020  0.3836  0.1360 -0.0079
  113MOL0     C15148   9.491   9.378   7.986 -0.5633  1.6477 -0.2160
  113MOL0     C15149   9.612   9.448   8.032  0.8892 -0.2197 -0.2567
  113MOL0     O15150   9.729   9.412   7.971 -0.5974 -0.2019  0.4227
  113MOL0     C15151   9.856   9.455   8.001 -0.1261 -0.3691  0.2804
  113MOL0     C15152   9.957   9.424   7.909  0.8260 -0.4822 -0.1237
  113MOL0     C15153  10.088   9.471   7.921  0.6534  0.3645  0.2064
  113MOL0     C15154  10.118   9.549   8.025 -0.8828  0.2484 -0.2380
  113MOL0     O15155  10.247   9.602   8.041  0.2617  0.1979 -0.4915
  113MOL0     C15156  10.358   9.563   7.948  0.6331 -0.0061 -0.2049
  113MOL0     C15157  10.489   9.625   7.995  0.1879  0.1703 -0.0638
  113MOL0     C15158  10.487   9.776   8.028  0.7987  1.0076  0.5411
  113MOL0     C15159  10.622   9.833   8.072 -0.3142 -0.4542 -0.1619
  113MOL0     C15160  10.711   9.862   7.948  0.4954 -0.2446  0.2204
  113MOL0     C15161  10.828   9.948   7.985  1.0340  0.5053  0.1324
  113MOL0     C15162  10.920   9.978   7.866  0.4598  0.5963  0.9664
  113MOL0     C15163  11.050  10.037   7.921 -0.5735 -0.2628  1.2143
  113MOL0    Cl15164  11.040  10.199   7.983 -0.1872 -0.0810 -0.2837
  113MOL0     C15165  10.025   9.591   8.118  0.2818  0.4931 -0.0030
  113MOL0     C15166   9.892   9.537   8.102 -0.4370  0.5187 -0.3307
  113MOL0     O15167   9.598   9.522   8.126 -0.0393  0.6750  0.3653
  113MOL0     C15168   9.503   9.259   7.919  0.0074  0.1856 -0.3848
  113MOL0     C15169   9.390   9.191   7.868 -0.8106 -0.1276 -0.1858
  113MOL0     N15170   8.812   9.095   7.322  0.1801  0.3434 -0.2850
  113MOL0     N15171   8.727   9.176   7.270 -0.9190  0.0063  0.1320
  113MOL0     C15172   7.596   9.481   7.902 -0.2586  0.2007 -0.6581
  113MOL0     C15173   7.483   9.536   7.960  0.3514  0.2974 -0.9926
  113MOL0     C15174   7.009   9.599   8.028 -0.6006  0.3222  0.2871
  113MOL0     C15175   7.045   9.697   8.125  0.0314 -0.2101  0.1805
  113MOL0     C15176   6.960   9.752   8.212 -0.8960  0.1317 -0.1408
  113MOL0     C15177   6.828   9.704   8.218 -0.1344  0.4459 -0.3751
  113MOL0     O15178   6.756   9.749   8.324  0.4195  0.4400  0.1849
  113MOL0     C15179   6.623   9.676   8.340 -0.4969 -0.2395 -0.0958
  113MOL0     C15180   6.559   9.750   8.461  0.1950 -0.3865  0.2969
  113MOL0     C15181   6.426   9.692   8.505 -0.7338 -0.6996 -0.4776
  113MOL0     C15182   6.420   9.599   8.624  0.4761  0.0659 -0.1649
  113MOL0     C15183   6.401   9.671   8.750 -0.4695  0.2938  0.3851
  113MOL0     C15184   6.362   9.719   8.847  0.1047  0.4034 -0.1804
  113MOL0     C15185   6.788   9.609   8.127  0.0973  0.2106  1.1826
  113MOL0     C15186   6.873   9.557   8.029  0.8511  0.1422 -0.3945
  113MOL0     C15187   6.815   9.462   7.933 -0.1065 -0.1252  0.5376
  113MOL0     H15188   7.256   9.393   7.750 -0.9078 -1.7597  2.0812
  113MOL0     H15189   7.449   9.303   7.656 -2.8684 -0.8564  1.2040
  113MOL0     H15190   7.641   9.198   7.611 -1.9272  1.3721  1.5989
  113MOL0     H15191   7.676   9.352   7.534 -1.0436  1.6923  1.8270
  113MOL0     H15192   7.842   9.180   7.468 -0.4494 -1.5555  1.3036
  113MOL0     H15193   7.907   9.172   7.626 -0.4403 -0.8409  0.1032
  113MOL0     H15194   7.954   9.434   7.617 -3.7079  2.0914 -1.3077
  113MOL0     H15195   7.914   9.409   7.449 -0.6084 -3.0573 -1.0465
  113MOL0     H15196   8.188   9.396   7.521 -0.0745  1.2043 -1.5596
  113MOL0     H15197   8.129   9.238   7.573 -1.3336  2.2464  2.6580
  113MOL0     H15198   8.099   9.174   7.339  0.1330 -0.2712 -0.0130
  113MOL0     H15199   8.058   9.347   7.295  0.1180 -0.7019 -0.7661
  113MOL0     H15200   8.268   9.225   7.208 -4.3532 -0.3197 -0.8824
  113MOL0     H15201   8.289   9.388   7.275 -1.6193 -0.3560 -0.7811
  113MOL0     H15202   8.394   9.122   7.400  0.7963 -0.3282  0.6870
  113MOL0     H15203   8.357   9.259   7.498 -0.5908 -2.6197  0.6786
  113MOL0     H15204   8.505   9.355   7.275  0.9790  2.6459  1.3935
  113MOL0     H15205   8.513   9.370   7.444  0.0067 -0.7096  0.1021
  113MOL0     H15206   8.610   9.173   7.574 -0.6049 -1.7158 -0.0972
  113MOL0     H15207   8.804   8.926   7.606  1.5246  0.2694  2.5672
  113MOL0     H15208   8.948   8.930   7.505  1.5158  1.5994  0.5387
  113MOL0     H15209   9.025   9.140   7.612  0.8890 -0.9882  0.0394
  113MOL0     H15210   8.881   9.119   7.722 -0.1070  0.4962  0.5064
  113MOL0     H15211   9.033   8.880   7.714 -2.8734  0.3804 -0.6616
  113MOL0     H15212   8.977   8.961   7.847 -1.1300 -4.1603 -0.9227
  113MOL0     H15213   9.218   9.053   7.680 -1.0858 -1.4895 -0.8273
  113MOL0     H15214   9.209   8.958   7.837  0.3406  0.7642  0.1676
  113MOL0     H15215   9.145   9.358   8.024  0.9918 -0.8135  2.5466
  113MOL0     H15216   9.354   9.510   8.077 -3.1589  0.6594 -0.3401
  113MOL0     H15217   9.921   9.360   7.830 -0.7093  1.5252 -1.1649
  113MOL0     H15218  10.167   9.435   7.856  0.2746 -1.4583  0.7012
  113MOL0     H15219  10.377   9.455   7.944  1.2700  0.0887  0.2304
  113MOL0     H15220  10.334   9.606   7.850  1.2549 -2.4414 -1.5297
  113MOL0     H15221  10.525   9.576   8.085 -0.5931  0.3991  0.3798
  113MOL0     H15222  10.565   9.611   7.917  0.1812 -0.4556  0.0389
  113MOL0     H15223  10.450   9.827   7.938 -0.9819 -1.7411 -0.4039
  113MOL0     H15224  10.422   9.798   8.113  1.0053  1.0597  0.6857
  113MOL0     H15225  10.674   9.768   8.143 -1.4747 -2.2648 -0.8900
  113MOL0     H15226  10.609   9.927   8.128  2.6213  1.2798 -2.1532
  113MOL0     H15227  10.644   9.903   7.872  0.5935  2.2518  1.3547
  113MOL0     H15228  10.747   9.766   7.911 -0.0565 -0.0945 -0.7303
  113MOL0     H15229  10.787  10.035   8.036  0.0448  0.0200  0.1945
  113MOL0     H15230  10.878   9.887   8.061  1.4688  1.2613  0.4708
  113MOL0     H15231  10.867  10.044   7.797 -1.3241 -0.0406  1.6485
  113MOL0     H15232  10.945   9.892   7.803  0.5552  1.0261  0.4037
  113MOL0     H15233  11.092   9.963   7.990 -1.5208 -1.6211  0.4044
  113MOL0     H15234  11.118  10.029   7.836 -1.9331 -0.9269  0.1308
  113MOL0     H15235  10.041   9.661   8.199 -2.2829  1.4217 -0.2050
  113MOL0     H15236   9.829   9.574   8.182 -0.7321  0.4243 -0.5198
  113MOL0     H15237   9.604   9.228   7.891  1.1903  0.7270  2.8705
  113MOL0     H15238   9.405   9.108   7.799 -2.2033  0.7150 -1.5516
  113MOL0     H15239   7.695   9.514   7.933  0.3967 -1.7656 -0.5166
  113MOL0     H15240   7.479   9.583   8.058 -1.7734 -1.1742 -0.2899
  113MOL0     H15241   7.149   9.727   8.132  0.2532 -0.7839 -0.5051
  113MOL0     H15242   6.994   9.827   8.283 -0.7965  1.3145 -1.3986
  113MOL0     H15243   6.633   9.571   8.369  3.8500 -0.2188 -0.8045
  113MOL0     H15244   6.557   9.683   8.253 -0.3733 -1.0831 -0.2653
  113MOL0     H15245   6.540   9.852   8.429  0.1634 -0.3508  0.4295
  113MOL0     H15246   6.632   9.748   8.542  1.0995  0.9480 -0.4531
  113MOL0     H15247   6.370   9.650   8.421 -1.3084 -4.5993  1.6218
  113MOL0     H15248   6.360   9.776   8.530 -0.8544 -2.0861  5.1710
  113MOL0     H15249   6.325   9.545   8.614  1.0171 -0.8000 -0.7563
  113MOL0     H15250   6.513   9.542   8.623  0.2282 -0.3358 -0.5988
  113MOL0     H15251   6.325   9.753   8.941  0.4033  0.4566 -0.0805
  113MOL0     H15252   6.683   9.579   8.130  0.2483 -0.2653  2.1564
  113MOL0     H15253   6.812   9.516   7.838  1.0593 -0.1345  0.4885
  113MOL0     H15254   6.883   9.378   7.915 -1.5204 -0.7922 -2.2096
  113MOL0     H15255   6.715   9.427   7.962 -0.1716  0.4367  0.9928
  114MOL0     O15256   3.516   7.693   5.246 -0.1705 -0.4591 -0.4428
  114MOL0     C15257   3.442   7.733   5.344 -0.4924 -0.4998 -0.1939
  114MOL0     O15258   3.306   7.752   5.341  0.6978 -0.2900  0.2553
  114MOL0     C15259   3.236   7.749   5.225 -0.0565 -0.6095 -0.0393
  114MOL0     C15260   3.098   7.731   5.241 -0.5433  1.5854 -0.3999
  114MOL0     C15261   3.010   7.748   5.138  0.1067  0.5777 -0.0259
  114MOL0     C15262   3.047   7.781   5.010 -0.5517 -0.4123 -0.4640
  114MOL0     O15263   2.965   7.797   4.905  0.1251 -0.1532 -0.3052
  114MOL0     C15264   2.824   7.821   4.918 -0.0036  0.2147 -0.4044
  114MOL0     C15265   2.758   7.850   4.783  0.6948 -0.7704  0.2012
  114MOL0     C15266   2.810   7.992   4.735 -0.3337 -0.0771  0.4289
  114MOL0     C15267   2.753   8.033   4.598 -0.0328  0.8985  0.1534
  114MOL0     C15268   2.867   8.096   4.524 -0.5932  0.6306  0.3411
  114MOL0     C15269   2.953   7.992   4.463  0.3436 -0.5778 -0.1042
  114MOL0     C15270   3.041   8.047   4.356 -0.5628 -0.6214  0.1799
  114MOL0     C15271   3.190   8.054   4.381 -1.0713 -0.1004 -0.0825
  114MOL0     N15272   3.239   8.196   4.372  0.2971 -0.2069  0.0713
  114MOL0     C15273   3.157   8.307   4.384 -0.5116 -0.2279  0.0780
  114MOL0     C15274   3.244   8.410   4.365 -0.4454  0.0569 -0.2879
  114MOL0     C15275   3.184   8.547   4.389 -0.0848  0.2264 -0.8771
  114MOL0     C15276   3.292   8.653   4.387  0.4826 -0.0277  0.1133
  114MOL0     C15277   3.388   8.656   4.503  0.8720  0.1253 -0.0810
  114MOL0     C15278   3.500   8.752   4.498  0.5307  0.2986 -0.4740
  114MOL0     O15279   3.578   8.758   4.383 -0.2222  0.1530  0.3082
  114MOL0     C15280   3.661   8.650   4.350  1.0901  0.3794  0.4002
  114MOL0     C15281   3.735   8.642   4.228  0.1617  0.2919 -0.1724
  114MOL0     C15282   3.828   8.544   4.192 -0.1237  0.4292 -0.7100
  114MOL0     C15283   3.847   8.441   4.291 -0.1870  0.4022  0.1816
  114MOL0     C15284   3.930   8.324   4.251 -0.6808  0.0314 -0.3214
  114MOL0     O15285   4.045   8.349   4.177 -0.6658  0.0743  0.4406
  114MOL0     C15286   4.120   8.247   4.122  0.5246 -0.0346  0.2859
  114MOL0     C15287   4.251   8.278   4.103 -0.3817 -0.0955 -1.1597
  114MOL0     C15288   4.340   8.189   4.044 -0.2977  0.4292  0.2291
  114MOL0     C15289   4.300   8.062   4.019  0.3996  0.1921  0.9039
  114MOL0     O15290   4.387   7.964   3.972 -0.8110 -0.9554  0.4434
  114MOL0     C15291   4.530   7.985   3.979  1.1750 -0.9474  0.1225
  114MOL0     C15292   4.593   7.984   4.120 -0.7203  0.5064  0.3233
  114MOL0     C15293   4.746   8.003   4.119  0.2902  0.0622  0.6864
  114MOL0     C15294   4.799   7.975   4.259  1.1890  0.2028 -0.7797
  114MOL0     C15295   4.949   7.995   4.272 -0.7794  0.1682 -0.5021
  114MOL0     C15296   4.987   8.139   4.283  0.4739 -0.6682 -0.4879
  114MOL0     C15297   5.135   8.154   4.296 -0.0704  0.2579  0.4795
  114MOL0     C15298   5.170   8.303   4.319 -0.5185 -0.1270 -0.0867
  114MOL0    Cl15299   5.341   8.345   4.369  0.2738  0.2138  0.3010
  114MOL0     C15300   4.164   8.028   4.034 -0.7228 -0.1759 -0.3218
  114MOL0     C15301   4.072   8.118   4.085  0.3877 -0.3548  0.5094
  114MOL0     O15302   3.902   8.221   4.309 -0.3345  0.8095 -0.1493
  114MOL0     C15303   3.773   8.440   4.411 -0.3711  0.2140  0.1425
  114MOL0     C15304   3.680   8.543   4.442 -0.3274  0.4985 -0.2013
  114MOL0     N15305   3.369   8.358   4.350 -0.3655 -0.5521 -0.2689
  114MOL0     N15306   3.363   8.237   4.368 -0.7767 -0.5277  1.0426
  114MOL0     C15307   3.186   7.788   4.989  0.3437 -0.0099  0.7527
  114MOL0     C15308   3.275   7.778   5.096  0.3040 -0.1501 -0.0941
  114MOL0     C15309   3.506   7.763   5.482  0.1862 -0.2445 -0.0003
  114MOL0     C15310   3.440   7.835   5.581  0.2251 -0.2017 -0.5060
  114MOL0     C15311   3.496   7.896   5.691  0.4497 -0.5051  0.6733
  114MOL0     C15312   3.634   7.858   5.717 -0.3516 -0.1980 -0.6047
  114MOL0     O15313   3.707   7.916   5.820  0.5583  0.0669 -0.6394
  114MOL0     C15314   3.645   7.998   5.922 -0.7581  0.1689 -0.3613
  114MOL0     C15315   3.579   7.912   6.033 -0.5223  0.1258  1.0873
  114MOL0     C15316   3.642   7.770   6.058 -0.3246  0.0913 -0.6128
  114MOL0     C15317   3.576   7.692   6.177  0.2273  0.1959 -0.6629
  114MOL0     C15318   3.537   7.766   6.292 -0.3665 -0.2135 -0.8644
  114MOL0     C15319   3.491   7.839   6.380 -0.3544 -0.4959 -0.0141
  114MOL0     C15320   3.703   7.787   5.626 -0.6779  0.7617  0.0523
  114MOL0     C15321   3.642   7.729   5.513  0.0504 -0.5338  1.2527
  114MOL0     C15322   3.729   7.659   5.415 -0.4348 -0.0829 -0.0706
  114MOL0     H15323   3.071   7.706   5.343  0.2621 -2.0411 -0.9551
  114MOL0     H15324   2.904   7.733   5.154 -0.6158  2.7919 -2.1416
  114MOL0     H15325   2.781   7.728   4.956  1.2096  0.1506  0.9305
  114MOL0     H15326   2.809   7.900   4.993 -2.5484 -1.0517  0.5405
  114MOL0     H15327   2.651   7.867   4.798  0.4798  1.2994 -2.7377
  114MOL0     H15328   2.765   7.776   4.703 -1.1205  0.5689 -1.2873
  114MOL0     H15329   2.918   7.973   4.738 -0.4877 -1.2288 -0.4164
  114MOL0     H15330   2.777   8.069   4.805  0.1768  1.8099 -1.2907
  114MOL0     H15331   2.726   7.947   4.536 -1.1942  0.8271  0.7373
  114MOL0     H15332   2.663   8.096   4.597 -0.1414  0.7426  0.0492
  114MOL0     H15333   2.828   8.172   4.455  0.3393  2.7928  2.0461
  114MOL0     H15334   2.929   8.159   4.590 -0.9545 -0.0399  1.3410
  114MOL0     H15335   3.018   7.929   4.525  1.2078 -3.0153 -3.1882
  114MOL0     H15336   2.894   7.920   4.405 -1.1721 -0.1752  0.8825
  114MOL0     H15337   3.001   8.138   4.310  0.1660 -0.4507 -0.1376
  114MOL0     H15338   3.042   7.980   4.269  2.9543 -1.9890  1.1124
  114MOL0     H15339   3.217   8.015   4.479  0.0578  1.4192  0.2299
  114MOL0     H15340   3.231   8.002   4.294 -1.9942  0.8864 -1.1465
  114MOL0     H15341   3.051   8.313   4.407  0.0561  1.3520  2.6348
  114MOL0     H15342   3.127   8.567   4.298 -1.8334 -0.4947  0.0121
  114MOL0     H15343   3.118   8.555   4.475  1.2892  2.2433  0.0566
  114MOL0     H15344   3.342   8.638   4.290 -0.3225  0.2522 -0.3541
  114MOL0     H15345   3.244   8.751   4.383  0.8685  0.2878  2.1843
  114MOL0     H15346   3.432   8.556   4.512 -2.0018 -1.1046  1.4409
  114MOL0     H15347   3.338   8.671   4.598  0.8797 -0.9416  0.1007
  114MOL0     H15348   3.562   8.723   4.583  0.7392 -1.5302 -1.1823
  114MOL0     H15349   3.465   8.855   4.507  2.2950  0.8408  0.7974
  114MOL0     H15350   3.721   8.724   4.159 -1.0638  0.9506  0.8230
  114MOL0     H15351   3.888   8.549   4.101  0.6729  0.7313 -0.1722
  114MOL0     H15352   4.295   8.375   4.125  0.1687 -0.4680 -0.5957
  114MOL0     H15353   4.441   8.228   4.035 -1.0284  2.9549  1.6701
  114MOL0     H15354   4.581   7.903   3.928  3.1244 -0.1670  0.7253
  114MOL0     H15355   4.560   8.076   3.926  0.0982  0.0044  1.0837
  114MOL0     H15356   4.547   8.062   4.182 -0.0541 -0.0988  1.6316
  114MOL0     H15357   4.568   7.886   4.163  2.3776 -1.5719 -2.1674
  114MOL0     H15358   4.800   7.926   4.064  1.0368 -0.6807  2.3886
  114MOL0     H15359   4.760   8.105   4.083 -1.9113  0.9225  2.0897
  114MOL0     H15360   4.764   7.877   4.294  1.6610 -0.1525 -1.2924
  114MOL0     H15361   4.747   8.045   4.326  0.5513 -0.1682 -0.8772
  114MOL0     H15362   5.001   7.948   4.188 -0.9612  1.9407 -1.6642
  114MOL0     H15363   4.974   7.948   4.368  0.6087 -0.6607 -1.2450
  114MOL0     H15364   4.955   8.194   4.194  2.9020 -0.2308 -1.1579
  114MOL0     H15365   4.934   8.178   4.371 -0.9839 -1.6372 -0.8970
  114MOL0     H15366   5.194   8.116   4.213 -1.3847  2.1088 -1.3942
  114MOL0     H15367   5.173   8.091   4.377  1.5212  0.9428  0.3095
  114MOL0     H15368   5.161   8.348   4.219 -1.8017 -1.7102 -0.7281
  114MOL0     H15369   5.108   8.352   4.394  1.7145  0.7729  1.2847
  114MOL0     H15370   4.137   7.923   4.033 -3.6087  0.4050  1.7418
  114MOL0     H15371   3.972   8.086   4.110  0.1527  0.5636  0.7670
  114MOL0     H15372   3.771   8.359   4.483 -1.7350 -2.6384 -2.8189
  114MOL0     H15373   3.638   8.542   4.542 -1.3352 -0.6865 -0.6187
  114MOL0     H15374   3.227   7.800   4.889 -2.3459  0.0763 -0.4113
  114MOL0     H15375   3.381   7.785   5.075  0.7927  0.9591  2.3950
  114MOL0     H15376   3.334   7.858   5.576 -0.0105  0.0505  3.0855
  114MOL0     H15377   3.421   7.944   5.755  0.3070 -0.7443  0.6865
  114MOL0     H15378   3.576   8.067   5.872 -1.2267 -0.4368 -0.5691
  114MOL0     H15379   3.716   8.063   5.974 -0.2285 -0.6794 -0.0062
  114MOL0     H15380   3.473   7.896   6.015 -0.1165  0.1025 -1.6685
  114MOL0     H15381   3.586   7.968   6.127  3.0248  1.2177  0.3325
  114MOL0     H15382   3.750   7.774   6.075 -0.5612 -0.9547  1.3919
  114MOL0     H15383   3.620   7.712   5.968 -2.4424 -3.1430  1.7919
  114MOL0     H15384   3.488   7.648   6.130  0.4412  0.2867 -1.1632
  114MOL0     H15385   3.651   7.623   6.216  0.8834  2.5703  2.7875
  114MOL0     H15386   3.449   7.887   6.466  2.1044  1.6230  0.1036
  114MOL0     H15387   3.802   7.757   5.657 -1.0961 -1.4575 -0.5162
  114MOL0     H15388   3.682   7.572   5.368  1.4924 -1.1119 -0.2032
  114MOL0     H15389   3.759   7.727   5.335 -2.0569  0.5910 -0.1338
  114MOL0     H15390   3.817   7.630   5.473  0.6441  0.3065 -1.4538
  115MOL0     O15391   1.864   0.860   9.385 -0.4731  0.0856 -0.3328
  115MOL0     C15392   1.745   0.849   9.360  0.8723  0.7176 -0.2775
  115MOL0     O15393   1.691   0.884   9.236  0.4276  0.6020  0.1622
  115MOL0     C15394   1.756   0.935   9.131  0.3731  1.1885  0.7531
  115MOL0     C15395   1.889   0.895   9.100  0.2308 -0.5796 -0.4416
  115MOL0     C15396   1.957   0.954   8.995 -0.1524 -0.7206 -0.1842
  115MOL0     C15397   1.894   1.050   8.912  0.1852 -0.6130  0.5183
  115MOL0     O15398   1.943   1.110   8.798  0.2628 -0.0810  0.3347
  115MOL0     C15399   2.080   1.107   8.788  0.2024 -0.4612  0.0134
  115MOL0     C15400   2.117   1.177   8.669  0.4010 -0.2102  0.8458
  115MOL0     C15401   2.260   1.160   8.627  1.2931  0.2207  0.1802
  115MOL0     C15402   2.369   1.194   8.727 -0.1075  0.7709 -0.3544
  115MOL0     C15403   2.516   1.173   8.678  0.4088 -0.8799  0.5412
  115MOL0     C15404   2.601   1.272   8.750  0.5604 -0.5474 -0.1117
  115MOL0     C15405   2.574   1.420   8.719  0.0517 -0.2096  0.6547
  115MOL0     C15406   2.546   1.438   8.566 -0.2545  0.0179 -1.2603
  115MOL0     N15407   2.576   1.577   8.525  0.1924  0.2019  0.4628
  115MOL0     C15408   2.663   1.618   8.423  0.9317  0.6005 -0.4039
  115MOL0     C15409   2.650   1.748   8.414 -0.4486 -1.0844  1.0399
  115MOL0     C15410   2.723   1.838   8.313  0.4591 -0.4471 -0.8654
  115MOL0     C15411   2.854   1.871   8.379 -0.3737 -0.6873  0.0747
  115MOL0     C15412   2.939   1.944   8.277 -0.5543  0.3559 -0.2860
  115MOL0     C15413   3.090   1.952   8.318 -0.2677 -0.7972 -0.1926
  115MOL0     O15414   3.146   1.821   8.309 -0.4419 -0.1779 -0.3246
  115MOL0     C15415   3.278   1.815   8.306 -0.9548  0.1367  0.4125
  115MOL0     C15416   3.343   1.687   8.308  0.8065  0.5500  0.6398
  115MOL0     C15417   3.484   1.686   8.299 -0.8455 -0.2075  0.4043
  115MOL0     C15418   3.569   1.795   8.310 -0.5088  0.0343 -0.1829
  115MOL0     C15419   3.711   1.773   8.303  0.3301 -0.1230  0.0199
  115MOL0     O15420   3.749   1.640   8.325 -0.4327 -0.2012 -0.1133
  115MOL0     C15421   3.874   1.602   8.358  0.5133  0.9586  0.7647
  115MOL0     C15422   3.906   1.498   8.454 -0.1436 -0.7092 -0.5019
  115MOL0     C15423   4.033   1.450   8.473  0.2331 -0.4185 -0.7671
  115MOL0     C15424   4.145   1.508   8.413 -0.3051  0.8256  0.1589
  115MOL0     O15425   4.265   1.441   8.431 -0.0892  0.4708  0.2184
  115MOL0     C15426   4.379   1.474   8.345 -0.1418 -0.4064 -0.5537
  115MOL0     C15427   4.502   1.391   8.368 -0.7836 -0.1599 -0.9889
  115MOL0     C15428   4.584   1.435   8.485 -0.0701  0.7286  0.1383
  115MOL0     C15429   4.668   1.317   8.546 -0.4844 -0.1764 -0.5919
  115MOL0     C15430   4.794   1.358   8.620  0.3547 -0.1371 -0.1619
  115MOL0     C15431   4.839   1.245   8.716 -0.4801 -0.0956  1.0262
  115MOL0     C15432   4.982   1.272   8.771  0.3262 -0.1254 -0.1592
  115MOL0     C15433   4.986   1.201   8.902 -0.1106 -0.0767 -0.4224
  115MOL0    Cl15434   5.152   1.220   8.973 -0.2024 -0.0901 -0.0535
  115MOL0     C15435   4.114   1.597   8.304  0.5834  0.6461 -0.1306
  115MOL0     C15436   3.984   1.641   8.281 -0.0397  0.5041 -0.1130
  115MOL0     O15437   3.782   1.872   8.287 -0.3945 -0.5504  1.0862
  115MOL0     C15438   3.502   1.915   8.311  0.3111  0.8258 -0.7303
  115MOL0     C15439   3.363   1.930   8.321 -0.4411 -0.1008  0.3307
  115MOL0     N15440   2.559   1.783   8.506  0.6054 -0.6676  0.1341
  115MOL0     N15441   2.510   1.685   8.564  0.2041  0.1914  0.2241
  115MOL0     C15442   1.760   1.077   8.942 -0.1756  0.5730 -0.1174
  115MOL0     C15443   1.689   1.016   9.047  0.0527  0.1050 -0.3628
  115MOL0     C15444   1.660   0.766   9.452 -1.1801  0.0305  1.6439
  115MOL0     C15445   1.545   0.709   9.393 -0.0002 -0.6874 -0.8061
  115MOL0     C15446   1.459   0.636   9.472  0.7656 -0.8284  0.5575
  115MOL0     C15447   1.493   0.617   9.607  0.0404  0.5627 -0.2936
  115MOL0     O15448   1.403   0.537   9.676 -0.1367 -0.2467 -0.4806
  115MOL0     C15449   1.468   0.434   9.757 -1.0592 -0.5038  0.8636
  115MOL0     C15450   1.395   0.414   9.891 -0.3993 -0.5252 -0.3819
  115MOL0     C15451   1.390   0.266   9.915  0.3637 -0.9042  0.4900
  115MOL0     C15452   1.353   0.218  10.060  0.6299 -0.0082  0.7582
  115MOL0     C15453   1.465   0.240  10.151  0.4747  0.6158  0.8753
  115MOL0     C15454   1.548   0.269  10.229  0.1251  0.4908 -1.2242
  115MOL0     C15455   1.604   0.678   9.670 -0.2618 -0.0300 -0.0773
  115MOL0     C15456   1.689   0.755   9.592  0.0701  0.1389  0.0886
  115MOL0     C15457   1.819   0.804   9.658 -0.0530  0.3295 -0.5208
  115MOL0     H15458   1.944   0.820   9.155  1.0058  0.7049  0.6009
  115MOL0     H15459   2.060   0.932   8.969  0.7502  0.0283  2.4155
  115MOL0     H15460   2.126   1.157   8.874 -1.1908  0.4161  0.2803
  115MOL0     H15461   2.110   1.003   8.772 -4.2709 -1.7791 -1.1167
  115MOL0     H15462   2.105   1.283   8.693  1.4723  0.3296 -0.8087
  115MOL0     H15463   2.046   1.154   8.589  0.3967 -2.0903  1.3371
  115MOL0     H15464   2.273   1.227   8.541  1.7746 -0.5082 -0.3213
  115MOL0     H15465   2.274   1.065   8.575  2.5364  0.3649  0.2116
  115MOL0     H15466   2.361   1.297   8.762  1.4800  0.3028  1.5749
  115MOL0     H15467   2.346   1.130   8.812  1.4103 -0.7791 -1.0407
  115MOL0     H15468   2.552   1.076   8.714  0.1848 -1.2896 -0.3343
  115MOL0     H15469   2.538   1.169   8.571 -1.2560 -2.0069  0.1981
  115MOL0     H15470   2.580   1.265   8.857 -1.5914  3.5893 -0.0508
  115MOL0     H15471   2.703   1.236   8.734  0.5438 -0.6869  0.0833
  115MOL0     H15472   2.670   1.467   8.743 -0.1960  0.0779  1.0935
  115MOL0     H15473   2.493   1.445   8.788  0.6510 -1.4727  1.8763
  115MOL0     H15474   2.627   1.375   8.526 -0.2574 -0.1000 -1.0827
  115MOL0     H15475   2.446   1.412   8.531  0.3221  2.7163 -5.6627
  115MOL0     H15476   2.732   1.558   8.364  0.0038  1.0758 -2.0457
  115MOL0     H15477   2.733   1.795   8.213  1.6392 -2.4516  0.0696
  115MOL0     H15478   2.670   1.934   8.308  2.5014  0.8124 -0.0806
  115MOL0     H15479   2.841   1.955   8.448 -1.1959  2.6684 -3.7458
  115MOL0     H15480   2.897   1.783   8.427 -0.7435 -1.3413 -0.7617
  115MOL0     H15481   2.894   2.043   8.262  0.3043  0.8674  0.4309
  115MOL0     H15482   2.938   1.890   8.182 -0.2763  2.2546 -1.4324
  115MOL0     H15483   3.103   1.994   8.418  0.9776  2.4186 -1.5875
  115MOL0     H15484   3.148   2.017   8.252  0.9631 -1.0402  0.6086
  115MOL0     H15485   3.295   1.590   8.302 -0.7455  1.2769  1.0526
  115MOL0     H15486   3.533   1.591   8.279  1.0492  1.1173 -1.7831
  115MOL0     H15487   3.823   1.449   8.506  2.0876 -1.5805  2.5254
  115MOL0     H15488   4.054   1.371   8.545  0.3082  0.5405  0.3031
  115MOL0     H15489   4.346   1.440   8.247 -0.5251 -3.4039  0.5350
  115MOL0     H15490   4.408   1.580   8.339 -0.4718 -0.4064 -2.9436
  115MOL0     H15491   4.463   1.293   8.398 -0.4507 -0.2502 -0.8406
  115MOL0     H15492   4.570   1.382   8.283 -0.6860  0.4073 -0.9753
  115MOL0     H15493   4.644   1.521   8.456 -1.1856  1.2758 -0.6282
  115MOL0     H15494   4.508   1.464   8.558 -0.4811 -1.4559  0.6638
  115MOL0     H15495   4.701   1.254   8.463 -1.3305  0.7388 -1.6643
  115MOL0     H15496   4.608   1.251   8.609 -0.7804  1.3221  0.7694
  115MOL0     H15497   4.774   1.450   8.676  1.5781 -0.2651  0.5112
  115MOL0     H15498   4.865   1.380   8.540 -1.8866  2.9354 -1.4901
  115MOL0     H15499   4.760   1.256   8.791 -2.8773 -1.2525 -1.1537
  115MOL0     H15500   4.828   1.146   8.671  2.7892 -0.2845  0.4231
  115MOL0     H15501   5.009   1.378   8.766  1.8900 -0.3205  2.3443
  115MOL0     H15502   5.044   1.225   8.694  0.6262 -0.3500  0.2154
  115MOL0     H15503   4.916   1.240   8.976 -1.7636  1.0030 -2.4355
  115MOL0     H15504   4.955   1.097   8.890  0.6719 -1.0851  4.4223
  115MOL0     H15505   4.188   1.650   8.244  0.3733 -0.6931 -1.6462
  115MOL0     H15506   3.969   1.726   8.217  0.3040  0.1061 -0.7278
  115MOL0     H15507   3.564   2.004   8.320  2.5357 -0.7648  0.7550
  115MOL0     H15508   3.331   2.034   8.331  0.6544  0.2367  0.4485
  115MOL0     H15509   1.710   1.155   8.885  0.3638  3.0988  2.6273
  115MOL0     H15510   1.584   1.021   9.072  0.2233  0.0842  0.3743
  115MOL0     H15511   1.516   0.722   9.289  0.3298  0.5348 -0.7610
  115MOL0     H15512   1.367   0.592   9.434 -0.5301  1.0979  1.2587
  115MOL0     H15513   1.574   0.452   9.778 -0.1592 -0.3631 -3.0445
  115MOL0     H15514   1.465   0.343   9.695  0.3048  0.8561 -1.3525
  115MOL0     H15515   1.292   0.449   9.885 -1.1698 -2.3930  0.9604
  115MOL0     H15516   1.445   0.464   9.974  1.3469 -3.8580  0.7532
  115MOL0     H15517   1.489   0.227   9.890 -0.2448 -1.1252 -1.8054
  115MOL0     H15518   1.319   0.224   9.843 -0.2086 -2.0276  1.6679
  115MOL0     H15519   1.270   0.278  10.098  1.4959  1.5005  0.3581
  115MOL0     H15520   1.340   0.109  10.056 -0.2023  0.0040  2.3091
  115MOL0     H15521   1.628   0.303  10.291 -0.6845 -2.0022  1.3998
  115MOL0     H15522   1.614   0.666   9.777 -0.1784 -0.2876 -0.1125
  115MOL0     H15523   1.816   0.766   9.760  2.4446  1.3898  0.0187
  115MOL0     H15524   1.908   0.757   9.614  2.5147  3.5141  0.8418
  115MOL0     H15525   1.826   0.912   9.648  2.0581  0.2663 -0.0761
  116MOL0     O15526  10.681   0.908   5.214  0.2349  1.0426  0.2978
  116MOL0     C15527  10.594   0.840   5.265 -0.3476 -0.9121 -0.2086
  116MOL0     O15528  10.609   0.749   5.362  0.0760  0.0710 -0.5106
  116MOL0     C15529  10.698   0.774   5.464  0.3372 -0.8653 -0.1542
  116MOL0     C15530  10.774   0.670   5.508  1.0201 -0.6504 -0.1257
  116MOL0     C15531  10.855   0.682   5.619  0.0486 -0.0375  0.1966
  116MOL0     C15532  10.860   0.794   5.702 -0.1075  0.8770  0.0091
  116MOL0     O15533  10.932   0.765   5.817 -0.0456 -1.0681  0.4477
  116MOL0     C15534  10.979   0.867   5.902 -0.1132 -0.5485 -0.6820
  116MOL0     C15535  11.098   0.819   5.988  0.3235 -0.5483 -0.4332
  116MOL0     C15536  11.073   0.699   6.092 -0.1020 -0.5677  0.3364
  116MOL0     C15537  11.197   0.630   6.147 -0.7195 -0.1548  0.2284
  116MOL0     C15538  11.275   0.538   6.047  0.7989  0.7748 -0.3931
  116MOL0     C15539  11.377   0.466   6.132  0.0010 -0.2959 -0.4118
  116MOL0     C15540  11.454   0.378   6.037  0.2322 -0.0242  0.6615
  116MOL0     C15541  11.575   0.312   6.114  0.3468 -0.3002 -0.1535
  116MOL0     N15542  11.663   0.249   6.024 -0.3589 -0.3541  0.3601
  116MOL0     C15543  11.744   0.307   5.929  0.1945  0.4093 -0.3229
  116MOL0     C15544  11.797   0.206   5.856 -0.9007  0.6341 -0.6768
  116MOL0     C15545  11.874   0.214   5.727  0.5084  0.4082 -0.8932
  116MOL0     C15546  12.025   0.205   5.780  0.6212 -0.8382  0.6778
  116MOL0     C15547  12.106   0.218   5.658 -1.3329  0.0138  0.2264
  116MOL0     C15548  12.259   0.208   5.689  0.0928  0.3027  0.3100
  116MOL0     O15549  12.323   0.185   5.566 -0.1535  0.1922 -0.5158
  116MOL0     C15550  12.438   0.108   5.574 -0.5400 -0.5933  0.0834
  116MOL0     C15551  12.475   0.036   5.457  0.1545  0.1669 -0.3280
  116MOL0     C15552  12.587  -0.058   5.460  0.8196  1.1248 -0.1585
  116MOL0     C15553  12.672  -0.068   5.569  0.3665 -0.4040  0.4038
  116MOL0     C15554  12.780  -0.161   5.564  0.4851  0.5285  0.2938
  116MOL0     O15555  12.885  -0.128   5.641 -0.5790  0.6378 -0.3013
  116MOL0     C15556  12.983  -0.227   5.653  0.7428  0.6244  1.0678
  116MOL0     C15557  12.950  -0.346   5.720 -0.3343  0.0251 -0.9885
  116MOL0     C15558  13.058  -0.436   5.751  0.0686  0.2859  0.1705
  116MOL0     C15559  13.192  -0.409   5.708  0.2407  0.3094 -0.2458
  116MOL0     O15560  13.293  -0.497   5.732  0.0210  0.1669  0.1910
  116MOL0     C15561  13.357  -0.566   5.620  0.3126 -1.0972  0.9539
  116MOL0     C15562  13.482  -0.649   5.674  0.0835  0.2960 -0.2894
  116MOL0     C15563  13.591  -0.557   5.715  1.2319  0.5351  1.4150
  116MOL0     C15564  13.717  -0.626   5.766  0.0601 -0.3115 -0.6935
  116MOL0     C15565  13.702  -0.724   5.881 -0.3867  0.2165 -0.2350
  116MOL0     C15566  13.843  -0.753   5.945 -0.0054  0.6166  0.0799
  116MOL0     C15567  13.827  -0.882   6.029  0.1199 -0.2835 -0.3142
  116MOL0     C15568  13.920  -0.871   6.152  0.5077  0.0730 -0.2191
  116MOL0    Cl15569  14.087  -0.883   6.079  0.0846 -0.0983  0.2702
  116MOL0     C15570  13.215  -0.290   5.631 -0.4162 -0.2177 -0.4050
  116MOL0     C15571  13.108  -0.203   5.598 -0.6460 -0.0116  0.9763
  116MOL0     O15572  12.773  -0.270   5.505  0.7303 -0.3895  0.5523
  116MOL0     C15573  12.637   0.001   5.689 -0.9903  0.0381 -0.2489
  116MOL0     C15574  12.529   0.095   5.686  0.1297  0.8304 -0.0231
  116MOL0     N15575  11.751   0.089   5.916  0.3782  0.2293 -0.4792
  116MOL0     N15576  11.669   0.118   6.010  0.2969 -0.0583  0.0269
  116MOL0     C15577  10.778   0.895   5.666  1.1222 -0.4855 -0.4431
  116MOL0     C15578  10.694   0.878   5.555  0.9104  0.4059  0.2042
  116MOL0     C15579  10.460   0.821   5.197  0.1783  0.7541 -0.8535
  116MOL0     C15580  10.412   0.691   5.190  0.2131  0.9221 -0.2379
  116MOL0     C15581  10.289   0.661   5.126 -0.0192  0.0673 -1.1307
  116MOL0     C15582  10.203   0.770   5.089  0.0606  0.9236 -0.6773
  116MOL0     O15583  10.075   0.757   5.042 -0.2433  0.4652  0.0034
  116MOL0     C15584  10.026   0.627   5.006 -0.6932  0.7855 -0.0998
  116MOL0     C15585   9.914   0.626   4.911  0.1622 -0.2725  0.4329
  116MOL0     C15586   9.947   0.661   4.766 -1.1223  0.1659 -0.0504
  116MOL0     C15587   9.836   0.636   4.659  0.0716 -0.0876  0.0367
  116MOL0     C15588   9.772   0.770   4.634 -0.7035  0.0176  1.0303
  116MOL0     C15589   9.702   0.863   4.591 -0.5104  0.1633 -0.1319
  116MOL0     C15590  10.248   0.902   5.106 -0.4745 -0.4056 -0.0467
  116MOL0     C15591  10.379   0.928   5.153  0.3817  0.6528  0.4753
  116MOL0     C15592  10.423   1.065   5.140  0.0302  0.4659 -0.2536
  116MOL0     H15593  10.764   0.578   5.451 -2.3987 -1.7064  1.9405
  116MOL0     H15594  10.914   0.597   5.652 -1.6629 -1.7265 -0.8932
  116MOL0     H15595  11.000   0.953   5.837 -1.7772  0.4992  0.0928
  116MOL0     H15596  10.898   0.896   5.969  0.2895  1.2038 -0.9079
  116MOL0     H15597  11.129   0.901   6.054 -0.6541 -2.8650  3.2004
  116MOL0     H15598  11.180   0.784   5.925  2.5654  0.8778  1.5177
  116MOL0     H15599  11.030   0.611   6.044 -1.4745  0.4674 -0.3866
  116MOL0     H15600  11.004   0.735   6.169 -0.5592 -3.9235  1.6957
  116MOL0     H15601  11.257   0.713   6.186 -0.2816 -0.4224  0.1362
  116MOL0     H15602  11.175   0.570   6.236 -1.6964  0.4413  0.4054
  116MOL0     H15603  11.206   0.462   6.007 -0.5047  2.1117 -0.7924
  116MOL0     H15604  11.330   0.586   5.966 -0.7463  3.6479  0.1147
  116MOL0     H15605  11.445   0.541   6.175  0.9795 -0.3883 -1.7415
  116MOL0     H15606  11.340   0.400   6.211 -0.4778  1.0141  0.5040
  116MOL0     H15607  11.498   0.432   5.953 -2.9659  0.2818 -0.9780
  116MOL0     H15608  11.381   0.308   5.997 -0.8390 -0.3583  3.0394
  116MOL0     H15609  11.631   0.391   6.164  2.4374 -2.3691  0.9870
  116MOL0     H15610  11.551   0.242   6.194 -2.0335  1.7192  1.0019
  116MOL0     H15611  11.771   0.412   5.918  3.0355 -0.3754 -1.7991
  116MOL0     H15612  11.854   0.127   5.664 -1.8956 -0.5675  1.0628
  116MOL0     H15613  11.849   0.309   5.678  3.6234  0.5480 -2.4920
  116MOL0     H15614  12.044   0.290   5.846 -0.7190  2.1214 -2.4160
  116MOL0     H15615  12.039   0.109   5.830 -4.0686 -1.4975  1.2335
  116MOL0     H15616  12.074   0.300   5.593 -1.3265 -0.8287 -0.8795
  116MOL0     H15617  12.084   0.135   5.590 -0.9368  0.8903 -1.0173
  116MOL0     H15618  12.258   0.114   5.746 -1.9114  1.3298  2.1300
  116MOL0     H15619  12.290   0.289   5.756 -0.4291 -0.8625  2.0259
  116MOL0     H15620  12.415   0.055   5.369 -0.6570 -2.5014 -0.4131
  116MOL0     H15621  12.612  -0.089   5.359 -0.1940 -0.9882  0.1911
  116MOL0     H15622  12.863  -0.365   5.781  1.1100 -2.3489  0.4908
  116MOL0     H15623  13.027  -0.520   5.811 -2.4405  0.4653 -0.7080
  116MOL0     H15624  13.285  -0.633   5.573  2.1516 -1.6349 -1.2940
  116MOL0     H15625  13.383  -0.496   5.540  0.5419 -2.0650  0.1675
  116MOL0     H15626  13.442  -0.715   5.752 -1.3002 -0.8289 -1.8884
  116MOL0     H15627  13.517  -0.714   5.594  0.4248  0.9475 -0.6745
  116MOL0     H15628  13.607  -0.484   5.635 -1.6968 -0.3856 -0.1820
  116MOL0     H15629  13.543  -0.507   5.799 -1.1556  0.1032  0.3923
  116MOL0     H15630  13.773  -0.545   5.814 -0.1316  0.2369 -1.3748
  116MOL0     H15631  13.766  -0.684   5.687 -0.3549 -2.8599  0.7896
  116MOL0     H15632  13.664  -0.817   5.838  2.5031 -2.1741  1.9485
  116MOL0     H15633  13.634  -0.681   5.955 -2.4763  2.6320 -3.2897
  116MOL0     H15634  13.906  -0.794   5.866 -1.7132 -2.4677  0.1608
  116MOL0     H15635  13.891  -0.667   5.992 -1.9282  1.1831  1.1075
  116MOL0     H15636  13.846  -0.976   5.976 -0.0833  0.9895 -2.8239
  116MOL0     H15637  13.727  -0.892   6.074  0.5274  1.7903  1.2122
  116MOL0     H15638  13.903  -0.775   6.202 -3.7630  0.1921 -1.4881
  116MOL0     H15639  13.909  -0.957   6.219 -1.3303  2.2958  2.5557
  116MOL0     H15640  13.318  -0.273   5.602 -1.0857  0.0356 -2.7855
  116MOL0     H15641  13.126  -0.118   5.533  5.8665 -0.7732  1.0379
  116MOL0     H15642  12.714  -0.001   5.766 -2.4749  1.6403  1.3783
  116MOL0     H15643  12.507   0.147   5.779  3.2489  1.0385  0.6886
  116MOL0     H15644  10.777   0.984   5.728 -2.4812 -2.5954  3.0104
  116MOL0     H15645  10.625   0.957   5.526  0.5347  0.1896  0.4927
  116MOL0     H15646  10.476   0.614   5.232  0.6618  1.4781  0.1220
  116MOL0     H15647  10.242   0.564   5.138 -1.9273  1.3031  3.4281
  116MOL0     H15648   9.991   0.570   5.093 -1.3996  1.4405  0.0561
  116MOL0     H15649  10.103   0.564   4.960 -0.1549 -0.0874  1.8685
  116MOL0     H15650   9.827   0.686   4.939  1.0338  1.7709 -0.9967
  116MOL0     H15651   9.868   0.527   4.901 -0.6951  0.3205 -2.4119
  116MOL0     H15652  10.029   0.594   4.737 -2.0418  0.1232 -2.8653
  116MOL0     H15653   9.980   0.765   4.770  1.1273 -0.4393 -1.3726
  116MOL0     H15654   9.874   0.585   4.570 -1.5969  0.9417 -1.3349
  116MOL0     H15655   9.755   0.575   4.700  0.6715  1.5987  4.1740
  116MOL0     H15656   9.639   0.942   4.555 -1.5175 -1.6572 -2.5804
  116MOL0     H15657  10.171   0.977   5.091 -1.0807 -1.0177 -0.0511
  116MOL0     H15658  10.344   1.127   5.097 -1.5058 -0.2305  1.4345
  116MOL0     H15659  10.442   1.104   5.240  1.3152  0.8172 -0.6126
  116MOL0     H15660  10.510   1.084   5.075 -1.3708  2.2795 -1.7066
  117MOL0     O15661   3.687   2.950   7.127 -0.0711 -0.7036 -0.1944
  117MOL0     C15662   3.720   3.012   7.021  0.0141  0.2473 -1.2473
  117MOL0     O15663   3.833   3.086   7.007  0.7468  0.4548  0.8616
  117MOL0     C15664   3.953   3.037   7.050  0.2582  0.3996  0.1845
  117MOL0     C15665   4.066   3.112   7.021  0.0813 -0.6389 -0.1336
  117MOL0     C15666   4.194   3.065   7.051 -1.3867  0.4351 -0.2552
  117MOL0     C15667   4.218   2.945   7.113  0.1449 -0.2367 -0.6597
  117MOL0     O15668   4.346   2.916   7.148 -1.2030 -0.0487 -0.0952
  117MOL0     C15669   4.398   2.785   7.137  0.2225  0.3334 -0.0575
  117MOL0     C15670   4.525   2.770   7.216 -0.7201  1.2380 -0.2609
  117MOL0     C15671   4.519   2.850   7.353  0.9808 -0.2626  0.5570
  117MOL0     C15672   4.656   2.850   7.412  0.2072  0.1892 -1.0626
  117MOL0     C15673   4.647   2.910   7.551  0.7614 -0.5602 -0.1317
  117MOL0     C15674   4.768   2.881   7.636  0.8939  0.6789 -0.4411
  117MOL0     C15675   4.896   2.947   7.580  0.2268  0.8166  0.0366
  117MOL0     C15676   5.021   2.916   7.656 -0.2067 -0.2942 -0.7025
  117MOL0     N15677   5.067   2.777   7.672 -0.0542 -0.1105 -0.0440
  117MOL0     C15678   5.043   2.676   7.577 -0.1895  0.3011  0.2783
  117MOL0     C15679   5.147   2.587   7.591  0.7245 -0.5848 -0.5233
  117MOL0     C15680   5.159   2.475   7.506  0.2250  0.0168  0.3272
  117MOL0     C15681   5.249   2.355   7.548  0.1608 -0.1127  0.4101
  117MOL0     C15682   5.404   2.393   7.557  0.0849 -0.6403  0.0526
  117MOL0     C15683   5.482   2.266   7.574 -0.3681  0.2021  0.4123
  117MOL0     O15684   5.606   2.279   7.503  0.1155 -0.4562 -0.5013
  117MOL0     C15685   5.706   2.199   7.557 -0.4046  0.5859  0.6280
  117MOL0     C15686   5.829   2.249   7.531 -0.4189 -0.5701 -0.5827
  117MOL0     C15687   5.952   2.174   7.564 -0.2936  0.1588 -0.4287
  117MOL0     C15688   5.944   2.048   7.619 -0.0113  0.0171  0.2290
  117MOL0     C15689   6.061   1.967   7.647  0.1108  0.0441  0.0344
  117MOL0     O15690   6.179   2.032   7.649 -0.1766 -0.3044  0.4654
  117MOL0     C15691   6.289   1.960   7.690  0.1600  0.7110 -0.5310
  117MOL0     C15692   6.405   1.963   7.614 -0.3903  0.0848 -0.5477
  117MOL0     C15693   6.531   1.914   7.653  0.9999 -0.0553 -0.1499
  117MOL0     C15694   6.545   1.842   7.766  0.5885  0.5556 -0.3900
  117MOL0     O15695   6.673   1.801   7.797 -0.1586  0.2762  0.2072
  117MOL0     C15696   6.700   1.735   7.927 -0.2208 -0.3525 -0.2367
  117MOL0     C15697   6.840   1.672   7.942  0.0273 -0.0702 -0.1562
  117MOL0     C15698   6.946   1.777   7.939 -0.2090  0.0395 -1.1408
  117MOL0     C15699   7.087   1.721   7.977  1.5640  0.1005  0.2250
  117MOL0     C15700   7.193   1.826   7.974 -0.2158 -0.1856 -0.1306
  117MOL0     C15701   7.333   1.771   8.000  0.6663 -0.1336  0.4061
  117MOL0     C15702   7.368   1.667   7.888 -0.5935 -0.5915  0.5011
  117MOL0     C15703   7.494   1.585   7.914  0.6664  0.5348 -0.3210
  117MOL0    Cl15704   7.621   1.688   7.855 -0.6124 -0.2416  0.1964
  117MOL0     C15705   6.434   1.833   7.849  0.0527 -0.0656  0.1781
  117MOL0     C15706   6.307   1.886   7.810  0.6864 -0.6506  0.2676
  117MOL0     O15707   6.047   1.845   7.647  0.2588  0.7034 -0.5583
  117MOL0     C15708   5.813   1.997   7.636  0.6007  0.0231  0.5179
  117MOL0     C15709   5.698   2.072   7.604  0.1106  0.3584 -1.1263
  117MOL0     N15710   5.239   2.647   7.680 -0.3407 -0.2826 -0.0665
  117MOL0     N15711   5.194   2.755   7.727  0.9296  0.5881  0.5415
  117MOL0     C15712   4.106   2.867   7.147  0.8147  0.4315 -0.0125
  117MOL0     C15713   3.982   2.910   7.110 -0.1389 -0.0178  0.0879
  117MOL0     C15714   3.605   3.016   6.922 -0.0744 -0.0359 -0.1123
  117MOL0     C15715   3.479   3.033   6.968  0.3862  0.4245 -0.1075
  117MOL0     C15716   3.372   3.051   6.878  0.5914 -0.5109  0.3793
  117MOL0     C15717   3.389   3.060   6.745 -1.0298 -0.1614  0.1938
  117MOL0     O15718   3.285   3.066   6.655 -1.2198 -0.2204  0.2367
  117MOL0     C15719   3.231   3.197   6.638  0.1591  0.8247 -0.4468
  117MOL0     C15720   3.097   3.180   6.581  0.9552  0.2892 -0.4165
  117MOL0     C15721   3.007   3.088   6.680  0.4062  0.4662  0.2593
  117MOL0     C15722   2.872   3.048   6.610 -0.1005 -0.2758  0.5527
  117MOL0     C15723   2.780   3.162   6.607  0.1965  0.4437 -0.0928
  117MOL0     C15724   2.689   3.242   6.578 -1.1251  0.2926  0.0249
  117MOL0     C15725   3.516   3.041   6.703 -0.4642  0.6370  0.1096
  117MOL0     C15726   3.632   3.015   6.780  0.6615  0.6123 -0.0144
  117MOL0     C15727   3.772   2.998   6.726  0.4274 -0.4272 -0.6015
  117MOL0     H15728   4.059   3.202   6.961  0.1216  0.3554  1.3055
  117MOL0     H15729   4.277   3.118   7.006  0.0486 -1.8893 -0.5506
  117MOL0     H15730   4.327   2.725   7.196 -2.1965  0.2425 -2.8302
  117MOL0     H15731   4.413   2.747   7.036 -0.0512 -1.6078  0.5856
  117MOL0     H15732   4.605   2.815   7.156 -1.8270 -0.4961 -3.2301
  117MOL0     H15733   4.552   2.665   7.227 -2.0126  0.6198 -2.5299
  117MOL0     H15734   4.444   2.795   7.411  1.0208 -2.1748 -1.0895
  117MOL0     H15735   4.482   2.952   7.342 -0.8981 -0.7035  2.0690
  117MOL0     H15736   4.694   2.749   7.431  2.1984  1.0199 -0.3469
  117MOL0     H15737   4.727   2.901   7.347  1.1353 -0.3467 -0.4991
  117MOL0     H15738   4.631   3.018   7.544 -1.4998 -0.8054  0.5498
  117MOL0     H15739   4.554   2.873   7.595  0.8198 -2.2981 -1.3848
  117MOL0     H15740   4.755   2.912   7.739 -0.6975 -0.3822 -0.2859
  117MOL0     H15741   4.787   2.773   7.646 -1.2259  0.1566 -1.5656
  117MOL0     H15742   4.880   3.055   7.590  1.6864  1.0047  0.5749
  117MOL0     H15743   4.912   2.913   7.477  0.7045  1.0860  0.0143
  117MOL0     H15744   5.111   2.966   7.619  0.3701 -1.3985 -0.8408
  117MOL0     H15745   4.997   2.953   7.756 -2.1925 -0.6772 -0.9968
  117MOL0     H15746   4.969   2.659   7.500  0.8687  2.1185 -1.2268
  117MOL0     H15747   5.059   2.432   7.492  1.6463 -3.0715 -1.2486
  117MOL0     H15748   5.197   2.516   7.413 -1.1062  0.9984  0.1763
  117MOL0     H15749   5.224   2.328   7.651 -0.8048  1.3518  0.5799
  117MOL0     H15750   5.243   2.273   7.476 -1.4811 -0.4145  0.8641
  117MOL0     H15751   5.426   2.457   7.643 -1.1387 -0.7193  0.4359
  117MOL0     H15752   5.419   2.449   7.464 -2.2501 -0.5302 -0.3073
  117MOL0     H15753   5.434   2.187   7.516  1.5826  0.5080 -1.7592
  117MOL0     H15754   5.485   2.228   7.677  1.4280 -1.0387 -0.0556
  117MOL0     H15755   5.827   2.350   7.492 -0.8676 -0.6787 -0.8392
  117MOL0     H15756   6.048   2.220   7.543 -0.6377  0.2257 -1.9436
  117MOL0     H15757   6.385   2.028   7.529 -2.9059  1.4635  0.9893
  117MOL0     H15758   6.613   1.935   7.586  1.1574 -1.9918 -0.5976
  117MOL0     H15759   6.687   1.803   8.011 -1.2429 -0.4337 -0.3156
  117MOL0     H15760   6.626   1.656   7.938 -0.5084 -0.0547 -0.0192
  117MOL0     H15761   6.826   1.639   8.045 -2.3504  0.6747 -0.1762
  117MOL0     H15762   6.858   1.592   7.869  2.1990 -1.8915  2.2077
  117MOL0     H15763   6.954   1.826   7.842  0.2588  3.8286  0.6528
  117MOL0     H15764   6.921   1.847   8.019 -2.2787 -1.2723 -0.5645
  117MOL0     H15765   7.112   1.646   7.901 -2.3341 -0.8091 -0.4011
  117MOL0     H15766   7.078   1.672   8.074  1.7324  0.2246  0.3037
  117MOL0     H15767   7.170   1.894   8.056  0.0887 -1.8965  1.4470
  117MOL0     H15768   7.197   1.875   7.876 -0.7423 -1.2166 -0.6882
  117MOL0     H15769   7.391   1.864   8.000 -0.2286  0.4709 -1.1740
  117MOL0     H15770   7.341   1.727   8.100 -3.2069 -0.8670  0.5403
  117MOL0     H15771   7.370   1.714   7.789 -1.4735  1.4633  1.3932
  117MOL0     H15772   7.303   1.580   7.880  4.1806 -4.4324 -2.6396
  117MOL0     H15773   7.510   1.561   8.019  1.2407 -2.4219 -0.9850
  117MOL0     H15774   7.496   1.490   7.859 -0.8158  0.5546 -0.4494
  117MOL0     H15775   6.427   1.782   7.945 -0.1807  2.5656  1.6596
  117MOL0     H15776   6.222   1.872   7.876 -0.7323  0.3048 -1.2695
  117MOL0     H15777   5.800   1.892   7.661 -2.1723 -0.0176 -0.7805
  117MOL0     H15778   5.600   2.025   7.617 -0.5038  2.2533  2.3936
  117MOL0     H15779   4.105   2.771   7.197 -3.2855  0.8855  1.1932
  117MOL0     H15780   3.899   2.849   7.143 -2.1316  2.9333  0.9656
  117MOL0     H15781   3.461   3.035   7.075 -1.9291  4.8361 -0.3575
  117MOL0     H15782   3.269   3.056   6.913  0.1278  0.5085 -1.0343
  117MOL0     H15783   3.295   3.250   6.567  2.0920 -2.2174 -1.1509
  117MOL0     H15784   3.230   3.249   6.734  2.7947  3.1744 -1.5471
  117MOL0     H15785   3.103   3.128   6.485 -0.0361  2.1140 -1.5110
  117MOL0     H15786   3.048   3.276   6.561 -0.4335 -0.0061  1.3426
  117MOL0     H15787   2.972   3.142   6.768 -0.1936 -0.3160  0.5088
  117MOL0     H15788   3.052   2.990   6.701 -4.3161 -1.0276  5.9095
  117MOL0     H15789   2.882   3.027   6.503  0.9353  1.4977  0.2700
  117MOL0     H15790   2.814   2.970   6.661 -3.3725  1.6086 -0.0258
  117MOL0     H15791   2.610   3.312   6.562 -1.1144  0.4092  0.4720
  117MOL0     H15792   3.542   3.042   6.598 -1.1148  1.2054 -0.0531
  117MOL0     H15793   3.757   2.950   6.629 -2.0424  1.3207 -1.1995
  117MOL0     H15794   3.824   3.093   6.710 -0.1372 -0.2134 -1.2175
  117MOL0     H15795   3.840   2.936   6.785  0.5268  2.2413  2.3288
  118MOL0     O15796   4.030   1.730   8.810  0.4016  0.0794  0.2081
  118MOL0     C15797   3.950   1.777   8.729  0.1990 -0.7023 -0.3269
  118MOL0     O15798   3.984   1.880   8.649 -0.2052  0.3403  0.2345
  118MOL0     C15799   4.123   1.905   8.635 -0.6493 -0.8699  0.4465
  118MOL0     C15800   4.224   1.812   8.608 -0.0580  0.3918  0.8260
  118MOL0     C15801   4.357   1.854   8.594 -0.2337 -0.1977 -0.1462
  118MOL0     C15802   4.385   1.989   8.591  0.2605 -0.2518 -0.2658
  118MOL0     O15803   4.515   2.021   8.570 -0.7064  0.1610 -0.0529
  118MOL0     C15804   4.587   2.041   8.696 -0.1433 -0.4475 -0.7477
  118MOL0     C15805   4.729   2.074   8.660 -0.1841 -0.0485  0.1233
  118MOL0     C15806   4.811   1.960   8.595 -0.0041 -0.2590  0.3099
  118MOL0     C15807   4.823   1.833   8.676 -0.4188  0.1482  1.0553
  118MOL0     C15808   4.898   1.722   8.601 -0.8420  0.6592 -0.5660
  118MOL0     C15809   5.045   1.760   8.571 -0.4653 -0.3167 -0.1104
  118MOL0     C15810   5.142   1.638   8.572  0.8972  0.3635  0.0569
  118MOL0     C15811   5.276   1.658   8.501 -0.1170  0.1034  0.4932
  118MOL0     N15812   5.364   1.546   8.539 -0.7344  0.3429  1.5025
  118MOL0     C15813   5.446   1.533   8.649  1.1462  0.1628 -0.7190
  118MOL0     C15814   5.527   1.425   8.622 -0.0147 -0.8709 -0.3111
  118MOL0     C15815   5.644   1.383   8.709 -0.0962  0.9035 -0.3932
  118MOL0     C15816   5.668   1.234   8.686 -0.3564 -0.2359  0.3668
  118MOL0     C15817   5.562   1.151   8.756  0.4736 -0.3594  0.2361
  118MOL0     C15818   5.545   0.996   8.718  0.0684 -0.5283  0.1791
  118MOL0     O15819   5.413   0.941   8.753 -0.0740 -0.2586  0.2862
  118MOL0     C15820   5.320   0.949   8.656  0.4677 -0.0406  0.0142
  118MOL0     C15821   5.192   0.899   8.684 -0.2877 -1.4878 -0.7258
  118MOL0     C15822   5.082   0.921   8.605  0.3841 -0.2297 -0.4741
  118MOL0     C15823   5.097   0.987   8.482  0.7404 -0.2938 -0.0420
  118MOL0     C15824   4.977   1.019   8.393  0.0627 -0.6237 -0.1815
  118MOL0     O15825   4.859   0.962   8.440 -0.6394 -0.1092 -0.4491
  118MOL0     C15826   4.733   0.974   8.378 -1.4647 -0.4896  0.4839
  118MOL0     C15827   4.634   0.873   8.404 -0.4189 -0.6435 -0.0089
  118MOL0     C15828   4.503   0.889   8.378  0.0319 -0.2709 -0.9752
  118MOL0     C15829   4.455   1.003   8.307 -0.1717 -0.2637 -0.3033
  118MOL0     O15830   4.330   1.036   8.280  0.5560  0.2499 -0.0505
  118MOL0     C15831   4.231   0.996   8.379  0.2113 -0.5407 -0.1097
  118MOL0     C15832   4.105   1.074   8.365 -0.1168 -0.3030 -0.2823
  118MOL0     C15833   4.055   1.096   8.223 -0.5840 -0.0815 -0.0644
  118MOL0     C15834   3.916   1.168   8.208 -0.1907  0.0002  0.6964
  118MOL0     C15835   3.906   1.231   8.068 -0.2025 -0.0877  0.3818
  118MOL0     C15836   3.776   1.304   8.048  0.2336  0.7514 -0.3601
  118MOL0     C15837   3.799   1.441   7.981 -0.0020  0.7015  0.5862
  118MOL0     C15838   3.676   1.519   7.992  0.8231 -0.4594 -0.0792
  118MOL0    Cl15839   3.558   1.467   7.870 -0.2783  0.1873 -0.0377
  118MOL0     C15840   4.555   1.087   8.267  0.7590 -0.0066  0.9209
  118MOL0     C15841   4.691   1.069   8.289 -0.9258 -0.1073 -0.7860
  118MOL0     O15842   4.997   1.078   8.287 -0.2752 -0.6725 -0.0737
  118MOL0     C15843   5.224   1.038   8.449 -0.1064 -0.5442 -0.9789
  118MOL0     C15844   5.329   1.024   8.535  0.0168  0.9790  0.3233
  118MOL0     N15845   5.485   1.377   8.497 -0.4321  0.9350 -0.3061
  118MOL0     N15846   5.389   1.439   8.451  0.3038 -0.2922  0.2557
  118MOL0     C15847   4.281   2.086   8.583 -0.6940  0.3450  0.2621
  118MOL0     C15848   4.150   2.048   8.610 -1.4718 -0.1857  0.3225
  118MOL0     C15849   3.817   1.713   8.723  0.1651 -0.0472  0.5243
  118MOL0     C15850   3.807   1.576   8.750 -1.3693  0.0223 -0.2601
  118MOL0     C15851   3.680   1.510   8.737  0.3096  0.1513  0.7852
  118MOL0     C15852   3.567   1.577   8.683 -1.0842 -0.1650  0.2537
  118MOL0     O15853   3.444   1.512   8.690  0.1136 -0.6305  0.3648
  118MOL0     C15854   3.329   1.593   8.677  0.4799  0.2752 -0.3646
  118MOL0     C15855   3.227   1.487   8.649  0.3182 -0.8951 -0.8638
  118MOL0     C15856   3.096   1.541   8.607 -0.1399  0.3849 -0.4018
  118MOL0     C15857   3.024   1.601   8.735 -1.6734 -1.5865  0.6274
  118MOL0     C15858   2.978   1.511   8.841 -1.3500  0.4187  0.6491
  118MOL0     C15859   2.931   1.440   8.918  0.0001 -0.7951  0.2581
  118MOL0     C15860   3.586   1.707   8.653  0.0369 -0.1187 -0.0687
  118MOL0     C15861   3.706   1.785   8.679  0.2122 -0.3038 -0.2309
  118MOL0     C15862   3.707   1.930   8.640 -0.0335  0.5639 -0.9830
  118MOL0     H15863   4.190   1.709   8.598 -1.7451  1.0536 -0.9959
  118MOL0     H15864   4.443   1.788   8.600 -1.6791 -2.0443  2.0050
  118MOL0     H15865   4.536   2.125   8.745 -0.5527 -0.9758 -0.2540
  118MOL0     H15866   4.585   1.961   8.771 -0.9092  1.2454  1.1212
  118MOL0     H15867   4.787   2.086   8.752  1.7220 -1.2264 -0.8410
  118MOL0     H15868   4.731   2.164   8.597 -1.5783 -0.3433 -0.3795
  118MOL0     H15869   4.906   2.002   8.561 -0.4677  0.8367  0.3083
  118MOL0     H15870   4.780   1.925   8.496  3.3208 -2.4890 -0.1231
  118MOL0     H15871   4.858   1.870   8.772  2.4784 -1.1136  0.5838
  118MOL0     H15872   4.724   1.788   8.689 -0.2396 -1.6645 -2.6304
  118MOL0     H15873   4.904   1.633   8.664  4.9330 -0.0266 -1.4902
  118MOL0     H15874   4.846   1.696   8.508 -0.1590  2.9626 -1.6776
  118MOL0     H15875   5.048   1.821   8.480  3.7009  1.4309  0.9674
  118MOL0     H15876   5.085   1.824   8.650  1.2212 -1.4944  0.0342
  118MOL0     H15877   5.105   1.551   8.517  2.0929 -0.7202  0.8997
  118MOL0     H15878   5.151   1.603   8.675 -0.8078 -1.2310 -0.2884
  118MOL0     H15879   5.258   1.672   8.394  0.6241  1.5690  0.5300
  118MOL0     H15880   5.310   1.755   8.538  2.3241  0.8223 -3.0213
  118MOL0     H15881   5.452   1.597   8.737  0.2505 -1.8862  0.9366
  118MOL0     H15882   5.732   1.445   8.692  0.3347  0.1007 -1.1311
  118MOL0     H15883   5.632   1.406   8.815  3.8542 -1.3169  0.7206
  118MOL0     H15884   5.673   1.222   8.578  1.8101  0.2620  0.3675
  118MOL0     H15885   5.767   1.215   8.730 -0.2863 -2.6527 -0.6769
  118MOL0     H15886   5.459   1.184   8.740  0.4124 -0.6861 -0.0594
  118MOL0     H15887   5.587   1.160   8.862  3.1317  0.2815 -0.3797
  118MOL0     H15888   5.622   0.941   8.774  1.4314  0.5291 -0.5903
  118MOL0     H15889   5.572   0.961   8.618  1.2332 -0.5871  0.4941
  118MOL0     H15890   5.166   0.840   8.771 -0.1495 -0.7588 -0.1804
  118MOL0     H15891   4.984   0.888   8.639  0.9960 -0.7532  0.8202
  118MOL0     H15892   4.662   0.791   8.470  1.7045  0.7159  0.8749
  118MOL0     H15893   4.425   0.825   8.419  0.5536 -0.8362 -0.8666
  118MOL0     H15894   4.214   0.888   8.375  0.0221 -0.5803  1.3741
  118MOL0     H15895   4.265   1.024   8.479 -0.8071 -1.3161  0.4680
  118MOL0     H15896   4.031   1.019   8.424  0.4412 -1.3003 -0.4809
  118MOL0     H15897   4.111   1.174   8.408 -2.8245  0.9459 -2.5120
  118MOL0     H15898   4.137   1.150   8.176  0.4121 -1.8760 -0.4920
  118MOL0     H15899   4.048   1.001   8.169  0.4574 -1.1014  1.5064
  118MOL0     H15900   3.901   1.250   8.278 -0.3657  0.7691 -0.2188
  118MOL0     H15901   3.833   1.097   8.222 -0.3860  0.1148  0.1498
  118MOL0     H15902   3.930   1.149   7.999  0.1701  0.4103 -0.0977
  118MOL0     H15903   3.981   1.305   8.038 -1.7502  0.8050 -1.5844
  118MOL0     H15904   3.708   1.253   7.979  0.7523 -0.3607 -0.0683
  118MOL0     H15905   3.729   1.323   8.146 -1.2083 -0.8618 -0.6785
  118MOL0     H15906   3.819   1.436   7.873 -1.2582  2.1040  0.2541
  118MOL0     H15907   3.878   1.492   8.037  0.9432  0.7368 -0.7215
  118MOL0     H15908   3.628   1.516   8.090  2.7514 -0.1762  0.9228
  118MOL0     H15909   3.693   1.626   7.984  0.3077 -0.4952 -2.1781
  118MOL0     H15910   4.526   1.174   8.208 -1.6430  2.6936  5.4917
  118MOL0     H15911   4.761   1.147   8.260  0.8589 -1.7258 -1.1178
  118MOL0     H15912   5.226   1.095   8.356 -2.8774 -0.5661 -1.1503
  118MOL0     H15913   5.419   1.082   8.515  1.8567 -2.0410 -0.8439
  118MOL0     H15914   4.312   2.189   8.569  0.8548 -0.1778 -0.3330
  118MOL0     H15915   4.062   2.109   8.628 -3.1207 -1.9759 -1.2570
  118MOL0     H15916   3.903   1.533   8.777  1.3771  5.0117 -0.9261
  118MOL0     H15917   3.678   1.406   8.769  1.1575 -1.3834 -3.5033
  118MOL0     H15918   3.355   1.667   8.600  3.1923  1.7149  1.7516
  118MOL0     H15919   3.298   1.651   8.764 -3.9449 -1.4015 -0.5277
  118MOL0     H15920   3.211   1.418   8.733 -3.1962 -0.1336 -0.7917
  118MOL0     H15921   3.261   1.423   8.567 -0.3912 -0.8285 -1.2120
  118MOL0     H15922   3.032   1.472   8.551 -1.9637 -1.1749  3.2181
  118MOL0     H15923   3.115   1.626   8.541  0.7595 -0.5105 -1.3195
  118MOL0     H15924   3.091   1.676   8.778 -1.0974 -0.8821 -1.3952
  118MOL0     H15925   2.933   1.653   8.704 -1.7841  0.4125  3.8030
  118MOL0     H15926   2.886   1.372   8.988 -1.3788 -2.3770 -2.0432
  118MOL0     H15927   3.512   1.779   8.619  1.7455  1.9074  0.2700
  118MOL0     H15928   3.609   1.969   8.613 -1.0090 -1.8486 -1.2039
  118MOL0     H15929   3.735   1.985   8.731 -1.2553  0.6224 -0.6204
  118MOL0     H15930   3.774   1.951   8.557 -2.8929 -3.1461 -4.6492
  119MOL0     O15931  10.991   0.374   3.777  0.1673 -0.3199  0.9341
  119MOL0     C15932  10.922   0.289   3.837 -0.1266  0.0609  0.2238
  119MOL0     O15933  10.972   0.182   3.908  0.4025 -0.4327  0.4056
  119MOL0     C15934  11.099   0.135   3.885 -1.2340 -0.1591  0.9176
  119MOL0     C15935  11.182   0.159   3.778 -0.2884  0.0996 -0.0120
  119MOL0     C15936  11.310   0.104   3.767 -0.6693  0.6452 -0.1062
  119MOL0     C15937  11.358   0.015   3.868 -0.1352 -0.0223 -0.3813
  119MOL0     O15938  11.485  -0.043   3.869 -0.1225 -0.3184  0.1974
  119MOL0     C15939  11.516  -0.098   3.734 -0.2923 -0.3926  0.1457
  119MOL0     C15940  11.629  -0.204   3.746 -0.1928  0.8881 -0.4534
  119MOL0     C15941  11.651  -0.277   3.614 -0.8544 -0.9093  0.3838
  119MOL0     C15942  11.743  -0.401   3.636  1.0466 -0.1566 -1.2453
  119MOL0     C15943  11.754  -0.489   3.512  0.5402  0.0648 -0.4923
  119MOL0     C15944  11.620  -0.566   3.509  0.2208  0.1654 -0.6864
  119MOL0     C15945  11.637  -0.692   3.414  0.2744 -0.5427  0.2540
  119MOL0     C15946  11.502  -0.775   3.414  1.0250 -0.6755 -0.2327
  119MOL0     N15947  11.504  -0.912   3.358  0.4477  0.0875  0.7327
  119MOL0     C15948  11.605  -0.966   3.274  0.7220 -0.5098 -0.5486
  119MOL0     C15949  11.549  -1.072   3.223  0.0110  0.0476 -0.5226
  119MOL0     C15950  11.634  -1.175   3.139 -0.0881 -1.0247 -1.6985
  119MOL0     C15951  11.781  -1.190   3.189  0.0145 -0.0323  0.0268
  119MOL0     C15952  11.858  -1.260   3.083  0.4382  0.2137  0.0629
  119MOL0     C15953  11.988  -1.312   3.151 -0.0052  0.0212  0.4132
  119MOL0     O15954  12.088  -1.335   3.052 -0.0749 -0.6311  0.0431
  119MOL0     C15955  12.222  -1.345   3.094 -0.3835  0.2132  0.5143
  119MOL0     C15956  12.287  -1.472   3.088 -0.1972 -0.4334  0.2580
  119MOL0     C15957  12.417  -1.488   3.136  0.7459  0.0875  0.0937
  119MOL0     C15958  12.498  -1.384   3.185  1.4740  0.5849  0.2000
  119MOL0     C15959  12.634  -1.409   3.224  0.2329 -0.0145 -0.1390
  119MOL0     O15960  12.706  -1.501   3.150 -0.6828  0.1697 -0.4877
  119MOL0     C15961  12.843  -1.507   3.173 -0.2472 -0.6798  0.7368
  119MOL0     C15962  12.887  -1.634   3.181  0.3110 -0.4474  0.4930
  119MOL0     C15963  13.024  -1.667   3.193 -0.4294 -0.3021  0.0868
  119MOL0     C15964  13.116  -1.563   3.187 -0.4817  0.5123 -0.2422
  119MOL0     O15965  13.258  -1.584   3.197 -0.1805 -0.1021  0.3726
  119MOL0     C15966  13.311  -1.698   3.124  0.1496 -0.0286 -0.7641
  119MOL0     C15967  13.465  -1.700   3.101  0.3675 -0.0450 -0.6461
  119MOL0     C15968  13.546  -1.692   3.226  0.5549  0.6155 -0.7213
  119MOL0     C15969  13.679  -1.614   3.210 -0.3193  0.2416  0.0559
  119MOL0     C15970  13.751  -1.607   3.346 -0.4641  1.3410  0.4171
  119MOL0     C15971  13.690  -1.488   3.421  0.4467 -0.1200  0.1031
  119MOL0     C15972  13.716  -1.352   3.371  0.4246 -0.6390 -0.6789
  119MOL0     C15973  13.687  -1.237   3.478 -0.1404 -0.0891  0.0343
  119MOL0    Cl15974  13.794  -1.242   3.617 -0.2122  0.2715  0.7560
  119MOL0     C15975  13.067  -1.432   3.188 -0.1732  0.7916  0.3234
  119MOL0     C15976  12.931  -1.399   3.174  0.5833  0.3185 -0.6109
  119MOL0     O15977  12.674  -1.350   3.322 -0.2646 -0.5447  0.5867
  119MOL0     C15978  12.437  -1.262   3.200  0.5470  0.0238 -0.4135
  119MOL0     C15979  12.302  -1.241   3.152  0.3453  0.1772 -0.2448
  119MOL0     N15980  11.417  -1.083   3.261 -0.3629  0.9046  0.3657
  119MOL0     N15981  11.395  -0.994   3.355 -0.3119  0.3628  0.3286
  119MOL0     C15982  11.283  -0.014   3.978 -0.3335 -0.1079  0.3179
  119MOL0     C15983  11.156   0.051   3.983 -0.2824 -0.1736 -0.6452
  119MOL0     C15984  10.767   0.276   3.819  0.0343  0.3683  0.6534
  119MOL0     C15985  10.693   0.160   3.862  0.3380 -0.8846 -0.7620
  119MOL0     C15986  10.554   0.156   3.865 -0.0906  0.0878 -0.6806
  119MOL0     C15987  10.478   0.257   3.817  0.3031 -0.3117  0.3711
  119MOL0     O15988  10.343   0.243   3.820  0.0674 -0.0527  0.4729
  119MOL0     C15989  10.271   0.352   3.758  0.8348 -0.3774  0.6121
  119MOL0     C15990  10.114   0.335   3.788  0.0800  0.6882 -0.2863
  119MOL0     C15991  10.016   0.393   3.680  0.1794 -0.7927 -0.3718
  119MOL0     C15992   9.885   0.427   3.756 -0.0174  0.1790  0.5159
  119MOL0     C15993   9.786   0.504   3.677 -0.5643 -0.4357  0.7346
  119MOL0     C15994   9.708   0.575   3.619  1.1442 -0.0390  0.0977
  119MOL0     C15995  10.544   0.372   3.771 -0.2467  0.4508  0.2440
  119MOL0     C15996  10.683   0.381   3.776  0.0169 -0.3178  0.2537
  119MOL0     C15997  10.735   0.506   3.713 -0.6040  0.2080  0.1510
  119MOL0     H15998  11.158   0.231   3.701  2.7885 -0.2935 -1.4841
  119MOL0     H15999  11.365   0.146   3.683 -3.6991  3.2277 -1.0018
  119MOL0     H16000  11.431  -0.150   3.687 -0.2063 -0.9440  0.5807
  119MOL0     H16001  11.557  -0.024   3.665 -1.3007 -0.7017 -0.8266
  119MOL0     H16002  11.597  -0.281   3.817  1.7637  0.8764  0.4755
  119MOL0     H16003  11.720  -0.159   3.786  0.2509 -1.0670  0.8579
  119MOL0     H16004  11.720  -0.216   3.555  1.6609 -3.6050  0.2740
  119MOL0     H16005  11.558  -0.284   3.556 -0.5010 -1.2601 -0.1515
  119MOL0     H16006  11.841  -0.354   3.645  0.6752  0.5184 -0.5978
  119MOL0     H16007  11.734  -0.456   3.730 -2.4516  1.0000 -0.7608
  119MOL0     H16008  11.755  -0.426   3.422 -4.4843  0.4545 -0.6030
  119MOL0     H16009  11.842  -0.554   3.511  0.7192  0.2840 -1.8871
  119MOL0     H16010  11.598  -0.603   3.609 -3.7289  1.5918 -0.8391
  119MOL0     H16011  11.542  -0.493   3.484  0.1009  1.1691  2.2146
  119MOL0     H16012  11.721  -0.745   3.458  0.3493 -1.2042 -0.6598
  119MOL0     H16013  11.657  -0.669   3.308  2.2109  0.2351  0.7405
  119MOL0     H16014  11.474  -0.787   3.519 -1.3381 -3.4603 -1.0453
  119MOL0     H16015  11.424  -0.710   3.372  0.6832 -0.6814  0.3884
  119MOL0     H16016  11.707  -0.933   3.256  0.0163  1.5670 -1.0281
  119MOL0     H16017  11.576  -1.266   3.153  1.8408 -2.2557 -1.3902
  119MOL0     H16018  11.631  -1.147   3.033 -0.9384  1.3354 -1.1333
  119MOL0     H16019  11.835  -1.095   3.198 -0.7959  0.3055  1.8681
  119MOL0     H16020  11.788  -1.247   3.282  1.8274 -0.5537 -0.3987
  119MOL0     H16021  11.878  -1.188   3.003 -2.8290  1.3957  0.1227
  119MOL0     H16022  11.801  -1.347   3.049  0.6275 -0.3426  1.1211
  119MOL0     H16023  11.970  -1.405   3.206  0.4202 -0.8075 -0.8151
  119MOL0     H16024  12.032  -1.237   3.218  1.7939 -1.7285  1.3180
  119MOL0     H16025  12.224  -1.552   3.052  1.7267 -2.3807  0.9575
  119MOL0     H16026  12.467  -1.583   3.120  0.2652  0.0175 -1.0788
  119MOL0     H16027  12.811  -1.712   3.181  0.1511 -0.3298 -1.4066
  119MOL0     H16028  13.059  -1.769   3.190  1.9541  0.4431  0.5877
  119MOL0     H16029  13.294  -1.791   3.179  2.0125 -0.8824 -1.5160
  119MOL0     H16030  13.264  -1.702   3.026  2.0489 -0.6247 -1.7006
  119MOL0     H16031  13.488  -1.795   3.053 -1.9359 -0.4743 -0.9766
  119MOL0     H16032  13.484  -1.619   3.030 -1.6328  0.2911 -0.8471
  119MOL0     H16033  13.491  -1.639   3.304 -0.4171  2.2338 -2.4361
  119MOL0     H16034  13.569  -1.789   3.271 -0.3575  0.9798  0.5510
  119MOL0     H16035  13.659  -1.514   3.171 -0.6782  0.9348  1.9041
  119MOL0     H16036  13.746  -1.667   3.142  0.6700  1.2036  0.2531
  119MOL0     H16037  13.856  -1.581   3.328 -0.5738  0.3214 -2.2439
  119MOL0     H16038  13.749  -1.693   3.413 -0.2882  0.2362 -0.9375
  119MOL0     H16039  13.582  -1.499   3.436 -0.1833  2.7924 -1.6146
  119MOL0     H16040  13.737  -1.488   3.520  0.4491  2.3915  0.1675
  119MOL0     H16041  13.646  -1.347   3.287  1.1692 -1.0769 -1.3364
  119MOL0     H16042  13.813  -1.331   3.326  0.2260 -0.0247 -0.8404
  119MOL0     H16043  13.694  -1.139   3.431  0.1663  0.3513  0.9824
  119MOL0     H16044  13.585  -1.242   3.517 -0.4870  0.1017 -0.8302
  119MOL0     H16045  13.126  -1.344   3.165 -1.2086  0.8556 -2.4672
  119MOL0     H16046  12.885  -1.303   3.154  0.6185  0.2122 -1.2197
  119MOL0     H16047  12.491  -1.184   3.252  1.6238 -1.4387  0.7665
  119MOL0     H16048  12.256  -1.144   3.170  0.7947  0.6497 -1.5044
  119MOL0     H16049  11.332  -0.069   4.058 -0.1400 -0.8566 -0.3004
  119MOL0     H16050  11.100   0.030   4.074  1.1674  0.2982  0.3917
  119MOL0     H16051  10.740   0.073   3.908  2.1360  1.2638  1.7637
  119MOL0     H16052  10.509   0.067   3.908  1.3087  0.0180  0.7623
  119MOL0     H16053  10.289   0.342   3.650 -0.0946 -3.3302  0.6461
  119MOL0     H16054  10.293   0.451   3.800  0.7597  0.7613 -1.8595
  119MOL0     H16055  10.092   0.361   3.892  1.4523 -0.0654  0.2196
  119MOL0     H16056  10.094   0.228   3.773  4.0432 -0.1532 -0.5407
  119MOL0     H16057   9.999   0.325   3.596  0.4609  0.5007 -1.5120
  119MOL0     H16058  10.055   0.488   3.642 -1.0586  0.5014  1.3934
  119MOL0     H16059   9.833   0.335   3.785  1.0544 -0.1122  1.6059
  119MOL0     H16060   9.905   0.477   3.852  1.8637  3.8376 -1.5814
  119MOL0     H16061   9.633   0.635   3.573 -1.4597 -1.1758  2.5323
  119MOL0     H16062  10.486   0.452   3.727 -1.1152 -0.6490 -0.6862
  119MOL0     H16063  10.774   0.574   3.790 -1.8712  0.5047  0.5698
  119MOL0     H16064  10.814   0.477   3.644 -1.0733  1.3103 -0.8904
  119MOL0     H16065  10.660   0.571   3.666 -0.1868  1.4759  1.1581
  120MOL0     O16066   1.347   4.724   9.280  0.6729 -0.5136  0.5167
  120MOL0     C16067   1.380   4.726   9.159 -0.0392  0.4556 -0.3123
  120MOL0     O16068   1.308   4.665   9.055  0.2851  0.1719  0.2549
  120MOL0     C16069   1.187   4.600   9.086  0.5597 -0.6367  0.9560
  120MOL0     C16070   1.079   4.671   9.145 -0.7839  0.1621  0.2439
  120MOL0     C16071   0.976   4.598   9.195 -0.2974  0.4218  0.5051
  120MOL0     C16072   0.960   4.457   9.176 -0.9562 -0.5071  0.4585
  120MOL0     O16073   0.861   4.390   9.231  0.2212 -0.1520 -0.0916
  120MOL0     C16074   0.814   4.411   9.364  0.2593 -0.9954  0.4256
  120MOL0     C16075   0.770   4.288   9.439  0.1579  0.5156 -0.6555
  120MOL0     C16076   0.882   4.190   9.468  1.4176 -0.5074  1.0150
  120MOL0     C16077   0.963   4.250   9.578  0.6575 -0.2265  0.0272
  120MOL0     C16078   1.110   4.217   9.545  0.2460 -1.2249 -0.5434
  120MOL0     C16079   1.183   4.327   9.478  0.8513  0.1563 -0.3878
  120MOL0     C16080   1.321   4.287   9.434  0.0205  0.3228  0.8323
  120MOL0     C16081   1.379   4.390   9.339  0.0184  0.6630  0.2712
  120MOL0     N16082   1.523   4.365   9.319 -0.0703  0.3032 -0.0695
  120MOL0     C16083   1.617   4.474   9.311 -0.2492  0.7595 -0.4467
  120MOL0     C16084   1.731   4.417   9.266  0.2229  0.1834  0.1743
  120MOL0     C16085   1.872   4.464   9.281  0.9481 -0.6443  0.0222
  120MOL0     C16086   1.895   4.615   9.285 -0.0377  0.7146  1.1762
  120MOL0     C16087   2.013   4.657   9.366  0.3816 -0.2123 -0.1123
  120MOL0     C16088   2.020   4.807   9.388  0.1178 -0.0125  1.1973
  120MOL0     O16089   2.151   4.832   9.436  0.8446 -0.3279  0.5860
  120MOL0     C16090   2.220   4.934   9.389  0.0877 -0.7086 -0.4038
  120MOL0     C16091   2.191   5.010   9.279  0.0443 -0.8164  0.5353
  120MOL0     C16092   2.289   5.107   9.232  0.4739 -0.1218  0.5732
  120MOL0     C16093   2.400   5.135   9.306  0.1297 -0.2231 -1.1096
  120MOL0     C16094   2.492   5.249   9.270 -0.5809  0.2579 -0.4011
  120MOL0     O16095   2.628   5.253   9.327 -0.1226 -0.3733  0.1224
  120MOL0     C16096   2.698   5.368   9.290 -0.2901 -0.0804  0.3172
  120MOL0     C16097   2.670   5.505   9.290  0.5930 -0.9231  0.1772
  120MOL0     C16098   2.755   5.608   9.252 -0.1282  0.1260 -1.3528
  120MOL0     C16099   2.879   5.579   9.196  0.4516 -0.1720 -0.2416
  120MOL0     O16100   2.971   5.670   9.155  0.3781 -0.6843  0.3267
  120MOL0     C16101   2.939   5.810   9.167 -0.0874 -0.3766  0.6736
  120MOL0     C16102   2.973   5.875   9.306  0.4231  0.4080  0.2771
  120MOL0     C16103   3.115   5.860   9.348  0.6020  1.1241 -0.2355
  120MOL0     C16104   3.210   5.950   9.265  0.2266  0.6756 -0.3225
  120MOL0     C16105   3.355   5.945   9.335 -0.5313  0.6535 -0.1876
  120MOL0     C16106   3.455   5.994   9.228  0.0045  0.6602 -0.0574
  120MOL0     C16107   3.445   6.144   9.185  0.6387  0.6014  0.9657
  120MOL0     C16108   3.407   6.169   9.036  0.1218  1.3420 -0.3252
  120MOL0    Cl16109   3.437   6.336   8.997 -0.5102  0.2487  0.0355
  120MOL0     C16110   2.912   5.440   9.202 -0.3404 -0.2360  0.7663
  120MOL0     C16111   2.824   5.341   9.247  0.7851 -0.4731  0.4340
  120MOL0     O16112   2.456   5.322   9.177  0.3547 -0.1780 -0.4796
  120MOL0     C16113   2.435   5.041   9.406 -0.6988  0.3687  0.5184
  120MOL0     C16114   2.344   4.943   9.452 -0.7882  0.0513 -0.4497
  120MOL0     N16115   1.701   4.284   9.220  0.2257 -0.0887 -0.4119
  120MOL0     N16116   1.577   4.256   9.259  0.6853  0.0035 -1.1760
  120MOL0     C16117   1.059   4.389   9.099  0.5518 -0.0828 -0.7886
  120MOL0     C16118   1.163   4.468   9.059 -0.0423  0.8259  0.2924
  120MOL0     C16119   1.509   4.789   9.113 -0.3603  0.0400 -0.3198
  120MOL0     C16120   1.584   4.740   9.001  0.2663 -0.2531 -0.8563
  120MOL0     C16121   1.707   4.794   8.965  0.5098  0.0235 -0.1791
  120MOL0     C16122   1.759   4.906   9.029  0.2533  0.8832 -0.2500
  120MOL0     O16123   1.875   4.973   8.992 -0.2723 -0.1193 -0.3477
  120MOL0     C16124   1.897   4.962   8.852 -0.1075 -0.3836 -0.1878
  120MOL0     C16125   2.013   5.062   8.825  0.1705  0.5388  0.1533
  120MOL0     C16126   1.988   5.214   8.835 -0.5083  0.5131 -0.3999
  120MOL0     C16127   2.004   5.269   8.975  0.4034  0.2261 -0.7260
  120MOL0     C16128   2.016   5.421   8.970  0.8644  0.6620  0.7184
  120MOL0     C16129   1.993   5.540   8.967 -0.8457  0.6485  0.0181
  120MOL0     C16130   1.674   4.964   9.123 -0.5955  0.4566  0.0707
  120MOL0     C16131   1.556   4.912   9.170 -0.5425  0.1515  0.9378
  120MOL0     C16132   1.478   5.003   9.270 -0.4674  1.2720 -0.8020
  120MOL0     H16133   1.080   4.778   9.166 -1.6747  0.5955 -1.6790
  120MOL0     H16134   0.900   4.644   9.258  0.4680  0.0958  1.7112
  120MOL0     H16135   0.894   4.468   9.412  1.9049 -0.4679 -2.6445
  120MOL0     H16136   0.727   4.478   9.361  1.7133  1.2374  3.0831
  120MOL0     H16137   0.707   4.223   9.378 -0.6142 -1.1080  1.7427
  120MOL0     H16138   0.717   4.316   9.530  0.1659  4.8390 -1.7683
  120MOL0     H16139   0.934   4.181   9.372 -1.0635  3.7589 -0.9867
  120MOL0     H16140   0.836   4.094   9.491 -0.7908 -0.0213 -1.0002
  120MOL0     H16141   0.945   4.355   9.603 -2.1038 -0.4702 -0.5823
  120MOL0     H16142   0.938   4.187   9.665 -2.8195 -1.3332 -1.5702
  120MOL0     H16143   1.155   4.208   9.644  1.6895 -0.2392 -1.0736
  120MOL0     H16144   1.142   4.122   9.501  3.6568 -0.9202  0.9772
  120MOL0     H16145   1.132   4.361   9.387  1.2039 -1.8538 -1.3976
  120MOL0     H16146   1.188   4.409   9.550 -1.7004 -2.2100  2.7507
  120MOL0     H16147   1.310   4.195   9.377 -2.5311  0.0517  1.6441
  120MOL0     H16148   1.396   4.263   9.509 -0.4039 -2.3568  0.4883
  120MOL0     H16149   1.323   4.389   9.245  1.1334 -1.1950 -0.4358
  120MOL0     H16150   1.362   4.493   9.370 -3.0749  0.9707 -1.9743
  120MOL0     H16151   1.603   4.563   9.370  0.0721  1.1412 -0.9437
  120MOL0     H16152   1.906   4.422   9.377 -1.0285  2.5013  2.2754
  120MOL0     H16153   1.937   4.427   9.201 -0.8308  0.9134 -2.2757
  120MOL0     H16154   1.900   4.655   9.183  0.9554  1.7748  1.6194
  120MOL0     H16155   1.812   4.660   9.339  0.7248  0.0148  2.9962
  120MOL0     H16156   2.106   4.626   9.318 -0.2718 -0.3393 -1.3360
  120MOL0     H16157   2.004   4.612   9.466 -0.6972 -0.5157 -0.3290
  120MOL0     H16158   1.943   4.842   9.457 -0.2093  0.4271  0.6156
  120MOL0     H16159   2.000   4.851   9.289  0.7372 -3.0115 -0.3656
  120MOL0     H16160   2.104   4.997   9.216  0.9063 -2.3738 -0.3950
  120MOL0     H16161   2.272   5.162   9.140 -5.2103 -2.6024 -0.2711
  120MOL0     H16162   2.580   5.547   9.333  0.2106  2.5683 -3.4925
  120MOL0     H16163   2.723   5.707   9.284 -0.3593 -0.3493 -0.0260
  120MOL0     H16164   2.994   5.863   9.089 -1.3579 -1.0999 -0.7541
  120MOL0     H16165   2.833   5.825   9.146 -0.0855 -1.3339 -0.0700
  120MOL0     H16166   2.950   5.982   9.311  1.2665  0.5816  0.4654
  120MOL0     H16167   2.913   5.819   9.378  0.5109  0.5780  0.4818
  120MOL0     H16168   3.115   5.891   9.453 -0.1129  1.0295 -0.2032
  120MOL0     H16169   3.146   5.756   9.344  1.7824  1.4598 -0.2135
  120MOL0     H16170   3.188   6.057   9.264  2.5265  1.2149  0.3401
  120MOL0     H16171   3.217   5.916   9.161 -0.0578 -0.2483 -0.0549
  120MOL0     H16172   3.371   5.840   9.362 -1.3780  0.2050 -1.3302
  120MOL0     H16173   3.359   6.001   9.429 -0.5115 -0.3157  0.4030
  120MOL0     H16174   3.557   5.979   9.264 -0.0013 -1.7962 -0.8491
  120MOL0     H16175   3.466   5.932   9.138 -2.4243  1.0966 -0.7389
  120MOL0     H16176   3.544   6.189   9.197  0.3132  2.4133 -2.1542
  120MOL0     H16177   3.377   6.193   9.255  1.4618  1.3999  1.2150
  120MOL0     H16178   3.453   6.093   8.973  0.6729  1.4230 -0.0309
  120MOL0     H16179   3.299   6.159   9.022 -0.0177  1.0826  0.7906
  120MOL0     H16180   3.012   5.424   9.162 -0.7744 -0.9561 -0.0753
  120MOL0     H16181   2.861   5.239   9.256 -0.2590 -0.7214  2.6385
  120MOL0     H16182   2.529   5.033   9.459 -0.0019 -1.1183 -0.8705
  120MOL0     H16183   2.347   4.875   9.536 -0.4254  1.1340  0.4247
  120MOL0     H16184   1.043   4.283   9.083  3.4481 -0.8746  0.7615
  120MOL0     H16185   1.248   4.415   9.017 -1.3364 -0.7935 -0.3938
  120MOL0     H16186   1.565   4.647   8.947  1.3677  0.7151 -3.0320
  120MOL0     H16187   1.768   4.752   8.886 -0.7376  0.7703 -1.5993
  120MOL0     H16188   1.813   4.987   8.786  0.5071 -1.6983 -1.5203
  120MOL0     H16189   1.932   4.863   8.821 -4.9147 -2.2187 -0.5942
  120MOL0     H16190   2.039   5.045   8.720  0.2625  1.2321  0.0571
  120MOL0     H16191   2.094   5.039   8.894 -1.1137  0.6096  1.7449
  120MOL0     H16192   1.890   5.236   8.793 -0.0160 -0.0726 -1.9173
  120MOL0     H16193   2.060   5.256   8.765  0.3663  0.1831  0.2748
  120MOL0     H16194   1.912   5.243   9.028 -0.1242  0.5099 -1.4788
  120MOL0     H16195   2.089   5.234   9.033  1.8249 -0.5092 -3.1116
  120MOL0     H16196   1.983   5.647   8.967  0.6773  0.8249  1.6438
  120MOL0     H16197   1.721   5.055   9.160  1.2939 -1.2327  2.1762
  120MOL0     H16198   1.533   5.006   9.365  2.3847  2.3005 -2.3588
  120MOL0     H16199   1.484   5.107   9.238  2.5680  1.3657 -0.2410
  120MOL0     H16200   1.372   4.978   9.271 -0.0759 -0.7585  1.2154
  121MOL0     O16201   2.273   2.602   1.662  0.1492  0.0196  0.2226
  121MOL0     C16202   2.282   2.670   1.561 -0.8082 -0.1959  0.8387
  121MOL0     O16203   2.397   2.712   1.500 -0.6906 -0.3302  0.1246
  121MOL0     C16204   2.515   2.649   1.536  0.1152 -0.1440  0.1268
  121MOL0     C16205   2.551   2.510   1.526  0.6501  0.1097  0.2596
  121MOL0     C16206   2.676   2.461   1.561  0.2247  0.3940  0.2364
  121MOL0     C16207   2.768   2.547   1.614 -0.7727  0.6375 -1.0178
  121MOL0     O16208   2.891   2.496   1.661  0.3222  0.3258 -0.1137
  121MOL0     C16209   2.986   2.448   1.570 -0.2342 -0.1017 -0.1508
  121MOL0     C16210   3.095   2.373   1.643 -0.3090  1.2814 -0.7040
  121MOL0     C16211   3.170   2.460   1.745 -0.1871  0.3499 -0.2289
  121MOL0     C16212   3.272   2.370   1.820  0.6296 -0.9391 -0.3291
  121MOL0     C16213   3.363   2.446   1.920  0.4461 -1.7585  0.4635
  121MOL0     C16214   3.445   2.362   2.003 -1.4360  0.2670  0.2650
  121MOL0     C16215   3.547   2.444   2.083 -0.2814  0.0224 -0.3106
  121MOL0     C16216   3.682   2.470   2.012  0.7727  0.0513 -0.1768
  121MOL0     N16217   3.750   2.565   2.103 -1.0343  0.3437  0.6652
  121MOL0     C16218   3.808   2.681   2.067 -0.1558  0.1617 -0.1625
  121MOL0     C16219   3.879   2.734   2.174  0.7898  1.2743  0.1895
  121MOL0     C16220   3.960   2.854   2.165  0.3214 -0.8228  0.0327
  121MOL0     C16221   4.105   2.815   2.162  0.6775 -0.1601 -0.7551
  121MOL0     C16222   4.186   2.944   2.196 -0.2944 -0.3871 -0.1082
  121MOL0     C16223   4.330   2.927   2.161  0.0382 -0.1791 -0.9920
  121MOL0     O16224   4.410   3.033   2.225  0.3724  0.1134  0.3953
  121MOL0     C16225   4.546   3.033   2.195 -0.0482 -0.2747 -0.5675
  121MOL0     C16226   4.614   3.147   2.223  0.1768 -0.0653  0.1986
  121MOL0     C16227   4.745   3.160   2.196 -0.3630 -0.1497  0.6192
  121MOL0     C16228   4.815   3.055   2.141  0.1074 -0.3321 -0.3196
  121MOL0     C16229   4.960   3.070   2.111 -0.3144 -0.0977 -0.5684
  121MOL0     O16230   5.013   3.190   2.105  0.4559  0.1978  0.3559
  121MOL0     C16231   5.145   3.211   2.067 -0.8385 -0.6139  0.1686
  121MOL0     C16232   5.192   3.207   1.938 -1.0434  0.3688  0.2643
  121MOL0     C16233   5.329   3.245   1.924  0.6841  0.4027  0.6096
  121MOL0     C16234   5.414   3.280   2.030 -0.2314  0.1893 -0.8871
  121MOL0     O16235   5.550   3.294   1.998 -0.2520  0.2222  0.1179
  121MOL0     C16236   5.648   3.356   2.080  0.2365 -0.3011  0.0316
  121MOL0     C16237   5.665   3.501   2.036 -0.1424  0.3742 -0.9618
  121MOL0     C16238   5.581   3.600   2.098 -0.3015  0.3652 -0.3728
  121MOL0     C16239   5.645   3.738   2.068  0.8994  0.1990  0.0917
  121MOL0     C16240   5.575   3.857   2.139 -0.6178  0.3795  0.5607
  121MOL0     C16241   5.615   3.989   2.068  1.2664 -0.2074 -0.4826
  121MOL0     C16242   5.772   4.006   2.063  0.7141 -0.0742  0.4301
  121MOL0     C16243   5.815   4.150   2.043 -0.2971  0.4003 -0.6143
  121MOL0    Cl16244   5.992   4.180   2.003  0.2948 -0.4028  0.0060
  121MOL0     C16245   5.365   3.281   2.159  0.6257  0.7561  0.2895
  121MOL0     C16246   5.228   3.244   2.174 -0.8588  0.9888  0.1656
  121MOL0     O16247   5.013   2.963   2.080  0.1097 -0.9536 -0.1355
  121MOL0     C16248   4.751   2.937   2.111 -0.2795  0.2209 -0.2410
  121MOL0     C16249   4.619   2.922   2.144 -0.6375 -0.5478 -0.7158
  121MOL0     N16250   3.860   2.644   2.275 -0.0579 -0.2161 -0.3000
  121MOL0     N16251   3.780   2.551   2.230  0.5488 -0.4911 -0.7528
  121MOL0     C16252   2.729   2.673   1.635  0.0404  0.0592  0.0061
  121MOL0     C16253   2.599   2.722   1.613  0.4793 -0.0027 -0.0260
  121MOL0     C16254   2.163   2.735   1.504  0.0450 -0.0770 -0.6896
  121MOL0     C16255   2.177   2.855   1.441  0.3068  0.1139  0.3367
  121MOL0     C16256   2.076   2.919   1.379 -0.3115 -0.0077  0.0406
  121MOL0     C16257   1.939   2.872   1.399  0.3103 -0.3410 -0.6902
  121MOL0     O16258   1.841   2.962   1.367 -0.3367 -0.1828  0.6037
  121MOL0     C16259   1.701   2.926   1.385  0.4616 -0.4529 -0.8785
  121MOL0     C16260   1.663   2.849   1.258  0.5847  0.1462  0.5748
  121MOL0     C16261   1.519   2.780   1.260  0.0998  0.7685 -0.6037
  121MOL0     C16262   1.500   2.677   1.369 -0.2335 -0.1519  0.4539
  121MOL0     C16263   1.367   2.613   1.348  0.9703  0.2446  0.4096
  121MOL0     C16264   1.257   2.561   1.334 -0.9583  0.6623  0.9465
  121MOL0     C16265   1.927   2.741   1.455 -0.0939 -0.5657  1.3210
  121MOL0     C16266   2.031   2.677   1.510  0.0173 -1.0681  0.1676
  121MOL0     C16267   1.996   2.560   1.604 -0.3014  0.5565  0.5527
  121MOL0     H16268   2.493   2.442   1.465  0.9864 -1.9932  2.1863
  121MOL0     H16269   2.699   2.356   1.545  1.3526  0.5127  0.9510
  121MOL0     H16270   2.936   2.384   1.497 -0.1204  1.0221 -1.2526
  121MOL0     H16271   3.028   2.532   1.513  0.9753  0.7437  1.8407
  121MOL0     H16272   3.162   2.332   1.567 -1.9566 -0.9618 -1.0559
  121MOL0     H16273   3.048   2.289   1.695  0.4419  0.3486 -1.4857
  121MOL0     H16274   3.116   2.526   1.813 -1.6807 -1.0048 -0.0354
  121MOL0     H16275   3.228   2.526   1.680 -0.3944 -2.3823 -3.4806
  121MOL0     H16276   3.212   2.304   1.883 -1.7925  1.7283  0.3933
  121MOL0     H16277   3.336   2.309   1.756  2.3273 -2.0723  2.2658
  121MOL0     H16278   3.422   2.521   1.867 -0.7063 -1.5242 -0.5549
  121MOL0     H16279   3.299   2.503   1.988 -0.2378 -1.1114 -0.6816
  121MOL0     H16280   3.382   2.301   2.067 -3.5334  1.3884 -0.6423
  121MOL0     H16281   3.503   2.296   1.937 -2.1302 -1.2211  1.1084
  121MOL0     H16282   3.562   2.395   2.180 -2.2531  1.5537  0.8445
  121MOL0     H16283   3.514   2.541   2.121  1.8924 -0.2214  2.5532
  121MOL0     H16284   3.735   2.374   2.007 -0.9261 -1.2547  3.4284
  121MOL0     H16285   3.667   2.514   1.913 -1.0058  0.8813  0.4249
  121MOL0     H16286   3.792   2.735   1.974 -0.0632 -1.8875 -1.4126
  121MOL0     H16287   3.933   2.914   2.078 -1.6000  1.1958  1.8820
  121MOL0     H16288   3.932   2.919   2.249 -2.6782 -0.3155 -1.2116
  121MOL0     H16289   4.132   2.730   2.225  0.4687 -0.8155 -1.5470
  121MOL0     H16290   4.141   2.780   2.065  1.6611 -2.1365  0.2731
  121MOL0     H16291   4.178   2.974   2.301  0.7026  2.6739 -0.7739
  121MOL0     H16292   4.146   3.029   2.140  0.1117  0.5461  0.9563
  121MOL0     H16293   4.346   2.919   2.053 -0.4107  3.9370 -1.5467
  121MOL0     H16294   4.350   2.830   2.207 -3.6252 -0.6269 -0.0631
  121MOL0     H16295   4.561   3.229   2.270  2.0963  1.3273  0.0199
  121MOL0     H16296   4.799   3.251   2.218  0.0474 -0.7183  2.1455
  121MOL0     H16297   5.131   3.174   1.855  1.0964  1.6971 -1.9710
  121MOL0     H16298   5.375   3.239   1.826  0.5019 -0.0424  0.5521
  121MOL0     H16299   5.626   3.353   2.187  0.7677  0.7659  0.1941
  121MOL0     H16300   5.741   3.298   2.081  0.2299 -0.3149  1.0961
  121MOL0     H16301   5.767   3.537   2.050 -0.8033  2.3524 -0.9368
  121MOL0     H16302   5.657   3.489   1.927 -2.2470  1.0077 -0.9349
  121MOL0     H16303   5.483   3.584   2.052  1.0425 -1.7862 -2.6503
  121MOL0     H16304   5.572   3.590   2.207  0.6995  0.6502 -0.2579
  121MOL0     H16305   5.645   3.770   1.963 -0.5150  1.8838  0.5663
  121MOL0     H16306   5.753   3.736   2.089  0.9180 -1.3617 -0.0457
  121MOL0     H16307   5.611   3.853   2.242  0.2030 -1.8993  0.2521
  121MOL0     H16308   5.467   3.841   2.133 -0.6225 -0.0760  1.6449
  121MOL0     H16309   5.561   4.001   1.974 -2.0451  0.0030  1.3152
  121MOL0     H16310   5.566   4.068   2.124 -0.7570 -0.2914 -2.0277
  121MOL0     H16311   5.819   3.951   1.980 -4.2511 -1.7963 -1.6015
  121MOL0     H16312   5.809   3.961   2.155  2.5082 -0.5288 -0.4675
  121MOL0     H16313   5.774   4.198   1.953  0.2884  3.2510  0.5426
  121MOL0     H16314   5.777   4.205   2.130 -0.4949  4.9790 -3.2512
  121MOL0     H16315   5.426   3.295   2.248  1.4495 -1.3084  0.1126
  121MOL0     H16316   5.196   3.237   2.277 -0.5169  1.9234  0.3435
  121MOL0     H16317   4.813   2.864   2.061 -0.8302  0.5926 -1.5082
  121MOL0     H16318   4.581   2.822   2.127 -0.3628 -0.6787 -0.5614
  121MOL0     H16319   2.811   2.728   1.679  0.2326 -0.6615  0.5830
  121MOL0     H16320   2.580   2.829   1.623 -3.3360 -0.4739 -0.9146
  121MOL0     H16321   2.272   2.908   1.447  0.6752 -0.6739  2.1699
  121MOL0     H16322   2.100   3.009   1.323  0.1431  0.6122  1.1923
  121MOL0     H16323   1.641   3.016   1.397  1.6498  0.1008  1.3269
  121MOL0     H16324   1.678   2.861   1.470  1.0726 -2.0302 -1.8656
  121MOL0     H16325   1.742   2.775   1.243  2.7245  2.5191 -0.5986
  121MOL0     H16326   1.657   2.917   1.172  1.6075 -0.9261 -0.3792
  121MOL0     H16327   1.499   2.736   1.162 -2.5777  1.2263 -0.3373
  121MOL0     H16328   1.442   2.857   1.267 -0.6608 -0.0551  0.4377
  121MOL0     H16329   1.583   2.607   1.355 -0.6725 -0.6826  0.4786
  121MOL0     H16330   1.504   2.728   1.466 -0.0872  1.5737 -0.4193
  121MOL0     H16331   1.170   2.515   1.291 -0.2469  0.6825 -0.5908
  121MOL0     H16332   1.824   2.713   1.472 -0.4879 -3.6491 -3.9757
  121MOL0     H16333   2.032   2.584   1.705  2.1291 -0.9717  0.1160
  121MOL0     H16334   1.886   2.559   1.601 -0.2830  0.7222 -1.1342
  121MOL0     H16335   2.041   2.465   1.576 -0.3033  1.5006 -3.1553
  122MOL0     O16336   8.541   1.147   8.888 -0.2998  0.3730  0.0392
  122MOL0     C16337   8.575   1.034   8.936  0.1167 -0.9257  0.2893
  122MOL0     O16338   8.686   1.013   9.009 -0.2333  0.6512 -0.2689
  122MOL0     C16339   8.779   1.115   9.019 -0.5667  0.8229  0.8001
  122MOL0     C16340   8.878   1.140   8.921  0.1748  0.0043 -0.4953
  122MOL0     C16341   8.983   1.226   8.947 -0.1977 -0.8811  0.3829
  122MOL0     C16342   8.994   1.289   9.069 -1.0238 -0.5677  0.6549
  122MOL0     O16343   9.108   1.362   9.086  0.7720  0.3523 -0.4677
  122MOL0     C16344   9.153   1.378   9.218 -0.2907 -0.1873  0.1356
  122MOL0     C16345   9.300   1.429   9.227  0.0386  0.1708 -0.3928
  122MOL0     C16346   9.390   1.318   9.170  0.2535 -0.5645  0.2599
  122MOL0     C16347   9.541   1.368   9.159 -0.1047 -0.6718 -0.1968
  122MOL0     C16348   9.638   1.252   9.160  0.4336 -0.2930  0.7382
  122MOL0     C16349   9.774   1.283   9.112  0.1456 -0.6594  0.5892
  122MOL0     C16350   9.792   1.318   8.963  0.6927 -0.2234 -0.3728
  122MOL0     C16351   9.938   1.289   8.923 -0.1159  0.0250  0.1538
  122MOL0     N16352  10.029   1.409   8.938  1.0731 -0.6239 -0.3128
  122MOL0     C16353  10.072   1.463   9.059 -0.7814 -0.5099 -0.6531
  122MOL0     C16354  10.184   1.523   9.031 -0.4259 -0.2143  0.3952
  122MOL0     C16355  10.267   1.588   9.140 -0.1769  0.5912 -0.0929
  122MOL0     C16356  10.407   1.637   9.088  0.8429 -0.5014 -0.7712
  122MOL0     C16357  10.474   1.726   9.190  0.1903  0.1239  0.0495
  122MOL0     C16358  10.604   1.793   9.145  0.8604 -0.5918 -0.8138
  122MOL0     O16359  10.686   1.811   9.257  0.0509  0.5325 -0.1077
  122MOL0     C16360  10.802   1.884   9.259 -0.2081  0.2660  0.3523
  122MOL0     C16361  10.853   1.954   9.149 -0.8157  0.3962  0.3910
  122MOL0     C16362  10.966   2.036   9.167  0.1620  0.3203  0.7956
  122MOL0     C16363  11.041   2.040   9.289  0.4473  0.4814 -0.1177
  122MOL0     C16364  11.161   2.127   9.292 -0.3653 -0.7299  0.8856
  122MOL0     O16365  11.197   2.203   9.181  0.2132 -0.1195  0.0526
  122MOL0     C16366  11.304   2.297   9.187 -0.2567 -0.3401 -0.0193
  122MOL0     C16367  11.375   2.315   9.065  0.7462  0.3406 -0.3269
  122MOL0     C16368  11.503   2.374   9.071 -0.2281 -1.8153 -0.1463
  122MOL0     C16369  11.545   2.436   9.188  0.8192  0.2445  0.2133
  122MOL0     O16370  11.666   2.502   9.184  0.3143  0.4455  0.4954
  122MOL0     C16371  11.696   2.598   9.283 -0.0001  0.7860  0.4057
  122MOL0     C16372  11.839   2.644   9.271  0.4079  0.3802  0.2210
  122MOL0     C16373  11.881   2.759   9.361  1.3677  0.3842 -0.0080
  122MOL0     C16374  12.032   2.801   9.371 -0.7365  0.4033  0.4619
  122MOL0     C16375  12.036   2.948   9.392  0.5081 -0.2586 -0.3946
  122MOL0     C16376  12.177   3.005   9.359 -0.4403  0.3421  0.8156
  122MOL0     C16377  12.166   3.156   9.337  0.4437 -0.4960  0.3267
  122MOL0     C16378  12.302   3.210   9.333  0.2925  0.3431 -0.0476
  122MOL0    Cl16379  12.397   3.184   9.183  0.2605  0.1926 -0.2149
  122MOL0     C16380  11.469   2.427   9.310  0.3456  0.0455  0.7328
  122MOL0     C16381  11.350   2.357   9.306  0.4310  0.4640 -0.0148
  122MOL0     O16382  11.220   2.123   9.403 -0.1691  0.6742  0.4756
  122MOL0     C16383  10.996   1.955   9.397 -0.6268 -0.2891  0.1577
  122MOL0     C16384  10.878   1.886   9.381  0.1820  0.0902  0.5540
  122MOL0     N16385  10.208   1.511   8.888  0.0398 -0.6899 -1.5273
  122MOL0     N16386  10.113   1.443   8.836  0.4578  0.3332  0.3278
  122MOL0     C16387   8.891   1.273   9.156  0.1966 -0.3741 -0.5959
  122MOL0     C16388   8.781   1.184   9.132 -0.2887  0.4492  0.6864
  122MOL0     C16389   8.478   0.923   8.940  0.4016  0.1675 -0.6123
  122MOL0     C16390   8.489   0.821   9.043 -0.2720  0.4169 -0.6426
  122MOL0     C16391   8.398   0.719   9.052 -0.5740 -0.2265  0.4474
  122MOL0     C16392   8.287   0.705   8.976  0.4858 -0.2455  0.4550
  122MOL0     O16393   8.203   0.604   9.007  0.1511  1.1013 -0.7991
  122MOL0     C16394   8.062   0.634   8.996  0.1638  0.1960  0.3442
  122MOL0     C16395   7.966   0.504   8.989 -0.9406  0.4656 -0.4188
  122MOL0     C16396   7.819   0.543   9.005  0.3072 -0.3519 -0.8382
  122MOL0     C16397   7.720   0.433   8.976  0.9670  0.0880 -0.6022
  122MOL0     C16398   7.730   0.373   8.847  0.3915 -0.1805  0.1621
  122MOL0     C16399   7.754   0.316   8.748  0.0244 -0.1717  0.1492
  122MOL0     C16400   8.271   0.799   8.872  0.3663 -0.2399 -0.5638
  122MOL0     C16401   8.368   0.906   8.847  0.0366 -0.1244 -1.0807
  122MOL0     C16402   8.355   1.012   8.732  0.0973  0.1117  0.3650
  122MOL0     H16403   8.884   1.081   8.830  1.1086 -0.2563 -0.2738
  122MOL0     H16404   9.047   1.247   8.861 -3.1299  1.9939 -1.3208
  122MOL0     H16405   9.089   1.448   9.272 -2.0530 -2.7316  1.5430
  122MOL0     H16406   9.128   1.296   9.285 -3.5020  0.0738 -0.5567
  122MOL0     H16407   9.320   1.436   9.335 -0.7229  1.0684 -0.2907
  122MOL0     H16408   9.313   1.527   9.181  0.2134 -0.8562 -2.6479
  122MOL0     H16409   9.373   1.304   9.062  1.4505  1.9803 -0.3367
  122MOL0     H16410   9.379   1.226   9.229  0.8560  0.1486  1.5232
  122MOL0     H16411   9.564   1.419   9.065  0.8194 -0.8564 -0.0822
  122MOL0     H16412   9.552   1.450   9.231  0.8878  0.2458 -1.3421
  122MOL0     H16413   9.658   1.216   9.261  0.0313 -0.9714  0.5793
  122MOL0     H16414   9.604   1.168   9.099  1.3762 -1.9393  2.3770
  122MOL0     H16415   9.819   1.355   9.181  1.4001  0.4571 -1.2899
  122MOL0     H16416   9.829   1.189   9.123 -0.5837 -1.0850  0.6555
  122MOL0     H16417   9.765   1.422   8.942 -2.5214 -0.6677  0.9532
  122MOL0     H16418   9.717   1.272   8.898  0.1282  0.9541 -0.5942
  122MOL0     H16419   9.984   1.203   8.972  2.4660  0.0922 -1.9473
  122MOL0     H16420   9.937   1.249   8.821  1.7380 -1.1568  0.5551
  122MOL0     H16421  10.034   1.451   9.160  0.5252 -0.4029 -0.1242
  122MOL0     H16422  10.205   1.665   9.185 -2.2413  0.2180 -2.1150
  122MOL0     H16423  10.292   1.506   9.209 -1.3713  2.5202  2.8182
  122MOL0     H16424  10.470   1.554   9.053  1.6632  0.1509 -0.8718
  122MOL0     H16425  10.393   1.710   9.009  1.4375  0.8492  0.3260
  122MOL0     H16426  10.507   1.654   9.265 -0.2535  1.6504  1.7856
  122MOL0     H16427  10.404   1.795   9.238  0.9399  0.2862  0.9472
  122MOL0     H16428  10.581   1.885   9.089 -0.3621  1.5152  2.8118
  122MOL0     H16429  10.646   1.739   9.060 -0.5200 -1.7883 -0.7648
  122MOL0     H16430  10.811   1.939   9.051  0.2138 -0.3808  0.0459
  122MOL0     H16431  10.994   2.092   9.078  0.3172 -2.6972 -1.1827
  122MOL0     H16432  11.349   2.268   8.971  0.1399 -2.6826  1.2206
  122MOL0     H16433  11.557   2.368   8.978 -1.3380  0.0825 -0.9777
  122MOL0     H16434  11.628   2.683   9.275  0.0727  1.2141  3.2300
  122MOL0     H16435  11.692   2.560   9.386 -0.9322 -1.6069 -0.4524
  122MOL0     H16436  11.913   2.571   9.304  0.1751 -0.7164 -1.5779
  122MOL0     H16437  11.863   2.675   9.168  2.1767 -0.3894  0.3725
  122MOL0     H16438  11.813   2.840   9.333 -0.0041 -0.9585 -0.6715
  122MOL0     H16439  11.853   2.734   9.464 -1.9658 -1.9487 -1.3446
  122MOL0     H16440  12.083   2.775   9.278 -1.0953  0.5629  0.2194
  122MOL0     H16441  12.069   2.747   9.458 -3.0308 -4.0032 -0.9753
  122MOL0     H16442  12.000   2.963   9.494 -1.3984 -0.4123 -1.0012
  122MOL0     H16443  11.955   2.997   9.335 -2.2621 -0.7331  2.8073
  122MOL0     H16444  12.263   2.979   9.420 -0.7768 -1.2868  0.6230
  122MOL0     H16445  12.204   2.952   9.267 -0.1732 -1.9058  2.1270
  122MOL0     H16446  12.111   3.200   9.421 -1.1895  0.2519 -1.0670
  122MOL0     H16447  12.108   3.186   9.250  0.6959  1.6465  0.8406
  122MOL0     H16448  12.291   3.319   9.344  0.2555  0.3006  0.3573
  122MOL0     H16449  12.361   3.172   9.418 -0.7571 -0.3986  0.3662
  122MOL0     H16450  11.494   2.460   9.410 -1.2293 -1.8805  1.8228
  122MOL0     H16451  11.309   2.329   9.402 -0.8465  0.2171 -0.6099
  122MOL0     H16452  11.056   1.952   9.487 -0.7432  2.7746  0.4718
  122MOL0     H16453  10.843   1.823   9.462  0.5454 -0.1051  0.5581
  122MOL0     H16454   8.874   1.335   9.243 -3.9095 -0.4850 -1.1590
  122MOL0     H16455   8.699   1.167   9.201 -0.6343 -0.2020  0.1314
  122MOL0     H16456   8.568   0.816   9.118 -0.2694 -3.3039 -0.7260
  122MOL0     H16457   8.411   0.649   9.134  4.5974  2.1095  2.0650
  122MOL0     H16458   8.038   0.698   8.911  1.2671  1.4545  0.9477
  122MOL0     H16459   8.032   0.689   9.086 -1.6354  0.8123 -0.5892
  122MOL0     H16460   7.994   0.446   9.078  0.3522 -0.1232 -1.1738
  122MOL0     H16461   7.983   0.439   8.903  1.8666 -1.2735  1.2633
  122MOL0     H16462   7.817   0.634   8.945  0.9337  0.7009  0.6821
  122MOL0     H16463   7.808   0.579   9.108  2.3495 -0.1041 -0.6625
  122MOL0     H16464   7.747   0.365   9.057 -0.9872  0.6946  0.6490
  122MOL0     H16465   7.623   0.474   9.007  0.9110 -1.1255  0.9293
  122MOL0     H16466   7.756   0.268   8.652  0.6386 -2.0845  1.0663
  122MOL0     H16467   8.181   0.793   8.812 -0.8540 -2.4509  1.3022
  122MOL0     H16468   8.262   0.997   8.676  0.9613  0.1845 -1.1370
  122MOL0     H16469   8.342   1.116   8.764  2.6501  0.8335 -0.6587
  122MOL0     H16470   8.438   0.995   8.663 -0.2152  0.4362 -0.0942
  123MOL0     O16471   7.076   5.393   1.463  0.1298 -0.2482 -0.6465
  123MOL0     C16472   6.966   5.388   1.405 -0.1510 -0.4995  0.0536
  123MOL0     O16473   6.950   5.378   1.272 -0.2068 -0.5306  0.2358
  123MOL0     C16474   7.060   5.413   1.194 -0.3493 -0.2804  0.1757
  123MOL0     C16475   7.164   5.327   1.160 -0.4969  0.0793 -0.6366
  123MOL0     C16476   7.272   5.368   1.087  0.7214 -0.0677  0.3262
  123MOL0     C16477   7.294   5.504   1.054 -0.1876 -0.0230  0.1307
  123MOL0     O16478   7.398   5.552   0.971 -0.2359 -0.0168  0.1012
  123MOL0     C16479   7.529   5.548   1.030  0.6046  0.4479  0.6426
  123MOL0     C16480   7.628   5.602   0.929 -0.0132  0.9721 -0.6420
  123MOL0     C16481   7.785   5.591   0.953  0.0411  0.0421 -0.1160
  123MOL0     C16482   7.847   5.458   0.910  0.3350  0.0587 -0.0188
  123MOL0     C16483   8.000   5.460   0.942  0.4124  0.0484  0.0770
  123MOL0     C16484   8.070   5.399   0.815 -0.9560  0.1219 -0.0509
  123MOL0     C16485   8.224   5.430   0.827 -0.0085  0.0423  0.8548
  123MOL0     C16486   8.256   5.578   0.778  0.8346  0.0183  0.9950
  123MOL0     N16487   8.376   5.622   0.842 -0.0180  0.9076 -0.5525
  123MOL0     C16488   8.500   5.571   0.813  0.1436  0.4284  0.1584
  123MOL0     C16489   8.574   5.606   0.921  0.4810  0.4247 -0.0167
  123MOL0     C16490   8.723   5.575   0.961 -0.1605 -0.0120 -0.1491
  123MOL0     C16491   8.775   5.437   0.929 -0.7870  0.0408  0.4822
  123MOL0     C16492   8.909   5.430   0.987  0.4359 -0.0880 -0.7614
  123MOL0     C16493   8.960   5.289   0.978 -0.8217 -0.7239  0.1564
  123MOL0     O16494   9.087   5.278   0.909  0.5570 -0.4483 -0.6476
  123MOL0     C16495   9.203   5.303   0.975  0.7251  0.2483 -0.6546
  123MOL0     C16496   9.219   5.367   1.098 -0.2961  0.0474  0.6629
  123MOL0     C16497   9.344   5.398   1.148 -0.1862 -0.3930 -0.5651
  123MOL0     C16498   9.458   5.354   1.081 -0.4844 -0.3270  0.1944
  123MOL0     C16499   9.598   5.373   1.137  0.6468 -0.9262 -0.1065
  123MOL0     O16500   9.598   5.444   1.255 -0.3175 -0.2667  0.1436
  123MOL0     C16501   9.723   5.470   1.321  0.5885  0.6535 -0.2094
  123MOL0     C16502   9.715   5.471   1.467  1.0423  0.0161  1.0419
  123MOL0     C16503   9.818   5.516   1.538 -1.4030 -0.8324 -0.1263
  123MOL0     C16504   9.929   5.572   1.480  0.4185 -0.4353 -0.1754
  123MOL0     O16505  10.020   5.637   1.557  0.2269 -0.3639 -0.4949
  123MOL0     C16506  10.148   5.660   1.509  0.2599  0.2291 -0.0903
  123MOL0     C16507  10.247   5.699   1.629  0.3993 -0.2284  0.6288
  123MOL0     C16508  10.349   5.802   1.606 -0.1001 -0.4563 -0.3123
  123MOL0     C16509  10.443   5.790   1.482  0.7884 -0.0858 -0.6859
  123MOL0     C16510  10.535   5.911   1.455 -0.7754  0.4214 -0.0200
  123MOL0     C16511  10.444   6.017   1.395  0.1400  0.4069 -0.2375
  123MOL0     C16512  10.527   6.123   1.320 -1.1333 -0.5498 -0.1119
  123MOL0     C16513  10.438   6.233   1.258  0.1584  0.4021 -0.3625
  123MOL0    Cl16514  10.557   6.346   1.179 -0.2240  0.1770  0.9775
  123MOL0     C16515   9.939   5.565   1.341  1.3632  0.1232 -0.0958
  123MOL0     C16516   9.837   5.516   1.259  0.4855 -0.7732  0.2733
  123MOL0     O16517   9.700   5.334   1.078 -0.6262  0.6058  0.0613
  123MOL0     C16518   9.444   5.288   0.949 -0.6088 -0.0720  1.1060
  123MOL0     C16519   9.314   5.270   0.905  0.6750 -0.2652  0.5308
  123MOL0     N16520   8.501   5.686   1.006  0.1920  0.4807  1.0496
  123MOL0     N16521   8.384   5.703   0.960  1.3552  0.5982  1.2521
  123MOL0     C16522   7.195   5.594   1.089 -0.0057  0.7404  0.3269
  123MOL0     C16523   7.078   5.552   1.157 -0.6698  0.9961 -1.0345
  123MOL0     C16524   6.852   5.379   1.486 -0.2465  0.2475 -0.4459
  123MOL0     C16525   6.725   5.337   1.433  0.3116  0.3817 -0.1929
  123MOL0     C16526   6.617   5.324   1.518  0.3689  0.4851  0.7254
  123MOL0     C16527   6.621   5.354   1.654 -0.8277 -0.2326 -0.1334
  123MOL0     O16528   6.497   5.339   1.721  0.7092 -0.1956 -0.3169
  123MOL0     C16529   6.480   5.334   1.864  0.1810  0.0657  0.2340
  123MOL0     C16530   6.325   5.334   1.892 -0.6145 -0.3189  0.6955
  123MOL0     C16531   6.263   5.199   1.863 -0.4109 -0.9409 -0.8598
  123MOL0     C16532   6.112   5.205   1.883  0.1303  0.2157 -0.0271
  123MOL0     C16533   6.044   5.078   1.840 -0.6904 -0.6690 -0.8825
  123MOL0     C16534   6.008   4.964   1.815 -0.0217  0.3057  0.7990
  123MOL0     C16535   6.734   5.425   1.699 -0.0494 -0.4786 -0.6961
  123MOL0     C16536   6.850   5.439   1.622 -0.4161 -0.2141 -0.1025
  123MOL0     C16537   6.955   5.537   1.679  0.5050  0.1213  0.0265
  123MOL0     H16538   7.159   5.223   1.188  1.7562  0.0377 -0.1597
  123MOL0     H16539   7.346   5.300   1.048 -0.9484 -0.6658 -2.0461
  123MOL0     H16540   7.525   5.594   1.129  3.6079 -0.6170  1.3699
  123MOL0     H16541   7.554   5.442   1.039  2.1194  0.7953  0.8291
  123MOL0     H16542   7.595   5.701   0.899 -1.8535 -0.1006 -2.4014
  123MOL0     H16543   7.614   5.542   0.839  1.1503 -0.1534 -0.1084
  123MOL0     H16544   7.802   5.611   1.059 -1.0436 -1.6301  0.4178
  123MOL0     H16545   7.822   5.672   0.889  1.2092 -1.4677 -1.4163
  123MOL0     H16546   7.791   5.371   0.946 -1.5031 -0.4165 -3.5645
  123MOL0     H16547   7.833   5.453   0.801 -0.9256  3.5882 -0.1259
  123MOL0     H16548   8.038   5.556   0.979  0.8258  0.2353 -0.8046
  123MOL0     H16549   8.017   5.385   1.020 -1.0709 -1.8468 -1.3410
  123MOL0     H16550   8.064   5.291   0.802  0.6017  0.0041  0.0598
  123MOL0     H16551   8.036   5.445   0.722 -0.5038  2.4862  0.8707
  123MOL0     H16552   8.282   5.361   0.765 -0.3798  1.4056 -1.0817
  123MOL0     H16553   8.261   5.405   0.927 -0.4769 -2.2120  0.5097
  123MOL0     H16554   8.262   5.588   0.670 -0.4505  1.3086  1.0130
  123MOL0     H16555   8.173   5.642   0.811  0.2162 -1.0082  1.4652
  123MOL0     H16556   8.531   5.499   0.739 -0.0389 -0.3139  0.7937
  123MOL0     H16557   8.785   5.659   0.927 -1.4663 -0.3336 -3.6615
  123MOL0     H16558   8.714   5.596   1.068 -2.1437  0.8875 -0.4509
  123MOL0     H16559   8.710   5.357   0.966 -0.2109 -0.9949 -0.6542
  123MOL0     H16560   8.783   5.422   0.820 -1.2581 -0.4705  0.5132
  123MOL0     H16561   8.903   5.456   1.093  1.5967 -0.1157 -0.6775
  123MOL0     H16562   8.964   5.507   0.933  0.4613 -0.3402 -1.0954
  123MOL0     H16563   8.896   5.226   0.916 -0.8983 -0.0131 -0.5010
  123MOL0     H16564   8.964   5.253   1.081  1.7116  2.0564  1.1731
  123MOL0     H16565   9.132   5.403   1.153 -1.2313 -2.1582  0.7119
  123MOL0     H16566   9.340   5.457   1.239  2.1988  1.0314 -1.3142
  123MOL0     H16567   9.624   5.430   1.509 -0.5123  0.5582 -1.5471
  123MOL0     H16568   9.813   5.528   1.646 -0.9528 -0.1051 -0.1791
  123MOL0     H16569  10.185   5.573   1.453 -1.5065 -0.8127  0.2613
  123MOL0     H16570  10.140   5.748   1.445  2.8769 -0.5417 -1.6236
  123MOL0     H16571  10.179   5.732   1.708 -2.1356 -0.9677 -1.1298
  123MOL0     H16572  10.297   5.610   1.668 -0.9695 -2.4991 -2.4563
  123MOL0     H16573  10.294   5.897   1.603 -1.0704 -1.0002 -0.1580
  123MOL0     H16574  10.410   5.808   1.697  0.9402 -3.4248 -0.7067
  123MOL0     H16575  10.383   5.764   1.395 -0.7257  4.9847 -1.4580
  123MOL0     H16576  10.508   5.706   1.509  1.0569  1.3913  4.2400
  123MOL0     H16577  10.621   5.890   1.390  0.3473  1.3579  1.1072
  123MOL0     H16578  10.574   5.962   1.544 -0.1080  0.2430 -0.2032
  123MOL0     H16579  10.358   5.981   1.338 -0.7577  1.4491  0.4116
  123MOL0     H16580  10.391   6.071   1.474 -1.4696  0.5026 -1.3376
  123MOL0     H16581  10.581   6.083   1.233  0.2705 -0.7860  0.8328
  123MOL0     H16582  10.591   6.173   1.393 -1.7563  0.3689 -0.1758
  123MOL0     H16583  10.377   6.181   1.184  0.1788  1.0938 -0.8699
  123MOL0     H16584  10.372   6.282   1.330 -0.6450 -1.6335  0.3490
  123MOL0     H16585  10.026   5.610   1.296  1.4195  0.4958  0.3864
  123MOL0     H16586   9.852   5.529   1.152  4.0033 -0.5855  0.6669
  123MOL0     H16587   9.539   5.259   0.904 -0.8601 -0.1874  0.6428
  123MOL0     H16588   9.294   5.235   0.805  3.6213  2.2350 -1.1092
  123MOL0     H16589   7.211   5.692   1.047  1.1283 -0.4682 -2.3255
  123MOL0     H16590   6.992   5.609   1.188 -1.2598 -1.8745  3.5365
  123MOL0     H16591   6.709   5.292   1.336 -0.5342 -4.4094  1.8503
  123MOL0     H16592   6.529   5.275   1.478  1.3920 -1.1053  0.3204
  123MOL0     H16593   6.543   5.405   1.918  0.6219 -0.4323  0.3850
  123MOL0     H16594   6.519   5.239   1.903 -0.5098 -1.2925 -2.1802
  123MOL0     H16595   6.285   5.414   1.829 -5.6238  0.5908  4.4089
  123MOL0     H16596   6.297   5.366   1.993  0.2078  1.4239  0.4129
  123MOL0     H16597   6.312   5.131   1.933  0.8564 -0.6740 -1.4498
  123MOL0     H16598   6.282   5.160   1.762 -0.4332 -0.9132 -0.8745
  123MOL0     H16599   6.104   5.211   1.992  0.9409 -1.1927  0.1336
  123MOL0     H16600   6.074   5.299   1.841 -0.8675 -0.9272 -1.7859
  123MOL0     H16601   5.979   4.862   1.799 -3.3126  1.1124  0.9430
  123MOL0     H16602   6.736   5.472   1.797  0.9818  1.0544 -1.4148
  123MOL0     H16603   6.948   5.638   1.638 -0.1717 -1.4959 -4.4223
  123MOL0     H16604   6.937   5.546   1.786  0.1076  1.1477 -0.1166
  123MOL0     H16605   7.058   5.501   1.663 -0.2123 -1.1971 -2.2039
  124MOL0     O16606   7.596   0.629   4.265  0.3123  0.0617  1.1343
  124MOL0     C16607   7.550   0.636   4.148 -0.1028  0.1066  0.0394
  124MOL0     O16608   7.621   0.663   4.036 -0.4332  0.1807 -0.3014
  124MOL0     C16609   7.753   0.661   4.041 -0.2337  1.2100 -0.2759
  124MOL0     C16610   7.822   0.538   4.028  0.8134  0.2153  0.4644
  124MOL0     C16611   7.960   0.537   4.012 -0.4026 -0.1810 -0.1891
  124MOL0     C16612   8.032   0.655   4.006 -0.0633 -0.6548  0.9147
  124MOL0     O16613   8.172   0.658   3.979  0.7202 -0.1744  0.1158
  124MOL0     C16614   8.244   0.542   4.015 -0.4945  0.4004 -0.2068
  124MOL0     C16615   8.396   0.574   4.012 -0.7303  0.2097 -0.6314
  124MOL0     C16616   8.479   0.505   4.117 -0.1292  0.1446 -0.4416
  124MOL0     C16617   8.625   0.523   4.077  0.7730 -0.1367  0.2640
  124MOL0     C16618   8.710   0.440   4.181  1.2178  0.2280  0.5162
  124MOL0     C16619   8.847   0.419   4.118 -0.3683 -0.0520 -0.4211
  124MOL0     C16620   8.933   0.310   4.194  0.1126 -0.0769 -0.0067
  124MOL0     C16621   9.078   0.295   4.149  0.8499 -0.0036 -0.1283
  124MOL0     N16622   9.153   0.199   4.239  0.0672 -0.3939  0.1574
  124MOL0     C16623   9.134   0.063   4.244  0.4151  0.0691 -0.8066
  124MOL0     C16624   9.245   0.013   4.298 -0.1867 -0.1325 -0.4986
  124MOL0     C16625   9.296  -0.122   4.304 -0.0910 -0.2431 -0.2552
  124MOL0     C16626   9.444  -0.143   4.270 -0.3164 -0.0644  0.8686
  124MOL0     C16627   9.474  -0.123   4.119  0.3713  0.2336 -0.0103
  124MOL0     C16628   9.618  -0.119   4.092 -0.6733 -0.3938  0.5290
  124MOL0     O16629   9.638  -0.073   3.956  0.1426 -0.2727  0.3680
  124MOL0     C16630   9.757  -0.093   3.890 -0.6337 -0.6032 -0.3402
  124MOL0     C16631   9.778  -0.022   3.770  0.0270 -0.3176 -0.0770
  124MOL0     C16632   9.905  -0.029   3.696 -0.2330 -0.1340 -0.1810
  124MOL0     C16633  10.001  -0.118   3.747 -0.2082  0.4274 -1.0142
  124MOL0     C16634  10.135  -0.133   3.675 -0.5400 -0.5015  0.0693
  124MOL0     O16635  10.246  -0.157   3.750  0.3532 -0.5868 -0.1276
  124MOL0     C16636  10.373  -0.171   3.696 -0.4474 -0.9880  0.0025
  124MOL0     C16637  10.442  -0.285   3.713  0.5611  0.6176  0.4567
  124MOL0     C16638  10.579  -0.316   3.684  0.0491 -0.2870 -0.0062
  124MOL0     C16639  10.655  -0.210   3.641  0.0789 -0.0442 -0.2849
  124MOL0     O16640  10.788  -0.227   3.618 -0.3970 -0.0534 -0.1951
  124MOL0     C16641  10.869  -0.115   3.582  0.0125 -0.3074 -0.7076
  124MOL0     C16642  11.021  -0.156   3.605  0.3558  0.3511  0.3276
  124MOL0     C16643  11.042  -0.296   3.551 -0.6243  0.3028 -1.0238
  124MOL0     C16644  11.196  -0.337   3.547  0.0693 -0.0726  0.2890
  124MOL0     C16645  11.213  -0.473   3.465  0.8936 -0.9143 -0.7421
  124MOL0     C16646  11.112  -0.583   3.518  0.7531  0.2660  0.0141
  124MOL0     C16647  11.142  -0.715   3.443 -1.4908  0.0732 -0.5342
  124MOL0     C16648  11.039  -0.815   3.477  0.0217 -0.2308  0.2328
  124MOL0    Cl16649  11.049  -0.955   3.362  0.0794  0.1438  0.3535
  124MOL0     C16650  10.582  -0.089   3.610  0.6489 -1.4957 -0.0052
  124MOL0     C16651  10.443  -0.074   3.636  0.5707 -0.1291 -0.1653
  124MOL0     O16652  10.136  -0.121   3.557  0.1646  0.3510  0.8311
  124MOL0     C16653   9.984  -0.176   3.873  0.2576 -0.2712  0.3264
  124MOL0     C16654   9.867  -0.158   3.946 -0.0383  0.2016  0.0318
  124MOL0     N16655   9.322   0.118   4.352  0.1202  0.2483  0.9877
  124MOL0     N16656   9.271   0.228   4.306 -0.1475 -0.3307  0.1561
  124MOL0     C16657   7.958   0.773   4.026 -0.2766  0.0734 -0.0542
  124MOL0     C16658   7.824   0.775   4.052  0.5804 -0.2231 -0.0085
  124MOL0     C16659   7.411   0.610   4.136  0.3782 -0.5474 -0.6304
  124MOL0     C16660   7.371   0.497   4.066  0.3959  0.1330  0.2556
  124MOL0     C16661   7.238   0.456   4.050  0.8117  0.1602  0.2311
  124MOL0     C16662   7.139   0.535   4.115  0.4670 -0.3169  0.0304
  124MOL0     O16663   7.006   0.501   4.089  0.0758  0.5717  0.0989
  124MOL0     C16664   6.902   0.550   4.173 -0.2326 -0.0158  0.1231
  124MOL0     C16665   6.764   0.501   4.116  0.7168  1.2745 -0.2801
  124MOL0     C16666   6.702   0.589   4.015  1.1673  0.3350  0.5811
  124MOL0     C16667   6.592   0.513   3.934  1.6791  0.8368 -1.4178
  124MOL0     C16668   6.474   0.447   4.003 -0.5690 -1.2603  0.2422
  124MOL0     C16669   6.394   0.398   4.078  0.6745  0.3481  0.7368
  124MOL0     C16670   7.181   0.639   4.203 -0.5619 -0.3551 -0.6646
  124MOL0     C16671   7.315   0.682   4.211  0.4655 -0.4425 -0.1306
  124MOL0     C16672   7.352   0.800   4.305  0.3325 -1.0396  0.2421
  124MOL0     H16673   7.758   0.450   4.030  0.9166  0.1481  0.8256
  124MOL0     H16674   8.016   0.445   3.993  0.4069 -0.5201  3.1252
  124MOL0     H16675   8.233   0.509   4.119 -4.0510 -3.3447 -1.4749
  124MOL0     H16676   8.223   0.456   3.951  1.8581  0.3939 -1.0688
  124MOL0     H16677   8.424   0.680   4.015  4.1481 -0.5715 -5.0766
  124MOL0     H16678   8.419   0.535   3.913 -2.1297 -2.9037  0.1587
  124MOL0     H16679   8.453   0.399   4.125 -1.0128  0.2483 -1.6691
  124MOL0     H16680   8.462   0.560   4.210  2.3180 -0.5379  0.4839
  124MOL0     H16681   8.625   0.483   3.975 -0.6789  1.1326 -0.2748
  124MOL0     H16682   8.639   0.631   4.086  1.4231 -0.2235  0.3179
  124MOL0     H16683   8.700   0.475   4.284 -3.3153  2.4543 -0.3982
  124MOL0     H16684   8.679   0.335   4.184  0.5408  0.1425 -3.6361
  124MOL0     H16685   8.836   0.394   4.012  4.0849  0.2782 -1.1374
  124MOL0     H16686   8.910   0.508   4.127 -0.2250  0.2313 -3.2653
  124MOL0     H16687   8.873   0.219   4.203 -0.5799  0.3564 -0.2103
  124MOL0     H16688   8.923   0.334   4.300 -0.1201 -2.3689  0.5517
  124MOL0     H16689   9.078   0.255   4.047 -0.3551  0.3121 -0.2726
  124MOL0     H16690   9.121   0.395   4.142  2.4589 -0.5467  1.3629
  124MOL0     H16691   9.061   0.007   4.187 -2.3148  4.7730 -2.4445
  124MOL0     H16692   9.275  -0.159   4.405  1.4304  2.6964  1.2489
  124MOL0     H16693   9.246  -0.186   4.230 -0.5587 -1.5224  1.1331
  124MOL0     H16694   9.500  -0.065   4.323 -4.6179  2.4951  2.0779
  124MOL0     H16695   9.467  -0.245   4.300 -2.2136 -1.1511 -1.1247
  124MOL0     H16696   9.438  -0.022   4.099  2.1515  0.6966 -1.2100
  124MOL0     H16697   9.425  -0.194   4.052  0.4532 -0.8794  1.0771
  124MOL0     H16698   9.662  -0.219   4.102  1.6626  0.6441  1.2278
  124MOL0     H16699   9.673  -0.056   4.161  1.0929 -1.5634  0.2589
  124MOL0     H16700   9.706   0.046   3.727  0.0824  1.7035  2.7374
  124MOL0     H16701   9.931   0.046   3.623  0.2653  0.1345  0.2717
  124MOL0     H16702  10.391  -0.375   3.748  0.2113 -1.8407 -5.2026
  124MOL0     H16703  10.622  -0.415   3.692  0.4046 -0.5448 -3.5591
  124MOL0     H16704  10.865  -0.096   3.475  3.2838  0.7019 -0.7876
  124MOL0     H16705  10.856  -0.021   3.637  0.0311  0.7249 -2.4042
  124MOL0     H16706  11.088  -0.087   3.553 -3.3410  3.4632 -0.7790
  124MOL0     H16707  11.042  -0.148   3.712  0.1983 -4.3714  0.9073
  124MOL0     H16708  10.993  -0.363   3.622 -1.0863  0.5450 -1.1089
  124MOL0     H16709  10.996  -0.305   3.452 -1.5308 -0.2950 -0.5604
  124MOL0     H16710  11.236  -0.366   3.645 -1.5183 -1.2804  0.6412
  124MOL0     H16711  11.250  -0.253   3.504  1.1985 -0.8251  0.2062
  124MOL0     H16712  11.308  -0.523   3.485 -0.0915 -1.2939  4.2131
  124MOL0     H16713  11.193  -0.456   3.359 -0.9794 -3.3389 -0.8529
  124MOL0     H16714  11.124  -0.589   3.627  2.0686 -0.6910 -0.1551
  124MOL0     H16715  11.011  -0.555   3.490 -0.4145 -3.0270  0.4373
  124MOL0     H16716  11.240  -0.750   3.477 -0.8844  2.5087  0.3757
  124MOL0     H16717  11.148  -0.697   3.336 -0.3065 -0.2834 -0.5381
  124MOL0     H16718  11.052  -0.831   3.585  2.0612  4.9082  1.0259
  124MOL0     H16719  10.942  -0.766   3.467  0.0771 -0.0669  0.4960
  124MOL0     H16720  10.622  -0.003   3.558 -4.4356 -0.2527 -2.4926
  124MOL0     H16721  10.390   0.020   3.624  0.9820  0.1558  0.2025
  124MOL0     H16722  10.068  -0.224   3.921  0.2977 -0.7476 -0.2162
  124MOL0     H16723   9.864  -0.196   4.048 -0.6652 -2.9473 -1.0458
  124MOL0     H16724   8.017   0.864   4.021 -3.0956  1.9344 -4.0397
  124MOL0     H16725   7.776   0.872   4.062  1.1415  0.1764 -1.0139
  124MOL0     H16726   7.443   0.446   4.003 -1.3991 -1.6280 -0.4696
  124MOL0     H16727   7.214   0.373   3.985  0.5330  1.6692 -1.6974
  124MOL0     H16728   6.906   0.659   4.179 -2.1343  0.2411 -2.0669
  124MOL0     H16729   6.911   0.502   4.271 -2.6113  0.8369  0.8218
  124MOL0     H16730   6.688   0.477   4.191  2.8545 -1.5104  1.2000
  124MOL0     H16731   6.787   0.404   4.070 -4.2986 -0.4941  0.3370
  124MOL0     H16732   6.781   0.628   3.950  1.4872  3.0498  2.4101
  124MOL0     H16733   6.649   0.673   4.060  0.0302 -0.0211 -0.0567
  124MOL0     H16734   6.559   0.591   3.864 -2.6625  2.5109  2.0012
  124MOL0     H16735   6.645   0.430   3.886  0.1787 -0.5876 -0.7114
  124MOL0     H16736   6.320   0.353   4.142  2.5815  1.7453  4.1570
  124MOL0     H16737   7.112   0.694   4.266 -0.8396  1.5970 -2.5648
  124MOL0     H16738   7.452   0.838   4.282 -0.2523 -0.3429 -1.3248
  124MOL0     H16739   7.273   0.876   4.296 -1.6942 -3.0552  0.0838
  124MOL0     H16740   7.334   0.758   4.404  0.4145 -1.2351  0.1735
  125MOL0     O16741   5.009   7.678   3.726  0.4355  0.2593 -0.3306
  125MOL0     C16742   4.975   7.777   3.796  0.2348  0.0338  0.8817
  125MOL0     O16743   5.049   7.832   3.893 -0.1517  0.2998 -0.5439
  125MOL0     C16744   5.156   7.778   3.959 -0.5177 -0.0403  0.0955
  125MOL0     C16745   5.225   7.869   4.043  0.4298 -0.4570  0.2841
  125MOL0     C16746   5.349   7.839   4.092 -0.2602  0.5295  0.0373
  125MOL0     C16747   5.400   7.705   4.082  0.4485 -0.1836 -0.5117
  125MOL0     O16748   5.522   7.667   4.121  0.3784  0.6179 -0.9292
  125MOL0     C16749   5.625   7.747   4.181  0.2562  0.3422 -0.3030
  125MOL0     C16750   5.750   7.658   4.203 -0.1075 -0.9144  0.5395
  125MOL0     C16751   5.865   7.734   4.269  1.1923 -0.9574 -0.4788
  125MOL0     C16752   5.987   7.649   4.287 -0.2722 -1.0617  0.3499
  125MOL0     C16753   6.078   7.647   4.167 -0.1568  0.1974  0.4902
  125MOL0     C16754   6.230   7.638   4.196 -0.5042 -0.4994 -0.7962
  125MOL0     C16755   6.292   7.775   4.222 -0.0714 -0.5026  0.3513
  125MOL0     C16756   6.399   7.824   4.122  0.4855  0.6402  0.1942
  125MOL0     N16757   6.536   7.787   4.167 -0.0562 -0.1855 -0.1267
  125MOL0     C16758   6.571   7.679   4.237  0.5835  0.0948  0.2417
  125MOL0     C16759   6.705   7.685   4.235  0.1610  0.4613 -0.3011
  125MOL0     C16760   6.793   7.569   4.286 -0.2320  0.5822  0.2621
  125MOL0     C16761   6.939   7.610   4.319  0.7198  0.4084 -0.9859
  125MOL0     C16762   7.041   7.498   4.290  0.4696 -0.4773 -0.9892
  125MOL0     C16763   7.181   7.538   4.342 -0.4194 -0.5539  0.4221
  125MOL0     O16764   7.187   7.505   4.484 -0.1158  0.2139  0.2633
  125MOL0     C16765   7.315   7.480   4.523 -1.2300 -0.0673  1.2933
  125MOL0     C16766   7.367   7.351   4.532 -0.1763  0.7407  0.4465
  125MOL0     C16767   7.505   7.335   4.560  0.0376 -0.5852 -0.8559
  125MOL0     C16768   7.588   7.441   4.603  0.1941  0.1205  0.5113
  125MOL0     C16769   7.727   7.412   4.651 -0.2600  0.0208  0.3973
  125MOL0     O16770   7.807   7.517   4.672  0.1607  0.2393  0.1251
  125MOL0     C16771   7.932   7.495   4.728  0.1553 -0.0914  0.2553
  125MOL0     C16772   7.962   7.433   4.849  0.7857  0.4222  0.3333
  125MOL0     C16773   8.087   7.433   4.903  0.4191 -0.5142  0.3669
  125MOL0     C16774   8.201   7.476   4.835  0.1258 -0.7348  0.6750
  125MOL0     O16775   8.319   7.448   4.899 -0.5294  0.2168  0.0196
  125MOL0     C16776   8.423   7.385   4.821 -0.3473  0.0763 -0.3273
  125MOL0     C16777   8.522   7.500   4.780  0.1160 -0.3891  0.9221
  125MOL0     C16778   8.586   7.455   4.644  0.9399 -0.6164 -0.3295
  125MOL0     C16779   8.639   7.305   4.644  1.0918 -0.1622  0.5373
  125MOL0     C16780   8.682   7.288   4.501 -0.9502 -1.4185 -0.1720
  125MOL0     C16781   8.703   7.144   4.461 -1.0527  1.6339 -0.3160
  125MOL0     C16782   8.818   7.089   4.549  0.3748 -0.8851  0.0748
  125MOL0     C16783   8.870   6.945   4.502  0.1260 -0.1367  0.5648
  125MOL0    Cl16784   8.769   6.819   4.569  0.3282 -0.1816 -0.6976
  125MOL0     C16785   8.179   7.532   4.708 -0.2119  0.4182 -0.1857
  125MOL0     C16786   8.051   7.549   4.665 -1.5677 -1.1740 -0.6844
  125MOL0     O16787   7.760   7.295   4.662  0.7249 -0.2623 -0.1821
  125MOL0     C16788   7.541   7.568   4.597  0.2006  0.0210  0.9596
  125MOL0     C16789   7.410   7.588   4.556  0.9066  0.2849 -0.8890
  125MOL0     N16790   6.743   7.790   4.157  1.3816 -0.5142  0.2181
  125MOL0     N16791   6.647   7.857   4.112  0.1743 -0.1508  0.7882
  125MOL0     C16792   5.317   7.607   4.025 -1.3877  0.8885  0.0051
  125MOL0     C16793   5.199   7.643   3.966 -0.1381  0.0517 -0.7410
  125MOL0     C16794   4.858   7.853   3.753 -0.6520  0.2695 -0.0951
  125MOL0     C16795   4.758   7.780   3.687  0.6589  0.0721 -0.1641
  125MOL0     C16796   4.651   7.839   3.618 -0.2606  0.6458 -0.4216
  125MOL0     C16797   4.628   7.977   3.629 -0.8819  0.1977 -0.4908
  125MOL0     O16798   4.518   8.052   3.584 -0.3527  0.0235 -0.3444
  125MOL0     C16799   4.417   7.981   3.521  0.1682 -0.6193 -0.2955
  125MOL0     C16800   4.322   7.928   3.627  0.8680  0.5921 -0.7855
  125MOL0     C16801   4.216   7.832   3.579 -0.5381 -0.1087 -0.1226
  125MOL0     C16802   4.072   7.854   3.630 -0.5147 -0.2882  0.0679
  125MOL0     C16803   3.980   7.759   3.572 -0.5639 -0.5095  0.4307
  125MOL0     C16804   3.895   7.676   3.545  0.3093  0.2629  0.1914
  125MOL0     C16805   4.725   8.042   3.694  0.2140 -0.4448 -1.3785
  125MOL0     C16806   4.833   7.997   3.761 -0.4625  0.0629  1.0419
  125MOL0     C16807   4.929   8.101   3.818 -0.3058  0.4811 -0.5413
  125MOL0     H16808   5.170   7.962   4.049  0.3035 -0.6330  2.5359
  125MOL0     H16809   5.400   7.924   4.136  0.3220  0.0660  0.2739
  125MOL0     H16810   5.658   7.831   4.120  1.2136  1.7333  2.0003
  125MOL0     H16811   5.596   7.791   4.277 -0.5996 -0.6972 -0.0686
  125MOL0     H16812   5.776   7.622   4.102 -3.5397 -1.6760 -0.1970
  125MOL0     H16813   5.712   7.577   4.266 -1.9288 -1.3477 -0.9997
  125MOL0     H16814   5.834   7.777   4.365  2.4564  0.0476 -0.4954
  125MOL0     H16815   5.887   7.819   4.204  1.5766  0.9209  1.9262
  125MOL0     H16816   6.047   7.689   4.369 -0.6902  1.2046 -0.3895
  125MOL0     H16817   5.955   7.546   4.306 -0.0781 -1.0724  0.6358
  125MOL0     H16818   6.043   7.556   4.116 -0.4558 -0.5837  2.0222
  125MOL0     H16819   6.050   7.737   4.112 -0.6054 -0.4046 -0.3093
  125MOL0     H16820   6.239   7.575   4.285 -0.9510  0.6322  0.0739
  125MOL0     H16821   6.279   7.591   4.110 -2.2754 -1.8772 -1.1306
  125MOL0     H16822   6.330   7.773   4.325  1.9334  1.2551 -0.2720
  125MOL0     H16823   6.216   7.853   4.212  1.6891  1.0664 -1.9254
  125MOL0     H16824   6.398   7.773   4.025  1.9246  2.1890 -0.7001
  125MOL0     H16825   6.391   7.931   4.099 -0.6484  0.3099 -1.0869
  125MOL0     H16826   6.504   7.601   4.270 -1.2143 -0.3246 -3.8104
  125MOL0     H16827   6.756   7.527   4.380 -0.4460 -0.5507 -0.3076
  125MOL0     H16828   6.785   7.484   4.217 -0.5957  0.6831  0.1795
  125MOL0     H16829   6.970   7.688   4.249 -0.3863 -0.0065 -1.9632
  125MOL0     H16830   6.953   7.658   4.416  2.2885  1.9178 -1.8986
  125MOL0     H16831   7.051   7.491   4.181  4.9639  2.7580 -1.0339
  125MOL0     H16832   7.019   7.407   4.347  1.3076 -1.0975 -1.6273
  125MOL0     H16833   7.213   7.639   4.317  2.7192 -1.8084 -1.1386
  125MOL0     H16834   7.254   7.475   4.291 -2.9746 -3.5844  0.1279
  125MOL0     H16835   7.306   7.262   4.518  3.4143 -1.8411 -0.1884
  125MOL0     H16836   7.546   7.235   4.574  2.6717  0.3765 -1.1349
  125MOL0     H16837   7.880   7.389   4.904  0.3266 -0.7909 -1.2440
  125MOL0     H16838   8.091   7.387   5.001 -2.5817  1.0261  1.3422
  125MOL0     H16839   8.483   7.311   4.873  0.4137 -1.3078 -2.9966
  125MOL0     H16840   8.376   7.336   4.735 -0.5153  1.1392 -0.8672
  125MOL0     H16841   8.464   7.593   4.776  0.2423 -0.1818  3.0005
  125MOL0     H16842   8.605   7.512   4.850  1.0006 -2.8500  0.4049
  125MOL0     H16843   8.517   7.474   4.561 -0.3663  0.9292  1.0487
  125MOL0     H16844   8.676   7.514   4.624  1.6268 -2.4073 -3.1084
  125MOL0     H16845   8.559   7.236   4.672  1.1345  0.4426  2.2710
  125MOL0     H16846   8.723   7.290   4.712  0.6701  0.7665  1.2740
  125MOL0     H16847   8.780   7.336   4.490 -0.0830 -3.0956 -0.0616
  125MOL0     H16848   8.609   7.337   4.436 -1.3303  1.0050  1.9124
  125MOL0     H16849   8.611   7.084   4.466  0.4852 -0.8086  3.4098
  125MOL0     H16850   8.739   7.140   4.358 -1.3368 -2.0568 -0.3729
  125MOL0     H16851   8.786   7.080   4.653  2.1131  0.6855  0.7922
  125MOL0     H16852   8.902   7.159   4.557 -0.8815  0.9163 -1.5613
  125MOL0     H16853   8.872   6.947   4.393  4.4351 -0.4383  0.4792
  125MOL0     H16854   8.970   6.920   4.538 -0.2163 -0.6919  1.1652
  125MOL0     H16855   8.268   7.565   4.655  0.8069  2.4472  2.5537
  125MOL0     H16856   8.051   7.585   4.563  0.6048 -0.9453 -0.6432
  125MOL0     H16857   7.611   7.646   4.624 -0.2937  0.1148  2.0355
  125MOL0     H16858   7.369   7.688   4.549  0.0135  0.2128  1.9730
  125MOL0     H16859   5.351   7.505   4.017 -2.8366  0.3504  0.4843
  125MOL0     H16860   5.138   7.571   3.912 -0.8953 -1.3890  1.8693
  125MOL0     H16861   4.759   7.672   3.685 -1.8577  0.0027 -0.2030
  125MOL0     H16862   4.571   7.773   3.586 -1.2006  1.6896 -0.3162
  125MOL0     H16863   4.458   7.892   3.472  0.6393 -0.6818  0.2004
  125MOL0     H16864   4.368   8.042   3.445  1.2200 -1.5369 -1.7545
  125MOL0     H16865   4.266   8.016   3.661 -1.8056 -1.1141 -0.4715
  125MOL0     H16866   4.379   7.874   3.703 -0.4517 -1.2159 -1.0117
  125MOL0     H16867   4.247   7.733   3.611  0.1847 -0.1774 -0.9874
  125MOL0     H16868   4.219   7.816   3.471 -0.0864  3.5467 -0.7781
  125MOL0     H16869   4.070   7.862   3.739  2.7778  0.0364  0.2112
  125MOL0     H16870   4.037   7.953   3.600  1.7490  0.8424  0.9534
  125MOL0     H16871   3.818   7.605   3.520 -0.2869  0.2830  1.8951
  125MOL0     H16872   4.713   8.150   3.690  0.1875 -0.4146 -0.5748
  125MOL0     H16873   5.031   8.064   3.803 -0.9876 -1.5102 -0.5408
  125MOL0     H16874   4.909   8.190   3.757 -0.9596 -1.1549 -2.8413
  125MOL0     H16875   4.904   8.116   3.923  0.3970 -1.5640 -0.0313
  126MOL0     O16876   3.093   4.532   2.415 -0.6361  0.0231  0.4524
  126MOL0     C16877   3.075   4.428   2.354  0.1308  0.7626 -0.2584
  126MOL0     O16878   2.989   4.329   2.395 -0.5978 -0.6187 -0.2168
  126MOL0     C16879   2.869   4.356   2.460 -0.3484  0.0123  0.1959
  126MOL0     C16880   2.817   4.246   2.520 -0.1785  0.1071 -0.6391
  126MOL0     C16881   2.695   4.246   2.585 -0.7450 -0.1997  0.4304
  126MOL0     C16882   2.621   4.366   2.587  0.3337 -0.8699  0.5722
  126MOL0     O16883   2.503   4.385   2.663  0.0850 -0.7488  0.9772
  126MOL0     C16884   2.417   4.276   2.670  0.2343  0.3292 -0.0289
  126MOL0     C16885   2.339   4.267   2.805  0.9344  1.2751  0.2946
  126MOL0     C16886   2.411   4.188   2.920  0.6046 -0.9180 -0.3544
  126MOL0     C16887   2.349   4.063   2.977  0.8883  0.7708  0.2514
  126MOL0     C16888   2.205   4.076   3.038  0.0116 -0.2826  0.2627
  126MOL0     C16889   2.152   3.941   3.089  0.9802  0.2263 -0.3136
  126MOL0     C16890   2.007   3.954   3.149  0.2563 -0.1037  1.3942
  126MOL0     C16891   1.934   3.821   3.164 -0.9442  0.8344  0.2319
  126MOL0     N16892   2.027   3.714   3.219  0.0801 -0.1198 -0.0987
  126MOL0     C16893   2.065   3.719   3.351  0.3146  0.4758 -0.2119
  126MOL0     C16894   2.171   3.620   3.357  0.7962 -0.2652  0.3951
  126MOL0     C16895   2.241   3.578   3.483  0.2548  0.3255 -0.5550
  126MOL0     C16896   2.151   3.527   3.591 -0.0191  0.1945 -1.5344
  126MOL0     C16897   2.051   3.421   3.545 -0.0564 -0.0571  0.3778
  126MOL0     C16898   2.126   3.297   3.501 -1.3802  0.5677  0.1492
  126MOL0     O16899   2.248   3.276   3.573 -0.1555  0.1746  0.1005
  126MOL0     C16900   2.281   3.153   3.625  0.0440  0.4954 -0.1433
  126MOL0     C16901   2.416   3.126   3.650  0.7500  0.2872  0.3686
  126MOL0     C16902   2.455   2.996   3.693  0.1441 -0.2384 -0.4904
  126MOL0     C16903   2.360   2.905   3.740  0.4102 -0.5159 -1.7189
  126MOL0     C16904   2.398   2.787   3.823 -0.2489 -0.3333 -0.0357
  126MOL0     O16905   2.307   2.678   3.826 -0.5978 -0.7705  0.6834
  126MOL0     C16906   2.321   2.555   3.882 -0.4361  0.1191 -0.0923
  126MOL0     C16907   2.441   2.502   3.929  0.5666  0.2273 -0.4220
  126MOL0     C16908   2.432   2.372   3.987  0.3424  0.0309 -0.2640
  126MOL0     C16909   2.309   2.307   3.997  0.4276 -0.1418  0.1637
  126MOL0     O16910   2.319   2.182   4.053 -0.1123  0.3020 -0.2591
  126MOL0     C16911   2.221   2.071   4.029  0.4317 -0.2632 -0.7503
  126MOL0     C16912   2.283   1.942   4.083 -0.0567 -0.5856  0.7160
  126MOL0     C16913   2.401   1.887   4.000  0.4644  0.1182  0.3798
  126MOL0     C16914   2.524   1.974   3.976 -0.4365  0.0895  0.5212
  126MOL0     C16915   2.640   1.875   3.923 -0.3266  0.3696  0.4763
  126MOL0     C16916   2.775   1.954   3.919  0.3699  1.0040  0.8272
  126MOL0     C16917   2.835   1.979   4.055  0.7386  0.1851  0.2240
  126MOL0     C16918   2.982   1.997   4.042 -0.6638 -1.0626 -0.1136
  126MOL0    Cl16919   3.053   2.093   4.179  0.0956  0.3645  0.1338
  126MOL0     C16920   2.194   2.359   3.955  0.3847 -0.5561  0.5725
  126MOL0     C16921   2.204   2.483   3.894  0.3532 -0.4726 -0.3294
  126MOL0     O16922   2.506   2.782   3.879 -0.0606 -0.0386 -0.6608
  126MOL0     C16923   2.224   2.928   3.716  0.0716 -0.1704  0.2565
  126MOL0     C16924   2.183   3.048   3.660 -0.2813 -0.0386  0.2241
  126MOL0     N16925   2.176   3.559   3.234 -0.0750 -0.1972 -0.4205
  126MOL0     N16926   2.096   3.617   3.158  0.1496 -0.0790 -0.0381
  126MOL0     C16927   2.674   4.475   2.514 -0.5708 -0.4692 -0.5010
  126MOL0     C16928   2.797   4.467   2.445  1.1981  0.7151 -0.8406
  126MOL0     C16929   3.179   4.392   2.250  1.0826  0.0892  0.6022
  126MOL0     C16930   3.304   4.444   2.255 -0.1503 -0.4601  0.1934
  126MOL0     C16931   3.410   4.410   2.164  0.1911  0.1681  0.3377
  126MOL0     C16932   3.383   4.319   2.067 -0.5963  0.2111 -0.5279
  126MOL0     O16933   3.480   4.285   1.976 -1.1559  0.4171 -0.4756
  126MOL0     C16934   3.613   4.257   2.018  0.4530 -0.3531 -0.0657
  126MOL0     C16935   3.682   4.225   1.886  0.2906  0.5546  0.2523
  126MOL0     C16936   3.755   4.348   1.831 -0.1120 -0.4264 -0.5256
  126MOL0     C16937   3.806   4.330   1.690  0.0421 -0.0294 -0.2849
  126MOL0     C16938   3.881   4.450   1.659 -0.0420  1.1389  0.1118
  126MOL0     C16939   3.945   4.547   1.631  0.2381 -0.1236  0.1529
  126MOL0     C16940   3.254   4.271   2.048  0.2177  0.1974 -0.4581
  126MOL0     C16941   3.150   4.303   2.144  0.4042  1.2572  1.1298
  126MOL0     C16942   3.015   4.245   2.117  0.0903  0.4915  0.0299
  126MOL0     H16943   2.878   4.156   2.513  0.2661  0.2574  1.0665
  126MOL0     H16944   2.679   4.159   2.649  0.6835 -1.8996 -1.4028
  126MOL0     H16945   2.342   4.291   2.592 -0.1123 -1.5280 -0.1024
  126MOL0     H16946   2.475   4.185   2.656  3.5389  1.9094  2.0841
  126MOL0     H16947   2.257   4.198   2.784  2.2966 -0.2050 -0.4118
  126MOL0     H16948   2.305   4.367   2.834  2.7032  1.7590  0.8093
  126MOL0     H16949   2.424   4.260   3.002  0.7106  0.4032 -1.4891
  126MOL0     H16950   2.505   4.151   2.878  0.6565 -3.2891  1.6408
  126MOL0     H16951   2.335   3.989   2.898  2.4393  1.1983 -0.4602
  126MOL0     H16952   2.415   4.024   3.056  1.2248  1.2320  0.2078
  126MOL0     H16953   2.208   4.155   3.114  0.0250  1.2479 -1.2503
  126MOL0     H16954   2.139   4.113   2.959 -0.1046  0.2978  0.6182
  126MOL0     H16955   2.162   3.876   3.001  2.6336 -0.3315  0.2363
  126MOL0     H16956   2.215   3.901   3.170  0.9176 -1.2344 -0.9449
  126MOL0     H16957   1.943   4.021   3.091 -4.1003 -1.0948  4.5486
  126MOL0     H16958   2.023   4.000   3.247  1.6521 -0.0536  1.1603
  126MOL0     H16959   1.843   3.830   3.224 -1.8361 -1.2400 -0.7155
  126MOL0     H16960   1.903   3.796   3.062  2.0515  1.3742 -0.9167
  126MOL0     H16961   2.031   3.782   3.432 -2.3556 -2.5733  1.2528
  126MOL0     H16962   2.319   3.504   3.464 -0.9586 -0.9206 -0.8856
  126MOL0     H16963   2.286   3.669   3.523 -0.4953  0.4080  0.1498
  126MOL0     H16964   2.213   3.489   3.672 -1.7781  1.6164  0.5982
  126MOL0     H16965   2.109   3.617   3.637  0.9558 -0.1224  0.0495
  126MOL0     H16966   2.004   3.458   3.454  2.6106  0.9260 -0.7160
  126MOL0     H16967   1.981   3.391   3.624 -1.2991  1.2272 -0.1942
  126MOL0     H16968   2.151   3.308   3.396  0.5633  0.6992  0.5878
  126MOL0     H16969   2.065   3.206   3.504  2.8554 -2.6764 -2.1405
  126MOL0     H16970   2.497   3.198   3.638  1.4281 -0.7598 -1.7135
  126MOL0     H16971   2.560   2.985   3.716 -0.2432 -0.4178  1.3016
  126MOL0     H16972   2.541   2.542   3.916  1.2582 -1.4524 -0.6270
  126MOL0     H16973   2.519   2.321   4.027 -1.2553 -2.3430  0.3998
  126MOL0     H16974   2.123   2.091   4.072  0.5094  1.4912 -1.3346
  126MOL0     H16975   2.220   2.053   3.921  3.8116 -3.2802 -0.4817
  126MOL0     H16976   2.327   1.952   4.183 -0.8123 -1.7260  1.1770
  126MOL0     H16977   2.203   1.868   4.088 -0.5878 -0.1470 -0.7354
  126MOL0     H16978   2.428   1.800   4.060 -1.2805 -0.6649  0.0847
  126MOL0     H16979   2.362   1.852   3.904 -4.0242 -1.7072  2.5344
  126MOL0     H16980   2.547   2.028   4.068  2.7826  0.4771 -0.3946
  126MOL0     H16981   2.510   2.049   3.897  0.2863  1.2611  1.4599
  126MOL0     H16982   2.622   1.832   3.825  1.2493  0.0678  0.2910
  126MOL0     H16983   2.650   1.783   3.981  1.4363 -0.1500 -0.6035
  126MOL0     H16984   2.846   1.893   3.862  0.5611 -0.0131  2.1131
  126MOL0     H16985   2.766   2.052   3.872  0.3674  2.0491  2.9020
  126MOL0     H16986   2.810   1.895   4.122 -0.5026  0.4761  0.1434
  126MOL0     H16987   2.794   2.073   4.094  0.5177 -0.5903  2.0021
  126MOL0     H16988   3.043   1.906   4.041  2.3066  0.6971  1.6603
  126MOL0     H16989   3.005   2.060   3.956  0.7461  1.6050  2.0465
  126MOL0     H16990   2.099   2.307   3.964  1.3822 -2.3496  1.4296
  126MOL0     H16991   2.109   2.521   3.858  0.6442 -1.4589 -2.2688
  126MOL0     H16992   2.161   2.843   3.738  0.4486 -0.6205 -0.3675
  126MOL0     H16993   2.080   3.060   3.630 -0.3021 -0.6274  0.0430
  126MOL0     H16994   2.613   4.564   2.524  0.3631 -0.0687  3.1935
  126MOL0     H16995   2.829   4.553   2.387  2.3051  1.2776  0.5575
  126MOL0     H16996   3.332   4.505   2.341 -1.3056 -2.8009  2.3641
  126MOL0     H16997   3.512   4.444   2.178  1.2728 -1.6471 -2.3379
  126MOL0     H16998   3.605   4.165   2.076 -1.0603 -0.3030 -0.1445
  126MOL0     H16999   3.658   4.337   2.077 -1.7500 -1.1856  3.0262
  126MOL0     H17000   3.603   4.190   1.819 -1.1357  1.9619  1.1386
  126MOL0     H17001   3.759   4.148   1.894  1.6434  1.6215 -1.6576
  126MOL0     H17002   3.840   4.363   1.898  0.9226 -1.2446 -1.6083
  126MOL0     H17003   3.689   4.435   1.834 -1.0623 -1.1163 -0.9528
  126MOL0     H17004   3.875   4.246   1.690  0.5841  0.3958 -1.4512
  126MOL0     H17005   3.728   4.310   1.615  0.5771 -4.7974  0.1463
  126MOL0     H17006   3.999   4.633   1.597 -0.4317  0.8743  1.4938
  126MOL0     H17007   3.234   4.202   1.967 -0.6867  0.3235 -0.3531
  126MOL0     H17008   2.934   4.313   2.088 -0.1727 -0.3939 -1.4400
  126MOL0     H17009   3.023   4.174   2.034 -1.3089 -2.6065  2.3400
  126MOL0     H17010   2.974   4.181   2.196 -0.2732  0.8844  0.1636
  127MOL0     O17011   1.677   2.449  10.198  0.0157 -0.2147 -0.2275
  127MOL0     C17012   1.615   2.554  10.168  0.3491  0.1373  0.6095
  127MOL0     O17013   1.668   2.668  10.111  0.8452 -0.1275  0.0653
  127MOL0     C17014   1.796   2.690  10.106 -0.6583 -0.2992 -0.5152
  127MOL0     C17015   1.833   2.820  10.131 -0.9539  0.4330 -0.5448
  127MOL0     C17016   1.961   2.858  10.102  0.2694  0.8669  0.3340
  127MOL0     C17017   2.055   2.764  10.036  0.4240 -0.8206  0.1558
  127MOL0     O17018   2.181   2.801  10.000 -0.2129  0.4050  0.4870
  127MOL0     C17019   2.294   2.724  10.036  1.2620 -0.2027  0.3859
  127MOL0     C17020   2.378   2.697   9.913 -0.1208  0.3929 -0.0732
  127MOL0     C17021   2.519   2.649   9.959 -0.6446 -0.1618 -0.2036
  127MOL0     C17022   2.614   2.602   9.857  0.3124  0.6924  0.0270
  127MOL0     C17023   2.741   2.543   9.922  0.2667  0.1178  0.3559
  127MOL0     C17024   2.839   2.505   9.804 -0.9206 -0.0120 -0.1529
  127MOL0     C17025   2.971   2.442   9.854 -0.4617 -0.1610  0.3729
  127MOL0     C17026   3.057   2.428   9.728 -0.0725 -0.7645 -1.0835
  127MOL0     N17027   3.152   2.534   9.732 -0.1134 -0.0652  0.0424
  127MOL0     C17028   3.127   2.670   9.729  0.2250 -0.5033  0.3873
  127MOL0     C17029   3.245   2.730   9.731 -0.0364  0.3590 -0.0495
  127MOL0     C17030   3.280   2.879   9.751  0.8018  0.1279 -0.0036
  127MOL0     C17031   3.433   2.891   9.714  0.5595  0.2008  0.1639
  127MOL0     C17032   3.467   3.034   9.724 -0.1044 -0.2341  0.0350
  127MOL0     C17033   3.618   3.055   9.707 -0.0263 -0.8439 -0.7812
  127MOL0     O17034   3.664   3.191   9.721 -0.4478 -0.1522  0.6033
  127MOL0     C17035   3.800   3.198   9.733 -0.1566  0.1614  0.0017
  127MOL0     C17036   3.842   3.324   9.774  0.1527 -0.1414  0.4144
  127MOL0     C17037   3.979   3.357   9.803  0.4597 -0.0400 -0.0215
  127MOL0     C17038   4.076   3.254   9.787  0.1007  0.6089 -0.5250
  127MOL0     C17039   4.208   3.269   9.854  0.0523 -0.2069 -0.4452
  127MOL0     O17040   4.230   3.383   9.927  0.7906  0.0021  0.0112
  127MOL0     C17041   4.355   3.423   9.960 -0.5029 -0.2416 -0.4609
  127MOL0     C17042   4.483   3.367   9.930  0.6734  0.0727 -0.7612
  127MOL0     C17043   4.590   3.430   9.980 -0.2023  0.3356  0.5796
  127MOL0     C17044   4.590   3.532  10.071  1.0872 -0.5710  0.3315
  127MOL0     O17045   4.706   3.588  10.119  0.0636  0.0515 -0.0133
  127MOL0     C17046   4.712   3.729  10.100 -0.3628 -0.0906 -1.0457
  127MOL0     C17047   4.854   3.781  10.152 -0.3066 -0.1315 -0.1568
  127MOL0     C17048   4.979   3.699  10.098 -0.4688  0.0570  0.9158
  127MOL0     C17049   5.114   3.757  10.160  0.4858  0.2346 -0.3734
  127MOL0     C17050   5.229   3.664  10.119 -0.1645  0.1522  0.2698
  127MOL0     C17051   5.355   3.732  10.168  0.5919 -0.7736  0.6148
  127MOL0     C17052   5.485   3.644  10.147  0.2202 -0.2596 -0.4689
  127MOL0     C17053   5.615   3.695  10.203 -0.1471 -0.3972  0.2616
  127MOL0    Cl17054   5.596   3.740  10.372  0.5831  0.0729 -0.3414
  127MOL0     C17055   4.466   3.579  10.112  0.0385  0.0265  0.4784
  127MOL0     C17056   4.351   3.533  10.048  0.0156 -0.0736 -0.0283
  127MOL0     O17057   4.285   3.172   9.835 -0.1273 -0.6139 -0.5945
  127MOL0     C17058   4.036   3.126   9.735  0.2504  0.1578 -0.5151
  127MOL0     C17059   3.897   3.101   9.718  1.0420 -0.4517 -0.0032
  127MOL0     N17060   3.339   2.636   9.738 -0.3256  0.3697 -0.3168
  127MOL0     N17061   3.295   2.516   9.738 -1.0012 -0.2078 -0.4017
  127MOL0     C17062   2.016   2.633  10.013 -0.3519 -0.6191 -0.1866
  127MOL0     C17063   1.884   2.605  10.042 -0.4140  1.4354  0.3237
  127MOL0     C17064   1.473   2.554  10.197  0.5863 -0.6704 -0.0942
  127MOL0     C17065   1.413   2.684  10.231 -0.9953  0.3974  0.0633
  127MOL0     C17066   1.273   2.691  10.252 -0.4134 -0.4904 -0.3844
  127MOL0     C17067   1.198   2.582  10.252 -0.0997  0.3258 -0.1488
  127MOL0     O17068   1.067   2.588  10.289 -0.0645 -0.1422 -0.7207
  127MOL0     C17069   0.989   2.630  10.174 -0.1613 -0.8825 -0.5280
  127MOL0     C17070   0.861   2.698  10.226  0.4244 -0.1279  0.3330
  127MOL0     C17071   0.773   2.598  10.291  0.7114  0.3678  0.5528
  127MOL0     C17072   0.625   2.661  10.322  1.0981  0.6538  0.2642
  127MOL0     C17073   0.541   2.576  10.404  0.3296  0.2108  0.1524
  127MOL0     C17074   0.470   2.513  10.467  0.1541 -0.5505  0.2441
  127MOL0     C17075   1.246   2.464  10.198  0.8447 -0.4583 -0.1664
  127MOL0     C17076   1.382   2.442  10.184  0.3641  1.1438  0.4775
  127MOL0     C17077   1.418   2.319  10.108  0.6468 -0.8420 -0.2510
  127MOL0     H17078   1.767   2.891  10.180 -1.9055 -0.3741 -0.6390
  127MOL0     H17079   1.992   2.958  10.130 -1.2358  1.3962  0.2305
  127MOL0     H17080   2.359   2.775  10.108 -0.1561 -0.4751  1.9081
  127MOL0     H17081   2.260   2.630  10.080  1.5143 -1.1185 -1.2955
  127MOL0     H17082   2.391   2.792   9.859  2.6329  1.1836  1.7917
  127MOL0     H17083   2.327   2.622   9.851 -0.7464  0.5068  0.2904
  127MOL0     H17084   2.523   2.562  10.025 -0.3594 -2.3639 -2.9450
  127MOL0     H17085   2.571   2.729  10.014 -0.8143  0.5084 -1.0006
  127MOL0     H17086   2.567   2.520   9.803 -0.0347  0.0455  1.2955
  127MOL0     H17087   2.637   2.685   9.789 -2.4421  1.3696 -0.2133
  127MOL0     H17088   2.791   2.615   9.987  1.3275  2.8902 -3.1893
  127MOL0     H17089   2.705   2.451   9.968 -4.0085  1.3502 -0.1316
  127MOL0     H17090   2.794   2.436   9.732  0.2940  1.8047 -2.8407
  127MOL0     H17091   2.850   2.602   9.755 -1.1888  0.3662  0.5195
  127MOL0     H17092   2.939   2.345   9.892 -3.9924 -0.2992 -2.3823
  127MOL0     H17093   3.017   2.505   9.931 -1.8583  0.4033  0.7692
  127MOL0     H17094   3.099   2.327   9.731 -1.0420 -1.1535  1.6068
  127MOL0     H17095   2.992   2.434   9.641 -2.6714  1.1728  0.8433
  127MOL0     H17096   3.034   2.726   9.725  0.3582 -0.3506 -0.9701
  127MOL0     H17097   3.228   2.939   9.676 -1.1054 -1.9301 -0.4323
  127MOL0     H17098   3.255   2.901   9.854  3.0616 -1.7589  1.0678
  127MOL0     H17099   3.504   2.845   9.783 -1.7206 -0.3894  2.2892
  127MOL0     H17100   3.453   2.858   9.612  1.4825  2.2576 -0.3743
  127MOL0     H17101   3.426   3.081   9.814 -0.2299  1.5315 -0.9042
  127MOL0     H17102   3.410   3.099   9.657 -1.6208  0.5793  2.0148
  127MOL0     H17103   3.635   3.029   9.602  2.0089  0.2774 -0.7847
  127MOL0     H17104   3.662   2.983   9.776  0.0380  0.0947  0.1927
  127MOL0     H17105   3.768   3.401   9.793  2.3401  2.2574 -0.2753
  127MOL0     H17106   4.003   3.455   9.844 -1.1888  0.6603 -0.6123
  127MOL0     H17107   4.486   3.281   9.864 -1.9370  1.2900 -2.6350
  127MOL0     H17108   4.692   3.404   9.953 -0.3120  1.4183 -1.0245
  127MOL0     H17109   4.703   3.742   9.992 -1.4145  1.8793 -0.7862
  127MOL0     H17110   4.627   3.773  10.154 -0.0553 -2.8244  1.9984
  127MOL0     H17111   4.858   3.888  10.129 -0.8134 -0.3391 -1.2584
  127MOL0     H17112   4.849   3.774  10.261  1.9182  0.1769  0.0135
  127MOL0     H17113   4.968   3.597  10.135  0.5831 -0.6331 -0.5920
  127MOL0     H17114   4.991   3.695   9.990 -2.1224  0.0471  0.7050
  127MOL0     H17115   5.100   3.775  10.267 -0.6161 -0.6271 -0.3564
  127MOL0     H17116   5.134   3.853  10.112  1.0678  0.4346  0.2589
  127MOL0     H17117   5.233   3.643  10.012  0.2402  0.6554  0.1805
  127MOL0     H17118   5.226   3.568  10.171  2.6079 -1.5977 -2.5240
  127MOL0     H17119   5.378   3.820  10.108 -0.2709  2.2440  4.3111
  127MOL0     H17120   5.335   3.765  10.270 -1.9258  1.9892 -0.6075
  127MOL0     H17121   5.497   3.615  10.043  3.0026 -1.8442  0.2017
  127MOL0     H17122   5.462   3.545  10.188  1.8574  0.7565  3.3714
  127MOL0     H17123   5.705   3.631  10.204 -0.3255 -0.6711 -0.3571
  127MOL0     H17124   5.647   3.788  10.156 -0.0261  2.2455  4.9747
  127MOL0     H17125   4.454   3.662  10.180 -4.9957 -1.1389  1.3799
  127MOL0     H17126   4.264   3.593  10.075  1.4396  2.3147 -0.4051
  127MOL0     H17127   4.104   3.041   9.731  0.6636  0.1410  3.3929
  127MOL0     H17128   3.866   3.003   9.682  1.1842  0.2731 -2.2837
  127MOL0     H17129   2.093   2.568   9.973  0.4221  0.4643 -0.5019
  127MOL0     H17130   1.838   2.514  10.004 -2.3587  2.2096  0.6809
  127MOL0     H17131   1.472   2.772  10.255 -3.8184  2.3460  0.3920
  127MOL0     H17132   1.229   2.790  10.258  2.2299  0.9025 -2.1783
  127MOL0     H17133   0.964   2.539  10.117  0.2878 -1.5015  0.2343
  127MOL0     H17134   1.035   2.705  10.109  1.7968 -1.3002  0.2884
  127MOL0     H17135   0.814   2.744  10.138  0.2729  0.9433  0.9508
  127MOL0     H17136   0.887   2.774  10.300  1.8929 -0.0626 -0.2224
  127MOL0     H17137   0.816   2.558  10.384  0.3339 -1.4816 -0.0124
  127MOL0     H17138   0.764   2.513  10.223 -1.1699  0.1550  1.0097
  127MOL0     H17139   0.644   2.751  10.382 -1.1139  1.0623  0.4144
  127MOL0     H17140   0.575   2.677  10.226  0.5103  2.0068  0.7674
  127MOL0     H17141   0.440   2.437  10.536  3.4874 -0.8371  1.5688
  127MOL0     H17142   1.176   2.386  10.172  2.2735 -3.1037  3.1800
  127MOL0     H17143   1.484   2.360  10.030  1.7722  2.0544  2.0349
  127MOL0     H17144   1.463   2.235  10.162  2.2676  1.2020  1.7582
  127MOL0     H17145   1.327   2.285  10.058 -0.2714  0.3427  0.5542
  128MOL0     O17146   1.047   0.932   3.163  0.3166 -0.2951  0.1812
  128MOL0     C17147   1.142   0.865   3.122  0.1909  0.6829  0.7498
  128MOL0     O17148   1.136   0.763   3.033 -0.5732  0.1217 -0.3924
  128MOL0     C17149   1.009   0.730   2.994 -0.4730  0.4413 -0.1751
  128MOL0     C17150   0.965   0.768   2.862 -0.0915  0.3587 -0.5247
  128MOL0     C17151   0.826   0.754   2.821  0.2898 -1.3857 -0.1181
  128MOL0     C17152   0.731   0.710   2.912 -0.3151 -0.1141  0.3967
  128MOL0     O17153   0.596   0.713   2.889  0.0431 -0.3326 -0.0234
  128MOL0     C17154   0.543   0.835   2.836 -0.2016 -0.7435 -0.3925
  128MOL0     C17155   0.393   0.856   2.872 -0.3031 -0.5462 -0.4199
  128MOL0     C17156   0.307   0.746   2.802 -0.2248 -0.3064  0.6982
  128MOL0     C17157   0.267   0.772   2.649 -0.6966 -0.0241 -0.8230
  128MOL0     C17158   0.194   0.654   2.584 -0.0790 -0.0150 -0.1408
  128MOL0     C17159   0.255   0.515   2.583 -0.5307  0.5321 -0.5723
  128MOL0     C17160   0.403   0.512   2.551 -0.9263 -0.6538 -0.9482
  128MOL0     C17161   0.456   0.371   2.548 -0.0503  0.6003 -0.6514
  128MOL0     N17162   0.598   0.380   2.585  0.7210 -0.1377 -0.4103
  128MOL0     C17163   0.653   0.369   2.711 -0.5873  0.3625  0.3491
  128MOL0     C17164   0.788   0.373   2.690 -0.2006 -0.2882  0.4668
  128MOL0     C17165   0.901   0.378   2.782  0.3894 -0.1547 -0.6949
  128MOL0     C17166   1.037   0.432   2.741  0.2830 -0.6019  0.0282
  128MOL0     C17167   1.133   0.437   2.870 -0.4900 -0.1451  0.4112
  128MOL0     C17168   1.252   0.523   2.823 -0.0167 -0.0092  0.7351
  128MOL0     O17169   1.360   0.482   2.908  0.3459  0.4288 -0.0667
  128MOL0     C17170   1.485   0.535   2.891 -0.9935  0.7846 -0.9537
  128MOL0     C17171   1.514   0.645   2.816 -0.2778  0.0166 -0.3754
  128MOL0     C17172   1.648   0.688   2.807  0.2909 -0.2998  0.1585
  128MOL0     C17173   1.749   0.611   2.869  0.0166 -0.6047  0.0467
  128MOL0     C17174   1.895   0.649   2.855  0.1154 -0.0823  0.4520
  128MOL0     O17175   1.921   0.759   2.781 -0.4758  0.3032 -0.4691
  128MOL0     C17176   2.040   0.821   2.809  0.8597 -0.8393 -0.1954
  128MOL0     C17177   2.082   0.857   2.937 -0.9284 -0.7682 -0.6352
  128MOL0     C17178   2.215   0.906   2.953 -0.3472  0.0880 -0.2844
  128MOL0     C17179   2.299   0.919   2.845  0.1847  0.1894  0.5834
  128MOL0     O17180   2.438   0.951   2.861  0.1601  0.4147 -0.5288
  128MOL0     C17181   2.467   1.053   2.963  0.1293 -0.0538  0.0981
  128MOL0     C17182   2.614   1.113   2.946 -0.2369 -0.5490  0.4282
  128MOL0     C17183   2.711   0.998   2.955  0.0778 -0.2221  0.6957
  128MOL0     C17184   2.857   1.039   2.962  0.5932  0.7454  0.5680
  128MOL0     C17185   2.952   0.981   2.855  0.6538 -0.0124  0.3162
  128MOL0     C17186   3.102   0.991   2.899 -0.1019 -0.8574  0.1940
  128MOL0     C17187   3.186   0.904   2.803  0.7094 -0.4045 -0.1934
  128MOL0     C17188   3.327   0.898   2.860 -0.5829 -0.2181  0.9227
  128MOL0    Cl17189   3.444   0.858   2.732  0.3015 -0.0075 -0.0032
  128MOL0     C17190   2.244   0.895   2.717  0.2717  0.0314 -0.4611
  128MOL0     C17191   2.118   0.841   2.697 -0.2316 -0.1079 -0.3071
  128MOL0     O17192   1.970   0.578   2.917  0.4576  0.1519 -0.8526
  128MOL0     C17193   1.715   0.499   2.947  0.1065  0.9974  0.3213
  128MOL0     C17194   1.584   0.466   2.965  0.4441  0.1084 -0.0532
  128MOL0     N17195   0.817   0.375   2.550 -0.7626  0.2559 -0.6489
  128MOL0     N17196   0.701   0.370   2.491 -0.6867 -0.5768  0.0496
  128MOL0     C17197   0.778   0.663   3.033 -0.4506  0.5130 -0.6145
  128MOL0     C17198   0.912   0.674   3.078  0.3881  1.2753  0.5599
  128MOL0     C17199   1.269   0.906   3.170  0.1147  0.2079  0.6982
  128MOL0     C17200   1.299   1.046   3.177 -0.8430  0.2842 -0.0269
  128MOL0     C17201   1.430   1.083   3.217 -0.1245 -1.1043 -0.1488
  128MOL0     C17202   1.528   0.982   3.251  0.7250  0.1388 -0.8013
  128MOL0     O17203   1.653   1.001   3.295  0.2937  0.1961  0.2726
  128MOL0     C17204   1.706   1.132   3.302 -0.0487  0.6177 -0.1642
  128MOL0     C17205   1.841   1.127   3.356  0.3063 -0.5910  0.8127
  128MOL0     C17206   1.925   1.026   3.281  0.5396  0.4971  0.8641
  128MOL0     C17207   2.077   1.062   3.309 -0.1321 -0.3035 -0.1728
  128MOL0     C17208   2.115   1.053   3.446  0.1805  0.3623 -0.0024
  128MOL0     C17209   2.128   1.063   3.563  0.3529  1.0786  0.1113
  128MOL0     C17210   1.485   0.848   3.259  0.2926  0.6952 -0.1848
  128MOL0     C17211   1.358   0.802   3.222  0.2864  0.0686  0.1255
  128MOL0     C17212   1.326   0.658   3.236  0.1563  0.2959  0.1304
  128MOL0     H17213   1.032   0.803   2.784 -0.3812 -1.8728 -1.8525
  128MOL0     H17214   0.780   0.782   2.727 -2.4912 -1.0721  1.2207
  128MOL0     H17215   0.606   0.916   2.874  0.0764 -0.9324 -0.4405
  128MOL0     H17216   0.545   0.841   2.726 -1.1121  1.0171 -0.3501
  128MOL0     H17217   0.344   0.952   2.852 -2.2318 -1.1513  1.0191
  128MOL0     H17218   0.380   0.840   2.980  1.5816 -1.1497 -0.2397
  128MOL0     H17219   0.216   0.764   2.861  0.2827 -2.0339  2.0972
  128MOL0     H17220   0.354   0.649   2.820 -1.0676 -0.5999  1.4319
  128MOL0     H17221   0.198   0.857   2.643 -1.7761 -0.9638 -2.5370
  128MOL0     H17222   0.364   0.789   2.602 -1.8788  0.0301 -3.3891
  128MOL0     H17223   0.105   0.638   2.645  2.5777 -3.2069  3.3276
  128MOL0     H17224   0.171   0.667   2.478  1.0164  0.4728 -0.3353
  128MOL0     H17225   0.250   0.489   2.689  2.9286  0.3802 -0.3461
  128MOL0     H17226   0.207   0.442   2.518 -1.2572 -2.1493  2.7217
  128MOL0     H17227   0.453   0.570   2.629 -1.4330 -2.1091  0.5089
  128MOL0     H17228   0.433   0.567   2.461  1.1358 -0.8148 -0.4065
  128MOL0     H17229   0.398   0.310   2.617 -2.2942  2.9740 -0.2915
  128MOL0     H17230   0.436   0.329   2.449  2.7323  2.0098 -1.9219
  128MOL0     H17231   0.604   0.370   2.807  0.0035 -0.2181  0.6597
  128MOL0     H17232   0.871   0.430   2.874  0.8831  0.4406 -0.8626
  128MOL0     H17233   0.916   0.271   2.800  1.9776 -0.0810 -1.4635
  128MOL0     H17234   1.079   0.367   2.664 -0.0228 -0.6145 -0.1295
  128MOL0     H17235   1.032   0.534   2.703  2.9710 -0.4111 -0.0517
  128MOL0     H17236   1.168   0.334   2.881 -0.0473 -0.2028 -1.2528
  128MOL0     H17237   1.084   0.469   2.961 -1.8317 -0.1545 -0.2835
  128MOL0     H17238   1.234   0.625   2.857  2.0437  0.4757  0.4977
  128MOL0     H17239   1.271   0.509   2.716 -2.1058  0.1062  0.2965
  128MOL0     H17240   1.435   0.702   2.767  0.1742  0.8041 -0.2021
  128MOL0     H17241   1.683   0.780   2.760  2.3066 -0.9334  0.3415
  128MOL0     H17242   2.015   0.837   3.020 -0.3583 -1.8618 -0.4259
  128MOL0     H17243   2.248   0.923   3.055 -0.0492  0.5498 -0.4546
  128MOL0     H17244   2.406   1.143   2.956 -0.0011 -0.2424 -1.4371
  128MOL0     H17245   2.460   1.017   3.066 -1.6530  0.9079  0.3439
  128MOL0     H17246   2.629   1.157   2.847 -1.5227  2.8351  1.6143
  128MOL0     H17247   2.640   1.187   3.022  1.7544 -2.8438  2.1775
  128MOL0     H17248   2.692   0.933   3.041 -0.3568 -0.9256  0.0764
  128MOL0     H17249   2.690   0.938   2.866 -2.2415  1.3900  0.0612
  128MOL0     H17250   2.904   1.007   3.056  0.4144  0.8231  0.6837
  128MOL0     H17251   2.873   1.147   2.966  1.0635  0.6742  0.8008
  128MOL0     H17252   2.943   1.055   2.774 -0.9323 -0.1189  0.3794
  128MOL0     H17253   2.918   0.878   2.842 -2.0809  0.5352  2.4393
  128MOL0     H17254   3.130   1.097   2.905 -0.2326 -0.8326  0.3695
  128MOL0     H17255   3.109   0.953   3.001  0.7473 -2.2143 -0.3415
  128MOL0     H17256   3.184   0.949   2.704  1.7272  0.7480  0.2779
  128MOL0     H17257   3.135   0.808   2.790 -5.6497  2.6482 -2.0228
  128MOL0     H17258   3.359   0.998   2.888  0.1104 -0.0358 -0.4300
  128MOL0     H17259   3.348   0.813   2.925  0.6860 -2.7137 -2.4299
  128MOL0     H17260   2.307   0.910   2.630  2.8776 -0.9524  1.1562
  128MOL0     H17261   2.077   0.822   2.598 -0.3788  3.0845 -0.9737
  128MOL0     H17262   1.789   0.437   2.998  1.4044  1.3898 -1.0198
  128MOL0     H17263   1.542   0.383   3.022 -0.8102  0.0575 -1.0111
  128MOL0     H17264   0.704   0.615   3.095  0.6217 -0.5011 -0.0770
  128MOL0     H17265   0.938   0.652   3.181  4.0216  2.4955  0.0559
  128MOL0     H17266   1.229   1.116   3.134  0.2674  1.4197 -0.0353
  128MOL0     H17267   1.452   1.189   3.213 -2.4372 -0.4837  1.3833
  128MOL0     H17268   1.640   1.194   3.363  0.1625  0.7629 -0.0841
  128MOL0     H17269   1.710   1.176   3.202  0.0476 -0.6285 -0.7312
  128MOL0     H17270   1.824   1.116   3.464 -0.6481 -1.1140  0.6191
  128MOL0     H17271   1.878   1.228   3.339 -1.3127 -0.0965  0.0279
  128MOL0     H17272   1.908   1.021   3.173  0.8657 -3.5613  0.8440
  128MOL0     H17273   1.906   0.922   3.311 -1.0536 -0.6497 -3.3211
  128MOL0     H17274   2.137   0.992   3.251  1.1877 -0.1425  0.9497
  128MOL0     H17275   2.096   1.162   3.270  1.0631 -1.0819 -1.6820
  128MOL0     H17276   2.156   1.066   3.666  0.2367 -1.4250  0.2724
  128MOL0     H17277   1.533   0.766   3.312 -1.3328  0.9044  1.7513
  128MOL0     H17278   1.385   0.606   3.160  1.1051  1.0799  0.3160
  128MOL0     H17279   1.345   0.616   3.335 -0.4496 -1.2781 -0.3916
  128MOL0     H17280   1.220   0.637   3.216  0.7913 -0.1388 -3.3253
  129MOL0     O17281  10.396   1.953  10.706 -0.4021 -0.4876 -0.5869
  129MOL0     C17282  10.305   1.990  10.637  0.3200 -0.2919  0.0628
  129MOL0     O17283  10.303   2.108  10.559  0.1698 -0.0716  1.2859
  129MOL0     C17284  10.382   2.216  10.584  0.3106  0.7799 -1.1950
  129MOL0     C17285  10.456   2.263  10.481 -0.1781  0.3747  0.0495
  129MOL0     C17286  10.552   2.360  10.494  0.8344 -0.4420 -0.4793
  129MOL0     C17287  10.574   2.418  10.620  0.5962  0.3541  0.0406
  129MOL0     O17288  10.680   2.510  10.627 -0.1799  0.3149  0.0656
  129MOL0     C17289  10.647   2.632  10.697  1.4378 -0.7071  0.0676
  129MOL0     C17290  10.770   2.714  10.718 -0.6646  0.1009 -0.5412
  129MOL0     C17291  10.834   2.761  10.591 -1.2286  0.5995 -0.7819
  129MOL0     C17292  10.948   2.862  10.633 -1.0009  0.0376 -1.0728
  129MOL0     C17293  11.033   2.908  10.516  0.1797  0.4996 -0.2618
  129MOL0     C17294  11.121   3.034  10.528 -0.3795 -0.1145  0.6103
  129MOL0     C17295  11.241   3.010  10.625  0.4640 -0.3329  0.7219
  129MOL0     C17296  11.342   3.126  10.617 -0.0072 -0.0173 -0.0549
  129MOL0     N17297  11.441   3.128  10.729 -0.5483 -0.1017 -0.2842
  129MOL0     C17298  11.431   3.060  10.847 -1.1420 -0.3890  0.2055
  129MOL0     C17299  11.553   3.093  10.909  0.9446  0.3508  0.1755
  129MOL0     C17300  11.609   3.056  11.043  0.6399 -0.9429  1.2233
  129MOL0     C17301  11.697   2.941  11.019  0.5454  0.1864 -0.2277
  129MOL0     C17302  11.791   2.910  11.138  0.2326  1.0335  0.4866
  129MOL0     C17303  11.896   2.815  11.087 -0.8359  0.6097 -0.8136
  129MOL0     O17304  11.992   2.863  10.997  0.1040 -0.0319  0.4822
  129MOL0     C17305  12.092   2.944  11.044  0.1458 -1.0601 -0.4628
  129MOL0     C17306  12.201   2.882  11.100 -0.3181 -0.5429  0.8333
  129MOL0     C17307  12.307   2.961  11.159 -0.0391 -0.5149 -0.2173
  129MOL0     C17308  12.303   3.105  11.147 -0.5883  0.1954 -0.0957
  129MOL0     C17309  12.407   3.199  11.197 -0.8210  0.0715  0.9604
  129MOL0     O17310  12.536   3.153  11.188  0.5883 -0.4007 -0.4574
  129MOL0     C17311  12.646   3.228  11.216  0.2237 -0.1385 -0.5235
  129MOL0     C17312  12.671   3.354  11.167  0.7326  0.3382  0.6179
  129MOL0     C17313  12.791   3.422  11.188 -0.3070 -0.5378  0.0401
  129MOL0     C17314  12.884   3.366  11.284 -1.2914 -0.5341  0.0859
  129MOL0     O17315  13.009   3.416  11.311 -0.3282 -0.8008 -0.4929
  129MOL0     C17316  13.021   3.516  11.415  0.2895  0.4080 -0.4271
  129MOL0     C17317  13.067   3.647  11.346 -0.3979 -0.3678  0.0170
  129MOL0     C17318  13.085   3.765  11.449  0.3704  0.0510 -1.0699
  129MOL0     C17319  13.149   3.895  11.398  0.5646 -0.8091 -0.2354
  129MOL0     C17320  13.062   3.941  11.266 -0.3306  0.0970 -0.1852
  129MOL0     C17321  13.126   4.082  11.223  0.1157  0.4699 -0.1002
  129MOL0     C17322  13.018   4.139  11.130 -0.7533  0.2823 -0.0818
  129MOL0     C17323  13.030   4.291  11.114  1.0025 -0.9935  0.0393
  129MOL0    Cl17324  12.876   4.340  11.031 -0.6280 -0.0824  0.2752
  129MOL0     C17325  12.855   3.234  11.343  0.1248  0.2092  0.2897
  129MOL0     C17326  12.741   3.167  11.304  0.5058 -0.2018 -0.5181
  129MOL0     O17327  12.366   3.314  11.233  1.3460  0.7270 -0.4667
  129MOL0     C17328  12.195   3.159  11.088  0.5709  0.7920  0.0176
  129MOL0     C17329  12.091   3.082  11.040  0.1519  0.8367 -0.0718
  129MOL0     N17330  11.628   3.181  10.830  0.3475 -0.6072 -0.0893
  129MOL0     N17331  11.562   3.190  10.716  0.0409 -0.2003  0.3833
  129MOL0     C17332  10.492   2.375  10.731  0.5793 -0.0565 -0.1767
  129MOL0     C17333  10.401   2.267  10.714  0.0274 -0.5279 -0.1147
  129MOL0     C17334  10.189   1.903  10.624  0.2038 -0.5009 -0.3890
  129MOL0     C17335  10.210   1.785  10.550 -0.0506 -1.8735  0.3074
  129MOL0     C17336  10.096   1.720  10.512 -0.5533 -0.1361 -0.2159
  129MOL0     C17337   9.961   1.756  10.535 -0.4675 -1.4176  0.3358
  129MOL0     O17338   9.863   1.670  10.499 -0.0429 -0.0241  0.0240
  129MOL0     C17339   9.745   1.738  10.434 -0.2881 -0.0404 -0.3134
  129MOL0     C17340   9.655   1.653  10.346  0.7232 -0.2338  0.1475
  129MOL0     C17341   9.589   1.538  10.415 -0.0644 -0.4898 -0.2304
  129MOL0     C17342   9.547   1.431  10.308 -0.4646  0.1623 -0.2825
  129MOL0     C17343   9.435   1.351  10.362 -0.8320  1.0328  0.4705
  129MOL0     C17344   9.346   1.278  10.402  0.1563  0.4483  0.1388
  129MOL0     C17345   9.948   1.863  10.626  0.1746  0.4827 -0.4352
  129MOL0     C17346  10.059   1.943  10.668 -0.1349  0.0423 -0.2374
  129MOL0     C17347  10.042   2.047  10.776 -0.6201  0.1171  0.2576
  129MOL0     H17348  10.438   2.217  10.384 -0.4803  3.0391 -1.2349
  129MOL0     H17349  10.612   2.387  10.407  1.3934 -2.7901 -0.9121
  129MOL0     H17350  10.572   2.685  10.637  0.1783 -1.9481  0.4803
  129MOL0     H17351  10.593   2.616  10.790  0.8378  2.7901  0.4785
  129MOL0     H17352  10.844   2.654  10.773 -3.5487 -2.2869  1.0604
  129MOL0     H17353  10.759   2.796  10.789  1.3513  1.0544 -1.2564
  129MOL0     H17354  10.764   2.809  10.522 -1.7707 -0.7014 -1.1620
  129MOL0     H17355  10.874   2.674  10.537 -1.5902  0.3064 -0.5870
  129MOL0     H17356  10.899   2.950  10.676 -3.3276 -1.3575 -0.6969
  129MOL0     H17357  11.011   2.808  10.704 -2.4298  0.9152  0.9586
  129MOL0     H17358  11.101   2.830  10.480 -1.1851  0.0486 -1.9711
  129MOL0     H17359  10.959   2.924  10.437 -0.3614 -3.6771 -0.8404
  129MOL0     H17360  11.160   3.055  10.429 -2.1032  1.5547  0.2196
  129MOL0     H17361  11.059   3.120  10.555  1.6877  1.9797 -0.9664
  129MOL0     H17362  11.288   2.919  10.587  1.1232  0.8028 -1.2802
  129MOL0     H17363  11.205   2.993  10.727  0.6931  0.7499  0.9989
  129MOL0     H17364  11.400   3.125  10.524  2.2767  0.5741  1.2990
  129MOL0     H17365  11.293   3.223  10.622  3.8123  2.0166  1.8386
  129MOL0     H17366  11.357   2.991  10.887 -2.5470  0.0284 -1.5297
  129MOL0     H17367  11.674   3.137  11.076 -0.5099 -1.0170  3.8330
  129MOL0     H17368  11.539   3.035  11.124 -2.1554 -1.6194 -1.1986
  129MOL0     H17369  11.635   2.852  11.002  0.1714  0.1659  1.0974
  129MOL0     H17370  11.757   2.950  10.928 -1.7602  1.3296 -1.7284
  129MOL0     H17371  11.734   2.856  11.214 -0.8887 -2.4974 -2.5452
  129MOL0     H17372  11.840   3.004  11.167 -0.2315  3.1965 -4.5876
  129MOL0     H17373  11.840   2.735  11.038 -3.2926  0.6246  1.7457
  129MOL0     H17374  11.955   2.776  11.170  0.1391  2.1771 -0.7139
  129MOL0     H17375  12.204   2.774  11.096  0.0509 -0.5654  1.5267
  129MOL0     H17376  12.396   2.917  11.202 -0.4490 -0.8432  0.3185
  129MOL0     H17377  12.598   3.388  11.094  1.0057 -1.9117 -0.8276
  129MOL0     H17378  12.825   3.512  11.138 -0.9375  0.2405  0.9697
  129MOL0     H17379  12.922   3.530  11.459  0.2789 -0.9821  0.0512
  129MOL0     H17380  13.087   3.482  11.495 -0.6258  3.9337  2.0558
  129MOL0     H17381  13.158   3.632  11.288 -0.9281  1.4991 -1.3818
  129MOL0     H17382  12.996   3.674  11.268  0.0364  1.1809  0.1289
  129MOL0     H17383  12.987   3.786  11.493  0.0017 -3.9708  0.4324
  129MOL0     H17384  13.144   3.716  11.528  0.4826 -0.7264 -1.6208
  129MOL0     H17385  13.253   3.873  11.373  0.9849 -0.0531  0.7848
  129MOL0     H17386  13.141   3.970  11.477 -0.2564 -2.1995  1.0565
  129MOL0     H17387  12.959   3.957  11.299  0.2057  0.4889  1.4279
  129MOL0     H17388  13.071   3.865  11.188 -0.8233 -3.1135  2.6405
  129MOL0     H17389  13.139   4.148  11.310  0.6732 -2.5755  2.2930
  129MOL0     H17390  13.221   4.080  11.168  0.1779  0.6404 -0.0014
  129MOL0     H17391  12.919   4.129  11.175 -0.8820  1.4824 -0.0531
  129MOL0     H17392  13.017   4.092  11.031 -3.9258 -2.6498  1.1398
  129MOL0     H17393  13.037   4.348  11.208  0.0356  0.3061 -0.6531
  129MOL0     H17394  13.119   4.320  11.057  0.5443 -0.0766 -0.2315
  129MOL0     H17395  12.932   3.188  11.405 -0.8451 -1.8367  0.0538
  129MOL0     H17396  12.721   3.064  11.332  0.8784 -0.2421 -0.4026
  129MOL0     H17397  12.185   3.265  11.069 -1.6765  0.4885 -0.8024
  129MOL0     H17398  12.016   3.136  10.982 -0.3452 -0.6980 -0.9232
  129MOL0     H17399  10.526   2.405  10.829  3.3268 -1.7142 -0.5169
  129MOL0     H17400  10.337   2.241  10.797  1.2125  0.6950  1.2349
  129MOL0     H17401  10.312   1.760  10.523  1.0300  3.3467 -1.6222
  129MOL0     H17402  10.103   1.619  10.473 -0.8575  0.1936 -1.1502
  129MOL0     H17403   9.786   1.812  10.364  1.4829 -1.4897 -0.8967
  129MOL0     H17404   9.707   1.804  10.512  1.3775  1.0601 -0.3839
  129MOL0     H17405   9.705   1.615  10.257  0.8860 -0.8333  0.4853
  129MOL0     H17406   9.582   1.721  10.301 -0.8071 -1.4998  0.6191
  129MOL0     H17407   9.497   1.579  10.458 -1.4436 -2.4041 -1.2019
  129MOL0     H17408   9.650   1.495  10.495 -0.0044 -2.5779 -1.3332
  129MOL0     H17409   9.513   1.494  10.225  0.5437 -0.5131 -1.2415
  129MOL0     H17410   9.638   1.378  10.279 -0.8593 -0.1910 -0.8996
  129MOL0     H17411   9.262   1.230  10.448 -0.8214 -0.4044 -2.3543
  129MOL0     H17412   9.853   1.896  10.667 -0.6280 -1.8511 -0.2678
  129MOL0     H17413  10.047   2.148  10.733 -1.5244 -0.0336 -0.2063
  129MOL0     H17414   9.950   2.033  10.835 -1.0661 -1.4111 -0.7533
  129MOL0     H17415  10.132   2.046  10.838  0.3282  0.0708 -1.0908
  130MOL0     O17416   0.547   1.480   7.783 -0.0629 -0.6404  0.5394
  130MOL0     C17417   0.567   1.384   7.712  0.2001  1.0328  0.9366
  130MOL0     O17418   0.681   1.315   7.698 -0.5340  0.3375  0.2538
  130MOL0     C17419   0.805   1.374   7.704  0.2364 -0.1942 -0.4600
  130MOL0     C17420   0.832   1.512   7.695  0.2529  0.3415 -0.8109
  130MOL0     C17421   0.963   1.559   7.718  0.4544 -0.1848  0.2509
  130MOL0     C17422   1.064   1.475   7.740  0.9077  0.8290  1.3342
  130MOL0     O17423   1.193   1.523   7.757  0.3957  0.6581 -0.2523
  130MOL0     C17424   1.226   1.529   7.898  0.1293  0.7747  0.0430
  130MOL0     C17425   1.360   1.597   7.918  0.1560  0.0427 -0.6162
  130MOL0     C17426   1.345   1.747   7.923 -0.3859 -0.0087  0.6768
  130MOL0     C17427   1.483   1.806   7.876  0.4590 -0.1926 -0.3069
  130MOL0     C17428   1.579   1.797   8.010 -0.1250  0.2444  0.2038
  130MOL0     C17429   1.698   1.899   8.022  0.6958 -0.2169 -0.1182
  130MOL0     C17430   1.801   1.850   8.124 -0.2433  0.1022  0.5079
  130MOL0     C17431   1.755   1.835   8.262 -0.5848  0.5958  0.4665
  130MOL0     N17432   1.693   1.710   8.288  0.1402  0.1036  0.0360
  130MOL0     C17433   1.588   1.677   8.376 -1.1679 -0.9121  0.0338
  130MOL0     C17434   1.596   1.547   8.379 -0.7942 -0.3192 -0.4258
  130MOL0     C17435   1.514   1.445   8.461 -0.0563  0.0000 -0.3957
  130MOL0     C17436   1.416   1.358   8.378  0.2949  0.3156 -0.0704
  130MOL0     C17437   1.316   1.441   8.312 -0.0332  1.2137 -0.8136
  130MOL0     C17438   1.232   1.364   8.209  0.1144  0.1071 -0.2459
  130MOL0     O17439   1.116   1.448   8.186 -0.0428 -0.0335  0.3932
  130MOL0     C17440   0.995   1.395   8.146  0.3965 -0.0777 -0.0573
  130MOL0     C17441   0.967   1.265   8.113 -0.0979  0.6156 -0.2352
  130MOL0     C17442   0.837   1.210   8.091  0.0206 -0.7015  0.0801
  130MOL0     C17443   0.722   1.311   8.103  0.1806  0.1796  0.3409
  130MOL0     C17444   0.586   1.261   8.091  0.5512 -0.3347 -0.1260
  130MOL0     O17445   0.493   1.347   8.136  0.2369 -0.3776 -0.2138
  130MOL0     C17446   0.364   1.309   8.130  1.0916 -0.7394  0.2332
  130MOL0     C17447   0.299   1.334   8.013 -0.0664 -0.4868  0.3146
  130MOL0     C17448   0.155   1.310   8.003 -0.1551  0.9088 -0.1643
  130MOL0     C17449   0.086   1.254   8.100  0.6724  0.4954  0.4738
  130MOL0     O17450  -0.051   1.232   8.072  1.4332 -0.6920  0.0292
  130MOL0     C17451  -0.121   1.208   8.197 -0.4870 -0.3604 -0.8268
  130MOL0     C17452  -0.271   1.227   8.174 -0.0196 -0.4307 -0.0739
  130MOL0     C17453  -0.305   1.373   8.119  0.0114  0.1663  0.0910
  130MOL0     C17454  -0.460   1.376   8.111  0.0026 -0.1797  0.6655
  130MOL0     C17455  -0.511   1.508   8.051 -0.7823  0.9243 -0.0869
  130MOL0     C17456  -0.655   1.497   8.047  0.4970 -0.2948  0.8971
  130MOL0     C17457  -0.715   1.641   8.021 -0.1269  0.2028  0.7157
  130MOL0     C17458  -0.865   1.633   8.029 -0.9080  0.3448 -0.0056
  130MOL0    Cl17459  -0.936   1.569   7.882 -0.2330  0.4182  0.2959
  130MOL0     C17460   0.159   1.220   8.219  0.3034  0.4344 -0.5404
  130MOL0     C17461   0.299   1.244   8.238 -0.4405  0.8695  0.1433
  130MOL0     O17462   0.564   1.149   8.051 -0.2037  0.1618 -0.5088
  130MOL0     C17463   0.756   1.452   8.124  0.5490  0.4022  0.5808
  130MOL0     C17464   0.890   1.484   8.150  1.0116 -0.1222  0.8587
  130MOL0     N17465   1.696   1.504   8.292  0.5665 -0.1364 -0.5230
  130MOL0     N17466   1.762   1.600   8.241 -0.2420 -0.2315  0.1662
  130MOL0     C17467   1.040   1.338   7.729  0.4525 -0.3370  0.2285
  130MOL0     C17468   0.907   1.287   7.713 -1.0261  1.5682  0.4580
  130MOL0     C17469   0.448   1.316   7.671  1.0813 -0.8534  0.5697
  130MOL0     C17470   0.412   1.191   7.741 -1.1743  0.2862  0.7193
  130MOL0     C17471   0.280   1.138   7.728 -1.4064 -0.9179 -0.9207
  130MOL0     C17472   0.189   1.196   7.644 -0.0702  0.3593 -0.3518
  130MOL0     O17473   0.062   1.148   7.663 -0.1277 -0.2829 -0.1095
  130MOL0     C17474  -0.049   1.141   7.564  0.2082  0.4098  0.8264
  130MOL0     C17475  -0.177   1.155   7.638 -0.6325 -0.0594 -0.6027
  130MOL0     C17476  -0.222   1.020   7.703 -0.6833 -0.6387 -0.2613
  130MOL0     C17477  -0.324   1.062   7.809  0.4399 -0.1643 -0.2213
  130MOL0     C17478  -0.364   0.936   7.877  0.7926  0.4038  0.8029
  130MOL0     C17479  -0.401   0.826   7.921 -0.5245  0.3675  1.0370
  130MOL0     C17480   0.227   1.306   7.571  0.0813 -0.0332  0.3102
  130MOL0     C17481   0.355   1.371   7.587  0.4227  0.5386 -0.3837
  130MOL0     C17482   0.376   1.489   7.507 -0.3397 -0.4278  0.1675
  130MOL0     H17483   0.754   1.587   7.684  1.1274  1.6229  1.0544
  130MOL0     H17484   0.984   1.665   7.707  1.1697 -0.1659  1.5596
  130MOL0     H17485   1.142   1.571   7.954 -0.4501  0.3719 -0.5044
  130MOL0     H17486   1.240   1.427   7.934 -1.3937  0.5724  0.1176
  130MOL0     H17487   1.436   1.559   7.849  2.6487  1.7688  0.9824
  130MOL0     H17488   1.401   1.558   8.012  0.7191  0.1117 -0.8328
  130MOL0     H17489   1.326   1.786   8.024  0.3349 -0.1385  0.8712
  130MOL0     H17490   1.257   1.769   7.862  0.8055 -0.5398 -1.3400
  130MOL0     H17491   1.530   1.764   7.786 -0.0172 -1.5793  0.0594
  130MOL0     H17492   1.463   1.911   7.855 -2.1411 -0.3553  0.9679
  130MOL0     H17493   1.525   1.803   8.105  3.3606  0.3399  2.3365
  130MOL0     H17494   1.626   1.699   8.014  0.8199  0.5803 -1.7124
  130MOL0     H17495   1.745   1.907   7.923 -1.5228  2.3862 -1.1062
  130MOL0     H17496   1.670   2.005   8.029  1.7680  0.1670 -1.1731
  130MOL0     H17497   1.875   1.930   8.126  1.1883 -1.1796  2.1490
  130MOL0     H17498   1.850   1.760   8.087 -0.0376 -0.4671  2.0737
  130MOL0     H17499   1.845   1.829   8.324  1.3548  4.7554 -1.5816
  130MOL0     H17500   1.695   1.917   8.303 -0.8916 -0.5594  2.5172
  130MOL0     H17501   1.530   1.742   8.442 -1.2662 -2.7253  1.8478
  130MOL0     H17502   1.584   1.369   8.499 -0.4048  0.1580  0.5688
  130MOL0     H17503   1.462   1.495   8.543 -4.0357  1.5174 -3.5341
  130MOL0     H17504   1.469   1.304   8.299  0.2120 -3.2639  2.0815
  130MOL0     H17505   1.390   1.278   8.449  1.4572 -0.0064  0.0164
  130MOL0     H17506   1.362   1.533   8.272  2.6050  0.4198  0.2294
  130MOL0     H17507   1.242   1.466   8.388  2.4358  0.5057  2.0013
  130MOL0     H17508   1.202   1.266   8.247  0.8361  0.0845  0.2756
  130MOL0     H17509   1.299   1.342   8.124  0.8133  0.4613  0.2015
  130MOL0     H17510   1.039   1.185   8.096 -0.2303  0.2030  1.0224
  130MOL0     H17511   0.822   1.106   8.066 -1.3086 -0.6966  0.7718
  130MOL0     H17512   0.353   1.377   7.930  1.8080 -0.7764  1.3327
  130MOL0     H17513   0.112   1.322   7.904  2.1005 -1.5618 -1.5623
  130MOL0     H17514  -0.102   1.103   8.223  1.8739  0.3502  0.5840
  130MOL0     H17515  -0.093   1.279   8.275 -0.8290 -0.0692 -0.9663
  130MOL0     H17516  -0.316   1.147   8.115  1.1569 -0.5784 -0.7955
  130MOL0     H17517  -0.321   1.228   8.272  0.0773  1.0180 -0.0033
  130MOL0     H17518  -0.258   1.444   8.188  4.6066  1.0573 -3.4422
  130MOL0     H17519  -0.251   1.380   8.024 -0.5941 -1.8095 -0.4291
  130MOL0     H17520  -0.509   1.366   8.209 -1.2103 -2.9374 -0.1386
  130MOL0     H17521  -0.496   1.292   8.051  1.3541 -1.1513  1.1589
  130MOL0     H17522  -0.477   1.514   7.947  0.0934  1.8524  0.2375
  130MOL0     H17523  -0.478   1.600   8.100 -1.6386  2.4649 -2.2219
  130MOL0     H17524  -0.670   1.435   7.958  4.5808 -1.6208  0.9185
  130MOL0     H17525  -0.703   1.452   8.135 -0.8637 -1.9028 -0.5811
  130MOL0     H17526  -0.662   1.684   7.936  1.4572 -0.7968  1.1647
  130MOL0     H17527  -0.696   1.697   8.113  2.0362 -0.2954  0.6189
  130MOL0     H17528  -0.888   1.565   8.112  0.2575  0.7638  0.6856
  130MOL0     H17529  -0.884   1.737   8.059  3.8282  0.7510  2.6982
  130MOL0     H17530   0.111   1.172   8.304  2.9325  1.9855  2.0446
  130MOL0     H17531   0.360   1.222   8.325  4.2545  1.4920 -2.6271
  130MOL0     H17532   0.682   1.529   8.142  0.0086 -0.5645  2.9703
  130MOL0     H17533   0.905   1.588   8.180 -3.8864  1.5314 -1.3451
  130MOL0     H17534   1.122   1.267   7.728  0.0886 -0.8189 -2.4617
  130MOL0     H17535   0.881   1.182   7.721 -1.3790  1.6699  0.7009
  130MOL0     H17536   0.474   1.152   7.821 -1.0919  3.3377  2.3123
  130MOL0     H17537   0.254   1.057   7.796 -1.5345 -1.4588 -1.6048
  130MOL0     H17538  -0.046   1.051   7.503 -2.5614  0.3093  0.7534
  130MOL0     H17539  -0.039   1.224   7.493  0.5386 -0.4537 -0.1527
  130MOL0     H17540  -0.246   1.198   7.565  0.0229  2.1540 -0.0168
  130MOL0     H17541  -0.168   1.237   7.710  0.1046  2.0368 -2.9395
  130MOL0     H17542  -0.136   0.975   7.753 -0.2393 -0.8339 -1.1819
  130MOL0     H17543  -0.259   0.953   7.625 -0.1286  0.3867 -1.4410
  130MOL0     H17544  -0.269   1.124   7.880 -1.1935  1.3701 -0.2337
  130MOL0     H17545  -0.408   1.126   7.779  3.2412  3.3597 -1.1604
  130MOL0     H17546  -0.415   0.731   7.969  4.5096 -1.6524 -0.7342
  130MOL0     H17547   0.147   1.359   7.521 -0.0408 -0.8997 -0.4434
  130MOL0     H17548   0.470   1.472   7.453 -0.3523 -0.1878  0.0684
  130MOL0     H17549   0.306   1.500   7.424 -0.1352  0.5765  0.1104
  130MOL0     H17550   0.373   1.581   7.566 -1.3319  0.1393 -0.7402
  131MOL0     O17551   4.980   5.818   7.525 -0.2865 -0.4078  1.1044
  131MOL0     C17552   4.976   5.912   7.451  0.0332 -0.1933  0.1428
  131MOL0     O17553   5.087   5.965   7.384  0.1199  1.0007 -0.0341
  131MOL0     C17554   5.211   5.910   7.419  0.1146 -0.1062  1.0181
  131MOL0     C17555   5.251   5.789   7.361 -0.7421  0.1693  0.0528
  131MOL0     C17556   5.371   5.725   7.413 -0.6274 -0.1777  0.2621
  131MOL0     C17557   5.457   5.795   7.502 -0.2689 -0.4609 -0.3927
  131MOL0     O17558   5.588   5.762   7.540 -0.0598 -0.6197 -0.3901
  131MOL0     C17559   5.673   5.717   7.428 -0.0061 -0.3106 -0.1966
  131MOL0     C17560   5.817   5.750   7.449 -0.0824 -0.5189  0.4629
  131MOL0     C17561   5.872   5.685   7.582  0.0025  0.9063  0.6085
  131MOL0     C17562   6.022   5.643   7.569  0.3914  0.7196 -1.0341
  131MOL0     C17563   6.065   5.585   7.703 -1.0784 -0.0935 -1.3115
  131MOL0     C17564   6.201   5.530   7.700  0.4630  0.8122 -0.2748
  131MOL0     C17565   6.221   5.446   7.821  0.4748 -0.0251 -0.1371
  131MOL0     C17566   6.332   5.343   7.806  0.0434  0.5696  1.0069
  131MOL0     N17567   6.344   5.259   7.926  0.6016  1.1440  0.2515
  131MOL0     C17568   6.353   5.305   8.056  0.0665  0.3315 -0.2794
  131MOL0     C17569   6.324   5.204   8.139  0.4862 -0.7089 -0.3749
  131MOL0     C17570   6.313   5.215   8.288  0.0684  1.0964  0.0283
  131MOL0     C17571   6.414   5.126   8.359  0.1380  0.3874 -0.8544
  131MOL0     C17572   6.409   5.128   8.503 -0.4471 -0.9715 -0.1637
  131MOL0     C17573   6.555   5.127   8.556  0.2092  0.1759 -0.1313
  131MOL0     O17574   6.546   5.165   8.696 -0.0271  0.5347 -0.2903
  131MOL0     C17575   6.655   5.166   8.778  0.2678  0.4366 -0.3419
  131MOL0     C17576   6.781   5.141   8.741  0.2514  0.5004 -0.6633
  131MOL0     C17577   6.882   5.135   8.831  0.8752  0.5767 -0.3219
  131MOL0     C17578   6.859   5.160   8.967 -0.0734 -0.1304 -0.6084
  131MOL0     C17579   6.979   5.143   9.060 -0.1474 -0.4134 -0.2689
  131MOL0     O17580   6.943   5.129   9.191  0.0764  0.5636  0.0693
  131MOL0     C17581   7.033   5.086   9.288  0.2806  0.1392 -0.5011
  131MOL0     C17582   7.104   4.973   9.268 -0.8608 -0.1454 -1.1053
  131MOL0     C17583   7.158   4.905   9.378 -0.6861  0.4708  0.0805
  131MOL0     C17584   7.148   4.949   9.511  0.1437  0.3837 -0.3335
  131MOL0     O17585   7.203   4.862   9.610  0.1284  0.3108  0.4042
  131MOL0     C17586   7.149   4.885   9.743 -0.1414 -1.3213  0.4770
  131MOL0     C17587   7.196   4.775   9.842 -0.8689  1.0740  0.1425
  131MOL0     C17588   7.344   4.755   9.838  0.0524  0.0747  0.6254
  131MOL0     C17589   7.396   4.875   9.919  0.2318 -0.4560 -0.7550
  131MOL0     C17590   7.551   4.873   9.926  0.4189  0.4144 -0.2545
  131MOL0     C17591   7.618   4.983  10.000 -0.7888  0.4058  0.9826
  131MOL0     C17592   7.774   4.978   9.988  0.9196  0.5848  0.2296
  131MOL0     C17593   7.830   5.022   9.852 -0.2970 -1.7730 -0.5705
  131MOL0    Cl17594   7.761   5.195   9.813 -0.4701  0.3032  0.1387
  131MOL0     C17595   7.086   5.073   9.529  0.3142 -0.5133  0.0174
  131MOL0     C17596   7.018   5.140   9.417 -0.6729 -0.0293 -0.1666
  131MOL0     O17597   7.092   5.123   9.014 -0.2864  0.0345  0.5580
  131MOL0     C17598   6.729   5.201   9.008  0.4759  0.8424 -0.8376
  131MOL0     C17599   6.630   5.196   8.914 -0.1579  0.1158  0.3020
  131MOL0     N17600   6.303   5.095   8.066 -0.4504 -0.7271  0.9809
  131MOL0     N17601   6.306   5.129   7.935  0.8042 -0.8554 -0.1858
  131MOL0     C17602   5.411   5.912   7.549  0.2992 -0.4192 -0.7430
  131MOL0     C17603   5.298   5.975   7.504  0.4922 -0.6605  0.7428
  131MOL0     C17604   4.841   5.979   7.440 -0.3921  0.8119 -0.2772
  131MOL0     C17605   4.740   5.951   7.531 -0.0608 -0.1232  0.2597
  131MOL0     C17606   4.607   6.002   7.516 -0.0274 -0.2489 -0.3694
  131MOL0     C17607   4.561   6.072   7.403 -0.7492 -0.1835 -0.6871
  131MOL0     O17608   4.434   6.126   7.374 -0.6198 -0.1281  0.3317
  131MOL0     C17609   4.326   6.112   7.474 -0.2684  0.0056  0.0381
  131MOL0     C17610   4.258   5.983   7.461  0.0935  0.7372  0.0949
  131MOL0     C17611   4.140   5.959   7.556 -0.6204 -0.2670  0.6558
  131MOL0     C17612   4.010   6.031   7.518 -0.1583 -0.0752 -0.0857
  131MOL0     C17613   3.971   5.997   7.382  0.8397  0.0668  0.1811
  131MOL0     C17614   3.924   5.964   7.269  0.4782  0.2893 -0.7906
  131MOL0     C17615   4.665   6.107   7.312  0.1916  0.5768  0.4505
  131MOL0     C17616   4.800   6.058   7.328  0.2720  0.2363 -1.2117
  131MOL0     C17617   4.899   6.098   7.220 -0.1573  0.6583 -0.4167
  131MOL0     H17618   5.203   5.746   7.274  0.3070  0.6424 -0.7776
  131MOL0     H17619   5.411   5.641   7.357 -3.8470  0.4583 -3.4597
  131MOL0     H17620   5.655   5.609   7.427  1.8229 -0.6511 -1.0338
  131MOL0     H17621   5.638   5.781   7.347 -0.5837  1.8757  1.6423
  131MOL0     H17622   5.817   5.859   7.449 -0.7521 -0.5053  1.7473
  131MOL0     H17623   5.866   5.705   7.362 -1.7051 -0.9073 -0.2888
  131MOL0     H17624   5.808   5.598   7.600  1.2134  0.0503  0.8938
  131MOL0     H17625   5.863   5.760   7.661  0.4575 -2.0145  3.6101
  131MOL0     H17626   6.036   5.578   7.482  1.8470  2.0761 -1.8570
  131MOL0     H17627   6.085   5.727   7.538 -0.1220  1.2360 -0.6911
  131MOL0     H17628   6.066   5.661   7.782  1.4735 -0.4397 -0.9402
  131MOL0     H17629   5.999   5.504   7.737  0.8280 -1.6133 -1.0059
  131MOL0     H17630   6.199   5.470   7.608 -1.2071  0.2044  0.1258
  131MOL0     H17631   6.277   5.604   7.674  0.4091  0.3705 -1.8319
  131MOL0     H17632   6.136   5.379   7.835  1.7946 -1.9320 -0.8058
  131MOL0     H17633   6.239   5.512   7.906 -0.6415  0.9263 -0.6060
  131MOL0     H17634   6.331   5.266   7.728 -1.3578 -2.4774  3.8336
  131MOL0     H17635   6.418   5.408   7.786  0.7711 -1.2511 -2.6237
  131MOL0     H17636   6.368   5.405   8.093  2.3598  0.1430 -0.5151
  131MOL0     H17637   6.325   5.321   8.311  3.0948  1.4429 -2.4015
  131MOL0     H17638   6.212   5.177   8.304 -0.4214  1.5065 -1.8656
  131MOL0     H17639   6.393   5.021   8.336 -0.5788  0.4632 -0.5768
  131MOL0     H17640   6.509   5.158   8.316  1.1785  0.6216  1.4561
  131MOL0     H17641   6.362   5.036   8.539  4.2871 -3.7063 -0.0159
  131MOL0     H17642   6.364   5.222   8.534  2.0281 -0.5745  2.7358
  131MOL0     H17643   6.615   5.206   8.510  2.2913 -1.2118  0.1050
  131MOL0     H17644   6.615   5.036   8.547  3.3199  2.0663  0.1127
  131MOL0     H17645   6.805   5.124   8.637 -0.3865 -2.7263 -0.3859
  131MOL0     H17646   6.979   5.116   8.787 -0.0897 -2.2556 -1.4609
  131MOL0     H17647   7.114   4.926   9.171  1.5214 -4.6974  1.0186
  131MOL0     H17648   7.215   4.818   9.346 -0.6047  0.5928 -0.1096
  131MOL0     H17649   7.170   4.987   9.778  0.7339 -0.6302 -1.8770
  131MOL0     H17650   7.041   4.878   9.734 -0.0678 -0.2161 -1.8456
  131MOL0     H17651   7.162   4.798   9.943  2.3340  2.2202  1.0955
  131MOL0     H17652   7.141   4.690   9.802  1.6936 -0.4660 -0.3779
  131MOL0     H17653   7.373   4.657   9.877  0.6554  1.0932  2.8596
  131MOL0     H17654   7.390   4.756   9.738 -3.7674  1.1024 -1.3161
  131MOL0     H17655   7.355   4.865  10.020  0.9231 -1.0325 -0.5242
  131MOL0     H17656   7.366   4.974   9.883 -1.9268 -1.5758 -2.2326
  131MOL0     H17657   7.593   4.868   9.825  1.0745  2.3822 -0.1287
  131MOL0     H17658   7.566   4.780   9.981 -0.5785  0.9281  0.9257
  131MOL0     H17659   7.588   5.082   9.964 -0.2796 -0.0189 -0.6885
  131MOL0     H17660   7.581   4.968  10.102 -1.7449  3.5712  1.2043
  131MOL0     H17661   7.816   4.880  10.014 -1.5679 -1.3637 -2.5410
  131MOL0     H17662   7.815   5.047  10.063  2.4993 -1.0197  0.9269
  131MOL0     H17663   7.939   5.018   9.846 -0.1236  1.0705 -0.4562
  131MOL0     H17664   7.793   4.958   9.771  1.0670 -1.4188 -1.5147
  131MOL0     H17665   7.070   5.107   9.631  3.2155 -0.2522  0.4709
  131MOL0     H17666   6.950   5.219   9.450 -0.2827  0.9886 -1.6633
  131MOL0     H17667   6.712   5.216   9.114  0.6867 -0.1948 -0.6500
  131MOL0     H17668   6.530   5.225   8.945 -0.5330  0.1224 -0.8647
  131MOL0     H17669   5.476   5.950   7.627  0.9061 -3.2698  0.2806
  131MOL0     H17670   5.272   6.079   7.521  0.9569 -0.2309 -0.9162
  131MOL0     H17671   4.758   5.875   7.606  1.2728  0.7888  0.9198
  131MOL0     H17672   4.535   5.978   7.594  0.4407  2.2031  0.9273
  131MOL0     H17673   4.242   6.181   7.469 -0.6709 -0.5579 -1.5491
  131MOL0     H17674   4.363   6.137   7.574 -2.9177  2.7394  0.4595
  131MOL0     H17675   4.324   5.896   7.473 -0.7534  0.1178  0.3943
  131MOL0     H17676   4.215   5.984   7.361 -1.6963  2.3959  0.8245
  131MOL0     H17677   4.165   5.980   7.660  0.5295  0.5192  0.2486
  131MOL0     H17678   4.119   5.853   7.539 -0.8920  0.3024 -3.6157
  131MOL0     H17679   3.930   5.990   7.580 -0.4540  1.2132  0.4133
  131MOL0     H17680   4.018   6.139   7.533 -0.0254  0.4317 -3.1035
  131MOL0     H17681   3.866   5.947   7.180 -1.7257 -0.2426  0.6658
  131MOL0     H17682   4.643   6.158   7.219 -1.2765  0.2165  0.5755
  131MOL0     H17683   4.978   6.154   7.271  0.8327 -0.5203 -0.5985
  131MOL0     H17684   4.947   6.013   7.171 -3.4169 -0.7720 -1.3632
  131MOL0     H17685   4.848   6.149   7.138  1.0772  1.9028 -0.4477
  132MOL0     O17686   5.619   3.935   8.160  0.2868 -0.5764 -1.1051
  132MOL0     C17687   5.640   3.815   8.161  0.2843 -0.5758  0.2060
  132MOL0     O17688   5.570   3.731   8.235  0.1610 -0.4349  0.1369
  132MOL0     C17689   5.450   3.759   8.299  1.0759  0.7164  0.4832
  132MOL0     C17690   5.363   3.867   8.278  0.5591  0.6062 -0.2606
  132MOL0     C17691   5.243   3.869   8.346  0.9076  0.4465  0.0387
  132MOL0     C17692   5.197   3.763   8.420  0.3294  0.6543 -0.1511
  132MOL0     O17693   5.084   3.784   8.486  0.4099 -0.0431  0.0997
  132MOL0     C17694   5.003   3.671   8.512  0.1607 -0.0091  0.8462
  132MOL0     C17695   4.875   3.728   8.562 -0.4950  0.4164 -0.7303
  132MOL0     C17696   4.760   3.621   8.557  1.2090 -0.4065 -0.8170
  132MOL0     C17697   4.625   3.680   8.609  0.3111  0.2460  0.1073
  132MOL0     C17698   4.509   3.580   8.591 -0.1315  0.6593  1.3144
  132MOL0     C17699   4.391   3.631   8.671  0.0611  0.3667  0.9082
  132MOL0     C17700   4.280   3.535   8.655 -0.0235  0.2112 -0.6279
  132MOL0     C17701   4.165   3.555   8.756 -0.1166 -0.3133 -1.0811
  132MOL0     N17702   4.081   3.679   8.737 -0.1899 -0.9007  0.4566
  132MOL0     C17703   4.068   3.782   8.829  0.4629  0.3781  0.2317
  132MOL0     C17704   3.985   3.871   8.761  0.4678  0.0186 -0.1026
  132MOL0     C17705   3.922   3.992   8.809 -0.6272 -1.0000 -0.0519
  132MOL0     C17706   4.020   4.079   8.886  0.1310  0.5637  1.1499
  132MOL0     C17707   3.949   4.205   8.948  0.6731 -0.0823  0.1499
  132MOL0     C17708   3.994   4.230   9.089  0.4806 -0.5298 -0.0326
  132MOL0     O17709   3.922   4.345   9.127 -0.1638  0.8471 -0.2836
  132MOL0     C17710   3.954   4.471   9.096  0.6091 -0.5770 -0.7437
  132MOL0     C17711   3.846   4.569   9.110 -0.6373  0.6282  0.2387
  132MOL0     C17712   3.861   4.703   9.091 -0.2217 -1.1842  0.1558
  132MOL0     C17713   3.986   4.752   9.046 -0.3686  0.8161 -0.8568
  132MOL0     C17714   4.003   4.892   9.036  0.2310 -0.0638  0.3832
  132MOL0     O17715   3.899   4.968   9.083  0.8155 -0.2799  0.9627
  132MOL0     C17716   3.924   5.103   9.078  0.0195 -0.1312  1.6176
  132MOL0     C17717   3.885   5.176   8.963 -1.0103 -0.4692  0.7277
  132MOL0     C17718   3.930   5.302   8.939  0.3545  0.7550 -0.3005
  132MOL0     C17719   3.998   5.378   9.029 -0.9026 -0.0942  0.5539
  132MOL0     O17720   4.042   5.505   8.998 -0.1591 -0.7037  0.0480
  132MOL0     C17721   4.179   5.532   9.021 -0.5066  0.6136 -0.0736
  132MOL0     C17722   4.232   5.662   8.964 -0.7643 -0.1435  0.5678
  132MOL0     C17723   4.269   5.765   9.065 -0.0183  0.2755 -0.5018
  132MOL0     C17724   4.359   5.874   8.998 -0.1714  0.8377  0.6288
  132MOL0     C17725   4.404   5.972   9.099 -0.0581  0.4291 -0.5291
  132MOL0     C17726   4.493   5.918   9.215  0.7279 -0.5228 -0.1472
  132MOL0     C17727   4.549   6.033   9.304 -0.2689 -0.0176 -0.7724
  132MOL0     C17728   4.438   6.100   9.385 -0.3663 -0.1519 -0.2963
  132MOL0    Cl17729   4.500   6.232   9.505  0.1721 -0.2486 -0.1125
  132MOL0     C17730   4.030   5.318   9.153  0.3290 -0.3222  0.1742
  132MOL0     C17731   3.998   5.180   9.170 -0.0177 -0.5572 -0.0555
  132MOL0     O17732   4.116   4.935   8.993 -0.1263 -0.3076 -0.1097
  132MOL0     C17733   4.090   4.658   9.031 -0.3504 -0.1749  0.3681
  132MOL0     C17734   4.077   4.519   9.054  0.5724  0.3289 -0.2905
  132MOL0     N17735   3.968   3.828   8.633 -0.8530  0.4631 -0.0757
  132MOL0     N17736   4.021   3.714   8.618 -0.5285  0.1208 -0.1198
  132MOL0     C17737   5.281   3.645   8.431  0.1267 -0.6091 -0.1474
  132MOL0     C17738   5.412   3.649   8.374 -0.5574 -1.0576 -0.6224
  132MOL0     C17739   5.748   3.753   8.076 -0.5272 -0.1776  0.2516
  132MOL0     C17740   5.807   3.631   8.122  0.2446  0.2992 -0.3591
  132MOL0     C17741   5.921   3.576   8.057 -0.3014  0.2966 -0.5340
  132MOL0     C17742   5.970   3.626   7.940  0.9104 -0.7402 -0.5690
  132MOL0     O17743   6.057   3.550   7.867 -0.3346 -0.5783 -0.0279
  132MOL0     C17744   6.108   3.611   7.740  0.8649 -0.9439 -0.4392
  132MOL0     C17745   6.202   3.514   7.674  0.5519  1.0055  0.1245
  132MOL0     C17746   6.126   3.391   7.611  0.1509 -0.9842 -0.0096
  132MOL0     C17747   6.084   3.406   7.469  0.7269  0.2736 -0.1138
  132MOL0     C17748   6.190   3.424   7.373 -0.2516  1.1294  0.8856
  132MOL0     C17749   6.285   3.445   7.298  0.3625  0.9603 -0.1177
  132MOL0     C17750   5.922   3.747   7.899  0.6731 -1.0187  0.4846
  132MOL0     C17751   5.820   3.813   7.970  0.1848 -0.6808  0.2055
  132MOL0     C17752   5.775   3.946   7.902 -0.7198 -0.1026 -0.9669
  132MOL0     H17753   5.389   3.944   8.207 -0.4145  0.7439 -0.4802
  132MOL0     H17754   5.177   3.952   8.324 -0.6179 -0.7750 -0.1715
  132MOL0     H17755   4.992   3.626   8.413  2.2443  2.1575 -0.4999
  132MOL0     H17756   5.042   3.591   8.575 -0.8208 -1.3509 -0.1737
  132MOL0     H17757   4.847   3.818   8.505 -4.0945 -0.8161 -1.1829
  132MOL0     H17758   4.883   3.759   8.666 -0.0365 -2.1403  0.0469
  132MOL0     H17759   4.780   3.528   8.612 -3.0489 -1.5912 -0.8742
  132MOL0     H17760   4.736   3.602   8.452 -1.9671  1.1132 -0.5055
  132MOL0     H17761   4.648   3.714   8.710  3.4656 -0.7832 -0.1572
  132MOL0     H17762   4.606   3.776   8.562 -2.4254  1.1946  2.8171
  132MOL0     H17763   4.479   3.584   8.485 -0.7856 -0.5884  1.4390
  132MOL0     H17764   4.546   3.480   8.613  4.1087  1.8200  0.4370
  132MOL0     H17765   4.430   3.653   8.771 -0.2579  0.4499  1.0154
  132MOL0     H17766   4.346   3.728   8.647 -1.6444  0.0529  2.6239
  132MOL0     H17767   4.323   3.438   8.680  1.5336  1.0139 -0.0363
  132MOL0     H17768   4.241   3.531   8.553  2.5512  3.7709 -1.9452
  132MOL0     H17769   4.104   3.464   8.757  0.3118 -0.6077 -0.3509
  132MOL0     H17770   4.201   3.557   8.859  0.1001 -1.0461 -1.1346
  132MOL0     H17771   4.107   3.786   8.930  6.0026  3.6043 -1.5774
  132MOL0     H17772   3.872   4.038   8.723 -0.4250 -2.5399 -1.0439
  132MOL0     H17773   3.847   3.954   8.879  0.1275 -0.9948  0.7743
  132MOL0     H17774   4.063   4.007   8.957 -3.2235 -4.6244 -1.4213
  132MOL0     H17775   4.095   4.115   8.815  0.5101 -1.7742  0.2799
  132MOL0     H17776   3.840   4.194   8.959  0.5693  1.3173  0.7576
  132MOL0     H17777   3.963   4.290   8.881 -0.9177 -2.0577 -2.9342
  132MOL0     H17778   4.103   4.242   9.093  0.4680 -0.0397 -0.8518
  132MOL0     H17779   3.967   4.140   9.144  0.5478 -1.4058 -1.4040
  132MOL0     H17780   3.749   4.523   9.124 -0.6104 -0.1426 -1.8543
  132MOL0     H17781   3.777   4.772   9.099 -0.4894 -1.5819  0.9056
  132MOL0     H17782   3.837   5.123   8.881 -0.8755  1.4753 -0.6849
  132MOL0     H17783   3.905   5.354   8.846  1.2404 -0.0361 -0.9999
  132MOL0     H17784   4.202   5.510   9.126 -0.9895 -2.9740 -0.5943
  132MOL0     H17785   4.227   5.451   8.966  1.4020  1.9841 -0.5271
  132MOL0     H17786   4.314   5.629   8.900 -0.4416  0.6823  0.5477
  132MOL0     H17787   4.148   5.697   8.902 -1.1112 -0.8048  0.6597
  132MOL0     H17788   4.179   5.801   9.116  0.0031 -2.4584  1.6830
  132MOL0     H17789   4.329   5.703   9.132 -1.3951 -4.2444 -2.9827
  132MOL0     H17790   4.296   5.927   8.925 -2.0089 -1.0536  0.7346
  132MOL0     H17791   4.440   5.827   8.941  0.2019  0.8066  1.1799
  132MOL0     H17792   4.316   6.026   9.134 -0.0311  1.2038 -1.6183
  132MOL0     H17793   4.471   6.043   9.051 -1.0616  1.9598  0.2471
  132MOL0     H17794   4.433   5.852   9.277 -0.8672  0.7756 -0.2202
  132MOL0     H17795   4.567   5.864   9.156  1.2644 -0.7354  0.7105
  132MOL0     H17796   4.609   6.102   9.243 -0.4832  2.2542  1.4657
  132MOL0     H17797   4.611   5.988   9.382 -3.1054 -2.0932  0.4647
  132MOL0     H17798   4.358   6.135   9.319 -0.0041  3.1905  0.8278
  132MOL0     H17799   4.396   6.022   9.449  1.8662 -0.9964  0.2238
  132MOL0     H17800   4.092   5.365   9.229  0.1423 -2.6157  1.8706
  132MOL0     H17801   4.038   5.136   9.261  0.1061  1.6333  1.0257
  132MOL0     H17802   4.181   4.704   8.992 -0.8725  1.5836  1.1274
  132MOL0     H17803   4.158   4.446   9.054 -0.9457 -1.4464 -1.3836
  132MOL0     H17804   5.246   3.563   8.493  0.7770  0.1645  1.2915
  132MOL0     H17805   5.488   3.571   8.382 -0.7555 -1.3276 -1.3051
  132MOL0     H17806   5.770   3.586   8.214 -2.1183 -0.6733 -1.6830
  132MOL0     H17807   5.958   3.482   8.097 -2.9852 -0.3129  0.8174
  132MOL0     H17808   6.162   3.699   7.775 -0.1815 -0.6589  0.5088
  132MOL0     H17809   6.022   3.630   7.675 -0.1846  1.6670  1.5613
  132MOL0     H17810   6.278   3.475   7.743  0.4611  0.9630  0.2002
  132MOL0     H17811   6.251   3.569   7.593 -0.9153  0.9023 -0.8638
  132MOL0     H17812   6.038   3.365   7.670 -0.7558  1.0689 -0.3784
  132MOL0     H17813   6.191   3.303   7.602 -1.8169 -2.3553 -1.9935
  132MOL0     H17814   6.035   3.309   7.451  0.2773  0.6703 -1.0633
  132MOL0     H17815   6.006   3.481   7.463 -0.9005 -1.4794 -2.7788
  132MOL0     H17816   6.342   3.451   7.208 -0.3150  5.4815 -0.4761
  132MOL0     H17817   5.969   3.791   7.812  0.1218 -2.2097 -0.4527
  132MOL0     H17818   5.826   4.034   7.943 -2.7046 -0.1183  1.8809
  132MOL0     H17819   5.790   3.940   7.794 -4.1664 -2.8189 -1.4567
  132MOL0     H17820   5.669   3.962   7.921 -0.3824 -1.1546  2.7458
  133MOL0     O17821   9.860   1.885   4.514 -0.4617  0.5086 -1.0085
  133MOL0     C17822   9.775   1.839   4.597  0.4894  0.7165  0.2859
  133MOL0     O17823   9.807   1.738   4.684  0.6064  0.2191  0.7430
  133MOL0     C17824   9.932   1.688   4.673  0.4104 -0.2244 -0.6072
  133MOL0     C17825  10.015   1.709   4.782  0.1926  0.5051 -0.1570
  133MOL0     C17826  10.144   1.663   4.777  1.1178 -0.7392 -0.8241
  133MOL0     C17827  10.193   1.590   4.666 -0.7932 -0.4914 -1.3488
  133MOL0     O17828  10.317   1.534   4.675 -0.3979 -0.2393 -0.2282
  133MOL0     C17829  10.394   1.510   4.555  0.7464  0.4341 -0.5800
  133MOL0     C17830  10.541   1.476   4.571 -0.2104  0.0689 -0.0808
  133MOL0     C17831  10.620   1.603   4.593 -0.7381 -1.1695 -0.3640
  133MOL0     C17832  10.761   1.607   4.537 -1.0656  0.7541  0.1760
  133MOL0     C17833  10.851   1.716   4.572  0.0979  0.5606  0.4869
  133MOL0     C17834  10.795   1.862   4.561  0.2151 -0.1565 -0.6252
  133MOL0     C17835  10.912   1.964   4.588  0.0156 -0.2373  0.6499
  133MOL0     C17836  10.853   2.112   4.564  0.1714 -0.0271  0.1415
  133MOL0     N17837  10.962   2.206   4.580  0.1243  0.0754  0.6062
  133MOL0     C17838  11.026   2.230   4.694  0.5198  0.5538 -0.4338
  133MOL0     C17839  11.151   2.260   4.668 -0.3636  0.6514 -0.0812
  133MOL0     C17840  11.270   2.275   4.767 -0.1641  0.6902  0.5367
  133MOL0     C17841  11.368   2.385   4.737  0.3717 -0.0815  0.2829
  133MOL0     C17842  11.479   2.384   4.838  0.7555 -0.1022 -0.5357
  133MOL0     C17843  11.578   2.485   4.791 -0.3292 -0.4171 -0.2366
  133MOL0     O17844  11.678   2.503   4.896  0.1582 -0.5755  0.0820
  133MOL0     C17845  11.800   2.551   4.867 -0.0643 -0.6690 -0.2282
  133MOL0     C17846  11.811   2.679   4.802  0.1668 -0.1821 -0.1732
  133MOL0     C17847  11.927   2.731   4.755  0.0127  0.0526 -0.1055
  133MOL0     C17848  12.042   2.675   4.802 -0.3799 -0.1723  0.0053
  133MOL0     C17849  12.166   2.738   4.770 -0.7322 -0.1040 -0.4229
  133MOL0     O17850  12.276   2.699   4.843  0.9465  0.4361 -0.0274
  133MOL0     C17851  12.399   2.733   4.802 -0.8554  0.5310 -0.4635
  133MOL0     C17852  12.444   2.683   4.678 -0.3707 -0.2275  0.0855
  133MOL0     C17853  12.561   2.741   4.617  0.0363 -0.2397  0.3831
  133MOL0     C17854  12.636   2.837   4.679 -0.5000  0.0547 -0.0669
  133MOL0     O17855  12.744   2.894   4.608  0.6907  0.0502 -0.0434
  133MOL0     C17856  12.770   3.032   4.626 -0.9593  0.0592 -0.7568
  133MOL0     C17857  12.659   3.129   4.585  0.5288 -0.3025  0.7711
  133MOL0     C17858  12.602   3.217   4.700 -0.3496  0.3785 -0.4102
  133MOL0     C17859  12.479   3.290   4.662 -1.6446 -0.7759 -0.1147
  133MOL0     C17860  12.408   3.329   4.794  0.3167  0.1923 -0.5788
  133MOL0     C17861  12.311   3.217   4.841 -0.0839  0.4696 -1.0459
  133MOL0     C17862  12.220   3.271   4.952 -0.6296  0.0053  0.1231
  133MOL0     C17863  12.105   3.171   4.973 -0.5164  0.0081 -0.3327
  133MOL0    Cl17864  12.169   3.035   5.064  0.0633 -0.6155  0.0454
  133MOL0     C17865  12.597   2.884   4.806  0.0783  0.3080 -0.3824
  133MOL0     C17866  12.479   2.832   4.863  0.1156  0.7836 -0.3729
  133MOL0     O17867  12.171   2.826   4.684  0.0144 -0.0278  0.4211
  133MOL0     C17868  12.039   2.569   4.893 -0.3120 -0.4523  0.2022
  133MOL0     C17869  11.922   2.507   4.925 -0.8071  0.3031 -0.1413
  133MOL0     N17870  11.159   2.261   4.530  0.1488  0.2730  0.2480
  133MOL0     N17871  11.048   2.221   4.482  0.5040 -0.3375  0.3849
  133MOL0     C17872  10.113   1.568   4.560  0.0110  0.2168  0.1625
  133MOL0     C17873   9.992   1.630   4.561  0.6721 -0.1680 -0.3526
  133MOL0     C17874   9.624   1.875   4.605  0.4777 -0.5363 -0.3319
  133MOL0     C17875   9.539   1.805   4.692  1.3423  0.3312 -0.2706
  133MOL0     C17876   9.399   1.838   4.699 -0.1742 -0.2302  0.7717
  133MOL0     C17877   9.345   1.934   4.617  0.7586 -0.3841 -0.3703
  133MOL0     O17878   9.211   1.953   4.623  0.1388  0.0164  0.1094
  133MOL0     C17879   9.137   2.032   4.537 -0.4246  0.6823  0.3911
  133MOL0     C17880   9.087   1.951   4.411  0.3895 -0.3648 -0.2530
  133MOL0     C17881   9.190   1.896   4.316 -0.8666  0.2468 -0.1346
  133MOL0     C17882   9.121   1.795   4.222  1.0341 -0.1178  0.0302
  133MOL0     C17883   9.030   1.864   4.131  0.7304 -0.4013  0.8764
  133MOL0     C17884   8.949   1.913   4.051  1.9644  0.0404  0.1928
  133MOL0     C17885   9.433   2.009   4.535 -0.6013  0.4742 -0.6867
  133MOL0     C17886   9.570   1.975   4.518 -0.6538  0.2593  0.1281
  133MOL0     C17887   9.658   2.055   4.431  0.2353 -0.6193  0.3187
  133MOL0     H17888   9.978   1.749   4.876 -0.7464 -2.2277  0.7580
  133MOL0     H17889  10.213   1.671   4.860  0.9976 -0.0634 -0.7855
  133MOL0     H17890  10.346   1.424   4.508  1.8612  0.8887 -2.6880
  133MOL0     H17891  10.377   1.596   4.490 -1.7365  0.2741 -0.2435
  133MOL0     H17892  10.568   1.441   4.471 -0.6998 -0.2194 -0.1143
  133MOL0     H17893  10.555   1.400   4.647 -1.5789 -0.1526 -0.0237
  133MOL0     H17894  10.632   1.623   4.700  0.5872  0.4048 -0.7705
  133MOL0     H17895  10.563   1.687   4.554 -2.8089 -3.1697 -1.9147
  133MOL0     H17896  10.812   1.518   4.575 -0.0320  1.4580  0.4769
  133MOL0     H17897  10.741   1.602   4.429 -1.5089 -1.3886  0.3177
  133MOL0     H17898  10.889   1.694   4.672 -0.3490  0.5359  0.6568
  133MOL0     H17899  10.935   1.718   4.503 -0.6765  0.3122 -0.4892
  133MOL0     H17900  10.757   1.879   4.460 -1.1925  0.6789  0.0226
  133MOL0     H17901  10.709   1.880   4.626  0.3469  1.5315 -0.8704
  133MOL0     H17902  10.995   1.959   4.518 -0.0466  0.9508  0.4634
  133MOL0     H17903  10.956   1.949   4.687  1.0471  1.6532  0.5280
  133MOL0     H17904  10.812   2.129   4.464 -0.2771 -0.7869  0.1925
  133MOL0     H17905  10.774   2.143   4.633  0.5957  1.3701  0.0335
  133MOL0     H17906  10.985   2.221   4.794  2.0749  1.2014  0.2960
  133MOL0     H17907  11.241   2.281   4.872  1.5345 -1.5914  1.2089
  133MOL0     H17908  11.330   2.184   4.763 -0.4417  0.4843  1.0594
  133MOL0     H17909  11.407   2.374   4.635  1.8350 -0.4537  0.8510
  133MOL0     H17910  11.310   2.477   4.739 -0.5243 -0.6209 -0.4473
  133MOL0     H17911  11.517   2.282   4.841 -2.3903 -1.3751 -0.5521
  133MOL0     H17912  11.449   2.415   4.938 -1.1689 -1.1611 -0.7408
  133MOL0     H17913  11.531   2.583   4.780  1.1725  0.2678 -0.8371
  133MOL0     H17914  11.642   2.456   4.707  0.2916  3.5625 -1.3451
  133MOL0     H17915  11.714   2.721   4.779 -0.7477 -2.4567 -0.6528
  133MOL0     H17916  11.933   2.814   4.686 -0.9523 -0.8992 -1.3921
  133MOL0     H17917  12.383   2.610   4.625  1.1348 -0.2239 -1.7420
  133MOL0     H17918  12.579   2.718   4.513 -0.2670 -3.3645  0.9145
  133MOL0     H17919  12.797   3.052   4.730 -0.7400 -0.2037 -0.7598
  133MOL0     H17920  12.854   3.053   4.559 -1.4127  1.7912 -0.8202
  133MOL0     H17921  12.698   3.196   4.508  0.0412 -0.9706 -0.0753
  133MOL0     H17922  12.566   3.075   4.563  1.2899 -0.8081 -1.3975
  133MOL0     H17923  12.564   3.150   4.778  2.2651  1.1703  1.7010
  133MOL0     H17924  12.671   3.294   4.737  1.7841 -2.0237  0.9920
  133MOL0     H17925  12.416   3.228   4.599 -1.2098  1.5095 -2.9862
  133MOL0     H17926  12.505   3.382   4.608 -0.5513 -1.3391 -0.5699
  133MOL0     H17927  12.360   3.421   4.759  2.7071  1.3244 -1.0443
  133MOL0     H17928  12.481   3.350   4.872  1.6842  0.8880 -1.9992
  133MOL0     H17929  12.241   3.194   4.761 -1.4963 -1.9018  0.7604
  133MOL0     H17930  12.367   3.127   4.867 -0.4060  0.4605 -0.3732
  133MOL0     H17931  12.183   3.369   4.920 -1.6764 -0.4464 -0.0833
  133MOL0     H17932  12.288   3.280   5.038  1.6626 -0.4209 -1.5419
  133MOL0     H17933  12.030   3.217   5.037 -0.1062 -1.5146  1.3070
  133MOL0     H17934  12.062   3.136   4.879  2.4173  0.1670 -1.8613
  133MOL0     H17935  12.654   2.962   4.855  0.8847 -0.8542  0.6107
  133MOL0     H17936  12.438   2.871   4.956 -1.5024  2.3405 -1.6709
  133MOL0     H17937  12.127   2.533   4.945  0.2417  0.5814  0.0146
  133MOL0     H17938  11.939   2.427   4.997  1.5487  2.9402  2.4856
  133MOL0     H17939  10.147   1.507   4.476  2.6291  1.5767  0.1261
  133MOL0     H17940   9.935   1.620   4.469  2.0788  1.0759 -1.4062
  133MOL0     H17941   9.567   1.724   4.758  0.7195  0.6993  0.4614
  133MOL0     H17942   9.331   1.782   4.762  0.8715 -4.4309 -1.4755
  133MOL0     H17943   9.183   2.126   4.506  0.0984 -0.0793 -1.2729
  133MOL0     H17944   9.042   2.064   4.581 -0.4194  2.5569 -0.8553
  133MOL0     H17945   9.032   2.031   4.360 -1.3410 -2.0706 -1.2196
  133MOL0     H17946   9.013   1.881   4.451 -1.8013  2.2605  0.6157
  133MOL0     H17947   9.265   1.835   4.367  1.1115  1.0307 -1.9365
  133MOL0     H17948   9.237   1.977   4.260  2.9264 -3.1194 -2.4182
  133MOL0     H17949   9.194   1.744   4.158  2.8720  1.2441  0.9416
  133MOL0     H17950   9.081   1.723   4.294 -0.1768 -0.0255 -0.5298
  133MOL0     H17951   8.885   1.967   3.984  0.7888 -0.1535  1.1143
  133MOL0     H17952   9.393   2.085   4.468  0.4450  0.6392 -1.1395
  133MOL0     H17953   9.744   2.100   4.480  0.2566  0.6147 -0.7785
  133MOL0     H17954   9.689   1.993   4.346  2.2116  0.0967  0.4758
  133MOL0     H17955   9.605   2.142   4.390  0.6996 -1.1698 -1.5784
  134MOL0     O17956   3.046   0.512  10.351 -0.1915  0.3455 -0.5685
  134MOL0     C17957   3.012   0.577  10.448  0.2807 -0.3465 -0.7632
  134MOL0     O17958   3.062   0.581  10.570  0.6289 -0.0295 -0.2026
  134MOL0     C17959   3.195   0.591  10.591  0.6017 -0.2054  0.5380
  134MOL0     C17960   3.277   0.690  10.537  0.1754  0.2636  0.1528
  134MOL0     C17961   3.413   0.700  10.574 -0.0213  0.0601  0.4220
  134MOL0     C17962   3.461   0.609  10.662 -0.8005  0.5543  0.3823
  134MOL0     O17963   3.595   0.605  10.699 -0.3105 -0.2578 -0.7762
  134MOL0     C17964   3.667   0.724  10.661 -0.8698  0.3325 -0.5675
  134MOL0     C17965   3.807   0.746  10.720  0.8137  0.5717  0.2883
  134MOL0     C17966   3.913   0.664  10.651  0.1778  0.7873 -0.6798
  134MOL0     C17967   4.044   0.673  10.736  0.5456 -0.2425  0.3440
  134MOL0     C17968   4.163   0.608  10.671  0.4555  0.1069  0.1708
  134MOL0     C17969   4.142   0.455  10.664  0.1468 -0.4608 -0.1154
  134MOL0     C17970   4.266   0.382  10.600 -0.6555  0.7224 -0.0260
  134MOL0     C17971   4.283   0.404  10.450 -0.1641 -0.3272 -0.2091
  134MOL0     N17972   4.415   0.341  10.417  0.1720  0.4355  0.0128
  134MOL0     C17973   4.537   0.396  10.438 -0.1923 -0.6045  0.2131
  134MOL0     C17974   4.625   0.297  10.408 -0.0128 -1.0398 -0.1686
  134MOL0     C17975   4.774   0.323  10.415  0.4916  0.2485  0.6909
  134MOL0     C17976   4.824   0.304  10.275  0.3285 -0.0342 -0.0527
  134MOL0     C17977   4.980   0.281  10.278 -0.3749  0.2188 -0.6157
  134MOL0     C17978   5.068   0.396  10.336  1.1287 -0.0960  0.0367
  134MOL0     O17979   5.068   0.372  10.478 -0.3766 -0.7832  0.0331
  134MOL0     C17980   5.151   0.460  10.556 -0.0029  0.8238  0.6553
  134MOL0     C17981   5.233   0.565  10.509 -0.6515  0.1056 -0.4584
  134MOL0     C17982   5.324   0.632  10.604  0.1678 -0.2316  0.2611
  134MOL0     C17983   5.327   0.597  10.742 -0.6496  0.3897  0.4705
  134MOL0     C17984   5.426   0.665  10.838  0.0916 -0.1857 -0.1125
  134MOL0     O17985   5.500   0.779  10.789 -0.1485 -0.4387  0.7013
  134MOL0     C17986   5.624   0.806  10.835 -0.8224 -0.3685  0.8169
  134MOL0     C17987   5.689   0.920  10.771  0.8723  0.4608  0.4729
  134MOL0     C17988   5.806   0.969  10.807 -0.9735 -0.5771 -0.4483
  134MOL0     C17989   5.888   0.907  10.898  1.2512 -0.2946  1.3207
  134MOL0     O17990   6.010   0.969  10.922  0.6945  0.0179  0.2693
  134MOL0     C17991   6.071   0.951  11.045  1.4064  0.7343  1.0057
  134MOL0     C17992   6.187   1.051  11.048  0.4486  0.3713 -0.3477
  134MOL0     C17993   6.135   1.196  11.067  0.1001  0.4033  0.3596
  134MOL0     C17994   6.233   1.304  11.032 -0.8865  0.6774  0.3525
  134MOL0     C17995   6.180   1.435  11.061 -0.8512  0.0795  0.6254
  134MOL0     C17996   6.295   1.548  11.054  0.0824 -0.2311  0.4473
  134MOL0     C17997   6.256   1.683  11.130  0.2886  0.0574  0.1757
  134MOL0     C17998   6.132   1.754  11.085 -0.5777 -0.0574  0.4103
  134MOL0    Cl17999   6.127   1.907  11.176 -0.4139 -0.0740 -0.0515
  134MOL0     C18000   5.840   0.789  10.961  0.1813 -0.4673  0.8717
  134MOL0     C18001   5.709   0.736  10.923  0.8712 -0.0462 -0.5142
  134MOL0     O18002   5.457   0.592  10.936 -0.2049 -0.5026  0.2471
  134MOL0     C18003   5.235   0.502  10.783  0.0482  0.3868 -0.5285
  134MOL0     C18004   5.161   0.427  10.688  0.0113  0.7614  0.2810
  134MOL0     N18005   4.547   0.185  10.364 -0.6292 -0.1686  0.2891
  134MOL0     N18006   4.420   0.213  10.370  0.3494 -0.3394  0.2124
  134MOL0     C18007   3.387   0.499  10.700 -0.0454 -0.3236 -0.0486
  134MOL0     C18008   3.253   0.496  10.669 -0.2104 -0.2915  1.0400
  134MOL0     C18009   2.880   0.647  10.435  0.5451 -0.0964  0.0577
  134MOL0     C18010   2.819   0.695  10.557 -0.0106  0.1921  0.5731
  134MOL0     C18011   2.686   0.724  10.567  0.1147  0.5768  0.3450
  134MOL0     C18012   2.607   0.697  10.458  0.6489 -0.4030 -0.1360
  134MOL0     O18013   2.468   0.709  10.464  0.1117 -0.0514 -0.4908
  134MOL0     C18014   2.409   0.661  10.589  0.1512  0.1360 -0.2045
  134MOL0     C18015   2.432   0.518  10.618  1.1429  0.7073 -0.7245
  134MOL0     C18016   2.335   0.430  10.542 -0.0750 -1.0602 -0.3851
  134MOL0     C18017   2.399   0.407  10.401  0.4899 -0.0656 -1.1418
  134MOL0     C18018   2.318   0.301  10.343  0.2800 -0.6243  0.4096
  134MOL0     C18019   2.260   0.219  10.293  0.9150 -0.2686 -0.2421
  134MOL0     C18020   2.667   0.668  10.333  0.4354 -0.4330  0.1680
  134MOL0     C18021   2.807   0.658  10.308  0.2265  0.3884 -0.8225
  134MOL0     C18022   2.843   0.632  10.168  0.1253 -0.1642  0.0839
  134MOL0     H18023   3.242   0.777  10.482 -2.9185 -1.2748 -0.5379
  134MOL0     H18024   3.474   0.784  10.543 -1.2774  1.0756  0.6319
  134MOL0     H18025   3.671   0.745  10.554 -0.2640  4.3432  0.0972
  134MOL0     H18026   3.614   0.811  10.699 -2.7275 -1.8781  2.3454
  134MOL0     H18027   3.805   0.721  10.826  2.2839  2.1736  0.7329
  134MOL0     H18028   3.828   0.853  10.714 -0.1836  0.7257 -1.1183
  134MOL0     H18029   3.937   0.708  10.554 -1.1497 -0.4075 -1.5904
  134MOL0     H18030   3.882   0.559  10.644  3.1785 -0.3027  0.6321
  134MOL0     H18031   4.063   0.780  10.753 -1.1149  0.5226 -2.0731
  134MOL0     H18032   4.031   0.630  10.835  2.6840 -0.6036  0.5130
  134MOL0     H18033   4.163   0.655  10.572  2.7483  2.0303  0.9845
  134MOL0     H18034   4.249   0.643  10.729  0.3157  2.2048 -0.7929
  134MOL0     H18035   4.139   0.426  10.769 -1.3749  0.7856  0.2297
  134MOL0     H18036   4.056   0.413  10.611  0.4352  0.4952 -1.3703
  134MOL0     H18037   4.252   0.274  10.613 -0.5866  0.6708 -0.3776
  134MOL0     H18038   4.349   0.401  10.669  1.8490 -2.9807 -1.7073
  134MOL0     H18039   4.202   0.359  10.391 -2.0323  0.6893  1.4544
  134MOL0     H18040   4.290   0.512  10.434 -1.5137 -0.3101 -0.8132
  134MOL0     H18041   4.559   0.497  10.472 -1.0724  0.5568 -2.3685
  134MOL0     H18042   4.798   0.422  10.455  1.3048 -0.0244  0.9094
  134MOL0     H18043   4.813   0.243  10.479 -3.1568 -1.2418  1.3071
  134MOL0     H18044   4.767   0.225  10.225 -0.2312  1.0813 -1.2508
  134MOL0     H18045   4.795   0.396  10.222 -2.7506 -1.9973 -2.0929
  134MOL0     H18046   5.012   0.264  10.175  2.6299  2.4926 -0.2002
  134MOL0     H18047   4.982   0.193  10.343 -0.4685  0.6026 -0.0819
  134MOL0     H18048   5.028   0.497  10.323  1.2308 -0.1283 -0.5427
  134MOL0     H18049   5.171   0.397  10.300  1.2121 -1.7286  0.1423
  134MOL0     H18050   5.242   0.597  10.406  2.3613 -3.5211 -1.5373
  134MOL0     H18051   5.381   0.714  10.560 -1.4759 -0.1060 -1.7687
  134MOL0     H18052   5.638   0.986  10.701  2.3888 -0.2590 -1.3863
  134MOL0     H18053   5.837   1.063  10.763  1.6621  1.6745  5.1837
  134MOL0     H18054   6.004   0.963  11.130 -0.3385  3.0325 -0.5685
  134MOL0     H18055   6.100   0.845  11.044 -3.1990 -0.8728 -2.7850
  134MOL0     H18056   6.251   1.022  11.132  0.9436  1.2287 -0.4096
  134MOL0     H18057   6.239   1.055  10.952 -0.9814  0.7209 -1.1379
  134MOL0     H18058   6.041   1.218  11.016 -0.9787  0.5297  2.3117
  134MOL0     H18059   6.116   1.211  11.174  2.8950  1.2783  0.8145
  134MOL0     H18060   6.263   1.291  10.927 -1.0193  1.7876  0.1698
  134MOL0     H18061   6.324   1.295  11.093  0.8538  0.2449 -2.1387
  134MOL0     H18062   6.141   1.426  11.163 -1.3155 -0.7952  0.3811
  134MOL0     H18063   6.090   1.459  11.003 -0.2438 -2.0078 -1.2926
  134MOL0     H18064   6.378   1.507  11.114 -0.4451 -0.8921  0.7374
  134MOL0     H18065   6.320   1.567  10.950  2.0923  1.9121  1.2235
  134MOL0     H18066   6.343   1.750  11.129  0.2159  0.1993 -2.6564
  134MOL0     H18067   6.248   1.657  11.236 -0.8354  1.6935  0.5336
  134MOL0     H18068   6.137   1.769  10.977 -0.8258 -0.3535  0.3576
  134MOL0     H18069   6.038   1.700  11.098 -0.8904  0.6839  1.4304
  134MOL0     H18070   5.903   0.740  11.034 -3.8764 -2.0166  3.6934
  134MOL0     H18071   5.675   0.641  10.962  0.6740 -0.2542 -1.1859
  134MOL0     H18072   5.217   0.462  10.882 -1.7521 -1.1521 -1.4004
  134MOL0     H18073   5.090   0.350  10.719  0.7113  0.0102  0.0558
  134MOL0     H18074   3.432   0.433  10.772  0.1405 -1.2767 -1.0087
  134MOL0     H18075   3.188   0.417  10.705 -0.0171 -0.5023  0.9256
  134MOL0     H18076   2.869   0.689  10.653  2.1429 -0.2000 -0.4984
  134MOL0     H18077   2.640   0.737  10.664  1.2827  1.6312  0.7738
  134MOL0     H18078   2.300   0.674  10.579 -0.1599 -1.3093  0.9873
  134MOL0     H18079   2.440   0.721  10.675 -0.0049  2.2631 -1.5458
  134MOL0     H18080   2.422   0.498  10.726  0.8709  1.6966 -0.5562
  134MOL0     H18081   2.536   0.490  10.600  0.1380 -4.7239  0.2370
  134MOL0     H18082   2.240   0.484  10.553  0.9579  0.7286  0.2090
  134MOL0     H18083   2.304   0.339  10.595 -1.3696  0.5630  1.8416
  134MOL0     H18084   2.401   0.491  10.331 -2.6611 -1.0793 -2.6848
  134MOL0     H18085   2.494   0.353  10.400 -0.2714 -1.5693  0.8004
  134MOL0     H18086   2.211   0.143  10.234  1.1725  0.3511 -1.2764
  134MOL0     H18087   2.599   0.645  10.251 -1.2132  2.1907  0.6998
  134MOL0     H18088   2.947   0.666  10.157  0.5893  0.6471  4.8243
  134MOL0     H18089   2.833   0.525  10.147 -2.2845  0.3649 -1.9128
  134MOL0     H18090   2.783   0.689  10.097  1.7991  3.0804  1.0582
  135MOL0     O18091   0.387   0.415   7.166  0.0701 -0.7364  0.1853
  135MOL0     C18092   0.306   0.377   7.254 -0.3420  0.5073  0.4052
  135MOL0     O18093   0.327   0.371   7.384 -0.2048 -0.0439 -0.1955
  135MOL0     C18094   0.456   0.381   7.422 -0.0033 -0.2512 -0.0657
  135MOL0     C18095   0.531   0.497   7.428  0.2336 -0.1273 -0.4167
  135MOL0     C18096   0.662   0.492   7.457  0.0740 -0.0087  0.1446
  135MOL0     C18097   0.728   0.368   7.469  0.0313 -0.5218 -0.6923
  135MOL0     O18098   0.861   0.340   7.503  0.4797  0.0639  0.4068
  135MOL0     C18099   0.953   0.429   7.443  0.3338  0.4524 -0.1465
  135MOL0     C18100   1.087   0.406   7.517 -0.6533  0.4842  0.8404
  135MOL0     C18101   1.190   0.450   7.423  0.2049 -0.4247 -0.2263
  135MOL0     C18102   1.320   0.468   7.489 -0.5816 -0.9046  0.0011
  135MOL0     C18103   1.438   0.471   7.395  0.4236  0.0704  0.8555
  135MOL0     C18104   1.569   0.462   7.471 -0.5497 -1.5011  0.0395
  135MOL0     C18105   1.697   0.432   7.389  0.1066  0.0984 -0.2442
  135MOL0     C18106   1.810   0.429   7.484  0.0412 -0.1572 -0.1181
  135MOL0     N18107   1.917   0.347   7.434 -0.2947  0.0199  0.8610
  135MOL0     C18108   2.006   0.386   7.338  1.8431  0.2289  0.8845
  135MOL0     C18109   2.100   0.292   7.333 -0.9468 -0.7786 -0.8285
  135MOL0     C18110   2.212   0.287   7.231 -0.6471 -0.2751 -0.3406
  135MOL0     C18111   2.339   0.239   7.297 -0.2403 -0.3461 -0.4999
  135MOL0     C18112   2.468   0.271   7.226  0.0403  0.2334  0.9492
  135MOL0     C18113   2.595   0.215   7.299 -0.0597 -0.2716  0.3001
  135MOL0     O18114   2.714   0.243   7.224  0.2732 -0.4157  1.0602
  135MOL0     C18115   2.823   0.166   7.250  0.5906  0.0722 -0.4749
  135MOL0     C18116   2.825   0.056   7.344 -0.4821  0.5634 -0.2443
  135MOL0     C18117   2.940  -0.015   7.371  0.5856  0.0990  0.4840
  135MOL0     C18118   3.055   0.007   7.304  0.1043  0.5813 -0.0604
  135MOL0     C18119   3.180  -0.073   7.315  1.5038 -0.6301 -1.0992
  135MOL0     O18120   3.163  -0.185   7.391  0.2767 -0.2432 -0.2745
  135MOL0     C18121   3.262  -0.283   7.402  0.0816 -1.1200  0.9201
  135MOL0     C18122   3.324  -0.319   7.525 -0.3986 -0.1467  0.0737
  135MOL0     C18123   3.424  -0.420   7.520 -0.3187 -0.8658 -0.0860
  135MOL0     C18124   3.454  -0.481   7.399 -1.0838  0.1738 -0.3299
  135MOL0     O18125   3.554  -0.578   7.400 -0.1055 -1.1821 -0.3092
  135MOL0     C18126   3.681  -0.540   7.445 -0.0031 -0.0377  0.2273
  135MOL0     C18127   3.758  -0.672   7.466  0.0773  0.6835  0.5409
  135MOL0     C18128   3.709  -0.753   7.579 -0.1451 -0.0311  0.3141
  135MOL0     C18129   3.784  -0.885   7.584 -0.0050  0.5099 -0.4345
  135MOL0     C18130   3.742  -0.967   7.710 -0.1577 -0.7560 -0.8545
  135MOL0     C18131   3.821  -1.086   7.704 -0.3471  0.3839  0.8976
  135MOL0     C18132   3.979  -1.060   7.694 -0.2445  1.0043 -0.9518
  135MOL0     C18133   4.056  -1.158   7.775 -0.3256  0.1022 -0.8180
  135MOL0    Cl18134   4.047  -1.326   7.712 -0.2482 -0.1289 -0.2533
  135MOL0     C18135   3.382  -0.452   7.284  0.7114 -0.7255  0.1202
  135MOL0     C18136   3.279  -0.360   7.282 -0.7660 -0.1584 -0.4191
  135MOL0     O18137   3.285  -0.027   7.284  0.3035 -0.5859  0.3484
  135MOL0     C18138   3.051   0.105   7.207 -1.1815 -0.4749  0.0773
  135MOL0     C18139   2.943   0.186   7.183  0.4413 -1.0119 -0.0895
  135MOL0     N18140   2.081   0.211   7.448 -0.1236 -0.2420  0.5378
  135MOL0     N18141   1.975   0.250   7.508 -0.4219  0.2933 -0.4711
  135MOL0     C18142   0.652   0.248   7.470 -0.0459  0.6756  0.3103
  135MOL0     C18143   0.515   0.259   7.444 -0.1909  0.8793 -0.6692
  135MOL0     C18144   0.162   0.387   7.194 -0.2387 -0.2604  0.0744
  135MOL0     C18145   0.053   0.417   7.279 -0.5184  0.2981 -0.0894
  135MOL0     C18146  -0.078   0.447   7.227  0.3057  0.1183  0.3759
  135MOL0     C18147  -0.102   0.431   7.084 -0.6040  0.2053 -0.3668
  135MOL0     O18148  -0.217   0.472   7.020  0.4564  0.2156 -0.6815
  135MOL0     C18149  -0.328   0.527   7.101 -0.5999 -0.0717  0.3650
  135MOL0     C18150  -0.433   0.577   7.007 -0.3435 -0.0400  0.1037
  135MOL0     C18151  -0.494   0.469   6.912 -0.4663  0.7156  0.3824
  135MOL0     C18152  -0.601   0.371   6.970 -0.6975 -0.0373  1.2831
  135MOL0     C18153  -0.735   0.425   6.943 -0.3146 -0.4576  0.3016
  135MOL0     C18154  -0.835   0.491   6.912 -1.0028  0.2710 -0.5874
  135MOL0     C18155   0.004   0.376   7.004  0.1533 -1.2996  0.0916
  135MOL0     C18156   0.131   0.363   7.053 -0.1999 -0.0029 -0.4828
  135MOL0     C18157   0.235   0.324   6.949  0.4887  1.2390 -0.7358
  135MOL0     H18158   0.475   0.590   7.418 -2.2840 -1.3744  1.3168
  135MOL0     H18159   0.715   0.584   7.482 -0.1554 -0.4694  2.5856
  135MOL0     H18160   0.972   0.413   7.337 -1.9326 -1.8595 -0.3123
  135MOL0     H18161   0.915   0.530   7.458 -0.1288  0.3998 -0.9302
  135MOL0     H18162   1.096   0.298   7.535  1.5240  0.5026  0.1422
  135MOL0     H18163   1.079   0.463   7.609  1.4262 -1.7716  2.5428
  135MOL0     H18164   1.166   0.543   7.371  0.7923 -0.0703  0.1231
  135MOL0     H18165   1.215   0.370   7.353  0.0118  2.2753 -3.6402
  135MOL0     H18166   1.322   0.564   7.541  0.1724  0.1607 -1.8840
  135MOL0     H18167   1.328   0.379   7.551  0.1362 -1.2977 -0.6445
  135MOL0     H18168   1.434   0.389   7.323 -0.1326  0.9732 -0.1759
  135MOL0     H18169   1.435   0.562   7.333  2.2275 -2.0515 -2.7170
  135MOL0     H18170   1.593   0.563   7.506  2.4857 -2.4383  0.9926
  135MOL0     H18171   1.559   0.391   7.553 -1.0421 -3.1401 -1.3686
  135MOL0     H18172   1.722   0.491   7.301  0.0237 -2.4140 -2.0768
  135MOL0     H18173   1.696   0.329   7.350  0.3778 -0.3779  0.9647
  135MOL0     H18174   1.845   0.532   7.493  2.0892 -0.7540 -0.8150
  135MOL0     H18175   1.782   0.397   7.585  0.4519 -1.9831 -0.5425
  135MOL0     H18176   1.973   0.463   7.268  2.5629 -1.0971 -1.0149
  135MOL0     H18177   2.180   0.224   7.148 -2.6491 -1.4338  1.2125
  135MOL0     H18178   2.223   0.388   7.191  1.9877 -1.3111 -2.5183
  135MOL0     H18179   2.359   0.279   7.397  2.4601 -3.0699  0.2087
  135MOL0     H18180   2.327   0.132   7.314  1.5655 -0.7711 -1.5305
  135MOL0     H18181   2.480   0.377   7.203 -0.1979  0.1716  0.5383
  135MOL0     H18182   2.457   0.219   7.130  0.8471  0.2139  0.8597
  135MOL0     H18183   2.568   0.112   7.323 -0.1268 -0.1912  0.5766
  135MOL0     H18184   2.604   0.275   7.391 -3.5781 -1.6058  1.6952
  135MOL0     H18185   2.737   0.032   7.402 -0.2148  0.9680  0.3385
  135MOL0     H18186   2.927  -0.089   7.450 -5.6690 -0.0265 -0.1212
  135MOL0     H18187   3.291  -0.262   7.611  0.5912  0.7391 -0.1175
  135MOL0     H18188   3.480  -0.453   7.606 -0.4113 -0.0922  0.2814
  135MOL0     H18189   3.729  -0.471   7.375  1.7501 -1.9711 -0.5691
  135MOL0     H18190   3.668  -0.501   7.547 -0.5980 -2.2649  1.0551
  135MOL0     H18191   3.741  -0.726   7.372  2.1801 -0.2735  0.6524
  135MOL0     H18192   3.864  -0.647   7.473 -0.1348  1.6879  0.3836
  135MOL0     H18193   3.732  -0.695   7.669  0.8268 -0.9133  0.6536
  135MOL0     H18194   3.600  -0.761   7.572 -0.2090  1.2410 -0.5846
  135MOL0     H18195   3.888  -0.854   7.576  0.4393 -1.2616 -2.9838
  135MOL0     H18196   3.766  -0.942   7.492  1.9386  0.1691 -0.6307
  135MOL0     H18197   3.634  -0.982   7.703 -0.3821  0.5584 -0.5011
  135MOL0     H18198   3.767  -0.908   7.799 -2.5987  2.3250 -2.0250
  135MOL0     H18199   3.796  -1.157   7.783  2.0375 -0.2251  1.1920
  135MOL0     H18200   3.788  -1.134   7.611  2.4677  0.8040 -0.4342
  135MOL0     H18201   4.010  -0.961   7.728  1.4295  0.4471 -0.7463
  135MOL0     H18202   4.014  -1.068   7.591  1.4125 -2.6870 -0.2997
  135MOL0     H18203   4.161  -1.127   7.784 -1.4431  4.2761  0.0096
  135MOL0     H18204   4.013  -1.156   7.875 -2.1280 -1.3572 -1.5050
  135MOL0     H18205   3.403  -0.504   7.191 -0.7954  0.7562 -1.0871
  135MOL0     H18206   3.224  -0.343   7.190 -0.9066 -1.5551 -0.6130
  135MOL0     H18207   3.139   0.139   7.155  0.7413 -1.2309  2.6035
  135MOL0     H18208   2.955   0.271   7.117  0.7086 -1.4792 -0.6563
  135MOL0     H18209   0.696   0.149   7.476  0.2040  0.7497 -0.1941
  135MOL0     H18210   0.437   0.184   7.439  1.0210 -0.3481 -2.1605
  135MOL0     H18211   0.066   0.420   7.387 -2.5560  0.9004  0.1766
  135MOL0     H18212  -0.147   0.482   7.304  0.5252  2.5747 -0.4402
  135MOL0     H18213  -0.292   0.607   7.166  0.9254 -0.4806  0.0643
  135MOL0     H18214  -0.368   0.437   7.149 -1.2810  0.4355  0.7563
  135MOL0     H18215  -0.405   0.663   6.946 -1.2188  0.7105  0.7301
  135MOL0     H18216  -0.507   0.622   7.074 -0.7119 -0.8309  0.2454
  135MOL0     H18217  -0.407   0.412   6.879 -1.7982 -2.1630  1.5390
  135MOL0     H18218  -0.537   0.524   6.827 -0.4070 -0.7296 -0.6138
  135MOL0     H18219  -0.591   0.273   6.921 -0.0206  1.2633 -1.3279
  135MOL0     H18220  -0.576   0.354   7.075  0.2098  0.4379  1.1533
  135MOL0     H18221  -0.921   0.552   6.894 -1.0014  1.3271  2.4034
  135MOL0     H18222  -0.021   0.357   6.900  1.2423 -0.0620 -0.4213
  135MOL0     H18223   0.306   0.250   6.989  0.6146  1.4136 -0.6316
  135MOL0     H18224   0.184   0.290   6.859 -0.4974  1.3048 -0.2103
  135MOL0     H18225   0.281   0.417   6.915  1.2375  1.0670 -0.2285
  136MOL0     O18226   1.465   3.310   4.327  0.0292  0.3345 -0.3767
  136MOL0     C18227   1.568   3.379   4.329 -0.0634 -0.6662 -0.0962
  136MOL0     O18228   1.672   3.362   4.416 -0.2252 -0.5380 -0.3052
  136MOL0     C18229   1.664   3.288   4.536  0.1646 -0.2921 -0.2441
  136MOL0     C18230   1.619   3.366   4.638  0.0446  0.2302  0.2996
  136MOL0     C18231   1.597   3.301   4.765  0.5949 -0.6335 -0.0374
  136MOL0     C18232   1.634   3.168   4.780  0.1768  0.3845  1.2525
  136MOL0     O18233   1.633   3.091   4.891  0.3801  0.0659 -1.1870
  136MOL0     C18234   1.634   3.163   5.008 -0.0348  0.7258 -0.2248
  136MOL0     C18235   1.659   3.053   5.108 -0.2341  0.3895  0.2626
  136MOL0     C18236   1.662   3.098   5.262 -0.1221 -0.7419  0.9655
  136MOL0     C18237   1.798   3.111   5.331 -0.4900 -0.7297 -0.1726
  136MOL0     C18238   1.765   3.121   5.485 -0.1417  0.3151  0.4221
  136MOL0     C18239   1.882   3.192   5.553 -0.1114  0.1342  0.0376
  136MOL0     C18240   1.861   3.164   5.710  0.6814 -0.3294  0.7155
  136MOL0     C18241   1.981   3.214   5.791  0.1572 -0.6925 -0.3515
  136MOL0     N18242   1.992   3.128   5.908  0.2410 -0.3450  0.3668
  136MOL0     C18243   2.057   3.005   5.920 -0.0634  0.5590  0.0039
  136MOL0     C18244   1.999   2.950   6.030  0.5439  0.5538 -0.0964
  136MOL0     C18245   1.997   2.802   6.070  0.4695 -0.2671 -0.0197
  136MOL0     C18246   1.875   2.738   6.010 -0.1471 -1.0837  0.1497
  136MOL0     C18247   1.884   2.705   5.859 -0.3922 -0.8609  0.2974
  136MOL0     C18248   1.851   2.568   5.826  0.4213  0.9166 -1.1389
  136MOL0     O18249   1.928   2.474   5.909 -0.4629  0.2857 -0.2133
  136MOL0     C18250   2.008   2.394   5.835  0.4750 -0.1036  0.1291
  136MOL0     C18251   2.006   2.267   5.881  0.0676 -0.8631 -0.6874
  136MOL0     C18252   2.084   2.166   5.822 -0.2198 -0.5024  0.4562
  136MOL0     C18253   2.176   2.199   5.722  0.1763 -0.0192  0.1849
  136MOL0     C18254   2.271   2.096   5.658  0.0547 -0.5502  0.1619
  136MOL0     O18255   2.283   1.972   5.730  0.6406 -0.0919 -0.1712
  136MOL0     C18256   2.336   1.868   5.658 -0.8153 -1.0924 -1.0315
  136MOL0     C18257   2.474   1.834   5.685 -0.3523 -0.0243  0.0226
  136MOL0     C18258   2.538   1.732   5.606  0.2966 -0.6961 -0.0284
  136MOL0     C18259   2.458   1.670   5.507 -0.6232 -0.8210 -0.5081
  136MOL0     O18260   2.502   1.561   5.429  0.3631 -0.1723 -1.1445
  136MOL0     C18261   2.634   1.525   5.421 -0.3156  0.1091 -0.0622
  136MOL0     C18262   2.648   1.498   5.276 -0.2858 -0.4216 -0.5939
  136MOL0     C18263   2.800   1.473   5.233 -1.0594 -0.5674  0.5768
  136MOL0     C18264   2.906   1.587   5.218  0.2877  0.0711  0.1272
  136MOL0     C18265   3.038   1.523   5.185 -0.7066 -0.4169 -0.1436
  136MOL0     C18266   3.086   1.500   5.037  0.5409  0.1183  0.4929
  136MOL0     C18267   3.163   1.620   4.987 -1.3691  0.4491 -0.7502
  136MOL0     C18268   3.182   1.630   4.839  0.5218 -0.4063  0.6982
  136MOL0    Cl18269   3.277   1.499   4.761 -0.1845 -0.1936  0.4418
  136MOL0     C18270   2.331   1.711   5.476 -0.3828  0.6173  0.3515
  136MOL0     C18271   2.265   1.804   5.549  0.2062 -0.1497 -0.5290
  136MOL0     O18272   2.327   2.114   5.552 -0.5343 -0.1748 -0.2822
  136MOL0     C18273   2.165   2.328   5.672  0.5472  0.1404  0.4809
  136MOL0     C18274   2.081   2.430   5.724  0.4167 -0.3965  0.3978
  136MOL0     N18275   1.911   3.041   6.085  1.4461 -0.0651  0.0144
  136MOL0     N18276   1.914   3.148   6.018  0.1966 -0.9558  0.2196
  136MOL0     C18277   1.672   3.096   4.670  0.5687  1.1327 -0.5310
  136MOL0     C18278   1.696   3.152   4.544 -0.0085 -0.9657 -0.1424
  136MOL0     C18279   1.600   3.467   4.219  0.3283  0.2449 -0.0607
  136MOL0     C18280   1.726   3.538   4.227 -0.2619  0.1768 -0.0499
  136MOL0     C18281   1.755   3.640   4.136  0.6078 -0.5801  0.2109
  136MOL0     C18282   1.668   3.676   4.033 -0.7309  0.1635  0.5455
  136MOL0     O18283   1.665   3.783   3.945 -0.3748 -0.5527  0.1285
  136MOL0     C18284   1.775   3.877   3.941 -0.5566  0.5432 -0.1253
  136MOL0     C18285   1.782   3.952   3.803 -0.1580  1.0635 -0.7317
  136MOL0     C18286   1.715   4.090   3.804  0.3476 -0.0290  0.0555
  136MOL0     C18287   1.799   4.198   3.870  0.1708 -0.6489 -0.5824
  136MOL0     C18288   1.708   4.300   3.912 -0.5995  0.6055 -0.8485
  136MOL0     C18289   1.612   4.367   3.946 -0.2060 -0.9732 -0.3288
  136MOL0     C18290   1.566   3.593   4.015 -0.1732 -0.1480  0.6753
  136MOL0     C18291   1.526   3.487   4.104 -0.5344 -0.0619 -0.1004
  136MOL0     C18292   1.409   3.400   4.054 -0.5763  0.4047 -0.2317
  136MOL0     H18293   1.591   3.470   4.623 -1.1695 -0.2088 -0.6377
  136MOL0     H18294   1.573   3.363   4.850  1.7264  1.6009 -1.2563
  136MOL0     H18295   1.717   3.234   5.001  2.0687 -1.6057 -0.3544
  136MOL0     H18296   1.536   3.207   5.029  1.1647  2.8256  1.4482
  136MOL0     H18297   1.759   3.009   5.095  0.6516  1.6055  2.3180
  136MOL0     H18298   1.582   2.976   5.098  0.3009 -0.1865  0.4843
  136MOL0     H18299   1.599   3.026   5.316  0.1493 -1.3077  0.5445
  136MOL0     H18300   1.611   3.194   5.261  2.6664  0.8358  0.7876
  136MOL0     H18301   1.862   3.022   5.329 -0.8124 -1.1963  3.3490
  136MOL0     H18302   1.853   3.200   5.300 -0.5327 -0.2180  1.1424
  136MOL0     H18303   1.674   3.175   5.514  1.2212  0.9431  4.0285
  136MOL0     H18304   1.768   3.022   5.531  1.8577  0.8363  1.5182
  136MOL0     H18305   1.983   3.156   5.531 -0.2301 -1.8364  2.3511
  136MOL0     H18306   1.884   3.300   5.533  1.5098  0.0134 -0.6139
  136MOL0     H18307   1.860   3.057   5.732 -0.5964 -0.0493  2.1256
  136MOL0     H18308   1.759   3.190   5.741 -1.6879 -2.5177 -3.9876
  136MOL0     H18309   2.080   3.225   5.747  0.2169 -3.3353 -1.0604
  136MOL0     H18310   1.948   3.312   5.825  0.1534 -1.6433  2.6999
  136MOL0     H18311   2.123   2.954   5.851 -0.4458 -2.1622  1.4789
  136MOL0     H18312   2.089   2.752   6.040  0.9335  1.7000 -2.0864
  136MOL0     H18313   1.980   2.791   6.177 -0.5370  3.9316  0.4294
  136MOL0     H18314   1.866   2.643   6.063 -4.2107 -0.8914  0.1134
  136MOL0     H18315   1.785   2.799   6.021 -1.0170 -2.6453  2.2034
  136MOL0     H18316   1.977   2.731   5.806 -1.3921  1.0167 -0.6690
  136MOL0     H18317   1.804   2.769   5.819 -2.9758 -2.0772  3.1704
  136MOL0     H18318   1.861   2.548   5.719  1.6602  1.9706 -1.2462
  136MOL0     H18319   1.746   2.555   5.854  0.6794  1.5775  0.2041
  136MOL0     H18320   1.934   2.248   5.960  1.2505  0.7339  0.8710
  136MOL0     H18321   2.061   2.067   5.860 -3.1979  0.6339  1.9480
  136MOL0     H18322   2.516   1.865   5.780  0.8705  0.0518 -0.5224
  136MOL0     H18323   2.636   1.690   5.627 -0.3908 -1.4872  1.7821
  136MOL0     H18324   2.706   1.605   5.442 -2.4416  2.3747 -1.0019
  136MOL0     H18325   2.657   1.436   5.480  0.5641  0.1591 -0.3046
  136MOL0     H18326   2.587   1.411   5.251 -1.0670 -0.1765  0.3957
  136MOL0     H18327   2.615   1.586   5.220 -1.1188 -0.8654 -0.8024
  136MOL0     H18328   2.836   1.401   5.307  2.3111 -2.2039 -2.3519
  136MOL0     H18329   2.804   1.425   5.134  0.1017 -1.0918  0.8581
  136MOL0     H18330   2.921   1.632   5.317  0.6138 -0.5823  0.3807
  136MOL0     H18331   2.873   1.658   5.142  0.1414  0.3943  0.4874
  136MOL0     H18332   3.041   1.422   5.228 -2.3300 -0.4162  0.0283
  136MOL0     H18333   3.106   1.584   5.244 -0.8136 -0.0510 -0.3945
  136MOL0     H18334   3.154   1.415   5.028 -1.2076 -1.1483 -1.9713
  136MOL0     H18335   3.002   1.480   4.970  1.3475  0.0534 -0.5294
  136MOL0     H18336   3.262   1.626   5.033 -2.5822 -1.0670  2.3319
  136MOL0     H18337   3.122   1.714   5.025  2.4581  0.9255  2.9097
  136MOL0     H18338   3.081   1.647   4.803  1.3055 -0.7352 -1.8453
  136MOL0     H18339   3.240   1.722   4.830  0.6961 -0.6921 -1.4559
  136MOL0     H18340   2.283   1.662   5.392 -1.5807 -0.8595  1.8294
  136MOL0     H18341   2.170   1.855   5.533 -0.2533 -0.8564 -0.1056
  136MOL0     H18342   2.228   2.360   5.590 -0.5079  0.6205 -0.1625
  136MOL0     H18343   2.076   2.523   5.668  0.5762  0.9685  2.5499
  136MOL0     H18344   1.694   2.991   4.686 -0.4153  1.1357  0.9881
  136MOL0     H18345   1.720   3.084   4.463  0.7822 -3.0793  1.7464
  136MOL0     H18346   1.793   3.524   4.311 -0.8023 -0.9821  0.2081
  136MOL0     H18347   1.836   3.705   4.171  0.4797 -1.2597  1.8836
  136MOL0     H18348   1.870   3.823   3.954  0.3761  2.5719  2.6866
  136MOL0     H18349   1.761   3.957   4.015  0.8861  0.9993 -0.3004
  136MOL0     H18350   1.716   3.903   3.731 -0.0732  2.7300 -1.9870
  136MOL0     H18351   1.884   3.974   3.770  0.2818  3.5414  1.8255
  136MOL0     H18352   1.616   4.091   3.851 -0.6435  0.9962 -1.9602
  136MOL0     H18353   1.691   4.118   3.702 -0.5451  0.8629  0.4978
  136MOL0     H18354   1.856   4.163   3.956  0.5347  0.1894 -0.4768
  136MOL0     H18355   1.869   4.243   3.800 -0.0819  3.2455  1.3828
  136MOL0     H18356   1.526   4.420   3.980  0.5863  1.7398 -2.1715
  136MOL0     H18357   1.505   3.606   3.926  2.4825 -4.3566 -2.1220
  136MOL0     H18358   1.359   3.432   3.962  0.4320 -2.2216 -1.8293
  136MOL0     H18359   1.448   3.299   4.039 -0.7618  0.6092 -2.5260
  136MOL0     H18360   1.333   3.387   4.132  1.1473 -0.4478  1.3922
  137MOL0     O18361   6.378   0.515  10.635 -0.8002 -0.3374 -0.6292
  137MOL0     C18362   6.338   0.561  10.529 -1.9006  1.0400 -0.6507
  137MOL0     O18363   6.413   0.648  10.456 -0.0777  0.5018 -0.7608
  137MOL0     C18364   6.519   0.710  10.508 -0.9017  0.2164 -0.2126
  137MOL0     C18365   6.502   0.843  10.554  0.0287 -0.3734  0.3260
  137MOL0     C18366   6.609   0.919  10.602 -0.8861  0.7779 -0.7824
  137MOL0     C18367   6.735   0.856  10.612  0.0482  0.1041  0.7272
  137MOL0     O18368   6.841   0.923  10.671 -0.2825  0.0717 -0.0304
  137MOL0     C18369   6.967   0.911  10.610 -0.0566  0.6645 -0.1708
  137MOL0     C18370   7.070   1.012  10.660 -0.3892 -0.6797  0.7103
  137MOL0     C18371   7.209   0.977  10.597  0.1995 -0.3143 -0.1889
  137MOL0     C18372   7.328   1.031  10.676  0.1600  0.5031  0.4036
  137MOL0     C18373   7.459   1.028  10.587  0.6691  0.2914  0.0063
  137MOL0     C18374   7.498   0.884  10.544 -0.1792 -0.7988 -0.5324
  137MOL0     C18375   7.633   0.885  10.474  0.0802 -0.7003  0.5468
  137MOL0     C18376   7.695   0.753  10.410  0.8611  0.4571  0.2111
  137MOL0     N18377   7.605   0.711  10.298 -0.2718 -0.3864  0.2242
  137MOL0     C18378   7.614   0.747  10.165  0.3508 -0.3111 -0.4221
  137MOL0     C18379   7.542   0.653  10.095  0.5127  0.8571  0.3726
  137MOL0     C18380   7.541   0.648   9.941 -0.3341 -0.2246 -0.8023
  137MOL0     C18381   7.397   0.674   9.883 -1.0104 -0.0225  0.5415
  137MOL0     C18382   7.309   0.547   9.906 -0.2514 -0.2721 -0.3033
  137MOL0     C18383   7.168   0.558   9.833 -0.0215  0.6198 -0.0098
  137MOL0     O18384   7.190   0.557   9.691  0.0434  1.5382 -0.3185
  137MOL0     C18385   7.070   0.576   9.613 -0.5277  0.6837 -0.2576
  137MOL0     C18386   7.086   0.587   9.476  1.0837 -0.3168  0.1989
  137MOL0     C18387   6.972   0.592   9.393  0.4105 -0.8839  0.6820
  137MOL0     C18388   6.841   0.582   9.447  0.5776 -0.2281 -0.1002
  137MOL0     C18389   6.724   0.600   9.359  0.3564 -0.2489  0.3653
  137MOL0     O18390   6.732   0.691   9.264 -0.0133 -0.2050  0.2025
  137MOL0     C18391   6.668   0.669   9.142  0.0337 -0.2073  0.3065
  137MOL0     C18392   6.650   0.777   9.065  0.7096 -0.7206  0.0390
  137MOL0     C18393   6.596   0.773   8.938  0.4587 -0.1410  0.1916
  137MOL0     C18394   6.552   0.655   8.889  0.4860 -0.6449  0.0530
  137MOL0     O18395   6.490   0.675   8.774 -0.0168  0.3301  1.0166
  137MOL0     C18396   6.436   0.568   8.692  0.1137  0.2160  0.0740
  137MOL0     C18397   6.539   0.481   8.627 -0.3510  0.7788  0.4674
  137MOL0     C18398   6.635   0.553   8.537  0.0710 -0.0497  0.4618
  137MOL0     C18399   6.561   0.645   8.436  0.1931  0.2621 -0.2567
  137MOL0     C18400   6.656   0.708   8.330  0.3672  0.6519 -0.2535
  137MOL0     C18401   6.780   0.784   8.373 -1.0029 -0.6800 -1.1367
  137MOL0     C18402   6.737   0.934   8.384 -0.6817 -0.7377 -0.6303
  137MOL0     C18403   6.829   1.017   8.474  0.6589 -0.3133  0.2392
  137MOL0    Cl18404   6.968   1.047   8.382  0.3153  0.5022 -0.5390
  137MOL0     C18405   6.570   0.529   8.960  0.4030  0.5583  0.0428
  137MOL0     C18406   6.635   0.544   9.087  0.4175 -0.1305  0.5855
  137MOL0     O18407   6.618   0.541   9.388  0.2736  0.1148 -0.6132
  137MOL0     C18408   6.830   0.560   9.589  0.0134  0.3371  0.8344
  137MOL0     C18409   6.938   0.559   9.672  0.3575 -0.9544 -0.7362
  137MOL0     N18410   7.495   0.563  10.192  0.4010  0.2090  0.6718
  137MOL0     N18411   7.508   0.611  10.312  0.1164 -0.2490  0.3715
  137MOL0     C18412   6.750   0.720  10.584  0.0442 -0.6776  0.0110
  137MOL0     C18413   6.645   0.651  10.522  0.8583  0.1079  0.8244
  137MOL0     C18414   6.214   0.510  10.470 -0.4517  0.6302  0.0743
  137MOL0     C18415   6.130   0.598  10.401  0.8198  0.3910  0.1263
  137MOL0     C18416   6.025   0.546  10.333 -0.0309 -0.4228  0.5042
  137MOL0     C18417   5.983   0.415  10.349  0.7501  0.4963 -0.6632
  137MOL0     O18418   5.863   0.364  10.299 -0.6927  0.0388  0.1772
  137MOL0     C18419   5.778   0.433  10.206 -0.2798  0.4892  0.6950
  137MOL0     C18420   5.704   0.334  10.124  0.4165  0.3215  0.9322
  137MOL0     C18421   5.612   0.250  10.212  0.9588 -0.5969 -0.8113
  137MOL0     C18422   5.491   0.320  10.272  0.2706 -0.1482 -0.2818
  137MOL0     C18423   5.430   0.224  10.358  0.4571  0.2888 -1.1156
  137MOL0     C18424   5.371   0.137  10.416 -0.3997 -0.9018 -0.7297
  137MOL0     C18425   6.051   0.339  10.442  0.0856 -0.4697  0.4622
  137MOL0     C18426   6.173   0.377  10.494  0.4181 -0.5577  0.0217
  137MOL0     C18427   6.261   0.278  10.564 -0.0570  0.2277  0.4517
  137MOL0     H18428   6.404   0.886  10.536  0.2091 -0.4483 -0.9146
  137MOL0     H18429   6.611   1.022  10.635 -0.6515  1.2890 -2.3226
  137MOL0     H18430   7.004   0.812  10.641 -0.2219  0.4706 -0.5763
  137MOL0     H18431   6.959   0.927  10.502 -1.9199  1.6414  0.0824
  137MOL0     H18432   7.074   1.000  10.768 -0.6731  2.8942  1.2287
  137MOL0     H18433   7.055   1.118  10.638  3.1388  0.0607  1.1459
  137MOL0     H18434   7.214   1.022  10.497 -0.7411  2.4693  0.9137
  137MOL0     H18435   7.220   0.869  10.584  2.5395 -0.1752  0.1665
  137MOL0     H18436   7.311   1.137  10.695  1.7816  0.4435  2.6587
  137MOL0     H18437   7.339   0.977  10.771  1.3721  0.5850  0.3247
  137MOL0     H18438   7.451   1.089  10.497  0.2448 -0.5165 -0.5219
  137MOL0     H18439   7.540   1.072  10.646  0.0528 -0.3455  1.3666
  137MOL0     H18440   7.501   0.813  10.628 -1.3655  0.9923  1.0978
  137MOL0     H18441   7.422   0.846  10.475 -0.8684 -0.6663  0.1411
  137MOL0     H18442   7.701   0.933  10.545  1.4891  3.0415 -2.9432
  137MOL0     H18443   7.636   0.959  10.394  0.8126  1.3639  2.3953
  137MOL0     H18444   7.794   0.788  10.378 -0.5011  3.2704 -1.3317
  137MOL0     H18445   7.706   0.673  10.484  2.1087  1.5809  1.3120
  137MOL0     H18446   7.665   0.831  10.120 -0.5712  0.1104 -0.7095
  137MOL0     H18447   7.602   0.733   9.911  1.2546  0.1311  2.8552
  137MOL0     H18448   7.582   0.550   9.914  1.7755 -0.6071  3.1302
  137MOL0     H18449   7.352   0.767   9.919  0.5753  0.8336  0.4074
  137MOL0     H18450   7.424   0.676   9.777 -3.6181  0.8148 -0.1809
  137MOL0     H18451   7.288   0.537  10.013  0.8457  0.7397  0.0220
  137MOL0     H18452   7.345   0.447   9.880  1.5278 -0.3984  2.2933
  137MOL0     H18453   7.115   0.645   9.872  1.6492  1.3895  0.6615
  137MOL0     H18454   7.111   0.467   9.853 -0.4692  0.6567 -1.0531
  137MOL0     H18455   7.188   0.615   9.451  0.5678 -0.1487 -1.9522
  137MOL0     H18456   7.003   0.614   9.291  1.1455 -2.2992  0.5814
  137MOL0     H18457   6.680   0.873   9.107 -0.1944  0.6319 -2.2475
  137MOL0     H18458   6.597   0.869   8.887  2.0509  0.2261  0.8612
  137MOL0     H18459   6.383   0.502   8.762 -1.9122 -0.3427 -1.8644
  137MOL0     H18460   6.366   0.608   8.618 -1.3961 -2.7101 -0.2100
  137MOL0     H18461   6.586   0.424   8.708 -0.0405 -0.1648 -0.3517
  137MOL0     H18462   6.476   0.412   8.569  0.2271 -1.1780  2.0202
  137MOL0     H18463   6.712   0.605   8.595  0.4774  0.9162 -0.8946
  137MOL0     H18464   6.693   0.480   8.481  0.1036 -0.8299  1.4781
  137MOL0     H18465   6.510   0.719   8.498 -3.2427 -0.8644 -1.5386
  137MOL0     H18466   6.483   0.597   8.377 -0.1774  1.4573 -0.7698
  137MOL0     H18467   6.589   0.771   8.271 -3.9035 -3.9030 -0.9531
  137MOL0     H18468   6.689   0.632   8.258  1.5561 -1.2750  2.1474
  137MOL0     H18469   6.817   0.753   8.471 -0.7219  0.9615 -0.6904
  137MOL0     H18470   6.867   0.773   8.307  4.8820  0.5211  5.2342
  137MOL0     H18471   6.636   0.929   8.427 -1.3039  1.1120 -1.7747
  137MOL0     H18472   6.733   0.985   8.287  0.9914  0.9684  0.1398
  137MOL0     H18473   6.799   1.117   8.508  1.8278  0.5842 -1.2288
  137MOL0     H18474   6.853   0.963   8.565 -1.6947 -1.8849  0.0329
  137MOL0     H18475   6.540   0.431   8.925  0.2132  0.9868 -1.0463
  137MOL0     H18476   6.646   0.452   9.144 -0.6544  0.1040  1.1860
  137MOL0     H18477   6.729   0.559   9.628 -0.8954  1.4241 -1.3252
  137MOL0     H18478   6.923   0.543   9.778  0.9918  0.8864 -0.3368
  137MOL0     H18479   6.840   0.660  10.591  2.0116  1.3933 -3.9354
  137MOL0     H18480   6.667   0.546  10.507  1.6244 -0.0514  2.8188
  137MOL0     H18481   6.145   0.706  10.402 -1.9549  0.8348  0.7057
  137MOL0     H18482   5.959   0.611  10.275  0.5905 -1.5217 -1.5229
  137MOL0     H18483   5.847   0.487  10.139 -1.3758  1.8389  0.5934
  137MOL0     H18484   5.717   0.507  10.259  2.6992  1.4796  3.0231
  137MOL0     H18485   5.786   0.281  10.074 -0.8883 -1.5291  0.6348
  137MOL0     H18486   5.642   0.383  10.049  0.0033 -0.8235  0.5024
  137MOL0     H18487   5.675   0.205  10.289 -0.3014  0.6133  0.9923
  137MOL0     H18488   5.567   0.165  10.159 -1.5678  0.8804 -1.1788
  137MOL0     H18489   5.528   0.403  10.333  3.3945 -1.1351 -0.6446
  137MOL0     H18490   5.427   0.355  10.191  0.8684  1.2848 -0.1544
  137MOL0     H18491   5.310   0.073  10.475 -0.6860  0.8182  0.9474
  137MOL0     H18492   6.011   0.239  10.454 -0.6316 -0.1220  1.0324
  137MOL0     H18493   6.365   0.299  10.536  0.1372 -0.1849  0.8415
  137MOL0     H18494   6.245   0.288  10.672 -1.2508 -2.5274  0.6055
  137MOL0     H18495   6.252   0.170  10.552 -0.2214  0.1802  0.9664
  138MOL0     O18496  11.206   1.583   6.935 -0.4000  0.2392 -0.8863
  138MOL0     C18497  11.096   1.535   6.913  0.8878  0.3206  0.2206
  138MOL0     O18498  11.067   1.414   6.852  0.3227  0.5008 -0.8362
  138MOL0     C18499  11.176   1.349   6.814  0.1761  0.3809  0.8228
  138MOL0     C18500  11.253   1.270   6.893  0.0859  0.6726 -0.7118
  138MOL0     C18501  11.370   1.215   6.847 -0.6254  0.3607  0.3934
  138MOL0     C18502  11.412   1.226   6.708  0.7527 -0.5750  0.1792
  138MOL0     O18503  11.529   1.164   6.672 -0.0040  0.4987 -0.1102
  138MOL0     C18504  11.575   1.177   6.538  0.7702  0.4093  0.2145
  138MOL0     C18505  11.716   1.138   6.532 -0.0703  0.5035 -0.2831
  138MOL0     C18506  11.808   1.231   6.620  0.6472 -0.2457 -0.7398
  138MOL0     C18507  11.950   1.219   6.570 -0.1308 -0.4017  0.9556
  138MOL0     C18508  11.971   1.301   6.444 -0.2257 -0.0271  0.1691
  138MOL0     C18509  12.117   1.301   6.425 -0.8781 -0.7052  0.5520
  138MOL0     C18510  12.176   1.430   6.492 -0.3583  0.5395 -0.1947
  138MOL0     C18511  12.159   1.554   6.399  0.4069 -0.5146 -0.2985
  138MOL0     N18512  12.148   1.668   6.487  0.2282 -0.3930  0.3286
  138MOL0     C18513  12.040   1.701   6.570 -0.9572  0.8915 -0.3499
  138MOL0     C18514  12.068   1.826   6.616 -0.2237 -0.8578 -0.8231
  138MOL0     C18515  11.987   1.908   6.720  0.0838 -0.5215  0.7086
  138MOL0     C18516  12.070   1.987   6.830  0.3108 -0.8849  0.4786
  138MOL0     C18517  11.975   2.039   6.941  0.4291 -0.1193 -0.2760
  138MOL0     C18518  12.030   2.125   7.052 -0.3094 -0.2707  0.3457
  138MOL0     O18519  12.135   2.069   7.127  0.4346  0.9127  0.3666
  138MOL0     C18520  12.198   2.138   7.229 -0.1415  1.2349 -0.7418
  138MOL0     C18521  12.179   2.269   7.267 -0.3810 -0.1825  0.1304
  138MOL0     C18522  12.254   2.337   7.366  0.6021 -0.0037 -0.2016
  138MOL0     C18523  12.353   2.255   7.431 -0.4188 -0.1014  0.2176
  138MOL0     C18524  12.436   2.323   7.538 -0.4781  0.0534 -0.4161
  138MOL0     O18525  12.509   2.249   7.620 -0.3393  0.2785  0.5300
  138MOL0     C18526  12.587   2.295   7.724 -0.9437 -0.1285  0.3091
  138MOL0     C18527  12.702   2.221   7.754  0.4661 -0.2586  0.2248
  138MOL0     C18528  12.789   2.268   7.850  0.7318 -0.5216 -0.0405
  138MOL0     C18529  12.752   2.377   7.935 -0.2362  0.3010  0.0962
  138MOL0     O18530  12.834   2.413   8.043 -0.5007 -0.9472 -0.1602
  138MOL0     C18531  12.976   2.421   8.014  0.7560 -0.0070  0.0120
  138MOL0     C18532  13.034   2.466   8.144 -0.6443  0.1595  1.0043
  138MOL0     C18533  13.186   2.478   8.118  0.3199 -1.1405 -0.4319
  138MOL0     C18534  13.265   2.528   8.240 -0.9676  0.4392 -0.3899
  138MOL0     C18535  13.288   2.404   8.331 -0.4967  0.1395 -0.6146
  138MOL0     C18536  13.366   2.431   8.452 -0.4830 -0.4171  0.0454
  138MOL0     C18537  13.513   2.469   8.427 -0.5133  0.0236 -0.4758
  138MOL0     C18538  13.603   2.437   8.552  0.0508 -0.4796  0.2605
  138MOL0    Cl18539  13.777   2.488   8.529  0.1122 -0.0403 -0.1965
  138MOL0     C18540  12.620   2.431   7.925  0.3677  0.7622 -0.0838
  138MOL0     C18541  12.542   2.390   7.821  0.0360 -0.3065 -0.2827
  138MOL0     O18542  12.410   2.442   7.555  0.7689 -0.0024 -0.7391
  138MOL0     C18543  12.381   2.124   7.389  0.4422 -0.3623  0.4981
  138MOL0     C18544  12.291   2.066   7.294 -0.3853  0.1939  0.9149
  138MOL0     N18545  12.194   1.860   6.567 -0.2784  0.6015 -0.0594
  138MOL0     N18546  12.242   1.763   6.497 -0.1310 -0.2923  0.3356
  138MOL0     C18547  11.325   1.305   6.621  0.7913 -0.1525 -0.1709
  138MOL0     C18548  11.205   1.363   6.678 -0.4543 -0.6787  1.5878
  138MOL0     C18549  10.983   1.626   6.944 -0.2401  0.7842 -0.0467
  138MOL0     C18550  10.860   1.569   6.968  0.1028 -0.3030 -0.4739
  138MOL0     C18551  10.739   1.644   6.984  0.3250 -1.4542 -0.1995
  138MOL0     C18552  10.748   1.784   7.003  0.2085  0.1648  0.8731
  138MOL0     O18553  10.628   1.845   7.025 -0.4297  0.8150  0.0264
  138MOL0     C18554  10.546   1.807   7.144 -0.2341 -0.0795 -0.2314
  138MOL0     C18555  10.600   1.857   7.281  0.9896  0.7110  0.5922
  138MOL0     C18556  10.737   1.807   7.331 -0.0322 -0.3766 -0.4494
  138MOL0     C18557  10.760   1.876   7.468 -1.4166 -0.2241  0.2558
  138MOL0     C18558  10.906   1.867   7.493 -0.1094 -0.3612 -0.3306
  138MOL0     C18559  11.026   1.858   7.512 -0.2441 -0.8243  0.5927
  138MOL0     C18560  10.870   1.843   6.967  0.3844 -0.0711 -0.0711
  138MOL0     C18561  10.985   1.771   6.940  0.5421  0.3037  0.1573
  138MOL0     C18562  11.109   1.851   6.901 -0.6957 -0.6894  0.0863
  138MOL0     H18563  11.216   1.253   6.994  0.1634  1.6457 -0.5024
  138MOL0     H18564  11.433   1.166   6.921 -2.3508 -1.1246  0.9417
  138MOL0     H18565  11.511   1.122   6.468 -1.2519  1.7076  0.9405
  138MOL0     H18566  11.565   1.281   6.504 -0.8317  0.7692  1.6767
  138MOL0     H18567  11.749   1.153   6.429  0.0531 -0.9247 -0.4760
  138MOL0     H18568  11.727   1.032   6.558 -0.2717 -0.2026 -2.8439
  138MOL0     H18569  11.788   1.199   6.722  0.6134 -0.4403 -0.8078
  138MOL0     H18570  11.757   1.325   6.597 -2.9611 -1.5842  1.0441
  138MOL0     H18571  12.009   1.266   6.649 -0.1705 -1.9564  1.9639
  138MOL0     H18572  11.984   1.115   6.561  0.8192 -0.1628  1.5950
  138MOL0     H18573  11.929   1.239   6.365  2.4531 -2.9463  0.8213
  138MOL0     H18574  11.928   1.401   6.450  0.7663  0.3257  2.5497
  138MOL0     H18575  12.166   1.215   6.471  1.8296 -0.1365 -1.0741
  138MOL0     H18576  12.128   1.306   6.317 -3.4875 -3.0596  0.0580
  138MOL0     H18577  12.280   1.398   6.505 -1.0280 -1.4469  0.7782
  138MOL0     H18578  12.132   1.441   6.591  1.1698 -1.8686  0.8469
  138MOL0     H18579  12.244   1.565   6.331  1.6307 -1.6621  1.0037
  138MOL0     H18580  12.061   1.538   6.352 -0.8714  0.7142  1.7769
  138MOL0     H18581  11.946   1.650   6.591 -0.1644 -1.4767 -2.1118
  138MOL0     H18582  11.916   1.981   6.678  1.1799  1.3419  1.9566
  138MOL0     H18583  11.916   1.840   6.768 -0.9981  0.3151  0.3598
  138MOL0     H18584  12.139   1.920   6.884 -1.2405 -1.3251  2.0052
  138MOL0     H18585  12.122   2.062   6.771  0.5750 -0.9493  0.6283
  138MOL0     H18586  11.922   1.954   6.987 -3.1048  1.0753 -1.7477
  138MOL0     H18587  11.905   2.104   6.889  0.1435  0.2387  0.5313
  138MOL0     H18588  11.958   2.150   7.130  0.7183 -0.7752  1.4942
  138MOL0     H18589  12.069   2.211   6.997  0.1519 -0.8288 -0.2303
  138MOL0     H18590  12.094   2.322   7.226 -1.5698 -0.7543  1.7371
  138MOL0     H18591  12.225   2.441   7.380 -0.2254 -0.5329  2.4904
  138MOL0     H18592  12.732   2.137   7.692  1.7093  0.4659 -0.2105
  138MOL0     H18593  12.870   2.197   7.859  0.1507 -1.3399 -1.0149
  138MOL0     H18594  13.023   2.325   7.991 -1.3306 -1.3145  0.8835
  138MOL0     H18595  12.989   2.493   7.932 -0.9954  1.5057  0.9942
  138MOL0     H18596  12.991   2.565   8.161 -0.4389  0.0867  1.9927
  138MOL0     H18597  12.996   2.403   8.225 -0.9704  1.6052  1.9981
  138MOL0     H18598  13.218   2.377   8.092  1.2077 -1.1240  0.5335
  138MOL0     H18599  13.204   2.550   8.038 -0.1939  0.9180  1.2147
  138MOL0     H18600  13.219   2.613   8.292  1.5147  0.7004  1.5765
  138MOL0     H18601  13.361   2.557   8.195 -1.0251  0.7718 -0.3027
  138MOL0     H18602  13.333   2.319   8.280 -1.7569 -0.6660 -0.4293
  138MOL0     H18603  13.187   2.378   8.367 -0.2800  0.2178  0.0667
  138MOL0     H18604  13.324   2.523   8.494  1.8179  1.2229 -1.0244
  138MOL0     H18605  13.364   2.353   8.528 -2.6002  0.2547  0.7561
  138MOL0     H18606  13.520   2.573   8.393 -2.5507  0.9473  1.7062
  138MOL0     H18607  13.554   2.413   8.342  1.4364  1.9141 -0.8659
  138MOL0     H18608  13.564   2.505   8.628 -0.9884  1.3348 -1.7892
  138MOL0     H18609  13.594   2.329   8.569 -0.6740 -1.3291 -4.2086
  138MOL0     H18610  12.590   2.510   7.993 -0.3923  1.1585 -0.8692
  138MOL0     H18611  12.444   2.431   7.799  0.3880  0.3243 -0.7058
  138MOL0     H18612  12.458   2.070   7.442  2.8941  2.2056 -0.2219
  138MOL0     H18613  12.315   1.964   7.265 -2.7961 -0.4606  1.0167
  138MOL0     H18614  11.359   1.315   6.518  2.3154 -1.0072  0.2181
  138MOL0     H18615  11.135   1.428   6.625  0.8785 -1.2672 -1.0232
  138MOL0     H18616  10.842   1.463   6.955 -0.8033 -0.0001 -1.9966
  138MOL0     H18617  10.648   1.593   7.010  0.0355 -1.2986 -0.8767
  138MOL0     H18618  10.539   1.698   7.148  0.5458 -0.1015  0.7677
  138MOL0     H18619  10.443   1.844   7.134  0.8491  2.8249 -2.1204
  138MOL0     H18620  10.526   1.834   7.358  0.9916 -0.7448  0.1943
  138MOL0     H18621  10.612   1.965   7.270  0.6415  0.8824  1.7568
  138MOL0     H18622  10.812   1.831   7.256 -0.5320 -2.2285 -1.6028
  138MOL0     H18623  10.743   1.700   7.350 -1.2929 -0.2594  0.8416
  138MOL0     H18624  10.723   1.979   7.473 -1.2569 -0.1176 -0.5587
  138MOL0     H18625  10.717   1.814   7.547  0.5316  0.4001  1.8853
  138MOL0     H18626  11.130   1.850   7.536 -0.1285 -0.7228  0.1398
  138MOL0     H18627  10.860   1.950   6.953  0.4353 -0.0209  0.2697
  138MOL0     H18628  11.176   1.805   6.828  0.5949 -0.7780  1.2800
  138MOL0     H18629  11.077   1.940   6.847 -2.5429 -2.4665 -1.9593
  138MOL0     H18630  11.164   1.877   6.992 -1.7584 -2.1674  1.2221
  139MOL0     O18631   9.187   8.402   9.442 -0.1398 -0.3958  0.4443
  139MOL0     C18632   9.201   8.523   9.475  0.0023  0.0968  0.7849
  139MOL0     O18633   9.110   8.600   9.541 -0.4413 -0.9536 -0.8822
  139MOL0     C18634   8.980   8.555   9.526  0.6210  0.8957  0.7760
  139MOL0     C18635   8.927   8.445   9.593  0.6896  0.1599 -1.0517
  139MOL0     C18636   8.802   8.392   9.573 -0.1468  0.8752  0.7247
  139MOL0     C18637   8.724   8.466   9.485 -0.5930  0.8452 -0.7372
  139MOL0     O18638   8.598   8.415   9.476  0.2501  0.4694 -0.6992
  139MOL0     C18639   8.493   8.500   9.431  0.2906 -0.3715  0.0706
  139MOL0     C18640   8.360   8.430   9.455  0.0564 -0.0292 -0.2384
  139MOL0     C18641   8.324   8.380   9.597 -0.4500 -0.0436  0.4501
  139MOL0     C18642   8.175   8.345   9.606 -0.6525  0.1329 -0.0809
  139MOL0     C18643   8.153   8.273   9.736  0.1867  0.6072  0.4062
  139MOL0     C18644   8.014   8.217   9.733  0.3060  0.3682 -0.1388
  139MOL0     C18645   7.975   8.128   9.848  0.0313 -0.6440 -0.3421
  139MOL0     C18646   7.982   8.212   9.983 -0.4277 -1.1522  0.6283
  139MOL0     N18647   7.930   8.125  10.085  0.1288  0.4205 -0.1967
  139MOL0     C18648   7.797   8.093  10.099  0.9371  0.2019  0.7133
  139MOL0     C18649   7.794   7.999  10.190  0.1932  0.5795  0.4750
  139MOL0     C18650   7.679   7.917  10.233  0.0092  0.2056  0.5341
  139MOL0     C18651   7.561   8.009  10.265 -0.1905  0.0171  0.2443
  139MOL0     C18652   7.448   7.910  10.307  0.1551 -0.2111  0.2410
  139MOL0     C18653   7.462   7.823  10.434  0.2085 -0.8814  0.5628
  139MOL0     O18654   7.568   7.722  10.425 -0.2327 -0.1662  0.5595
  139MOL0     C18655   7.529   7.593  10.399 -0.9450 -0.8367 -0.4061
  139MOL0     C18656   7.455   7.507  10.488  0.1650 -0.2373  1.5031
  139MOL0     C18657   7.407   7.380  10.450 -0.3363 -0.7569 -0.3594
  139MOL0     C18658   7.430   7.335  10.316  0.8718  0.6355 -1.1434
  139MOL0     C18659   7.363   7.213  10.274 -0.2142  0.4101 -0.7745
  139MOL0     O18660   7.405   7.159  10.152  0.3341  0.0457  0.2058
  139MOL0     C18661   7.347   7.037  10.129  0.4400  0.1525 -0.7885
  139MOL0     C18662   7.215   7.019  10.077  0.0179 -1.1945 -0.0352
  139MOL0     C18663   7.166   6.893  10.053 -0.0337  0.6995 -0.2512
  139MOL0     C18664   7.243   6.782  10.094 -0.8050 -0.4877 -0.6767
  139MOL0     O18665   7.197   6.656  10.066 -0.5395  0.3108  0.6410
  139MOL0     C18666   7.066   6.624  10.106  0.0363  0.0114  0.3510
  139MOL0     C18667   7.074   6.575  10.250 -0.1319 -0.3544  0.6953
  139MOL0     C18668   6.943   6.514  10.294 -0.2417 -0.1085  1.2608
  139MOL0     C18669   6.939   6.482  10.441  0.8719 -0.0479 -0.1647
  139MOL0     C18670   6.797   6.428  10.476 -0.1222 -0.1674 -1.3556
  139MOL0     C18671   6.768   6.289  10.413  0.9300 -0.4706  0.6381
  139MOL0     C18672   6.615   6.247  10.421 -0.0430 -0.2296  1.4562
  139MOL0     C18673   6.530   6.333  10.326 -0.5951  0.7120  0.9304
  139MOL0    Cl18674   6.369   6.283  10.360 -0.2049  0.1549  0.0462
  139MOL0     C18675   7.368   6.798  10.151  0.1758  0.1067  0.1936
  139MOL0     C18676   7.411   6.925  10.181  0.7495  0.2139 -0.7611
  139MOL0     O18677   7.270   7.164  10.347 -0.3268 -0.8420  0.2837
  139MOL0     C18678   7.505   7.412  10.225 -0.6026 -0.0956 -0.6962
  139MOL0     C18679   7.566   7.536  10.276 -0.0541  0.5422 -0.4562
  139MOL0     N18680   7.921   7.976  10.236  0.1743 -0.1401  0.0790
  139MOL0     N18681   8.003   8.042  10.167 -0.5088 -0.0388  0.4504
  139MOL0     C18682   8.769   8.576   9.417  0.5468 -0.6809  0.2823
  139MOL0     C18683   8.897   8.618   9.431  0.2657 -0.2885 -0.4730
  139MOL0     C18684   9.329   8.575   9.444  0.4300 -1.0600 -0.2033
  139MOL0     C18685   9.342   8.715   9.420 -0.5548  0.2068 -0.6578
  139MOL0     C18686   9.465   8.768   9.391 -0.0397  0.6430  0.5275
  139MOL0     C18687   9.583   8.698   9.389 -0.2271  0.0572  0.5430
  139MOL0     O18688   9.704   8.751   9.345  0.4561  0.0140  0.0231
  139MOL0     C18689   9.725   8.892   9.355 -0.7787  0.3480 -0.6938
  139MOL0     C18690   9.848   8.919   9.274 -0.2595  0.1384  0.1323
  139MOL0     C18691   9.833   8.917   9.120  0.0463 -0.7056 -0.4782
  139MOL0     C18692   9.967   8.927   9.060 -0.4641  0.3869 -0.4009
  139MOL0     C18693  10.031   9.062   9.076 -0.5736 -0.4283 -0.1947
  139MOL0     C18694  10.088   9.172   9.069 -0.3387  0.1938  0.3407
  139MOL0     C18695   9.570   8.558   9.412 -0.0341  0.5491  1.0738
  139MOL0     C18696   9.449   8.494   9.435 -0.6394  0.2073 -0.5379
  139MOL0     C18697   9.460   8.351   9.476 -0.5449 -0.8507 -0.8141
  139MOL0     H18698   8.980   8.395   9.674 -0.8974 -0.4568 -0.3477
  139MOL0     H18699   8.755   8.314   9.633  0.4938 -0.6018 -0.6084
  139MOL0     H18700   8.496   8.598   9.479 -3.6388 -1.0248  2.0282
  139MOL0     H18701   8.492   8.507   9.322  1.8644 -1.4546 -0.0527
  139MOL0     H18702   8.347   8.358   9.374 -3.1286  0.9997 -0.8059
  139MOL0     H18703   8.283   8.505   9.434  0.1014  0.9222  2.5470
  139MOL0     H18704   8.345   8.454   9.674  0.9209 -0.7270  0.7656
  139MOL0     H18705   8.393   8.298   9.621 -1.0204 -0.7674 -0.2904
  139MOL0     H18706   8.108   8.432   9.603 -0.4548  0.2849 -0.1110
  139MOL0     H18707   8.154   8.283   9.518  0.6935  1.0798 -1.1232
  139MOL0     H18708   8.224   8.191   9.746 -0.2565  0.2005  0.2296
  139MOL0     H18709   8.163   8.339   9.823 -1.0043  0.9263  0.3236
  139MOL0     H18710   7.940   8.296   9.719 -0.7000 -0.2604  1.3542
  139MOL0     H18711   8.006   8.156   9.643  2.8172  0.4515 -0.4860
  139MOL0     H18712   8.044   8.044   9.848 -2.4619 -2.7954 -0.8410
  139MOL0     H18713   7.875   8.090   9.829 -1.0924  2.1656 -0.5339
  139MOL0     H18714   8.077   8.260  10.010 -1.3074  2.1667 -1.5785
  139MOL0     H18715   7.924   8.304   9.978  2.2554  0.5876 -2.1899
  139MOL0     H18716   7.705   8.132  10.056 -2.1481 -3.9563  2.6977
  139MOL0     H18717   7.654   7.849  10.151  1.1298 -0.0803  0.4166
  139MOL0     H18718   7.718   7.866  10.321  3.6577  0.9136 -0.4888
  139MOL0     H18719   7.590   8.074  10.347  2.9129 -1.2115  0.2833
  139MOL0     H18720   7.529   8.071  10.181 -0.1104  1.3377  1.1628
  139MOL0     H18721   7.427   7.841  10.224  1.0714 -0.2587  0.0342
  139MOL0     H18722   7.365   7.974  10.336  1.3014  0.4569  2.2604
  139MOL0     H18723   7.370   7.775  10.468  1.2603 -1.8864  2.1106
  139MOL0     H18724   7.486   7.884  10.522  0.0929  0.0164 -0.0109
  139MOL0     H18725   7.440   7.554  10.585  1.7437  0.6079  1.3790
  139MOL0     H18726   7.359   7.316  10.523  1.2406 -0.7953  0.7018
  139MOL0     H18727   7.156   7.102  10.042 -1.4168 -1.2053  2.1530
  139MOL0     H18728   7.072   6.881  10.000 -0.1291  1.6801 -0.3342
  139MOL0     H18729   6.991   6.703  10.112 -2.2650 -2.1478  3.2366
  139MOL0     H18730   7.021   6.542  10.049 -1.6696 -0.2486  1.9661
  139MOL0     H18731   7.155   6.505  10.271  2.8051  3.2284  2.4561
  139MOL0     H18732   7.099   6.656  10.319 -1.3341 -0.6618  1.5260
  139MOL0     H18733   6.861   6.576  10.257  1.9649  1.4909 -1.3454
  139MOL0     H18734   6.931   6.422  10.235 -0.7293  0.5083  0.3705
  139MOL0     H18735   6.961   6.569  10.504  1.0648  0.9629 -1.5754
  139MOL0     H18736   7.008   6.400  10.464  2.1145  1.5054  2.1058
  139MOL0     H18737   6.718   6.502  10.459  1.3149  1.2026 -2.2649
  139MOL0     H18738   6.779   6.401  10.581  0.0905  0.1574 -1.2350
  139MOL0     H18739   6.793   6.280  10.307 -0.0624 -1.2419  0.4613
  139MOL0     H18740   6.832   6.215  10.463  0.6635 -0.3848  1.1108
  139MOL0     H18741   6.578   6.250  10.523 -1.5951 -3.2789  1.0948
  139MOL0     H18742   6.591   6.150  10.376  0.0938  1.3621 -2.5530
  139MOL0     H18743   6.540   6.441  10.335 -0.8825  0.8252 -0.0120
  139MOL0     H18744   6.561   6.315  10.223 -0.2628 -1.2740  1.3390
  139MOL0     H18745   7.434   6.715  10.174  1.1483 -0.2056 -3.1377
  139MOL0     H18746   7.506   6.945  10.230  1.0561 -2.4755 -0.0980
  139MOL0     H18747   7.536   7.378  10.127 -0.9355  0.5718 -1.0459
  139MOL0     H18748   7.638   7.593  10.217  0.7608 -0.8487 -0.8349
  139MOL0     H18749   8.707   8.616   9.338 -0.4849  1.0390  1.8858
  139MOL0     H18750   8.930   8.708   9.380 -2.2219 -0.2477 -2.1506
  139MOL0     H18751   9.259   8.780   9.445  0.9658  1.4934  1.4514
  139MOL0     H18752   9.467   8.874   9.368 -0.4676  0.2399 -1.5575
  139MOL0     H18753   9.742   8.912   9.461  1.9895  0.5712 -1.1009
  139MOL0     H18754   9.638   8.945   9.315 -2.1572 -1.3657 -0.0430
  139MOL0     H18755   9.929   8.850   9.298  0.9636 -0.0169 -3.7598
  139MOL0     H18756   9.875   9.023   9.296 -2.8800  1.2543 -1.4622
  139MOL0     H18757   9.766   8.998   9.089  0.0911 -0.9132 -1.1197
  139MOL0     H18758   9.804   8.818   9.086 -0.3112 -0.7886  0.0633
  139MOL0     H18759  10.035   8.851   9.099  0.9417  1.0961 -1.3885
  139MOL0     H18760   9.965   8.913   8.951  0.7752 -2.2572 -0.1506
  139MOL0     H18761  10.129   9.269   9.048 -2.5298  0.6413 -2.3361
  139MOL0     H18762   9.659   8.496   9.423  1.1149  2.0771  0.7860
  139MOL0     H18763   9.399   8.290   9.408  1.1080 -4.2538  0.5389
  139MOL0     H18764   9.558   8.309   9.500 -0.8127 -0.5793  0.8887
  139MOL0     H18765   9.401   8.331   9.566 -0.9928 -0.8364 -1.0992
  140MOL0     O18766   1.210   2.413   0.757 -0.6167 -0.4172  0.1580
  140MOL0     C18767   1.245   2.394   0.641 -0.9406 -0.7043  0.1492
  140MOL0     O18768   1.179   2.412   0.529 -0.0040  0.3396  0.7719
  140MOL0     C18769   1.040   2.405   0.514  0.3669 -0.2356 -0.7359
  140MOL0     C18770   0.979   2.418   0.388  0.4520 -0.0997  0.0677
  140MOL0     C18771   0.836   2.405   0.372 -0.3319 -0.8028  0.0800
  140MOL0     C18772   0.750   2.386   0.481 -0.2661  0.5557 -0.3329
  140MOL0     O18773   0.620   2.378   0.450  0.4719 -0.0772  0.1361
  140MOL0     C18774   0.532   2.326   0.556 -0.0991  0.8642 -1.0418
  140MOL0     C18775   0.388   2.315   0.493 -0.7665  1.2235 -0.0574
  140MOL0     C18776   0.285   2.260   0.588 -1.0491 -0.0451 -0.2562
  140MOL0     C18777   0.144   2.244   0.525 -0.2397  0.5402  0.1588
  140MOL0     C18778   0.049   2.181   0.630 -0.1031  0.8308 -0.5622
  140MOL0     C18779   0.076   2.028   0.644 -0.9536 -0.1047  0.0896
  140MOL0     C18780  -0.037   1.944   0.685  0.3488  0.0577 -0.1185
  140MOL0     C18781  -0.099   1.990   0.819 -0.1606  0.2532  0.3128
  140MOL0     N18782  -0.193   1.879   0.861 -0.7102  0.1655  0.3345
  140MOL0     C18783  -0.322   1.874   0.838  0.1217 -0.1798  0.4462
  140MOL0     C18784  -0.380   1.780   0.913  0.7600 -0.1128 -0.1070
  140MOL0     C18785  -0.529   1.740   0.892  0.0856  0.1811  0.0256
  140MOL0     C18786  -0.620   1.843   0.967 -0.2966 -0.4755  0.7409
  140MOL0     C18787  -0.638   1.986   0.905 -0.7832  0.6519 -0.0652
  140MOL0     C18788  -0.706   2.072   1.010 -0.2419 -0.7988  0.0098
  140MOL0     O18789  -0.627   2.100   1.129  0.2036 -0.2115  0.5298
  140MOL0     C18790  -0.502   2.158   1.104  0.6242 -0.3298  0.1013
  140MOL0     C18791  -0.394   2.091   1.153 -0.2997 -0.1549  0.8431
  140MOL0     C18792  -0.263   2.132   1.128 -0.1037  0.2674 -0.2688
  140MOL0     C18793  -0.239   2.251   1.065  0.1771 -0.2745  0.3443
  140MOL0     C18794  -0.106   2.296   1.051 -0.2942 -0.1906 -0.6534
  140MOL0     O18795  -0.008   2.223   1.116 -0.2163 -0.2996 -0.6967
  140MOL0     C18796   0.117   2.277   1.127  0.2778  1.3967 -0.8472
  140MOL0     C18797   0.156   2.378   1.211 -0.0250  0.0511  0.7905
  140MOL0     C18798   0.283   2.431   1.209  0.0635  0.0191 -1.3164
  140MOL0     C18799   0.381   2.386   1.118 -0.1119 -0.1342  0.9958
  140MOL0     O18800   0.504   2.434   1.102 -0.4693  0.1777  0.1505
  140MOL0     C18801   0.596   2.365   1.185 -0.5770  0.9095 -1.0852
  140MOL0     C18802   0.739   2.369   1.146 -0.4416 -0.3375 -0.2763
  140MOL0     C18803   0.803   2.501   1.167  0.0724 -0.6496 -0.3322
  140MOL0     C18804   0.945   2.495   1.119 -0.1508  0.5621 -0.0876
  140MOL0     C18805   1.001   2.630   1.094 -0.1015 -0.2533  0.5955
  140MOL0     C18806   1.134   2.635   1.013 -0.0908 -0.5047  0.1329
  140MOL0     C18807   1.211   2.774   1.041  0.1028  0.5518  0.4134
  140MOL0     C18808   1.322   2.795   0.939  0.2568  0.2906 -0.0310
  140MOL0    Cl18809   1.245   2.862   0.783 -0.3470 -0.0005 -0.5617
  140MOL0     C18810   0.340   2.290   1.024 -1.1588 -0.6030  0.1359
  140MOL0     C18811   0.216   2.233   1.030 -0.4846 -0.2595 -0.1303
  140MOL0     O18812  -0.084   2.382   0.969  0.6074  0.0243  0.1777
  140MOL0     C18813  -0.346   2.321   1.016  0.7870 -0.7302  0.1752
  140MOL0     C18814  -0.480   2.282   1.038  0.5006 -0.2583 -0.4710
  140MOL0     N18815  -0.276   1.715   0.986  0.3342 -0.5508  0.3168
  140MOL0     N18816  -0.165   1.785   0.954  0.3088  0.1343  0.2062
  140MOL0     C18817   0.813   2.383   0.610 -0.3812  0.0769 -0.5430
  140MOL0     C18818   0.950   2.382   0.626 -0.9559 -0.4588 -0.7401
  140MOL0     C18819   1.385   2.356   0.616  0.1294 -0.7047 -0.9526
  140MOL0     C18820   1.470   2.439   0.534 -0.3600  0.2783 -0.7727
  140MOL0     C18821   1.601   2.420   0.513 -0.3077 -0.1441 -0.2781
  140MOL0     C18822   1.662   2.311   0.578  0.0988 -1.2037  0.2687
  140MOL0     O18823   1.800   2.299   0.556  0.6637  0.3304 -0.6000
  140MOL0     C18824   1.869   2.209   0.643 -0.1956 -0.0865  0.6530
  140MOL0     C18825   2.011   2.236   0.592 -0.8915  0.3549 -0.5069
  140MOL0     C18826   2.114   2.132   0.659 -0.0884  0.2353  0.8298
  140MOL0     C18827   2.241   2.146   0.585 -0.5529 -0.5265 -0.3161
  140MOL0     C18828   2.338   2.040   0.617  0.2928  0.1931 -0.0165
  140MOL0     C18829   2.402   1.940   0.646  0.4401  0.7987  0.0575
  140MOL0     C18830   1.587   2.228   0.666  1.8283  0.3565  0.0251
  140MOL0     C18831   1.442   2.245   0.684 -0.2064 -0.8016  0.7957
  140MOL0     C18832   1.358   2.141   0.761  0.1953 -0.2431  0.0979
  140MOL0     H18833   1.036   2.430   0.296  0.3473 -1.0950 -0.1321
  140MOL0     H18834   0.798   2.407   0.270  2.7817  0.2754 -1.1961
  140MOL0     H18835   0.563   2.231   0.600 -0.5066  0.4968 -1.5344
  140MOL0     H18836   0.536   2.396   0.640 -0.0487  2.3779 -2.2641
  140MOL0     H18837   0.393   2.251   0.404  0.8491 -0.2186  1.0182
  140MOL0     H18838   0.359   2.411   0.449 -3.2318  0.2822 -0.6837
  140MOL0     H18839   0.292   2.341   0.662  3.1907 -0.1598 -0.2730
  140MOL0     H18840   0.317   2.165   0.631 -1.4600 -0.2918 -0.4948
  140MOL0     H18841   0.105   2.339   0.487  2.1527  1.4104 -0.2908
  140MOL0     H18842   0.161   2.178   0.440  2.4608 -0.1719  1.1463
  140MOL0     H18843   0.070   2.220   0.730  0.6415 -0.3788 -0.2247
  140MOL0     H18844  -0.045   2.221   0.591  0.5060  1.6125 -1.2671
  140MOL0     H18845   0.119   1.980   0.555 -1.9485  1.2523 -1.1513
  140MOL0     H18846   0.160   2.001   0.709  0.3740 -1.1183 -1.9071
  140MOL0     H18847  -0.001   1.841   0.679  0.0390  0.0112 -1.5708
  140MOL0     H18848  -0.116   1.962   0.611 -1.1303 -0.6293  1.2476
  140MOL0     H18849  -0.021   2.012   0.892 -0.0003  0.5399  0.0590
  140MOL0     H18850  -0.147   2.087   0.808  0.7210  0.6427 -0.2237
  140MOL0     H18851  -0.361   1.947   0.768 -0.8651 -0.3538  0.8004
  140MOL0     H18852  -0.539   1.725   0.784  3.0507 -2.7834  0.0188
  140MOL0     H18853  -0.545   1.637   0.927 -2.0712  1.1404  2.2162
  140MOL0     H18854  -0.716   1.805   1.005 -0.8656 -0.4738 -0.6337
  140MOL0     H18855  -0.551   1.845   1.052  3.1214 -0.2943 -1.8343
  140MOL0     H18856  -0.693   1.967   0.813  0.4214 -1.0877 -0.4878
  140MOL0     H18857  -0.546   2.039   0.879 -2.0929  3.6353  1.0102
  140MOL0     H18858  -0.800   2.025   1.042 -1.6409 -0.5938 -3.3646
  140MOL0     H18859  -0.735   2.172   0.978  0.8782 -0.0408  1.2481
  140MOL0     H18860  -0.425   1.999   1.200 -2.2070 -0.4307 -0.8344
  140MOL0     H18861  -0.184   2.081   1.182 -1.6744 -0.3832  1.5207
  140MOL0     H18862   0.081   2.414   1.281 -1.3532  1.3259 -1.1684
  140MOL0     H18863   0.313   2.508   1.279  2.7661 -2.3930  0.4096
  140MOL0     H18864   0.584   2.395   1.290  2.5736  1.0840 -0.6838
  140MOL0     H18865   0.569   2.260   1.169 -0.8563  0.5086  1.5387
  140MOL0     H18866   0.789   2.295   1.208 -0.5688  0.4160  0.7528
  140MOL0     H18867   0.746   2.334   1.043  1.0263 -1.4620  0.1769
  140MOL0     H18868   0.734   2.577   1.130  0.0210 -0.9662 -0.9147
  140MOL0     H18869   0.811   2.494   1.275  3.6509 -0.7710 -0.4836
  140MOL0     H18870   0.953   2.437   1.026 -0.3881  0.3923 -0.0009
  140MOL0     H18871   0.997   2.439   1.197  0.1062 -0.1285 -0.7451
  140MOL0     H18872   1.031   2.682   1.185 -1.6699  2.1012 -0.1366
  140MOL0     H18873   0.932   2.694   1.038  0.7041 -0.3312 -0.5418
  140MOL0     H18874   1.204   2.560   1.048  0.1407 -0.0799  0.5973
  140MOL0     H18875   1.106   2.623   0.908 -2.4796 -0.7677  0.7385
  140MOL0     H18876   1.257   2.781   1.140  0.6803 -0.4150  0.2228
  140MOL0     H18877   1.142   2.859   1.031 -0.7932  0.0067  1.5899
  140MOL0     H18878   1.387   2.881   0.960  1.3429  0.6319 -3.9646
  140MOL0     H18879   1.373   2.699   0.934 -0.3171  0.0399 -1.7496
  140MOL0     H18880   0.404   2.264   0.940  0.6714 -2.3873  1.9704
  140MOL0     H18881   0.189   2.172   0.944  0.1303  0.7478 -1.0528
  140MOL0     H18882  -0.341   2.419   0.970  2.9186 -1.1122 -0.5026
  140MOL0     H18883  -0.567   2.332   0.997  2.1447  1.7519 -1.6716
  140MOL0     H18884   0.749   2.374   0.698  0.1930  1.0503 -0.0193
  140MOL0     H18885   0.991   2.382   0.726 -3.2664 -1.9545  0.2911
  140MOL0     H18886   1.428   2.521   0.478 -0.4530 -0.3836 -1.6969
  140MOL0     H18887   1.650   2.493   0.449 -0.6351  0.3620  0.0449
  140MOL0     H18888   1.839   2.106   0.622  1.6330 -0.3413 -1.0619
  140MOL0     H18889   1.849   2.235   0.747 -2.3164 -1.6841  0.7069
  140MOL0     H18890   2.050   2.338   0.599  0.3193 -0.0695 -0.9576
  140MOL0     H18891   2.010   2.219   0.484 -0.2650  2.4422 -0.8923
  140MOL0     H18892   2.074   2.034   0.632 -0.6058  0.3574  1.1387
  140MOL0     H18893   2.120   2.142   0.768  0.7515 -1.6824  1.0148
  140MOL0     H18894   2.224   2.140   0.477  1.3694  0.8458 -0.7627
  140MOL0     H18895   2.291   2.241   0.608  1.2564 -1.3414 -0.6734
  140MOL0     H18896   2.471   1.863   0.673 -1.5103 -0.7731  0.8808
  140MOL0     H18897   1.637   2.144   0.713 -0.8077  0.1174  2.6252
  140MOL0     H18898   1.399   2.144   0.862  2.4771 -0.4728 -0.7667
  140MOL0     H18899   1.250   2.156   0.746  0.2869 -0.5164 -0.9634
  140MOL0     H18900   1.364   2.039   0.721 -0.4540 -1.0084  1.8631
  141MOL0     O18901   7.396   1.397   5.749 -0.3805 -0.3827  0.4905
  141MOL0     C18902   7.314   1.457   5.822  0.1066  0.9062  0.4285
  141MOL0     O18903   7.328   1.583   5.871 -0.5303  0.0023 -1.2165
  141MOL0     C18904   7.451   1.640   5.846  0.5691 -1.0029 -0.3057
  141MOL0     C18905   7.476   1.684   5.712 -0.6398 -0.5508 -0.0479
  141MOL0     C18906   7.595   1.745   5.680  0.2300 -1.6888 -0.2286
  141MOL0     C18907   7.689   1.754   5.773 -0.7749 -0.4878  0.2932
  141MOL0     O18908   7.794   1.831   5.742 -0.1060 -0.0191  0.5944
  141MOL0     C18909   7.911   1.794   5.814  0.1601 -1.2261  0.4025
  141MOL0     C18910   8.036   1.862   5.746 -0.4833 -0.8348  0.2758
  141MOL0     C18911   8.080   1.989   5.826 -0.2791  0.4164 -0.4766
  141MOL0     C18912   8.215   2.047   5.770  0.0273  0.6112 -1.1206
  141MOL0     C18913   8.243   2.185   5.807 -0.2775  0.3220 -0.2004
  141MOL0     C18914   8.338   2.259   5.709  0.3278 -0.2788  0.3581
  141MOL0     C18915   8.379   2.398   5.745 -0.8492  0.8743 -0.3267
  141MOL0     C18916   8.445   2.441   5.617 -0.2180 -0.1346  0.0438
  141MOL0     N18917   8.499   2.573   5.629 -0.0919  0.1158 -0.1025
  141MOL0     C18918   8.620   2.606   5.681 -0.2215 -0.5505  0.2371
  141MOL0     C18919   8.623   2.740   5.685  0.5638 -0.1255 -0.3439
  141MOL0     C18920   8.735   2.832   5.727 -0.4515  0.2430 -0.1292
  141MOL0     C18921   8.729   2.872   5.876  0.1267  0.3787 -0.5350
  141MOL0     C18922   8.817   2.992   5.913 -0.2327  0.3293  0.1776
  141MOL0     C18923   8.965   2.965   5.900  0.4159 -0.9889 -0.8041
  141MOL0     O18924   9.010   3.089   5.953  0.3927 -0.4635 -0.5779
  141MOL0     C18925   9.153   3.110   5.972  0.2282  0.7143  0.8103
  141MOL0     C18926   9.179   3.240   6.006  0.8468  0.0419  0.6388
  141MOL0     C18927   9.308   3.269   6.051 -0.5817 -0.0286  0.6387
  141MOL0     C18928   9.415   3.181   6.031  0.3495  0.2119 -0.0981
  141MOL0     C18929   9.554   3.222   6.060  0.2663 -1.0973 -0.1898
  141MOL0     O18930   9.582   3.349   6.109  0.1021 -0.2925 -0.3770
  141MOL0     C18931   9.712   3.372   6.138  0.0678  0.5467 -0.1236
  141MOL0     C18932   9.808   3.355   6.038 -0.7109  0.1220 -0.2004
  141MOL0     C18933   9.942   3.357   6.070  0.7405  0.7523 -0.4929
  141MOL0     C18934   9.982   3.405   6.196 -0.5943 -0.3908  0.2993
  141MOL0     O18935  10.121   3.429   6.220  0.0571 -0.1767 -0.2789
  141MOL0     C18936  10.147   3.570   6.216  0.3028 -0.7854  0.9017
  141MOL0     C18937  10.212   3.604   6.080 -0.1655 -0.2165 -0.1673
  141MOL0     C18938  10.358   3.552   6.075 -0.1079  0.1531 -0.0866
  141MOL0     C18939  10.464   3.672   6.073 -0.1832  0.8907  0.3414
  141MOL0     C18940  10.608   3.626   6.093  0.2108 -0.0408 -0.5726
  141MOL0     C18941  10.695   3.742   6.131  0.1063 -0.5263  0.1457
  141MOL0     C18942  10.733   3.823   6.006  0.6745 -0.1936  0.3314
  141MOL0     C18943  10.778   3.967   6.033 -0.2144 -0.1468 -0.3656
  141MOL0    Cl18944  10.955   3.965   6.067 -0.3520 -0.1528  0.5130
  141MOL0     C18945   9.887   3.448   6.289 -0.0442 -0.1240 -0.2636
  141MOL0     C18946   9.749   3.431   6.258  0.0743 -0.2590  0.0855
  141MOL0     O18947   9.629   3.134   6.047 -0.6892 -0.5960  1.0398
  141MOL0     C18948   9.385   3.055   5.983  0.2394  0.3476  0.6221
  141MOL0     C18949   9.253   3.023   5.957  0.4144 -0.1061 -0.1064
  141MOL0     N18950   8.498   2.781   5.645 -0.0897  0.4356  0.0093
  141MOL0     N18951   8.421   2.683   5.609 -0.4330  0.0309 -0.2336
  141MOL0     C18952   7.662   1.702   5.904  0.2172 -0.4763 -0.4384
  141MOL0     C18953   7.545   1.638   5.941 -0.3655  0.2828 -0.3464
  141MOL0     C18954   7.212   1.365   5.861 -0.5339  0.3043 -1.2050
  141MOL0     C18955   7.254   1.246   5.923 -0.2084 -0.8859 -0.6329
  141MOL0     C18956   7.167   1.150   5.967 -0.2745 -0.2389 -0.7623
  141MOL0     C18957   7.025   1.178   5.959  0.4686  0.0058 -0.2351
  141MOL0     O18958   6.924   1.089   6.011  0.1169 -0.7084  0.7662
  141MOL0     C18959   6.938   1.039   6.143  0.8815 -1.2413 -0.6356
  141MOL0     C18960   6.826   0.937   6.168 -0.6250  0.4621 -0.2662
  141MOL0     C18961   6.702   0.985   6.250 -0.0096  0.1044  0.1435
  141MOL0     C18962   6.596   0.877   6.228  0.6771 -0.6150 -0.2854
  141MOL0     C18963   6.603   0.759   6.314 -0.1351 -0.1078 -0.3679
  141MOL0     C18964   6.610   0.672   6.394  0.3783  0.7486 -0.5465
  141MOL0     C18965   6.989   1.301   5.907  0.0795  0.0085  0.6674
  141MOL0     C18966   7.077   1.393   5.862  0.1597 -0.5414  0.6208
  141MOL0     C18967   7.030   1.533   5.808  0.7741 -0.4387  0.4883
  141MOL0     H18968   7.394   1.672   5.642 -0.5464 -0.5076 -0.1652
  141MOL0     H18969   7.617   1.794   5.586 -0.3859  1.4972  1.1313
  141MOL0     H18970   7.900   1.826   5.918  0.0809  0.5421 -0.1294
  141MOL0     H18971   7.930   1.686   5.808  0.9552 -1.1172  0.7475
  141MOL0     H18972   8.014   1.880   5.641 -2.4491 -0.8245  0.6552
  141MOL0     H18973   8.120   1.792   5.740 -0.7333 -1.0162 -1.5072
  141MOL0     H18974   8.092   1.960   5.930  1.2562 -2.7395 -1.4115
  141MOL0     H18975   8.000   2.064   5.818 -1.2881 -0.5455  0.2953
  141MOL0     H18976   8.299   1.990   5.810  0.1311  0.8085 -1.0566
  141MOL0     H18977   8.212   2.040   5.661 -0.3011 -0.7639 -1.0450
  141MOL0     H18978   8.147   2.237   5.807 -1.1279 -1.1233  1.8651
  141MOL0     H18979   8.283   2.193   5.909  2.1649  1.2713 -1.1609
  141MOL0     H18980   8.431   2.207   5.683  2.1299  2.7965  0.0674
  141MOL0     H18981   8.270   2.266   5.624 -0.9845  1.0927  1.4680
  141MOL0     H18982   8.455   2.393   5.823  2.2422  1.8490 -3.0183
  141MOL0     H18983   8.299   2.468   5.773  1.4191  2.9601  1.4424
  141MOL0     H18984   8.524   2.370   5.591 -0.4958 -0.4424  0.0325
  141MOL0     H18985   8.377   2.457   5.532  0.5458  1.4683 -0.3213
  141MOL0     H18986   8.699   2.544   5.724  1.3519  0.9519 -0.3693
  141MOL0     H18987   8.828   2.779   5.704 -0.7089 -0.4690  0.4182
  141MOL0     H18988   8.732   2.921   5.664 -0.8271  1.8188  2.0216
  141MOL0     H18989   8.623   2.886   5.898 -0.1593 -2.1449 -0.0213
  141MOL0     H18990   8.746   2.792   5.948 -3.0436  1.0666  1.1216
  141MOL0     H18991   8.790   3.017   6.017  0.6948  1.3167  0.2036
  141MOL0     H18992   8.797   3.084   5.857 -1.4862  0.0370  0.1310
  141MOL0     H18993   8.995   2.969   5.795  2.9971  1.7836 -0.1171
  141MOL0     H18994   8.992   2.881   5.965  0.6152  2.2546  3.8022
  141MOL0     H18995   9.107   3.319   6.018  1.2009  0.9153 -2.2503
  141MOL0     H18996   9.329   3.375   6.064  4.2428 -0.7408  0.4264
  141MOL0     H18997   9.784   3.330   5.935 -2.0813  1.1058 -0.1376
  141MOL0     H18998  10.009   3.329   5.989  0.4100 -2.9717  0.3407
  141MOL0     H18999  10.061   3.637   6.219  1.1040  0.2462  2.1376
  141MOL0     H19000  10.208   3.604   6.300 -0.8714 -2.6424  2.5888
  141MOL0     H19001  10.148   3.567   6.000  1.8667  0.9897 -2.4815
  141MOL0     H19002  10.206   3.713   6.076 -2.3629 -0.3315 -2.3175
  141MOL0     H19003  10.379   3.479   6.153  1.0155 -2.9934 -3.0911
  141MOL0     H19004  10.366   3.498   5.980 -2.2356  3.0833 -2.1455
  141MOL0     H19005  10.435   3.738   6.155  1.5023  1.8737  0.2136
  141MOL0     H19006  10.458   3.735   5.983  1.5989  0.4849 -0.1194
  141MOL0     H19007  10.639   3.558   6.013  2.2733 -2.3761  2.0068
  141MOL0     H19008  10.615   3.556   6.177 -1.6067 -2.0466 -1.9636
  141MOL0     H19009  10.634   3.804   6.197 -0.7328 -1.1201 -0.0429
  141MOL0     H19010  10.786   3.705   6.178  0.0119 -0.4648  0.3765
  141MOL0     H19011  10.647   3.835   5.939  1.2554 -0.3961 -0.4489
  141MOL0     H19012  10.800   3.759   5.949 -1.0698 -1.6825 -0.1184
  141MOL0     H19013  10.757   4.045   5.959 -0.1159  0.0687 -0.1687
  141MOL0     H19014  10.727   4.013   6.118  0.2524 -0.4674  0.0884
  141MOL0     H19015   9.911   3.474   6.391 -1.8391 -0.2114  0.2114
  141MOL0     H19016   9.676   3.480   6.322  0.1751 -2.1032  1.7353
  141MOL0     H19017   9.469   2.993   5.954  0.4553  0.3823  1.1537
  141MOL0     H19018   9.239   2.922   5.921 -2.2060 -0.0901  0.7077
  141MOL0     H19019   7.740   1.694   5.979  2.0221 -2.9322 -2.3619
  141MOL0     H19020   7.521   1.585   6.033 -2.0485  0.6392 -0.5433
  141MOL0     H19021   7.359   1.231   5.944 -0.5908  0.6311  3.1372
  141MOL0     H19022   7.201   1.057   6.012 -1.2055 -1.0339 -1.6394
  141MOL0     H19023   6.931   1.124   6.213 -2.3753 -1.2142 -0.8202
  141MOL0     H19024   7.041   1.002   6.143  1.5154  0.4458 -0.9600
  141MOL0     H19025   6.863   0.854   6.229 -0.4747  1.5617  1.1859
  141MOL0     H19026   6.799   0.893   6.072  0.5616  1.4604 -1.1007
  141MOL0     H19027   6.666   1.080   6.210  1.3306  2.0559  3.2631
  141MOL0     H19028   6.735   0.997   6.353 -0.6895  3.0066  0.0927
  141MOL0     H19029   6.501   0.926   6.252  0.9419 -0.3895  0.3268
  141MOL0     H19030   6.577   0.849   6.124 -1.3455 -0.0570 -0.1031
  141MOL0     H19031   6.622   0.599   6.472  0.1905 -1.2655 -2.3215
  141MOL0     H19032   6.883   1.320   5.893 -0.1249  0.0321  2.0770
  141MOL0     H19033   6.922   1.546   5.812  1.0520  2.8695  0.3492
  141MOL0     H19034   7.070   1.615   5.869  0.2840 -0.3973  0.7574
  141MOL0     H19035   7.067   1.554   5.707 -1.1771  1.7554  0.1336
  142MOL0     O19036   9.862   5.342   9.341  0.8461  0.5528  0.1114
  142MOL0     C19037   9.816   5.443   9.377 -0.7359 -1.0819  0.0512
  142MOL0     O19038   9.875   5.567   9.369 -0.1405 -0.0543  0.2921
  142MOL0     C19039  10.005   5.595   9.325 -0.3262  0.6158 -0.9288
  142MOL0     C19040  10.090   5.500   9.262  1.0312 -0.5446 -0.3235
  142MOL0     C19041  10.223   5.520   9.231  0.9319 -0.1980  0.5125
  142MOL0     C19042  10.276   5.650   9.234 -1.2854  0.3167  0.0870
  142MOL0     O19043  10.395   5.672   9.171  0.4346  0.0185 -0.0271
  142MOL0     C19044  10.466   5.788   9.213  0.1619  0.4595 -0.7144
  142MOL0     C19045  10.591   5.789   9.140 -1.0239 -0.9699 -0.0929
  142MOL0     C19046  10.643   5.933   9.138 -0.7580  0.4024  0.2461
  142MOL0     C19047  10.780   5.941   9.059  0.6464 -0.3298  0.3848
  142MOL0     C19048  10.838   6.075   9.082  0.0946  0.1728  0.9988
  142MOL0     C19049  10.770   6.202   9.032  0.0336 -0.2905  0.1464
  142MOL0     C19050  10.843   6.335   9.067  0.0173  0.1921  0.6052
  142MOL0     C19051  10.749   6.457   9.038  0.1299 -0.3727 -0.2370
  142MOL0     N19052  10.670   6.485   9.161  0.0007  0.0656 -0.2362
  142MOL0     C19053  10.708   6.558   9.268  0.8122 -0.2301  0.4401
  142MOL0     C19054  10.589   6.588   9.333 -1.0592  0.2838 -0.0366
  142MOL0     C19055  10.579   6.661   9.463  0.0564  0.0852 -0.2921
  142MOL0     C19056  10.480   6.776   9.430 -0.3090 -0.1565  0.5129
  142MOL0     C19057  10.556   6.891   9.348 -0.2346 -0.0115 -0.7457
  142MOL0     C19058  10.533   6.881   9.194  0.1054  0.2799 -0.6750
  142MOL0     O19059  10.608   6.985   9.152 -0.6655 -0.7377 -0.5406
  142MOL0     C19060  10.737   6.987   9.104 -0.4800  0.3510 -1.0497
  142MOL0     C19061  10.792   7.112   9.085 -0.8463  0.1187  0.3717
  142MOL0     C19062  10.915   7.130   9.025 -0.2115 -0.0695  0.7142
  142MOL0     C19063  11.002   7.013   9.012 -0.1082 -0.7000  0.1193
  142MOL0     C19064  11.143   7.024   8.965  0.2920 -1.0337 -0.3689
  142MOL0     O19065  11.172   7.141   8.899  0.2387  0.1916  0.0692
  142MOL0     C19066  11.301   7.159   8.863  0.1230 -0.2693  0.3619
  142MOL0     C19067  11.356   7.071   8.765 -0.0579 -0.2001  0.3808
  142MOL0     C19068  11.470   7.102   8.694  0.0759  0.2021  0.0491
  142MOL0     C19069  11.549   7.205   8.734 -0.3823  0.3684 -0.7228
  142MOL0     O19070  11.661   7.222   8.669  0.8683  0.3138  0.6930
  142MOL0     C19071  11.708   7.349   8.628  0.2482  0.2724 -0.2096
  142MOL0     C19072  11.839   7.346   8.544  0.0046  0.2899 -0.0702
  142MOL0     C19073  11.820   7.277   8.409 -0.1048 -0.1114 -0.2861
  142MOL0     C19074  11.935   7.297   8.324 -1.2429  0.5355  0.3103
  142MOL0     C19075  11.910   7.226   8.177  0.4662 -0.0328 -0.6040
  142MOL0     C19076  12.008   7.282   8.074 -0.4943  0.6374  0.6421
  142MOL0     C19077  11.966   7.254   7.931  0.3418 -0.2152 -0.0961
  142MOL0     C19078  12.043   7.131   7.875  0.9236  0.1749 -0.4442
  142MOL0    Cl19079  12.209   7.184   7.846  0.3263 -0.1788 -0.1398
  142MOL0     C19080  11.498   7.294   8.832  0.3912  0.0403 -0.0945
  142MOL0     C19081  11.374   7.271   8.901 -0.2956  0.2078 -0.9709
  142MOL0     O19082  11.220   6.935   8.993 -0.0909  0.1120 -0.3318
  142MOL0     C19083  10.950   6.884   9.034 -0.4877  0.5427  0.5174
  142MOL0     C19084  10.812   6.868   9.073  0.1040 -1.1026  0.1665
  142MOL0     N19085  10.483   6.517   9.271  0.0593 -0.6417  0.7103
  142MOL0     N19086  10.536   6.458   9.170 -0.7476 -0.6188  0.4373
  142MOL0     C19087  10.186   5.749   9.278  0.2321  0.0418 -0.3785
  142MOL0     C19088  10.057   5.722   9.314 -0.1446 -0.5102 -0.6069
  142MOL0     C19089   9.681   5.451   9.432 -0.1004 -0.3381 -0.1841
  142MOL0     C19090   9.619   5.584   9.454 -0.4663 -0.1778  0.7129
  142MOL0     C19091   9.490   5.598   9.503  0.0890 -0.6535  0.7523
  142MOL0     C19092   9.411   5.487   9.526 -0.3901 -0.3200 -0.1653
  142MOL0     O19093   9.278   5.483   9.565 -0.0390  0.3755 -1.3384
  142MOL0     C19094   9.181   5.599   9.551 -0.2191  0.3274 -1.1497
  142MOL0     C19095   9.178   5.673   9.419  0.3560 -0.3501  0.8175
  142MOL0     C19096   9.131   5.816   9.437  0.3056 -1.0471  0.6404
  142MOL0     C19097   9.095   5.890   9.306 -0.6254  0.4902 -0.3315
  142MOL0     C19098   8.985   5.981   9.320  0.8054  1.5483  0.0475
  142MOL0     C19099   8.883   6.039   9.335  0.0322 -0.7838  0.0804
  142MOL0     C19100   9.483   5.362   9.539 -0.6476 -0.5446 -0.7463
  142MOL0     C19101   9.610   5.347   9.491 -0.1612  0.2518 -0.0368
  142MOL0     C19102   9.660   5.203   9.474 -0.3721 -0.5564 -0.0461
  142MOL0     H19103  10.059   5.398   9.243  0.7193 -0.9269  1.9702
  142MOL0     H19104  10.282   5.433   9.204 -1.0483 -0.9917 -1.5884
  142MOL0     H19105  10.413   5.882   9.197  2.8312  1.9848 -1.0365
  142MOL0     H19106  10.498   5.780   9.318  2.6178  0.2665 -1.4140
  142MOL0     H19107  10.588   5.758   9.035 -0.3493  1.0152 -0.7453
  142MOL0     H19108  10.664   5.715   9.176 -2.3080 -1.9718  0.5397
  142MOL0     H19109  10.663   5.972   9.239 -2.5468  0.0953  0.7704
  142MOL0     H19110  10.577   6.011   9.100  0.9442  0.9090 -1.8437
  142MOL0     H19111  10.850   5.865   9.095  0.5107 -1.4446 -1.5214
  142MOL0     H19112  10.772   5.932   8.950  0.7633  2.2954  0.1087
  142MOL0     H19113  10.840   6.076   9.192  3.3098 -3.3669  1.2002
  142MOL0     H19114  10.946   6.074   9.064 -0.0527 -0.8588  0.0781
  142MOL0     H19115  10.769   6.189   8.923 -3.4740  1.3720 -0.1570
  142MOL0     H19116  10.667   6.199   9.067  1.2668 -3.1341  4.1707
  142MOL0     H19117  10.930   6.331   9.001  0.3309  3.0343  0.7275
  142MOL0     H19118  10.874   6.332   9.172 -0.2169  1.7640  0.7480
  142MOL0     H19119  10.800   6.548   9.004 -0.3805 -0.3312 -0.9179
  142MOL0     H19120  10.688   6.440   8.949  0.1607 -0.1328 -0.3070
  142MOL0     H19121  10.810   6.592   9.282  1.3673 -2.0058  1.0163
  142MOL0     H19122  10.523   6.603   9.537  0.9782 -1.9506 -1.1265
  142MOL0     H19123  10.676   6.695   9.500 -1.6167  2.0555  2.6760
  142MOL0     H19124  10.385   6.747   9.383 -0.2756  1.2835 -0.5219
  142MOL0     H19125  10.443   6.818   9.525 -2.5586 -0.5004 -0.1409
  142MOL0     H19126  10.661   6.881   9.376  0.4435 -1.4603 -3.4653
  142MOL0     H19127  10.525   6.993   9.370 -0.2638 -0.4315  1.4418
  142MOL0     H19128  10.425   6.891   9.180  0.0273 -2.8573 -3.8397
  142MOL0     H19129  10.561   6.790   9.139  0.4742  1.5282 -2.6732
  142MOL0     H19130  10.742   7.203   9.115  1.4252  1.1214  1.3330
  142MOL0     H19131  10.959   7.224   8.993  2.0664 -0.9452  1.1237
  142MOL0     H19132  11.295   6.984   8.742 -1.8585  1.7511 -3.1079
  142MOL0     H19133  11.499   7.027   8.620 -1.3772 -1.5564  1.1758
  142MOL0     H19134  11.632   7.399   8.569  2.1609  2.6191 -0.8345
  142MOL0     H19135  11.721   7.416   8.713  0.0818 -0.1667  0.1660
  142MOL0     H19136  11.871   7.446   8.514  2.7305 -0.4621  0.1129
  142MOL0     H19137  11.915   7.292   8.600  1.2936 -0.8706 -2.7465
  142MOL0     H19138  11.800   7.170   8.424  0.1049  0.0326  1.1966
  142MOL0     H19139  11.736   7.319   8.353  0.8044 -0.2088 -1.7782
  142MOL0     H19140  12.027   7.257   8.366  0.5351  1.3497 -2.4890
  142MOL0     H19141  11.950   7.404   8.306  0.7340  0.2896  0.2621
  142MOL0     H19142  11.806   7.247   8.152 -0.0320  0.3848  1.6292
  142MOL0     H19143  11.916   7.117   8.186 -0.5921 -0.0597 -0.0929
  142MOL0     H19144  12.007   7.391   8.087 -0.9738  0.8698 -1.1627
  142MOL0     H19145  12.105   7.239   8.101 -2.4468 -1.4949  5.3919
  142MOL0     H19146  11.976   7.341   7.865  0.4014 -1.5880 -2.0117
  142MOL0     H19147  11.857   7.242   7.932  0.5379 -2.4585  0.2194
  142MOL0     H19148  12.044   7.046   7.945 -0.3591  1.2089  0.9003
  142MOL0     H19149  11.996   7.093   7.784  2.3232 -2.1534 -0.2743
  142MOL0     H19150  11.546   7.390   8.848 -1.4700  0.9983  0.0193
  142MOL0     H19151  11.324   7.341   8.968  1.5231  0.9788 -0.3479
  142MOL0     H19152  11.008   6.793   9.016  0.2312  1.2265 -0.7496
  142MOL0     H19153  10.769   6.769   9.078 -0.6191 -0.8658 -1.0608
  142MOL0     H19154  10.202   5.856   9.287 -2.6519  0.4025  2.2038
  142MOL0     H19155  10.000   5.809   9.343  0.2924  0.1892 -1.8105
  142MOL0     H19156   9.675   5.675   9.438  0.3124 -0.7056  0.3334
  142MOL0     H19157   9.447   5.696   9.516  0.7669 -0.6705  3.6529
  142MOL0     H19158   9.202   5.676   9.626 -4.5519  2.4239 -1.7442
  142MOL0     H19159   9.078   5.569   9.571 -0.7162  2.7720  0.3533
  142MOL0     H19160   9.107   5.625   9.350  0.1841  2.9647 -1.5103
  142MOL0     H19161   9.278   5.688   9.377  0.3343 -0.7330  0.6238
  142MOL0     H19162   9.199   5.884   9.489 -2.3199  0.5279  2.2360
  142MOL0     H19163   9.045   5.817   9.505 -0.6860  1.7195 -0.5274
  142MOL0     H19164   9.184   5.950   9.288  1.2210 -1.5874  1.2588
  142MOL0     H19165   9.084   5.816   9.226  2.7054  0.7521 -1.2056
  142MOL0     H19166   8.793   6.094   9.354 -0.1114 -0.2950 -1.8257
  142MOL0     H19167   9.433   5.278   9.587  1.2849  0.3616  3.2568
  142MOL0     H19168   9.626   5.151   9.384 -1.9424 -2.2247  1.4248
  142MOL0     H19169   9.768   5.191   9.483 -0.0900  2.5678  3.7150
  142MOL0     H19170   9.618   5.138   9.552  1.1540 -0.3456  0.9885
  143MOL0     O19171   9.652   6.871   6.299  0.3431 -0.8537  0.3619
  143MOL0     C19172   9.609   6.980   6.344 -0.2099  0.3242 -0.0235
  143MOL0     O19173   9.676   7.106   6.340 -0.1706  0.0431 -0.8768
  143MOL0     C19174   9.786   7.123   6.261  0.5395  0.2639 -0.3334
  143MOL0     C19175   9.906   7.164   6.324  0.3725  1.4336 -0.0678
  143MOL0     C19176  10.022   7.167   6.250 -0.1824  0.0196 -0.2152
  143MOL0     C19177  10.034   7.132   6.116 -0.4816  0.1380  0.3931
  143MOL0     O19178  10.151   7.128   6.032  0.4383 -0.3695 -0.5032
  143MOL0     C19179  10.251   7.224   6.068 -0.0103  0.5530 -0.5233
  143MOL0     C19180  10.358   7.225   5.961  0.1761 -0.1714  0.0590
  143MOL0     C19181  10.324   7.285   5.823 -0.4280 -0.8530 -0.6355
  143MOL0     C19182  10.434   7.353   5.735 -0.0261  0.1339 -0.4323
  143MOL0     C19183  10.434   7.302   5.588 -0.1235 -0.7519 -0.2118
  143MOL0     C19184  10.524   7.390   5.511 -0.7572 -0.5284 -0.0101
  143MOL0     C19185  10.577   7.308   5.382 -0.1718  0.0447 -0.8644
  143MOL0     C19186  10.461   7.305   5.283 -0.5164 -0.3920 -0.8215
  143MOL0     N19187  10.496   7.251   5.146 -0.2710 -0.8093 -0.0265
  143MOL0     C19188  10.465   7.309   5.022  0.4077  0.0466 -0.5831
  143MOL0     C19189  10.500   7.222   4.928 -0.9119 -0.4725  0.6464
  143MOL0     C19190  10.491   7.218   4.775  0.0406  0.3481  0.3822
  143MOL0     C19191  10.517   7.363   4.731  1.0525  0.5109  0.8120
  143MOL0     C19192  10.496   7.380   4.580  0.3313 -0.0089 -0.5469
  143MOL0     C19193  10.574   7.274   4.498 -0.6658 -0.0003 -0.1537
  143MOL0     O19194  10.713   7.286   4.519 -0.2833 -0.3082  0.0522
  143MOL0     C19195  10.779   7.385   4.456 -0.5445 -0.3731  0.3596
  143MOL0     C19196  10.820   7.494   4.530  1.1171 -0.5500  0.2163
  143MOL0     C19197  10.898   7.589   4.470  0.3947 -0.1351  0.1819
  143MOL0     C19198  10.947   7.586   4.346  0.6507  0.4243 -0.8712
  143MOL0     C19199  11.044   7.696   4.294  0.0760  1.6003 -0.2664
  143MOL0     O19200  11.113   7.669   4.179 -0.4609 -0.0386 -0.2584
  143MOL0     C19201  11.182   7.774   4.121 -0.7741 -0.2803  0.1102
  143MOL0     C19202  11.127   7.899   4.090  0.2212  0.4026  0.0745
  143MOL0     C19203  11.194   7.990   4.016  0.4865  0.9718  0.0941
  143MOL0     C19204  11.330   7.974   3.980  0.2304 -1.6274  0.0018
  143MOL0     O19205  11.412   8.073   3.915 -0.8007  0.6559 -0.4493
  143MOL0     C19206  11.359   8.184   3.851  0.0363  0.0488  0.6954
  143MOL0     C19207  11.345   8.147   3.704 -0.2098 -0.1198 -0.0266
  143MOL0     C19208  11.281   8.265   3.623 -0.2822  0.8884 -0.7072
  143MOL0     C19209  11.376   8.391   3.596 -0.7147 -0.1451  0.3295
  143MOL0     C19210  11.325   8.490   3.490 -0.4138 -0.4281  0.4573
  143MOL0     C19211  11.272   8.433   3.358 -0.4084  0.7438 -0.5369
  143MOL0     C19212  11.237   8.553   3.264  0.1669  0.0171  0.8137
  143MOL0     C19213  11.320   8.557   3.133 -0.2215 -0.2433  0.2130
  143MOL0    Cl19214  11.239   8.663   3.008 -0.0420 -0.3271  0.2081
  143MOL0     C19215  11.389   7.850   4.020 -0.9531  0.6584 -0.7839
  143MOL0     C19216  11.313   7.751   4.084  0.3683 -0.1510 -0.6793
  143MOL0     O19217  11.054   7.804   4.360  0.0362  0.3079 -0.8302
  143MOL0     C19218  10.894   7.479   4.267 -0.0559 -0.7636  0.1905
  143MOL0     C19219  10.809   7.384   4.317 -0.1553  0.8634 -0.4444
  143MOL0     N19220  10.564   7.113   4.992 -0.9964 -0.4997  0.5667
  143MOL0     N19221  10.559   7.139   5.118 -0.2187 -0.7507 -0.3737
  143MOL0     C19222   9.913   7.098   6.055 -0.2194  0.4022  0.7690
  143MOL0     C19223   9.792   7.084   6.125  0.3752  0.6778 -0.2506
  143MOL0     C19224   9.487   6.965   6.424  0.2445 -0.3489 -0.5060
  143MOL0     C19225   9.463   7.068   6.516  0.2909  0.5272 -0.0562
  143MOL0     C19226   9.353   7.059   6.606 -0.3024 -0.1662 -0.8019
  143MOL0     C19227   9.265   6.953   6.601 -0.4489 -0.7397 -0.3578
  143MOL0     O19228   9.150   6.939   6.671 -0.0187 -0.2118  0.1273
  143MOL0     C19229   9.114   7.044   6.771 -0.2248 -0.0966 -0.1456
  143MOL0     C19230   9.130   6.986   6.911 -0.4101  0.2077 -0.0040
  143MOL0     C19231   9.278   6.958   6.950 -0.0698 -0.4469 -0.6312
  143MOL0     C19232   9.306   6.915   7.091  0.2848  0.5949 -0.6631
  143MOL0     C19233   9.234   6.795   7.136  0.2040  0.2953 -0.3224
  143MOL0     C19234   9.176   6.702   7.185 -0.0133 -0.5879  1.0198
  143MOL0     C19235   9.280   6.863   6.500  0.4854 -0.9683  0.1255
  143MOL0     C19236   9.395   6.856   6.421 -0.2551 -0.2015  0.2350
  143MOL0     C19237   9.390   6.758   6.313 -0.1894  0.1352  0.2082
  143MOL0     H19238   9.909   7.199   6.427  2.1890  1.6822 -0.1626
  143MOL0     H19239  10.108   7.190   6.312 -0.4647  0.1362  0.1387
  143MOL0     H19240  10.200   7.320   6.072  1.2552  1.2614 -0.7641
  143MOL0     H19241  10.292   7.196   6.165  0.1732  0.1882 -0.7027
  143MOL0     H19242  10.402   7.125   5.958 -1.4824 -0.9144 -1.3931
  143MOL0     H19243  10.440   7.284   6.003  2.1972 -0.0682 -3.6187
  143MOL0     H19244  10.258   7.368   5.849  0.0413 -1.2305  2.1522
  143MOL0     H19245  10.276   7.205   5.766  2.5260 -3.1607 -0.1624
  143MOL0     H19246  10.425   7.462   5.728  1.9588  0.3843  0.2811
  143MOL0     H19247  10.531   7.325   5.777  0.2054 -1.0437 -1.6898
  143MOL0     H19248  10.465   7.197   5.582 -2.0782 -1.5030  1.5933
  143MOL0     H19249  10.336   7.312   5.541  0.4791  1.5442 -1.1141
  143MOL0     H19250  10.485   7.489   5.483 -0.7477 -0.4318  0.3118
  143MOL0     H19251  10.608   7.426   5.572 -1.5115  0.9610  0.2208
  143MOL0     H19252  10.596   7.201   5.387 -3.6890 -0.7863 -2.1247
  143MOL0     H19253  10.660   7.361   5.335  0.9307  0.9562  1.9113
  143MOL0     H19254  10.382   7.246   5.329  0.7370 -1.8195 -0.4206
  143MOL0     H19255  10.439   7.411   5.264 -2.8544 -0.8252 -0.7860
  143MOL0     H19256  10.416   7.406   5.012 -1.4030 -0.6525  0.8806
  143MOL0     H19257  10.569   7.155   4.732  1.0322  1.5801  0.3010
  143MOL0     H19258  10.395   7.177   4.742  0.5306  1.1893 -2.2665
  143MOL0     H19259  10.451   7.436   4.780 -1.2456 -0.3849 -0.7987
  143MOL0     H19260  10.616   7.394   4.765  0.9152  2.0227 -0.0487
  143MOL0     H19261  10.519   7.486   4.568  0.7251  0.2189  1.8739
  143MOL0     H19262  10.391   7.365   4.554  0.2614  0.4182 -0.5210
  143MOL0     H19263  10.549   7.290   4.393 -1.5069 -4.0988 -0.7380
  143MOL0     H19264  10.535   7.174   4.516  1.0268 -0.7878 -0.6794
  143MOL0     H19265  10.797   7.488   4.636 -2.0414 -1.8106 -0.4090
  143MOL0     H19266  10.926   7.675   4.530  0.9712 -0.2745  0.1150
  143MOL0     H19267  11.022   7.913   4.115 -0.7146 -2.1509 -2.0103
  143MOL0     H19268  11.139   8.079   3.989 -0.9329  0.2183  0.4019
  143MOL0     H19269  11.262   8.214   3.892 -0.5092 -3.1937  2.0715
  143MOL0     H19270  11.431   8.265   3.838 -0.1208 -0.1289 -1.7619
  143MOL0     H19271  11.445   8.124   3.666 -1.1518 -3.2342 -0.8515
  143MOL0     H19272  11.284   8.058   3.691  0.7199 -0.4525 -2.5722
  143MOL0     H19273  11.256   8.217   3.528  1.3288 -2.7978  0.5299
  143MOL0     H19274  11.191   8.286   3.681  0.3353  0.3918  0.4849
  143MOL0     H19275  11.475   8.350   3.576 -0.9555 -1.4521  1.5938
  143MOL0     H19276  11.383   8.439   3.694 -2.8626  0.9630  0.0120
  143MOL0     H19277  11.406   8.563   3.478  2.0880 -3.0088  0.5622
  143MOL0     H19278  11.240   8.540   3.538 -0.0285 -1.5545  2.4103
  143MOL0     H19279  11.333   8.358   3.305 -1.3531  3.1479 -5.6311
  143MOL0     H19280  11.174   8.389   3.375 -0.8822  1.6749 -0.8037
  143MOL0     H19281  11.244   8.652   3.309 -2.2664  1.6824 -2.1239
  143MOL0     H19282  11.128   8.545   3.251  0.1015 -1.3843  1.9481
  143MOL0     H19283  11.425   8.585   3.144  0.1120 -1.4977  0.4706
  143MOL0     H19284  11.328   8.454   3.097 -0.5522 -0.4940  0.8361
  143MOL0     H19285  11.495   7.840   4.002 -0.9675  1.4684 -1.3309
  143MOL0     H19286  11.350   7.650   4.100  3.6202  0.3776 -3.6230
  143MOL0     H19287  10.928   7.474   4.164 -0.5549 -0.4983  0.0096
  143MOL0     H19288  10.785   7.296   4.258 -0.3383 -0.1175  1.0045
  143MOL0     H19289   9.921   7.070   5.951 -1.0627  2.3912  0.1145
  143MOL0     H19290   9.708   7.060   6.061  0.0357  1.1790  0.0008
  143MOL0     H19291   9.533   7.150   6.534  0.6852  0.3970 -0.9375
  143MOL0     H19292   9.349   7.144   6.674  1.1125  1.2876 -2.4337
  143MOL0     H19293   9.010   7.071   6.754 -0.3532  1.1074  2.1602
  143MOL0     H19294   9.157   7.145   6.765 -2.0421  0.7536  0.3424
  143MOL0     H19295   9.063   6.901   6.923  0.5817 -0.2645  3.5704
  143MOL0     H19296   9.088   7.051   6.988  1.0926 -0.1597  1.1872
  143MOL0     H19297   9.321   7.057   6.930  3.5978 -2.2102 -2.4772
  143MOL0     H19298   9.324   6.884   6.883 -0.7138 -1.6846  0.2559
  143MOL0     H19299   9.408   6.883   7.111 -0.0780  0.4518  1.1156
  143MOL0     H19300   9.269   6.989   7.163 -1.5028 -0.9529  0.0971
  143MOL0     H19301   9.127   6.615   7.224 -2.9575  0.3028 -0.3405
  143MOL0     H19302   9.210   6.783   6.480 -0.7273  0.3653 -1.2327
  143MOL0     H19303   9.420   6.801   6.217  2.1488 -0.6351  0.5094
  143MOL0     H19304   9.466   6.681   6.334  0.2290 -0.3545 -2.6910
  143MOL0     H19305   9.289   6.722   6.292 -0.2531  0.9913 -1.0472
  144MOL0     O19306   2.933  10.853   3.089  0.5058 -0.0576 -0.0952
  144MOL0     C19307   2.874  10.952   3.042  0.3456 -0.0689  0.3162
  144MOL0     O19308   2.924  11.074   3.031  0.8490  0.3770  0.0239
  144MOL0     C19309   3.053  11.101   3.049  0.4111 -0.0583 -0.0567
  144MOL0     C19310   3.083  11.229   3.101 -0.2124 -0.3459  0.1189
  144MOL0     C19311   3.215  11.278   3.113 -0.0483  0.7732  0.1457
  144MOL0     C19312   3.321  11.187   3.086  0.3497  0.5229 -0.9023
  144MOL0     O19313   3.445  11.249   3.084  0.2149 -0.4685  0.0152
  144MOL0     C19314   3.549  11.167   3.047  0.2530  0.7267  0.1574
  144MOL0     C19315   3.687  11.226   3.074  0.6107 -0.1706 -0.4165
  144MOL0     C19316   3.725  11.258   3.228  1.0677  0.3901  0.4606
  144MOL0     C19317   3.872  11.302   3.248 -0.0020  0.1382  0.7349
  144MOL0     C19318   3.907  11.347   3.389 -0.4600  0.9136 -0.3657
  144MOL0     C19319   4.061  11.371   3.405 -0.1869  0.4011 -0.6796
  144MOL0     C19320   4.109  11.512   3.370 -0.5180 -0.4230 -0.0509
  144MOL0     C19321   4.107  11.597   3.499  0.3654 -0.2652  0.9792
  144MOL0     N19322   4.225  11.587   3.589 -0.1795 -0.3613  0.4623
  144MOL0     C19323   4.215  11.626   3.717  0.7412 -0.6362 -0.7849
  144MOL0     C19324   4.335  11.593   3.762 -0.8051  0.7397 -0.4485
  144MOL0     C19325   4.387  11.648   3.891 -0.0244 -0.5881 -0.4325
  144MOL0     C19326   4.380  11.540   3.995  0.7957 -0.8897  0.0351
  144MOL0     C19327   4.377  11.610   4.134 -0.4508  0.3116  0.0962
  144MOL0     C19328   4.424  11.515   4.246 -0.3914  0.4630  0.6695
  144MOL0     O19329   4.311  11.433   4.261  0.2160  0.3911  0.5217
  144MOL0     C19330   4.327  11.319   4.338 -0.4787 -0.6318 -0.2599
  144MOL0     C19331   4.246  11.209   4.308 -0.0737 -0.5136 -0.8683
  144MOL0     C19332   4.255  11.095   4.381 -0.9370  0.5995 -0.2638
  144MOL0     C19333   4.347  11.075   4.490 -0.8380  0.9450  0.3644
  144MOL0     C19334   4.350  10.945   4.562  0.3434 -0.2316  0.6431
  144MOL0     O19335   4.255  10.853   4.517 -0.5331  0.2577 -0.3018
  144MOL0     C19336   4.200  10.751   4.603 -0.7615  1.0355  0.8613
  144MOL0     C19337   4.063  10.727   4.568 -0.8878 -1.2335 -0.6759
  144MOL0     C19338   4.003  10.616   4.634  0.4378 -0.1026 -0.3800
  144MOL0     C19339   4.065  10.531   4.723 -1.0584 -1.2435 -0.0414
  144MOL0     O19340   3.997  10.425   4.776  0.7395  0.6522 -0.5113
  144MOL0     C19341   4.024  10.394   4.912 -0.0864  0.3661 -0.1497
  144MOL0     C19342   3.909  10.314   4.967  0.1446  0.2529  0.1889
  144MOL0     C19343   3.926  10.267   5.111 -0.1871 -0.3753  0.0653
  144MOL0     C19344   3.781  10.232   5.172  0.6878 -0.1448 -0.0874
  144MOL0     C19345   3.781  10.080   5.194  1.0023 -0.3107 -0.2958
  144MOL0     C19346   3.844  10.021   5.319  0.5968 -1.0071  0.1665
  144MOL0     C19347   3.833   9.874   5.317 -0.9070 -0.1639  0.0124
  144MOL0     C19348   3.903   9.798   5.422  0.0940  0.0012 -0.1024
  144MOL0    Cl19349   3.927   9.623   5.380 -0.0315  0.1039  0.2096
  144MOL0     C19350   4.205  10.547   4.737 -0.3927 -0.5709 -0.0912
  144MOL0     C19351   4.271  10.660   4.690 -0.1054  0.7094  0.0383
  144MOL0     O19352   4.417  10.939   4.673  0.5815 -0.5129 -0.1957
  144MOL0     C19353   4.437  11.185   4.511 -0.5941 -0.7156 -0.3747
  144MOL0     C19354   4.431  11.304   4.440  0.5172  1.3987 -0.1000
  144MOL0     N19355   4.414  11.526   3.665 -0.1458  0.0157  0.2090
  144MOL0     N19356   4.339  11.523   3.562  0.4207 -0.1882 -0.2353
  144MOL0     C19357   3.292  11.058   3.044  0.0503  0.1956 -0.2730
  144MOL0     C19358   3.164  11.011   3.026  0.2697 -0.2612  0.2354
  144MOL0     C19359   2.733  10.932   3.020  0.3286  0.5800 -0.6093
  144MOL0     C19360   2.662  10.835   3.080 -0.0120  0.2987  0.7129
  144MOL0     C19361   2.519  10.824   3.079  0.0399 -0.3533 -0.3656
  144MOL0     C19362   2.447  10.902   2.992 -0.1219  0.4268  1.2381
  144MOL0     O19363   2.320  10.877   2.949  0.8176  0.1684 -0.1346
  144MOL0     C19364   2.260  10.750   2.967  0.6086  0.5111 -0.1598
  144MOL0     C19365   2.157  10.723   2.858 -0.4338  0.0858  0.2821
  144MOL0     C19366   2.053  10.840   2.831  0.0273 -0.0834 -0.4465
  144MOL0     C19367   1.946  10.812   2.714  0.0519 -0.6072  0.0477
  144MOL0     C19368   1.880  10.681   2.736 -1.6837 -0.4836  0.5675
  144MOL0     C19369   1.831  10.571   2.748  0.6636 -1.0399  0.2802
  144MOL0     C19370   2.509  11.007   2.929  0.3571  0.3943  0.9098
  144MOL0     C19371   2.642  11.023   2.951  0.6757  0.0762 -0.3190
  144MOL0     C19372   2.694  11.141   2.884 -0.3679 -0.8693 -1.0153
  144MOL0     H19373   2.992  11.287   3.111  1.1036  2.0508 -0.9154
  144MOL0     H19374   3.247  11.377   3.145  1.3245 -0.8847  4.8905
  144MOL0     H19375   3.547  11.071   3.099  3.0473  0.1861 -0.5415
  144MOL0     H19376   3.550  11.141   2.941  1.1161 -0.1700  0.3683
  144MOL0     H19377   3.689  11.318   3.014  1.5338 -0.3154 -0.6256
  144MOL0     H19378   3.762  11.156   3.035 -1.3820 -3.3299  0.9997
  144MOL0     H19379   3.708  11.172   3.294  0.2927  0.2950  0.1480
  144MOL0     H19380   3.665  11.346   3.253  1.8429  0.1406  3.6034
  144MOL0     H19381   3.943  11.227   3.211  0.2360  0.1096  1.2501
  144MOL0     H19382   3.880  11.389   3.183 -0.2970 -1.8783 -2.2279
  144MOL0     H19383   3.850  11.428   3.435 -0.8166 -1.6716  4.4026
  144MOL0     H19384   3.885  11.263   3.455 -2.0312  1.0915 -0.6188
  144MOL0     H19385   4.095  11.358   3.508 -0.0334  3.3968 -0.2725
  144MOL0     H19386   4.119  11.300   3.345 -0.3035  0.5868 -1.0147
  144MOL0     H19387   4.065  11.556   3.280 -2.0052 -1.1528  0.2830
  144MOL0     H19388   4.213  11.495   3.343 -0.7510 -2.6486  0.2373
  144MOL0     H19389   4.109  11.696   3.452 -1.4608 -1.3058 -1.4862
  144MOL0     H19390   4.011  11.593   3.550 -0.5422 -3.1361 -0.6952
  144MOL0     H19391   4.139  11.680   3.773 -0.4517 -0.9622 -2.0348
  144MOL0     H19392   4.492  11.679   3.885  0.2845 -0.2631  3.6844
  144MOL0     H19393   4.322  11.732   3.916 -0.5897 -1.3668  0.8203
  144MOL0     H19394   4.292  11.475   3.984  0.9249 -1.5430  2.2529
  144MOL0     H19395   4.466  11.472   3.990 -0.1509 -2.1483 -4.8761
  144MOL0     H19396   4.284  11.657   4.165 -0.2593 -1.6010  4.1550
  144MOL0     H19397   4.454  11.688   4.133  0.0242  0.1639  4.7249
  144MOL0     H19398   4.447  11.571   4.336  0.8348  0.4131  0.4136
  144MOL0     H19399   4.513  11.462   4.209 -0.4699  2.6508 -3.2044
  144MOL0     H19400   4.175  11.222   4.228 -0.6003  1.1785 -0.1696
  144MOL0     H19401   4.176  11.025   4.354 -0.9454  1.0418 -1.4252
  144MOL0     H19402   4.019  10.793   4.494  2.5987  1.1571 -0.8357
  144MOL0     H19403   3.903  10.600   4.595 -0.4249  2.4958  0.5880
  144MOL0     H19404   4.113  10.333   4.933  0.0427  0.4095 -0.5569
  144MOL0     H19405   4.032  10.488   4.968  2.0860 -0.1143  0.4610
  144MOL0     H19406   3.810  10.358   4.956 -0.3199 -0.7619  0.3032
  144MOL0     H19407   3.893  10.225   4.907 -3.8123  2.1392 -1.9621
  144MOL0     H19408   4.002  10.190   5.102  0.2881  0.0718  0.1875
  144MOL0     H19409   3.968  10.349   5.170  1.0455 -0.3121 -0.8667
  144MOL0     H19410   3.708  10.276   5.104  1.9059  0.4716 -1.0385
  144MOL0     H19411   3.779  10.277   5.271  0.0585 -1.7008  0.6433
  144MOL0     H19412   3.823  10.034   5.104  2.1595 -0.8197  0.4748
  144MOL0     H19413   3.674  10.064   5.206  0.9328 -1.0052 -1.6487
  144MOL0     H19414   3.952  10.035   5.323  0.7307 -0.0175 -3.4907
  144MOL0     H19415   3.786  10.060   5.403 -2.4803 -1.7025 -1.4440
  144MOL0     H19416   3.879   9.839   5.224 -0.6931  0.1551 -0.0025
  144MOL0     H19417   3.727   9.846   5.309 -1.5752  2.5337 -2.4799
  144MOL0     H19418   3.998   9.850   5.439  0.0516  1.8517 -4.2141
  144MOL0     H19419   3.844   9.802   5.514  0.0138 -1.9084 -0.0283
  144MOL0     H19420   4.260  10.484   4.805 -0.2314 -1.6230 -1.1645
  144MOL0     H19421   4.378  10.669   4.708 -0.0283 -0.9374  0.5253
  144MOL0     H19422   4.513  11.196   4.588  0.6362 -0.7391 -1.5539
  144MOL0     H19423   4.497  11.382   4.475  2.0272 -0.3259  1.1470
  144MOL0     H19424   3.368  10.982   3.030 -0.6384 -0.3913 -0.9634
  144MOL0     H19425   3.160  10.909   2.989 -1.6241  0.7524 -2.6551
  144MOL0     H19426   2.711  10.753   3.132 -1.5726 -2.5122 -1.9100
  144MOL0     H19427   2.473  10.748   3.143 -1.5771 -0.3350 -1.4560
  144MOL0     H19428   2.213  10.742   3.066 -2.0977  0.3728 -1.3480
  144MOL0     H19429   2.338  10.675   2.957  0.9971  0.3945  2.7801
  144MOL0     H19430   2.109  10.629   2.886  0.0021  0.3237  1.9180
  144MOL0     H19431   2.217  10.709   2.768  0.3388  1.3117  0.5754
  144MOL0     H19432   2.114  10.929   2.810 -1.5177  1.1384  0.0512
  144MOL0     H19433   1.999  10.858   2.924 -0.4724 -0.6992 -0.6110
  144MOL0     H19434   1.860  10.879   2.710 -0.0491 -0.7326  0.1131
  144MOL0     H19435   1.998  10.806   2.618  1.4818 -2.7089  0.8795
  144MOL0     H19436   1.768  10.487   2.768 -1.8013  0.1902 -1.7260
  144MOL0     H19437   2.448  11.064   2.860  0.6604  0.4994  0.7268
  144MOL0     H19438   2.777  11.111   2.819 -0.8807 -0.8269 -1.7039
  144MOL0     H19439   2.623  11.196   2.821 -0.4945 -2.3044 -2.1941
  144MOL0     H19440   2.722  11.216   2.958  0.9663 -0.1780 -2.1739
  145MOL0     O19441   0.446  11.102   7.699 -0.2533 -0.1627 -0.3021
  145MOL0     C19442   0.424  11.168   7.799 -0.9037 -0.4544  0.4093
  145MOL0     O19443   0.519  11.221   7.884  0.5447 -0.3264  0.1120
  145MOL0     C19444   0.656  11.195   7.865  0.2723 -0.1803  0.4153
  145MOL0     C19445   0.720  11.239   7.747 -0.6765 -0.2357  0.2190
  145MOL0     C19446   0.853  11.206   7.726  0.3798 -1.6330  0.4998
  145MOL0     C19447   0.936  11.144   7.818  0.7246  0.6000 -0.4817
  145MOL0     O19448   1.062  11.117   7.769  0.3047  0.7696 -0.8392
  145MOL0     C19449   1.156  11.057   7.860  0.3987 -0.0602 -0.0906
  145MOL0     C19450   1.244  10.965   7.783  0.1739 -0.6982  0.0961
  145MOL0     C19451   1.389  10.936   7.843 -0.1453 -0.3736  0.6675
  145MOL0     C19452   1.484  11.039   7.895  0.0482  0.0316  0.1229
  145MOL0     C19453   1.597  10.982   7.989  0.0904 -1.2507 -0.0091
  145MOL0     C19454   1.668  11.078   8.083  0.7398 -0.8700 -0.0666
  145MOL0     C19455   1.602  11.075   8.224 -0.8203  0.6301 -0.2990
  145MOL0     C19456   1.642  11.184   8.323 -0.3504 -0.1343  0.0531
  145MOL0     N19457   1.786  11.218   8.320 -0.1628 -0.2688 -0.2269
  145MOL0     C19458   1.876  11.195   8.422  0.3902  0.3202 -0.4501
  145MOL0     C19459   1.992  11.257   8.385 -1.0241 -0.2553 -1.3534
  145MOL0     C19460   2.113  11.247   8.476  0.3126  0.5120 -0.3169
  145MOL0     C19461   2.180  11.109   8.477 -0.4989 -0.0028 -0.0622
  145MOL0     C19462   2.150  11.029   8.600  0.6093  0.8381 -0.7067
  145MOL0     C19463   2.241  11.033   8.719  0.0353 -0.8080  0.2937
  145MOL0     O19464   2.372  11.075   8.683  0.1765 -0.1821 -0.7665
  145MOL0     C19465   2.462  10.973   8.653 -0.1448 -0.4925 -0.3544
  145MOL0     C19466   2.426  10.858   8.586  0.2799  0.7940 -0.6518
  145MOL0     C19467   2.523  10.768   8.553 -0.5503  0.2976 -0.9977
  145MOL0     C19468   2.655  10.787   8.571 -0.8179  1.0805  0.6295
  145MOL0     C19469   2.749  10.674   8.527 -0.6779  1.3444  0.1022
  145MOL0     O19470   2.686  10.560   8.492  0.2304 -0.0797  0.2501
  145MOL0     C19471   2.744  10.462   8.419 -0.8627  0.3283  0.1280
  145MOL0     C19472   2.708  10.329   8.442  0.4896  0.1794 -0.5264
  145MOL0     C19473   2.767  10.225   8.374  0.0874 -0.4481 -0.4987
  145MOL0     C19474   2.842  10.255   8.249  0.1712  0.1821 -1.1636
  145MOL0     O19475   2.889  10.151   8.177 -0.4012  0.6284  0.0724
  145MOL0     C19476   2.947  10.170   8.051 -0.1546 -0.5448  0.1332
  145MOL0     C19477   2.968  10.036   7.983  0.1167 -0.5437  0.1205
  145MOL0     C19478   3.077   9.961   8.059 -0.1899 -0.2380 -0.0084
  145MOL0     C19479   3.080   9.815   8.016  0.5258 -0.2756 -0.5296
  145MOL0     C19480   3.222   9.762   8.048  0.0580 -0.7623  0.4704
  145MOL0     C19481   3.225   9.608   8.072  0.1166  0.5204 -1.2089
  145MOL0     C19482   3.368   9.545   8.064 -0.2165 -0.7916  0.3517
  145MOL0     C19483   3.461   9.579   7.946  0.1441 -0.9992  0.1670
  145MOL0    Cl19484   3.600   9.467   7.931 -0.0824 -0.4915 -0.5936
  145MOL0     C19485   2.860  10.392   8.217  0.4308  0.2831  0.0630
  145MOL0     C19486   2.821  10.498   8.309  0.1374  0.1940  0.7965
  145MOL0     O19487   2.873  10.691   8.529  0.4769  0.1866 -0.7514
  145MOL0     C19488   2.695  10.904   8.640  0.4483  1.1008  0.7820
  145MOL0     C19489   2.596  11.001   8.672 -0.1877 -0.3637 -0.4809
  145MOL0     N19490   1.973  11.319   8.263  0.0472  0.9107 -1.0995
  145MOL0     N19491   1.851  11.304   8.230  0.2916 -0.7141  0.2885
  145MOL0     C19492   0.879  11.126   7.942  0.3173  0.5826 -0.1277
  145MOL0     C19493   0.737  11.130   7.960  0.1377 -0.6813  0.9829
  145MOL0     C19494   0.271  11.180   7.828 -0.2828 -0.7451 -0.4895
  145MOL0     C19495   0.186  11.071   7.808  0.1749 -0.0873  0.5391
  145MOL0     C19496   0.044  11.083   7.811 -0.3770 -0.9264  0.0390
  145MOL0     C19497  -0.012  11.206   7.847 -0.3483  0.3373 -0.7040
  145MOL0     O19498  -0.147  11.232   7.863  1.6230  0.1508  0.2155
  145MOL0     C19499  -0.236  11.111   7.867 -0.0124 -0.1856 -0.6154
  145MOL0     C19500  -0.382  11.142   7.850  0.6148 -0.2023  0.0792
  145MOL0     C19501  -0.431  11.177   7.711 -0.2655 -0.1774  0.0526
  145MOL0     C19502  -0.562  11.257   7.713  0.5148  0.4500 -0.1761
  145MOL0     C19503  -0.617  11.258   7.583  0.6630  0.5779 -0.0669
  145MOL0     C19504  -0.679  11.269   7.482  0.1239 -0.0637  0.3970
  145MOL0     C19505   0.076  11.308   7.869  0.1330 -0.5262 -0.1577
  145MOL0     C19506   0.208  11.298   7.865 -0.7279  0.5736 -0.1530
  145MOL0     C19507   0.289  11.416   7.864 -0.1295  0.7222  0.0583
  145MOL0     H19508   0.659  11.291   7.674 -0.1615 -0.4816 -0.3935
  145MOL0     H19509   0.896  11.236   7.632  0.5031 -0.7612  0.8286
  145MOL0     H19510   1.214  11.137   7.909 -0.7430  0.0956  1.0752
  145MOL0     H19511   1.114  10.999   7.943 -2.1847 -0.5623 -1.6574
  145MOL0     H19512   1.263  11.016   7.688 -0.8329 -0.0507  0.2261
  145MOL0     H19513   1.191  10.871   7.765 -0.2557 -0.1555 -1.6648
  145MOL0     H19514   1.441  10.881   7.764  1.3157  1.6091  0.1926
  145MOL0     H19515   1.362  10.868   7.925  2.3479  0.7497  2.5501
  145MOL0     H19516   1.518  11.102   7.812 -3.0956 -1.6164 -2.6727
  145MOL0     H19517   1.428  11.107   7.960 -0.8284 -1.4277  0.9569
  145MOL0     H19518   1.540  10.910   8.048  0.9385 -3.6377 -1.9129
  145MOL0     H19519   1.659  10.917   7.927 -1.8129 -2.7245 -0.4559
  145MOL0     H19520   1.770  11.042   8.098  0.9748  0.8734  3.6702
  145MOL0     H19521   1.666  11.176   8.034  1.4547 -0.5695  0.4880
  145MOL0     H19522   1.620  10.981   8.277  2.4756  0.9386 -0.6706
  145MOL0     H19523   1.494  11.075   8.205 -0.6813 -0.1588 -1.1867
  145MOL0     H19524   1.576  11.268   8.302  0.3039  0.8681  1.7932
  145MOL0     H19525   1.622  11.142   8.422 -1.6448  4.5535  2.0625
  145MOL0     H19526   1.849  11.146   8.515  0.1753  2.5851  0.7696
  145MOL0     H19527   2.181  11.325   8.441 -3.1050  2.9223 -2.2616
  145MOL0     H19528   2.089  11.282   8.577  1.8881  1.1367 -0.1300
  145MOL0     H19529   2.134  11.060   8.390 -1.7293  1.5449 -0.3299
  145MOL0     H19530   2.289  11.112   8.463 -0.2582  2.3630  1.6976
  145MOL0     H19531   2.153  10.923   8.573 -1.3237  0.9212 -1.3993
  145MOL0     H19532   2.047  11.040   8.634  0.8973 -2.1906  1.5574
  145MOL0     H19533   2.243  10.948   8.787  2.1425  0.2051  1.6054
  145MOL0     H19534   2.207  11.121   8.775  1.4166 -0.4750  0.6542
  145MOL0     H19535   2.322  10.836   8.564  0.2302  1.3078 -0.9256
  145MOL0     H19536   2.485  10.676   8.510 -0.3294  0.1508 -0.8771
  145MOL0     H19537   2.657  10.309   8.536  0.1103 -2.5418 -1.2394
  145MOL0     H19538   2.763  10.126   8.417 -0.6254 -0.7393 -1.2209
  145MOL0     H19539   2.884  10.236   7.991 -0.0711 -1.3990 -0.9377
  145MOL0     H19540   3.046  10.215   8.066 -0.9038  0.0480  4.2580
  145MOL0     H19541   2.875   9.979   7.981  0.7779 -1.6192 -0.3009
  145MOL0     H19542   3.006  10.053   7.882  1.6157  1.4792  0.9252
  145MOL0     H19543   3.174  10.009   8.050 -1.5207  2.8512  0.6863
  145MOL0     H19544   3.047   9.961   8.164  0.3792  1.8557  0.1992
  145MOL0     H19545   3.061   9.800   7.909  2.1042 -2.4665 -0.5635
  145MOL0     H19546   3.006   9.761   8.076  1.5797 -2.3435 -0.9845
  145MOL0     H19547   3.267   9.810   8.135 -1.4805 -0.4981  1.1588
  145MOL0     H19548   3.282   9.779   7.958 -2.4620  2.4893 -0.8343
  145MOL0     H19549   3.191   9.585   8.174  0.2494  0.0017 -1.2787
  145MOL0     H19550   3.160   9.557   8.000 -0.9881  1.9360 -1.2616
  145MOL0     H19551   3.374   9.436   8.070  0.7386 -0.7702 -0.0598
  145MOL0     H19552   3.421   9.575   8.155 -2.7425  0.0941  1.6080
  145MOL0     H19553   3.406   9.575   7.852 -0.8618 -0.9585  0.7365
  145MOL0     H19554   3.502   9.680   7.949  1.5057 -1.5530  1.0133
  145MOL0     H19555   2.907  10.421   8.124  2.2492 -3.2323 -0.2776
  145MOL0     H19556   2.838  10.599   8.273  0.7736  0.6112  2.1966
  145MOL0     H19557   2.794  10.940   8.667 -0.2204  2.1263  2.0172
  145MOL0     H19558   2.626  11.098   8.710  0.3240 -0.5236 -0.4562
  145MOL0     H19559   0.950  11.086   8.013  2.7202  2.1443 -1.4851
  145MOL0     H19560   0.693  11.107   8.057 -0.5376  0.6676  1.0301
  145MOL0     H19561   0.225  10.981   7.762 -1.0704 -1.1720  1.5082
  145MOL0     H19562  -0.020  10.998   7.787 -1.7868 -0.4572  1.9145
  145MOL0     H19563  -0.215  11.064   7.964 -3.3984 -0.7528 -0.0492
  145MOL0     H19564  -0.201  11.032   7.800 -0.0488 -0.7741  0.0492
  145MOL0     H19565  -0.403  11.223   7.920  0.1637  0.6253 -0.9748
  145MOL0     H19566  -0.437  11.056   7.890  0.8914 -1.4391 -2.0417
  145MOL0     H19567  -0.451  11.081   7.662  0.8148 -0.4059  0.0325
  145MOL0     H19568  -0.355  11.239   7.663 -0.0899  1.8094  2.6333
  145MOL0     H19569  -0.637  11.217   7.783 -0.6847  2.8459  0.0338
  145MOL0     H19570  -0.547  11.362   7.741 -1.7120  1.1485 -1.3409
  145MOL0     H19571  -0.749  11.284   7.402 -0.3454  0.2868  0.8698
  145MOL0     H19572   0.032  11.406   7.885  0.0437 -0.6300  0.2511
  145MOL0     H19573   0.383  11.402   7.919  0.0127  0.8449 -0.1517
  145MOL0     H19574   0.305  11.437   7.758 -1.7758 -3.8068 -1.3113
  145MOL0     H19575   0.223  11.486   7.917 -0.3562 -1.7170  3.3042
  146MOL0     O19576   3.854   6.988   6.014  0.3960  0.3592 -0.7536
  146MOL0     C19577   3.918   7.073   6.071 -0.4390 -0.8385 -0.3781
  146MOL0     O19578   3.889   7.208   6.087  0.6603  0.2835 -0.2333
  146MOL0     C19579   3.775   7.249   6.022  0.4863 -0.1188 -1.2950
  146MOL0     C19580   3.771   7.372   5.956  0.0005  0.9208  0.1209
  146MOL0     C19581   3.658   7.425   5.900  0.8129  0.6310 -0.0619
  146MOL0     C19582   3.538   7.354   5.918 -0.2326 -0.2823  0.4922
  146MOL0     O19583   3.415   7.380   5.872 -0.9774  0.0582 -0.0859
  146MOL0     C19584   3.395   7.486   5.785 -0.0623  0.1222  1.4547
  146MOL0     C19585   3.260   7.467   5.722  0.1762 -0.0109  1.0813
  146MOL0     C19586   3.211   7.588   5.649  0.7312 -0.7758 -0.0096
  146MOL0     C19587   3.058   7.566   5.618 -0.1311 -0.6135 -0.6818
  146MOL0     C19588   3.022   7.451   5.529 -0.5063  1.2894 -0.1105
  146MOL0     C19589   2.865   7.442   5.523 -0.4006  0.3690  0.6102
  146MOL0     C19590   2.797   7.567   5.468 -0.1225 -1.2866  0.4765
  146MOL0     C19591   2.648   7.535   5.432  0.0139 -0.2112 -0.8384
  146MOL0     N19592   2.589   7.670   5.417 -0.4375  0.1321 -0.8627
  146MOL0     C19593   2.538   7.739   5.523  0.2748 -0.1231  1.3897
  146MOL0     C19594   2.491   7.862   5.473 -0.1607 -0.3121  0.0592
  146MOL0     C19595   2.433   7.987   5.542 -0.7882 -0.1339  0.7339
  146MOL0     C19596   2.543   8.083   5.578  0.2815 -0.3336  0.6077
  146MOL0     C19597   2.508   8.185   5.689  1.0580  0.2363 -0.7411
  146MOL0     C19598   2.388   8.279   5.646  0.4998 -0.4200 -0.0330
  146MOL0     O19599   2.414   8.341   5.519 -0.0262  0.1434  0.0808
  146MOL0     C19600   2.312   8.342   5.427  0.2593 -0.6782  0.5196
  146MOL0     C19601   2.325   8.292   5.295 -0.0167 -0.2633 -0.2789
  146MOL0     C19602   2.215   8.286   5.210 -0.9489 -0.5140 -0.3014
  146MOL0     C19603   2.089   8.332   5.243  0.6532  0.0233  0.6444
  146MOL0     C19604   1.971   8.320   5.147  0.1438 -0.0867 -0.6319
  146MOL0     O19605   1.993   8.278   5.012  0.1006  0.0358 -0.2551
  146MOL0     C19606   1.885   8.282   4.927 -1.2060 -0.1314  0.9521
  146MOL0     C19607   1.867   8.159   4.868 -0.5549  0.4033  0.7963
  146MOL0     C19608   1.779   8.157   4.755 -0.0259 -0.2551 -0.1205
  146MOL0     C19609   1.688   8.264   4.732 -0.1531 -0.1626 -0.4879
  146MOL0     O19610   1.600   8.250   4.633  0.1739  0.1885  0.2923
  146MOL0     C19611   1.490   8.161   4.650  0.9294 -0.6387 -0.1214
  146MOL0     C19612   1.397   8.170   4.532  0.3354  0.7349 -0.1973
  146MOL0     C19613   1.464   8.120   4.402  0.4462 -0.1470  0.7404
  146MOL0     C19614   1.532   8.232   4.326 -0.6777  0.1276 -0.2662
  146MOL0     C19615   1.580   8.192   4.179 -0.0643 -0.0940  0.0529
  146MOL0     C19616   1.455   8.149   4.102  0.6705 -0.0857 -0.1770
  146MOL0     C19617   1.465   8.153   3.957  0.9916 -0.1737 -0.2641
  146MOL0     C19618   1.331   8.146   3.890 -0.1612  0.3933  0.5072
  146MOL0    Cl19619   1.353   8.199   3.716  0.4074 -0.0595 -0.0026
  146MOL0     C19620   1.701   8.382   4.801 -0.3736  0.5725  0.0037
  146MOL0     C19621   1.807   8.393   4.899  0.9111  0.2939  0.3819
  146MOL0     O19622   1.863   8.360   5.188  0.0390  0.3234  0.4789
  146MOL0     C19623   2.082   8.393   5.368 -0.0999 -0.9812  0.1426
  146MOL0     C19624   2.188   8.399   5.462 -0.1915  0.1807 -0.0493
  146MOL0     N19625   2.501   7.859   5.334 -0.3825 -0.6741 -0.5626
  146MOL0     N19626   2.572   7.746   5.308  0.3991 -1.2857  0.2893
  146MOL0     C19627   3.533   7.234   5.992 -0.0754  0.3230 -0.6163
  146MOL0     C19628   3.651   7.178   6.043  0.4357 -0.2604  0.1205
  146MOL0     C19629   4.050   7.023   6.145  0.0283 -0.2745 -0.4321
  146MOL0     C19630   4.153   7.114   6.168 -0.2711  0.6321  0.5051
  146MOL0     C19631   4.275   7.078   6.221  1.0113  0.1522 -0.1439
  146MOL0     C19632   4.298   6.946   6.248 -0.3117  0.3615  0.3239
  146MOL0     O19633   4.412   6.888   6.305 -0.2737  0.0221 -0.1844
  146MOL0     C19634   4.491   6.803   6.214  0.4888  0.4792  0.5610
  146MOL0     C19635   4.573   6.895   6.125 -0.7212  0.1263  0.8944
  146MOL0     C19636   4.671   6.819   6.028 -0.4901 -0.7439 -0.0328
  146MOL0     C19637   4.778   6.914   5.983 -0.3178 -0.5343  0.7236
  146MOL0     C19638   4.868   6.849   5.882  0.6236  0.9550  0.4185
  146MOL0     C19639   4.947   6.808   5.803 -0.2586  0.0323 -0.5914
  146MOL0     C19640   4.193   6.853   6.236  0.0237  0.4428  0.5404
  146MOL0     C19641   4.063   6.889   6.192 -0.2616  0.1069  0.4404
  146MOL0     C19642   3.945   6.793   6.211  0.3110 -0.4097 -0.5017
  146MOL0     H19643   3.864   7.427   5.948  0.8193 -0.2562  1.2254
  146MOL0     H19644   3.642   7.523   5.858 -0.3388  0.4699 -0.0398
  146MOL0     H19645   3.395   7.582   5.837  1.0404  1.7240 -1.3318
  146MOL0     H19646   3.464   7.467   5.703 -2.2622 -0.8620 -0.2915
  146MOL0     H19647   3.186   7.460   5.802 -1.0484  2.3950  0.2594
  146MOL0     H19648   3.255   7.377   5.659 -0.9469  1.5652 -1.2454
  146MOL0     H19649   3.256   7.602   5.550  1.9093 -0.8417  0.5034
  146MOL0     H19650   3.206   7.676   5.713 -1.2313 -0.5673 -0.3904
  146MOL0     H19651   2.997   7.556   5.708  1.4213  1.4702  0.6934
  146MOL0     H19652   3.033   7.653   5.557  2.5691 -0.3392 -1.5348
  146MOL0     H19653   3.066   7.458   5.430  0.1317  3.6071  0.2788
  146MOL0     H19654   3.060   7.357   5.571 -0.2762  1.8436  0.9569
  146MOL0     H19655   2.837   7.360   5.456 -3.6791  1.5024  0.4268
  146MOL0     H19656   2.826   7.421   5.623 -0.4864  3.1331  1.2275
  146MOL0     H19657   2.852   7.611   5.385 -1.5652  1.4391  0.8335
  146MOL0     H19658   2.797   7.653   5.536  4.3526  0.3878 -1.2901
  146MOL0     H19659   2.643   7.470   5.345 -1.0674 -0.7217 -0.4129
  146MOL0     H19660   2.593   7.478   5.507 -1.6395 -1.0917 -2.6503
  146MOL0     H19661   2.538   7.709   5.627  0.7692 -3.3947  0.5276
  146MOL0     H19662   2.351   8.030   5.484  0.0729  1.4698  0.6578
  146MOL0     H19663   2.381   7.951   5.632 -0.9135 -1.3873  0.1852
  146MOL0     H19664   2.630   8.026   5.613 -1.0230 -3.3983 -0.8032
  146MOL0     H19665   2.571   8.141   5.490  1.1942 -0.6022  0.7024
  146MOL0     H19666   2.589   8.258   5.701  1.9833 -0.7580 -0.7777
  146MOL0     H19667   2.490   8.132   5.783 -0.8077 -2.3217 -2.3973
  146MOL0     H19668   2.363   8.363   5.712 -3.2335 -1.3971  0.0399
  146MOL0     H19669   2.299   8.214   5.641  0.0086  0.1499  1.0143
  146MOL0     H19670   2.415   8.242   5.259 -0.0981 -0.7370  0.1716
  146MOL0     H19671   2.232   8.246   5.110 -1.9179 -0.4627 -0.5008
  146MOL0     H19672   1.931   8.073   4.889 -0.2663  0.4672  0.1895
  146MOL0     H19673   1.779   8.072   4.688 -1.8708 -0.1782 -0.2640
  146MOL0     H19674   1.525   8.061   4.680  3.5285 -0.4797 -2.2448
  146MOL0     H19675   1.428   8.207   4.727  0.4932 -0.6086 -0.4851
  146MOL0     H19676   1.308   8.113   4.560  0.3077  0.4951 -0.7581
  146MOL0     H19677   1.357   8.272   4.525  1.5398  1.2386 -0.1182
  146MOL0     H19678   1.537   8.045   4.434  2.4332  1.3993  0.0652
  146MOL0     H19679   1.376   8.074   4.356 -0.7258  2.6794 -0.0985
  146MOL0     H19680   1.622   8.262   4.381 -0.8063 -0.5645  0.3325
  146MOL0     H19681   1.464   8.317   4.321 -0.7238  0.1675  0.8224
  146MOL0     H19682   1.662   8.120   4.180 -0.8925 -1.2426 -2.9824
  146MOL0     H19683   1.632   8.277   4.133 -1.4230  0.9079  0.3039
  146MOL0     H19684   1.439   8.045   4.131  0.9342 -0.1246 -0.1724
  146MOL0     H19685   1.372   8.217   4.124  0.3705  0.0887 -1.7132
  146MOL0     H19686   1.537   8.082   3.915  0.9680 -1.3499  1.6067
  146MOL0     H19687   1.491   8.254   3.924  0.2716  0.8537  2.1571
  146MOL0     H19688   1.300   8.042   3.879  0.8097  0.1602 -0.2183
  146MOL0     H19689   1.261   8.213   3.940 -1.7687 -1.5669  1.0188
  146MOL0     H19690   1.635   8.463   4.773  0.6439  0.6535 -2.3741
  146MOL0     H19691   1.816   8.487   4.952  2.3350  0.9281 -0.9387
  146MOL0     H19692   1.996   8.451   5.399  0.7514 -0.5309  1.8009
  146MOL0     H19693   2.163   8.447   5.556  0.8141 -0.9719  0.8523
  146MOL0     H19694   3.439   7.181   6.004  1.0361 -1.9941 -1.6297
  146MOL0     H19695   3.644   7.088   6.104 -1.6329  0.1944  0.6346
  146MOL0     H19696   4.144   7.219   6.139 -2.3651 -0.6254 -4.3577
  146MOL0     H19697   4.364   7.140   6.225  0.7446  0.7140 -2.0516
  146MOL0     H19698   4.424   6.738   6.157 -1.9167  1.6844  1.8790
  146MOL0     H19699   4.568   6.746   6.266  1.8118  1.2313 -0.5118
  146MOL0     H19700   4.627   6.969   6.184  0.2940  2.0693 -2.2246
  146MOL0     H19701   4.491   6.934   6.064 -0.8865 -2.5797 -0.8069
  146MOL0     H19702   4.622   6.781   5.938 -0.5966 -1.1492  0.1956
  146MOL0     H19703   4.704   6.730   6.081  2.9827  2.4037  3.8454
  146MOL0     H19704   4.737   6.995   5.921  0.5717  0.5352  1.4959
  146MOL0     H19705   4.840   6.938   6.069  0.4521  0.4699 -0.0867
  146MOL0     H19706   5.010   6.758   5.732  0.0763  0.5089 -0.6394
  146MOL0     H19707   4.207   6.750   6.268 -0.5617  0.3188  0.4108
  146MOL0     H19708   3.891   6.768   6.119 -0.6739  0.4260 -0.1686
  146MOL0     H19709   3.977   6.703   6.264  0.8398  0.6135  0.9783
  146MOL0     H19710   3.873   6.844   6.276 -0.7756 -1.6860 -0.6732
  147MOL0     O19711   9.519   3.691  11.284  0.1381  0.0091  0.3935
  147MOL0     C19712   9.573   3.699  11.178 -0.0637  0.0458  0.3206
  147MOL0     O19713   9.705   3.717  11.165 -0.0960  0.0491 -0.9399
  147MOL0     C19714   9.770   3.693  11.281 -0.6406 -0.6096  0.3200
  147MOL0     C19715   9.829   3.811  11.328 -0.0001 -0.1041  1.0825
  147MOL0     C19716   9.909   3.799  11.439 -0.1766 -1.1861 -0.2323
  147MOL0     C19717   9.911   3.689  11.520 -0.7058 -0.0009  0.4283
  147MOL0     O19718   9.985   3.691  11.636 -0.9133 -0.2055 -0.2051
  147MOL0     C19719  10.128   3.741  11.637 -0.0033  0.5046  0.3536
  147MOL0     C19720  10.182   3.730  11.777  0.1334 -0.5244  0.3986
  147MOL0     C19721  10.340   3.765  11.785 -0.2453 -0.9067 -0.5115
  147MOL0     C19722  10.387   3.765  11.932  0.1784 -0.5549  0.4467
  147MOL0     C19723  10.536   3.740  11.927  0.2845  0.5462  0.6726
  147MOL0     C19724  10.597   3.771  12.066 -0.0309  0.5345  0.2838
  147MOL0     C19725  10.749   3.756  12.070  0.8695  0.0005  0.1220
  147MOL0     C19726  10.810   3.796  12.195  0.3951 -0.2392 -0.5087
  147MOL0     N19727  10.939   3.859  12.175 -0.8106 -0.7760 -0.0526
  147MOL0     C19728  11.057   3.794  12.149 -2.1332  0.6656  0.0124
  147MOL0     C19729  11.146   3.893  12.133  0.0643 -0.9540 -0.6426
  147MOL0     C19730  11.296   3.871  12.104  0.6952 -0.3702  0.5142
  147MOL0     C19731  11.325   3.912  11.954 -0.5726 -0.4528  0.1582
  147MOL0     C19732  11.254   3.814  11.849  0.3319  0.4100 -0.0742
  147MOL0     C19733  11.113   3.861  11.792  1.3884  0.2476 -0.0272
  147MOL0     O19734  11.087   3.759  11.690 -0.6502 -0.3076 -0.2082
  147MOL0     C19735  10.969   3.790  11.630  0.1394 -0.9854 -0.0322
  147MOL0     C19736  10.965   3.864  11.509 -0.7770  0.2025 -0.6669
  147MOL0     C19737  10.843   3.894  11.454  0.0509 -0.2435  0.3224
  147MOL0     C19738  10.719   3.857  11.496 -0.6498  0.2608  0.6586
  147MOL0     C19739  10.593   3.897  11.424 -0.3321  0.0059  0.2603
  147MOL0     O19740  10.470   3.866  11.478 -1.2899  0.2915 -0.0378
  147MOL0     C19741  10.374   3.915  11.405 -0.2863 -0.7148 -0.9902
  147MOL0     C19742  10.333   3.854  11.288 -0.4529 -0.0798 -0.0706
  147MOL0     C19743  10.224   3.903  11.215 -0.1934 -0.3451 -0.3410
  147MOL0     C19744  10.143   4.010  11.275 -0.5334  0.0822  0.0495
  147MOL0     O19745  10.032   4.068  11.214 -0.5719  0.4165  0.1196
  147MOL0     C19746   9.988   4.000  11.089 -0.2786 -0.0610  0.3491
  147MOL0     C19747   9.865   4.073  11.047  0.6061 -1.0442  0.1984
  147MOL0     C19748   9.821   4.051  10.908 -0.0539  0.0346  1.2584
  147MOL0     C19749   9.686   4.130  10.885  0.6319  0.2020 -0.2106
  147MOL0     C19750   9.639   4.121  10.737 -0.8125  0.7367  0.0018
  147MOL0     C19751   9.516   4.212  10.713 -0.1678 -0.7775 -0.3044
  147MOL0     C19752   9.470   4.208  10.566  0.6231  0.2040 -0.2236
  147MOL0     C19753   9.322   4.262  10.554 -0.7362 -0.2913 -0.3302
  147MOL0    Cl19754   9.304   4.403  10.653 -0.1947  0.3404  0.0290
  147MOL0     C19755  10.185   4.071  11.393 -0.5210 -1.0664 -0.2885
  147MOL0     C19756  10.303   4.020  11.465  0.7648 -0.3017  0.1997
  147MOL0     O19757  10.620   3.954  11.313  0.4649 -0.5467 -0.1221
  147MOL0     C19758  10.723   3.779  11.608 -0.0307  0.0850 -0.8003
  147MOL0     C19759  10.844   3.747  11.679 -0.2190 -0.4882 -0.3128
  147MOL0     N19760  11.089   4.020  12.160  0.6638  0.5908  0.1645
  147MOL0     N19761  10.961   4.000  12.175  0.2346  0.5475 -0.4782
  147MOL0     C19762   9.830   3.574  11.487 -0.2934  0.0443  0.1096
  147MOL0     C19763   9.767   3.577  11.361 -0.0082 -0.0406 -0.6600
  147MOL0     C19764   9.499   3.710  11.048 -0.0462  0.5955  0.6480
  147MOL0     C19765   9.577   3.717  10.932 -0.4791 -0.1229  0.0468
  147MOL0     C19766   9.517   3.758  10.813 -0.8553  0.8216 -0.4715
  147MOL0     C19767   9.374   3.764  10.801 -0.7792  0.7832  0.4070
  147MOL0     O19768   9.292   3.777  10.692  0.2195  0.1580  0.0168
  147MOL0     C19769   9.342   3.825  10.568 -0.0244 -0.2295 -0.7830
  147MOL0     C19770   9.219   3.884  10.481 -0.2603 -0.6445  0.6754
  147MOL0     C19771   9.269   3.930  10.345  0.1014  0.5853 -0.2660
  147MOL0     C19772   9.174   4.009  10.267  0.5707 -0.0844 -0.5366
  147MOL0     C19773   9.042   3.952  10.250  0.3399  0.4644 -0.6143
  147MOL0     C19774   8.936   3.890  10.248 -0.9763  0.1344  1.8635
  147MOL0     C19775   9.294   3.747  10.906 -0.2268  0.4995  0.1027
  147MOL0     C19776   9.354   3.726  11.035 -1.1285  0.3356 -0.2950
  147MOL0     C19777   9.267   3.738  11.159  0.2193  0.3610 -0.6110
  147MOL0     H19778   9.819   3.896  11.261  1.9883 -0.9428 -0.3549
  147MOL0     H19779   9.974   3.879  11.472 -4.2133  1.1631  2.9863
  147MOL0     H19780  10.180   3.681  11.561 -3.3762 -2.5923  0.1975
  147MOL0     H19781  10.126   3.846  11.607  1.2839  0.4822  0.1503
  147MOL0     H19782  10.157   3.638  11.830 -1.2634 -0.0656  0.5681
  147MOL0     H19783  10.136   3.807  11.840  1.0119  0.8229 -0.5618
  147MOL0     H19784  10.360   3.864  11.743  0.0007 -0.7295  0.0210
  147MOL0     H19785  10.395   3.692  11.724 -0.1264 -1.4580  0.2489
  147MOL0     H19786  10.365   3.863  11.975  1.6280 -0.8464  1.9690
  147MOL0     H19787  10.339   3.685  11.989  3.1931 -2.6217  0.3448
  147MOL0     H19788  10.551   3.635  11.899 -1.0755 -1.7276  6.7154
  147MOL0     H19789  10.580   3.801  11.848 -0.1403 -0.3640 -0.2897
  147MOL0     H19790  10.575   3.873  12.099  1.2649  0.3490  1.8583
  147MOL0     H19791  10.560   3.696  12.136 -2.2223 -0.0361 -1.3427
  147MOL0     H19792  10.782   3.829  11.995 -0.9339  3.4356  2.4304
  147MOL0     H19793  10.776   3.654  12.041  5.4588  1.6095 -2.3026
  147MOL0     H19794  10.747   3.862  12.256  0.8933  1.1011 -1.4027
  147MOL0     H19795  10.823   3.711  12.263  2.0896  0.7116  0.4224
  147MOL0     H19796  11.079   3.688  12.142  0.1334  1.1968 -3.5593
  147MOL0     H19797  11.371   3.923  12.164  3.0954  0.7761 -3.1186
  147MOL0     H19798  11.325   3.768  12.123  0.8267 -0.1596  1.5221
  147MOL0     H19799  11.310   4.018  11.932  2.9255  0.0365 -0.4177
  147MOL0     H19800  11.434   3.913  11.946 -0.5795  0.3938  0.0178
  147MOL0     H19801  11.248   3.714  11.891 -0.1439 -0.3231 -1.8088
  147MOL0     H19802  11.323   3.798  11.766  0.6813 -3.3627  0.8026
  147MOL0     H19803  11.112   3.963  11.752  0.3204 -0.3327 -1.5870
  147MOL0     H19804  11.050   3.860  11.882 -0.1298  0.9720 -1.0451
  147MOL0     H19805  11.056   3.899  11.461 -1.0847  0.2701 -1.2042
  147MOL0     H19806  10.855   3.958  11.368  3.7335  2.5393  2.6005
  147MOL0     H19807  10.386   3.773  11.239 -2.8721 -1.6953 -0.1728
  147MOL0     H19808  10.212   3.850  11.121  0.7509  1.1698 -1.3596
  147MOL0     H19809  10.058   4.016  11.006 -0.0929  0.0604  0.5275
  147MOL0     H19810   9.967   3.895  11.111  2.3143 -0.1606  3.0293
  147MOL0     H19811   9.780   4.046  11.110  1.3845  2.4296  3.0844
  147MOL0     H19812   9.883   4.179  11.067  1.2050 -0.7416 -1.7230
  147MOL0     H19813   9.898   4.094  10.844 -1.6177 -0.1739 -0.8625
  147MOL0     H19814   9.819   3.944  10.885  1.4376  0.3210 -0.4209
  147MOL0     H19815   9.709   4.235  10.906 -0.2679  0.5054 -0.6966
  147MOL0     H19816   9.604   4.092  10.947 -1.1934  1.1262 -1.9343
  147MOL0     H19817   9.627   4.018  10.703 -0.8095  0.6008  0.4153
  147MOL0     H19818   9.723   4.158  10.677  0.5065 -2.3375 -0.2625
  147MOL0     H19819   9.439   4.191  10.788  1.4944  1.1097  2.0911
  147MOL0     H19820   9.543   4.314  10.742  0.0669 -0.8384 -0.3089
  147MOL0     H19821   9.473   4.104  10.532  0.6760  0.2936 -0.4947
  147MOL0     H19822   9.543   4.264  10.507  1.8054 -1.3723 -0.3165
  147MOL0     H19823   9.303   4.289  10.450  0.5933 -1.0867 -0.8022
  147MOL0     H19824   9.254   4.181  10.582  0.2679 -1.4839 -1.1980
  147MOL0     H19825  10.127   4.153  11.435  1.3674  0.5720 -0.7164
  147MOL0     H19826  10.335   4.060  11.560 -0.1835 -1.0532  0.8562
  147MOL0     H19827  10.626   3.739  11.636 -0.0422  1.1795  0.8087
  147MOL0     H19828  10.841   3.682  11.766  3.7970  1.6754  1.7604
  147MOL0     H19829   9.815   3.495  11.560 -0.7687  1.2307  1.3360
  147MOL0     H19830   9.711   3.488  11.335 -1.7136  0.1424  2.0322
  147MOL0     H19831   9.685   3.723  10.940 -0.5653  0.7089  0.7549
  147MOL0     H19832   9.582   3.783  10.730  1.0778 -0.9014  0.4544
  147MOL0     H19833   9.386   3.735  10.523 -1.1802 -0.9560 -0.4837
  147MOL0     H19834   9.419   3.903  10.573 -3.3068  3.3799 -1.9838
  147MOL0     H19835   9.183   3.977  10.527  0.6802 -1.4557  3.2472
  147MOL0     H19836   9.144   3.806  10.470 -0.8874  0.1060 -0.6626
  147MOL0     H19837   9.290   3.846  10.278 -3.0165 -1.1110  0.7044
  147MOL0     H19838   9.357   3.993  10.365 -1.3201  1.9367  2.2362
  147MOL0     H19839   9.168   4.110  10.308 -2.2628  0.0096 -0.9874
  147MOL0     H19840   9.213   4.014  10.165 -0.7476  2.5942 -1.0042
  147MOL0     H19841   8.850   3.826  10.238  0.1897 -1.1745 -0.8359
  147MOL0     H19842   9.186   3.752  10.897 -0.5713  0.0033  3.0407
  147MOL0     H19843   9.291   3.818  11.230  1.5819 -0.3011 -0.3020
  147MOL0     H19844   9.159   3.746  11.141 -0.2436  1.0515  1.9379
  147MOL0     H19845   9.280   3.645  11.215  0.4819  0.9993  0.4294
  148MOL0     O19846   6.631   5.148   6.650  0.4946 -0.5985  0.3143
  148MOL0     C19847   6.637   5.077   6.549  0.4682  0.1909 -0.6648
  148MOL0     O19848   6.529   5.017   6.491  0.3007  0.6129  0.0499
  148MOL0     C19849   6.406   5.039   6.553  0.3178  0.1756  0.3087
  148MOL0     C19850   6.332   4.943   6.620  0.2387 -0.6389 -0.8148
  148MOL0     C19851   6.192   4.961   6.659  0.1083 -0.6179  0.2699
  148MOL0     C19852   6.129   5.078   6.612 -1.4379 -1.3817  0.5466
  148MOL0     O19853   5.995   5.111   6.628  0.4914  0.4466  0.7084
  148MOL0     C19854   5.908   5.023   6.697  0.4104  0.5884  0.7422
  148MOL0     C19855   5.785   5.105   6.722 -0.2419 -0.3829 -1.3623
  148MOL0     C19856   5.666   5.035   6.802 -0.2218  0.5364  0.2372
  148MOL0     C19857   5.587   5.132   6.881 -0.6992  0.0398  0.0714
  148MOL0     C19858   5.531   5.077   7.011 -0.1844 -0.4985  0.4240
  148MOL0     C19859   5.428   4.962   6.988 -0.5827  0.2099  0.4856
  148MOL0     C19860   5.285   5.025   6.998  0.7406  0.0445  0.0834
  148MOL0     C19861   5.187   4.907   7.010  0.4560  0.1823  0.0427
  148MOL0     N19862   5.060   4.957   6.967 -0.0997 -0.2748 -0.2447
  148MOL0     C19863   4.966   4.887   6.900 -0.9268  0.0990 -0.8069
  148MOL0     C19864   4.868   4.976   6.883  0.4554  0.1006 -0.0095
  148MOL0     C19865   4.731   4.960   6.826 -0.3191  0.4331 -0.3657
  148MOL0     C19866   4.700   5.056   6.705  0.2741  0.0929  0.8824
  148MOL0     C19867   4.724   4.988   6.564 -0.6480 -0.3684 -0.3644
  148MOL0     C19868   4.856   5.000   6.492  0.7564  0.6782  0.4408
  148MOL0     O19869   4.952   4.949   6.582  0.1326  0.5834  0.3170
  148MOL0     C19870   5.088   4.937   6.541  0.3327  0.1809  0.4833
  148MOL0     C19871   5.197   4.869   6.619  0.8157 -0.7470 -0.0348
  148MOL0     C19872   5.332   4.869   6.593 -1.4220  0.4832  0.2518
  148MOL0     C19873   5.377   4.928   6.476  0.0536 -0.8474 -0.9084
  148MOL0     C19874   5.518   4.917   6.439  0.1852 -0.8279  0.2059
  148MOL0     O19875   5.558   4.953   6.312  0.7378 -0.3336 -0.6873
  148MOL0     C19876   5.695   4.929   6.287 -0.6129 -0.2366 -0.8291
  148MOL0     C19877   5.735   4.799   6.249  0.0037 -0.2954 -0.3353
  148MOL0     C19878   5.870   4.777   6.219  0.5787 -0.0838 -0.2018
  148MOL0     C19879   5.963   4.878   6.238 -0.7005 -0.4641 -0.6057
  148MOL0     O19880   6.090   4.843   6.204  0.5762  0.8275 -0.0407
  148MOL0     C19881   6.189   4.940   6.240  0.1461  0.2105 -0.4971
  148MOL0     C19882   6.333   4.911   6.190 -0.1271  0.0092  0.3339
  148MOL0     C19883   6.360   4.992   6.056 -0.0639  0.0266 -0.2836
  148MOL0     C19884   6.310   4.904   5.940 -0.2027 -0.0281 -0.2434
  148MOL0     C19885   6.269   4.992   5.823 -0.4425  0.3458  0.2079
  148MOL0     C19886   6.261   4.920   5.690  0.9878 -0.8796 -0.4790
  148MOL0     C19887   6.167   4.797   5.681 -0.0912 -0.1105 -1.0208
  148MOL0     C19888   6.137   4.749   5.537 -0.0866  0.3695 -0.8872
  148MOL0    Cl19889   6.042   4.890   5.484  0.4906 -0.4850  0.2971
  148MOL0     C19890   5.923   5.004   6.284 -0.5997  0.1907  0.0675
  148MOL0     C19891   5.783   5.035   6.301 -0.1211 -0.0087  0.1712
  148MOL0     O19892   5.591   4.863   6.526 -0.4982 -0.4236  0.2734
  148MOL0     C19893   5.275   4.977   6.384  0.1150  0.2816 -1.4926
  148MOL0     C19894   5.139   4.987   6.420 -0.7350  0.3820 -0.0061
  148MOL0     N19895   4.897   5.092   6.948 -0.5232 -0.3898 -0.0581
  148MOL0     N19896   5.012   5.081   6.993 -0.9303 -0.1105  1.0847
  148MOL0     C19897   6.204   5.172   6.541  0.7870  0.7009  0.1167
  148MOL0     C19898   6.336   5.156   6.511 -0.8883  0.7024 -0.0410
  148MOL0     C19899   6.773   5.074   6.476 -0.7877  0.6907  0.0370
  148MOL0     C19900   6.866   5.168   6.522 -0.8728  0.6441  1.0730
  148MOL0     C19901   6.994   5.177   6.460 -0.1388 -0.0716 -0.6829
  148MOL0     C19902   7.025   5.097   6.353 -0.8744 -0.2089 -0.5573
  148MOL0     O19903   7.139   5.092   6.286 -0.9447 -0.3310 -0.1441
  148MOL0     C19904   7.245   5.187   6.314  0.1845 -0.3347 -0.2497
  148MOL0     C19905   7.367   5.143   6.224  0.7879  0.0203 -0.7553
  148MOL0     C19906   7.344   5.192   6.078 -0.3953  0.1959 -0.5837
  148MOL0     C19907   7.473   5.185   5.992  0.6070 -0.2476  0.1844
  148MOL0     C19908   7.449   5.269   5.880  0.3143  0.0907  0.4015
  148MOL0     C19909   7.427   5.339   5.785 -0.7258 -0.2305 -0.2824
  148MOL0     C19910   6.935   5.000   6.313  0.5444  0.6905  0.5501
  148MOL0     C19911   6.809   4.985   6.379 -0.2368  0.5520  1.4007
  148MOL0     C19912   6.721   4.870   6.323  0.1449 -0.6445  0.1993
  148MOL0     H19913   6.376   4.850   6.655  4.0553  1.4344  0.4032
  148MOL0     H19914   6.142   4.883   6.714 -0.6547 -1.5656 -1.6822
  148MOL0     H19915   5.885   4.938   6.632  0.8559  0.9415  0.1049
  148MOL0     H19916   5.956   4.975   6.783  2.1001 -0.2909 -0.6157
  148MOL0     H19917   5.749   5.138   6.624 -0.4674  1.0635 -0.8150
  148MOL0     H19918   5.820   5.190   6.781  5.9587 -3.1559 -0.3178
  148MOL0     H19919   5.700   4.950   6.864  1.0845  0.7587 -0.1402
  148MOL0     H19920   5.600   4.990   6.728  0.8307  0.8114 -0.8918
  148MOL0     H19921   5.648   5.216   6.916 -2.2785  1.3395 -0.1712
  148MOL0     H19922   5.509   5.174   6.817  1.1517  1.4478 -1.3447
  148MOL0     H19923   5.621   5.044   7.063  2.5268  1.8166 -2.3850
  148MOL0     H19924   5.482   5.161   7.063 -3.4884 -2.2961  0.5158
  148MOL0     H19925   5.433   4.910   6.893 -1.1212  2.0558 -0.6076
  148MOL0     H19926   5.434   4.888   7.068  1.2574 -1.2562 -0.9259
  148MOL0     H19927   5.257   5.079   6.907  2.3996  2.9812  1.1751
  148MOL0     H19928   5.273   5.080   7.092  1.3265  2.2216 -1.0477
  148MOL0     H19929   5.222   4.820   6.953  5.8581  1.7445  0.4228
  148MOL0     H19930   5.183   4.872   7.114  3.4423  2.4520  1.0424
  148MOL0     H19931   4.971   4.791   6.851  2.9669 -0.2961  0.0896
  148MOL0     H19932   4.721   4.859   6.786 -0.2814 -0.5774  2.0343
  148MOL0     H19933   4.666   4.986   6.911  2.1091 -1.7866  2.3745
  148MOL0     H19934   4.597   5.091   6.710  0.2608  0.1302  0.4154
  148MOL0     H19935   4.762   5.147   6.712  0.4311 -0.1229  2.7972
  148MOL0     H19936   4.644   5.027   6.501 -1.1974  0.1391  0.6223
  148MOL0     H19937   4.706   4.880   6.570 -1.5518 -0.1544  1.8020
  148MOL0     H19938   4.873   5.108   6.483  1.0233  0.6217  0.2413
  148MOL0     H19939   4.846   4.958   6.391  0.2751  0.7248  0.4667
  148MOL0     H19940   5.165   4.826   6.714  2.2636  2.1414  1.8892
  148MOL0     H19941   5.397   4.813   6.659 -0.2895  0.8896 -0.4898
  148MOL0     H19942   5.661   4.722   6.231 -0.8339  0.9028 -2.3685
  148MOL0     H19943   5.896   4.678   6.184  3.0692  0.0897  0.9316
  148MOL0     H19944   6.168   5.044   6.214  0.2443  1.1563  2.6873
  148MOL0     H19945   6.200   4.937   6.349  1.6185  0.7965 -0.6051
  148MOL0     H19946   6.394   4.947   6.274  0.2454 -0.6446  0.3463
  148MOL0     H19947   6.353   4.808   6.161 -0.1881 -0.1147  0.7283
  148MOL0     H19948   6.310   5.089   6.063  0.7081  0.4259 -0.1587
  148MOL0     H19949   6.469   5.000   6.048  0.6155 -5.0026  0.5504
  148MOL0     H19950   6.227   4.839   5.970  0.2668  0.0467  1.3355
  148MOL0     H19951   6.393   4.837   5.918 -1.5373 -2.3764  1.3400
  148MOL0     H19952   6.350   5.065   5.816  0.6676 -0.6303  1.9412
  148MOL0     H19953   6.176   5.046   5.843  0.5610  2.7762 -1.2796
  148MOL0     H19954   6.248   4.991   5.608  1.5120 -1.0323 -0.7032
  148MOL0     H19955   6.362   4.879   5.676  1.9676  0.9939  0.7514
  148MOL0     H19956   6.071   4.829   5.724  0.9912  1.9686  0.0213
  148MOL0     H19957   6.208   4.714   5.739 -3.2243  0.0358  1.7319
  148MOL0     H19958   6.226   4.720   5.480  0.4469 -0.1019  0.1745
  148MOL0     H19959   6.069   4.663   5.540 -2.0161  1.8183 -0.8479
  148MOL0     H19960   6.000   5.068   6.325  1.7167 -2.8813  0.9143
  148MOL0     H19961   5.751   5.131   6.340 -1.7462 -1.3308  2.3456
  148MOL0     H19962   5.291   5.014   6.284  0.4710 -1.4989 -2.1339
  148MOL0     H19963   5.070   5.028   6.346  0.5979 -1.4790 -2.4209
  148MOL0     H19964   6.159   5.266   6.511  0.5523  0.5250 -0.0853
  148MOL0     H19965   6.393   5.225   6.449  1.0501  0.4075  1.3207
  148MOL0     H19966   6.837   5.237   6.600 -0.6067  2.0274 -0.0131
  148MOL0     H19967   7.060   5.248   6.509  0.2374 -0.1574 -1.0615
  148MOL0     H19968   7.268   5.199   6.421 -1.7378 -1.1214  0.2951
  148MOL0     H19969   7.209   5.283   6.275  1.7581 -0.0618 -1.0911
  148MOL0     H19970   7.379   5.035   6.234 -2.4935 -0.2981  1.3914
  148MOL0     H19971   7.454   5.196   6.265 -1.5555  1.3496  2.9876
  148MOL0     H19972   7.311   5.295   6.092 -1.0914 -0.1177  0.1612
  148MOL0     H19973   7.267   5.139   6.021  1.0827  1.6010 -4.1501
  148MOL0     H19974   7.552   5.238   6.048  0.2420  0.4664  0.0357
  148MOL0     H19975   7.505   5.085   5.959 -1.3576 -1.4354  1.6837
  148MOL0     H19976   7.393   5.405   5.708  2.0519  1.2469 -0.3820
  148MOL0     H19977   6.954   4.919   6.244  0.9360  3.8822 -3.4755
  148MOL0     H19978   6.625   4.908   6.287  0.3283  0.5524  0.8915
  148MOL0     H19979   6.758   4.818   6.234  2.3920  1.7291 -0.4155
  148MOL0     H19980   6.692   4.792   6.394 -1.1640 -2.1957 -1.9305
  149MOL0     O19981  10.618   9.423   0.479  0.1338  0.8414  0.5873
  149MOL0     C19982  10.551   9.393   0.581 -0.6480  0.1769  0.5896
  149MOL0     O19983  10.600   9.348   0.695 -0.9131 -0.2874 -0.7259
  149MOL0     C19984  10.737   9.333   0.719 -0.0202 -0.0194  0.1556
  149MOL0     C19985  10.805   9.371   0.832  0.1881 -0.2060  0.5818
  149MOL0     C19986  10.944   9.332   0.853  1.2388  0.4483 -0.4680
  149MOL0     C19987  11.029   9.280   0.754 -0.8247  0.0856  0.5813
  149MOL0     O19988  11.156   9.244   0.797 -0.5044  0.3990  0.2709
  149MOL0     C19989  11.250   9.172   0.721  0.6512 -0.2327 -0.2741
  149MOL0     C19990  11.284   9.060   0.823 -0.1638 -0.4753  0.6636
  149MOL0     C19991  11.377   8.956   0.754 -0.2523 -0.8413  0.1675
  149MOL0     C19992  11.418   8.855   0.853 -0.3594  0.9141 -0.2197
  149MOL0     C19993  11.450   8.729   0.770 -0.2123  0.0726  0.4796
  149MOL0     C19994  11.529   8.630   0.849  1.0206  0.3438 -0.6790
  149MOL0     C19995  11.666   8.670   0.881  0.1613 -0.2503 -0.7055
  149MOL0     C19996  11.753   8.759   0.782  0.0035 -0.3476  0.1631
  149MOL0     N19997  11.889   8.794   0.820 -0.1642  0.1850  0.3481
  149MOL0     C19998  11.969   8.733   0.912 -0.4387 -0.2615 -0.1522
  149MOL0     C19999  12.078   8.807   0.925 -0.4179 -0.1479  0.1475
  149MOL0     C20000  12.199   8.786   1.023 -0.3590  0.1843  0.4613
  149MOL0     C20001  12.334   8.754   0.951  0.0217 -0.0598  0.8518
  149MOL0     C20002  12.430   8.672   1.037  0.8629 -1.2676  0.7473
  149MOL0     C20003  12.451   8.722   1.179 -1.3029 -0.1797 -0.4773
  149MOL0     O20004  12.568   8.658   1.234 -0.5072  0.3859 -0.3007
  149MOL0     C20005  12.688   8.729   1.217 -0.0755 -0.3210  0.2615
  149MOL0     C20006  12.707   8.865   1.184 -0.1614  0.5675 -0.2898
  149MOL0     C20007  12.830   8.918   1.197  0.4517 -0.0426  0.5863
  149MOL0     C20008  12.939   8.846   1.235 -0.3463  0.3985 -0.3241
  149MOL0     C20009  13.073   8.902   1.238 -0.1954  0.2248 -0.2797
  149MOL0     O20010  13.179   8.847   1.175 -0.7728 -0.3620 -0.1354
  149MOL0     C20011  13.305   8.892   1.213  0.4402 -0.3054 -0.3012
  149MOL0     C20012  13.375   8.826   1.319 -0.5088 -0.1943 -0.0639
  149MOL0     C20013  13.506   8.868   1.360 -0.1634 -0.3798  0.6931
  149MOL0     C20014  13.562   8.981   1.305  0.0567  0.6448  0.4989
  149MOL0     O20015  13.684   9.024   1.345 -0.2806 -0.0699 -0.5642
  149MOL0     C20016  13.677   9.134   1.439  0.0447  0.5600  0.5472
  149MOL0     C20017  13.817   9.166   1.479 -0.4597  0.0397  0.0905
  149MOL0     C20018  13.894   9.216   1.357  0.5846 -0.0390  0.3209
  149MOL0     C20019  14.042   9.253   1.407 -0.8021 -0.2644 -0.1490
  149MOL0     C20020  14.120   9.318   1.298  0.0721  0.0768  0.0201
  149MOL0     C20021  14.104   9.471   1.310  0.0876 -0.3555  0.8436
  149MOL0     C20022  14.194   9.544   1.214  0.2636  0.0848 -0.6990
  149MOL0     C20023  14.152   9.548   1.067 -0.8789  0.1045 -0.2662
  149MOL0    Cl20024  14.268   9.638   0.964 -0.1307  0.0785 -0.3695
  149MOL0     C20025  13.502   9.046   1.199 -0.4743  0.6252 -0.4742
  149MOL0     C20026  13.371   9.011   1.159 -1.0164  0.1253 -0.4832
  149MOL0     O20027  13.084   9.010   1.308  0.5642  0.4102  0.0347
  149MOL0     C20028  12.924   8.704   1.260 -0.0474 -0.0606  0.7791
  149MOL0     C20029  12.798   8.647   1.249  0.1189  0.5176  0.2843
  149MOL0     N20030  12.070   8.922   0.839 -0.1216 -0.0189  1.1217
  149MOL0     N20031  11.957   8.902   0.779 -0.5204 -0.0129  0.4526
  149MOL0     C20032  10.958   9.255   0.635 -1.1546  0.6223  1.2626
  149MOL0     C20033  10.821   9.274   0.618  0.2328 -0.2428  0.7111
  149MOL0     C20034  10.401   9.408   0.563  0.1430 -0.2436 -1.2234
  149MOL0     C20035  10.341   9.485   0.472  0.4190  0.1202 -0.2177
  149MOL0     C20036  10.209   9.513   0.468  0.5536  0.1993  0.2737
  149MOL0     C20037  10.123   9.460   0.556  2.0198  0.3242 -1.0266
  149MOL0     O20038   9.991   9.493   0.547 -0.9981 -0.1338  0.6010
  149MOL0     C20039   9.898   9.421   0.631 -0.1224 -0.5560 -0.7281
  149MOL0     C20040   9.756   9.468   0.571  0.2837  0.0927  0.3572
  149MOL0     C20041   9.644   9.471   0.678 -0.8443  0.1212 -0.6855
  149MOL0     C20042   9.579   9.335   0.710 -0.4313  0.2759 -0.2543
  149MOL0     C20043   9.481   9.373   0.811 -0.5533  1.1526  0.0275
  149MOL0     C20044   9.412   9.409   0.899 -0.1630  0.6900 -0.2157
  149MOL0     C20045  10.169   9.372   0.657  0.3036 -0.7258 -0.5462
  149MOL0     C20046  10.308   9.348   0.661  0.1533  0.2758 -0.0367
  149MOL0     C20047  10.350   9.283   0.796 -0.2824 -0.3634 -1.6313
  149MOL0     H20048  10.743   9.410   0.912 -1.2177  1.3483 -1.1705
  149MOL0     H20049  10.985   9.329   0.954  0.6355 -0.0132 -0.2372
  149MOL0     H20050  11.215   9.124   0.629  0.6713 -1.3553  0.2794
  149MOL0     H20051  11.339   9.230   0.697  0.4123  0.3561  0.2457
  149MOL0     H20052  11.193   9.004   0.846 -2.3064  1.9013 -1.3480
  149MOL0     H20053  11.326   9.108   0.912  1.3363 -2.1611  0.9308
  149MOL0     H20054  11.467   9.010   0.720  0.2187 -0.7129  1.5598
  149MOL0     H20055  11.318   8.908   0.676  0.9183 -3.2254  0.6486
  149MOL0     H20056  11.504   8.887   0.912  0.4567  1.8055 -1.8444
  149MOL0     H20057  11.342   8.820   0.925  3.1870 -0.9633  2.9880
  149MOL0     H20058  11.358   8.678   0.739 -0.2586  0.2623  0.3056
  149MOL0     H20059  11.504   8.757   0.679  1.5021 -0.6595  1.2370
  149MOL0     H20060  11.468   8.595   0.933  0.5868 -2.4135 -2.0073
  149MOL0     H20061  11.547   8.536   0.795 -0.7344 -1.3038  1.3921
  149MOL0     H20062  11.718   8.579   0.913 -3.5510 -1.4309  2.8228
  149MOL0     H20063  11.658   8.733   0.969 -0.2105 -0.4499 -0.5928
  149MOL0     H20064  11.745   8.717   0.681 -1.1916 -3.2150  1.3350
  149MOL0     H20065  11.697   8.852   0.771 -1.9009 -1.5066 -0.2949
  149MOL0     H20066  11.953   8.642   0.969 -2.2424  1.2601  1.9358
  149MOL0     H20067  12.207   8.881   1.077  3.1789  1.2465 -1.6688
  149MOL0     H20068  12.176   8.709   1.098  0.3699  1.1619  1.7188
  149MOL0     H20069  12.308   8.691   0.865 -2.2522  0.2466  1.2520
  149MOL0     H20070  12.383   8.847   0.922 -1.3880  0.3905 -0.2231
  149MOL0     H20071  12.526   8.685   0.987  0.0702  1.5350 -0.1993
  149MOL0     H20072  12.408   8.564   1.035 -0.1725 -1.0639 -1.9263
  149MOL0     H20073  12.362   8.700   1.239 -1.5110  3.4756  0.7998
  149MOL0     H20074  12.447   8.831   1.181 -0.0625 -0.1303  1.2627
  149MOL0     H20075  12.627   8.926   1.144 -0.8370  0.6260  1.1076
  149MOL0     H20076  12.844   9.025   1.183  1.1014 -0.2038 -0.0305
  149MOL0     H20077  13.337   8.728   1.345  0.0066 -0.4836 -0.3926
  149MOL0     H20078  13.571   8.820   1.433 -0.4863  1.7596  2.4679
  149MOL0     H20079  13.623   9.223   1.406 -1.6062 -1.0550 -1.3455
  149MOL0     H20080  13.623   9.100   1.528 -0.5745 -1.5665 -0.5685
  149MOL0     H20081  13.808   9.246   1.552 -0.1863  0.3566 -0.2243
  149MOL0     H20082  13.863   9.082   1.532 -0.9704 -0.5540 -0.3922
  149MOL0     H20083  13.909   9.140   1.280 -0.3980 -0.8335  0.8882
  149MOL0     H20084  13.851   9.300   1.301  0.2106 -0.9836 -0.8462
  149MOL0     H20085  14.095   9.162   1.436  1.4681  1.2593  0.7700
  149MOL0     H20086  14.036   9.319   1.494 -1.0684 -0.4527 -0.0240
  149MOL0     H20087  14.094   9.284   1.197  2.3036  1.6573 -1.1817
  149MOL0     H20088  14.222   9.288   1.324  0.2014  1.5217  1.3468
  149MOL0     H20089  14.004   9.497   1.276  1.1234 -0.0708 -2.3776
  149MOL0     H20090  14.124   9.508   1.411 -0.7568 -0.6339  1.1179
  149MOL0     H20091  14.288   9.488   1.212 -0.6864 -1.5765 -1.5206
  149MOL0     H20092  14.210   9.649   1.238 -2.1752  0.5056 -0.6804
  149MOL0     H20093  14.149   9.446   1.029  1.0111 -0.8922  2.0257
  149MOL0     H20094  14.055   9.598   1.069 -0.3685  1.1996 -1.3162
  149MOL0     H20095  13.548   9.127   1.144  0.8789 -2.1127 -3.6689
  149MOL0     H20096  13.321   9.071   1.083 -1.8098  1.0873  0.7633
  149MOL0     H20097  13.010   8.646   1.292 -0.2137  0.8470  3.0620
  149MOL0     H20098  12.787   8.540   1.268  2.1396 -0.4457 -2.9897
  149MOL0     H20099  11.012   9.206   0.555  0.1434  0.7754  2.0161
  149MOL0     H20100  10.768   9.245   0.528 -4.0413  2.7610  1.9361
  149MOL0     H20101  10.404   9.527   0.394 -0.6488  2.9085  0.2830
  149MOL0     H20102  10.173   9.573   0.385  1.5850 -0.9443 -1.0487
  149MOL0     H20103   9.908   9.444   0.738 -0.9227 -1.0069 -0.5405
  149MOL0     H20104   9.905   9.314   0.611 -3.8570 -0.4025 -4.1962
  149MOL0     H20105   9.727   9.380   0.512  0.6902 -2.0512  3.1348
  149MOL0     H20106   9.762   9.566   0.523 -3.2155  0.7090  0.8876
  149MOL0     H20107   9.564   9.535   0.639 -1.3516 -1.9865 -3.4810
  149MOL0     H20108   9.679   9.529   0.763 -2.6899 -2.1150  1.7734
  149MOL0     H20109   9.523   9.298   0.624  0.9564  0.9464 -1.4974
  149MOL0     H20110   9.657   9.263   0.737  0.3199  0.8367 -0.8612
  149MOL0     H20111   9.355   9.438   0.986  2.3975 -4.4048  3.7431
  149MOL0     H20112  10.103   9.333   0.734  1.0326  0.4672  0.7074
  149MOL0     H20113  10.268   9.226   0.841  0.9809 -0.8227  0.2094
  149MOL0     H20114  10.432   9.215   0.770  2.6707  1.8664  1.0246
  149MOL0     H20115  10.388   9.351   0.872  1.3856 -2.2594 -0.6658
  150MOL0     O20116   2.898   0.776   7.706  0.2909 -0.2623 -0.1453
  150MOL0     C20117   2.968   0.808   7.803 -0.0617  0.1401  0.1159
  150MOL0     O20118   2.939   0.906   7.893  0.3955  0.0203  0.1461
  150MOL0     C20119   2.819   0.986   7.874  0.3877 -0.3153 -1.3628
  150MOL0     C20120   2.722   0.980   7.970 -0.4988  0.1760  0.7751
  150MOL0     C20121   2.596   1.046   7.956 -0.3040 -0.6006  0.1579
  150MOL0     C20122   2.578   1.129   7.836  1.3004  0.5193 -0.5364
  150MOL0     O20123   2.470   1.208   7.816  0.5509 -0.0551 -0.4403
  150MOL0     C20124   2.399   1.248   7.933 -0.0035  0.1780  0.7528
  150MOL0     C20125   2.300   1.347   7.877  0.5472 -0.3508  0.0167
  150MOL0     C20126   2.186   1.390   7.971  0.7931  0.4707  0.2919
  150MOL0     C20127   2.161   1.542   7.965  0.1786  0.3094 -0.6516
  150MOL0     C20128   2.073   1.594   8.091 -0.3199  0.5657 -0.0729
  150MOL0     C20129   2.138   1.582   8.231  0.1483 -0.2824 -0.4643
  150MOL0     C20130   2.279   1.638   8.252 -0.3989  0.3596  0.6546
  150MOL0     C20131   2.286   1.791   8.234 -0.1238 -0.7096  0.2675
  150MOL0     N20132   2.186   1.855   8.318 -0.4478 -0.2264  0.2216
  150MOL0     C20133   2.202   1.868   8.454  0.2770  0.5305  1.3439
  150MOL0     C20134   2.142   1.983   8.488  0.0973  0.5430 -0.1278
  150MOL0     C20135   2.152   2.052   8.627 -0.7939  0.2074 -0.6796
  150MOL0     C20136   2.304   2.089   8.638  0.7767  0.3491  0.5171
  150MOL0     C20137   2.320   2.158   8.768  0.0322 -0.8536  0.0107
  150MOL0     C20138   2.461   2.200   8.805 -0.1065  0.0587  1.0907
  150MOL0     O20139   2.543   2.086   8.810 -0.9078 -0.1267 -0.7640
  150MOL0     C20140   2.675   2.095   8.804 -0.0983 -0.3564 -0.0071
  150MOL0     C20141   2.743   2.214   8.818  0.1204 -1.5493  0.3251
  150MOL0     C20142   2.878   2.225   8.789 -0.6243 -0.4129  0.2540
  150MOL0     C20143   2.947   2.109   8.744 -0.5996  0.2448 -0.6175
  150MOL0     C20144   3.086   2.134   8.700  0.1470 -0.0281  0.6612
  150MOL0     O20145   3.138   2.259   8.717  0.9329  0.2161 -0.4623
  150MOL0     C20146   3.275   2.263   8.708  0.6638 -0.2747  0.2431
  150MOL0     C20147   3.352   2.253   8.821  0.6223 -0.3582  0.1355
  150MOL0     C20148   3.494   2.266   8.821  0.2243  1.2304 -0.3197
  150MOL0     C20149   3.558   2.282   8.696 -0.1524  1.2410 -0.1340
  150MOL0     O20150   3.690   2.295   8.684  0.4145 -0.1581 -0.9641
  150MOL0     C20151   3.724   2.417   8.622  0.5484 -0.5910  0.9217
  150MOL0     C20152   3.865   2.459   8.646  0.4895 -0.3872 -0.6317
  150MOL0     C20153   3.867   2.499   8.801  0.7728 -0.0545 -0.0328
  150MOL0     C20154   4.006   2.500   8.846 -0.0012 -0.1953 -0.9236
  150MOL0     C20155   4.086   2.620   8.783  0.3391 -0.1568  0.4355
  150MOL0     C20156   4.092   2.755   8.855 -0.0315  0.2091 -0.8175
  150MOL0     C20157   4.203   2.839   8.798  0.1175 -0.3259  0.4894
  150MOL0     C20158   4.204   2.986   8.853 -0.3826 -0.2018 -0.4781
  150MOL0    Cl20159   4.342   3.067   8.786 -0.3943 -0.1941  0.4646
  150MOL0     C20160   3.482   2.277   8.575 -0.6377 -0.0293 -0.7022
  150MOL0     C20161   3.343   2.260   8.585  0.1542 -0.2628  0.3427
  150MOL0     O20162   3.139   2.037   8.654 -0.6015  0.2636  0.0421
  150MOL0     C20163   2.882   1.985   8.745  0.6451 -0.3197  0.3717
  150MOL0     C20164   2.740   1.980   8.762 -0.7224  0.0534  0.0705
  150MOL0     N20165   2.084   2.039   8.372 -0.7260  0.1212  0.2415
  150MOL0     N20166   2.115   1.967   8.270 -0.2862  0.7992  0.0505
  150MOL0     C20167   2.672   1.121   7.736 -0.1069 -0.1502  0.0714
  150MOL0     C20168   2.799   1.072   7.762  0.2803 -0.2469  0.7811
  150MOL0     C20169   3.087   0.730   7.838 -0.3656 -0.1485 -0.3042
  150MOL0     C20170   3.114   0.715   7.973 -0.1155  0.9516  0.0899
  150MOL0     C20171   3.230   0.636   8.013  0.3301  0.0481 -0.1364
  150MOL0     C20172   3.320   0.588   7.920 -0.4183  0.1568 -0.0837
  150MOL0     O20173   3.422   0.523   7.973 -0.2461  0.3200  0.4823
  150MOL0     C20174   3.500   0.444   7.887  0.8202  0.0367 -0.3200
  150MOL0     C20175   3.619   0.395   7.969 -0.2312  0.9633  0.6503
  150MOL0     C20176   3.582   0.311   8.086  0.2300  0.6148  0.1817
  150MOL0     C20177   3.690   0.219   8.139 -0.9994 -0.0481 -0.2544
  150MOL0     C20178   3.819   0.298   8.163  0.9350  0.2531  1.0859
  150MOL0     C20179   3.913   0.364   8.179 -0.2321  0.1470 -0.8535
  150MOL0     C20180   3.300   0.623   7.785 -0.5797 -0.4558  0.9928
  150MOL0     C20181   3.185   0.691   7.748  0.1301  0.3835 -0.0604
  150MOL0     C20182   3.172   0.702   7.599  0.9321 -0.1473  0.0743
  150MOL0     H20183   2.747   0.920   8.057  2.0534  0.5674  0.3830
  150MOL0     H20184   2.514   1.020   8.023 -1.1533 -3.2141 -1.7276
  150MOL0     H20185   2.354   1.163   7.985 -0.5323  1.8256  3.1284
  150MOL0     H20186   2.464   1.303   8.001  1.1636 -1.4764  1.0303
  150MOL0     H20187   2.265   1.298   7.785  2.3082 -2.1737  0.2336
  150MOL0     H20188   2.365   1.430   7.847  0.4374  0.4598  1.9336
  150MOL0     H20189   2.203   1.354   8.073 -0.6152 -0.2474  0.2941
  150MOL0     H20190   2.098   1.343   7.926  2.6622 -3.5281  0.4012
  150MOL0     H20191   2.257   1.594   7.966 -0.0048  0.7249 -1.9412
  150MOL0     H20192   2.104   1.559   7.873 -2.8735  0.9736  1.1922
  150MOL0     H20193   2.044   1.696   8.065  0.9641  0.2461 -3.2442
  150MOL0     H20194   1.975   1.546   8.095 -0.0340  0.0536  1.9908
  150MOL0     H20195   2.059   1.624   8.294 -0.3703  0.1032 -1.3569
  150MOL0     H20196   2.147   1.475   8.254 -2.9510 -0.2956  1.1695
  150MOL0     H20197   2.349   1.590   8.183  0.5051 -0.0723  1.8312
  150MOL0     H20198   2.317   1.608   8.351 -1.5689 -1.2500  0.6418
  150MOL0     H20199   2.384   1.829   8.265 -0.4868  0.1625  0.3686
  150MOL0     H20200   2.261   1.820   8.131  0.0882 -1.7270 -0.0837
  150MOL0     H20201   2.269   1.805   8.511  0.7111 -1.2355 -0.9515
  150MOL0     H20202   2.076   2.128   8.646 -2.2829 -1.3617 -0.1598
  150MOL0     H20203   2.134   1.981   8.708  1.8121  1.5307  1.2158
  150MOL0     H20204   2.360   1.995   8.637 -0.0671 -0.1717 -0.5831
  150MOL0     H20205   2.333   2.153   8.555 -0.3312 -1.0166 -0.9990
  150MOL0     H20206   2.296   2.083   8.845 -0.0380 -1.4155 -0.5515
  150MOL0     H20207   2.261   2.249   8.784 -1.0575 -1.7537  1.3935
  150MOL0     H20208   2.469   2.258   8.897 -0.2569  0.5332  0.8138
  150MOL0     H20209   2.501   2.257   8.720  2.0616 -2.2426  0.4672
  150MOL0     H20210   2.687   2.304   8.843  2.6492 -0.5847  3.1266
  150MOL0     H20211   2.934   2.317   8.808 -0.8206 -0.1218 -0.5306
  150MOL0     H20212   3.293   2.242   8.911 -3.3031  4.4191 -1.4355
  150MOL0     H20213   3.554   2.262   8.912  0.4327 -1.7937 -0.4944
  150MOL0     H20214   3.731   2.397   8.515  2.3171  1.2956  0.6381
  150MOL0     H20215   3.651   2.497   8.631  1.9443  1.3979 -3.1094
  150MOL0     H20216   3.948   2.392   8.622  0.6446  0.9822 -4.7262
  150MOL0     H20217   3.877   2.547   8.582 -1.6380  0.9901  0.7308
  150MOL0     H20218   3.825   2.597   8.823 -0.2587 -0.7134  1.0529
  150MOL0     H20219   3.818   2.415   8.852  2.0043 -1.1746 -0.6173
  150MOL0     H20220   4.053   2.402   8.831 -1.2154 -0.9433 -0.0515
  150MOL0     H20221   4.000   2.520   8.953  1.2618 -2.6374 -0.3157
  150MOL0     H20222   4.051   2.644   8.682 -1.9111 -0.2783  1.1199
  150MOL0     H20223   4.189   2.586   8.777  0.3584  0.1372 -1.3844
  150MOL0     H20224   3.993   2.803   8.858 -1.5020 -2.6252  2.1411
  150MOL0     H20225   4.115   2.746   8.962 -1.8899  0.7426 -0.3358
  150MOL0     H20226   4.216   2.826   8.691  2.1621  0.4621  0.5969
  150MOL0     H20227   4.299   2.795   8.827  0.4056 -2.1129 -2.7674
  150MOL0     H20228   4.104   3.024   8.831 -0.4633  0.6631  1.2203
  150MOL0     H20229   4.201   2.989   8.962  1.2199 -0.6255 -0.3977
  150MOL0     H20230   3.541   2.270   8.484  0.0405  1.1800 -0.3733
  150MOL0     H20231   3.285   2.260   8.493 -2.6179  0.1634  1.9841
  150MOL0     H20232   2.929   1.887   8.733 -0.7762 -1.4123  2.8335
  150MOL0     H20233   2.687   1.890   8.733 -2.2681  1.2513 -0.9963
  150MOL0     H20234   2.650   1.181   7.648  1.7062  3.7443  1.9738
  150MOL0     H20235   2.882   1.090   7.695 -1.3371 -2.9200 -2.2550
  150MOL0     H20236   3.044   0.751   8.048  1.3409  0.9729  1.5055
  150MOL0     H20237   3.241   0.607   8.117 -1.5992 -2.4421 -0.5090
  150MOL0     H20238   3.540   0.492   7.797  0.8662 -3.9102 -2.6753
  150MOL0     H20239   3.447   0.354   7.855 -2.1407  2.1684 -1.7669
  150MOL0     H20240   3.684   0.477   8.001  0.4564  1.0010 -0.7778
  150MOL0     H20241   3.686   0.338   7.904 -0.3433  1.4698  0.0802
  150MOL0     H20242   3.504   0.237   8.064  3.1096 -1.8769 -2.8372
  150MOL0     H20243   3.537   0.373   8.164 -0.7914  1.0893 -0.7580
  150MOL0     H20244   3.651   0.184   8.235 -4.6096  1.7907 -0.8743
  150MOL0     H20245   3.705   0.137   8.069 -3.3461 -0.3465 -0.4938
  150MOL0     H20246   3.999   0.421   8.204  0.9527 -1.9991  0.2195
  150MOL0     H20247   3.366   0.587   7.706 -1.9011 -0.1648 -0.2788
  150MOL0     H20248   3.088   0.640   7.568 -0.5302  1.8619 -0.1567
  150MOL0     H20249   3.160   0.805   7.566  1.6394  0.2647  1.0308
  150MOL0     H20250   3.257   0.653   7.550  0.1760 -0.6334 -0.7901
  151MOL0     O20251   3.527   1.459   2.169  0.6350 -0.4232 -0.0140
  151MOL0     C20252   3.563   1.490   2.053 -0.0216 -0.1040  0.5908
  151MOL0     O20253   3.672   1.576   2.021 -0.4501  0.2073 -0.2777
  151MOL0     C20254   3.762   1.627   2.109 -0.0314  0.2666  0.2573
  151MOL0     C20255   3.779   1.611   2.246  0.0723  0.1223  0.4110
  151MOL0     C20256   3.882   1.657   2.319  0.2507  0.2055 -0.6725
  151MOL0     C20257   3.988   1.724   2.255  0.1217  0.1520  0.9421
  151MOL0     O20258   4.095   1.772   2.334 -0.5806 -0.3936 -1.0842
  151MOL0     C20259   4.220   1.791   2.266 -0.4708 -0.6773  0.6335
  151MOL0     C20260   4.322   1.849   2.362 -0.3113 -0.7430 -0.7941
  151MOL0     C20261   4.438   1.899   2.286  0.9501  0.3738 -0.0927
  151MOL0     C20262   4.559   1.938   2.377  0.4224  1.2766  0.3757
  151MOL0     C20263   4.683   1.955   2.308  0.5100  0.0704  0.5434
  151MOL0     C20264   4.809   1.942   2.394 -0.1813  0.3783 -0.4447
  151MOL0     C20265   4.937   1.952   2.308  0.9222 -0.1689  0.5009
  151MOL0     C20266   5.054   1.910   2.388 -0.5674  0.4964  0.2509
  151MOL0     N20267   5.170   1.919   2.301 -0.6708 -0.7746 -0.6366
  151MOL0     C20268   5.282   2.000   2.309  0.2611 -0.3862  0.4389
  151MOL0     C20269   5.367   1.969   2.216  0.7614 -1.1171  0.0933
  151MOL0     C20270   5.496   2.038   2.202 -0.7898  0.3129  0.0578
  151MOL0     C20271   5.583   2.017   2.323 -0.3747 -0.1014 -0.7625
  151MOL0     C20272   5.627   1.875   2.346 -0.2086 -0.1251  0.0662
  151MOL0     C20273   5.535   1.789   2.435 -0.2144  0.3211  0.0724
  151MOL0     O20274   5.505   1.857   2.552 -0.4695 -0.1132 -0.0008
  151MOL0     C20275   5.391   1.838   2.626 -0.1440 -0.6146 -0.2762
  151MOL0     C20276   5.283   1.755   2.586  0.0544 -0.8288  0.2503
  151MOL0     C20277   5.170   1.753   2.666  0.2464 -0.4779  0.8588
  151MOL0     C20278   5.171   1.822   2.791 -0.3702 -0.3005 -0.5501
  151MOL0     C20279   5.055   1.817   2.879 -0.0547 -0.3795 -0.1626
  151MOL0     O20280   5.057   1.884   3.001  0.6784  0.4756  0.8464
  151MOL0     C20281   4.942   1.896   3.070 -0.0529  0.0083  0.2951
  151MOL0     C20282   4.862   1.996   3.019 -0.6458 -0.6863  0.7565
  151MOL0     C20283   4.736   2.014   3.073 -0.0734 -1.1061 -0.0327
  151MOL0     C20284   4.694   1.938   3.177  1.3689  0.0882 -0.4223
  151MOL0     O20285   4.557   1.969   3.208 -0.3694  0.3161  0.0043
  151MOL0     C20286   4.498   1.901   3.319  0.7148  0.3906  0.4582
  151MOL0     C20287   4.378   1.978   3.362 -0.5916  0.5825  0.1177
  151MOL0     C20288   4.304   1.925   3.483 -0.8157 -0.9435 -0.5183
  151MOL0     C20289   4.193   2.024   3.521 -0.2639 -0.2420  0.0689
  151MOL0     C20290   4.069   1.960   3.587  0.3727 -0.1938  1.2015
  151MOL0     C20291   4.096   1.863   3.701 -0.4409  0.1517  0.6434
  151MOL0     C20292   3.973   1.771   3.735 -1.4066  0.0131 -0.5684
  151MOL0     C20293   3.856   1.844   3.783  0.9257 -0.1942  0.2966
  151MOL0    Cl20294   3.864   1.938   3.945 -0.3921 -0.1724 -0.4749
  151MOL0     C20295   4.778   1.840   3.229  0.6697 -0.5174  0.3807
  151MOL0     C20296   4.904   1.817   3.175 -0.4930 -0.7922 -0.1012
  151MOL0     O20297   4.960   1.757   2.835  0.0759 -0.1497  0.1179
  151MOL0     C20298   5.283   1.890   2.830  0.7509  0.1310 -0.9363
  151MOL0     C20299   5.388   1.904   2.746  0.0117 -1.0467 -0.7151
  151MOL0     N20300   5.311   1.863   2.145  0.1570 -0.5505 -0.0399
  151MOL0     N20301   5.191   1.841   2.197  0.2380  0.1186 -0.3490
  151MOL0     C20302   3.974   1.750   2.118  0.5392  0.5746  0.6486
  151MOL0     C20303   3.867   1.697   2.040  0.1068  0.2586 -0.0547
  151MOL0     C20304   3.472   1.437   1.942  0.0145 -0.5847  1.1516
  151MOL0     C20305   3.352   1.370   1.974  0.2159  0.6324  0.0521
  151MOL0     C20306   3.252   1.344   1.875 -0.3554  0.2757 -0.0872
  151MOL0     C20307   3.275   1.384   1.741 -0.4959 -0.3603 -0.0722
  151MOL0     O20308   3.177   1.361   1.645 -0.1471 -0.7262 -0.0720
  151MOL0     C20309   3.144   1.480   1.557 -0.6647  0.3719  0.0076
  151MOL0     C20310   3.001   1.479   1.501 -0.1293 -0.1620 -0.1134
  151MOL0     C20311   2.897   1.496   1.614 -0.0034 -0.1220 -0.2393
  151MOL0     C20312   2.747   1.483   1.578 -0.5442 -0.4363  0.7387
  151MOL0     C20313   2.710   1.522   1.437 -0.6771  0.4511 -0.6398
  151MOL0     C20314   2.681   1.564   1.326  0.9812  0.2345 -0.1616
  151MOL0     C20315   3.398   1.441   1.710 -0.4349 -0.2920 -0.5321
  151MOL0     C20316   3.496   1.475   1.810 -0.8745 -0.6040 -0.2650
  151MOL0     C20317   3.615   1.547   1.746  0.6576  0.6469 -0.0541
  151MOL0     H20318   3.706   1.553   2.301  2.0034 -1.0137  1.8729
  151MOL0     H20319   3.878   1.625   2.423 -3.4273  2.9106  0.2523
  151MOL0     H20320   4.257   1.699   2.221  2.3259  0.8484 -0.4257
  151MOL0     H20321   4.223   1.863   2.184  1.2111  0.9052  1.9949
  151MOL0     H20322   4.350   1.788   2.448  2.4825  0.7801 -0.5201
  151MOL0     H20323   4.293   1.944   2.408  1.8795 -1.4598  2.3696
  151MOL0     H20324   4.409   1.988   2.230  0.0210 -0.6756 -1.3087
  151MOL0     H20325   4.463   1.827   2.208  0.1045  1.3720 -1.3111
  151MOL0     H20326   4.531   2.031   2.426 -0.2109  0.8415  0.8463
  151MOL0     H20327   4.566   1.855   2.448  1.3894  2.2696  1.4827
  151MOL0     H20328   4.683   1.875   2.233  1.6817  0.1043  0.4871
  151MOL0     H20329   4.682   2.052   2.257  2.5326  0.0295  0.3320
  151MOL0     H20330   4.807   2.026   2.463  1.3822  1.4473 -1.6265
  151MOL0     H20331   4.809   1.845   2.445  0.0981 -0.4324 -1.9307
  151MOL0     H20332   4.943   2.054   2.268 -1.4472  0.6180  1.9064
  151MOL0     H20333   4.926   1.876   2.230  0.6843 -0.4814  0.8313
  151MOL0     H20334   5.067   1.964   2.482  0.1692  1.2502 -0.2659
  151MOL0     H20335   5.046   1.804   2.414  2.7566  0.4318  1.6197
  151MOL0     H20336   5.305   2.082   2.377  0.5879 -0.7257  0.7440
  151MOL0     H20337   5.544   1.996   2.114  0.1176 -3.1136  2.0195
  151MOL0     H20338   5.480   2.146   2.189  1.7122  0.6095 -1.0429
  151MOL0     H20339   5.681   2.064   2.306  0.4539 -0.4281  2.5507
  151MOL0     H20340   5.541   2.059   2.414  0.3403 -1.9898  0.4836
  151MOL0     H20341   5.721   1.884   2.400 -0.5523 -0.0005  0.6583
  151MOL0     H20342   5.646   1.827   2.250 -2.9305 -1.2467  0.0052
  151MOL0     H20343   5.578   1.692   2.458  0.4936  0.0706 -2.1154
  151MOL0     H20344   5.452   1.759   2.370 -0.1248 -0.6995  0.4147
  151MOL0     H20345   5.289   1.707   2.489  1.1515  3.3340 -1.9504
  151MOL0     H20346   5.087   1.685   2.646  0.3412  0.2562 -2.5815
  151MOL0     H20347   4.876   2.039   2.921 -0.0686  1.0184  1.5612
  151MOL0     H20348   4.668   2.083   3.024 -0.8224 -2.1972 -0.5637
  151MOL0     H20349   4.461   1.805   3.281  0.3286  1.0140 -0.7936
  151MOL0     H20350   4.561   1.898   3.408 -1.1189  2.1472  1.9171
  151MOL0     H20351   4.405   2.082   3.381 -1.3380  0.5105  1.8302
  151MOL0     H20352   4.308   1.990   3.279  2.2174  2.9159 -2.1459
  151MOL0     H20353   4.275   1.824   3.454  4.4911 -3.0705  0.4619
  151MOL0     H20354   4.385   1.903   3.554 -1.8962 -0.0151  1.0554
  151MOL0     H20355   4.151   2.078   3.435  0.9019  0.7303  0.0816
  151MOL0     H20356   4.237   2.097   3.589  0.0234 -2.5351  2.5177
  151MOL0     H20357   4.005   1.903   3.520 -1.1404  1.8698  0.7992
  151MOL0     H20358   4.014   2.048   3.621 -0.4318  0.6050 -1.8708
  151MOL0     H20359   4.183   1.806   3.669  0.3378  1.5588  0.1720
  151MOL0     H20360   4.116   1.926   3.788 -4.0061  0.9360  1.0789
  151MOL0     H20361   3.990   1.695   3.812 -0.8316  0.5610 -0.1454
  151MOL0     H20362   3.953   1.725   3.638  1.6343 -1.0455 -0.8123
  151MOL0     H20363   3.829   1.915   3.704  0.7771  1.8612  2.0984
  151MOL0     H20364   3.782   1.766   3.804  1.8778 -0.7370  1.8935
  151MOL0     H20365   4.747   1.768   3.304  0.1812  0.4934  1.1608
  151MOL0     H20366   4.972   1.739   3.207 -0.5368 -2.2023 -3.0564
  151MOL0     H20367   5.280   1.927   2.932  1.2305 -1.0132 -0.4870
  151MOL0     H20368   5.477   1.957   2.780 -1.4173 -0.7893  3.1065
  151MOL0     H20369   4.035   1.811   2.053 -0.0665  0.0527 -0.4442
  151MOL0     H20370   3.843   1.709   1.935 -0.2259 -2.2598 -0.3089
  151MOL0     H20371   3.331   1.336   2.075 -1.4701  2.7990  0.5007
  151MOL0     H20372   3.160   1.292   1.898 -0.6738  1.0853  0.5250
  151MOL0     H20373   3.214   1.480   1.474 -0.0276  2.8357  0.4730
  151MOL0     H20374   3.153   1.573   1.613 -1.0172  1.1108 -1.1360
  151MOL0     H20375   2.991   1.381   1.452  4.0607 -1.0714  0.4117
  151MOL0     H20376   2.995   1.555   1.422 -1.7908  0.4550  0.5703
  151MOL0     H20377   2.913   1.596   1.656 -1.1085  0.1729 -0.4768
  151MOL0     H20378   2.911   1.418   1.688  0.7402  0.6691  0.4759
  151MOL0     H20379   2.716   1.379   1.587 -1.8909 -0.0268  1.0190
  151MOL0     H20380   2.686   1.541   1.648 -3.3236 -1.1941 -0.8909
  151MOL0     H20381   2.666   1.601   1.227  0.9922  0.3350 -0.1258
  151MOL0     H20382   3.410   1.481   1.610  0.1938  2.9271  0.7139
  151MOL0     H20383   3.631   1.640   1.800  2.6472 -0.3478  1.1437
  151MOL0     H20384   3.705   1.490   1.767 -0.8436 -1.3387  1.3887
  151MOL0     H20385   3.601   1.560   1.638 -0.0624  0.4002 -0.0001
  152MOL0     O20386   6.448  10.018   4.576  0.4612 -0.6705 -0.3614
  152MOL0     C20387   6.504   9.990   4.682  0.4183 -0.5085 -0.2949
  152MOL0     O20388   6.634  10.024   4.708  0.4222  0.3097  0.4650
  152MOL0     C20389   6.727  10.016   4.606  0.8309  0.6599  0.7253
  152MOL0     C20390   6.724   9.913   4.502 -0.4581 -0.7896 -0.4452
  152MOL0     C20391   6.830   9.894   4.414 -0.2267  0.4940 -0.4559
  152MOL0     C20392   6.937   9.983   4.415  0.4838  0.1144 -0.0360
  152MOL0     O20393   7.038   9.974   4.333  0.4527 -0.1132 -0.1676
  152MOL0     C20394   7.074   9.839   4.299  0.4444 -0.4196 -0.3283
  152MOL0     C20395   7.209   9.835   4.220  0.5635 -0.5998 -0.5673
  152MOL0     C20396   7.335   9.914   4.287 -0.0334  0.2504 -0.7854
  152MOL0     C20397   7.467   9.884   4.212  0.1476 -0.0611  0.5171
  152MOL0     C20398   7.576   9.986   4.234 -0.5961 -0.4502  0.1159
  152MOL0     C20399   7.669   9.939   4.337 -0.1267  0.8159  0.0752
  152MOL0     C20400   7.798  10.032   4.335  0.1131  0.1915  0.5579
  152MOL0     C20401   7.904   9.976   4.432 -0.4877  0.5538  1.7106
  152MOL0     N20402   8.020  10.056   4.416 -0.2552 -0.6846 -0.4896
  152MOL0     C20403   8.121  10.028   4.326 -0.5147 -0.7482  0.2328
  152MOL0     C20404   8.183  10.141   4.322  0.1521 -0.5209  0.2615
  152MOL0     C20405   8.313  10.180   4.244  0.5534  0.2558 -0.1648
  152MOL0     C20406   8.305  10.224   4.103  0.1177 -0.0438  0.2951
  152MOL0     C20407   8.199  10.320   4.081 -0.8204  0.2485  0.3054
  152MOL0     C20408   8.221  10.396   3.944  0.7302  0.7516  0.3811
  152MOL0     O20409   8.286  10.522   3.967 -0.3098 -0.3059 -0.4377
  152MOL0     C20410   8.356  10.575   3.856  0.2113 -0.2713  0.0948
  152MOL0     C20411   8.334  10.542   3.721  0.4472  0.4093 -0.0675
  152MOL0     C20412   8.407  10.590   3.620  0.0084  0.5544 -0.1732
  152MOL0     C20413   8.519  10.673   3.641  1.2699 -0.5130 -0.1167
  152MOL0     C20414   8.596  10.727   3.527  0.3769 -1.2570 -0.1376
  152MOL0     O20415   8.571  10.680   3.401 -0.1016  0.0661 -0.5915
  152MOL0     C20416   8.661  10.709   3.302 -0.8074 -0.2615 -0.4583
  152MOL0     C20417   8.613  10.753   3.182  0.3654  0.4546  0.4653
  152MOL0     C20418   8.697  10.763   3.067  0.4170 -0.0989  1.4227
  152MOL0     C20419   8.835  10.740   3.074 -0.8310  0.0113  0.6079
  152MOL0     O20420   8.930  10.736   2.975 -1.3042  0.6285  0.2950
  152MOL0     C20421   8.887  10.770   2.841  0.5007 -0.6447 -0.1112
  152MOL0     C20422   8.984  10.738   2.731 -0.1674  0.2261  0.0330
  152MOL0     C20423   9.037  10.591   2.731  0.0672  0.6803  0.0422
  152MOL0     C20424   9.149  10.569   2.635 -0.0178 -0.0693  0.5309
  152MOL0     C20425   9.239  10.453   2.681 -0.3788  0.6122 -0.2503
  152MOL0     C20426   9.318  10.395   2.569 -0.7633 -0.1023 -0.1325
  152MOL0     C20427   9.444  10.328   2.628 -0.3086 -0.5186 -0.0170
  152MOL0     C20428   9.535  10.276   2.524 -0.4226 -0.8919 -0.3977
  152MOL0    Cl20429   9.492  10.111   2.476  0.4441  0.0432  0.0573
  152MOL0     C20430   8.880  10.696   3.199  0.9723  1.0872 -0.2109
  152MOL0     C20431   8.796  10.679   3.308 -0.5376 -0.4409  0.0587
  152MOL0     O20432   8.679  10.815   3.561  0.6550 -0.3167  0.9946
  152MOL0     C20433   8.534  10.720   3.773  0.8033 -1.0643  0.1748
  152MOL0     C20434   8.461  10.668   3.879 -0.8998  0.2824  0.2540
  152MOL0     N20435   8.133  10.232   4.414  0.2959  0.0503  0.6762
  152MOL0     N20436   8.035  10.180   4.470 -0.0809  0.6279 -0.4548
  152MOL0     C20437   6.936  10.088   4.510 -0.4121  0.3330  0.2315
  152MOL0     C20438   6.834  10.103   4.601 -0.5417 -0.4951 -0.3069
  152MOL0     C20439   6.428   9.918   4.786  0.0576  0.2819 -0.2107
  152MOL0     C20440   6.287   9.911   4.782  0.7735 -0.1899  0.8057
  152MOL0     C20441   6.208   9.835   4.871 -0.2880  1.3153 -0.1761
  152MOL0     C20442   6.269   9.775   4.979 -0.4427  0.5980  0.0301
  152MOL0     O20443   6.201   9.701   5.076 -0.6826 -0.0657  0.2793
  152MOL0     C20444   6.154   9.576   5.024 -0.1635  0.7004 -0.3616
  152MOL0     C20445   6.038   9.524   5.111 -0.5460  0.5102 -0.1445
  152MOL0     C20446   5.914   9.598   5.083 -0.9217  0.0882  0.7217
  152MOL0     C20447   5.799   9.567   5.182 -0.3798 -0.1414  0.6566
  152MOL0     C20448   5.719   9.457   5.129  0.0619  0.3949 -0.7796
  152MOL0     C20449   5.661   9.356   5.082 -0.3299 -0.2153 -0.3371
  152MOL0     C20450   6.403   9.786   4.987 -0.6461 -0.1185 -0.0441
  152MOL0     C20451   6.489   9.842   4.893  0.1253  0.1202 -0.3316
  152MOL0     C20452   6.638   9.833   4.919 -0.3910  0.7412  0.2236
  152MOL0     H20453   6.651   9.833   4.504 -0.3331 -0.9442 -1.3199
  152MOL0     H20454   6.813   9.816   4.341 -0.2263 -0.6418  0.7308
  152MOL0     H20455   7.088   9.783   4.392  0.0774  0.6105  0.3644
  152MOL0     H20456   6.999   9.781   4.245  0.1376 -0.0436 -0.3087
  152MOL0     H20457   7.206   9.873   4.118 -0.1186  1.7260  0.2569
  152MOL0     H20458   7.222   9.727   4.208  0.0078 -0.6528 -0.7116
  152MOL0     H20459   7.345   9.879   4.390  3.0926  3.1552  0.0870
  152MOL0     H20460   7.315  10.021   4.298  1.0041  0.3068  1.0253
  152MOL0     H20461   7.497   9.780   4.227  0.0874 -0.2463 -0.5867
  152MOL0     H20462   7.436   9.898   4.108 -0.5625  2.0785  0.9638
  152MOL0     H20463   7.637  10.010   4.146  0.2112 -2.2266  0.1537
  152MOL0     H20464   7.524  10.079   4.258  0.1185 -0.1913  0.7235
  152MOL0     H20465   7.618   9.931   4.434  1.8680 -3.8165  1.0138
  152MOL0     H20466   7.701   9.836   4.318 -0.5995  0.1103  2.6335
  152MOL0     H20467   7.773  10.136   4.360  2.9209  0.4578  2.8749
  152MOL0     H20468   7.842  10.035   4.235  1.5266  0.0886  1.1442
  152MOL0     H20469   7.865   9.972   4.534 -4.0876 -0.6643  0.4627
  152MOL0     H20470   7.914   9.870   4.405 -1.9680  1.0042 -1.0217
  152MOL0     H20471   8.138   9.940   4.265  1.9134  0.0283 -0.3431
  152MOL0     H20472   8.367  10.251   4.307  2.1039  0.3220 -1.5305
  152MOL0     H20473   8.382  10.095   4.249  3.2950  2.2218 -2.0979
  152MOL0     H20474   8.388  10.287   4.071 -0.2026 -1.1256 -3.0515
  152MOL0     H20475   8.295  10.135   4.039 -0.2500  0.9771 -1.1106
  152MOL0     H20476   8.188  10.385   4.169 -0.0865  0.8335 -0.0211
  152MOL0     H20477   8.109  10.258   4.080  0.1929 -1.4289  2.6817
  152MOL0     H20478   8.124  10.421   3.899  0.3380 -0.5281  0.4716
  152MOL0     H20479   8.275  10.339   3.868  1.8228 -0.0934  1.7358
  152MOL0     H20480   8.249  10.481   3.694  0.9935  1.0311 -3.8885
  152MOL0     H20481   8.389  10.569   3.515 -0.8378 -3.5154  0.6114
  152MOL0     H20482   8.506  10.769   3.185  0.0955 -0.6000 -1.5876
  152MOL0     H20483   8.651  10.788   2.972 -0.7613 -2.5722  1.2772
  152MOL0     H20484   8.794  10.716   2.820  1.5585 -1.8459 -2.0504
  152MOL0     H20485   8.872  10.878   2.834 -1.0874 -0.8788 -0.5517
  152MOL0     H20486   8.928  10.750   2.637 -1.8578 -0.6215  0.8763
  152MOL0     H20487   9.068  10.807   2.731  0.4422 -0.3523  3.0993
  152MOL0     H20488   9.066  10.559   2.831  1.0838  2.3268  0.3186
  152MOL0     H20489   8.952  10.527   2.706  0.8407 -0.9149  1.3123
  152MOL0     H20490   9.206  10.660   2.611  2.0642 -1.5768 -0.5958
  152MOL0     H20491   9.111  10.538   2.537  0.3592 -0.4045  0.4899
  152MOL0     H20492   9.172  10.379   2.725  1.3792 -0.8743  0.0672
  152MOL0     H20493   9.312  10.480   2.758 -1.0068  0.1803  0.5063
  152MOL0     H20494   9.262  10.324   2.508  3.1597 -0.7079 -3.4843
  152MOL0     H20495   9.346  10.473   2.497 -0.3745 -0.8379 -0.7905
  152MOL0     H20496   9.411  10.251   2.697  0.9933 -2.1140 -1.0991
  152MOL0     H20497   9.497  10.404   2.687 -2.5174  1.5550 -0.5367
  152MOL0     H20498   9.543  10.330   2.429  0.0184  0.8148  0.5757
  152MOL0     H20499   9.634  10.274   2.570 -1.5395 -0.1488  2.2023
  152MOL0     H20500   8.984  10.665   3.208  0.8072  0.5317 -0.1822
  152MOL0     H20501   8.846  10.647   3.398  0.5566 -0.1414 -0.4177
  152MOL0     H20502   8.601  10.802   3.799 -1.6006  1.2253 -0.3450
  152MOL0     H20503   8.472  10.683   3.986 -0.9298 -1.8155  0.5883
  152MOL0     H20504   7.021  10.156   4.507 -0.0341 -0.1380 -2.7426
  152MOL0     H20505   6.844  10.180   4.677 -1.7524  1.7962 -2.3359
  152MOL0     H20506   6.233   9.953   4.698  1.2329  0.9360  1.0478
  152MOL0     H20507   6.101   9.829   4.859 -0.5990  3.4217  1.0288
  152MOL0     H20508   6.236   9.507   5.047 -2.0131 -1.0496  1.3090
  152MOL0     H20509   6.154   9.571   4.914  0.6326 -1.3196 -0.3209
  152MOL0     H20510   6.068   9.552   5.213 -1.2931 -1.2912  0.6119
  152MOL0     H20511   6.018   9.417   5.112  1.0000  0.2080  0.2383
  152MOL0     H20512   5.884   9.581   4.979 -2.1451  0.2184  1.0390
  152MOL0     H20513   5.933   9.706   5.087 -2.2092  0.4279 -1.0348
  152MOL0     H20514   5.835   9.538   5.282 -0.6444  0.2847  0.8794
  152MOL0     H20515   5.743   9.661   5.183  1.0812  0.7622  0.9059
  152MOL0     H20516   5.622   9.258   5.059 -1.9170  0.2428  0.2957
  152MOL0     H20517   6.436   9.730   5.073  0.1959  1.0543  0.4142
  152MOL0     H20518   6.665   9.761   4.997 -1.1104 -1.3179 -1.3197
  152MOL0     H20519   6.697   9.806   4.830  0.2585  1.4781  0.4241
  152MOL0     H20520   6.676   9.929   4.954  2.5412 -0.5056  0.7818
  153MOL0     O20521   3.994  10.216  10.946  0.4545  0.4507 -0.1133
  153MOL0     C20522   4.097  10.275  10.982 -0.1002  0.4037 -0.1391
  153MOL0     O20523   4.129  10.407  10.966  0.2023  0.6479  0.4506
  153MOL0     C20524   4.049  10.505  10.902  0.0995  0.2549  0.5225
  153MOL0     C20525   4.096  10.634  10.912 -0.6150 -0.6630  0.0878
  153MOL0     C20526   4.026  10.735  10.839 -0.9312  0.9950 -0.0885
  153MOL0     C20527   3.908  10.707  10.771  0.0977 -0.2115  0.0306
  153MOL0     O20528   3.822  10.801  10.707  0.1360 -0.2419 -0.1504
  153MOL0     C20529   3.853  10.949  10.721  1.1398 -0.1103  0.1977
  153MOL0     C20530   3.810  10.996  10.862  0.6003  0.2908 -0.8543
  153MOL0     C20531   3.834  11.140  10.884 -0.5088 -0.5464  0.1567
  153MOL0     C20532   3.757  11.233  10.791 -0.5845  0.1576 -0.1391
  153MOL0     C20533   3.744  11.377  10.853 -0.2678 -0.0471  0.2298
  153MOL0     C20534   3.623  11.389  10.946 -0.7965  0.5937 -0.6000
  153MOL0     C20535   3.609  11.514  11.035  0.6759 -0.2476  0.2674
  153MOL0     C20536   3.542  11.629  10.947 -0.7281  0.2684  0.1310
  153MOL0     N20537   3.506  11.745  11.025 -0.3295  0.0926 -0.2965
  153MOL0     C20538   3.549  11.878  11.011  0.4868  0.2583  0.1051
  153MOL0     C20539   3.473  11.944  11.103 -0.1099 -1.2720 -0.2843
  153MOL0     C20540   3.476  12.094  11.135  0.6778 -0.5389  0.1240
  153MOL0     C20541   3.418  12.182  11.021  0.0263 -0.3742  1.5420
  153MOL0     C20542   3.436  12.333  11.043 -0.3945  0.7734  0.6010
  153MOL0     C20543   3.574  12.378  10.994  0.1878  0.0947 -0.5421
  153MOL0     O20544   3.689  12.315  11.046 -0.2644  0.0547 -0.4096
  153MOL0     C20545   3.814  12.356  11.008  0.1100  0.4125  0.7314
  153MOL0     C20546   3.835  12.469  10.930 -0.4728 -0.5019 -0.9040
  153MOL0     C20547   3.972  12.487  10.894 -1.1705 -0.3280 -0.0905
  153MOL0     C20548   4.081  12.409  10.954 -0.9219  0.8979 -0.0817
  153MOL0     C20549   4.217  12.446  10.919 -1.2085  0.4094  0.7551
  153MOL0     O20550   4.249  12.580  10.894 -0.1990  0.1539 -0.1853
  153MOL0     C20551   4.366  12.644  10.892  0.9247  0.7535 -1.0365
  153MOL0     C20552   4.484  12.617  10.824  0.0346  0.9846  0.2020
  153MOL0     C20553   4.595  12.698  10.838 -1.1601  0.2690  0.0426
  153MOL0     C20554   4.584  12.816  10.900  0.2854 -0.8431  0.1038
  153MOL0     O20555   4.701  12.890  10.895 -0.1386  0.3400 -0.8820
  153MOL0     C20556   4.666  13.033  10.872  0.4523  0.3047  0.3706
  153MOL0     C20557   4.792  13.096  10.802  0.0048 -0.1741 -0.5681
  153MOL0     C20558   4.842  13.004  10.684 -0.2519 -0.1253 -0.1167
  153MOL0     C20559   4.975  13.039  10.630  0.5708  0.5935  0.5297
  153MOL0     C20560   5.030  12.922  10.554 -0.2308  0.2740  0.2158
  153MOL0     C20561   5.172  12.951  10.498 -0.1123 -0.1122 -0.5450
  153MOL0     C20562   5.247  12.834  10.426  0.4244 -0.7501 -0.3937
  153MOL0     C20563   5.396  12.882  10.400 -0.7690 -0.2450  0.9353
  153MOL0    Cl20564   5.498  12.857  10.542 -0.4569 -0.2148  0.2801
  153MOL0     C20565   4.468  12.850  10.967 -0.3833 -0.7663 -0.7057
  153MOL0     C20566   4.359  12.766  10.960  0.8893  0.1531  0.7426
  153MOL0     O20567   4.307  12.357  10.928  0.0652  0.1631  0.1422
  153MOL0     C20568   4.049  12.307  11.053 -0.3733 -0.4914  0.4544
  153MOL0     C20569   3.919  12.271  11.067  0.9954 -0.4811 -0.4874
  153MOL0     N20570   3.385  11.859  11.169 -0.2828  0.0089  0.1296
  153MOL0     N20571   3.409  11.737  11.115  0.4010 -0.4025 -0.3370
  153MOL0     C20572   3.861  10.571  10.763 -0.1379 -0.1447 -0.4576
  153MOL0     C20573   3.937  10.472  10.828 -0.1675  0.4222 -0.0780
  153MOL0     C20574   4.195  10.204  11.069 -0.2049 -1.1241 -0.0406
  153MOL0     C20575   4.321  10.264  11.083 -0.0529  0.1968 -0.3340
  153MOL0     C20576   4.429  10.206  11.149 -0.4267  0.8705 -0.0934
  153MOL0     C20577   4.398  10.102  11.233  0.1488 -0.7745  0.0293
  153MOL0     O20578   4.508  10.055  11.304 -0.6584 -0.2251  0.2612
  153MOL0     C20579   4.510   9.911  11.323  0.1368 -0.5798 -0.2986
  153MOL0     C20580   4.649   9.860  11.347 -1.0108 -0.1731 -0.3593
  153MOL0     C20581   4.744   9.902  11.227 -0.0897  0.4909  0.7107
  153MOL0     C20582   4.705   9.834  11.095  0.2879  0.2107  0.4446
  153MOL0     C20583   4.722   9.692  11.110  0.5335 -0.5102 -0.8633
  153MOL0     C20584   4.709   9.573  11.134 -0.0217  0.3752 -0.7093
  153MOL0     C20585   4.272  10.040  11.226  0.3606  0.5646 -0.7358
  153MOL0     C20586   4.169  10.084  11.139  1.0552  0.9358  0.0530
  153MOL0     C20587   4.027  10.022  11.148 -0.0453  0.1360  0.3066
  153MOL0     H20588   4.177  10.647  10.982  1.0711  1.2156 -2.0489
  153MOL0     H20589   4.066  10.836  10.849 -0.3690  0.7006  0.8203
  153MOL0     H20590   3.960  10.969  10.713  1.4732 -2.2720 -1.2832
  153MOL0     H20591   3.795  11.000  10.643  1.2838 -1.6563 -0.9611
  153MOL0     H20592   3.853  10.930  10.938 -1.3292 -1.9954 -1.6214
  153MOL0     H20593   3.706  10.965  10.878  1.5626 -2.8887  0.0153
  153MOL0     H20594   3.939  11.170  10.880 -0.8464  1.5490  3.1934
  153MOL0     H20595   3.798  11.162  10.985 -2.7121 -1.4958 -0.3764
  153MOL0     H20596   3.802  11.237  10.692  2.7825 -1.4346  1.1761
  153MOL0     H20597   3.657  11.192  10.772 -0.1757  0.3788 -3.1843
  153MOL0     H20598   3.821  11.422  10.917 -0.5040 -0.3275  0.7179
  153MOL0     H20599   3.733  11.450  10.772 -1.0338  0.1369  0.4925
  153MOL0     H20600   3.537  11.383  10.878 -0.6834 -1.7941 -0.6400
  153MOL0     H20601   3.639  11.296  11.002  2.0134  1.2635 -0.1589
  153MOL0     H20602   3.706  11.547  11.074  0.0270  1.9087  0.1721
  153MOL0     H20603   3.538  11.503  11.118 -2.3354  2.0746 -1.8069
  153MOL0     H20604   3.615  11.672  10.877  1.3726  0.4284  2.3101
  153MOL0     H20605   3.460  11.584  10.891  0.1949  0.4768 -1.4689
  153MOL0     H20606   3.621  11.910  10.937  0.3711  0.5873  0.1322
  153MOL0     H20607   3.416  12.123  11.221  0.4807  3.9929 -1.2685
  153MOL0     H20608   3.578  12.128  11.154  0.0956  0.9277  0.7939
  153MOL0     H20609   3.467  12.152  10.928  1.9919 -0.7720  2.6481
  153MOL0     H20610   3.309  12.179  11.016 -0.3335  5.0942 -1.1068
  153MOL0     H20611   3.420  12.350  11.150 -0.5564  0.0489  0.6967
  153MOL0     H20612   3.364  12.391  10.984  0.5210  0.4585 -0.8702
  153MOL0     H20613   3.578  12.487  11.004 -1.4180  0.3738 -2.3393
  153MOL0     H20614   3.586  12.365  10.886 -2.0354  3.8316 -1.4002
  153MOL0     H20615   3.755  12.532  10.892 -0.0320 -0.7716 -2.3487
  153MOL0     H20616   4.006  12.560  10.821 -1.2827  1.0171  1.1518
  153MOL0     H20617   4.478  12.529  10.760 -1.4082 -0.0729  1.7036
  153MOL0     H20618   4.685  12.684  10.778 -2.3317 -0.6466 -1.5815
  153MOL0     H20619   4.574  13.043  10.813  0.3548 -0.3532  0.3990
  153MOL0     H20620   4.652  13.093  10.963 -1.9265  3.3871 -1.8079
  153MOL0     H20621   4.761  13.198  10.776 -2.2749 -0.6835 -0.0418
  153MOL0     H20622   4.875  13.114  10.871  0.3019 -0.1026 -0.9410
  153MOL0     H20623   4.852  12.907  10.733 -4.2530 -0.5938  0.0768
  153MOL0     H20624   4.770  12.996  10.602  0.2773  1.6500 -0.8234
  153MOL0     H20625   5.046  13.058  10.711  3.6077  3.4846 -2.5009
  153MOL0     H20626   4.977  13.131  10.572  0.6110  0.8163  0.8803
  153MOL0     H20627   4.967  12.902  10.466  1.1676 -2.2807 -0.2959
  153MOL0     H20628   5.036  12.831  10.613 -0.6465  0.3308  0.3507
  153MOL0     H20629   5.176  13.032  10.424  1.4295 -0.9298 -1.3924
  153MOL0     H20630   5.225  12.985  10.588 -0.2948 -3.6762  1.0453
  153MOL0     H20631   5.190  12.815  10.334 -0.6294  0.8070 -0.1004
  153MOL0     H20632   5.250  12.741  10.484 -5.6835 -0.9353  0.2345
  153MOL0     H20633   5.440  12.832  10.313 -1.6953  0.3754  0.0833
  153MOL0     H20634   5.388  12.989  10.380  0.7789 -0.2011  0.4211
  153MOL0     H20635   4.463  12.946  11.018  1.0406 -0.7333 -0.5855
  153MOL0     H20636   4.260  12.798  10.990  0.4419  1.2510 -1.6673
  153MOL0     H20637   4.126  12.263  11.115 -1.7562 -0.1705  2.4921
  153MOL0     H20638   3.873  12.192  11.126 -2.1695  2.1574  0.8782
  153MOL0     H20639   3.769  10.556  10.709  0.4268 -1.0272 -1.2085
  153MOL0     H20640   3.905  10.370  10.813 -0.8298  0.1276  2.7610
  153MOL0     H20641   4.343  10.358  11.033 -1.1744  0.3856 -0.5107
  153MOL0     H20642   4.532  10.240  11.140  0.6297 -1.8377  0.8689
  153MOL0     H20643   4.471   9.872  11.229  1.2798  1.1100 -1.5099
  153MOL0     H20644   4.465   9.875  11.416  2.7036 -0.6214  1.0089
  153MOL0     H20645   4.647   9.754  11.376 -1.6045 -0.6174 -1.9113
  153MOL0     H20646   4.682   9.919  11.433  0.7305  0.1144 -1.1936
  153MOL0     H20647   4.849   9.881  11.253  0.1744  0.8820 -0.0236
  153MOL0     H20648   4.739  10.011  11.224 -1.0094  0.6413  3.8324
  153MOL0     H20649   4.607   9.863  11.055  1.0394 -0.5303 -2.0870
  153MOL0     H20650   4.768   9.871  11.014  0.3610 -2.2626 -0.7117
  153MOL0     H20651   4.703   9.468  11.155  2.6539  0.1009 -0.9449
  153MOL0     H20652   4.270   9.953  11.291 -0.3831  1.7769  0.9389
  153MOL0     H20653   3.991   9.980  11.054 -1.6459 -0.2215  1.0462
  153MOL0     H20654   4.024   9.945  11.225 -1.6983 -0.0469  0.0768
  153MOL0     H20655   3.959  10.102  11.178 -1.1401 -0.4983 -0.4117
  154MOL0     O20656   9.404   5.201   7.038  0.4988  0.1737  0.3230
  154MOL0     C20657   9.375   5.179   6.921 -0.0602  0.0109 -0.4535
  154MOL0     O20658   9.455   5.135   6.820 -0.1136  0.7008  0.0545
  154MOL0     C20659   9.578   5.099   6.868 -0.2505 -0.0637 -0.3107
  154MOL0     C20660   9.599   4.965   6.901  1.5106 -1.1180  0.1925
  154MOL0     C20661   9.725   4.919   6.931 -0.0837 -0.5097 -0.4671
  154MOL0     C20662   9.837   4.998   6.949 -0.2694 -0.3566 -0.3969
  154MOL0     O20663   9.955   4.940   6.976 -0.3505  0.1004  1.0656
  154MOL0     C20664  10.033   4.872   6.874  0.3942  0.9716  0.5864
  154MOL0     C20665  10.182   4.860   6.909  1.4528  0.5560  0.1095
  154MOL0     C20666  10.268   4.799   6.794  0.0830 -0.0877  0.9566
  154MOL0     C20667  10.408   4.767   6.835  0.4017 -0.8274 -0.3086
  154MOL0     C20668  10.498   4.701   6.731  0.7187 -0.5371  0.2855
  154MOL0     C20669  10.634   4.663   6.797  0.1475 -0.3540  0.3857
  154MOL0     C20670  10.728   4.600   6.700 -0.0889 -0.7378 -0.1659
  154MOL0     C20671  10.851   4.552   6.769 -0.7682  0.0909 -1.1165
  154MOL0     N20672  10.939   4.501   6.663 -0.1154  0.8120  0.0405
  154MOL0     C20673  11.072   4.519   6.668 -1.0633  0.6108  0.7091
  154MOL0     C20674  11.137   4.424   6.595  0.3879 -0.9851 -0.0378
  154MOL0     C20675  11.282   4.400   6.563 -0.7664  0.0740 -0.0667
  154MOL0     C20676  11.360   4.525   6.543 -0.3841 -0.7112 -0.2267
  154MOL0     C20677  11.512   4.498   6.541 -0.3971 -0.3575 -0.5749
  154MOL0     C20678  11.576   4.628   6.518 -0.7143 -0.2850 -0.2735
  154MOL0     O20679  11.719   4.612   6.505  0.1300 -0.4511  0.3833
  154MOL0     C20680  11.807   4.689   6.571  0.9834  0.5988 -0.6802
  154MOL0     C20681  11.779   4.746   6.698  0.4350 -0.5075 -0.4176
  154MOL0     C20682  11.877   4.819   6.767 -0.6833 -0.0399 -0.3721
  154MOL0     C20683  12.003   4.831   6.713  0.3937 -0.7477 -0.1328
  154MOL0     C20684  12.105   4.900   6.803  0.6942 -0.7290  0.3487
  154MOL0     O20685  12.230   4.877   6.762  0.0946  1.0731  0.3812
  154MOL0     C20686  12.326   4.956   6.820  0.5265 -0.9535  0.1837
  154MOL0     C20687  12.380   4.920   6.936 -0.6636  0.1006 -0.8602
  154MOL0     C20688  12.491   4.990   6.994  0.1612  0.4277  0.8241
  154MOL0     C20689  12.546   5.103   6.931  0.0768 -0.1777 -0.4207
  154MOL0     O20690  12.656   5.156   7.009  0.2647 -0.4302 -0.5920
  154MOL0     C20691  12.779   5.209   6.950 -0.1465 -0.0024 -1.1435
  154MOL0     C20692  12.897   5.150   7.024 -0.6072 -0.4722  0.5931
  154MOL0     C20693  13.031   5.193   6.959 -0.0335 -0.9257  0.2421
  154MOL0     C20694  13.155   5.118   6.996  0.2896  0.4249  1.4244
  154MOL0     C20695  13.173   5.098   7.145 -0.6186 -0.3768  0.6881
  154MOL0     C20696  13.294   5.013   7.173  0.1874 -0.8744 -0.1191
  154MOL0     C20697  13.430   5.071   7.147 -0.0744 -0.2615 -0.3358
  154MOL0     C20698  13.520   4.962   7.139 -0.9035  0.8577  0.2594
  154MOL0    Cl20699  13.685   5.032   7.132  0.7578  0.0480 -0.2479
  154MOL0     C20700  12.489   5.153   6.811 -0.8498  0.3160 -0.5680
  154MOL0     C20701  12.381   5.072   6.756  0.2440 -0.1872  0.0357
  154MOL0     O20702  12.060   4.969   6.899 -0.1430  0.4165  0.2654
  154MOL0     C20703  12.031   4.771   6.586  0.1502  0.2177  0.5180
  154MOL0     C20704  11.936   4.703   6.519  0.3060 -0.6851  0.1620
  154MOL0     N20705  11.039   4.339   6.567 -0.0273  0.4243 -0.2474
  154MOL0     N20706  10.927   4.370   6.614  0.2100 -0.2472  0.3928
  154MOL0     C20707   9.814   5.135   6.938 -0.3480  0.7437  0.0038
  154MOL0     C20708   9.688   5.181   6.900 -0.2903 -0.8158  0.3293
  154MOL0     C20709   9.231   5.224   6.886 -0.4585 -0.7591 -0.1717
  154MOL0     C20710   9.191   5.187   6.753 -0.4531 -0.7216 -0.4923
  154MOL0     C20711   9.061   5.215   6.711 -0.0934 -0.7227 -0.1489
  154MOL0     C20712   8.967   5.270   6.799  0.1061 -0.4753 -0.6466
  154MOL0     O20713   8.846   5.300   6.746 -0.0554  0.6982 -0.2908
  154MOL0     C20714   8.755   5.196   6.766  0.4457 -0.6177 -0.4796
  154MOL0     C20715   8.620   5.272   6.760 -0.1635  0.0895  0.1903
  154MOL0     C20716   8.601   5.360   6.880 -0.3729  0.4046  0.4871
  154MOL0     C20717   8.456   5.397   6.909 -0.3615  0.1920 -0.6912
  154MOL0     C20718   8.459   5.456   7.045 -0.0909  0.8029 -0.2268
  154MOL0     C20719   8.473   5.530   7.139  0.1072 -0.9862 -0.0403
  154MOL0     C20720   9.003   5.305   6.929 -0.0898  1.0586 -0.1930
  154MOL0     C20721   9.136   5.281   6.973 -0.3959 -0.4650 -0.7533
  154MOL0     C20722   9.173   5.311   7.121  0.5179  0.3214  0.2359
  154MOL0     H20723   9.515   4.896   6.896  0.2781  0.3631 -0.3637
  154MOL0     H20724   9.746   4.813   6.923  0.5863 -0.2565 -2.3076
  154MOL0     H20725   9.999   4.768   6.869 -2.0329  1.5053  3.1976
  154MOL0     H20726  10.025   4.913   6.773  1.9955 -2.6709 -1.2252
  154MOL0     H20727  10.203   4.806   7.002  3.9350  1.0522 -0.1021
  154MOL0     H20728  10.217   4.961   6.934  0.4136  0.5759  1.5932
  154MOL0     H20729  10.276   4.849   6.697  2.7415 -1.0671  0.5888
  154MOL0     H20730  10.218   4.705   6.768  0.9920 -1.3055  3.3142
  154MOL0     H20731  10.440   4.864   6.875 -0.5861 -0.3799 -0.5691
  154MOL0     H20732  10.408   4.698   6.920  2.6196  0.2405  0.6576
  154MOL0     H20733  10.444   4.616   6.690 -1.6184  0.6849  0.6068
  154MOL0     H20734  10.514   4.773   6.651 -1.2306  1.1819  1.3401
  154MOL0     H20735  10.680   4.747   6.850  0.9009 -1.7272  1.9807
  154MOL0     H20736  10.614   4.587   6.872  0.5815 -1.2621 -0.3928
  154MOL0     H20737  10.760   4.680   6.633 -1.7950 -0.3273 -0.5445
  154MOL0     H20738  10.676   4.522   6.645 -1.2024 -0.1992  0.0956
  154MOL0     H20739  10.902   4.629   6.828  0.0942 -1.4240  0.2044
  154MOL0     H20740  10.828   4.473   6.841  0.5128  0.4108 -0.3279
  154MOL0     H20741  11.125   4.597   6.721  0.8809 -0.0902 -0.0870
  154MOL0     H20742  11.327   4.353   6.651  2.3884 -0.0837 -1.6355
  154MOL0     H20743  11.290   4.330   6.479 -1.9848  0.6511 -0.6913
  154MOL0     H20744  11.324   4.572   6.451  1.1122 -0.3050 -0.6295
  154MOL0     H20745  11.342   4.589   6.630 -1.7785 -0.1376 -0.8942
  154MOL0     H20746  11.539   4.431   6.458  0.0871  1.0361 -1.5669
  154MOL0     H20747  11.543   4.476   6.644  0.2005 -0.3159 -0.7422
  154MOL0     H20748  11.544   4.699   6.595  3.0810  0.6999  0.6202
  154MOL0     H20749  11.542   4.663   6.420  1.8526  1.7464 -0.5381
  154MOL0     H20750  11.685   4.728   6.749  0.6256 -2.3358 -0.6187
  154MOL0     H20751  11.850   4.859   6.864  1.6255  0.7698 -0.0213
  154MOL0     H20752  12.341   4.833   6.988  2.5970 -0.0808  1.6060
  154MOL0     H20753  12.535   4.941   7.081  0.5852  1.0675  0.9789
  154MOL0     H20754  12.780   5.173   6.847 -2.2767 -2.9878 -0.2361
  154MOL0     H20755  12.800   5.315   6.970  2.5677 -0.7833  0.6496
  154MOL0     H20756  12.890   5.186   7.127  0.0783  0.4389  0.3241
  154MOL0     H20757  12.886   5.041   7.012 -1.6956 -0.2301 -0.9127
  154MOL0     H20758  13.017   5.189   6.850  0.0937 -0.6484  0.2139
  154MOL0     H20759  13.046   5.299   6.984  0.3825 -0.4440 -1.8360
  154MOL0     H20760  13.239   5.169   6.947  0.1107 -1.3205 -0.8967
  154MOL0     H20761  13.150   5.016   6.957 -2.0564  0.0932  2.4519
  154MOL0     H20762  13.081   5.052   7.181  0.4422 -2.5926  0.7509
  154MOL0     H20763  13.185   5.198   7.189 -1.2097  0.4259 -0.9009
  154MOL0     H20764  13.301   4.989   7.279  1.7875 -0.2724 -0.0639
  154MOL0     H20765  13.282   4.922   7.112  2.3566  0.0620 -2.1069
  154MOL0     H20766  13.458   5.138   7.228 -2.6085 -0.2915  0.6497
  154MOL0     H20767  13.431   5.128   7.053  2.5173 -2.7718 -2.0206
  154MOL0     H20768  13.517   4.899   7.228  0.9073  3.6883  2.4820
  154MOL0     H20769  13.506   4.900   7.049  1.9183 -1.7702  1.4666
  154MOL0     H20770  12.527   5.251   6.784 -1.7692  0.9911  0.4980
  154MOL0     H20771  12.342   5.112   6.662 -3.3944 -1.4761  0.8443
  154MOL0     H20772  12.125   4.778   6.532 -1.5637 -0.6976 -2.8353
  154MOL0     H20773  11.956   4.662   6.421 -0.5205  0.5351 -0.5536
  154MOL0     H20774   9.910   5.183   6.955 -0.7535  1.5986 -0.0730
  154MOL0     H20775   9.671   5.288   6.906  3.3731  0.0155 -1.3565
  154MOL0     H20776   9.263   5.152   6.680  0.0207  2.6684 -1.8323
  154MOL0     H20777   9.035   5.204   6.606  1.6346 -3.6993 -0.4011
  154MOL0     H20778   8.769   5.139   6.858 -1.9804  1.4850  1.3183
  154MOL0     H20779   8.765   5.118   6.690 -2.4027 -1.8420  0.2935
  154MOL0     H20780   8.546   5.193   6.753 -1.3481  1.0604  1.1948
  154MOL0     H20781   8.619   5.343   6.677  0.3695 -0.8721 -0.6511
  154MOL0     H20782   8.652   5.454   6.856 -0.9054  0.3499 -0.9532
  154MOL0     H20783   8.638   5.302   6.965 -2.5275  0.1475  1.3233
  154MOL0     H20784   8.420   5.477   6.845 -2.1007 -1.4205 -1.8197
  154MOL0     H20785   8.386   5.314   6.899  0.7261 -0.6749 -1.3845
  154MOL0     H20786   8.486   5.601   7.218 -0.1297 -1.6600  0.6219
  154MOL0     H20787   8.928   5.360   6.985  0.3971  2.3035 -0.7210
  154MOL0     H20788   9.255   5.382   7.134  1.9324 -1.2600  0.3394
  154MOL0     H20789   9.085   5.356   7.167  1.5194  1.0472  1.5223
  154MOL0     H20790   9.194   5.219   7.176 -1.7797 -0.5903 -0.3281
  155MOL0     O20791   1.326   3.886   0.355 -0.7987 -0.1289  0.2329
  155MOL0     C20792   1.222   3.827   0.381  0.2808 -0.3264 -0.4084
  155MOL0     O20793   1.188   3.772   0.491 -1.1459 -0.1890 -0.6488
  155MOL0     C20794   1.277   3.790   0.601 -0.1380 -0.0949  0.0849
  155MOL0     C20795   1.255   3.892   0.695 -0.0393 -0.4821 -0.6752
  155MOL0     C20796   1.335   3.918   0.806 -0.4322 -0.1698  0.3894
  155MOL0     C20797   1.451   3.831   0.817  0.0858 -0.6971 -0.8752
  155MOL0     O20798   1.524   3.830   0.931 -0.7182 -0.0802  0.0506
  155MOL0     C20799   1.576   3.961   0.977  1.0360  1.0782  0.8489
  155MOL0     C20800   1.728   3.951   0.979 -0.0434 -0.4459 -0.8163
  155MOL0     C20801   1.784   4.039   1.092  0.3360  0.7023  0.8496
  155MOL0     C20802   1.935   4.021   1.084  0.0942 -0.1650  1.1174
  155MOL0     C20803   2.012   4.088   1.203 -0.3326 -0.2707  0.4030
  155MOL0     C20804   2.162   4.094   1.164  0.0299  0.1187 -1.1113
  155MOL0     C20805   2.243   4.134   1.288  1.1306  0.8607  0.6227
  155MOL0     C20806   2.372   4.218   1.259 -0.0205  0.1130 -0.6909
  155MOL0     N20807   2.459   4.229   1.380 -0.8705  0.3315 -0.2788
  155MOL0     C20808   2.502   4.346   1.436 -0.3106  0.2311  0.4173
  155MOL0     C20809   2.560   4.313   1.550 -0.5164  0.2728 -0.3089
  155MOL0     C20810   2.631   4.403   1.653 -1.2110  0.4825  0.4305
  155MOL0     C20811   2.552   4.399   1.779 -0.3558 -0.4633 -0.9123
  155MOL0     C20812   2.576   4.507   1.894  0.1867  0.6129 -0.3284
  155MOL0     C20813   2.712   4.532   1.932 -0.3430  0.4730  0.2748
  155MOL0     O20814   2.723   4.621   2.041 -0.7837 -0.1528 -0.4092
  155MOL0     C20815   2.853   4.666   2.072 -0.0752 -0.5154 -0.5195
  155MOL0     C20816   2.976   4.630   2.018  0.5954  0.2284  0.0349
  155MOL0     C20817   3.091   4.697   2.057 -0.1176 -0.6895 -0.1064
  155MOL0     C20818   3.096   4.798   2.155 -0.6023 -0.1168 -0.6844
  155MOL0     C20819   3.230   4.863   2.192  0.1130 -0.3928  0.5598
  155MOL0     O20820   3.348   4.814   2.126 -0.3777  0.4520 -0.9831
  155MOL0     C20821   3.468   4.878   2.121 -1.0041 -0.0632 -0.3837
  155MOL0     C20822   3.515   4.967   2.223 -0.3067 -0.5379  0.0496
  155MOL0     C20823   3.649   5.011   2.221 -0.2145 -0.9818 -0.8242
  155MOL0     C20824   3.739   4.980   2.127 -0.3791 -0.1808  0.1409
  155MOL0     O20825   3.868   5.027   2.130 -0.5077  0.0446  0.4958
  155MOL0     C20826   3.899   5.148   2.203 -0.0832 -0.5912  0.1384
  155MOL0     C20827   4.045   5.193   2.189  0.4872  0.5596 -0.4921
  155MOL0     C20828   4.145   5.118   2.277  0.4741  0.1050  0.6632
  155MOL0     C20829   4.275   5.194   2.283 -0.8282 -0.0900 -0.3795
  155MOL0     C20830   4.351   5.163   2.405  0.5836 -0.3764 -0.0929
  155MOL0     C20831   4.482   5.242   2.422 -0.5902 -0.0178  0.0698
  155MOL0     C20832   4.585   5.191   2.525  0.0191  0.2515 -0.2377
  155MOL0     C20833   4.536   5.250   2.662 -0.1781 -0.4668  0.2676
  155MOL0    Cl20834   4.623   5.159   2.788 -0.2375 -0.2775  0.0547
  155MOL0     C20835   3.688   4.889   2.028 -0.4941  0.1703 -0.4088
  155MOL0     C20836   3.556   4.838   2.022  0.5726 -0.7858  0.3228
  155MOL0     O20837   3.224   4.966   2.258 -0.9578 -0.3336 -0.6103
  155MOL0     C20838   2.968   4.832   2.210  1.2226 -0.6241  0.4066
  155MOL0     C20839   2.852   4.761   2.178 -0.8315 -0.5550 -0.2429
  155MOL0     N20840   2.565   4.176   1.555  0.7026  0.2120  0.4871
  155MOL0     N20841   2.510   4.118   1.444 -0.0296 -0.3380 -0.2217
  155MOL0     C20842   1.487   3.741   0.725 -0.3321  1.1953 -0.4587
  155MOL0     C20843   1.404   3.713   0.615  0.5826 -0.6662  0.7694
  155MOL0     C20844   1.120   3.821   0.276  0.1649 -0.2847  0.5852
  155MOL0     C20845   1.004   3.892   0.274 -0.3976 -0.2338  1.1024
  155MOL0     C20846   0.902   3.867   0.182 -0.2090 -0.7956  0.2155
  155MOL0     C20847   0.926   3.773   0.076 -0.3725  0.3892 -1.0397
  155MOL0     O20848   0.842   3.740  -0.025 -0.2587  0.7344  0.5247
  155MOL0     C20849   0.714   3.793  -0.017 -0.1937  0.4820 -0.6474
  155MOL0     C20850   0.635   3.703  -0.113 -0.5950 -0.2385 -0.1214
  155MOL0     C20851   0.602   3.568  -0.049  0.2237 -1.2733  0.4003
  155MOL0     C20852   0.551   3.476  -0.160  0.9298  0.4251  0.3060
  155MOL0     C20853   0.514   3.348  -0.099  0.0403 -0.0136  0.0078
  155MOL0     C20854   0.511   3.240  -0.039 -0.5213 -0.6981 -0.8335
  155MOL0     C20855   1.051   3.717   0.077  0.5101 -0.1380  1.0701
  155MOL0     C20856   1.149   3.737   0.169 -0.4841 -0.3624  0.1702
  155MOL0     C20857   1.272   3.653   0.158  0.0693  0.6968 -0.3048
  155MOL0     H20858   1.160   3.945   0.682 -0.7846 -1.1717  1.4965
  155MOL0     H20859   1.317   3.993   0.882 -2.5300 -1.0280  0.7943
  155MOL0     H20860   1.554   4.048   0.915  0.1531  1.0150  1.0710
  155MOL0     H20861   1.551   3.979   1.082  0.5794  1.2921  0.7053
  155MOL0     H20862   1.774   3.978   0.883  1.1244 -0.3090 -0.2309
  155MOL0     H20863   1.765   3.850   1.000 -1.9451 -1.8223 -3.5211
  155MOL0     H20864   1.757   3.999   1.190  1.6711  0.1179  0.9870
  155MOL0     H20865   1.748   4.143   1.098  1.5009  1.0192  3.5973
  155MOL0     H20866   1.958   3.915   1.076 -1.1335 -0.5665  2.4971
  155MOL0     H20867   1.963   4.070   0.990 -0.6680  0.8546  1.3992
  155MOL0     H20868   1.977   4.186   1.238  2.2844  0.5876  0.8496
  155MOL0     H20869   1.994   4.026   1.292  1.5246 -1.2404  0.1418
  155MOL0     H20870   2.197   3.997   1.127  0.9251  0.9024 -2.3665
  155MOL0     H20871   2.176   4.176   1.093 -2.3877 -0.0658 -1.8970
  155MOL0     H20872   2.259   4.038   1.339 -0.8350  0.2287  0.1368
  155MOL0     H20873   2.179   4.196   1.351  0.5206  1.2469 -0.3510
  155MOL0     H20874   2.434   4.191   1.172  2.6440  1.4222  0.6913
  155MOL0     H20875   2.332   4.318   1.242 -3.0881 -0.7500  0.7155
  155MOL0     H20876   2.485   4.445   1.395 -0.5509  0.0213  0.0075
  155MOL0     H20877   2.729   4.362   1.676 -0.2481  1.7736 -1.1629
  155MOL0     H20878   2.659   4.495   1.600  1.1136 -0.5415 -0.2344
  155MOL0     H20879   2.448   4.425   1.754  0.2384  2.4876 -0.7409
  155MOL0     H20880   2.555   4.298   1.819 -0.1747 -1.1866 -2.6756
  155MOL0     H20881   2.514   4.490   1.983  0.7137  1.7702  0.2762
  155MOL0     H20882   2.532   4.603   1.864  0.5531  0.8861  0.0094
  155MOL0     H20883   2.771   4.574   1.850 -0.2861  2.8016  1.4070
  155MOL0     H20884   2.773   4.448   1.967 -1.7201 -0.1237  1.3405
  155MOL0     H20885   2.971   4.547   1.948  1.9506 -0.0078  0.1902
  155MOL0     H20886   3.183   4.656   2.018  0.4908  0.5893 -0.0671
  155MOL0     H20887   3.445   5.000   2.300 -2.3078 -2.1972 -0.9312
  155MOL0     H20888   3.675   5.065   2.311 -0.7937 -2.9782  0.6069
  155MOL0     H20889   3.828   5.226   2.174 -1.7205 -0.3775  4.0536
  155MOL0     H20890   3.879   5.134   2.310  0.2294 -0.6275  0.1921
  155MOL0     H20891   4.071   5.191   2.083 -3.0491  3.2080 -1.6157
  155MOL0     H20892   4.046   5.299   2.215  0.7710  0.5458 -0.4441
  155MOL0     H20893   4.121   5.116   2.384  2.8270  3.5791  1.4254
  155MOL0     H20894   4.154   5.014   2.242 -1.0827  0.6577 -1.5910
  155MOL0     H20895   4.267   5.302   2.270 -0.2484 -0.0717 -0.6057
  155MOL0     H20896   4.339   5.174   2.196  0.9750 -0.3076  0.9463
  155MOL0     H20897   4.361   5.054   2.408 -0.8827 -0.6534 -2.2831
  155MOL0     H20898   4.289   5.187   2.491 -0.0005  0.0935 -0.6302
  155MOL0     H20899   4.533   5.238   2.325  0.3288 -1.0551  0.5779
  155MOL0     H20900   4.458   5.347   2.441 -0.4327  0.1654 -0.7026
  155MOL0     H20901   4.686   5.222   2.495 -0.4951  1.4864 -0.7539
  155MOL0     H20902   4.579   5.082   2.526 -0.6542  0.2839 -0.2344
  155MOL0     H20903   4.557   5.357   2.676  0.6632 -0.4421 -1.0563
  155MOL0     H20904   4.430   5.226   2.671 -0.5592  1.3352  1.2300
  155MOL0     H20905   3.766   4.862   1.958  1.6403 -1.0133  2.2021
  155MOL0     H20906   3.531   4.766   1.944  0.0063 -2.3278  1.8784
  155MOL0     H20907   2.967   4.918   2.276 -3.4811 -0.6370  0.6623
  155MOL0     H20908   2.766   4.791   2.236  1.2431 -0.1653  2.8990
  155MOL0     H20909   1.568   3.670   0.738 -4.0188 -3.9262 -1.7508
  155MOL0     H20910   1.434   3.650   0.532 -0.6521  3.6544 -3.4502
  155MOL0     H20911   0.994   3.966   0.353  0.4876  2.7264 -1.3472
  155MOL0     H20912   0.818   3.935   0.170  0.6960 -0.0208 -2.5406
  155MOL0     H20913   0.720   3.897  -0.051 -1.1211 -0.3403 -3.6454
  155MOL0     H20914   0.670   3.787   0.083  2.5400 -2.1266  0.5395
  155MOL0     H20915   0.691   3.697  -0.207  1.1104  3.4783  0.4757
  155MOL0     H20916   0.543   3.754  -0.144 -0.0595  0.1637 -1.1212
  155MOL0     H20917   0.520   3.590   0.021  0.8720  0.2912  0.7037
  155MOL0     H20918   0.690   3.531   0.004 -0.3299 -0.8854  1.6315
  155MOL0     H20919   0.463   3.525  -0.205  1.8395  1.2023 -0.6697
  155MOL0     H20920   0.622   3.460  -0.241 -2.0799  3.3528 -3.3009
  155MOL0     H20921   0.509   3.154   0.025 -0.5302  0.5967  0.9723
  155MOL0     H20922   1.067   3.659  -0.014 -3.2046  0.1046  0.0972
  155MOL0     H20923   1.259   3.566   0.093 -1.8413 -0.0583  1.0003
  155MOL0     H20924   1.353   3.715   0.118 -0.0994  1.3388  0.3466
  155MOL0     H20925   1.306   3.617   0.256 -1.3854  0.4464  0.1271
  156MOL0     O20926   7.450   4.205   2.288 -0.2718 -0.4365  0.3405
  156MOL0     C20927   7.393   4.194   2.178  0.3907 -0.5045 -0.5646
  156MOL0     O20928   7.427   4.252   2.055 -0.7323 -0.0613 -0.7203
  156MOL0     C20929   7.541   4.335   2.056  0.4216 -0.3118 -0.3135
  156MOL0     C20930   7.539   4.475   2.076  0.6684 -1.1946 -0.5140
  156MOL0     C20931   7.659   4.544   2.070 -0.1695  0.3226 -0.6570
  156MOL0     C20932   7.780   4.479   2.060  0.0491  0.6345  0.5621
  156MOL0     O20933   7.891   4.559   2.063 -0.1531  0.6685 -0.3815
  156MOL0     C20934   8.017   4.503   2.102  0.8530  0.4128  0.2622
  156MOL0     C20935   8.033   4.471   2.258  0.5282  0.2181  0.3433
  156MOL0     C20936   8.062   4.591   2.348 -0.1848 -0.1100 -0.2226
  156MOL0     C20937   7.953   4.700   2.344 -0.1820  0.5362  0.2603
  156MOL0     C20938   7.832   4.647   2.409 -0.3580  0.4601 -0.2508
  156MOL0     C20939   7.723   4.748   2.433 -0.4017  0.2022  0.5133
  156MOL0     C20940   7.609   4.673   2.494 -0.9650 -0.2527 -0.2770
  156MOL0     C20941   7.476   4.752   2.464 -0.5788  1.1342  0.1202
  156MOL0     N20942   7.363   4.663   2.481 -0.1733 -0.6943 -0.2800
  156MOL0     C20943   7.331   4.555   2.397 -0.2379  0.0600 -0.1503
  156MOL0     C20944   7.223   4.500   2.464  0.7937  0.5253 -0.1160
  156MOL0     C20945   7.121   4.391   2.436 -0.5601 -0.6682  0.2830
  156MOL0     C20946   6.984   4.428   2.473  1.0792 -0.4747  0.1004
  156MOL0     C20947   6.874   4.317   2.441 -0.4724  0.1037  0.1883
  156MOL0     C20948   6.871   4.203   2.545 -0.2818  0.0631 -0.0085
  156MOL0     O20949   6.861   4.265   2.673 -0.6001 -0.1785  0.6775
  156MOL0     C20950   6.738   4.293   2.719  0.5886  0.4860  0.9448
  156MOL0     C20951   6.721   4.423   2.761  1.4572 -0.2572 -0.5856
  156MOL0     C20952   6.591   4.465   2.795  0.2154 -0.3195 -0.1333
  156MOL0     C20953   6.479   4.375   2.813  0.3360 -0.5320  0.5121
  156MOL0     C20954   6.352   4.426   2.852 -1.0159  0.3627 -0.8242
  156MOL0     O20955   6.241   4.331   2.847  0.5091 -0.1463  0.3395
  156MOL0     C20956   6.120   4.405   2.866 -0.3623 -0.6484  0.4931
  156MOL0     C20957   6.047   4.408   2.989 -0.6698 -0.1624  1.1192
  156MOL0     C20958   5.926   4.477   2.993  0.5023  0.3661  0.3706
  156MOL0     C20959   5.872   4.533   2.876 -0.1278 -0.5405  0.0297
  156MOL0     O20960   5.752   4.600   2.866  0.5570 -0.2121  0.2210
  156MOL0     C20961   5.656   4.576   2.973  0.2910 -1.2348  0.2553
  156MOL0     C20962   5.525   4.663   2.956 -0.6124 -0.8728 -0.2720
  156MOL0     C20963   5.453   4.633   2.820 -0.3281  0.0669 -0.1720
  156MOL0     C20964   5.356   4.740   2.794  0.3590 -0.7687 -0.5909
  156MOL0     C20965   5.244   4.702   2.696  0.5089  0.2765 -0.3045
  156MOL0     C20966   5.113   4.791   2.686  0.5041  0.6538  0.9487
  156MOL0     C20967   5.000   4.720   2.591  0.6375  0.3469 -0.6647
  156MOL0     C20968   4.888   4.826   2.563 -0.4594 -0.4439 -0.4500
  156MOL0    Cl20969   4.752   4.765   2.466 -0.1931  0.1079 -0.0921
  156MOL0     C20970   5.933   4.521   2.761 -0.0594 -0.1873  0.0844
  156MOL0     C20971   6.060   4.458   2.747  0.3000  0.6362  0.5747
  156MOL0     O20972   6.337   4.546   2.858 -0.3553  0.4441 -0.2937
  156MOL0     C20973   6.515   4.241   2.803 -0.1479  0.7354  0.0846
  156MOL0     C20974   6.639   4.192   2.749 -0.2593  0.7342  0.3779
  156MOL0     N20975   7.213   4.573   2.581  0.5481  0.4271  0.4551
  156MOL0     N20976   7.284   4.672   2.585 -0.2955  0.4759 -0.9264
  156MOL0     C20977   7.784   4.342   2.044  0.1776  0.4663 -0.2550
  156MOL0     C20978   7.668   4.273   2.041  0.6028  0.1235  0.7558
  156MOL0     C20979   7.249   4.134   2.180 -0.6834  0.1197  0.8459
  156MOL0     C20980   7.161   4.134   2.065 -0.0528 -0.2182 -0.4776
  156MOL0     C20981   7.023   4.103   2.083 -0.0703  0.0998  0.3580
  156MOL0     C20982   6.969   4.038   2.195 -0.5204  0.1002  0.5584
  156MOL0     O20983   6.835   3.987   2.201 -0.9540 -0.3573  0.1907
  156MOL0     C20984   6.745   4.006   2.090  0.6907  0.6604  0.8582
  156MOL0     C20985   6.614   3.947   2.140  0.4135  0.0329  0.0597
  156MOL0     C20986   6.540   4.032   2.236 -0.1667 -0.1244  0.0385
  156MOL0     C20987   6.401   3.972   2.264 -1.3546 -0.2895  0.3456
  156MOL0     C20988   6.311   3.977   2.150 -0.1138 -0.7305  0.0658
  156MOL0     C20989   6.236   3.972   2.051  0.0163 -0.3864  0.8361
  156MOL0     C20990   7.055   4.023   2.304 -0.1999 -0.0372  1.0808
  156MOL0     C20991   7.189   4.069   2.296 -0.7510  0.3033 -0.6452
  156MOL0     C20992   7.269   4.033   2.422  0.1748 -0.7527 -0.4675
  156MOL0     H20993   7.453   4.528   2.114  1.8972  0.1024  0.5416
  156MOL0     H20994   7.666   4.652   2.082 -1.0411  0.0640  4.1150
  156MOL0     H20995   8.046   4.417   2.041 -0.3557 -2.5844  3.5884
  156MOL0     H20996   8.095   4.575   2.076  2.0150 -0.3401  1.4925
  156MOL0     H20997   8.107   4.392   2.265 -0.0912 -0.4773 -0.6643
  156MOL0     H20998   7.944   4.421   2.297  0.7500 -1.1806 -0.8714
  156MOL0     H20999   8.155   4.633   2.308  0.4830 -0.7277  0.6468
  156MOL0     H21000   8.068   4.542   2.446 -0.9690 -2.4515 -1.2854
  156MOL0     H21001   7.982   4.796   2.388  1.6599  0.9268 -1.6292
  156MOL0     H21002   7.923   4.718   2.240 -0.8617 -2.1708 -0.1093
  156MOL0     H21003   7.780   4.572   2.348 -1.8345  0.1248  1.3579
  156MOL0     H21004   7.861   4.600   2.503  0.7132  1.4042 -0.0914
  156MOL0     H21005   7.763   4.825   2.498  2.8985 -0.8040 -0.1462
  156MOL0     H21006   7.702   4.784   2.331  0.7280  2.5893  1.0645
  156MOL0     H21007   7.630   4.669   2.601 -0.0795 -2.3721 -0.4744
  156MOL0     H21008   7.606   4.574   2.447  0.0240 -0.5616  0.2853
  156MOL0     H21009   7.451   4.836   2.529 -1.6222 -0.4582  1.8507
  156MOL0     H21010   7.478   4.795   2.363  0.4780 -1.7842 -1.2348
  156MOL0     H21011   7.359   4.529   2.295 -2.1901 -0.4046 -0.5991
  156MOL0     H21012   7.127   4.371   2.328  2.7985  3.2725 -0.5053
  156MOL0     H21013   7.165   4.298   2.474  2.6091 -1.2548 -4.0214
  156MOL0     H21014   6.985   4.444   2.582  4.3463  1.6142 -0.0818
  156MOL0     H21015   6.958   4.528   2.437 -0.0720 -0.8609 -0.1556
  156MOL0     H21016   6.888   4.275   2.341 -0.7741 -0.3882  0.3530
  156MOL0     H21017   6.776   4.366   2.437  0.3272  1.7129 -1.5069
  156MOL0     H21018   6.968   4.154   2.529 -0.6222 -0.4543 -0.5274
  156MOL0     H21019   6.798   4.126   2.521  1.2667 -0.8851 -1.9954
  156MOL0     H21020   6.792   4.504   2.772  0.5592  0.7162 -1.6859
  156MOL0     H21021   6.577   4.567   2.829  1.1413 -0.5148  0.8806
  156MOL0     H21022   6.094   4.378   3.083  0.4443  1.3028  1.0624
  156MOL0     H21023   5.868   4.478   3.085  0.5453  0.0021  0.4050
  156MOL0     H21024   5.627   4.470   2.965  0.7542 -1.3438 -0.0443
  156MOL0     H21025   5.686   4.584   3.078 -2.2266 -0.6886  1.0010
  156MOL0     H21026   5.471   4.657   3.051 -2.6956 -0.0371 -1.3318
  156MOL0     H21027   5.570   4.762   2.945  2.7398 -1.8316  2.6913
  156MOL0     H21028   5.525   4.633   2.738  0.2216  1.0428  0.3031
  156MOL0     H21029   5.404   4.536   2.834  1.7132 -1.3658 -2.1281
  156MOL0     H21030   5.397   4.839   2.772 -2.3084  0.7078  0.6154
  156MOL0     H21031   5.303   4.752   2.889 -2.0576 -2.7598 -1.5845
  156MOL0     H21032   5.223   4.597   2.717  2.0814  0.2910  1.5863
  156MOL0     H21033   5.285   4.700   2.595 -1.5748 -5.5153 -1.4264
  156MOL0     H21034   5.076   4.802   2.788  0.9073  2.1641  0.9515
  156MOL0     H21035   5.130   4.890   2.643 -0.1967  0.3580 -0.0391
  156MOL0     H21036   4.958   4.634   2.645  0.2330  1.7120  1.2593
  156MOL0     H21037   5.046   4.682   2.499  1.8760  1.1071 -0.3910
  156MOL0     H21038   4.846   4.871   2.653  1.7150  0.1451  0.3116
  156MOL0     H21039   4.941   4.905   2.509  0.3799 -2.3889 -2.6433
  156MOL0     H21040   5.901   4.568   2.669  1.1409  0.2021 -0.1444
  156MOL0     H21041   6.119   4.448   2.655  0.4279 -1.6095  0.8250
  156MOL0     H21042   6.446   4.161   2.827 -1.1239  1.8862  1.2748
  156MOL0     H21043   6.667   4.088   2.736  2.9955  1.6797 -1.0667
  156MOL0     H21044   7.876   4.290   2.019 -1.4387 -1.4945 -2.6729
  156MOL0     H21045   7.667   4.170   2.007 -2.2699 -0.6897  2.9173
  156MOL0     H21046   7.207   4.162   1.971 -1.8174 -1.5731 -1.7878
  156MOL0     H21047   6.962   4.103   1.993 -0.9395 -2.8514  0.8641
  156MOL0     H21048   6.775   3.948   2.002  0.5378  1.0486  0.5499
  156MOL0     H21049   6.732   4.109   2.054  0.5503  0.0583 -0.9179
  156MOL0     H21050   6.636   3.848   2.180  2.7790  1.3851  2.4296
  156MOL0     H21051   6.560   3.936   2.045  0.8982 -2.0361 -0.0249
  156MOL0     H21052   6.529   4.129   2.186 -1.5858 -0.9584 -1.3256
  156MOL0     H21053   6.594   4.047   2.331 -2.3796  2.0298  1.0629
  156MOL0     H21054   6.398   3.868   2.296 -1.2235 -1.0501 -1.9069
  156MOL0     H21055   6.351   4.034   2.339 -1.7278 -1.4016  1.0297
  156MOL0     H21056   6.158   3.956   1.979  1.5345 -0.5873 -0.8314
  156MOL0     H21057   7.021   3.966   2.390 -1.3300 -0.8833  0.0853
  156MOL0     H21058   7.287   4.117   2.489 -0.5399  1.2173 -2.6234
  156MOL0     H21059   7.219   3.950   2.474 -1.6218  1.7644  2.1154
  156MOL0     H21060   7.366   3.997   2.386 -1.3405 -1.5256 -4.3158
  157MOL0     O21061   2.298   4.949   4.534 -0.0561 -0.3094  0.0326
  157MOL0     C21062   2.267   5.035   4.454  0.3190 -1.1579 -0.0000
  157MOL0     O21063   2.222   5.157   4.491 -0.5460  0.0932 -0.3291
  157MOL0     C21064   2.215   5.203   4.621 -0.8551  0.0385  0.6509
  157MOL0     C21065   2.321   5.182   4.710 -0.0651 -0.0869 -0.3802
  157MOL0     C21066   2.326   5.249   4.839  0.1333  0.5274  0.3988
  157MOL0     C21067   2.224   5.334   4.877 -0.8134 -0.6563 -0.1050
  157MOL0     O21068   2.224   5.415   4.993  0.5328 -0.6061  0.1586
  157MOL0     C21069   2.342   5.404   5.077 -0.0410 -0.4737 -1.2655
  157MOL0     C21070   2.321   5.488   5.206 -0.2352 -0.0392  0.2428
  157MOL0     C21071   2.441   5.490   5.297 -0.5005 -0.3251  0.2632
  157MOL0     C21072   2.422   5.572   5.419  0.6553  0.1382 -0.6559
  157MOL0     C21073   2.558   5.576   5.490  0.0503 -0.3614  0.0792
  157MOL0     C21074   2.551   5.660   5.624 -0.5296 -0.6288  0.1738
  157MOL0     C21075   2.683   5.710   5.677  0.1260  0.4211  0.6517
  157MOL0     C21076   2.755   5.593   5.743 -0.3259 -0.1475 -0.5477
  157MOL0     N21077   2.885   5.638   5.794 -0.3010  0.1407  0.3355
  157MOL0     C21078   2.996   5.612   5.718  0.0411  0.2146 -0.1914
  157MOL0     C21079   3.087   5.692   5.775 -1.0940  0.1200 -1.3554
  157MOL0     C21080   3.221   5.696   5.709  0.1148 -0.1181  0.7447
  157MOL0     C21081   3.327   5.715   5.816  0.2136  0.8047  0.1002
  157MOL0     C21082   3.353   5.578   5.887 -1.0146 -0.3176  0.2065
  157MOL0     C21083   3.463   5.591   5.998  0.1019  0.4382  0.4466
  157MOL0     O21084   3.589   5.596   5.944 -0.5208  0.0915  0.0220
  157MOL0     C21085   3.691   5.548   6.017 -0.0798 -1.0450  0.2110
  157MOL0     C21086   3.821   5.575   5.970 -0.1615  0.8643  0.4347
  157MOL0     C21087   3.929   5.527   6.037  1.0486 -0.9440 -0.9432
  157MOL0     C21088   3.918   5.446   6.153  0.3477  0.3991  0.1005
  157MOL0     C21089   4.038   5.400   6.225  0.2501 -0.1268  0.4559
  157MOL0     O21090   4.153   5.464   6.180  0.1825 -0.8026 -0.3515
  157MOL0     C21091   4.277   5.470   6.243  0.7031 -0.7773 -0.9913
  157MOL0     C21092   4.385   5.463   6.157  0.1226 -0.2533 -0.2075
  157MOL0     C21093   4.517   5.471   6.204  0.7091 -0.4778 -0.4414
  157MOL0     C21094   4.536   5.488   6.343  0.4020  0.5248 -0.0121
  157MOL0     O21095   4.657   5.496   6.399  0.5207 -0.2491 -0.2974
  157MOL0     C21096   4.711   5.631   6.411  0.8729  0.0089  0.8940
  157MOL0     C21097   4.858   5.621   6.386  0.7465 -0.9706  0.2667
  157MOL0     C21098   4.922   5.528   6.484  0.1209  0.4747 -0.5011
  157MOL0     C21099   5.077   5.518   6.470 -0.1405  0.5655  0.3482
  157MOL0     C21100   5.137   5.418   6.578  0.7102  0.4426  0.5700
  157MOL0     C21101   5.291   5.395   6.568  0.4074  0.1482 -1.1021
  157MOL0     C21102   5.313   5.343   6.423  0.1082  0.1781  0.6115
  157MOL0     C21103   5.442   5.269   6.402 -0.7509  0.4536  0.1065
  157MOL0    Cl21104   5.459   5.219   6.237 -0.1760 -0.4822  0.0486
  157MOL0     C21105   4.424   5.515   6.427 -0.9949  0.4825 -0.7322
  157MOL0     C21106   4.293   5.499   6.383  0.9347 -0.0456  0.4780
  157MOL0     O21107   4.024   5.326   6.319  0.4609 -0.3621 -0.1110
  157MOL0     C21108   3.791   5.416   6.196  0.5145  0.8681  0.0149
  157MOL0     C21109   3.684   5.473   6.135  0.4710  1.1727  0.3510
  157MOL0     N21110   3.028   5.765   5.875  0.3422 -0.2448 -0.1217
  157MOL0     N21111   2.907   5.732   5.880 -0.6636  0.0426 -0.6115
  157MOL0     C21112   2.114   5.346   4.793  0.2192  0.2442  0.4274
  157MOL0     C21113   2.108   5.278   4.665 -0.7216  0.2684 -0.2163
  157MOL0     C21114   2.267   5.021   4.308  0.7404  0.5135  0.0487
  157MOL0     C21115   2.262   5.134   4.227  0.2571  0.5574 -0.3373
  157MOL0     C21116   2.259   5.123   4.087  0.4620 -0.3419 -0.0954
  157MOL0     C21117   2.274   5.000   4.027 -1.0042  0.5034 -0.9454
  157MOL0     O21118   2.287   4.991   3.895  0.0600 -0.9254 -0.2632
  157MOL0     C21119   2.158   5.015   3.829  0.0333 -0.4612  0.1161
  157MOL0     C21120   2.166   4.962   3.682 -0.3373  0.0306  0.1385
  157MOL0     C21121   2.252   5.049   3.596  0.8846  0.5921  0.8443
  157MOL0     C21122   2.277   4.963   3.465 -0.9811  0.2670  0.9582
  157MOL0     C21123   2.155   4.942   3.382 -0.6283 -0.8230  0.0132
  157MOL0     C21124   2.062   4.916   3.311 -0.8170  1.1703  0.1047
  157MOL0     C21125   2.278   4.890   4.107  0.4149 -0.2048 -0.1426
  157MOL0     C21126   2.265   4.895   4.246 -0.3444  0.4014  0.0317
  157MOL0     C21127   2.260   4.763   4.318  1.0480 -1.1179 -0.0268
  157MOL0     H21128   2.406   5.118   4.690  2.3120  3.1264 -1.3750
  157MOL0     H21129   2.420   5.231   4.892  1.5231 -1.4355 -2.4660
  157MOL0     H21130   2.356   5.302   5.114  2.3989  0.0588 -0.5299
  157MOL0     H21131   2.423   5.443   5.014 -1.9486  0.8359 -3.0542
  157MOL0     H21132   2.229   5.452   5.252  0.1577 -0.7667  0.4807
  157MOL0     H21133   2.293   5.589   5.174 -0.4699 -0.7108 -1.8283
  157MOL0     H21134   2.530   5.525   5.243 -0.0118 -3.0864 -0.9337
  157MOL0     H21135   2.462   5.387   5.328  1.8349 -0.2303 -0.8080
  157MOL0     H21136   2.396   5.676   5.398 -1.6824 -0.2970 -0.2179
  157MOL0     H21137   2.337   5.541   5.481  1.3184  1.3928  0.9499
  157MOL0     H21138   2.590   5.476   5.520  0.9737 -0.2437 -0.4978
  157MOL0     H21139   2.643   5.606   5.428 -0.3471  0.4651 -0.0777
  157MOL0     H21140   2.498   5.750   5.592  1.3693 -0.4505 -2.9502
  157MOL0     H21141   2.496   5.610   5.704  0.4610  1.7266  2.4861
  157MOL0     H21142   2.672   5.793   5.748  0.8465  0.8598  0.2603
  157MOL0     H21143   2.745   5.746   5.594 -0.3823 -0.2819 -0.0539
  157MOL0     H21144   2.692   5.547   5.820 -2.2523  1.5796 -1.0044
  157MOL0     H21145   2.769   5.516   5.666 -2.2491 -0.8035 -0.3080
  157MOL0     H21146   3.002   5.546   5.632  0.5344 -0.2929  0.2265
  157MOL0     H21147   3.237   5.607   5.648 -0.4945 -0.2377  0.7461
  157MOL0     H21148   3.224   5.780   5.638  1.7284 -1.9936 -1.5672
  157MOL0     H21149   3.422   5.729   5.765  0.5703  1.9657  1.0302
  157MOL0     H21150   3.308   5.791   5.893  0.2806 -0.1221  1.0657
  157MOL0     H21151   3.385   5.510   5.809  0.3598  0.7808 -0.2300
  157MOL0     H21152   3.266   5.535   5.937 -0.3222 -1.1871  0.6884
  157MOL0     H21153   3.459   5.494   6.049  3.2462 -0.9392 -1.6456
  157MOL0     H21154   3.443   5.679   6.060 -1.3892  0.8548 -0.5923
  157MOL0     H21155   3.838   5.642   5.886  1.8630 -0.4663 -0.3004
  157MOL0     H21156   4.027   5.550   5.997  0.3933 -0.6848 -2.4907
  157MOL0     H21157   4.354   5.451   6.054 -2.4098  3.0597 -0.0182
  157MOL0     H21158   4.604   5.460   6.141 -1.2128  0.2890 -3.4608
  157MOL0     H21159   4.668   5.701   6.338 -2.6811 -3.2049 -0.4060
  157MOL0     H21160   4.694   5.661   6.514 -1.1850 -0.0321  0.6062
  157MOL0     H21161   4.870   5.575   6.287  2.1164  0.8427 -0.4668
  157MOL0     H21162   4.908   5.718   6.382  0.1831 -0.6517 -4.2402
  157MOL0     H21163   4.902   5.542   6.591  2.3469 -2.6347  0.4656
  157MOL0     H21164   4.889   5.425   6.467  1.3272 -0.4387  2.1409
  157MOL0     H21165   5.124   5.615   6.489 -1.0792  0.7961  1.6841
  157MOL0     H21166   5.109   5.493   6.369  1.2865 -1.6235  1.2547
  157MOL0     H21167   5.088   5.321   6.569 -0.5945  1.0326  1.0810
  157MOL0     H21168   5.134   5.452   6.682  1.7951 -2.8636  1.8037
  157MOL0     H21169   5.347   5.482   6.604 -0.2928  1.0337 -2.0653
  157MOL0     H21170   5.314   5.316   6.639 -0.6839  0.5392 -0.2711
  157MOL0     H21171   5.316   5.434   6.362 -0.3092  1.3945  2.3535
  157MOL0     H21172   5.225   5.285   6.393 -0.8920  0.1234  3.3956
  157MOL0     H21173   5.534   5.324   6.424 -0.7766  0.3766  0.4008
  157MOL0     H21174   5.453   5.181   6.465 -0.7506 -0.9655 -1.8036
  157MOL0     H21175   4.452   5.538   6.530 -2.1307 -1.4294  0.0396
  157MOL0     H21176   4.208   5.535   6.440  0.3211  2.4116 -1.7764
  157MOL0     H21177   3.775   5.344   6.275  0.3160 -0.5184 -1.2406
  157MOL0     H21178   3.593   5.444   6.187 -0.5212  2.7026 -0.4524
  157MOL0     H21179   2.032   5.410   4.822  1.0196  1.4425  0.1237
  157MOL0     H21180   2.021   5.303   4.606 -0.1697 -0.5048 -1.3994
  157MOL0     H21181   2.250   5.234   4.267 -0.9727  0.4918 -0.4928
  157MOL0     H21182   2.245   5.206   4.019 -0.9854 -0.5649 -0.1001
  157MOL0     H21183   2.139   5.122   3.825  0.3513 -0.2686  2.4967
  157MOL0     H21184   2.076   4.965   3.881 -1.7342 -0.0908 -2.1627
  157MOL0     H21185   2.062   4.956   3.649 -0.8807  0.6131  1.6086
  157MOL0     H21186   2.206   4.860   3.684  3.1451  1.1957 -1.7225
  157MOL0     H21187   2.347   5.067   3.648  1.5344  0.3254 -0.2258
  157MOL0     H21188   2.207   5.145   3.569  1.9124 -0.0287 -4.0627
  157MOL0     H21189   2.358   5.010   3.408 -0.0312 -2.4758 -0.1204
  157MOL0     H21190   2.314   4.863   3.490  1.2378  0.9334  0.4966
  157MOL0     H21191   1.982   4.881   3.249  0.1179 -1.0277  0.0656
  157MOL0     H21192   2.289   4.793   4.059  3.0021  0.9333 -2.1328
  157MOL0     H21193   2.192   4.774   4.402 -1.2500 -2.1977 -1.6553
  157MOL0     H21194   2.228   4.678   4.258 -1.6918 -0.6438  0.6677
  157MOL0     H21195   2.360   4.745   4.359  2.1409  1.2161 -1.4420
  158MOL0     O21196   9.990   7.574   8.603 -0.3913  0.3612  0.3194
  158MOL0     C21197   9.995   7.644   8.501 -0.8855 -0.5102  0.1242
  158MOL0     O21198  10.104   7.717   8.466  0.2968  0.6260 -0.5576
  158MOL0     C21199  10.228   7.692   8.520 -0.3871  0.0247  0.5288
  158MOL0     C21200  10.250   7.697   8.651 -0.6160 -0.4738 -0.4955
  158MOL0     C21201  10.384   7.678   8.706  0.0841  0.5221  0.6710
  158MOL0     C21202  10.493   7.629   8.630  0.1414 -0.0217  0.4535
  158MOL0     O21203  10.611   7.602   8.684 -0.1398 -0.5645  1.0559
  158MOL0     C21204  10.700   7.509   8.617  0.3914  1.0897 -0.3260
  158MOL0     C21205  10.710   7.377   8.704  0.4303 -0.8143 -0.6262
  158MOL0     C21206  10.785   7.255   8.642  0.0427 -0.0714 -0.5575
  158MOL0     C21207  10.936   7.266   8.672  0.1569  0.2412  0.2724
  158MOL0     C21208  11.019   7.159   8.601  0.5788 -0.2516 -0.9172
  158MOL0     C21209  11.069   7.200   8.459 -0.6555  0.4374 -0.2633
  158MOL0     C21210  11.128   7.078   8.394  0.0502 -0.0567 -0.5492
  158MOL0     C21211  11.215   7.101   8.264  0.8063  1.1844  1.3461
  158MOL0     N21212  11.136   7.156   8.147 -0.4853  0.4607  0.4343
  158MOL0     C21213  11.179   7.253   8.060  0.4229  0.3218  0.0560
  158MOL0     C21214  11.087   7.259   7.966  0.4510 -0.1126  0.4595
  158MOL0     C21215  11.083   7.359   7.847  0.3365 -0.4426  0.2679
  158MOL0     C21216  11.047   7.505   7.866 -0.9635  0.4728 -0.8293
  158MOL0     C21217  11.043   7.606   7.744 -0.2630  0.1223  0.1327
  158MOL0     C21218  11.164   7.607   7.647 -0.2648 -0.5643 -0.4292
  158MOL0     O21219  11.152   7.728   7.576 -0.3752  0.8467 -0.9642
  158MOL0     C21220  11.258   7.764   7.487 -0.2167  0.5324 -0.2705
  158MOL0     C21221  11.378   7.692   7.455  0.5210 -0.1403  0.1090
  158MOL0     C21222  11.458   7.727   7.348 -0.5973  0.3847 -0.9412
  158MOL0     C21223  11.447   7.860   7.290  0.1624 -0.2223  0.0149
  158MOL0     C21224  11.542   7.907   7.191  0.1482  0.1282  0.0011
  158MOL0     O21225  11.505   8.024   7.123  0.0025  0.4937 -0.1368
  158MOL0     C21226  11.580   8.085   7.031 -0.3002 -0.7257 -0.1616
  158MOL0     C21227  11.702   8.051   6.970 -0.3575 -0.5724  0.4477
  158MOL0     C21228  11.751   8.131   6.865 -0.2977  0.2752 -0.2502
  158MOL0     C21229  11.694   8.246   6.821 -0.3412  0.1411  0.0924
  158MOL0     O21230  11.755   8.308   6.714  0.4951  0.4520  0.1154
  158MOL0     C21231  11.695   8.425   6.661  0.3968 -0.4711  0.7235
  158MOL0     C21232  11.745   8.458   6.527  0.2580 -0.9948  0.9368
  158MOL0     C21233  11.706   8.603   6.481  0.1348 -0.8717 -0.4015
  158MOL0     C21234  11.709   8.627   6.326 -0.3411 -0.5068  0.1074
  158MOL0     C21235  11.629   8.761   6.304 -1.0362  0.5357  0.1069
  158MOL0     C21236  11.605   8.795   6.162  0.6258 -1.2103  0.3747
  158MOL0     C21237  11.522   8.688   6.100  0.3906 -0.2570 -0.0960
  158MOL0     C21238  11.476   8.710   5.956 -0.5523 -0.2458  0.2621
  158MOL0    Cl21239  11.324   8.623   5.918 -0.1515 -0.5508  0.2329
  158MOL0     C21240  11.571   8.283   6.884 -0.7248 -0.2494 -0.6002
  158MOL0     C21241  11.511   8.200   6.982 -0.4896 -0.1136 -0.0988
  158MOL0     O21242  11.637   7.837   7.160 -0.3439 -0.3461  0.2882
  158MOL0     C21243  11.340   7.932   7.325  0.3766  0.4576 -0.0478
  158MOL0     C21244  11.247   7.888   7.421  0.1194  0.3718 -0.3000
  158MOL0     N21245  10.988   7.159   7.981  0.4104  0.0664 -0.3145
  158MOL0     N21246  11.020   7.099   8.095  0.1025 -0.2844 -0.4699
  158MOL0     C21247  10.470   7.625   8.492  0.3675  0.2091  0.5691
  158MOL0     C21248  10.339   7.654   8.438 -0.1246 -0.3873  0.8535
  158MOL0     C21249   9.874   7.654   8.416  0.6582  0.1570  0.0314
  158MOL0     C21250   9.750   7.634   8.485  0.1206  0.8517 -0.4345
  158MOL0     C21251   9.631   7.619   8.412  0.7314 -0.0532 -1.1088
  158MOL0     C21252   9.631   7.642   8.279 -0.1269 -0.1889  0.1817
  158MOL0     O21253   9.515   7.647   8.213  0.4574 -0.5511 -1.0869
  158MOL0     C21254   9.463   7.523   8.179 -0.0412 -0.0226  0.1548
  158MOL0     C21255   9.359   7.536   8.074 -0.4998 -0.5994  0.1573
  158MOL0     C21256   9.412   7.625   7.961  0.4955  0.9880  0.7862
  158MOL0     C21257   9.306   7.602   7.855 -0.2687 -0.3250 -1.3372
  158MOL0     C21258   9.326   7.701   7.745  0.9460  0.9896 -0.5029
  158MOL0     C21259   9.335   7.757   7.636  0.0387  0.5835  0.1478
  158MOL0     C21260   9.745   7.667   8.207 -1.1662 -0.3073 -0.3340
  158MOL0     C21261   9.874   7.669   8.281  0.3075  0.4213 -0.1339
  158MOL0     C21262  10.008   7.689   8.211 -0.2939  0.4224  0.0069
  158MOL0     H21263  10.171   7.715   8.722  0.7354 -1.5687  1.3816
  158MOL0     H21264  10.397   7.684   8.814  0.2559  3.4542  0.5680
  158MOL0     H21265  10.670   7.486   8.514 -0.2934  0.3055  0.0353
  158MOL0     H21266  10.796   7.560   8.613  0.1294  1.5803 -0.4308
  158MOL0     H21267  10.608   7.340   8.719  0.0504  0.1561 -0.7441
  158MOL0     H21268  10.762   7.400   8.797 -1.3243 -0.6642  0.3684
  158MOL0     H21269  10.778   7.260   8.533  0.8806  3.5475 -0.5835
  158MOL0     H21270  10.754   7.161   8.690 -0.1552  0.4970  0.4629
  158MOL0     H21271  10.983   7.358   8.636  1.7591 -1.1668 -1.4325
  158MOL0     H21272  10.955   7.259   8.780  4.1364 -0.9876 -0.3156
  158MOL0     H21273  11.111   7.150   8.660  0.1872  1.6246  0.0918
  158MOL0     H21274  10.970   7.062   8.600 -2.0326  0.9188  0.8208
  158MOL0     H21275  10.988   7.252   8.407 -1.1366  1.2752  1.2431
  158MOL0     H21276  11.154   7.268   8.461 -1.8860  2.0647 -0.6333
  158MOL0     H21277  11.039   7.017   8.375 -0.8199  0.0961  2.4480
  158MOL0     H21278  11.176   7.019   8.473  0.0170  0.1896 -0.3429
  158MOL0     H21279  11.303   7.166   8.275  2.0543  0.6245 -3.3766
  158MOL0     H21280  11.267   7.009   8.240 -1.2101  0.0386  1.1245
  158MOL0     H21281  11.254   7.327   8.087 -1.6649  1.2836  4.0555
  158MOL0     H21282  11.185   7.350   7.808  0.9254 -0.8979  1.8545
  158MOL0     H21283  11.005   7.322   7.780 -2.3069  2.5430  1.4478
  158MOL0     H21284  10.950   7.499   7.918 -1.8564  1.0847 -2.3575
  158MOL0     H21285  11.118   7.554   7.933 -1.4541  1.5661 -1.0824
  158MOL0     H21286  11.005   7.702   7.779 -0.6236 -0.9671  2.9918
  158MOL0     H21287  10.953   7.578   7.688 -1.4954  2.7408  0.6553
  158MOL0     H21288  11.137   7.527   7.576 -0.7169  1.5929 -2.8394
  158MOL0     H21289  11.255   7.601   7.707 -0.0656  2.4663 -0.3176
  158MOL0     H21290  11.402   7.605   7.516  3.0233 -0.1516 -0.8033
  158MOL0     H21291  11.538   7.661   7.317  0.0496  1.3116 -1.3078
  158MOL0     H21292  11.741   7.953   6.996 -0.7443 -0.5956  0.9553
  158MOL0     H21293  11.841   8.094   6.818  1.7387  2.4554  1.6365
  158MOL0     H21294  11.586   8.425   6.658  0.4055 -0.4038  0.1536
  158MOL0     H21295  11.732   8.509   6.721  3.7404 -1.7745  0.6990
  158MOL0     H21296  11.855   8.453   6.533  0.7123  0.0839 -3.3687
  158MOL0     H21297  11.701   8.398   6.447  2.2643  1.7982 -2.5650
  158MOL0     H21298  11.606   8.624   6.519  0.4051 -0.3954  0.0616
  158MOL0     H21299  11.772   8.680   6.521 -1.1319  1.5781 -2.7607
  158MOL0     H21300  11.662   8.536   6.288 -0.0305 -2.2471  3.4467
  158MOL0     H21301  11.814   8.634   6.296 -0.0508  3.3091  1.4653
  158MOL0     H21302  11.674   8.847   6.354 -0.3424 -0.1601  0.7009
  158MOL0     H21303  11.532   8.736   6.348 -1.2241 -2.8238 -1.8314
  158MOL0     H21304  11.554   8.891   6.150 -0.6987 -1.8037  0.9591
  158MOL0     H21305  11.699   8.804   6.107 -1.1587 -0.7120 -2.9112
  158MOL0     H21306  11.434   8.665   6.160  1.2457 -0.2065  1.2281
  158MOL0     H21307  11.589   8.603   6.090  0.9215  0.2994 -1.6589
  158MOL0     H21308  11.455   8.816   5.939  1.7916  0.0056 -1.6609
  158MOL0     H21309  11.554   8.685   5.883  0.1335  0.1787  0.8322
  158MOL0     H21310  11.516   8.374   6.862  0.3635  1.4317  2.8688
  158MOL0     H21311  11.420   8.230   7.032  0.6584 -0.6883  2.5435
  158MOL0     H21312  11.327   8.030   7.279  3.3032  0.5966 -0.7369
  158MOL0     H21313  11.163   7.956   7.433 -1.0867 -1.1341  0.1093
  158MOL0     H21314  10.549   7.609   8.419  1.4560  0.8156  1.5967
  158MOL0     H21315  10.322   7.648   8.331 -0.2182 -1.5663  0.9164
  158MOL0     H21316   9.750   7.629   8.594  1.4998 -0.1294 -0.4578
  158MOL0     H21317   9.537   7.617   8.467  1.3940  2.2567  0.2658
  158MOL0     H21318   9.415   7.471   8.263  1.1323 -2.7722 -0.7703
  158MOL0     H21319   9.539   7.449   8.153 -0.8008 -0.2766 -1.4336
  158MOL0     H21320   9.275   7.593   8.116 -1.1684 -0.9757 -0.6582
  158MOL0     H21321   9.320   7.438   8.046 -1.6135 -0.8501  2.3799
  158MOL0     H21322   9.514   7.602   7.931  0.1341 -0.0575  0.3003
  158MOL0     H21323   9.392   7.722   8.008 -1.5694  0.1579  1.8005
  158MOL0     H21324   9.322   7.501   7.816  3.6354 -0.9844  1.3527
  158MOL0     H21325   9.202   7.615   7.886  0.1838 -0.4801  0.3739
  158MOL0     H21326   9.346   7.801   7.539  0.3464  0.0840 -0.0485
  158MOL0     H21327   9.742   7.661   8.099 -2.5712 -2.0157 -0.2521
  158MOL0     H21328   9.980   7.706   8.106 -0.9183  1.0214  0.2627
  158MOL0     H21329  10.054   7.783   8.243 -2.7878  1.0291  2.1398
  158MOL0     H21330  10.084   7.611   8.214 -1.1766 -0.5839 -1.7271
  159MOL0     O21331  10.274   9.259   7.725 -0.8944 -0.9436  0.7476
  159MOL0     C21332  10.331   9.230   7.622  0.6980  0.6301  0.0415
  159MOL0     O21333  10.264   9.203   7.505 -0.6728  0.0132 -0.0471
  159MOL0     C21334  10.148   9.269   7.470 -0.2105 -0.8445  0.3376
  159MOL0     C21335  10.124   9.391   7.516  0.3271  0.6182  0.0524
  159MOL0     C21336  10.005   9.460   7.486 -0.5097  0.2006 -0.4256
  159MOL0     C21337   9.911   9.406   7.394  0.2285 -0.2278 -0.8375
  159MOL0     O21338   9.795   9.469   7.370 -0.0055  0.9056  1.0103
  159MOL0     C21339   9.728   9.446   7.240  0.1607 -0.7424 -0.8752
  159MOL0     C21340   9.644   9.566   7.203  0.1080  0.8848  0.5155
  159MOL0     C21341   9.513   9.560   7.282  0.6080 -0.7384  0.1885
  159MOL0     C21342   9.405   9.652   7.208  0.3056  0.4645  0.1500
  159MOL0     C21343   9.293   9.693   7.298  0.6312 -0.5083 -0.4505
  159MOL0     C21344   9.199   9.795   7.222  0.6437  1.1892  0.1714
  159MOL0     C21345   9.077   9.833   7.301  0.8916 -0.2839  0.3300
  159MOL0     C21346   8.986   9.929   7.230 -0.0743 -0.1669  0.0537
  159MOL0     N21347   8.904   9.858   7.129 -0.6538  0.5380  0.4503
  159MOL0     C21348   8.943   9.825   6.999  0.1249  0.4157  0.6012
  159MOL0     C21349   8.845   9.750   6.948  0.4591  0.5357 -0.5460
  159MOL0     C21350   8.845   9.695   6.805 -1.3383  0.6393 -0.0849
  159MOL0     C21351   8.798   9.792   6.699  0.4032 -0.5640 -0.5584
  159MOL0     C21352   8.807   9.736   6.562 -0.0108 -0.6643  0.0283
  159MOL0     C21353   8.686   9.652   6.529 -0.3270 -0.0167  1.5839
  159MOL0     O21354   8.697   9.587   6.393 -0.2900  0.2057  0.2150
  159MOL0     C21355   8.631   9.629   6.286  0.1023 -1.0204  1.0020
  159MOL0     C21356   8.612   9.547   6.181 -0.3646 -0.5909  0.2966
  159MOL0     C21357   8.541   9.588   6.069  0.2291 -0.3069 -0.4793
  159MOL0     C21358   8.494   9.721   6.051  0.5203 -1.0298  0.2748
  159MOL0     C21359   8.425   9.764   5.925 -0.5628 -0.6473  0.0112
  159MOL0     O21360   8.395   9.665   5.837 -0.1113  0.7096  0.1991
  159MOL0     C21361   8.382   9.695   5.708 -0.8585 -0.2303  0.7091
  159MOL0     C21362   8.331   9.816   5.650 -0.6245  0.9960 -0.0078
  159MOL0     C21363   8.343   9.841   5.512  0.0642  0.3026  0.4989
  159MOL0     C21364   8.384   9.739   5.425  0.1517  0.1762 -0.4665
  159MOL0     O21365   8.383   9.764   5.292 -0.0309 -0.2527  0.9797
  159MOL0     C21366   8.353   9.662   5.203 -0.1765 -0.4502  0.8130
  159MOL0     C21367   8.204   9.623   5.180  0.6771  0.3172  0.3874
  159MOL0     C21368   8.187   9.511   5.069 -0.9775  0.1928 -0.3679
  159MOL0     C21369   8.047   9.455   5.045 -0.4215  0.3085  0.9352
  159MOL0     C21370   7.941   9.540   4.982 -1.1919 -0.5459  0.5622
  159MOL0     C21371   7.955   9.582   4.839  0.3315  0.3301  0.9613
  159MOL0     C21372   7.928   9.461   4.751  0.1517  0.5672  0.6493
  159MOL0     C21373   7.878   9.500   4.613 -0.2618 -0.0067  0.1851
  159MOL0    Cl21374   8.007   9.575   4.504  0.0413 -0.0229  0.2052
  159MOL0     C21375   8.433   9.624   5.485 -0.3015  0.6050  0.0250
  159MOL0     C21376   8.446   9.604   5.614  0.2571  0.2054 -0.4482
  159MOL0     O21377   8.422   9.888   5.905 -0.3565 -0.0292  1.3672
  159MOL0     C21378   8.514   9.801   6.160 -0.2661  0.9098 -0.6837
  159MOL0     C21379   8.575   9.757   6.280 -0.5144  0.0541  0.4227
  159MOL0     N21380   8.742   9.745   7.052 -0.2566 -0.3935 -0.0073
  159MOL0     N21381   8.781   9.813   7.151  0.0627  0.2132 -0.0502
  159MOL0     C21382   9.949   9.284   7.337  0.5689  0.1959  1.1891
  159MOL0     C21383  10.063   9.213   7.375 -0.4809 -0.2070 -0.4241
  159MOL0     C21384  10.476   9.213   7.621 -0.3392 -0.3043  0.6147
  159MOL0     C21385  10.545   9.195   7.496 -0.0096 -0.0396  0.0873
  159MOL0     C21386  10.679   9.191   7.485 -0.0142 -0.0091 -0.1891
  159MOL0     C21387  10.764   9.220   7.596  1.0274  0.5223 -0.0730
  159MOL0     O21388  10.897   9.208   7.596 -0.2846 -0.5097  0.0612
  159MOL0     C21389  10.973   9.204   7.472  0.5184  0.1758  0.7373
  159MOL0     C21390  11.131   9.194   7.499 -0.0048 -0.1907 -0.2410
  159MOL0     C21391  11.202   9.187   7.364 -0.5567  0.4802 -0.6188
  159MOL0     C21392  11.355   9.201   7.384 -1.2857  0.2464  0.2466
  159MOL0     C21393  11.411   9.077   7.436  0.7095 -0.6605 -0.2624
  159MOL0     C21394  11.460   8.971   7.484 -1.2575 -0.2754 -0.0319
  159MOL0     C21395  10.698   9.234   7.723 -0.5140 -0.2677 -0.2084
  159MOL0     C21396  10.557   9.215   7.728 -0.2498 -0.2556 -0.4812
  159MOL0     C21397  10.505   9.189   7.875 -0.4595  0.6377 -0.0768
  159MOL0     H21398  10.191   9.436   7.589  0.5438 -0.8831  0.8307
  159MOL0     H21399   9.984   9.546   7.548  1.5360  1.0163 -0.8121
  159MOL0     H21400   9.812   9.456   7.171 -0.6070 -0.6703 -1.8085
  159MOL0     H21401   9.675   9.350   7.237  0.9319 -1.2963  1.0826
  159MOL0     H21402   9.611   9.569   7.099  1.1595  0.8462  0.1718
  159MOL0     H21403   9.709   9.652   7.221  0.5084  0.5322  0.7748
  159MOL0     H21404   9.535   9.602   7.381 -1.9822 -0.2991  0.6457
  159MOL0     H21405   9.476   9.459   7.304 -2.1954  0.6897  2.7518
  159MOL0     H21406   9.456   9.742   7.170  1.5769  0.4450  1.6766
  159MOL0     H21407   9.360   9.606   7.120  3.8753 -1.4307 -0.8753
  159MOL0     H21408   9.228   9.607   7.320  1.0606 -0.1000  2.8527
  159MOL0     H21409   9.329   9.744   7.388  4.3902 -0.7201 -1.6901
  159MOL0     H21410   9.256   9.886   7.201 -1.2948  2.8712  1.7181
  159MOL0     H21411   9.161   9.737   7.138 -2.2165 -2.7492  3.7121
  159MOL0     H21412   9.102   9.884   7.394  1.5657 -2.3008  1.3030
  159MOL0     H21413   9.016   9.745   7.322 -0.9661  0.7806 -0.3601
  159MOL0     H21414   8.910   9.952   7.304  0.8854  0.6766  0.8004
  159MOL0     H21415   9.034  10.019   7.190  1.9096 -1.1603  0.0595
  159MOL0     H21416   9.033   9.850   6.945 -0.2472  0.4133 -0.0334
  159MOL0     H21417   8.950   9.680   6.778 -1.2543  2.3510 -0.8155
  159MOL0     H21418   8.798   9.596   6.799  0.9658 -0.5051 -0.1484
  159MOL0     H21419   8.692   9.809   6.716  0.6063 -0.4079  0.6447
  159MOL0     H21420   8.842   9.892   6.705 -0.9479 -0.0415  2.2698
  159MOL0     H21421   8.899   9.680   6.541  1.2376  2.1492 -2.8869
  159MOL0     H21422   8.819   9.821   6.494  1.2057 -0.7417  0.1238
  159MOL0     H21423   8.599   9.716   6.544  0.2000  1.0863  0.1943
  159MOL0     H21424   8.678   9.575   6.606  0.9810  1.2257  3.0163
  159MOL0     H21425   8.650   9.446   6.182  1.2423 -0.0805 -2.2513
  159MOL0     H21426   8.534   9.532   5.976  1.3773  0.3246 -0.9725
  159MOL0     H21427   8.284   9.888   5.716 -1.4726  0.7813 -0.3593
  159MOL0     H21428   8.325   9.939   5.469 -0.3734 -1.2170 -3.1034
  159MOL0     H21429   8.389   9.696   5.105 -0.5161 -2.5929 -0.1235
  159MOL0     H21430   8.408   9.570   5.226 -1.7693 -1.8655 -0.6888
  159MOL0     H21431   8.167   9.583   5.274  3.1270 -4.0229 -0.2431
  159MOL0     H21432   8.135   9.703   5.150  0.0527  0.4913  2.1659
  159MOL0     H21433   8.243   9.549   4.983  3.8412  1.4306  2.8802
  159MOL0     H21434   8.254   9.426   5.089 -2.6030 -1.5865 -2.0042
  159MOL0     H21435   8.009   9.406   5.135 -1.5623  2.9916  2.0329
  159MOL0     H21436   8.054   9.357   4.997  1.9449  1.3308 -1.0490
  159MOL0     H21437   7.940   9.622   5.055  2.7126 -0.8478  1.1894
  159MOL0     H21438   7.848   9.483   4.992 -0.2652 -2.4332 -0.8086
  159MOL0     H21439   7.887   9.667   4.832 -0.0660  0.6319  5.5057
  159MOL0     H21440   8.055   9.608   4.802  0.0680 -2.1158 -1.9573
  159MOL0     H21441   7.848   9.402   4.796  1.5635 -0.5534  1.8073
  159MOL0     H21442   8.018   9.399   4.756  0.0913  0.5414  1.7169
  159MOL0     H21443   7.858   9.405   4.563 -0.3511  0.6497 -1.0580
  159MOL0     H21444   7.789   9.563   4.614  0.2770  0.8824 -1.8660
  159MOL0     H21445   8.468   9.546   5.418  1.1379  0.0166  1.4101
  159MOL0     H21446   8.507   9.522   5.650 -0.6038 -0.9194 -1.4738
  159MOL0     H21447   8.485   9.905   6.161  2.0218  1.5930 -0.8229
  159MOL0     H21448   8.587   9.829   6.360 -0.3590  0.1477  0.3147
  159MOL0     H21449   9.883   9.234   7.266  1.3677 -0.5878  0.9683
  159MOL0     H21450  10.097   9.125   7.322 -0.7435 -0.0043 -0.9385
  159MOL0     H21451  10.483   9.179   7.409 -0.0520 -0.3597  0.1764
  159MOL0     H21452  10.714   9.159   7.387 -0.5738  0.2217 -0.4737
  159MOL0     H21453  10.959   9.298   7.418 -0.7158 -1.6920 -2.4243
  159MOL0     H21454  10.943   9.120   7.410 -0.7114  0.4754  0.9159
  159MOL0     H21455  11.161   9.100   7.545  0.4600 -0.2617 -0.6837
  159MOL0     H21456  11.164   9.277   7.562 -3.0397 -1.3564  3.2917
  159MOL0     H21457  11.168   9.271   7.303  1.0713  0.1980 -2.0168
  159MOL0     H21458  11.177   9.087   7.328 -0.0568 -0.5564  1.6935
  159MOL0     H21459  11.406   9.235   7.294 -1.9998  0.1236 -0.2158
  159MOL0     H21460  11.393   9.282   7.446  1.9681  1.5317 -3.0515
  159MOL0     H21461  11.515   8.891   7.527 -0.4069  0.1517 -0.2951
  159MOL0     H21462  10.761   9.242   7.811 -2.1061 -1.4783  1.1034
  159MOL0     H21463  10.578   9.231   7.945 -3.1787  1.3498  2.5687
  159MOL0     H21464  10.410   9.232   7.908 -1.8686 -0.9241 -1.8462
  159MOL0     H21465  10.503   9.080   7.883 -2.4292  0.4408 -2.0432
  160MOL0     O21466   2.600   2.605   0.218 -0.3929 -0.3316 -0.3661
  160MOL0     C21467   2.564   2.556   0.114 -1.0660 -0.5180  0.0255
  160MOL0     O21468   2.632   2.562  -0.007  0.3551 -0.3596  0.2614
  160MOL0     C21469   2.738   2.652  -0.015  0.0722 -0.7153  0.8963
  160MOL0     C21470   2.713   2.758  -0.106  0.9475 -0.0307  0.1714
  160MOL0     C21471   2.813   2.856  -0.128  0.3267  0.6970 -0.3502
  160MOL0     C21472   2.947   2.841  -0.065  0.5632 -0.2929 -0.0173
  160MOL0     O21473   3.044   2.924  -0.093 -0.4909 -1.3055  0.0924
  160MOL0     C21474   3.120   2.886  -0.206  0.1842 -0.4239 -0.0957
  160MOL0     C21475   3.197   3.011  -0.266  0.8995 -0.2604 -0.4503
  160MOL0     C21476   3.106   3.130  -0.310 -0.3788  0.1162 -0.4002
  160MOL0     C21477   3.214   3.244  -0.334 -0.3099  0.4781 -0.3406
  160MOL0     C21478   3.225   3.327  -0.203 -0.3087  0.1870 -1.1295
  160MOL0     C21479   3.099   3.395  -0.143  0.2343  0.1318  0.0062
  160MOL0     C21480   3.029   3.486  -0.242 -0.6590 -0.6591  0.7464
  160MOL0     C21481   3.117   3.610  -0.260  0.7835 -1.1081 -0.0034
  160MOL0     N21482   3.138   3.681  -0.128 -0.1352  0.2856  0.1617
  160MOL0     C21483   3.058   3.771  -0.068  1.4235 -0.3381  0.6437
  160MOL0     C21484   3.121   3.797   0.045 -0.4207 -0.6408 -0.5461
  160MOL0     C21485   3.065   3.867   0.164 -0.1047 -0.7720 -0.3665
  160MOL0     C21486   3.086   3.774   0.294  0.3739  0.5374 -0.2735
  160MOL0     C21487   3.187   3.825   0.394 -0.2812  0.5969 -0.0691
  160MOL0     C21488   3.338   3.803   0.355 -0.0621  0.1399  0.2690
  160MOL0     O21489   3.420   3.788   0.465  0.1020  0.3740  0.2387
  160MOL0     C21490   3.556   3.774   0.437  0.2431  0.5713 -0.0910
  160MOL0     C21491   3.622   3.746   0.315  0.1134 -0.1377 -0.3877
  160MOL0     C21492   3.762   3.740   0.310  0.5550 -0.4097  0.4463
  160MOL0     C21493   3.838   3.741   0.430 -0.7310  0.9976  0.6083
  160MOL0     C21494   3.989   3.726   0.433 -0.0662  0.6524  0.3774
  160MOL0     O21495   4.049   3.723   0.551  0.4783  0.1329  0.6726
  160MOL0     C21496   4.164   3.641   0.561  0.7353  0.6135 -0.4272
  160MOL0     C21497   4.258   3.671   0.662  0.2768  0.1954  0.0068
  160MOL0     C21498   4.364   3.580   0.688  0.1333  0.4860 -0.7590
  160MOL0     C21499   4.382   3.458   0.624  0.3420  0.1230 -0.6430
  160MOL0     O21500   4.496   3.381   0.633  0.3720  0.5199 -0.0924
  160MOL0     C21501   4.534   3.341   0.769 -0.2336  0.2084  0.7864
  160MOL0     C21502   4.683   3.314   0.779 -0.3305  0.4768  0.1417
  160MOL0     C21503   4.761   3.434   0.762  0.7810 -0.9490  0.2283
  160MOL0     C21504   4.900   3.431   0.811 -0.5032 -0.9713 -0.2251
  160MOL0     C21505   4.993   3.366   0.706 -1.3521 -0.3830  0.3800
  160MOL0     C21506   5.138   3.385   0.742 -0.1923  0.1463 -0.1128
  160MOL0     C21507   5.225   3.296   0.650  0.4841  0.6853 -0.1893
  160MOL0     C21508   5.376   3.312   0.678  0.6155 -0.5726 -0.8677
  160MOL0    Cl21509   5.429   3.468   0.625 -0.0528  0.1265  0.2449
  160MOL0     C21510   4.286   3.433   0.520  0.1268  0.0903  0.3774
  160MOL0     C21511   4.184   3.517   0.493 -0.1202 -0.0281 -0.1872
  160MOL0     O21512   4.042   3.712   0.328  0.2914 -0.6657 -0.2222
  160MOL0     C21513   3.774   3.763   0.554  0.5274  0.0886 -0.2354
  160MOL0     C21514   3.635   3.783   0.554 -0.6515  0.0926  0.4615
  160MOL0     N21515   3.249   3.750   0.039 -1.0078  0.0584  0.1148
  160MOL0     N21516   3.264   3.681  -0.068 -0.3583 -0.3900 -0.1858
  160MOL0     C21517   2.963   2.739   0.034  0.1590  0.1911 -0.7502
  160MOL0     C21518   2.860   2.643   0.055 -0.2947 -0.0250 -0.2286
  160MOL0     C21519   2.451   2.465   0.138 -0.5783  0.6437 -0.2337
  160MOL0     C21520   2.359   2.489   0.248  0.2082  0.2807  0.3115
  160MOL0     C21521   2.248   2.404   0.277 -0.0046 -0.4221  0.9557
  160MOL0     C21522   2.218   2.303   0.171 -0.5015  0.7642 -1.0378
  160MOL0     O21523   2.123   2.219   0.210  1.2295 -0.2233 -0.3838
  160MOL0     C21524   2.090   2.105   0.135 -0.1940 -0.7566 -0.1832
  160MOL0     C21525   1.948   2.058   0.170 -1.5335 -0.3221 -0.2483
  160MOL0     C21526   1.852   2.170   0.157  0.2774 -0.3731  0.0695
  160MOL0     C21527   1.713   2.126   0.191 -0.3319  0.0769  0.2196
  160MOL0     C21528   1.666   2.008   0.120 -0.3007 -0.8340 -0.5527
  160MOL0     C21529   1.633   1.892   0.081 -0.1594 -0.4756  0.0147
  160MOL0     C21530   2.315   2.280   0.073  1.3451  0.7254  0.5390
  160MOL0     C21531   2.428   2.351   0.052 -0.0794 -0.4592 -0.6475
  160MOL0     C21532   2.520   2.308  -0.049  0.0624 -0.0287  0.2708
  160MOL0     H21533   2.621   2.782  -0.158  0.9529 -2.6585 -1.2525
  160MOL0     H21534   2.810   2.933  -0.205  2.5549  1.9573  0.7212
  160MOL0     H21535   3.191   2.804  -0.191 -0.6829 -0.9581  1.3263
  160MOL0     H21536   3.052   2.856  -0.285  0.4568  1.7572 -1.2400
  160MOL0     H21537   3.254   2.965  -0.347  1.7095 -3.6134  1.8368
  160MOL0     H21538   3.272   3.046  -0.194  1.7197 -1.6145 -0.6255
  160MOL0     H21539   3.035   3.146  -0.228  1.9894 -0.0366  1.7899
  160MOL0     H21540   3.053   3.103  -0.401  0.9506 -2.0740 -0.5971
  160MOL0     H21541   3.312   3.198  -0.349 -0.1148  1.0029 -0.6790
  160MOL0     H21542   3.191   3.312  -0.417 -2.1566 -0.9382 -1.0587
  160MOL0     H21543   3.249   3.265  -0.116 -2.6877  4.3486  2.9228
  160MOL0     H21544   3.303   3.403  -0.215 -0.4046  0.1660 -1.9356
  160MOL0     H21545   3.018   3.326  -0.116 -1.1972  0.7813 -2.3408
  160MOL0     H21546   3.126   3.440  -0.047  1.9540 -1.3239  0.2609
  160MOL0     H21547   2.928   3.513  -0.210  0.5955  1.0585  3.7119
  160MOL0     H21548   3.019   3.439  -0.340  1.8972  1.2673 -0.5617
  160MOL0     H21549   3.215   3.587  -0.303  1.6413 -1.3989  2.0029
  160MOL0     H21550   3.067   3.682  -0.326  5.8764  4.3686  1.2952
  160MOL0     H21551   2.964   3.809  -0.106  2.3327 -1.1418 -2.7609
  160MOL0     H21552   3.122   3.959   0.171  0.3614 -1.0539 -0.4217
  160MOL0     H21553   2.958   3.888   0.152 -0.8372 -2.8697  1.5719
  160MOL0     H21554   2.993   3.760   0.349  0.4926 -0.9583 -0.4152
  160MOL0     H21555   3.126   3.675   0.269 -1.0820 -0.7671  2.2329
  160MOL0     H21556   3.168   3.781   0.492  0.6661 -1.8270 -0.9180
  160MOL0     H21557   3.165   3.931   0.411 -3.3508  0.2706 -1.3423
  160MOL0     H21558   3.365   3.886   0.290  0.3736  1.5363  2.1677
  160MOL0     H21559   3.345   3.712   0.294  2.7182  1.3846 -1.4748
  160MOL0     H21560   3.564   3.727   0.225  0.5606 -5.1059  0.0706
  160MOL0     H21561   3.807   3.731   0.212  0.9261 -1.9006  0.7342
  160MOL0     H21562   4.248   3.767   0.711  2.7310  0.7067 -0.3907
  160MOL0     H21563   4.436   3.610   0.763 -1.5070  1.3553  0.5461
  160MOL0     H21564   4.509   3.421   0.838 -2.8412 -3.0095  3.9715
  160MOL0     H21565   4.477   3.252   0.796 -0.4760  0.1968  0.2414
  160MOL0     H21566   4.701   3.268   0.877  4.6357 -1.4420 -1.3518
  160MOL0     H21567   4.704   3.239   0.703  0.6178  0.4041  0.4645
  160MOL0     H21568   4.767   3.465   0.658 -1.3539 -0.6721  0.1546
  160MOL0     H21569   4.712   3.512   0.821  0.9970  0.8032 -1.8068
  160MOL0     H21570   4.903   3.390   0.912  1.0804  0.0467  0.1773
  160MOL0     H21571   4.924   3.538   0.813 -2.1208 -0.3199 -4.2987
  160MOL0     H21572   4.980   3.417   0.610  2.3237 -2.4394 -1.4360
  160MOL0     H21573   4.962   3.262   0.701 -0.1922 -0.9186  2.9777
  160MOL0     H21574   5.169   3.488   0.720 -3.4708  0.9474 -1.5575
  160MOL0     H21575   5.162   3.353   0.844 -2.2729 -0.2823  0.2779
  160MOL0     H21576   5.213   3.298   0.541  0.9025  1.3794 -0.2325
  160MOL0     H21577   5.211   3.190   0.672 -0.5368  1.1209  1.4018
  160MOL0     H21578   5.391   3.309   0.786  0.4547 -3.0693 -0.8530
  160MOL0     H21579   5.425   3.228   0.629 -2.4165 -1.3369 -2.8413
  160MOL0     H21580   4.299   3.351   0.450  0.7997  0.3356  0.2096
  160MOL0     H21581   4.112   3.475   0.422  2.2927 -1.5918 -1.8480
  160MOL0     H21582   3.831   3.786   0.644 -0.8343  1.4773  0.3342
  160MOL0     H21583   3.590   3.805   0.650 -3.3677 -1.4988 -0.3367
  160MOL0     H21584   3.055   2.739   0.091  1.1285  1.8537 -2.2170
  160MOL0     H21585   2.858   2.575   0.140 -1.9177 -0.5871 -0.6739
  160MOL0     H21586   2.379   2.572   0.315  0.4809 -1.1313  2.0479
  160MOL0     H21587   2.188   2.418   0.367 -0.9594  0.9466  0.1384
  160MOL0     H21588   2.148   2.019   0.168 -3.5090 -2.3512  2.1713
  160MOL0     H21589   2.093   2.127   0.028  2.6111  0.6641  0.1062
  160MOL0     H21590   1.957   2.017   0.271 -1.1237  0.7259  0.1446
  160MOL0     H21591   1.942   1.976   0.097  3.5702  0.9073 -2.5045
  160MOL0     H21592   1.846   2.214   0.057 -0.3282 -1.2627 -0.2918
  160MOL0     H21593   1.875   2.251   0.228  0.1325  0.7567 -1.1356
  160MOL0     H21594   1.710   2.099   0.297 -0.5277 -2.0759 -0.2895
  160MOL0     H21595   1.649   2.213   0.175 -0.4132 -0.0982 -0.4724
  160MOL0     H21596   1.608   1.789   0.063  0.1696 -1.6244  4.7848
  160MOL0     H21597   2.297   2.202  -0.000  0.2169  0.8162  0.6995
  160MOL0     H21598   2.501   2.350  -0.149  0.4839  1.4301  0.7830
  160MOL0     H21599   2.626   2.326  -0.031  0.1709  1.8751 -1.8004
  160MOL0     H21600   2.504   2.200  -0.055 -0.9090  0.1284 -0.2876
  161MOL0     O21601  10.648   1.928   8.249  1.6271 -0.1956 -0.9841
  161MOL0     C21602  10.654   1.983   8.140  0.0634  0.1676 -0.9722
  161MOL0     O21603  10.559   2.051   8.072  0.1069  0.2797  0.2312
  161MOL0     C21604  10.424   2.031   8.098 -0.4168 -0.4288  0.1216
  161MOL0     C21605  10.335   2.107   8.023  0.1241  0.7476 -1.0914
  161MOL0     C21606  10.197   2.085   8.027 -0.0520  0.6331 -0.6375
  161MOL0     C21607  10.140   1.983   8.112  0.3538  0.2389  1.0413
  161MOL0     O21608  10.005   1.944   8.120  0.7507  0.2192  0.1558
  161MOL0     C21609   9.894   2.010   8.050 -0.4797 -0.6702 -0.0394
  161MOL0     C21610   9.851   1.941   7.919  0.1847  0.0031 -0.3389
  161MOL0     C21611   9.874   1.785   7.916  0.5768  0.3029  0.1578
  161MOL0     C21612   9.818   1.707   7.799  0.2997  0.1106 -0.0600
  161MOL0     C21613   9.668   1.702   7.804 -0.5314  0.9171  0.1465
  161MOL0     C21614   9.611   1.602   7.701  0.3489  0.6821  0.1511
  161MOL0     C21615   9.452   1.598   7.696 -0.7236 -0.2987  0.2225
  161MOL0     C21616   9.388   1.519   7.806 -0.3505  0.3720  0.0062
  161MOL0     N21617   9.246   1.499   7.783  0.3925 -0.2174 -0.3591
  161MOL0     C21618   9.195   1.415   7.696  0.3839  0.1971 -0.0282
  161MOL0     C21619   9.064   1.446   7.688 -0.0923  0.6691  0.0322
  161MOL0     C21620   8.967   1.388   7.599 -0.0558 -0.1644  0.3930
  161MOL0     C21621   9.007   1.442   7.458  0.1795 -0.6269 -0.5036
  161MOL0     C21622   8.939   1.578   7.424 -0.9376 -0.3987  0.0623
  161MOL0     C21623   9.009   1.643   7.310 -0.5147  0.1980 -0.2420
  161MOL0     O21624   9.146   1.641   7.335  0.4438 -0.7906 -0.3800
  161MOL0     C21625   9.249   1.683   7.245  0.0010  0.5061 -0.1076
  161MOL0     C21626   9.230   1.685   7.107 -0.2304  0.3236 -0.0435
  161MOL0     C21627   9.338   1.724   7.028 -0.4042 -0.6831  0.1138
  161MOL0     C21628   9.457   1.773   7.091  0.5452  0.0335  0.2963
  161MOL0     C21629   9.568   1.839   7.016  0.3669 -0.4466  0.0532
  161MOL0     O21630   9.677   1.886   7.089  0.5357  0.1240 -0.2835
  161MOL0     C21631   9.797   1.923   7.031  0.1217  0.8418 -0.3258
  161MOL0     C21632   9.898   1.983   7.102 -0.1011 -0.2587 -0.2321
  161MOL0     C21633  10.019   2.024   7.038  0.3331  0.2564  0.4337
  161MOL0     C21634  10.059   1.998   6.913  0.7012 -0.1850  0.2256
  161MOL0     O21635  10.184   2.041   6.881 -0.9556 -0.4420 -0.4242
  161MOL0     C21636  10.254   1.950   6.784 -0.2451  0.4364  0.0419
  161MOL0     C21637  10.377   2.018   6.740 -0.2479 -0.3303 -0.1408
  161MOL0     C21638  10.367   2.163   6.671  0.1624  0.3320 -0.2440
  161MOL0     C21639  10.494   2.248   6.684  1.0865  0.5454  0.6331
  161MOL0     C21640  10.630   2.169   6.664  0.3634  0.1656  0.0092
  161MOL0     C21641  10.767   2.246   6.661 -0.5760 -0.0181 -0.1872
  161MOL0     C21642  10.886   2.158   6.611 -0.3784  0.0024  0.3774
  161MOL0     C21643  10.973   2.238   6.521  0.5021 -0.0610 -0.0682
  161MOL0    Cl21644  11.139   2.173   6.499  0.0790 -0.5890  0.1962
  161MOL0     C21645   9.961   1.931   6.837 -0.8285 -0.2177  0.0193
  161MOL0     C21646   9.834   1.894   6.890  0.7231  0.5770 -0.1333
  161MOL0     O21647   9.555   1.847   6.896 -0.1925 -0.7400 -0.0082
  161MOL0     C21648   9.466   1.760   7.229 -0.1476  0.6098  0.2718
  161MOL0     C21649   9.368   1.709   7.306  1.1262 -0.3071  0.1751
  161MOL0     N21650   9.034   1.553   7.765 -0.8548  0.2261  0.3606
  161MOL0     N21651   9.151   1.579   7.837  0.9134  0.6238  0.2545
  161MOL0     C21652  10.222   1.918   8.198 -0.8431 -0.4368  0.6024
  161MOL0     C21653  10.365   1.936   8.183 -0.6247  0.7398 -0.5973
  161MOL0     C21654  10.792   1.990   8.081  0.3627 -0.0955 -0.0627
  161MOL0     C21655  10.805   1.964   7.941 -0.0004  0.5698  0.0114
  161MOL0     C21656  10.938   1.965   7.894 -0.1634 -0.1011 -0.3325
  161MOL0     C21657  11.054   1.981   7.968 -0.9708  0.1790 -0.0979
  161MOL0     O21658  11.178   1.970   7.911 -0.4416  0.1312 -0.0307
  161MOL0     C21659  11.295   1.955   7.994 -0.4094 -0.0306 -0.3189
  161MOL0     C21660  11.307   1.821   8.069 -0.6025 -0.6156 -0.0509
  161MOL0     C21661  11.443   1.800   8.142  0.0147 -0.5587 -0.0837
  161MOL0     C21662  11.450   1.648   8.181  0.4067 -0.7553 -0.0011
  161MOL0     C21663  11.581   1.623   8.248  0.9291  0.1724 -1.3756
  161MOL0     C21664  11.698   1.599   8.276 -0.3366 -0.2688  0.0457
  161MOL0     C21665  11.026   2.027   8.095 -0.3409  0.7650  0.1363
  161MOL0     C21666  10.905   2.028   8.153  0.9413  0.2752  0.4463
  161MOL0     C21667  10.896   2.096   8.289 -0.4722 -0.0103  0.0868
  161MOL0     H21668  10.379   2.179   7.954 -0.8592  1.7276 -0.7351
  161MOL0     H21669  10.125   2.137   7.964 -1.1287  0.4131  0.3676
  161MOL0     H21670   9.815   2.018   8.125  0.9171  1.5245  1.3142
  161MOL0     H21671   9.924   2.109   8.014 -2.0009 -0.6978 -1.5479
  161MOL0     H21672   9.911   1.977   7.835  0.2548  0.2006 -0.2045
  161MOL0     H21673   9.747   1.965   7.899  0.8597  2.6897 -0.9382
  161MOL0     H21674   9.835   1.740   8.007  1.8901 -1.2854 -0.0244
  161MOL0     H21675   9.982   1.767   7.914  0.1034 -3.2395 -2.2151
  161MOL0     H21676   9.847   1.755   7.705  0.5891  0.9082  0.4334
  161MOL0     H21677   9.855   1.604   7.792  0.8019  0.1941  1.1099
  161MOL0     H21678   9.644   1.679   7.909 -0.1678 -1.1951 -0.1895
  161MOL0     H21679   9.622   1.799   7.781  0.8035  1.0832 -2.0934
  161MOL0     H21680   9.649   1.624   7.600  1.1651 -0.8732  0.0822
  161MOL0     H21681   9.651   1.502   7.723  2.7725  1.8214  1.2354
  161MOL0     H21682   9.431   1.555   7.598 -0.0544  1.2067 -0.6047
  161MOL0     H21683   9.414   1.701   7.697 -0.3737 -0.1723  0.6336
  161MOL0     H21684   9.422   1.416   7.822 -1.0279  0.5646  3.3608
  161MOL0     H21685   9.408   1.564   7.904  1.2224  3.1728 -1.4774
  161MOL0     H21686   9.250   1.352   7.626 -0.3602 -0.1293 -0.3313
  161MOL0     H21687   8.980   1.279   7.600  1.5233 -0.0092  0.1842
  161MOL0     H21688   8.870   1.423   7.633 -0.0888  0.4961 -0.3504
  161MOL0     H21689   9.116   1.450   7.449 -0.0876  1.7877 -2.7032
  161MOL0     H21690   8.972   1.375   7.380  0.6983 -0.5304 -0.8214
  161MOL0     H21691   8.958   1.645   7.508  0.8976 -2.6667  1.5748
  161MOL0     H21692   8.833   1.562   7.404 -0.7941 -2.7202  0.8845
  161MOL0     H21693   8.978   1.747   7.297  0.4283  0.3318 -1.6782
  161MOL0     H21694   8.989   1.587   7.218 -0.7976  0.6359 -0.4473
  161MOL0     H21695   9.131   1.661   7.070 -0.3958  1.1805 -0.1860
  161MOL0     H21696   9.340   1.736   6.920  1.8054 -0.8484  0.0984
  161MOL0     H21697   9.876   2.019   7.202  2.1509  2.5266 -0.6246
  161MOL0     H21698  10.085   2.076   7.106  0.1019 -3.1007  3.5585
  161MOL0     H21699  10.289   1.859   6.834  1.8221  1.5153  0.6728
  161MOL0     H21700  10.192   1.918   6.700 -1.6518 -0.2417  1.2952
  161MOL0     H21701  10.440   2.038   6.827 -2.2122  2.4654  0.7870
  161MOL0     H21702  10.431   1.952   6.673  1.3564 -0.1299  0.9078
  161MOL0     H21703  10.359   2.137   6.566 -1.0323 -2.7328  0.5042
  161MOL0     H21704  10.279   2.217   6.707 -0.1680  0.3195 -1.0332
  161MOL0     H21705  10.488   2.284   6.787  0.7913  3.6998 -0.3955
  161MOL0     H21706  10.496   2.329   6.611  1.8043 -3.4652 -4.3393
  161MOL0     H21707  10.618   2.100   6.579 -0.1388 -0.1125  0.3026
  161MOL0     H21708  10.627   2.096   6.746 -0.3030  0.4024  0.1951
  161MOL0     H21709  10.743   2.325   6.589 -1.1778  0.5395  0.6200
  161MOL0     H21710  10.788   2.292   6.757  1.9592 -1.9495  0.3055
  161MOL0     H21711  10.851   2.061   6.576 -0.4647  0.2848 -0.3279
  161MOL0     H21712  10.952   2.130   6.694 -1.2401  2.0430  1.8347
  161MOL0     H21713  10.927   2.242   6.422  0.3480 -2.1416 -0.1249
  161MOL0     H21714  10.977   2.343   6.552  2.3407 -0.0851 -0.1131
  161MOL0     H21715   9.984   1.914   6.732 -0.7907  3.4053 -0.6880
  161MOL0     H21716   9.765   1.859   6.814 -1.9149  0.3702  2.1851
  161MOL0     H21717   9.553   1.787   7.288  0.9412 -1.2406 -0.3960
  161MOL0     H21718   9.375   1.688   7.412  1.1285 -1.6950 -0.0729
  161MOL0     H21719  10.184   1.839   8.262 -2.4694  1.2013  1.7337
  161MOL0     H21720  10.428   1.859   8.227  1.9796  1.6729 -2.4738
  161MOL0     H21721  10.718   1.947   7.879  0.7348  1.6869 -1.3995
  161MOL0     H21722  10.950   1.935   7.790 -0.0694  1.8782 -0.9334
  161MOL0     H21723  11.312   2.038   8.063  2.0688 -1.8426  1.4437
  161MOL0     H21724  11.380   1.971   7.926 -0.7267 -1.6260 -1.1221
  161MOL0     H21725  11.304   1.735   8.001  1.5253 -0.3873 -0.4943
  161MOL0     H21726  11.232   1.811   8.148  1.2226  2.4608  2.3066
  161MOL0     H21727  11.448   1.866   8.229  5.1172 -0.8052  0.0790
  161MOL0     H21728  11.525   1.830   8.076 -0.4042 -0.9741 -0.8046
  161MOL0     H21729  11.359   1.618   8.235  0.3607  0.9015  0.9172
  161MOL0     H21730  11.443   1.580   8.096 -1.9324 -2.1267  1.1797
  161MOL0     H21731  11.794   1.577   8.318 -1.1127 -3.2620  0.4965
  161MOL0     H21732  11.105   2.065   8.159 -0.2443 -2.5489  2.2519
  161MOL0     H21733  10.913   2.026   8.371  0.2493  1.1335  0.9343
  161MOL0     H21734  10.970   2.174   8.304  0.3285 -0.8569  0.6527
  161MOL0     H21735  10.796   2.136   8.311  0.0144  2.0091 -1.1151
  162MOL0     O21736   7.521   8.734  10.991 -0.3307  0.7911 -0.4785
  162MOL0     C21737   7.634   8.729  11.031  0.2764  0.3854 -0.5146
  162MOL0     O21738   7.666   8.721  11.166  0.1143  0.1481 -0.4820
  162MOL0     C21739   7.571   8.778  11.248 -0.2837 -0.5230 -0.3348
  162MOL0     C21740   7.575   8.918  11.255  0.1112 -0.5810 -0.5562
  162MOL0     C21741   7.488   8.988  11.338  0.0263 -0.9553 -0.0033
  162MOL0     C21742   7.376   8.918  11.388 -0.1641 -0.0038  0.2544
  162MOL0     O21743   7.276   8.986  11.462  0.4379  0.9759  0.4564
  162MOL0     C21744   7.242   9.114  11.415 -0.8811  0.0562 -1.0554
  162MOL0     C21745   7.089   9.149  11.450  0.8762  0.8242  0.4652
  162MOL0     C21746   7.049   9.272  11.367 -0.0258 -0.1708  1.0258
  162MOL0     C21747   7.129   9.393  11.415  0.1336 -0.0508  0.7374
  162MOL0     C21748   7.130   9.515  11.322  0.8050 -0.0898 -0.9127
  162MOL0     C21749   7.152   9.481  11.175  0.8258  0.2127 -0.2457
  162MOL0     C21750   7.290   9.412  11.179  0.3432 -0.1209  0.0843
  162MOL0     C21751   7.358   9.445  11.042  0.3416 -0.3971 -0.0721
  162MOL0     N21752   7.487   9.393  11.011  0.7290  0.0023  0.2338
  162MOL0     C21753   7.533   9.269  11.050  0.3264  0.3150 -0.6153
  162MOL0     C21754   7.658   9.267  10.997  0.9644  0.5040  0.7767
  162MOL0     C21755   7.767   9.169  11.012 -0.5104  0.1075 -0.3904
  162MOL0     C21756   7.823   9.081  10.898 -0.0658  0.3177  0.6688
  162MOL0     C21757   7.813   9.175  10.767  0.0568  0.2193 -0.0523
  162MOL0     C21758   7.909   9.116  10.657  0.2042  0.0918  0.8177
  162MOL0     O21759   8.040   9.132  10.700 -0.2672 -0.7796 -0.0457
  162MOL0     C21760   8.139   9.109  10.609  0.6648  0.5333  0.0073
  162MOL0     C21761   8.221   9.210  10.575 -0.3675 -0.2914 -0.3684
  162MOL0     C21762   8.335   9.200  10.494 -1.6586 -0.5279 -1.1212
  162MOL0     C21763   8.375   9.066  10.459 -0.5546 -1.3164  0.4731
  162MOL0     C21764   8.511   9.047  10.402  0.8899 -1.1631  0.4381
  162MOL0     O21765   8.575   9.163  10.381 -0.5938 -0.1564  0.3881
  162MOL0     C21766   8.710   9.151  10.352  1.1053  0.3718 -0.4486
  162MOL0     C21767   8.786   9.058  10.429 -0.1269  0.3399  0.9633
  162MOL0     C21768   8.923   9.053  10.402  0.4900  0.4764 -0.2340
  162MOL0     C21769   8.988   9.143  10.318  0.4388  1.3020 -1.1896
  162MOL0     O21770   9.122   9.181  10.331  0.5990 -1.1231  1.1309
  162MOL0     C21771   9.167   9.219  10.460  0.1175  0.5848  0.7200
  162MOL0     C21772   9.322   9.225  10.465 -0.3238 -0.3972 -0.2532
  162MOL0     C21773   9.372   9.359  10.394 -1.2917 -0.0288 -0.0519
  162MOL0     C21774   9.527   9.357  10.390  0.1567 -0.0459 -0.3438
  162MOL0     C21775   9.581   9.463  10.289 -1.4996  0.1482 -0.2295
  162MOL0     C21776   9.735   9.444  10.281 -0.3417 -1.0872  0.3214
  162MOL0     C21777   9.784   9.548  10.175  0.1208  0.4877 -0.3248
  162MOL0     C21778   9.915   9.497  10.122 -0.5091  0.4193  0.7089
  162MOL0    Cl21779   9.956   9.599   9.975  0.2134 -0.3669 -0.2841
  162MOL0     C21780   8.915   9.232  10.244 -0.1797  0.3317 -0.6260
  162MOL0     C21781   8.775   9.235  10.255  0.7475 -0.2445 -0.8822
  162MOL0     O21782   8.535   8.941  10.345 -0.4132 -0.0284 -0.2991
  162MOL0     C21783   8.296   8.960  10.490  0.6363  0.7394 -0.3855
  162MOL0     C21784   8.176   8.976  10.558  0.9068 -0.8092 -0.3720
  162MOL0     N21785   7.681   9.389  10.942 -0.8708  0.4893 -0.0823
  162MOL0     N21786   7.584   9.468  10.959  0.9574  0.5613  0.9061
  162MOL0     C21787   7.364   8.770  11.372  0.5477 -0.7392  0.1621
  162MOL0     C21788   7.468   8.703  11.315 -0.4714  0.1885 -0.0196
  162MOL0     C21789   7.744   8.714  10.931 -0.0119 -0.1628  0.3068
  162MOL0     C21790   7.878   8.708  10.983 -0.2539  0.1482  0.9889
  162MOL0     C21791   7.991   8.673  10.903  0.8154  0.4827  0.1349
  162MOL0     C21792   7.971   8.659  10.764 -0.4006 -0.6245  0.5431
  162MOL0     O21793   8.071   8.624  10.675 -0.1755  0.0596  0.1659
  162MOL0     C21794   8.206   8.603  10.734  0.7025  0.3739  0.5843
  162MOL0     C21795   8.286   8.523  10.629  0.0314  0.3073  0.4690
  162MOL0     C21796   8.421   8.464  10.677 -0.1561 -0.2107 -0.4959
  162MOL0     C21797   8.516   8.406  10.574 -0.5783 -0.0841  0.5418
  162MOL0     C21798   8.555   8.506  10.474 -0.2641  0.9138 -0.5069
  162MOL0     C21799   8.577   8.604  10.405 -1.2320  0.3577 -0.2354
  162MOL0     C21800   7.847   8.675  10.713  0.4014 -0.1267 -0.0708
  162MOL0     C21801   7.732   8.706  10.795 -0.2610 -0.4967  0.2313
  162MOL0     C21802   7.611   8.731  10.710  0.1503  0.0712  0.2772
  162MOL0     H21803   7.663   8.970  11.219  0.4112  0.2917  1.3024
  162MOL0     H21804   7.520   9.087  11.368  2.5402 -2.2725  2.1095
  162MOL0     H21805   7.310   9.180  11.469  1.0213 -2.8550  0.3945
  162MOL0     H21806   7.243   9.125  11.306 -2.9920  3.1520 -0.8682
  162MOL0     H21807   7.066   9.167  11.555  2.9452 -0.3167  1.1733
  162MOL0     H21808   7.030   9.064  11.415  3.8068 -1.3523  0.4206
  162MOL0     H21809   6.940   9.277  11.374 -0.5748 -1.8200 -3.1656
  162MOL0     H21810   7.077   9.245  11.265 -0.1455 -0.4237  1.0605
  162MOL0     H21811   7.082   9.418  11.510  2.4111  0.1864  1.8755
  162MOL0     H21812   7.235   9.375  11.433  0.3935  1.6664  1.1484
  162MOL0     H21813   7.028   9.546  11.343  1.0326 -1.3066  2.6498
  162MOL0     H21814   7.199   9.595  11.349  1.7711 -1.8578  2.4823
  162MOL0     H21815   7.074   9.415  11.135  0.5254  1.1806 -1.3262
  162MOL0     H21816   7.152   9.572  11.114  1.4857 -1.3625 -2.7717
  162MOL0     H21817   7.288   9.303  11.184 -2.0477 -0.1191  0.3234
  162MOL0     H21818   7.366   9.441  11.251  2.1625 -1.8685 -1.0107
  162MOL0     H21819   7.288   9.406  10.967  1.0936  3.4219 -3.1131
  162MOL0     H21820   7.372   9.552  11.026  1.6457 -0.3790  1.0225
  162MOL0     H21821   7.491   9.180  11.096 -0.1481 -0.4575 -2.4759
  162MOL0     H21822   7.857   9.221  11.047  1.1508 -1.3997 -2.1988
  162MOL0     H21823   7.728   9.110  11.095  0.6883  0.2868  0.3198
  162MOL0     H21824   7.927   9.057  10.921  0.1440 -0.6374 -1.1225
  162MOL0     H21825   7.774   8.984  10.882  3.0506 -1.5129  1.5420
  162MOL0     H21826   7.848   9.277  10.789  0.9005 -0.4956  2.2069
  162MOL0     H21827   7.715   9.191  10.722  0.3162  2.7008  0.1227
  162MOL0     H21828   7.896   9.168  10.562  1.4740  4.7053  2.9274
  162MOL0     H21829   7.885   9.009  10.647 -1.1724  0.3732  0.8940
  162MOL0     H21830   8.199   9.309  10.614 -1.7506 -0.8622  0.3790
  162MOL0     H21831   8.398   9.288  10.482 -0.9209 -0.9181 -0.2292
  162MOL0     H21832   8.747   8.999  10.511 -0.0626  2.5831  2.7380
  162MOL0     H21833   8.982   8.979  10.455  0.3503 -0.4109 -1.2777
  162MOL0     H21834   9.111   9.312  10.473 -1.6837 -0.3449 -0.1043
  162MOL0     H21835   9.130   9.139  10.524  0.0650 -0.5185 -0.6471
  162MOL0     H21836   9.351   9.225  10.570 -0.2531  3.2435 -0.1393
  162MOL0     H21837   9.362   9.135  10.418  1.0614  0.9436 -1.8434
  162MOL0     H21838   9.335   9.362  10.291 -0.0236  1.4182 -0.4887
  162MOL0     H21839   9.331   9.445  10.447 -2.5455 -0.3864 -0.4074
  162MOL0     H21840   9.545   9.254  10.358 -2.2573 -0.9543  0.9338
  162MOL0     H21841   9.571   9.370  10.489 -0.2139  0.1951 -0.2090
  162MOL0     H21842   9.555   9.559  10.334 -4.8913 -0.3485 -0.8601
  162MOL0     H21843   9.527   9.435  10.198 -1.4076 -1.0385  0.0557
  162MOL0     H21844   9.779   9.466  10.378  0.5636 -2.2007  0.1811
  162MOL0     H21845   9.754   9.339  10.260 -2.6526 -1.7902  1.4197
  162MOL0     H21846   9.800   9.648  10.217 -1.8083  1.6060 -2.0741
  162MOL0     H21847   9.723   9.557  10.084 -0.7850 -1.9479 -0.0248
  162MOL0     H21848   9.998   9.495  10.192 -1.5529  3.2133  2.1474
  162MOL0     H21849   9.896   9.395  10.085 -0.9287  0.0924  1.7987
  162MOL0     H21850   8.969   9.296  10.176  2.3003 -1.0205 -0.0336
  162MOL0     H21851   8.704   9.302  10.208 -0.0001 -0.0046  0.5196
  162MOL0     H21852   8.317   8.856  10.469 -0.2593  0.3136  0.7617
  162MOL0     H21853   8.112   8.889  10.570 -1.2430  0.6761 -0.7082
  162MOL0     H21854   7.279   8.725  11.421  1.3179 -2.1391  0.2606
  162MOL0     H21855   7.465   8.596  11.335 -1.9884 -0.0256 -1.1805
  162MOL0     H21856   7.891   8.725  11.090 -0.0527 -0.1448  1.0123
  162MOL0     H21857   8.092   8.673  10.944  1.6256  3.7332 -1.5569
  162MOL0     H21858   8.197   8.548  10.828 -2.2948  0.5805  0.5034
  162MOL0     H21859   8.258   8.694  10.765  1.6375 -0.9423  3.1814
  162MOL0     H21860   8.305   8.592  10.546  1.7206 -0.3602  0.2450
  162MOL0     H21861   8.228   8.437  10.594  1.3611 -0.7990  0.8691
  162MOL0     H21862   8.413   8.389  10.756  1.0883  1.0336  0.8618
  162MOL0     H21863   8.475   8.544  10.728  0.7013 -1.6774  0.9818
  162MOL0     H21864   8.601   8.375  10.636  0.3422  5.1484  2.4015
  162MOL0     H21865   8.481   8.319  10.518 -0.0765  0.5393 -0.7788
  162MOL0     H21866   8.591   8.696  10.352 -2.7754  1.1582  0.6749
  162MOL0     H21867   7.825   8.655  10.609 -1.6738 -0.3951  0.3754
  162MOL0     H21868   7.611   8.683  10.612 -1.9746 -1.0071  0.7364
  162MOL0     H21869   7.522   8.681  10.750  1.8577 -2.6575  0.9098
  162MOL0     H21870   7.601   8.838  10.692  1.8135  0.5350  1.7800
  163MOL0     O21871   2.931   8.138   5.102 -0.4035  0.0205  0.0115
  163MOL0     C21872   2.867   8.116   5.205  0.3139  0.4442 -0.4457
  163MOL0     O21873   2.729   8.132   5.216 -0.0020  0.1113  0.5411
  163MOL0     C21874   2.657   8.169   5.101 -0.3301 -0.5881  0.2749
  163MOL0     C21875   2.674   8.301   5.042 -0.2572  1.0551  0.2795
  163MOL0     C21876   2.587   8.343   4.932  0.0038 -0.1916 -0.2169
  163MOL0     C21877   2.504   8.252   4.872 -0.5257 -0.2894 -0.8210
  163MOL0     O21878   2.431   8.282   4.755 -0.0767 -0.0472 -0.4448
  163MOL0     C21879   2.364   8.411   4.736 -0.6509 -0.6174  0.0606
  163MOL0     C21880   2.281   8.395   4.612  0.5102  0.1133  0.1731
  163MOL0     C21881   2.171   8.293   4.623  0.2659 -0.3169 -0.1938
  163MOL0     C21882   2.121   8.275   4.480 -0.1166 -0.1456 -0.2181
  163MOL0     C21883   2.011   8.178   4.479  0.0322  0.4322  1.1788
  163MOL0     C21884   1.929   8.165   4.343  0.1110  0.2662 -0.5270
  163MOL0     C21885   2.014   8.121   4.226 -0.4921 -0.1047  0.2363
  163MOL0     C21886   2.059   8.240   4.134  0.1030 -0.9829  0.0751
  163MOL0     N21887   1.952   8.324   4.083  0.0463  0.1000  0.0915
  163MOL0     C21888   1.916   8.445   4.142  0.3673 -0.2894 -1.9006
  163MOL0     C21889   1.822   8.499   4.059 -1.1724  0.0027 -0.2136
  163MOL0     C21890   1.734   8.618   4.093  0.0541 -0.6970  0.1415
  163MOL0     C21891   1.600   8.561   4.154  0.5472 -1.3663  1.5201
  163MOL0     C21892   1.511   8.666   4.210  0.6120  0.0873  0.7989
  163MOL0     C21893   1.563   8.744   4.329  0.5455 -0.4483  0.8026
  163MOL0     O21894   1.569   8.665   4.449 -0.2027  0.4207  0.5775
  163MOL0     C21895   1.679   8.702   4.521 -0.3581 -0.0160  0.1351
  163MOL0     C21896   1.687   8.830   4.594 -0.0080 -0.1344 -0.1905
  163MOL0     C21897   1.806   8.857   4.665  0.2210 -0.1928  0.1048
  163MOL0     C21898   1.911   8.762   4.687 -0.5668 -0.0540  1.1878
  163MOL0     C21899   2.034   8.785   4.769  0.2941  0.2225  0.9833
  163MOL0     O21900   2.109   8.673   4.803 -1.1298 -0.4451  0.4359
  163MOL0     C21901   2.218   8.703   4.889  0.0651 -0.3622  0.5390
  163MOL0     C21902   2.348   8.724   4.838  0.3433 -0.3071  0.5680
  163MOL0     C21903   2.453   8.738   4.930 -0.4745 -0.2949 -0.9371
  163MOL0     C21904   2.430   8.732   5.072 -0.2674 -0.3444 -0.1561
  163MOL0     O21905   2.528   8.731   5.169 -0.1579  0.2172  0.6237
  163MOL0     C21906   2.647   8.815   5.160 -0.8003 -0.1078 -1.0075
  163MOL0     C21907   2.743   8.785   5.276 -0.4125 -0.3048 -0.1918
  163MOL0     C21908   2.761   8.639   5.308  0.0228 -0.1980 -0.1318
  163MOL0     C21909   2.867   8.620   5.419 -0.1931  0.4569  0.3676
  163MOL0     C21910   2.915   8.473   5.421 -0.3019  0.1140 -0.1656
  163MOL0     C21911   2.967   8.437   5.564  0.6660  0.3707 -0.9375
  163MOL0     C21912   3.111   8.385   5.572  0.7893 -0.2584  0.7847
  163MOL0     C21913   3.164   8.422   5.715  0.3056 -0.1557  0.2586
  163MOL0    Cl21914   3.325   8.352   5.736  0.1234  0.1662 -0.5765
  163MOL0     C21915   2.293   8.728   5.122 -0.7797 -0.6032  0.6345
  163MOL0     C21916   2.191   8.705   5.027 -1.0533 -0.9835  0.8071
  163MOL0     O21917   2.055   8.898   4.811 -0.0006 -0.1091 -0.2356
  163MOL0     C21918   1.900   8.638   4.612 -0.3197 -0.2099  0.6264
  163MOL0     C21919   1.787   8.610   4.532  0.1775 -0.1870 -0.4821
  163MOL0     N21920   1.803   8.412   3.948 -0.8692 -0.2350 -0.6162
  163MOL0     N21921   1.887   8.313   3.965 -0.1509  0.7912 -0.0514
  163MOL0     C21922   2.485   8.126   4.936  0.3671  0.3573  0.8085
  163MOL0     C21923   2.567   8.082   5.042  0.4179 -0.7517  0.3033
  163MOL0     C21924   2.934   8.059   5.316  0.2583  0.1653 -0.0713
  163MOL0     C21925   2.859   7.994   5.412  0.1417  0.6052 -0.2630
  163MOL0     C21926   2.908   7.953   5.534  1.2301  0.7341  0.5020
  163MOL0     C21927   3.044   7.964   5.555  0.4559 -0.0017 -0.9558
  163MOL0     O21928   3.093   7.907   5.668 -0.1797 -0.8782  0.5637
  163MOL0     C21929   3.129   8.004   5.767 -0.7904  0.4128  0.8570
  163MOL0     C21930   3.137   7.934   5.905 -0.8672  0.0305  0.0944
  163MOL0     C21931   3.163   8.023   6.019  0.8030 -0.1378 -0.8218
  163MOL0     C21932   3.154   7.964   6.157  0.4397 -0.0208  0.4293
  163MOL0     C21933   3.015   7.959   6.199 -0.9667 -0.1531 -0.3036
  163MOL0     C21934   2.900   7.959   6.235 -0.4281  0.4406  0.6710
  163MOL0     C21935   3.138   8.022   5.457  0.4406  0.4999 -0.7920
  163MOL0     C21936   3.079   8.073   5.345  0.6516 -0.6510 -0.3820
  163MOL0     C21937   3.174   8.115   5.238 -0.6136 -0.2459 -0.2346
  163MOL0     H21938   2.758   8.359   5.081  1.0606  0.7960 -2.0004
  163MOL0     H21939   2.590   8.446   4.898 -0.2683  0.2391  1.0196
  163MOL0     H21940   2.308   8.443   4.825 -1.5246 -0.7316 -0.4345
  163MOL0     H21941   2.442   8.488   4.730 -0.7754 -0.1326  2.9382
  163MOL0     H21942   2.338   8.368   4.523 -2.8996 -1.1222 -1.7941
  163MOL0     H21943   2.233   8.492   4.593 -1.9235 -0.8596  0.9759
  163MOL0     H21944   2.091   8.327   4.690  3.4094  2.0229  2.7654
  163MOL0     H21945   2.208   8.194   4.650 -1.5334 -0.3032  2.7432
  163MOL0     H21946   2.083   8.369   4.439 -2.0112 -0.0139  1.6324
  163MOL0     H21947   2.198   8.254   4.406  1.9125  1.4965  1.2857
  163MOL0     H21948   2.042   8.080   4.516 -0.9090  0.4685  2.1257
  163MOL0     H21949   1.942   8.225   4.549  0.6345 -0.7862  2.6256
  163MOL0     H21950   1.856   8.086   4.364  0.7066 -0.8334 -2.3135
  163MOL0     H21951   1.880   8.258   4.313  1.4739  0.8712 -0.9400
  163MOL0     H21952   1.949   8.060   4.162 -1.6130  1.4704 -0.1844
  163MOL0     H21953   2.100   8.066   4.264  0.9506  1.4722 -0.6247
  163MOL0     H21954   2.122   8.311   4.189  0.0239 -0.2341 -0.7788
  163MOL0     H21955   2.113   8.197   4.050 -3.2149 -1.8744 -1.7796
  163MOL0     H21956   1.948   8.480   4.240 -2.0870 -0.4753 -0.9631
  163MOL0     H21957   1.788   8.694   4.150  3.8603 -1.5462 -1.9585
  163MOL0     H21958   1.703   8.668   4.001  0.2524 -1.7631 -0.5165
  163MOL0     H21959   1.542   8.507   4.079  0.0406  1.0690  0.0530
  163MOL0     H21960   1.625   8.482   4.226 -0.4185 -2.3810  0.7704
  163MOL0     H21961   1.418   8.618   4.243 -0.7058  2.4879  0.7830
  163MOL0     H21962   1.486   8.739   4.133 -1.3087  0.1692  1.4426
  163MOL0     H21963   1.500   8.830   4.354 -0.1021 -0.3827 -0.8999
  163MOL0     H21964   1.661   8.788   4.308  0.4877  1.7347  4.3326
  163MOL0     H21965   1.610   8.906   4.588  0.0445 -0.0548  0.1193
  163MOL0     H21966   1.821   8.949   4.722  1.8060  0.3863 -1.1603
  163MOL0     H21967   2.357   8.732   4.731 -1.9196 -0.6412  0.2954
  163MOL0     H21968   2.551   8.749   4.885  0.6464  0.7760  1.5792
  163MOL0     H21969   2.700   8.795   5.066 -0.2009 -0.7843 -0.5308
  163MOL0     H21970   2.602   8.915   5.162 -4.2539 -1.4392 -3.3023
  163MOL0     H21971   2.835   8.840   5.256  0.1052 -0.9974  0.2229
  163MOL0     H21972   2.707   8.830   5.369  1.3384  0.6255  0.0689
  163MOL0     H21973   2.672   8.584   5.342  0.3121 -1.4971 -1.3453
  163MOL0     H21974   2.799   8.585   5.221  0.3559 -0.6220  0.2713
  163MOL0     H21975   2.821   8.639   5.516 -0.4716 -1.7209  0.7182
  163MOL0     H21976   2.952   8.688   5.410  0.3181 -0.1248  0.7190
  163MOL0     H21977   2.994   8.481   5.346 -0.4836  2.0119 -0.1965
  163MOL0     H21978   2.831   8.414   5.382 -0.0546 -0.9465  0.8449
  163MOL0     H21979   2.949   8.514   5.640  0.0008 -1.9885  1.4047
  163MOL0     H21980   2.917   8.348   5.600  0.0086  1.3413  0.6615
  163MOL0     H21981   3.171   8.425   5.490 -2.2587 -2.5670 -2.9365
  163MOL0     H21982   3.108   8.279   5.545  2.8396 -0.5536  1.5180
  163MOL0     H21983   3.163   8.529   5.738 -1.4604 -0.5803  2.5347
  163MOL0     H21984   3.104   8.376   5.794  2.4041 -2.0333  0.8784
  163MOL0     H21985   2.274   8.734   5.229  0.1659 -2.1567  0.9329
  163MOL0     H21986   2.098   8.671   5.070  0.6661 -4.5820  2.0809
  163MOL0     H21987   1.970   8.557   4.626 -0.0125 -0.2520 -0.9175
  163MOL0     H21988   1.785   8.514   4.481 -2.6024 -1.8711  2.3807
  163MOL0     H21989   2.419   8.054   4.889  3.0183  0.1189 -3.0275
  163MOL0     H21990   2.559   7.980   5.080  5.5163 -1.9814 -1.1340
  163MOL0     H21991   2.752   7.981   5.396  0.2702 -1.3314  0.1139
  163MOL0     H21992   2.845   7.902   5.607 -2.9062  0.2948 -3.0015
  163MOL0     H21993   3.059   8.088   5.771  0.7917  1.9743 -1.6587
  163MOL0     H21994   3.221   8.051   5.730 -0.0028 -0.4359  1.6940
  163MOL0     H21995   3.220   7.862   5.897  2.1116  2.9538  1.9616
  163MOL0     H21996   3.046   7.877   5.924 -1.2348  1.5751  3.9353
  163MOL0     H21997   3.096   8.110   6.011  2.4088  1.4254  1.3917
  163MOL0     H21998   3.265   8.061   6.006  2.2940 -3.2638  0.6693
  163MOL0     H21999   3.184   7.859   6.156  1.3056  0.2170  0.9746
  163MOL0     H22000   3.222   8.005   6.232  0.7611  1.0649 -0.4302
  163MOL0     H22001   2.797   7.947   6.264 -0.8887  2.7854  0.2250
  163MOL0     H22002   3.245   8.014   5.469  0.2698 -3.2337 -0.7281
  163MOL0     H22003   3.169   8.070   5.138 -1.6726  1.3523 -0.9495
  163MOL0     H22004   3.177   8.222   5.212  3.1410 -0.0611  0.3232
  163MOL0     H22005   3.277   8.098   5.272  0.5057  0.7785 -2.7878
  164MOL0     O22006   9.987   6.147   9.405 -0.2207  0.0620  0.4418
  164MOL0     C22007  10.055   6.055   9.448 -0.1494 -0.8247  0.1530
  164MOL0     O22008  10.004   5.954   9.524  0.2906  0.4456 -0.3832
  164MOL0     C22009   9.870   5.953   9.557  0.1269  0.4726  0.4959
  164MOL0     C22010   9.773   5.923   9.464 -0.1006 -0.1871  0.1386
  164MOL0     C22011   9.640   5.927   9.506  0.2540  0.3319 -0.4637
  164MOL0     C22012   9.612   5.969   9.638 -0.2469 -0.3367  0.5804
  164MOL0     O22013   9.479   5.965   9.660 -0.3473  0.1858 -0.1351
  164MOL0     C22014   9.414   6.042   9.763  0.0631  0.0005 -0.1849
  164MOL0     C22015   9.269   5.998   9.748  0.2577 -0.4821 -0.4042
  164MOL0     C22016   9.195   6.107   9.667  0.5159 -0.2694 -0.0714
  164MOL0     C22017   9.173   6.233   9.751  0.5372  0.2538 -0.0993
  164MOL0     C22018   9.082   6.344   9.684 -0.4282 -0.8113  0.0183
  164MOL0     C22019   9.061   6.464   9.780 -0.0090 -0.7348 -0.7749
  164MOL0     C22020   9.001   6.577   9.706 -0.3286 -0.1833 -0.2124
  164MOL0     C22021   8.995   6.707   9.773 -0.1322 -1.2591 -0.4549
  164MOL0     N22022   9.108   6.802   9.774 -0.0126  0.4122 -1.0005
  164MOL0     C22023   9.242   6.757   9.778  0.0423 -0.4125  0.4371
  164MOL0     C22024   9.304   6.876   9.760  0.4547  0.8526  0.9134
  164MOL0     C22025   9.453   6.907   9.726 -0.1378  0.5842  0.6256
  164MOL0     C22026   9.514   6.997   9.840 -0.1320 -0.5175 -0.3388
  164MOL0     C22027   9.651   7.057   9.808 -0.4301 -1.1583  0.0660
  164MOL0     C22028   9.696   7.153   9.914 -0.2527  0.2782 -0.3797
  164MOL0     O22029   9.657   7.109  10.041 -0.7445  0.8464 -1.1497
  164MOL0     C22030   9.658   7.197  10.153  0.8403  0.5161  0.0290
  164MOL0     C22031   9.690   7.336  10.145  0.2630  0.9558 -0.7115
  164MOL0     C22032   9.655   7.416  10.255  0.3229 -0.1168 -0.3673
  164MOL0     C22033   9.586   7.374  10.376 -0.1796 -0.7342 -0.3859
  164MOL0     C22034   9.520   7.471  10.473  0.3175 -0.3401  0.8008
  164MOL0     O22035   9.567   7.597  10.471 -0.3991 -0.3421  0.2600
  164MOL0     C22036   9.509   7.706  10.539 -0.4116 -0.9793 -0.7900
  164MOL0     C22037   9.370   7.731  10.525  0.6795  1.2149 -0.4294
  164MOL0     C22038   9.305   7.830  10.599  0.4091  0.3291  0.0432
  164MOL0     C22039   9.386   7.908  10.681 -0.3339 -0.7768  0.9832
  164MOL0     O22040   9.322   7.998  10.765  0.6868  0.5078 -0.4365
  164MOL0     C22041   9.388   8.091  10.845 -0.3672  0.1501  0.1408
  164MOL0     C22042   9.267   8.174  10.919  0.4583  0.3730 -0.1705
  164MOL0     C22043   9.165   8.081  10.987 -0.1126 -0.6501 -0.1059
  164MOL0     C22044   9.209   8.026  11.128 -0.0165  0.4930  0.8358
  164MOL0     C22045   9.133   7.913  11.186  0.7614 -0.5859 -0.6467
  164MOL0     C22046   9.157   7.870  11.329 -0.7152 -0.0162 -0.2918
  164MOL0     C22047   9.065   7.762  11.383  0.3510  0.2722 -0.6947
  164MOL0     C22048   9.080   7.739  11.531 -0.1205  0.5143 -0.0763
  164MOL0    Cl22049   8.975   7.598  11.591  0.7089  0.2897  0.7753
  164MOL0     C22050   9.530   7.888  10.693 -0.3195 -0.7358 -0.1819
  164MOL0     C22051   9.585   7.781  10.624  0.7877 -0.0826 -0.6725
  164MOL0     O22052   9.432   7.429  10.547 -1.1859  0.0132 -0.6843
  164MOL0     C22053   9.569   7.237  10.381 -0.2937 -0.1051 -0.6508
  164MOL0     C22054   9.597   7.152  10.272 -0.1251  0.3549  0.5716
  164MOL0     N22055   9.205   6.980   9.745  0.5639  0.3023  0.3301
  164MOL0     N22056   9.092   6.931   9.751  0.2497 -0.6867  0.3466
  164MOL0     C22057   9.709   6.009   9.731  0.2410  0.0891 -0.4970
  164MOL0     C22058   9.839   5.997   9.684  0.2443  0.1593  0.0047
  164MOL0     C22059  10.203   6.070   9.446 -0.2547  0.7281  0.3455
  164MOL0     C22060  10.287   6.036   9.556 -0.1948 -0.1122 -0.6783
  164MOL0     C22061  10.420   6.071   9.566 -0.2890 -0.0571 -0.3698
  164MOL0     C22062  10.488   6.137   9.462  0.0927 -0.4319 -0.5484
  164MOL0     O22063  10.619   6.184   9.469 -0.0101  0.0918  0.0351
  164MOL0     C22064  10.689   6.183   9.592  0.3505 -0.0702 -0.8393
  164MOL0     C22065  10.767   6.050   9.608 -0.0166  0.4789 -0.6909
  164MOL0     C22066  10.874   6.047   9.495  0.4093  0.8855  0.4027
  164MOL0     C22067  10.896   5.905   9.433 -0.8518 -0.1340 -0.4501
  164MOL0     C22068  10.967   5.814   9.514  0.0976  0.1503 -0.2442
  164MOL0     C22069  11.016   5.734   9.587 -0.5828 -0.4906  0.7918
  164MOL0     C22070  10.407   6.165   9.349  0.2676 -0.4458 -0.3077
  164MOL0     C22071  10.270   6.136   9.345 -0.1242 -0.0037  0.2575
  164MOL0     C22072  10.208   6.185   9.206  0.1694  0.6930 -0.8316
  164MOL0     H22073   9.809   5.898   9.365  1.0492  2.0051 -0.0838
  164MOL0     H22074   9.561   5.900   9.436 -2.4952  2.7572  1.4817
  164MOL0     H22075   9.447   5.998   9.857 -3.1373 -0.1074  1.0123
  164MOL0     H22076   9.430   6.150   9.761  1.3902 -0.1858 -0.5601
  164MOL0     H22077   9.241   6.000   9.853  1.0023 -1.1049 -0.1845
  164MOL0     H22078   9.249   5.897   9.712 -1.0889 -2.1686  4.4140
  164MOL0     H22079   9.102   6.084   9.615 -0.6375  2.7818  0.4474
  164MOL0     H22080   9.247   6.119   9.571 -0.4121 -3.9516 -1.1924
  164MOL0     H22081   9.114   6.206   9.839 -0.9924  0.3540 -1.0637
  164MOL0     H22082   9.272   6.268   9.783 -0.1182  0.5626  1.6885
  164MOL0     H22083   9.124   6.379   9.590 -2.1099 -1.0408 -0.8675
  164MOL0     H22084   8.985   6.299   9.660  0.1122 -1.2515 -1.4459
  164MOL0     H22085   9.006   6.446   9.873  0.7244  1.0826  0.0700
  164MOL0     H22086   9.157   6.489   9.826 -0.3538  0.7256 -0.8097
  164MOL0     H22087   8.900   6.546   9.679  1.1085 -2.4226 -3.6391
  164MOL0     H22088   9.049   6.596   9.609 -2.2829  0.4770 -1.0913
  164MOL0     H22089   8.905   6.760   9.743  0.0132  0.4368  1.8601
  164MOL0     H22090   8.977   6.698   9.881 -2.6236  2.6708 -0.3516
  164MOL0     H22091   9.280   6.656   9.784 -1.1438 -0.8779  0.4286
  164MOL0     H22092   9.508   6.813   9.727  0.2072  0.7347  3.0919
  164MOL0     H22093   9.469   6.963   9.634 -1.4816  1.2178  0.7421
  164MOL0     H22094   9.444   7.080   9.858 -1.2443 -1.1341 -1.6543
  164MOL0     H22095   9.521   6.935   9.930  1.2242 -0.7267 -0.5661
  164MOL0     H22096   9.628   7.105   9.713 -0.3360 -2.6526 -0.7415
  164MOL0     H22097   9.733   6.990   9.781 -0.4395 -0.1658 -2.7146
  164MOL0     H22098   9.644   7.249   9.900 -0.0876  0.3106 -0.7740
  164MOL0     H22099   9.803   7.169   9.897  0.0585 -1.9395 -0.7460
  164MOL0     H22100   9.711   7.389  10.054 -0.0347  1.3404 -0.5609
  164MOL0     H22101   9.681   7.521  10.242  0.4351 -0.3090 -1.8326
  164MOL0     H22102   9.312   7.678  10.450 -0.3882 -0.0373  1.1928
  164MOL0     H22103   9.199   7.847  10.583  0.0446 -0.2306  1.7009
  164MOL0     H22104   9.450   8.048  10.923  1.7452  2.5694 -0.0482
  164MOL0     H22105   9.454   8.149  10.779  1.9274 -1.3035  1.0415
  164MOL0     H22106   9.318   8.237  10.992  0.6373 -1.0353  0.9473
  164MOL0     H22107   9.211   8.247  10.859 -1.7084  1.0234  2.4363
  164MOL0     H22108   9.076   8.142  11.003  1.4936  1.3532  1.8633
  164MOL0     H22109   9.137   7.998  10.921 -0.6896 -0.9372  0.4888
  164MOL0     H22110   9.210   8.106  11.202 -4.2705  0.0044  1.6824
  164MOL0     H22111   9.311   7.987  11.115  0.1051  1.1255 -0.2295
  164MOL0     H22112   9.166   7.833  11.117 -0.9875 -1.4107 -0.5843
  164MOL0     H22113   9.027   7.936  11.173  1.1412  2.1476  0.5855
  164MOL0     H22114   9.253   7.818  11.338 -0.8989 -0.1440  1.1550
  164MOL0     H22115   9.159   7.961  11.389 -2.5822 -0.1878  0.1092
  164MOL0     H22116   9.090   7.665  11.338  0.8765 -0.4715  1.0860
  164MOL0     H22117   8.959   7.780  11.365  0.3050  1.2948  0.4688
  164MOL0     H22118   9.185   7.718  11.555 -0.2741  0.7612  0.8439
  164MOL0     H22119   9.068   7.834  11.584 -0.2998 -0.2488  1.2772
  164MOL0     H22120   9.602   7.944  10.752  0.3650 -1.9179  0.1367
  164MOL0     H22121   9.689   7.751  10.624  0.0968 -2.9779 -3.4222
  164MOL0     H22122   9.512   7.203  10.467 -0.7378 -1.4888 -1.4687
  164MOL0     H22123   9.577   7.047  10.285 -2.4102  0.5284 -1.0209
  164MOL0     H22124   9.689   6.015   9.838  1.9029 -4.1801  0.2502
  164MOL0     H22125   9.927   6.022   9.742 -1.5140 -1.9476  4.0704
  164MOL0     H22126  10.253   5.981   9.643  2.8008  0.6832  1.1644
  164MOL0     H22127  10.464   6.048   9.663  0.9349 -0.2886 -0.9712
  164MOL0     H22128  10.616   6.198   9.672 -0.1641 -2.2129 -0.8477
  164MOL0     H22129  10.752   6.271   9.607  0.8626 -0.4522 -0.7332
  164MOL0     H22130  10.706   5.962   9.589  1.1131 -0.5512  0.3185
  164MOL0     H22131  10.817   6.063   9.704  0.9514 -1.1288 -0.9420
  164MOL0     H22132  10.973   6.086   9.519  1.2554 -0.4348 -0.7696
  164MOL0     H22133  10.839   6.105   9.409 -2.5487 -0.6322  0.4779
  164MOL0     H22134  10.810   5.849   9.397 -1.9334  0.5313  1.0042
  164MOL0     H22135  10.960   5.915   9.345 -1.1720  1.4098 -0.5364
  164MOL0     H22136  11.049   5.647   9.640  0.9004 -1.1594 -1.1324
  164MOL0     H22137  10.463   6.221   9.275  1.4106 -0.4518  0.5286
  164MOL0     H22138  10.134   6.110   9.177  0.0939 -0.0449  1.1431
  164MOL0     H22139  10.148   6.276   9.220  2.4129  2.2263 -0.6544
  164MOL0     H22140  10.287   6.201   9.133  2.9645 -0.1366  1.8001
  165MOL0     O22141   2.460   3.033   1.695 -0.2123 -0.0740 -0.0227
  165MOL0     C22142   2.495   3.115   1.607 -0.0403 -0.0962 -1.4292
  165MOL0     O22143   2.617   3.143   1.573 -0.0928 -0.3617  0.7836
  165MOL0     C22144   2.733   3.099   1.636  0.4606 -0.1623  0.1806
  165MOL0     C22145   2.838   3.072   1.552 -0.6400  0.7193 -0.7148
  165MOL0     C22146   2.963   3.034   1.598 -0.2648 -0.0396 -0.2045
  165MOL0     C22147   2.981   3.014   1.735 -1.3744 -0.1254 -0.5235
  165MOL0     O22148   3.095   2.961   1.786  0.2109  0.1587  0.3609
  165MOL0     C22149   3.088   2.868   1.894 -0.6829  0.0746  0.1133
  165MOL0     C22150   3.207   2.778   1.895  0.0404 -0.7613  0.3794
  165MOL0     C22151   3.339   2.843   1.941  0.9481  0.5360  0.2337
  165MOL0     C22152   3.348   2.862   2.092  0.3982 -0.1118  0.1320
  165MOL0     C22153   3.489   2.907   2.130 -0.0350  0.5985 -0.3955
  165MOL0     C22154   3.483   2.926   2.286 -0.0663 -0.3169 -0.1885
  165MOL0     C22155   3.453   2.799   2.371 -0.5747  0.3966  0.6137
  165MOL0     C22156   3.525   2.784   2.503 -0.9281 -0.4799 -0.0482
  165MOL0     N22157   3.488   2.882   2.601 -0.5793 -0.1361 -0.1796
  165MOL0     C22158   3.560   2.984   2.647 -1.1078  0.0391 -0.4633
  165MOL0     C22159   3.478   3.056   2.727 -0.1308  0.1149  0.9392
  165MOL0     C22160   3.523   3.180   2.805 -0.7994 -0.1270 -0.9622
  165MOL0     C22161   3.625   3.274   2.740  0.2566  0.1739 -0.7238
  165MOL0     C22162   3.560   3.358   2.629 -0.1139 -0.6451 -0.0384
  165MOL0     C22163   3.513   3.277   2.504  0.3025 -0.2173  0.2761
  165MOL0     O22164   3.452   3.372   2.412 -0.0733 -0.0848 -1.3794
  165MOL0     C22165   3.322   3.411   2.424  0.9215  0.3312 -1.0460
  165MOL0     C22166   3.286   3.522   2.343 -0.1414  0.2858 -0.1038
  165MOL0     C22167   3.163   3.595   2.360 -0.7851 -0.1768  0.0402
  165MOL0     C22168   3.060   3.540   2.452 -0.7932  0.2913 -0.1068
  165MOL0     C22169   2.927   3.609   2.461 -0.7500  0.1917 -0.1156
  165MOL0     O22170   2.917   3.726   2.402  0.2004 -0.2568 -0.2685
  165MOL0     C22171   2.804   3.805   2.386 -0.4523 -1.0772 -0.0980
  165MOL0     C22172   2.829   3.923   2.313 -0.3849 -0.5211  0.4907
  165MOL0     C22173   2.733   4.032   2.301  0.1559  0.6596  0.1171
  165MOL0     C22174   2.604   4.013   2.354 -0.6000 -0.2835  0.1884
  165MOL0     O22175   2.512   4.109   2.340 -0.0900 -0.3315 -0.2791
  165MOL0     C22176   2.525   4.199   2.234 -0.2803  0.8782 -0.6325
  165MOL0     C22177   2.414   4.297   2.217 -0.6285 -0.2690  0.3952
  165MOL0     C22178   2.303   4.228   2.146 -1.3188  0.2842  0.0491
  165MOL0     C22179   2.167   4.291   2.172 -0.3606  0.4096 -0.6774
  165MOL0     C22180   2.102   4.310   2.315 -0.8624  0.8072  0.1674
  165MOL0     C22181   2.042   4.189   2.389  1.0919  0.5169 -0.4481
  165MOL0     C22182   2.134   4.070   2.377 -0.0886 -0.7755  0.5368
  165MOL0     C22183   2.090   3.953   2.463 -1.0491 -0.3267  0.0282
  165MOL0    Cl22184   2.206   3.963   2.609 -0.0037  0.1480 -0.4217
  165MOL0     C22185   2.584   3.901   2.431  0.1324  0.8403 -0.3272
  165MOL0     C22186   2.678   3.798   2.451 -0.4353  0.2998  0.0374
  165MOL0     O22187   2.836   3.547   2.514 -0.3861 -0.3709 -0.1899
  165MOL0     C22188   3.100   3.430   2.522 -0.1852  0.2641 -0.4501
  165MOL0     C22189   3.221   3.364   2.513 -0.2732  0.1090  0.2837
  165MOL0     N22190   3.354   2.992   2.722 -0.6118 -1.0869  0.2015
  165MOL0     N22191   3.358   2.889   2.642 -0.5071 -0.6150  0.1442
  165MOL0     C22192   2.874   3.027   1.822  0.8033  0.6899  0.6619
  165MOL0     C22193   2.747   3.071   1.776 -0.2257 -1.1101  0.5979
  165MOL0     C22194   2.382   3.167   1.527  0.0479 -0.2568  0.2068
  165MOL0     C22195   2.404   3.215   1.395 -0.0780  0.0324  0.5607
  165MOL0     C22196   2.306   3.274   1.318  0.4963  0.1674  0.3802
  165MOL0     C22197   2.168   3.269   1.358 -0.6621 -0.2674 -0.5730
  165MOL0     O22198   2.090   3.336   1.270 -0.0666  0.0218 -0.5860
  165MOL0     C22199   1.950   3.304   1.266 -0.9668 -0.0299  0.1980
  165MOL0     C22200   1.857   3.384   1.363  0.2137  0.3015  0.8838
  165MOL0     C22201   1.702   3.354   1.333 -1.0082  0.0829  0.8524
  165MOL0     C22202   1.591   3.362   1.440 -0.1737 -0.1366 -0.3820
  165MOL0     C22203   1.609   3.262   1.540 -0.1935 -0.5275 -0.3897
  165MOL0     C22204   1.609   3.169   1.615  0.8357 -0.1984  0.4107
  165MOL0     C22205   2.141   3.222   1.487 -0.1053  0.0150 -0.2543
  165MOL0     C22206   2.242   3.179   1.570  0.4100  0.4891 -0.3276
  165MOL0     C22207   2.219   3.159   1.725  0.7584  0.0128  0.3795
  165MOL0     H22208   2.826   3.075   1.444  1.5709 -1.8235 -1.1226
  165MOL0     H22209   3.040   3.011   1.525  0.6533  3.8941 -0.7089
  165MOL0     H22210   3.102   2.929   1.984  1.0751  0.4926 -0.3965
  165MOL0     H22211   2.994   2.813   1.902  0.2843 -1.5888  0.6992
  165MOL0     H22212   3.225   2.741   1.794 -0.2331 -3.1100  1.1148
  165MOL0     H22213   3.185   2.694   1.962 -0.3269 -0.4263  0.6830
  165MOL0     H22214   3.355   2.934   1.884 -0.5197  0.5611 -0.1875
  165MOL0     H22215   3.410   2.764   1.916 -0.8015 -2.2522  3.1760
  165MOL0     H22216   3.283   2.947   2.115  1.9044  1.0042  0.3938
  165MOL0     H22217   3.304   2.775   2.141 -0.0406  0.3016  0.4847
  165MOL0     H22218   3.568   2.834   2.113 -0.7852 -0.0422 -1.2192
  165MOL0     H22219   3.510   3.007   2.092  1.3075  0.6591  0.4558
  165MOL0     H22220   3.589   2.949   2.300  0.8452 -3.6952 -0.5645
  165MOL0     H22221   3.412   3.007   2.307 -1.1685 -1.0320 -1.0199
  165MOL0     H22222   3.483   2.707   2.319 -0.2979  1.4319 -1.1448
  165MOL0     H22223   3.346   2.791   2.390 -1.2490  2.7481 -1.7215
  165MOL0     H22224   3.504   2.686   2.547  1.8218  0.0158  2.7415
  165MOL0     H22225   3.634   2.782   2.489 -0.7430  0.4326  1.0813
  165MOL0     H22226   3.667   2.993   2.630 -1.6474  3.7280 -3.0637
  165MOL0     H22227   3.437   3.239   2.839 -0.5774 -1.7557  2.9626
  165MOL0     H22228   3.556   3.141   2.901 -5.2035  0.1267  0.9148
  165MOL0     H22229   3.658   3.347   2.815 -0.4519  1.2741 -1.4574
  165MOL0     H22230   3.706   3.216   2.694  0.5555 -1.1249  1.2890
  165MOL0     H22231   3.631   3.432   2.591  0.3610 -0.1102  1.7604
  165MOL0     H22232   3.484   3.419   2.678  0.7647  0.0919  0.4417
  165MOL0     H22233   3.439   3.199   2.523 -0.3686  0.5709  1.0070
  165MOL0     H22234   3.603   3.231   2.461  1.1399  0.5908  1.0944
  165MOL0     H22235   3.366   3.559   2.280  0.3693  0.4135  0.6065
  165MOL0     H22236   3.151   3.687   2.304 -0.2796 -0.2556 -0.2044
  165MOL0     H22237   2.925   3.923   2.263  0.5603 -2.1347  2.1546
  165MOL0     H22238   2.766   4.125   2.255  0.2878  0.3497 -0.4164
  165MOL0     H22239   2.612   4.262   2.256 -0.4037  0.5210  1.0100
  165MOL0     H22240   2.548   4.143   2.143  0.5185 -1.0736  0.6961
  165MOL0     H22241   2.378   4.333   2.313  0.9196 -1.9472  1.6614
  165MOL0     H22242   2.436   4.391   2.166 -4.0920  0.9865  0.8887
  165MOL0     H22243   2.324   4.234   2.039  0.7015  1.2628  0.4493
  165MOL0     H22244   2.298   4.120   2.165 -1.5071  0.3860  0.5821
  165MOL0     H22245   2.095   4.234   2.111 -0.6100 -2.3640  1.9527
  165MOL0     H22246   2.173   4.395   2.140 -2.0020 -0.3567 -3.9761
  165MOL0     H22247   2.029   4.389   2.299 -2.8731 -1.2016 -1.1767
  165MOL0     H22248   2.186   4.336   2.381 -0.5719 -0.0898  0.1781
  165MOL0     H22249   2.008   4.214   2.490 -2.2363 -1.9562 -0.7662
  165MOL0     H22250   1.943   4.169   2.347  2.1413 -1.5205 -2.1671
  165MOL0     H22251   2.242   4.088   2.376 -0.0311 -1.1072  0.7243
  165MOL0     H22252   2.118   4.041   2.273 -0.3706  0.8420  0.0960
  165MOL0     H22253   1.996   3.964   2.517 -0.4697 -0.7356  1.1705
  165MOL0     H22254   2.089   3.856   2.413  3.4005 -1.2856  1.3123
  165MOL0     H22255   2.487   3.884   2.476  0.3431 -1.2149 -0.5642
  165MOL0     H22256   2.659   3.723   2.527  0.5739  1.5851  1.6289
  165MOL0     H22257   3.043   3.385   2.602  0.0848  1.1119  0.2357
  165MOL0     H22258   3.232   3.269   2.565  2.3910 -1.0660 -2.1499
  165MOL0     H22259   2.898   3.000   1.925  0.4336 -1.8448  0.1385
  165MOL0     H22260   2.668   3.098   1.845 -1.4699 -1.3380 -0.6980
  165MOL0     H22261   2.501   3.194   1.350 -0.8595 -1.2779 -0.5968
  165MOL0     H22262   2.319   3.325   1.223 -2.7091  0.9671  0.2597
  165MOL0     H22263   1.915   3.201   1.268 -2.5717  0.4836  0.8405
  165MOL0     H22264   1.930   3.358   1.173 -0.4637  0.0024  0.1097
  165MOL0     H22265   1.882   3.490   1.352 -2.6130  0.8325 -1.6277
  165MOL0     H22266   1.879   3.357   1.467  0.5434  0.0840  0.7603
  165MOL0     H22267   1.698   3.257   1.281 -1.1689  0.8295 -0.5897
  165MOL0     H22268   1.670   3.423   1.254  0.3133  0.1930  0.3775
  165MOL0     H22269   1.600   3.462   1.483  3.7624  0.2210 -1.6147
  165MOL0     H22270   1.496   3.345   1.389 -0.4390  0.0124  0.0618
  165MOL0     H22271   1.593   3.090   1.686 -2.1114 -1.8240 -1.8378
  165MOL0     H22272   2.045   3.235   1.538  0.2746  1.5096  0.1324
  165MOL0     H22273   2.289   3.220   1.783 -0.6393 -1.9762  4.5115
  165MOL0     H22274   2.122   3.204   1.744  0.6282  0.8072 -1.8215
  165MOL0     H22275   2.212   3.055   1.757  1.8268  0.1075  0.9703
  166MOL0     O22276   5.207   5.339   2.632 -0.2001  0.1157  0.3283
  166MOL0     C22277   5.269   5.268   2.549  0.7206 -0.5985  0.2962
  166MOL0     O22278   5.392   5.218   2.555  0.5659  0.2670  0.0402
  166MOL0     C22279   5.460   5.213   2.672  0.3606 -1.1285 -0.2955
  166MOL0     C22280   5.523   5.099   2.714  0.0976 -0.4092  0.3173
  166MOL0     C22281   5.612   5.109   2.831 -0.0818  0.5827  0.8423
  166MOL0     C22282   5.628   5.226   2.900 -0.2582 -0.2422  1.1294
  166MOL0     O22283   5.709   5.248   3.006 -0.1036  0.3468  0.1842
  166MOL0     C22284   5.805   5.361   2.998 -0.3730  0.8241 -0.2492
  166MOL0     C22285   5.946   5.312   3.004 -0.1872 -0.1472 -0.6634
  166MOL0     C22286   6.054   5.423   2.992  0.3159 -0.5937  0.7553
  166MOL0     C22287   6.190   5.389   3.051 -0.5307 -0.5080 -0.0931
  166MOL0     C22288   6.284   5.511   3.020 -0.2649  0.1178 -0.0445
  166MOL0     C22289   6.418   5.499   3.084 -0.5665 -0.2449 -1.0557
  166MOL0     C22290   6.406   5.465   3.240  0.7045 -0.1788  0.4610
  166MOL0     C22291   6.538   5.490   3.301 -0.5699 -0.1186  0.3208
  166MOL0     N22292   6.643   5.415   3.247 -0.5199  0.5132 -0.0131
  166MOL0     C22293   6.697   5.296   3.283  0.8865 -0.0819 -0.4330
  166MOL0     C22294   6.809   5.278   3.202 -0.3292 -0.8725 -0.0727
  166MOL0     C22295   6.902   5.153   3.214  0.2109 -0.1781  0.7466
  166MOL0     C22296   7.011   5.148   3.310 -0.2947 -0.2339 -0.5760
  166MOL0     C22297   7.123   5.251   3.306 -0.7757  0.6176  0.4023
  166MOL0     C22298   7.223   5.237   3.425 -0.0474  0.2983 -0.3850
  166MOL0     O22299   7.326   5.337   3.390 -0.1198  0.2568  0.6131
  166MOL0     C22300   7.449   5.293   3.341  1.0334  0.5866  0.0432
  166MOL0     C22301   7.478   5.163   3.294  0.9060  0.1045 -0.5813
  166MOL0     C22302   7.606   5.140   3.242  0.2008 -0.3920  0.1018
  166MOL0     C22303   7.703   5.236   3.246  0.6842 -0.6183 -0.1936
  166MOL0     C22304   7.838   5.203   3.213 -0.0882  0.8703  0.1103
  166MOL0     O22305   7.872   5.069   3.191  0.4761  0.5407 -0.7423
  166MOL0     C22306   8.000   5.024   3.181 -0.2639  0.8020 -0.4772
  166MOL0     C22307   8.110   5.078   3.255  0.2929  1.3433 -0.5151
  166MOL0     C22308   8.243   5.029   3.222 -0.2729  0.3949  0.2592
  166MOL0     C22309   8.261   4.921   3.134 -0.8847  0.4701 -0.8384
  166MOL0     O22310   8.394   4.892   3.115  0.7113  0.0571 -0.4740
  166MOL0     C22311   8.417   4.783   3.028  0.7335  0.2333  0.1572
  166MOL0     C22312   8.562   4.751   3.022  0.3904  0.5739  0.3749
  166MOL0     C22313   8.638   4.868   2.957 -0.9017 -0.3489 -0.7751
  166MOL0     C22314   8.778   4.828   2.918  0.3290  0.2384  0.6926
  166MOL0     C22315   8.846   4.913   2.804  0.9516  0.6404 -0.4958
  166MOL0     C22316   8.993   4.868   2.789  0.4038 -0.5010  0.4054
  166MOL0     C22317   9.062   4.931   2.669 -0.2364  0.2335  0.0000
  166MOL0     C22318   9.213   4.889   2.667 -0.0608 -0.3331  0.0406
  166MOL0    Cl22319   9.219   4.722   2.619 -0.2275  0.5335 -0.2467
  166MOL0     C22320   8.151   4.864   3.066  0.4491  0.4171 -0.2281
  166MOL0     C22321   8.032   4.926   3.082  0.4126 -0.3192 -0.5413
  166MOL0     O22322   7.912   5.300   3.185 -0.7597 -0.3540 -0.8907
  166MOL0     C22323   7.670   5.364   3.275 -0.3171  0.7417  0.4967
  166MOL0     C22324   7.544   5.393   3.321 -0.7069  0.2367  0.3373
  166MOL0     N22325   6.823   5.388   3.115 -0.4978 -0.0136 -0.7462
  166MOL0     N22326   6.728   5.471   3.155 -0.8588  0.5640 -0.3706
  166MOL0     C22327   5.560   5.341   2.857 -0.5841  0.3844 -0.1290
  166MOL0     C22328   5.474   5.333   2.748  0.2360  0.7328 -0.7246
  166MOL0     C22329   5.197   5.208   2.435  0.7068 -0.2042 -0.3431
  166MOL0     C22330   5.086   5.274   2.398  0.6890  0.9135  0.4271
  166MOL0     C22331   5.002   5.228   2.289  0.0162  0.3065  0.7393
  166MOL0     C22332   5.029   5.112   2.224 -0.2728  0.3503  0.5818
  166MOL0     O22333   4.967   5.062   2.112 -0.1228  0.0820 -0.0305
  166MOL0     C22334   4.857   5.145   2.058  0.6359  0.5548 -0.0399
  166MOL0     C22335   4.732   5.109   2.123  0.0918 -0.6788  0.2553
  166MOL0     C22336   4.716   4.955   2.129 -0.2284  0.3598  0.2846
  166MOL0     C22337   4.568   4.934   2.172  1.5526  0.9311  0.3307
  166MOL0     C22338   4.463   4.955   2.070  0.9629 -0.8955 -1.3263
  166MOL0     C22339   4.378   4.966   1.986 -0.0040 -0.5858 -0.7252
  166MOL0     C22340   5.147   5.044   2.270  0.2107  0.2359  0.4576
  166MOL0     C22341   5.237   5.093   2.362  0.0082  0.3789  0.5450
  166MOL0     C22342   5.338   4.982   2.412 -0.1814 -0.1889 -0.6171
  166MOL0     H22343   5.509   5.002   2.667  0.6385 -0.2189 -0.2623
  166MOL0     H22344   5.649   5.018   2.876 -0.0359  1.8127  3.4277
  166MOL0     H22345   5.795   5.426   2.910  0.0430 -1.7241 -2.3155
  166MOL0     H22346   5.796   5.420   3.090  0.6944  1.7707 -0.7305
  166MOL0     H22347   5.984   5.241   2.930  2.9664 -1.7189  2.1321
  166MOL0     H22348   5.959   5.261   3.100 -0.4007  2.3759  0.8026
  166MOL0     H22349   6.017   5.510   3.047 -0.5314  0.6007 -1.5810
  166MOL0     H22350   6.062   5.460   2.889  4.0581  1.4612  1.5868
  166MOL0     H22351   6.174   5.392   3.160  0.5533  2.9512  0.1011
  166MOL0     H22352   6.227   5.292   3.015 -0.7267 -1.1888  1.4420
  166MOL0     H22353   6.292   5.534   2.913  0.2156  1.1784  0.2104
  166MOL0     H22354   6.234   5.598   3.062 -1.4382 -0.6134  0.1088
  166MOL0     H22355   6.484   5.426   3.035 -0.3665 -1.4964  0.9403
  166MOL0     H22356   6.458   5.601   3.081 -4.3838  1.5377  1.4507
  166MOL0     H22357   6.367   5.364   3.257 -2.9547  0.7262 -1.3835
  166MOL0     H22358   6.332   5.535   3.280 -0.7791 -0.6977 -1.2262
  166MOL0     H22359   6.560   5.596   3.284 -1.1024 -0.2008 -0.9697
  166MOL0     H22360   6.524   5.463   3.406 -0.3550 -0.5536  0.2375
  166MOL0     H22361   6.655   5.230   3.358 -0.1824  1.5383  0.4402
  166MOL0     H22362   6.839   5.065   3.232  1.5652 -1.1570  0.8934
  166MOL0     H22363   6.951   5.127   3.121 -0.6918  1.3748 -0.2083
  166MOL0     H22364   6.967   5.158   3.410  0.7330  0.1611 -0.1405
  166MOL0     H22365   7.060   5.050   3.307 -0.2418 -0.1862 -1.2700
  166MOL0     H22366   7.070   5.345   3.324 -0.2540  0.8182  0.9053
  166MOL0     H22367   7.173   5.246   3.208 -3.0923 -1.1213 -0.8069
  166MOL0     H22368   7.255   5.134   3.445 -1.9964  0.0554  1.8136
  166MOL0     H22369   7.164   5.262   3.513 -0.9686  2.6799 -1.5878
  166MOL0     H22370   7.400   5.088   3.292  2.4816 -1.6641  0.3192
  166MOL0     H22371   7.627   5.039   3.209  0.5363  0.1961 -1.5974
  166MOL0     H22372   8.109   5.158   3.329  1.6562  0.1335  0.9056
  166MOL0     H22373   8.330   5.082   3.261  0.6429 -2.3801  2.3329
  166MOL0     H22374   8.360   4.705   3.079 -2.2894  2.3595  0.2593
  166MOL0     H22375   8.369   4.808   2.933 -0.9905  1.4169  1.3062
  166MOL0     H22376   8.604   4.733   3.121 -1.8570 -0.0437  1.2719
  166MOL0     H22377   8.563   4.656   2.969 -1.0951  0.3711  0.6762
  166MOL0     H22378   8.586   4.902   2.867 -2.0538  1.1796  0.4136
  166MOL0     H22379   8.633   4.949   3.031 -2.6533 -1.4509  0.4032
  166MOL0     H22380   8.787   4.727   2.878  3.4874 -0.4976  2.8104
  166MOL0     H22381   8.844   4.827   3.006 -0.0340 -0.4279  0.9631
  166MOL0     H22382   8.858   5.014   2.845 -0.7983  0.3439  0.8466
  166MOL0     H22383   8.792   4.912   2.708  0.3346 -0.4840 -0.1542
  166MOL0     H22384   9.041   4.914   2.876 -1.3514  2.2250  0.0752
  166MOL0     H22385   9.007   4.760   2.793  0.7248 -0.5077 -0.5141
  166MOL0     H22386   9.070   5.040   2.683 -0.9811 -0.0207  2.9783
  166MOL0     H22387   9.012   4.897   2.578  0.5465  0.0268 -0.3563
  166MOL0     H22388   9.275   4.939   2.591  1.3051 -2.0959 -0.0816
  166MOL0     H22389   9.260   4.902   2.765 -2.1336  1.9947  0.8398
  166MOL0     H22390   8.160   4.780   2.998 -2.1705  1.2315 -1.7495
  166MOL0     H22391   7.958   4.895   3.009 -0.0908  0.2213 -0.2696
  166MOL0     H22392   7.744   5.442   3.259 -0.1512  0.4291 -0.2857
  166MOL0     H22393   7.534   5.498   3.346  2.9973  0.2730  2.3216
  166MOL0     H22394   5.558   5.430   2.920 -2.2739  0.0490  0.3572
  166MOL0     H22395   5.421   5.424   2.721  2.5078  2.8066  1.3523
  166MOL0     H22396   5.054   5.360   2.455  0.9360  1.9744 -0.9758
  166MOL0     H22397   4.919   5.286   2.250  0.9366  1.9018  1.0492
  166MOL0     H22398   4.838   5.118   1.954  2.0759 -1.6304  0.2078
  166MOL0     H22399   4.873   5.254   2.056  1.0785  0.5118  0.8174
  166MOL0     H22400   4.647   5.160   2.077  0.4788 -1.4687 -1.4008
  166MOL0     H22401   4.731   5.146   2.226 -2.2293 -2.3140  0.8946
  166MOL0     H22402   4.784   4.899   2.195 -0.2004 -0.6425 -0.5510
  166MOL0     H22403   4.743   4.911   2.032  0.2970 -1.9295  1.3765
  166MOL0     H22404   4.554   4.828   2.195  3.1790  0.7437  0.5719
  166MOL0     H22405   4.538   4.990   2.260  0.1401  1.3488 -0.3857
  166MOL0     H22406   4.289   4.975   1.926 -1.0835  0.3101  0.9243
  166MOL0     H22407   5.182   4.956   2.218 -1.4700  0.7437 -1.6923
  166MOL0     H22408   5.314   4.880   2.381  0.9841 -1.2503  1.7482
  166MOL0     H22409   5.442   4.999   2.381 -0.4732  0.4622 -1.2660
  166MOL0     H22410   5.336   4.978   2.521  1.0420 -3.6755 -0.6077
  167MOL0     O22411   1.812   4.338  10.327  0.8325 -0.2977  0.5545
  167MOL0     C22412   1.827   4.419  10.238  0.2545 -0.5679  0.7518
  167MOL0     O22413   1.725   4.483  10.172  0.3061  0.4851  0.0454
  167MOL0     C22414   1.596   4.475  10.213  0.0096  0.4100 -1.0521
  167MOL0     C22415   1.534   4.552  10.312 -0.4117 -0.2429  0.1857
  167MOL0     C22416   1.391   4.538  10.332  0.8262  0.4170  1.4255
  167MOL0     C22417   1.319   4.434  10.274  0.0284  0.4929  0.4455
  167MOL0     O22418   1.194   4.429  10.316  0.2384  0.8716 -1.0844
  167MOL0     C22419   1.101   4.339  10.255 -0.1588  0.8500 -1.1559
  167MOL0     C22420   0.985   4.409  10.180  0.4554 -0.1143 -0.1456
  167MOL0     C22421   0.876   4.314  10.146  0.6051 -0.9939 -0.3268
  167MOL0     C22422   0.768   4.382  10.061  0.5264 -1.0594 -0.0976
  167MOL0     C22423   0.658   4.281  10.024 -0.1010  0.0862  1.0605
  167MOL0     C22424   0.710   4.199   9.897  1.0136  0.2921  1.4154
  167MOL0     C22425   0.617   4.082   9.853 -0.2890  0.0110  0.7456
  167MOL0     C22426   0.476   4.129   9.837 -0.0621 -0.8241 -0.0796
  167MOL0     N22427   0.418   4.058   9.721  0.3353  0.1770 -0.6715
  167MOL0     C22428   0.360   3.938   9.717  0.1272 -0.9697 -0.5103
  167MOL0     C22429   0.331   3.910   9.589 -0.1681 -0.3710 -0.0310
  167MOL0     C22430   0.256   3.789   9.532 -0.2960 -0.4656  0.0121
  167MOL0     C22431   0.096   3.794   9.529 -0.2174  0.2905 -0.2468
  167MOL0     C22432   0.034   3.915   9.453  0.3373  0.4189 -0.2217
  167MOL0     C22433   0.102   3.936   9.312  0.2271 -1.2017 -0.3765
  167MOL0     O22434   0.078   3.827   9.219  0.4637  0.3855 -0.2452
  167MOL0     C22435  -0.027   3.826   9.139  0.0805 -0.2569 -0.2522
  167MOL0     C22436  -0.078   3.700   9.097  0.7430 -0.1308  0.6515
  167MOL0     C22437  -0.204   3.688   9.041  0.0996  0.1084  0.7655
  167MOL0     C22438  -0.288   3.799   9.018  0.5520 -0.0567 -0.4627
  167MOL0     C22439  -0.414   3.787   8.948 -0.1798 -0.0142 -0.1726
  167MOL0     O22440  -0.458   3.660   8.932  0.0031 -0.8516 -0.3953
  167MOL0     C22441  -0.579   3.643   8.870 -0.2072 -0.0643  0.6800
  167MOL0     C22442  -0.634   3.702   8.746 -0.3166  0.6095 -0.2042
  167MOL0     C22443  -0.750   3.667   8.697  0.3117 -0.0823 -0.5064
  167MOL0     C22444  -0.839   3.580   8.764  0.0386 -0.5549  0.0408
  167MOL0     O22445  -0.976   3.565   8.740 -0.8164  0.4905  0.1276
  167MOL0     C22446  -1.029   3.634   8.629 -0.4093  0.4135 -0.2366
  167MOL0     C22447  -1.177   3.599   8.611 -0.0633 -0.0141  0.5365
  167MOL0     C22448  -1.263   3.700   8.528  0.3605  0.2409 -0.3842
  167MOL0     C22449  -1.416   3.657   8.531 -0.5869 -0.8498  0.2780
  167MOL0     C22450  -1.431   3.533   8.442 -0.0325 -0.9471 -0.5014
  167MOL0     C22451  -1.578   3.503   8.410  0.1094  0.5008 -0.2237
  167MOL0     C22452  -1.590   3.380   8.320 -0.5185  0.7856  0.6373
  167MOL0     C22453  -1.721   3.385   8.237  0.3873 -0.1526 -0.9219
  167MOL0    Cl22454  -1.870   3.384   8.329  0.1354 -0.3800 -0.3463
  167MOL0     C22455  -0.793   3.510   8.878 -0.1101 -0.3022 -0.2621
  167MOL0     C22456  -0.667   3.552   8.938  1.1243  0.1644  0.3707
  167MOL0     O22457  -0.480   3.889   8.921  0.2632  0.7572  0.1492
  167MOL0     C22458  -0.238   3.924   9.058  0.8725 -0.3464  0.9406
  167MOL0     C22459  -0.111   3.939   9.119  0.7211  0.3746  0.1834
  167MOL0     N22460   0.375   4.018   9.511 -0.2797  0.5308 -0.3106
  167MOL0     N22461   0.419   4.102   9.592 -0.2139  0.1249  0.6658
  167MOL0     C22462   1.385   4.366  10.173 -0.3308  0.7892 -0.0002
  167MOL0     C22463   1.522   4.380  10.147  0.1586 -0.0649  0.5553
  167MOL0     C22464   1.970   4.474  10.239 -0.5013  0.9779 -0.0217
  167MOL0     C22465   1.995   4.608  10.219 -1.0972 -0.0025  0.6642
  167MOL0     C22466   2.127   4.652  10.196 -0.1190  0.8747 -0.6380
  167MOL0     C22467   2.224   4.560  10.205 -0.1017  0.5057  0.0497
  167MOL0     O22468   2.356   4.603  10.189  0.2502 -0.2425 -0.2538
  167MOL0     C22469   2.425   4.522  10.092  0.0883  0.2271 -0.4196
  167MOL0     C22470   2.516   4.608  10.004 -0.5902 -0.0353  0.4927
  167MOL0     C22471   2.618   4.519   9.928  0.0579  0.7028  0.6967
  167MOL0     C22472   2.678   4.592   9.808  0.2235  0.0193  0.2308
  167MOL0     C22473   2.783   4.683   9.855 -0.2087 -0.1810 -0.1523
  167MOL0     C22474   2.875   4.755   9.889  1.0541  0.4129  0.1263
  167MOL0     C22475   2.209   4.425  10.231  0.7560 -0.0920  0.0776
  167MOL0     C22476   2.074   4.379  10.242 -0.1789 -1.0701  0.1338
  167MOL0     C22477   2.052   4.233  10.249  1.0805  0.6826 -0.5030
  167MOL0     H22478   1.604   4.623  10.355  0.2194 -0.1813 -0.8867
  167MOL0     H22479   1.341   4.609  10.398 -0.3806  2.0834 -1.1288
  167MOL0     H22480   1.154   4.265  10.195  3.6450  0.1197  2.6665
  167MOL0     H22481   1.056   4.272  10.328 -0.2789 -0.6259 -2.5396
  167MOL0     H22482   1.024   4.449  10.086 -0.0031  0.5143 -0.0792
  167MOL0     H22483   0.931   4.481  10.243 -1.2540 -2.9468  1.8904
  167MOL0     H22484   0.822   4.280  10.235 -1.0769  0.5592 -0.6979
  167MOL0     H22485   0.919   4.229  10.091  4.6681  1.0807 -0.7074
  167MOL0     H22486   0.719   4.453  10.128 -1.9125 -1.2856 -1.5458
  167MOL0     H22487   0.815   4.440   9.980  0.9763 -0.3387  0.6598
  167MOL0     H22488   0.652   4.211  10.108  0.5510 -1.4842 -0.1540
  167MOL0     H22489   0.567   4.339  10.004 -0.8628 -1.5342 -0.4139
  167MOL0     H22490   0.705   4.274   9.818 -0.5317  0.1684  1.3663
  167MOL0     H22491   0.810   4.156   9.905  1.0024 -0.4961 -1.6242
  167MOL0     H22492   0.628   3.998   9.922 -2.8986 -0.2962  0.8805
  167MOL0     H22493   0.652   4.052   9.754 -2.4623  0.1172 -0.0998
  167MOL0     H22494   0.416   4.105   9.925  1.0396  2.3019  1.6841
  167MOL0     H22495   0.483   4.237   9.828  1.1409 -0.9167 -0.5313
  167MOL0     H22496   0.335   3.876   9.803  1.4300  0.8239  1.2542
  167MOL0     H22497   0.286   3.777   9.428 -0.7537  2.2695 -0.5099
  167MOL0     H22498   0.277   3.697   9.588 -3.0969 -0.5834  1.0256
  167MOL0     H22499   0.069   3.706   9.470  0.5150 -2.2931  2.9761
  167MOL0     H22500   0.052   3.796   9.629  2.2159 -3.5618  1.1308
  167MOL0     H22501   0.056   4.010   9.503  0.5758 -0.2073  0.8889
  167MOL0     H22502  -0.074   3.904   9.444 -0.3030  1.9106  3.6872
  167MOL0     H22503   0.210   3.943   9.325  0.2575 -2.5875  0.3863
  167MOL0     H22504   0.076   4.029   9.262 -0.6283 -1.2285 -0.0034
  167MOL0     H22505  -0.015   3.616   9.126 -0.8697 -0.6013  3.0593
  167MOL0     H22506  -0.238   3.587   9.017 -1.7063  0.8273  0.1329
  167MOL0     H22507  -0.575   3.773   8.689  0.3485  0.3517  0.1581
  167MOL0     H22508  -0.777   3.718   8.605  1.2046 -1.5530 -1.6295
  167MOL0     H22509  -1.019   3.737   8.664  2.7565  0.1779 -0.1614
  167MOL0     H22510  -0.978   3.610   8.536  0.9416 -0.1137  0.6095
  167MOL0     H22511  -1.177   3.499   8.568 -0.5978 -0.2318  1.0249
  167MOL0     H22512  -1.224   3.606   8.710 -3.3415 -0.0716 -0.9239
  167MOL0     H22513  -1.258   3.801   8.568  0.3572  0.1094 -0.0473
  167MOL0     H22514  -1.223   3.697   8.426  2.1835 -4.0970  0.2296
  167MOL0     H22515  -1.484   3.728   8.485 -1.2698 -1.7692 -0.1695
  167MOL0     H22516  -1.447   3.635   8.634 -0.1654 -0.4793  0.4866
  167MOL0     H22517  -1.383   3.455   8.502 -0.0259 -1.0938 -0.6990
  167MOL0     H22518  -1.376   3.534   8.348  0.6363 -1.4468 -0.1277
  167MOL0     H22519  -1.637   3.483   8.500  1.7095 -1.7581  0.4050
  167MOL0     H22520  -1.613   3.583   8.344 -0.7728 -0.7659 -1.3695
  167MOL0     H22521  -1.574   3.284   8.370  3.3770  1.6150  1.2835
  167MOL0     H22522  -1.507   3.373   8.249  0.2584 -0.7681  1.6445
  167MOL0     H22523  -1.724   3.476   8.176  1.4018  1.0067  0.6709
  167MOL0     H22524  -1.727   3.302   8.167 -0.0989 -2.8936  2.1248
  167MOL0     H22525  -0.864   3.443   8.926  0.3161 -0.2426  0.4605
  167MOL0     H22526  -0.643   3.513   9.036  0.7875 -1.9105 -0.3307
  167MOL0     H22527  -0.304   4.008   9.038 -0.0922 -1.0029  1.3146
  167MOL0     H22528  -0.084   4.041   9.147 -1.2994  1.4853 -1.5489
  167MOL0     H22529   1.332   4.296  10.110 -0.7347  1.1777 -0.0949
  167MOL0     H22530   1.569   4.315  10.074  1.2268  0.2269  0.9708
  167MOL0     H22531   1.925   4.690  10.230  0.4322  1.0504  3.3506
  167MOL0     H22532   2.155   4.755  10.179 -1.4115  0.9151 -2.8638
  167MOL0     H22533   2.355   4.476  10.022 -2.4527  0.0846  2.0292
  167MOL0     H22534   2.488   4.459  10.155 -2.2844 -0.6052  1.2962
  167MOL0     H22535   2.562   4.686  10.066  2.2601 -0.7567 -0.5793
  167MOL0     H22536   2.455   4.652   9.925  2.0569 -1.2029 -2.3837
  167MOL0     H22537   2.576   4.433   9.875  0.7405  1.5788 -1.4007
  167MOL0     H22538   2.698   4.476   9.989  1.6314  1.6307 -0.6191
  167MOL0     H22539   2.729   4.516   9.748 -0.8650 -0.7164  0.2125
  167MOL0     H22540   2.610   4.648   9.743  0.4509  0.4096  0.3257
  167MOL0     H22541   2.956   4.819   9.917  0.9928  0.9408 -0.8552
  167MOL0     H22542   2.298   4.364  10.223  2.0502  1.8259 -1.0893
  167MOL0     H22543   1.984   4.198  10.170  3.4023  1.7235 -3.1119
  167MOL0     H22544   2.150   4.184  10.244  1.2839  1.0060  0.3115
  167MOL0     H22545   2.007   4.203  10.344  1.5045 -0.7504 -0.7223
  168MOL0     O22546  10.793   4.418   9.996 -0.0901  0.2937 -0.3054
  168MOL0     C22547  10.830   4.307   9.965  0.9751 -0.0859  0.8074
  168MOL0     O22548  10.938   4.240  10.010  0.0405 -0.0287 -0.4816
  168MOL0     C22549  11.033   4.318  10.071  1.0659  0.1559 -0.9651
  168MOL0     C22550  11.079   4.284  10.200  0.2066 -1.3040  1.7024
  168MOL0     C22551  11.183   4.349  10.257 -0.0828 -0.2509  0.9614
  168MOL0     C22552  11.247   4.458  10.187  0.0556  0.4472  0.1980
  168MOL0     O22553  11.355   4.532  10.236 -0.2007  0.0790  0.7193
  168MOL0     C22554  11.410   4.498  10.358  0.0590  1.1609 -0.5401
  168MOL0     C22555  11.532   4.574  10.393 -0.5590 -1.2044  0.0020
  168MOL0     C22556  11.601   4.524  10.521  0.9040  0.3733  0.0228
  168MOL0     C22557  11.732   4.608  10.553 -0.3391 -0.2344 -0.2641
  168MOL0     C22558  11.780   4.574  10.690  0.0372 -0.4112 -0.0867
  168MOL0     C22559  11.917   4.650  10.720  0.0571  0.4257  0.2434
  168MOL0     C22560  11.985   4.562  10.828  0.0705 -0.3581  0.5811
  168MOL0     C22561  12.121   4.615  10.875 -0.5564  1.1595 -0.4883
  168MOL0     N22562  12.194   4.517  10.961 -0.6752  0.0481  0.4214
  168MOL0     C22563  12.290   4.425  10.909  0.1563 -0.4178 -0.6755
  168MOL0     C22564  12.363   4.383  11.019  0.7906 -0.6689 -0.2527
  168MOL0     C22565  12.472   4.287  11.022 -0.9660 -0.0800  1.0357
  168MOL0     C22566  12.438   4.146  11.080  0.2078  0.1537  0.3542
  168MOL0     C22567  12.419   4.116  11.225 -0.3577 -0.6640 -0.0027
  168MOL0     C22568  12.546   4.101  11.305 -0.9295 -0.1850  0.5589
  168MOL0     O22569  12.613   4.228  11.323 -0.4296 -0.1274 -0.0223
  168MOL0     C22570  12.708   4.247  11.418 -0.1431  0.2808 -0.8083
  168MOL0     C22571  12.752   4.156  11.515  0.7316  0.5248 -0.0593
  168MOL0     C22572  12.869   4.171  11.588 -0.5826 -0.1831 -0.8303
  168MOL0     C22573  12.952   4.287  11.566  0.2595  1.1742  0.3027
  168MOL0     C22574  13.079   4.313  11.639  0.7399 -0.1887 -0.8276
  168MOL0     O22575  13.153   4.418  11.592  0.0159  0.5729 -0.5912
  168MOL0     C22576  13.268   4.456  11.667  0.8566 -0.9928 -0.0970
  168MOL0     C22577  13.357   4.364  11.722 -0.7662  0.1950  0.6479
  168MOL0     C22578  13.480   4.404  11.774 -0.3996 -0.1017  0.4119
  168MOL0     C22579  13.515   4.545  11.779 -0.6760  0.3192  0.2804
  168MOL0     O22580  13.631   4.566  11.845  0.1867  0.1578 -0.0251
  168MOL0     C22581  13.698   4.692  11.822  0.3991 -0.1355 -0.0777
  168MOL0     C22582  13.818   4.707  11.916 -0.1175  0.4928  0.5893
  168MOL0     C22583  13.953   4.648  11.858  0.2464 -0.2230  0.3371
  168MOL0     C22584  14.061   4.651  11.963  0.2043  0.1007 -0.4758
  168MOL0     C22585  14.197   4.606  11.924 -0.0622  0.0012  0.2009
  168MOL0     C22586  14.296   4.617  12.041  0.5063  0.9937  0.0994
  168MOL0     C22587  14.259   4.531  12.163  0.4440 -0.6494 -0.0767
  168MOL0     C22588  14.249   4.390  12.120  0.8610 -0.2498  0.0710
  168MOL0    Cl22589  14.391   4.340  12.022 -0.4405  0.0724 -0.1288
  168MOL0     C22590  13.434   4.635  11.717  0.4827  0.4408  0.1766
  168MOL0     C22591  13.307   4.597  11.673  0.0533 -0.1822  0.6329
  168MOL0     O22592  13.115   4.225  11.713 -0.3711  0.1563 -0.1209
  168MOL0     C22593  12.914   4.381  11.463  0.3725  1.4875 -0.2187
  168MOL0     C22594  12.789   4.354  11.394 -0.9056  0.1990 -0.2118
  168MOL0     N22595  12.304   4.441  11.127  0.0946 -0.8949  0.7041
  168MOL0     N22596  12.207   4.526  11.094 -0.8086 -0.1786  0.5871
  168MOL0     C22597  11.213   4.479  10.053  0.3073  0.7035  0.2148
  168MOL0     C22598  11.105   4.412   9.993  0.2699  0.1426  0.3770
  168MOL0     C22599  10.750   4.230   9.863 -0.6561  0.4802  0.6192
  168MOL0     C22600  10.732   4.090   9.889  0.3543 -1.1643  0.3881
  168MOL0     C22601  10.640   4.018   9.820  0.3527  0.0652 -0.1406
  168MOL0     C22602  10.562   4.068   9.719 -0.0149  0.4387 -0.8056
  168MOL0     O22603  10.463   4.003   9.666  0.2755 -0.1252  0.1510
  168MOL0     C22604  10.445   3.863   9.680  1.4516  0.3721 -0.4984
  168MOL0     C22605  10.335   3.821   9.578 -0.4253 -0.3359 -0.0361
  168MOL0     C22606  10.189   3.860   9.611 -0.0151  0.2535 -0.6227
  168MOL0     C22607  10.087   3.751   9.553  0.5287  0.7263 -0.0385
  168MOL0     C22608   9.952   3.786   9.609 -0.3591 -0.3187  0.3738
  168MOL0     C22609   9.841   3.804   9.643 -0.6652  0.0093  0.6679
  168MOL0     C22610  10.577   4.198   9.686  0.1560 -0.3338  0.3581
  168MOL0     C22611  10.665   4.282   9.762  0.0510  0.4745  0.0244
  168MOL0     C22612  10.658   4.422   9.742 -0.4077  0.9033 -0.6866
  168MOL0     H22613  11.033   4.211  10.266  0.6651 -0.7736  2.6341
  168MOL0     H22614  11.216   4.315  10.355  0.1248  0.7564  1.2547
  168MOL0     H22615  11.339   4.516  10.440 -0.6584 -0.4881 -0.7539
  168MOL0     H22616  11.424   4.390  10.366 -0.9111  1.0642  0.1431
  168MOL0     H22617  11.495   4.675  10.415  0.0178 -1.1592  0.8329
  168MOL0     H22618  11.601   4.578  10.308  2.5596  2.8831  2.3329
  168MOL0     H22619  11.626   4.417  10.517  0.4103  0.0856  2.8900
  168MOL0     H22620  11.530   4.537  10.602  0.1873  0.5573 -0.6258
  168MOL0     H22621  11.806   4.601  10.473  1.2596 -2.0531  1.2733
  168MOL0     H22622  11.707   4.715  10.550 -2.5350 -0.6649 -4.0032
  168MOL0     H22623  11.702   4.600  10.762  1.4133 -1.4860  1.9272
  168MOL0     H22624  11.780   4.465  10.700  1.5027 -0.6245 -1.8224
  168MOL0     H22625  11.973   4.664  10.627  1.9875  1.5960  1.5017
  168MOL0     H22626  11.886   4.751  10.749 -1.7756 -0.2308  0.7403
  168MOL0     H22627  11.984   4.457  10.797  0.3165 -0.1737 -0.0702
  168MOL0     H22628  11.926   4.566  10.920 -2.1823  1.7604 -0.8628
  168MOL0     H22629  12.185   4.644  10.791 -4.0140  0.3475 -3.6753
  168MOL0     H22630  12.098   4.704  10.933 -2.1463  0.6130 -0.2480
  168MOL0     H22631  12.315   4.407  10.805 -1.5953  0.9300 -1.3846
  168MOL0     H22632  12.510   4.275  10.920  0.6691  0.4994  1.5470
  168MOL0     H22633  12.552   4.335  11.079 -1.0262  2.6768 -0.9834
  168MOL0     H22634  12.347   4.122  11.026  1.0198 -0.6233 -0.7273
  168MOL0     H22635  12.516   4.075  11.048 -0.5413 -0.9278  0.8814
  168MOL0     H22636  12.366   4.022  11.241  0.2074 -1.3613 -2.0343
  168MOL0     H22637  12.354   4.188  11.277  0.5388 -0.4262  0.8140
  168MOL0     H22638  12.605   4.029  11.247 -1.4912  0.6530 -1.1152
  168MOL0     H22639  12.532   4.051  11.402  0.0489  2.2921  2.0834
  168MOL0     H22640  12.685   4.071  11.525  2.1552 -0.6803 -0.4496
  168MOL0     H22641  12.896   4.099  11.665  0.8733 -1.2989 -2.3053
  168MOL0     H22642  13.354   4.256  11.709  2.4090  0.1215 -0.1584
  168MOL0     H22643  13.553   4.331  11.807 -0.5497 -0.1574  0.6255
  168MOL0     H22644  13.728   4.697  11.716  1.0211  1.0082  0.1357
  168MOL0     H22645  13.630   4.775  11.841 -2.3672 -2.5123  1.1421
  168MOL0     H22646  13.824   4.815  11.930 -2.1120  0.9490 -1.5066
  168MOL0     H22647  13.789   4.655  12.008 -1.6335  1.1883  0.5240
  168MOL0     H22648  13.929   4.550  11.815  2.9332 -0.0895 -1.7303
  168MOL0     H22649  13.992   4.713  11.778 -1.2853 -0.9659 -1.0968
  168MOL0     H22650  14.021   4.582  12.038  1.9159 -1.3838 -0.8468
  168MOL0     H22651  14.071   4.753  12.001  1.7843 -0.0393 -0.4425
  168MOL0     H22652  14.233   4.663  11.839  0.0434 -0.3269  0.0233
  168MOL0     H22653  14.191   4.505  11.882  2.7087 -0.2713  0.3262
  168MOL0     H22654  14.394   4.592  11.999  0.1955 -1.8335  0.8853
  168MOL0     H22655  14.312   4.720  12.074  1.4673  0.7867  0.3136
  168MOL0     H22656  14.170   4.571  12.213  0.8911  0.3149 -0.0447
  168MOL0     H22657  14.336   4.531  12.241  0.8926 -1.7483 -0.5003
  168MOL0     H22658  14.235   4.326  12.208 -2.2121 -0.0332 -0.1413
  168MOL0     H22659  14.157   4.370  12.064  1.1068 -1.6439  0.1245
  168MOL0     H22660  13.456   4.741  11.709 -2.3428  1.2013  1.3400
  168MOL0     H22661  13.251   4.683  11.636 -0.2475 -0.0609  1.3458
  168MOL0     H22662  12.972   4.465  11.427 -1.2768  2.2118 -1.3190
  168MOL0     H22663  12.785   4.414  11.303  0.3526  0.9340  0.1973
  168MOL0     H22664  11.269   4.551   9.993 -1.3106  0.4590 -1.6703
  168MOL0     H22665  11.061   4.432   9.896 -0.7988 -0.3618  0.7414
  168MOL0     H22666  10.779   4.034   9.969 -0.2058 -2.7141 -0.3245
  168MOL0     H22667  10.639   3.913   9.849  1.7635  0.1137  0.1485
  168MOL0     H22668  10.422   3.824   9.779  2.9953 -1.9607 -0.9814
  168MOL0     H22669  10.537   3.808   9.659 -0.2162 -3.9948  2.1565
  168MOL0     H22670  10.341   3.714   9.558 -1.0101 -0.1018 -1.5661
  168MOL0     H22671  10.358   3.856   9.477  4.5212 -0.2198  0.9040
  168MOL0     H22672  10.175   3.957   9.563  0.4291  0.3733 -0.5213
  168MOL0     H22673  10.177   3.872   9.719 -1.3793 -1.1465 -0.5797
  168MOL0     H22674  10.084   3.761   9.444  2.3438 -1.3760 -0.3574
  168MOL0     H22675  10.118   3.652   9.585 -3.7069 -0.2461  1.7852
  168MOL0     H22676   9.739   3.829   9.663 -0.4342 -0.0430  1.9728
  168MOL0     H22677  10.515   4.242   9.609 -2.4602  0.0397  2.5138
  168MOL0     H22678  10.624   4.456   9.841  1.1239  0.5753 -0.0289
  168MOL0     H22679  10.756   4.466   9.722  0.4709 -0.6314  0.0674
  168MOL0     H22680  10.592   4.457   9.662 -0.2646  2.7386 -0.0543
  169MOL0     O22681   1.417   5.287   4.917 -0.5171  0.2273  0.4846
  169MOL0     C22682   1.376   5.228   5.016  0.4500 -0.0651  0.6460
  169MOL0     O22683   1.403   5.250   5.148  0.2882  0.1756 -0.1916
  169MOL0     C22684   1.494   5.345   5.186  0.5709  0.3616 -0.5306
  169MOL0     C22685   1.490   5.374   5.325 -0.2381 -0.3947 -0.3503
  169MOL0     C22686   1.581   5.452   5.396 -0.4663  0.3446  0.2248
  169MOL0     C22687   1.679   5.513   5.319 -0.2387  0.1608 -0.4114
  169MOL0     O22688   1.765   5.608   5.392  0.4799 -0.5701 -0.2543
  169MOL0     C22689   1.837   5.710   5.323  0.5002  0.9168  0.2118
  169MOL0     C22690   1.892   5.805   5.428  0.2877 -0.1549  0.1109
  169MOL0     C22691   2.006   5.751   5.515  0.3730 -0.5936  0.2457
  169MOL0     C22692   2.036   5.863   5.618  0.9361 -0.5937 -0.1367
  169MOL0     C22693   2.163   5.811   5.701  0.4314  0.0709  0.7611
  169MOL0     C22694   2.143   5.687   5.797 -1.2198 -0.1177 -0.3061
  169MOL0     C22695   2.001   5.679   5.857  0.1458 -0.7573  0.7016
  169MOL0     C22696   1.959   5.788   5.952 -0.1332  0.8111  0.4144
  169MOL0     N22697   2.033   5.781   6.079 -0.0151  0.7217 -0.0368
  169MOL0     C22698   2.152   5.850   6.094  0.5727 -0.0938 -0.0519
  169MOL0     C22699   2.182   5.830   6.232  0.0285  0.5930 -0.3755
  169MOL0     C22700   2.286   5.891   6.317 -0.1120  0.7672  0.4037
  169MOL0     C22701   2.389   5.783   6.362 -0.5009 -0.0820  0.0349
  169MOL0     C22702   2.451   5.691   6.257  0.3611  0.1798  0.5918
  169MOL0     C22703   2.548   5.587   6.317 -0.6079 -0.2883  0.5336
  169MOL0     O22704   2.578   5.498   6.204  0.3366  0.6351  0.2663
  169MOL0     C22705   2.701   5.462   6.202 -1.0103  0.1762  0.1424
  169MOL0     C22706   2.795   5.544   6.147 -0.5516 -0.0233 -0.3784
  169MOL0     C22707   2.929   5.527   6.155 -0.3350 -0.4560  0.1725
  169MOL0     C22708   2.977   5.409   6.215 -0.4157 -0.1259 -0.0114
  169MOL0     C22709   3.126   5.364   6.220  0.1536 -1.5204 -0.4277
  169MOL0     O22710   3.161   5.241   6.263  0.2323  0.5437  0.2374
  169MOL0     C22711   3.298   5.213   6.276  0.0539  0.2349 -0.2064
  169MOL0     C22712   3.371   5.186   6.161  0.2381 -0.8077  0.0370
  169MOL0     C22713   3.497   5.132   6.178 -0.0742 -0.5511  0.1434
  169MOL0     C22714   3.546   5.098   6.305 -1.0769  0.3091 -0.4370
  169MOL0     O22715   3.672   5.043   6.316 -0.0643 -0.7874  0.1847
  169MOL0     C22716   3.696   4.942   6.404  1.0042 -0.2294 -0.6274
  169MOL0     C22717   3.828   4.881   6.356 -0.3026  0.4678 -0.0248
  169MOL0     C22718   3.946   4.969   6.369 -0.1145  0.3553 -0.5459
  169MOL0     C22719   4.057   4.893   6.297  0.0712  0.7642 -0.1376
  169MOL0     C22720   4.184   4.973   6.337  0.1065 -0.9307  0.2990
  169MOL0     C22721   4.309   4.912   6.276  0.5745 -0.0389  0.2944
  169MOL0     C22722   4.432   4.975   6.332  0.6574 -0.7572  0.7771
  169MOL0     C22723   4.458   5.117   6.287 -0.3132 -0.3313  0.2996
  169MOL0    Cl22724   4.448   5.129   6.099  0.1589  0.1934 -0.2725
  169MOL0     C22725   3.467   5.117   6.415  0.5460  0.0230  0.2061
  169MOL0     C22726   3.344   5.175   6.396  0.1847  0.5048  0.1620
  169MOL0     O22727   3.218   5.449   6.185 -0.1505 -0.0871  0.3311
  169MOL0     C22728   2.880   5.330   6.286 -0.3363 -0.5167  0.0071
  169MOL0     C22729   2.737   5.351   6.279 -1.0975  0.3795  0.3746
  169MOL0     N22730   2.068   5.765   6.292 -0.5377  0.3787 -0.1937
  169MOL0     N22731   1.989   5.736   6.200  0.4083  0.0466  0.6235
  169MOL0     C22732   1.686   5.482   5.184 -0.1844  0.6376  0.7472
  169MOL0     C22733   1.592   5.405   5.117  0.3133 -0.1944  0.4388
  169MOL0     C22734   1.279   5.103   5.001  0.5898 -0.1532  0.9675
  169MOL0     C22735   1.289   4.999   5.095 -0.0054 -0.2415  0.1249
  169MOL0     C22736   1.215   4.887   5.071 -0.7041 -0.2088 -0.1570
  169MOL0     C22737   1.136   4.869   4.959  0.3008 -0.0185 -0.2695
  169MOL0     O22738   1.055   4.763   4.922 -0.6086  0.1673 -0.5593
  169MOL0     C22739   1.039   4.656   5.013 -0.2904  0.6177  0.7154
  169MOL0     C22740   0.934   4.554   4.968 -0.4748 -0.1584 -0.1686
  169MOL0     C22741   0.794   4.621   4.966  0.0709 -0.2021 -0.1141
  169MOL0     C22742   0.684   4.509   4.945  0.5511  0.6419  1.2752
  169MOL0     C22743   0.680   4.437   4.821  0.2254  0.1498  0.6808
  169MOL0     C22744   0.673   4.359   4.724  0.6021 -0.4892 -0.9335
  169MOL0     C22745   1.125   4.975   4.871  0.4520  0.6139 -0.1465
  169MOL0     C22746   1.193   5.097   4.886 -0.9529  0.7702 -0.3143
  169MOL0     C22747   1.154   5.215   4.812  0.5760  0.0145 -0.1617
  169MOL0     H22748   1.424   5.319   5.392 -2.1519  3.2413  1.0007
  169MOL0     H22749   1.580   5.461   5.504 -0.2386  0.9120  0.1828
  169MOL0     H22750   1.914   5.662   5.262  0.1649 -1.4301  1.5400
  169MOL0     H22751   1.774   5.771   5.257  0.4617  0.6835  0.0302
  169MOL0     H22752   1.806   5.838   5.488 -1.9458 -1.0414 -2.4035
  169MOL0     H22753   1.920   5.894   5.370 -2.6713 -0.0586 -1.4181
  169MOL0     H22754   2.099   5.731   5.461  1.7446  4.4059  0.2492
  169MOL0     H22755   1.975   5.655   5.558 -0.5679  0.8204  2.9431
  169MOL0     H22756   2.060   5.959   5.570  2.1765 -1.3066 -1.0118
  169MOL0     H22757   1.948   5.897   5.673  1.4213 -0.2850  0.4585
  169MOL0     H22758   2.246   5.808   5.630  0.0695  1.5700  0.2490
  169MOL0     H22759   2.196   5.883   5.777  1.6094 -0.4372  0.7547
  169MOL0     H22760   2.152   5.600   5.732 -1.1112 -2.2994  2.4293
  169MOL0     H22761   2.222   5.685   5.873 -1.3402  2.5524 -0.0112
  169MOL0     H22762   1.996   5.590   5.920  0.0456 -4.3170 -3.8043
  169MOL0     H22763   1.927   5.672   5.777  0.5976  1.5122  0.0172
  169MOL0     H22764   1.980   5.886   5.908  0.8086  0.0445 -0.9423
  169MOL0     H22765   1.856   5.776   5.987 -1.1953  3.1078 -1.6538
  169MOL0     H22766   2.215   5.900   6.020  1.5360  0.8784  1.3809
  169MOL0     H22767   2.336   5.976   6.270 -0.5717  1.1365  0.5816
  169MOL0     H22768   2.236   5.928   6.406 -1.1782 -1.0639  0.6352
  169MOL0     H22769   2.471   5.838   6.408  1.6222 -1.0121 -2.3842
  169MOL0     H22770   2.330   5.724   6.433  0.7877 -0.1459  1.0725
  169MOL0     H22771   2.501   5.737   6.170  1.1288 -0.4662  0.6804
  169MOL0     H22772   2.371   5.630   6.214  0.6436  1.5665 -2.1742
  169MOL0     H22773   2.504   5.518   6.389  0.4261 -1.8503 -0.2632
  169MOL0     H22774   2.634   5.630   6.370 -0.9768  1.1001  0.0423
  169MOL0     H22775   2.771   5.642   6.105  3.3677  1.5770  0.6689
  169MOL0     H22776   2.997   5.603   6.120  0.8775 -1.6313 -0.1134
  169MOL0     H22777   3.329   5.221   6.067 -2.0673  0.4644  1.4200
  169MOL0     H22778   3.559   5.122   6.090  1.2837 -3.3033  1.2694
  169MOL0     H22779   3.705   4.982   6.505 -1.6655 -2.0468  0.4646
  169MOL0     H22780   3.618   4.865   6.413 -2.7678  3.5182  2.7598
  169MOL0     H22781   3.841   4.791   6.416 -0.2934  0.4471 -0.0571
  169MOL0     H22782   3.833   4.838   6.255  1.9268 -1.1901  0.7185
  169MOL0     H22783   3.920   5.066   6.325 -1.2884 -0.8343 -2.6525
  169MOL0     H22784   3.972   4.977   6.475 -0.7694 -2.5030 -0.0773
  169MOL0     H22785   4.040   4.904   6.190 -1.1869 -2.0366 -0.3232
  169MOL0     H22786   4.079   4.793   6.336  3.3114  1.4995  0.1852
  169MOL0     H22787   4.196   4.985   6.445 -0.4126  1.8262  0.1328
  169MOL0     H22788   4.167   5.070   6.290  3.1150 -0.5552 -0.1741
  169MOL0     H22789   4.303   4.804   6.298 -1.3544  0.1621  1.0027
  169MOL0     H22790   4.307   4.911   6.167 -1.4898 -2.2943  0.2336
  169MOL0     H22791   4.518   4.918   6.298  0.2094 -0.2563 -1.3389
  169MOL0     H22792   4.410   4.966   6.439  1.0715  1.8853  1.1521
  169MOL0     H22793   4.376   5.183   6.319 -0.9654 -0.9394 -0.0916
  169MOL0     H22794   4.549   5.169   6.317 -0.0857 -0.1894 -0.5915
  169MOL0     H22795   3.498   5.082   6.513  1.0085  0.1328  0.0986
  169MOL0     H22796   3.271   5.182   6.476  1.7932 -0.9721  1.8819
  169MOL0     H22797   2.898   5.249   6.356 -1.7366  0.6091  1.7520
  169MOL0     H22798   2.662   5.290   6.327 -0.3444 -0.7512  0.1518
  169MOL0     H22799   1.766   5.527   5.125 -1.5531  1.9994 -0.1395
  169MOL0     H22800   1.603   5.401   5.009  0.0495 -0.1801  0.4122
  169MOL0     H22801   1.353   5.013   5.181 -2.0802  3.5265  1.2886
  169MOL0     H22802   1.217   4.797   5.133 -0.2483  0.5287  0.9378
  169MOL0     H22803   1.004   4.699   5.107 -4.1330  1.2715 -0.7942
  169MOL0     H22804   1.131   4.602   5.031 -0.6888 -0.0254  0.8460
  169MOL0     H22805   0.919   4.460   5.022 -3.3062 -0.4887 -1.3791
  169MOL0     H22806   0.967   4.530   4.866  0.5888 -1.3699  0.4374
  169MOL0     H22807   0.782   4.710   4.905  0.5402  0.4415  0.7136
  169MOL0     H22808   0.786   4.667   5.065  3.3916  0.3460  0.0294
  169MOL0     H22809   0.692   4.440   5.029 -1.9423 -1.6217 -0.1876
  169MOL0     H22810   0.586   4.553   4.969  1.4381  3.0958  0.7463
  169MOL0     H22811   0.666   4.294   4.639 -2.7811  2.1633 -2.9585
  169MOL0     H22812   1.065   4.956   4.783  2.5858 -0.4922 -1.4393
  169MOL0     H22813   1.233   5.267   4.757  0.7379  0.8486  0.8208
  169MOL0     H22814   1.084   5.182   4.735  1.7451 -0.9034 -0.8658
  169MOL0     H22815   1.096   5.291   4.866 -0.9986  1.2692 -3.3544
  170MOL0     O22816   4.590   7.659   9.222 -0.8461  0.1865  0.5310
  170MOL0     C22817   4.663   7.760   9.238  0.5822  0.0846 -0.3636
  170MOL0     O22818   4.737   7.822   9.143 -0.0923  0.3057  0.3322
  170MOL0     C22819   4.774   7.746   9.037  0.7115  0.1897  0.3567
  170MOL0     C22820   4.727   7.772   8.909 -0.0042 -0.3810 -0.1886
  170MOL0     C22821   4.797   7.721   8.798 -0.8094 -0.6500  0.3156
  170MOL0     C22822   4.918   7.639   8.821 -1.0702 -1.5077 -1.0475
  170MOL0     O22823   4.994   7.617   8.714  0.2918 -0.1991 -0.0493
  170MOL0     C22824   5.073   7.501   8.698  0.2945  0.2336  0.2914
  170MOL0     C22825   5.219   7.517   8.709  0.1967 -0.5351 -0.2178
  170MOL0     C22826   5.297   7.391   8.667  0.3587 -0.0678  0.9014
  170MOL0     C22827   5.445   7.397   8.711  0.1754 -0.0380  0.3333
  170MOL0     C22828   5.520   7.288   8.630  0.0253  0.3643  0.8067
  170MOL0     C22829   5.666   7.278   8.690 -0.3870  0.5112 -0.0383
  170MOL0     C22830   5.749   7.162   8.643 -0.8900  0.4168  0.2581
  170MOL0     C22831   5.773   7.158   8.483 -0.5326  0.4830  0.2731
  170MOL0     N22832   5.876   7.062   8.452  0.1032 -0.1936  0.2799
  170MOL0     C22833   5.996   7.084   8.389  0.7987  0.0094 -0.2248
  170MOL0     C22834   6.056   6.960   8.377 -0.4701 -0.5709  0.1812
  170MOL0     C22835   6.188   6.936   8.307  0.0422  0.0863  0.2320
  170MOL0     C22836   6.170   6.860   8.172  0.2910  0.6397 -0.7946
  170MOL0     C22837   6.146   6.946   8.052 -0.0668 -0.4897  0.1321
  170MOL0     C22838   6.265   7.050   8.025 -0.7814  0.8439 -0.2114
  170MOL0     O22839   6.234   7.127   7.912 -0.2043  0.4136 -0.2254
  170MOL0     C22840   6.336   7.226   7.879  0.4347 -0.5197  0.0278
  170MOL0     C22841   6.433   7.214   7.780  1.1666  0.3494 -0.2197
  170MOL0     C22842   6.527   7.311   7.752  0.3228 -0.2073  0.2165
  170MOL0     C22843   6.522   7.433   7.812 -0.5277 -0.2021 -0.0778
  170MOL0     C22844   6.617   7.542   7.780 -0.2942 -0.3308 -0.2756
  170MOL0     O22845   6.728   7.499   7.724  0.2675 -0.0015 -0.7218
  170MOL0     C22846   6.841   7.575   7.745  0.5265  1.2110  0.3087
  170MOL0     C22847   6.867   7.690   7.665 -0.4902  0.3609  0.1543
  170MOL0     C22848   6.986   7.751   7.679  0.0390 -1.2940 -0.4701
  170MOL0     C22849   7.094   7.698   7.762  0.0763  0.4211 -0.3799
  170MOL0     O22850   7.217   7.752   7.776 -0.1019  0.4096  0.2308
  170MOL0     C22851   7.279   7.796   7.656 -0.1520 -0.4262 -0.0353
  170MOL0     C22852   7.409   7.863   7.689  0.6712 -0.2742  0.6661
  170MOL0     C22853   7.512   7.757   7.748 -0.7318  0.0218  1.1959
  170MOL0     C22854   7.650   7.806   7.726  0.3347 -0.1436 -0.3196
  170MOL0     C22855   7.744   7.710   7.796 -0.0940 -0.9852  0.0590
  170MOL0     C22856   7.722   7.691   7.949 -0.4827  0.2161 -0.2894
  170MOL0     C22857   7.836   7.604   8.010 -0.0850 -0.3523  0.0292
  170MOL0     C22858   7.857   7.642   8.159 -0.3822  0.1668 -0.0251
  170MOL0    Cl22859   7.952   7.520   8.227  0.2224  0.3099  0.1025
  170MOL0     C22860   7.067   7.580   7.835 -0.4251  0.1424 -0.1427
  170MOL0     C22861   6.941   7.523   7.842  1.3589 -0.0333  0.9085
  170MOL0     O22862   6.599   7.661   7.815 -0.2076 -0.3188 -0.1728
  170MOL0     C22863   6.415   7.452   7.901 -0.5289 -0.3973  0.2501
  170MOL0     C22864   6.333   7.348   7.946  0.1863 -0.4428 -0.3294
  170MOL0     N22865   5.972   6.868   8.437 -0.1680 -0.3561  0.3276
  170MOL0     N22866   5.859   6.928   8.477  0.3665  0.6190  0.2144
  170MOL0     C22867   4.953   7.610   8.954  0.1646  0.3378 -0.9295
  170MOL0     C22868   4.875   7.661   9.060 -0.0875 -0.5237 -0.0083
  170MOL0     C22869   4.665   7.816   9.379  0.6978  0.2751  0.4786
  170MOL0     C22870   4.562   7.773   9.464  1.0369  0.0499 -0.4787
  170MOL0     C22871   4.540   7.839   9.591  0.0026 -0.6190  0.3073
  170MOL0     C22872   4.627   7.949   9.630  0.0016  0.8062 -0.6166
  170MOL0     O22873   4.591   8.015   9.742  0.9410 -0.3963 -0.8293
  170MOL0     C22874   4.611   7.956   9.869 -0.2346 -0.0875  0.1770
  170MOL0     C22875   4.477   7.907   9.934 -0.2305 -0.3474 -0.5851
  170MOL0     C22876   4.513   7.849  10.079 -0.3636  0.4228  0.5502
  170MOL0     C22877   4.476   7.942  10.194 -0.6604 -1.5601 -0.3827
  170MOL0     C22878   4.548   8.071  10.189  0.1978  0.3637  0.4411
  170MOL0     C22879   4.610   8.168  10.172  0.3581 -0.3630  0.0832
  170MOL0     C22880   4.726   7.992   9.544 -0.0511  0.8259  1.6998
  170MOL0     C22881   4.750   7.924   9.419 -0.8529 -0.4979  0.0196
  170MOL0     C22882   4.881   7.959   9.349 -0.0794  0.1221  0.2557
  170MOL0     H22883   4.646   7.844   8.903 -0.3408 -0.5946  1.3992
  170MOL0     H22884   4.768   7.741   8.695 -1.8732  0.1001  0.7426
  170MOL0     H22885   5.047   7.417   8.763 -2.1824 -1.2824 -2.4006
  170MOL0     H22886   5.059   7.458   8.598 -2.2179 -2.5707  1.6861
  170MOL0     H22887   5.246   7.535   8.814 -4.6185  0.8531  1.0349
  170MOL0     H22888   5.243   7.605   8.648 -0.1998 -0.5465 -0.3915
  170MOL0     H22889   5.284   7.395   8.558 -1.1125  3.0041  1.0871
  170MOL0     H22890   5.258   7.295   8.701  3.8531 -0.7103  3.6492
  170MOL0     H22891   5.495   7.490   8.685  0.1574 -0.0225  0.3539
  170MOL0     H22892   5.462   7.379   8.818  0.6037 -0.1558  0.2473
  170MOL0     H22893   5.465   7.193   8.634 -1.9925  1.3253 -1.6604
  170MOL0     H22894   5.540   7.309   8.524  4.4898  1.3723  1.6356
  170MOL0     H22895   5.715   7.375   8.681  0.9668 -0.0085  1.2959
  170MOL0     H22896   5.655   7.257   8.797  1.0976  2.9770  0.6605
  170MOL0     H22897   5.696   7.072   8.677  1.1921 -0.0943  2.3933
  170MOL0     H22898   5.849   7.159   8.687 -0.6844 -0.1882 -0.2247
  170MOL0     H22899   5.689   7.129   8.420  1.1084 -0.9666 -1.3512
  170MOL0     H22900   5.811   7.257   8.456 -0.1000  1.2249  3.1770
  170MOL0     H22901   6.039   7.175   8.347  2.9070  0.0935  1.9038
  170MOL0     H22902   6.244   7.025   8.277  0.2437 -0.8299 -2.3612
  170MOL0     H22903   6.250   6.885   8.381 -2.5747 -1.1831  1.6918
  170MOL0     H22904   6.261   6.805   8.148  0.6507  1.1840 -0.7144
  170MOL0     H22905   6.094   6.782   8.184 -1.0750  2.1016  0.5957
  170MOL0     H22906   6.050   6.995   8.070  0.6028  0.5984  0.8722
  170MOL0     H22907   6.139   6.875   7.969 -0.8486 -1.2329  0.8057
  170MOL0     H22908   6.355   6.993   8.004  1.1650  3.3988  0.6775
  170MOL0     H22909   6.289   7.115   8.109 -0.4423 -0.0056  0.3628
  170MOL0     H22910   6.437   7.118   7.729  0.3287  1.7352 -3.0804
  170MOL0     H22911   6.603   7.293   7.677 -1.1940 -2.1502 -0.9894
  170MOL0     H22912   6.803   7.718   7.583  0.4327 -0.5076 -0.8920
  170MOL0     H22913   6.996   7.842   7.620  1.7625 -0.2973  1.2405
  170MOL0     H22914   7.293   7.712   7.587 -0.4379 -0.7513  0.2965
  170MOL0     H22915   7.220   7.874   7.608 -1.3698 -2.4238 -2.0086
  170MOL0     H22916   7.449   7.901   7.595 -0.9126 -2.2172 -0.8972
  170MOL0     H22917   7.388   7.938   7.766 -2.4403  0.0219 -0.3496
  170MOL0     H22918   7.484   7.733   7.851  0.0990 -0.4001  1.3254
  170MOL0     H22919   7.518   7.661   7.696  0.3086  0.0152  1.3046
  170MOL0     H22920   7.663   7.905   7.771 -1.1882  0.0944 -0.3464
  170MOL0     H22921   7.661   7.823   7.618  0.0469 -1.3960 -0.5647
  170MOL0     H22922   7.845   7.732   7.759 -0.8039  3.1269  0.0919
  170MOL0     H22923   7.718   7.614   7.750 -1.6296  0.9532 -3.5676
  170MOL0     H22924   7.728   7.790   7.994 -1.7795  0.4119 -0.4826
  170MOL0     H22925   7.625   7.651   7.982 -0.3820  1.0824  1.0822
  170MOL0     H22926   7.925   7.611   7.946  0.7984 -1.4633  1.0785
  170MOL0     H22927   7.803   7.500   8.011 -1.3691  0.0373 -0.2380
  170MOL0     H22928   7.918   7.733   8.156  0.5541 -0.4351 -3.1893
  170MOL0     H22929   7.766   7.652   8.218 -0.4125  0.1310 -0.0657
  170MOL0     H22930   7.150   7.530   7.884  0.6772  3.0419  1.1722
  170MOL0     H22931   6.930   7.439   7.911  2.9071 -0.8158  0.2679
  170MOL0     H22932   6.394   7.548   7.948  2.1823 -0.6654  2.2849
  170MOL0     H22933   6.263   7.368   8.026 -0.0678  0.4869 -0.7709
  170MOL0     H22934   5.040   7.559   8.994 -1.2557 -0.4859  1.2852
  170MOL0     H22935   4.904   7.637   9.162  1.0544 -0.6211 -0.3412
  170MOL0     H22936   4.487   7.701   9.432  0.0571 -0.0354  1.8567
  170MOL0     H22937   4.459   7.815   9.659  0.4101 -5.8108 -0.6744
  170MOL0     H22938   4.653   8.038   9.928  0.3078  0.2048 -0.5901
  170MOL0     H22939   4.683   7.874   9.862  0.6799  0.6874  0.3047
  170MOL0     H22940   4.435   7.825   9.875 -1.2020 -1.5288  1.6257
  170MOL0     H22941   4.405   7.990   9.941 -1.4512 -1.5157  1.6527
  170MOL0     H22942   4.617   7.823  10.103 -1.0649 -2.8667  0.4377
  170MOL0     H22943   4.457   7.756  10.089 -0.9462  0.3026 -2.7644
  170MOL0     H22944   4.368   7.959  10.194 -0.9285 -2.5494  3.0705
  170MOL0     H22945   4.488   7.904  10.296 -3.0046  2.7281  1.7654
  170MOL0     H22946   4.670   8.250  10.137 -1.4647  0.6564 -0.8267
  170MOL0     H22947   4.775   8.086   9.569  4.3993  1.0094 -5.0336
  170MOL0     H22948   4.940   7.870   9.327 -1.1153 -0.5976  0.3308
  170MOL0     H22949   4.864   8.007   9.252 -1.3926  0.3413  0.5811
  170MOL0     H22950   4.946   8.017   9.417 -0.1457 -0.7492  1.0829
  171MOL0     O22951   7.490   2.934   8.644  0.2345  0.6589 -0.2265
  171MOL0     C22952   7.439   3.043   8.673  0.2516 -1.0361 -0.0553
  171MOL0     O22953   7.422   3.089   8.805  0.6406 -0.6684  0.4362
  171MOL0     C22954   7.490   3.036   8.910  0.4371 -0.5467  0.1451
  171MOL0     C22955   7.616   2.980   8.904 -0.3684  1.0365  0.3985
  171MOL0     C22956   7.684   2.925   9.021  0.6577 -0.3673  0.5525
  171MOL0     C22957   7.621   2.936   9.148 -0.5968  0.8673 -0.2821
  171MOL0     O22958   7.674   2.897   9.265  0.2955  0.2145  0.3665
  171MOL0     C22959   7.813   2.866   9.273  0.1202  0.0715  0.5670
  171MOL0     C22960   7.899   2.982   9.262  0.9618  0.0529  0.1497
  171MOL0     C22961   8.036   2.946   9.309 -0.9110  0.6607  0.3850
  171MOL0     C22962   8.072   2.990   9.445  0.0393 -0.0273 -0.2635
  171MOL0     C22963   8.203   2.931   9.498  0.3105  0.2434 -0.6824
  171MOL0     C22964   8.324   2.960   9.409 -0.1839  0.4992 -0.1418
  171MOL0     C22965   8.452   2.929   9.483  0.3950  0.2338 -0.2977
  171MOL0     C22966   8.584   2.931   9.398  0.0519  0.5158  0.3188
  171MOL0     N22967   8.696   2.944   9.481 -0.6832 -0.5609 -1.4703
  171MOL0     C22968   8.722   2.892   9.605 -0.2834  0.6403  0.1745
  171MOL0     C22969   8.863   2.907   9.623  0.8010  0.1284  0.4367
  171MOL0     C22970   8.945   2.882   9.738  0.9474  0.6340 -0.1840
  171MOL0     C22971   9.069   2.812   9.693  0.5875 -0.5977 -0.0320
  171MOL0     C22972   9.134   2.762   9.825  0.1437  0.1063  1.1201
  171MOL0     C22973   9.269   2.693   9.813  0.0758  0.0947  0.0154
  171MOL0     O22974   9.371   2.777   9.759  0.0688 -0.0514  0.1924
  171MOL0     C22975   9.485   2.798   9.830 -0.3167 -0.0930  0.0943
  171MOL0     C22976   9.564   2.691   9.856  0.6085 -0.1677  0.5630
  171MOL0     C22977   9.690   2.708   9.917 -0.0173 -0.1055  0.0791
  171MOL0     C22978   9.749   2.833   9.937 -0.0673 -0.1941  0.1102
  171MOL0     C22979   9.881   2.844  10.009  0.0831  0.1442 -0.0380
  171MOL0     O22980   9.965   2.949   9.972  0.0693  0.3497  0.5777
  171MOL0     C22981  10.084   2.959  10.045 -1.0099  0.3235 -0.8416
  171MOL0     C22982  10.112   3.082  10.112  0.3025  0.4775  0.9903
  171MOL0     C22983  10.231   3.107  10.181 -0.0328 -0.3867 -0.7862
  171MOL0     C22984  10.320   2.996  10.199 -0.0125  0.9930 -0.2348
  171MOL0     O22985  10.409   3.022  10.297 -0.4219  0.3541  0.2957
  171MOL0     C22986  10.519   2.922  10.339  0.0667 -0.4513 -0.4933
  171MOL0     C22987  10.638   2.904  10.243  0.5889  0.3651 -0.0042
  171MOL0     C22988  10.700   3.034  10.227  0.7221  0.3488 -0.5884
  171MOL0     C22989  10.819   3.029  10.130  0.2053  0.4433  0.4688
  171MOL0     C22990  10.891   3.158  10.113  0.0299 -0.9677  0.1325
  171MOL0     C22991  10.993   3.182  10.227 -0.5533  0.6174 -0.8301
  171MOL0     C22992  11.062   3.319  10.209  0.8696  0.2256  0.0674
  171MOL0     C22993  11.158   3.364  10.314 -0.1514  0.8941  0.5288
  171MOL0    Cl22994  11.325   3.285  10.303  0.0961 -0.2849 -0.3329
  171MOL0     C22995  10.302   2.876  10.137 -0.2665 -0.0807  0.2909
  171MOL0     C22996  10.186   2.855  10.062  0.1346  0.5343 -1.0586
  171MOL0     O22997   9.895   2.759  10.100  0.2673  0.4945 -0.0078
  171MOL0     C22998   9.668   2.942   9.903  0.1579 -0.0251  0.4795
  171MOL0     C22999   9.539   2.925   9.850  0.8200 -0.5365 -0.3692
  171MOL0     N23000   8.915   2.969   9.513  0.0067  0.5487 -0.3040
  171MOL0     N23001   8.811   2.991   9.432 -0.9453  0.1130 -0.3064
  171MOL0     C23002   7.498   2.997   9.157  0.4633  0.0825 -0.9025
  171MOL0     C23003   7.430   3.048   9.040 -0.1770 -0.4528 -0.1924
  171MOL0     C23004   7.352   3.118   8.585  0.2581  1.2701  0.4125
  171MOL0     C23005   7.330   3.255   8.617  0.8317  0.2575  0.3083
  171MOL0     C23006   7.251   3.344   8.550  0.1136  0.4640 -1.1743
  171MOL0     C23007   7.195   3.297   8.429 -0.5579  0.4012 -0.5905
  171MOL0     O23008   7.137   3.378   8.335  0.2508 -0.4465  0.1042
  171MOL0     C23009   7.102   3.512   8.374 -0.9446 -0.3195 -0.7451
  171MOL0     C23010   6.987   3.510   8.473  0.0953  0.0381  0.8236
  171MOL0     C23011   6.857   3.488   8.392  0.0281 -0.9468 -0.2160
  171MOL0     C23012   6.836   3.347   8.361  0.4095 -0.6423  1.0225
  171MOL0     C23013   6.703   3.323   8.307  0.3931  0.1596  0.9208
  171MOL0     C23014   6.585   3.297   8.274 -0.8104  1.3502  0.6129
  171MOL0     C23015   7.217   3.168   8.380  0.0420 -0.2134  0.5194
  171MOL0     C23016   7.289   3.081   8.459  0.0483  0.3112 -1.0606
  171MOL0     C23017   7.290   2.944   8.405 -0.3326 -0.5233  0.4337
  171MOL0     H23018   7.665   2.968   8.808 -0.8787  0.7564  0.1695
  171MOL0     H23019   7.781   2.878   9.004  0.5677 -0.2824 -0.2468
  171MOL0     H23020   7.819   2.819   9.372  0.8349 -0.3355  0.3404
  171MOL0     H23021   7.834   2.775   9.215 -3.3618 -0.8906  0.5911
  171MOL0     H23022   7.863   3.066   9.323 -0.4118  0.3164 -0.9498
  171MOL0     H23023   7.910   3.025   9.162 -2.4202  0.2574 -0.2642
  171MOL0     H23024   8.106   2.990   9.238  1.0725 -1.2189  1.0737
  171MOL0     H23025   8.060   2.840   9.293 -0.1928  0.8407  0.2384
  171MOL0     H23026   8.068   3.099   9.459  2.6506 -0.0585  1.5978
  171MOL0     H23027   7.998   2.942   9.508 -0.2915  1.9581  0.9357
  171MOL0     H23028   8.214   2.974   9.598  0.5604 -1.2531 -0.0391
  171MOL0     H23029   8.189   2.823   9.509 -3.8587  0.4920 -1.7820
  171MOL0     H23030   8.325   2.884   9.330 -0.2881  0.7866 -0.4212
  171MOL0     H23031   8.320   3.065   9.380  0.6720  0.4650 -0.4214
  171MOL0     H23032   8.437   2.835   9.535  0.6255  0.8903  0.9978
  171MOL0     H23033   8.460   3.000   9.566 -0.0180  0.9828 -0.8900
  171MOL0     H23034   8.590   2.845   9.331  1.6375 -0.2822  1.4198
  171MOL0     H23035   8.590   3.020   9.335  1.5469  0.5778  0.5033
  171MOL0     H23036   8.644   2.849   9.666  0.4591 -0.5294  0.3148
  171MOL0     H23037   8.973   2.977   9.787  0.3300  0.2897  0.8773
  171MOL0     H23038   8.894   2.818   9.810  1.1872  1.3902  0.6917
  171MOL0     H23039   9.060   2.734   9.617  2.0208 -0.5827 -0.2506
  171MOL0     H23040   9.132   2.891   9.651  1.7330 -0.7583  1.3143
  171MOL0     H23041   9.060   2.691   9.863 -3.5137  2.1594 -1.5674
  171MOL0     H23042   9.151   2.839   9.901 -0.0985  1.1205  0.1806
  171MOL0     H23043   9.256   2.614   9.739  1.3273  1.4699 -1.7507
  171MOL0     H23044   9.288   2.648   9.911 -3.1270 -2.4910 -0.3786
  171MOL0     H23045   9.529   2.589   9.839 -1.4074 -0.2207  4.0352
  171MOL0     H23046   9.740   2.618   9.952 -2.8802 -1.2923  1.4169
  171MOL0     H23047  10.043   3.164  10.096  0.6383  0.4661 -0.6966
  171MOL0     H23048  10.243   3.199  10.236 -2.9315  0.2115 -1.0067
  171MOL0     H23049  10.555   2.967  10.432 -2.2373 -0.3298  0.4085
  171MOL0     H23050  10.480   2.825  10.372 -1.7803  0.5465  0.4979
  171MOL0     H23051  10.714   2.844  10.294  2.2584  1.2090 -1.4001
  171MOL0     H23052  10.619   2.856  10.147  3.2049  2.1673 -1.5583
  171MOL0     H23053  10.630   3.114  10.197  0.3191  0.5996  0.9179
  171MOL0     H23054  10.745   3.070  10.320  2.6251 -0.0072 -1.3363
  171MOL0     H23055  10.782   3.000  10.032  0.6297 -1.4353  0.8321
  171MOL0     H23056  10.891   2.950  10.153 -0.0385 -0.9287 -2.9019
  171MOL0     H23057  10.817   3.238  10.110  0.4655 -0.5544  0.1757
  171MOL0     H23058  10.953   3.157  10.023  0.3607 -0.4232  0.3471
  171MOL0     H23059  10.943   3.177  10.324  2.0459 -1.1603  0.5675
  171MOL0     H23060  11.074   3.109  10.222 -2.5955 -1.7021 -2.2152
  171MOL0     H23061  10.982   3.393  10.212 -1.4150 -2.1395  1.1008
  171MOL0     H23062  11.112   3.313  10.112 -0.2935  1.0054 -0.6022
  171MOL0     H23063  11.164   3.473  10.299 -2.9797  1.1475  0.7340
  171MOL0     H23064  11.112   3.341  10.410 -0.0208  0.4520  0.4860
  171MOL0     H23065  10.369   2.790  10.147 -2.1995 -1.4926  2.1325
  171MOL0     H23066  10.163   2.763  10.009  0.4119  0.2211 -0.6395
  171MOL0     H23067   9.688   3.047   9.919 -0.4000  0.2107 -0.2978
  171MOL0     H23068   9.480   3.010   9.820  0.6862 -0.1883  0.8096
  171MOL0     H23069   7.455   2.998   9.257  1.0536  1.3666 -0.6444
  171MOL0     H23070   7.339   3.107   9.044  0.4742  0.6139 -0.4584
  171MOL0     H23071   7.354   3.294   8.715  2.3271 -0.0904  0.1023
  171MOL0     H23072   7.241   3.447   8.583  0.8323  1.1856 -3.0904
  171MOL0     H23073   7.076   3.579   8.292  0.4303  1.4852  0.2019
  171MOL0     H23074   7.188   3.561   8.421 -1.4187  1.3922 -1.5819
  171MOL0     H23075   6.987   3.612   8.514 -2.7059  0.4398  0.0444
  171MOL0     H23076   6.990   3.432   8.549 -0.8103  1.2765  2.1881
  171MOL0     H23077   6.864   3.550   8.302 -2.3956 -0.8823 -0.4102
  171MOL0     H23078   6.771   3.521   8.451 -0.5611 -2.3641 -0.2441
  171MOL0     H23079   6.905   3.317   8.282 -0.5891 -1.0536  0.2822
  171MOL0     H23080   6.851   3.282   8.448  0.9445 -1.5966  0.2442
  171MOL0     H23081   6.480   3.287   8.255 -1.5330  2.2542  3.5393
  171MOL0     H23082   7.170   3.151   8.284  3.7435 -0.0258 -1.5348
  171MOL0     H23083   7.269   2.921   8.300 -3.4010 -0.7016  0.9836
  171MOL0     H23084   7.386   2.896   8.428  0.4500  0.7099 -0.1749
  171MOL0     H23085   7.214   2.893   8.465  0.2490 -0.4873  1.2227
  172MOL0     O23086  11.388   2.403   6.068 -0.1355  0.4346 -0.4981
  172MOL0     C23087  11.388   2.318   6.163  0.0564 -0.7245  0.2006
  172MOL0     O23088  11.275   2.267   6.211  0.0940  0.3476 -0.4107
  172MOL0     C23089  11.169   2.258   6.124 -0.0623 -0.0317  0.4371
  172MOL0     C23090  11.106   2.376   6.092  0.6852  0.4527 -0.4711
  172MOL0     C23091  10.996   2.372   6.009 -0.7256  0.3735  1.0059
  172MOL0     C23092  10.958   2.252   5.944  0.2699  0.4171 -0.1239
  172MOL0     O23093  10.849   2.244   5.866  0.0868 -0.6706 -1.0975
  172MOL0     C23094  10.733   2.227   5.951  0.2123  0.0395  0.1890
  172MOL0     C23095  10.612   2.207   5.872 -0.1060  0.4340 -0.4586
  172MOL0     C23096  10.486   2.174   5.963  0.2504 -0.2683  0.8768
  172MOL0     C23097  10.356   2.170   5.880  0.3942  0.2026  0.3403
  172MOL0     C23098  10.239   2.147   5.977 -0.1358 -0.6546  1.3258
  172MOL0     C23099  10.100   2.161   5.911 -0.3371  0.2110  0.4418
  172MOL0     C23100  10.080   2.040   5.814 -0.3876 -1.2031  0.1043
  172MOL0     C23101   9.939   1.977   5.802 -0.6381  0.5596 -0.9386
  172MOL0     N23102   9.817   2.064   5.806 -0.1678  0.0886  0.2366
  172MOL0     C23103   9.803   2.164   5.717  0.4822 -0.0049 -0.1369
  172MOL0     C23104   9.718   2.248   5.775  0.3886 -0.1778 -0.3263
  172MOL0     C23105   9.675   2.387   5.735 -0.3098 -0.3010 -0.4815
  172MOL0     C23106   9.769   2.500   5.773 -0.9524 -0.2599 -0.4250
  172MOL0     C23107   9.714   2.646   5.739 -0.7231 -0.7405  0.7162
  172MOL0     C23108   9.829   2.750   5.761 -0.2786 -0.6428  0.2578
  172MOL0     O23109   9.775   2.886   5.738 -1.0635  0.1429  0.4801
  172MOL0     C23110   9.859   2.994   5.719  0.4413 -0.2282  0.0046
  172MOL0     C23111   9.995   2.982   5.736  0.6965 -0.0748  0.4877
  172MOL0     C23112  10.074   3.098   5.723  0.0775 -0.1218 -0.8248
  172MOL0     C23113  10.011   3.225   5.686 -0.0331 -0.1416 -0.2707
  172MOL0     C23114  10.093   3.343   5.663 -0.2277 -0.2938  0.3971
  172MOL0     O23115  10.227   3.314   5.664 -0.9399 -0.3305 -0.7851
  172MOL0     C23116  10.323   3.418   5.656 -1.6573 -0.6085 -0.3114
  172MOL0     C23117  10.302   3.549   5.687 -0.6949 -0.1481  0.1072
  172MOL0     C23118  10.406   3.647   5.660 -0.3138  0.0263 -0.3300
  172MOL0     C23119  10.540   3.611   5.631  0.1493 -0.1103  0.3794
  172MOL0     O23120  10.637   3.705   5.628  0.3123 -0.4534  0.3980
  172MOL0     C23121  10.772   3.678   5.595 -0.0829 -0.8456  0.2410
  172MOL0     C23122  10.845   3.815   5.611 -0.9740  0.8491 -0.4259
  172MOL0     C23123  10.983   3.832   5.542  0.2399 -0.1665  0.2278
  172MOL0     C23124  11.102   3.810   5.641  0.1742  0.7703  0.2289
  172MOL0     C23125  11.125   3.947   5.712 -0.5003 -0.3388  0.6942
  172MOL0     C23126  11.257   3.960   5.793 -0.5009  0.3298 -0.8993
  172MOL0     C23127  11.386   3.946   5.703  0.3977  0.5284  0.6187
  172MOL0     C23128  11.501   3.959   5.788 -0.1500 -0.6831 -0.1616
  172MOL0    Cl23129  11.653   3.882   5.727  0.0338  0.0140  0.0296
  172MOL0     C23130  10.562   3.474   5.620 -0.9400 -0.4247 -0.3403
  172MOL0     C23131  10.459   3.377   5.627  0.3958 -0.0996  0.5594
  172MOL0     O23132  10.041   3.450   5.634 -0.7732 -0.4947  0.2487
  172MOL0     C23133   9.873   3.231   5.683 -0.1842 -0.9530  0.2229
  172MOL0     C23134   9.798   3.119   5.698  0.2232  0.1397  0.5355
  172MOL0     N23135   9.674   2.191   5.886  0.1977 -0.1799 -0.2675
  172MOL0     N23136   9.740   2.081   5.908 -0.2586 -0.4960 -1.2310
  172MOL0     C23137  11.033   2.137   5.977  0.4515  0.1476 -0.3685
  172MOL0     C23138  11.139   2.145   6.065  0.4341  0.0448  0.0856
  172MOL0     C23139  11.516   2.288   6.228 -0.0969  0.5547  0.2208
  172MOL0     C23140  11.511   2.194   6.332  0.7239 -0.2192  0.8995
  172MOL0     C23141  11.620   2.140   6.392  0.2132 -0.3055 -0.7473
  172MOL0     C23142  11.745   2.174   6.351  0.3524  0.2773  0.2557
  172MOL0     O23143  11.850   2.103   6.413 -0.3918  1.5012  0.6299
  172MOL0     C23144  11.967   2.074   6.338  0.1973  0.1634 -0.1274
  172MOL0     C23145  12.075   2.187   6.352  0.1792  1.0346  0.5407
  172MOL0     C23146  12.211   2.128   6.315  0.5209 -0.3821  0.5716
  172MOL0     C23147  12.318   2.229   6.334  0.1277 -0.7279  0.2855
  172MOL0     C23148  12.294   2.340   6.240 -1.3483  0.0955  0.5978
  172MOL0     C23149  12.297   2.436   6.166 -1.2056 -0.4729  0.4512
  172MOL0     C23150  11.755   2.266   6.243 -0.0661  0.6583 -1.0975
  172MOL0     C23151  11.641   2.310   6.176 -0.2810 -0.7294  0.5242
  172MOL0     C23152  11.667   2.389   6.046 -0.1622  0.3376  0.3499
  172MOL0     H23153  11.134   2.467   6.144 -2.1928 -0.0587  2.2708
  172MOL0     H23154  10.943   2.466   5.997 -0.3969  0.3648 -0.7214
  172MOL0     H23155  10.756   2.153   6.028  0.2459  0.8775  0.9971
  172MOL0     H23156  10.721   2.318   6.011  1.9741  0.0892  0.5122
  172MOL0     H23157  10.645   2.130   5.802  1.9330  0.8494 -0.0091
  172MOL0     H23158  10.595   2.291   5.804  4.5456 -0.4446 -3.1344
  172MOL0     H23159  10.472   2.255   6.034  2.5030  0.8689  0.1363
  172MOL0     H23160  10.512   2.082   6.017  0.6330  0.2081  1.5193
  172MOL0     H23161  10.344   2.261   5.820  1.9380  2.1477  2.7655
  172MOL0     H23162  10.360   2.086   5.811  1.3291  0.8615 -0.4426
  172MOL0     H23163  10.257   2.052   6.029  2.0492 -0.9957  0.0756
  172MOL0     H23164  10.244   2.217   6.061  2.6050 -0.7299  1.3227
  172MOL0     H23165  10.023   2.140   5.986 -2.4842  0.0042 -1.7230
  172MOL0     H23166  10.092   2.257   5.859 -0.8026 -0.1682 -0.1941
  172MOL0     H23167  10.150   1.960   5.839  2.9304  1.1872 -0.8729
  172MOL0     H23168  10.116   2.080   5.719  2.7824  0.5999  1.8849
  172MOL0     H23169   9.935   1.914   5.713 -1.0756 -1.4089  0.4144
  172MOL0     H23170   9.932   1.908   5.887  1.2794  0.7321 -0.5850
  172MOL0     H23171   9.858   2.177   5.624  2.2188 -2.8279  0.3694
  172MOL0     H23172   9.650   2.384   5.629  1.0645 -3.2610 -0.8151
  172MOL0     H23173   9.586   2.409   5.794  0.5631 -1.4740  1.3678
  172MOL0     H23174   9.791   2.486   5.879 -2.5282  0.9355  0.0940
  172MOL0     H23175   9.864   2.483   5.722 -0.4143  1.4535 -0.0511
  172MOL0     H23176   9.631   2.682   5.801 -0.2846  2.5119 -0.3745
  172MOL0     H23177   9.672   2.651   5.638 -3.3439 -3.2214  1.5315
  172MOL0     H23178   9.914   2.728   5.695 -0.1872 -0.5964  0.3598
  172MOL0     H23179   9.860   2.727   5.863  0.4649 -2.4717 -0.3366
  172MOL0     H23180  10.039   2.891   5.776  0.6105 -0.0999  0.5242
  172MOL0     H23181  10.180   3.084   5.739 -0.3724 -5.0333 -0.5899
  172MOL0     H23182  10.209   3.597   5.716  0.3410  2.4854 -0.6002
  172MOL0     H23183  10.380   3.751   5.674 -0.3758 -0.1276  0.7469
  172MOL0     H23184  10.802   3.601   5.667 -3.1967 -5.1447 -2.5603
  172MOL0     H23185  10.762   3.638   5.494 -0.3858 -1.7156  0.6106
  172MOL0     H23186  10.779   3.895   5.576 -2.2586  0.4404  0.9183
  172MOL0     H23187  10.848   3.823   5.720 -2.6315 -4.2666  0.2937
  172MOL0     H23188  10.988   3.753   5.467 -1.3845 -0.2864  0.2042
  172MOL0     H23189  10.986   3.931   5.496 -2.7134  0.9748  2.1780
  172MOL0     H23190  11.184   3.781   5.575  0.2324 -0.1744  0.6885
  172MOL0     H23191  11.100   3.737   5.723  3.6436  2.4745  2.0474
  172MOL0     H23192  11.045   3.972   5.784  0.1070 -0.6542  1.4929
  172MOL0     H23193  11.124   4.018   5.628 -1.0147 -2.4808 -1.1924
  172MOL0     H23194  11.268   4.058   5.842 -2.9493  1.0746 -1.7145
  172MOL0     H23195  11.260   3.884   5.871  0.0690  2.5525  1.3774
  172MOL0     H23196  11.382   4.024   5.627  1.9352  0.6288  0.6099
  172MOL0     H23197  11.374   3.853   5.648 -1.0479  1.9909 -1.6707
  172MOL0     H23198  11.519   4.067   5.788 -0.6394 -0.5415 -2.8752
  172MOL0     H23199  11.479   3.918   5.887  0.8275 -0.7794  0.0283
  172MOL0     H23200  10.660   3.440   5.589 -1.3831 -0.4225 -1.8095
  172MOL0     H23201  10.485   3.271   5.622 -1.0600 -0.4673  0.2534
  172MOL0     H23202   9.815   3.317   5.653  0.1923 -0.5491  0.6347
  172MOL0     H23203   9.689   3.123   5.692  0.1102 -2.3835  0.0734
  172MOL0     H23204  11.011   2.038   5.937  1.7617 -0.7434  0.9925
  172MOL0     H23205  11.192   2.054   6.090 -2.8005 -2.2196 -0.6470
  172MOL0     H23206  11.416   2.158   6.372 -1.4796  2.8620 -1.0325
  172MOL0     H23207  11.609   2.066   6.472  1.0657  0.3762  0.0163
  172MOL0     H23208  11.943   2.058   6.233  3.3274  3.0056 -1.4685
  172MOL0     H23209  12.013   1.982   6.376  3.8251  2.1055  0.7007
  172MOL0     H23210  12.070   2.229   6.453 -1.7099  1.6482  0.2404
  172MOL0     H23211  12.047   2.265   6.280  0.9149  0.8864  0.0851
  172MOL0     H23212  12.208   2.093   6.211  0.7041 -2.3880  1.1918
  172MOL0     H23213  12.236   2.039   6.373 -2.3118 -0.6527  1.5390
  172MOL0     H23214  12.326   2.258   6.439  2.2682 -2.0264  0.5376
  172MOL0     H23215  12.416   2.183   6.317 -0.6588 -2.9857  1.4841
  172MOL0     H23216  12.308   2.508   6.088  1.1404 -2.0810 -0.8256
  172MOL0     H23217  11.850   2.294   6.200  0.5710  1.6141  0.8021
  172MOL0     H23218  11.629   2.492   6.048 -0.2365  0.3553 -0.9807
  172MOL0     H23219  11.775   2.401   6.030 -0.0721 -0.8612 -0.0070
  172MOL0     H23220  11.624   2.345   5.956 -1.4961 -1.1897  1.6799
  173MOL0     O23221   6.152   5.901   0.677 -0.0886 -0.2220 -0.0250
  173MOL0     C23222   6.197   5.833   0.766 -1.2374  0.5105 -1.1858
  173MOL0     O23223   6.329   5.803   0.776 -0.1577  0.1852  0.0985
  173MOL0     C23224   6.411   5.861   0.688  0.3607  0.1103 -0.2754
  173MOL0     C23225   6.437   5.817   0.558  0.4418 -0.3688 -0.1080
  173MOL0     C23226   6.542   5.864   0.483 -0.2469 -0.1662 -0.1777
  173MOL0     C23227   6.650   5.946   0.545 -0.6345  0.2920 -0.2300
  173MOL0     O23228   6.770   5.986   0.482 -0.1927  0.4443  0.0654
  173MOL0     C23229   6.785   5.954   0.341  0.3027  0.9801  0.5915
  173MOL0     C23230   6.909   6.018   0.286  0.3925  0.1105  0.1026
  173MOL0     C23231   7.037   5.969   0.365 -0.5425  0.4189  0.8119
  173MOL0     C23232   7.145   6.026   0.288 -0.1182  0.7665  0.0993
  173MOL0     C23233   7.278   6.000   0.365  0.7240 -0.9190  0.2048
  173MOL0     C23234   7.401   5.971   0.269 -0.5535  0.0380 -1.2268
  173MOL0     C23235   7.431   6.068   0.160  0.4071  0.0909 -0.7732
  173MOL0     C23236   7.571   6.076   0.089 -0.1872  0.7372  0.4789
  173MOL0     N23237   7.679   6.086   0.191  0.0636 -0.4725  0.1426
  173MOL0     C23238   7.691   6.174   0.291 -0.9419  0.0386 -1.0788
  173MOL0     C23239   7.829   6.166   0.324  0.9062 -0.5520  0.2471
  173MOL0     C23240   7.884   6.263   0.419 -0.0688 -0.3370  0.5348
  173MOL0     C23241   7.925   6.392   0.365  0.2660 -0.0149 -0.1373
  173MOL0     C23242   8.046   6.409   0.272 -0.0636 -0.0890  0.6112
  173MOL0     C23243   8.057   6.563   0.236 -0.6719  0.1909  0.0147
  173MOL0     O23244   8.195   6.601   0.234 -0.7294  0.0595 -0.3205
  173MOL0     C23245   8.266   6.604   0.355 -0.4226 -0.1613  0.0789
  173MOL0     C23246   8.398   6.557   0.354  0.0456 -0.6332  0.0439
  173MOL0     C23247   8.470   6.529   0.471  0.4360 -0.2817 -0.8524
  173MOL0     C23248   8.412   6.555   0.593  0.2846  0.4400  0.6698
  173MOL0     C23249   8.484   6.537   0.715  0.7187  0.8618 -0.9397
  173MOL0     O23250   8.591   6.451   0.721 -0.4086  0.5628  0.5176
  173MOL0     C23251   8.684   6.446   0.814 -0.3828 -0.1431 -0.6773
  173MOL0     C23252   8.795   6.528   0.826 -0.1568  0.7607 -0.3097
  173MOL0     C23253   8.884   6.532   0.931  0.6511 -0.2995 -0.3273
  173MOL0     C23254   8.857   6.446   1.045 -0.6474 -0.4629 -0.3087
  173MOL0     O23255   8.946   6.453   1.144 -0.1952 -0.0727  0.1499
  173MOL0     C23256   8.938   6.360   1.254 -0.5471 -0.5457 -0.1798
  173MOL0     C23257   9.038   6.404   1.362  0.0358 -0.0377 -0.1999
  173MOL0     C23258   9.015   6.339   1.506  0.2937 -0.2192  0.7479
  173MOL0     C23259   9.114   6.392   1.606  0.0270  0.3220 -0.2528
  173MOL0     C23260   9.088   6.320   1.741 -0.0880 -0.9334 -0.1735
  173MOL0     C23261   9.164   6.186   1.752  0.1818  0.2550 -0.0362
  173MOL0     C23262   9.109   6.096   1.862 -0.1440 -0.1841  0.4778
  173MOL0     C23263   9.165   5.951   1.850 -0.3305  0.5607  0.8534
  173MOL0    Cl23264   9.080   5.862   1.979  0.6210 -0.4150 -0.0754
  173MOL0     C23265   8.737   6.366   1.037 -0.2534  0.5190 -0.3466
  173MOL0     C23266   8.659   6.362   0.924  0.4647 -0.2239 -0.7903
  173MOL0     O23267   8.457   6.620   0.801  0.3677 -0.0281  0.3748
  173MOL0     C23268   8.280   6.608   0.600 -0.3443 -0.3832 -0.2067
  173MOL0     C23269   8.205   6.631   0.479 -0.8048 -0.6944 -0.1722
  173MOL0     N23270   7.889   6.080   0.232  1.1551  0.1666 -0.9286
  173MOL0     N23271   7.796   6.026   0.156 -0.8538 -1.1669  0.4914
  173MOL0     C23272   6.621   5.996   0.674 -0.4249  0.4899 -1.1486
  173MOL0     C23273   6.509   5.945   0.749 -0.6875 -0.8222 -0.3494
  173MOL0     C23274   6.112   5.765   0.865 -0.5492  0.1440 -0.2031
  173MOL0     C23275   5.974   5.753   0.839 -0.6033 -0.1053  0.5775
  173MOL0     C23276   5.888   5.684   0.921 -0.0320  0.6937  0.7005
  173MOL0     C23277   5.924   5.633   1.042 -0.7874 -0.4819 -0.1235
  173MOL0     O23278   5.830   5.581   1.125  0.1606  0.1328  0.0913
  173MOL0     C23279   5.792   5.668   1.231  0.2835 -0.3816  1.0182
  173MOL0     C23280   5.699   5.786   1.191 -0.0203 -0.5342 -0.4230
  173MOL0     C23281   5.577   5.721   1.123 -0.2643  0.7846  0.1289
  173MOL0     C23282   5.458   5.805   1.092 -0.6370 -0.5534  0.0492
  173MOL0     C23283   5.509   5.910   1.006  0.1284  0.1394  0.0803
  173MOL0     C23284   5.561   5.999   0.946 -0.4129 -0.4730  0.4189
  173MOL0     C23285   6.063   5.654   1.068 -1.1903 -0.1256 -0.1459
  173MOL0     C23286   6.156   5.721   0.989  0.7217 -0.5815  0.2264
  173MOL0     C23287   6.297   5.733   1.044 -0.4574  0.1826 -0.0883
  173MOL0     H23288   6.372   5.740   0.517 -0.5917  0.0505  0.6952
  173MOL0     H23289   6.544   5.826   0.381  0.4500 -0.5232 -0.0370
  173MOL0     H23290   6.792   5.845   0.336  0.7357  1.0296 -0.0836
  173MOL0     H23291   6.700   6.001   0.290 -1.1311  0.3705  2.3294
  173MOL0     H23292   6.908   6.127   0.293  0.7952 -0.0055  3.3558
  173MOL0     H23293   6.908   5.981   0.183 -2.5275 -0.9829  0.4153
  173MOL0     H23294   7.044   5.860   0.362 -0.2505  0.4611 -0.6038
  173MOL0     H23295   7.040   6.016   0.463 -0.6309  1.1532  0.4675
  173MOL0     H23296   7.151   5.977   0.191  1.6504 -1.2183  1.1278
  173MOL0     H23297   7.136   6.133   0.267  1.5943  1.4129  2.2651
  173MOL0     H23298   7.309   6.094   0.411  0.4541 -1.4874  1.6008
  173MOL0     H23299   7.276   5.925   0.445 -0.0795  0.2381  1.2876
  173MOL0     H23300   7.486   5.957   0.336 -2.7391 -3.0487  1.2170
  173MOL0     H23301   7.377   5.875   0.224  1.8952 -1.3274  0.2006
  173MOL0     H23302   7.401   6.164   0.203  2.4596  0.7858 -0.7736
  173MOL0     H23303   7.359   6.043   0.081  1.1006  1.5948 -1.9391
  173MOL0     H23304   7.584   5.988   0.026  0.8491  0.4126  1.1171
  173MOL0     H23305   7.572   6.170   0.033 -0.6889  0.0514 -0.7005
  173MOL0     H23306   7.604   6.228   0.326 -0.2873  0.4110  0.0190
  173MOL0     H23307   7.807   6.282   0.495 -1.8461 -0.0145 -1.2768
  173MOL0     H23308   7.981   6.221   0.447  0.7980  0.8774 -0.5032
  173MOL0     H23309   7.838   6.443   0.320 -0.1469 -1.8434 -1.5363
  173MOL0     H23310   7.933   6.448   0.458 -2.6957 -1.0941  0.8835
  173MOL0     H23311   8.045   6.346   0.183 -0.4870  2.4391 -1.2643
  173MOL0     H23312   8.142   6.383   0.319 -0.3668 -1.2758  0.6020
  173MOL0     H23313   8.000   6.614   0.314  1.0603  1.4793  0.5147
  173MOL0     H23314   8.014   6.570   0.136 -2.6863 -5.2014  0.1719
  173MOL0     H23315   8.422   6.531   0.251 -0.2614  3.6949 -1.3279
  173MOL0     H23316   8.573   6.494   0.466 -0.8024 -5.4670  2.2119
  173MOL0     H23317   8.811   6.587   0.736 -0.1740 -2.5566 -2.6506
  173MOL0     H23318   8.979   6.582   0.949 -0.0368  0.4440  1.4424
  173MOL0     H23319   8.842   6.357   1.305 -0.9444 -0.3741 -0.9065
  173MOL0     H23320   8.966   6.263   1.211 -0.4405 -0.3271 -0.6108
  173MOL0     H23321   9.138   6.382   1.322 -1.0207 -1.4171 -2.2245
  173MOL0     H23322   9.042   6.513   1.376 -0.5827  0.2408 -1.9751
  173MOL0     H23323   8.913   6.356   1.539  0.1679  4.8769 -1.2602
  173MOL0     H23324   9.048   6.235   1.498  2.4316  0.4059  0.6393
  173MOL0     H23325   9.096   6.499   1.620  1.1883  1.1615 -3.9021
  173MOL0     H23326   9.216   6.378   1.569  0.7205 -2.2257  2.3112
  173MOL0     H23327   8.982   6.325   1.767  0.4851  3.7325  2.3671
  173MOL0     H23328   9.136   6.384   1.816 -0.6280 -0.5026 -0.1921
  173MOL0     H23329   9.157   6.128   1.660 -0.5930 -2.3311  1.5507
  173MOL0     H23330   9.269   6.212   1.769  0.6144 -2.0458  1.2347
  173MOL0     H23331   9.000   6.101   1.861 -0.1161  2.9192  1.6524
  173MOL0     H23332   9.141   6.129   1.962 -0.2551  3.4256 -0.5421
  173MOL0     H23333   9.132   5.900   1.759 -2.1836  0.0545  1.7573
  173MOL0     H23334   9.272   5.943   1.871 -0.3205 -0.1385  0.5549
  173MOL0     H23335   8.711   6.298   1.117 -2.4238  1.2459 -0.3667
  173MOL0     H23336   8.567   6.306   0.916  1.8896 -2.4285 -2.7818
  173MOL0     H23337   8.239   6.625   0.699  0.9597  1.2353  0.1135
  173MOL0     H23338   8.108   6.680   0.475  0.5469  2.0527 -2.2277
  173MOL0     H23339   6.701   6.049   0.727 -0.8100 -1.5161  1.6525
  173MOL0     H23340   6.517   5.962   0.856 -0.4952 -1.4208 -0.2650
  173MOL0     H23341   5.938   5.809   0.753 -0.1492  0.3130  0.6545
  173MOL0     H23342   5.784   5.682   0.889  0.0607 -0.1798  0.4319
  173MOL0     H23343   5.881   5.712   1.277  0.6014 -0.6187  0.6437
  173MOL0     H23344   5.733   5.615   1.306 -1.3841  0.2731  0.2052
  173MOL0     H23345   5.752   5.847   1.117  1.1426  0.5093  1.2136
  173MOL0     H23346   5.668   5.838   1.282  1.9643  0.2211 -0.1336
  173MOL0     H23347   5.552   5.631   1.181  0.5832 -0.9300 -2.0547
  173MOL0     H23348   5.602   5.670   1.030 -0.1626  0.9425  0.0696
  173MOL0     H23349   5.391   5.735   1.042 -0.0209 -0.4551 -0.9363
  173MOL0     H23350   5.410   5.841   1.184  0.4167  0.7672  0.1091
  173MOL0     H23351   5.585   6.074   0.873  2.1390  0.0011  1.6403
  173MOL0     H23352   6.100   5.623   1.166  0.4775 -2.7154 -1.4640
  173MOL0     H23353   6.373   5.666   1.003  0.8704  2.5056 -1.6667
  173MOL0     H23354   6.340   5.832   1.026  1.0855 -0.6333 -1.0913
  173MOL0     H23355   6.297   5.716   1.152  1.1054  0.8154  0.0441
  174MOL0     O23356   0.540  10.421   8.835  0.2755 -0.0454  0.2790
  174MOL0     C23357   0.622  10.374   8.907  0.5116  0.4988 -0.2659
  174MOL0     O23358   0.591  10.282   9.007 -0.2507 -0.8851 -0.0502
  174MOL0     C23359   0.460  10.285   9.066  0.4730  0.0754  0.1537
  174MOL0     C23360   0.438  10.196   9.165  0.5527  0.4695 -1.0249
  174MOL0     C23361   0.320  10.186   9.237  0.0400  0.3551 -0.4944
  174MOL0     C23362   0.211  10.268   9.211  0.1578  0.1039  0.0784
  174MOL0     O23363   0.088  10.240   9.257 -0.4752  0.6940  0.1847
  174MOL0     C23364   0.081  10.196   9.393  0.0195  0.1399 -0.8842
  174MOL0     C23365  -0.061  10.184   9.437  0.0842 -0.6540  0.4602
  174MOL0     C23366  -0.114  10.329   9.485  0.1021 -0.4164  0.4490
  174MOL0     C23367  -0.230  10.322   9.577  0.2841  0.1230 -0.5261
  174MOL0     C23368  -0.326  10.444   9.576 -0.3793 -0.5354  0.1916
  174MOL0     C23369  -0.433  10.437   9.693 -0.1162  0.3393  0.2630
  174MOL0     C23370  -0.555  10.543   9.681  0.1376 -0.0609 -0.1477
  174MOL0     C23371  -0.498  10.695   9.693  0.3499 -0.0063  0.0999
  174MOL0     N23372  -0.601  10.799   9.690 -0.3811 -0.6858 -0.0108
  174MOL0     C23373  -0.723  10.784   9.636 -0.2718  0.2888  0.9670
  174MOL0     C23374  -0.800  10.879   9.699 -0.1992  0.6642  0.4327
  174MOL0     C23375  -0.941  10.903   9.684  0.4062 -0.1703  0.0162
  174MOL0     C23376  -0.964  10.991   9.559  0.5838 -0.3736 -0.6791
  174MOL0     C23377  -0.975  11.142   9.607  0.3435 -0.3462  0.3021
  174MOL0     C23378  -0.841  11.227   9.582 -0.0695  0.9145 -0.3631
  174MOL0     O23379  -0.807  11.232   9.441  0.3222  0.7298 -0.5410
  174MOL0     C23380  -0.708  11.325   9.392 -0.2237 -0.1397 -0.0320
  174MOL0     C23381  -0.623  11.405   9.470 -0.3651 -1.0650  0.0543
  174MOL0     C23382  -0.532  11.496   9.407 -0.4583  0.0910 -0.3519
  174MOL0     C23383  -0.521  11.499   9.273  0.4409  0.5728  0.7341
  174MOL0     C23384  -0.404  11.580   9.219  0.0578  0.2689  0.9339
  174MOL0     O23385  -0.401  11.573   9.088 -0.2112 -0.5766 -0.1477
  174MOL0     C23386  -0.308  11.639   9.008  0.3126 -0.3439 -1.3036
  174MOL0     C23387  -0.270  11.586   8.886  0.2050 -0.0196  0.9578
  174MOL0     C23388  -0.197  11.658   8.790  0.4263  0.0827  0.5154
  174MOL0     C23389  -0.143  11.783   8.814 -0.8769 -0.1334 -0.8387
  174MOL0     O23390  -0.050  11.851   8.736 -0.4680 -0.6900  0.0305
  174MOL0     C23391  -0.014  11.809   8.608  0.1149 -0.2514  0.2712
  174MOL0     C23392   0.095  11.698   8.598 -0.0502 -0.0153 -0.1618
  174MOL0     C23393   0.092  11.638   8.456 -0.0086 -0.4618 -0.0129
  174MOL0     C23394   0.106  11.737   8.336 -0.0111 -0.3043  0.1937
  174MOL0     C23395   0.223  11.840   8.346 -0.1092 -0.4216 -0.3638
  174MOL0     C23396   0.261  11.916   8.220 -0.1669  0.3010 -0.0150
  174MOL0     C23397   0.358  11.821   8.133 -0.0183 -0.1300  0.5318
  174MOL0     C23398   0.329  11.818   7.979 -0.7583 -0.3135 -0.4416
  174MOL0    Cl23399   0.162  11.774   7.932  0.3268  0.4151  0.1300
  174MOL0     C23400  -0.168  11.830   8.939  0.3892 -0.5694  0.3074
  174MOL0     C23401  -0.251  11.764   9.040 -0.4473  0.0283  0.5855
  174MOL0     O23402  -0.322  11.631   9.298  0.2826  0.7644 -0.5063
  174MOL0     C23403  -0.608  11.431   9.196  0.5447 -0.3798 -1.0697
  174MOL0     C23404  -0.703  11.340   9.252  0.5262  0.5917 -0.0233
  174MOL0     N23405  -0.718  10.941   9.793  0.0671 -0.6579  0.8316
  174MOL0     N23406  -0.602  10.889   9.790 -0.8439 -0.0186 -0.0959
  174MOL0     C23407   0.232  10.371   9.124 -0.8980 -0.6528  0.6568
  174MOL0     C23408   0.363  10.385   9.060 -0.8287  0.4943 -0.6355
  174MOL0     C23409   0.755  10.449   8.907  0.7946  0.4943  0.5833
  174MOL0     C23410   0.760  10.587   8.876  0.4302  0.2845 -0.1111
  174MOL0     C23411   0.879  10.663   8.877  1.6337 -0.4349 -0.0031
  174MOL0     C23412   1.001  10.607   8.893 -0.8820 -0.0463 -0.7323
  174MOL0     O23413   1.112  10.690   8.877  0.1068  0.3217 -0.5711
  174MOL0     C23414   1.239  10.645   8.842 -0.8049 -0.4087  0.4589
  174MOL0     C23415   1.271  10.731   8.724 -0.4842 -0.1791 -0.5361
  174MOL0     C23416   1.306  10.882   8.753  1.4530  0.0759 -0.2537
  174MOL0     C23417   1.406  10.933   8.646 -0.0689  0.3206 -0.0677
  174MOL0     C23418   1.373  11.071   8.601  0.0867 -0.1463  0.5794
  174MOL0     C23419   1.361  11.195   8.590  0.2322 -0.3207 -0.3082
  174MOL0     C23420   1.002  10.469   8.920 -0.8176 -0.1522  0.7924
  174MOL0     C23421   0.880  10.390   8.942 -0.8606 -0.0125  0.7354
  174MOL0     C23422   0.903  10.247   8.984  0.0413 -0.5079 -0.1499
  174MOL0     H23423   0.506  10.113   9.184 -1.6203 -1.2828 -0.5136
  174MOL0     H23424   0.305  10.109   9.312 -0.5974  1.4254  0.5162
  174MOL0     H23425   0.138  10.104   9.410  1.8294  1.4798  0.7184
  174MOL0     H23426   0.143  10.252   9.464 -0.4428 -0.5755  0.1111
  174MOL0     H23427  -0.060  10.116   9.523  0.4801 -0.8169  0.3255
  174MOL0     H23428  -0.132  10.135   9.370 -0.0808 -2.2126  1.7212
  174MOL0     H23429  -0.124  10.382   9.389 -2.5268 -2.8480 -0.7504
  174MOL0     H23430  -0.033  10.379   9.539 -0.0278  0.9755 -0.5597
  174MOL0     H23431  -0.300  10.240   9.553 -0.1495  0.0590  0.8875
  174MOL0     H23432  -0.193  10.303   9.678 -1.9448  0.5704  0.4255
  174MOL0     H23433  -0.267  10.534   9.600  0.9126 -1.6726  1.5368
  174MOL0     H23434  -0.364  10.462   9.475  1.2117 -2.2937 -0.7783
  174MOL0     H23435  -0.473  10.336   9.683  0.8584  0.1904 -3.1044
  174MOL0     H23436  -0.385  10.448   9.791  0.7971  1.0684 -0.2584
  174MOL0     H23437  -0.630  10.520   9.756  1.9385  0.4537  1.9220
  174MOL0     H23438  -0.597  10.528   9.581  2.0232  1.5244 -1.2501
  174MOL0     H23439  -0.447  10.703   9.789 -0.0537  2.4484  0.1677
  174MOL0     H23440  -0.418  10.702   9.619  2.7751 -1.7988  2.3671
  174MOL0     H23441  -0.764  10.724   9.555  0.8897  0.6801  0.0734
  174MOL0     H23442  -0.991  10.807   9.668  0.8960 -0.9792  2.8289
  174MOL0     H23443  -0.983  10.948   9.775  0.3886  2.2492 -1.1200
  174MOL0     H23444  -0.885  10.987   9.484  1.0846 -1.4488 -0.1157
  174MOL0     H23445  -1.056  10.964   9.505 -1.4171  1.0916  1.7731
  174MOL0     H23446  -1.000  11.147   9.713 -0.3858 -1.6138  0.2101
  174MOL0     H23447  -1.053  11.187   9.545  2.2250  0.6374 -1.4849
  174MOL0     H23448  -0.770  11.166   9.638 -0.8850 -0.7535 -1.0754
  174MOL0     H23449  -0.860  11.321   9.635 -1.1037 -0.8151  2.5416
  174MOL0     H23450  -0.633  11.400   9.578 -1.3579  0.0241  0.0307
  174MOL0     H23451  -0.460  11.556   9.462 -1.2888  3.1100 -2.3223
  174MOL0     H23452  -0.305  11.487   8.863 -2.2541  0.8355  0.7449
  174MOL0     H23453  -0.180  11.616   8.692 -0.9277  3.9522 -1.5774
  174MOL0     H23454  -0.105  11.787   8.552 -1.6344 -3.6577  3.9945
  174MOL0     H23455   0.026  11.896   8.556 -1.8653  1.0143  0.7462
  174MOL0     H23456   0.195  11.728   8.632 -1.6967 -0.8874  7.0137
  174MOL0     H23457   0.062  11.626   8.673  0.3682 -0.5491 -0.4855
  174MOL0     H23458   0.173  11.565   8.443  1.6401  1.2371  0.3140
  174MOL0     H23459   0.004  11.573   8.460 -0.3484 -0.0320 -0.4509
  174MOL0     H23460   0.015  11.792   8.309 -0.7763  0.1937  3.3177
  174MOL0     H23461   0.125  11.676   8.248  0.7181 -1.3574  1.0600
  174MOL0     H23462   0.315  11.798   8.388  1.7652  3.1618 -0.4236
  174MOL0     H23463   0.187  11.921   8.410  2.3725 -0.7855  1.6717
  174MOL0     H23464   0.184  11.965   8.161 -1.7738  0.6763  2.2855
  174MOL0     H23465   0.315  12.005   8.254  0.9737 -0.4072  0.0938
  174MOL0     H23466   0.348  11.722   8.179 -3.1840 -0.0558  0.2735
  174MOL0     H23467   0.465  11.843   8.135 -0.2688  1.7530 -1.7722
  174MOL0     H23468   0.342  11.919   7.939 -0.2999  1.1143  2.9490
  174MOL0     H23469   0.399  11.750   7.930  0.0236  0.7162 -0.7820
  174MOL0     H23470  -0.121  11.925   8.966 -1.8636  0.3056  1.4185
  174MOL0     H23471  -0.280  11.810   9.134 -0.3846  0.7196  0.2761
  174MOL0     H23472  -0.613  11.430   9.088 -2.0538  0.9268 -1.0527
  174MOL0     H23473  -0.777  11.291   9.189 -0.2855  2.2096 -0.4003
  174MOL0     H23474   0.154  10.445   9.106 -0.0699 -0.3675 -2.4488
  174MOL0     H23475   0.365  10.478   9.003 -2.5052  0.8141 -0.2343
  174MOL0     H23476   0.666  10.639   8.865 -0.0588 -0.8639 -1.7905
  174MOL0     H23477   0.877  10.771   8.869  2.2214 -0.4685 -0.7097
  174MOL0     H23478   1.235  10.540   8.812 -2.6226 -0.0533 -0.6645
  174MOL0     H23479   1.316  10.663   8.918 -0.3939  0.6623 -0.1921
  174MOL0     H23480   1.186  10.714   8.658 -0.5064  0.3498 -0.6454
  174MOL0     H23481   1.358  10.687   8.673 -0.0961  2.3890 -2.2823
  174MOL0     H23482   1.346  10.900   8.854  1.5879  1.7259 -0.5741
  174MOL0     H23483   1.216  10.944   8.752  1.9838  0.9238  1.1295
  174MOL0     H23484   1.510  10.923   8.679  1.6566  1.9241 -4.2856
  174MOL0     H23485   1.400  10.865   8.560 -0.0952 -0.0723  0.2423
  174MOL0     H23486   1.353  11.302   8.588 -2.9245 -0.3577  1.6047
  174MOL0     H23487   1.093  10.415   8.943  0.1224  0.7747 -0.5796
  174MOL0     H23488   0.929  10.181   8.900  0.5314  0.7264 -1.0049
  174MOL0     H23489   0.986  10.244   9.054 -0.8076 -1.1419  0.8538
  174MOL0     H23490   0.817  10.199   9.031  1.4279 -4.0196 -0.8634
  175MOL0     O23491   7.641   6.450   5.679 -0.2288 -0.2029 -0.5742
  175MOL0     C23492   7.598   6.545   5.754  0.0841 -0.2219  0.8685
  175MOL0     O23493   7.673   6.603   5.851  0.1909 -0.2410  1.0056
  175MOL0     C23494   7.801   6.568   5.860 -0.0741  0.3572  0.0588
  175MOL0     C23495   7.860   6.540   5.978 -0.2335  0.4736  0.3742
  175MOL0     C23496   7.999   6.516   5.989  0.4024 -0.3384  0.7298
  175MOL0     C23497   8.078   6.535   5.870 -0.2116 -0.3399 -0.2585
  175MOL0     O23498   8.206   6.492   5.897  0.1583 -0.1742 -0.0106
  175MOL0     C23499   8.308   6.529   5.806  0.3719  0.7392 -0.5488
  175MOL0     C23500   8.448   6.487   5.854 -0.2827  0.0897 -0.8732
  175MOL0     C23501   8.563   6.533   5.772 -0.0949 -0.3268  0.0413
  175MOL0     C23502   8.697   6.462   5.802 -0.2363  0.5279  0.6163
  175MOL0     C23503   8.772   6.522   5.925 -0.2832 -0.7101 -0.2603
  175MOL0     C23504   8.900   6.435   5.967  0.2597  0.0237  0.3288
  175MOL0     C23505   8.962   6.498   6.090 -0.0587  0.0211  0.2876
  175MOL0     C23506   9.104   6.455   6.112  0.0465  0.8294 -0.5207
  175MOL0     N23507   9.198   6.494   6.009  0.9658  0.5185  0.2439
  175MOL0     C23508   9.211   6.619   5.944  0.5611 -0.3607  1.0709
  175MOL0     C23509   9.315   6.599   5.866  0.7474  0.2394  0.3822
  175MOL0     C23510   9.377   6.694   5.771 -0.4558  0.0600 -0.6162
  175MOL0     C23511   9.530   6.721   5.789 -0.3757  0.3337 -0.7951
  175MOL0     C23512   9.568   6.759   5.937 -0.2897 -0.2472  0.1589
  175MOL0     C23513   9.722   6.759   5.947 -0.2299 -0.5616  0.1129
  175MOL0     O23514   9.805   6.839   5.855 -0.4615  0.3391  0.0399
  175MOL0     C23515   9.936   6.830   5.848 -0.1790 -0.0187 -0.1350
  175MOL0     C23516  10.014   6.724   5.907 -0.4171  0.6093 -0.4425
  175MOL0     C23517  10.161   6.729   5.904  1.4598  1.0618  0.3661
  175MOL0     C23518  10.229   6.826   5.835 -0.9246 -0.6941 -0.4815
  175MOL0     C23519  10.376   6.823   5.827  0.0688 -0.9891  0.8508
  175MOL0     O23520  10.429   6.884   5.720 -0.0135  0.4389  0.6480
  175MOL0     C23521  10.565   6.908   5.710  0.2192  1.3177  0.2540
  175MOL0     C23522  10.608   6.945   5.583 -0.3677  0.5126 -0.2663
  175MOL0     C23523  10.734   6.995   5.551  0.3441  0.4444 -0.0917
  175MOL0     C23524  10.824   7.012   5.657  0.4627 -0.0263  0.0648
  175MOL0     O23525  10.943   7.077   5.633 -0.0384 -0.5768  0.8162
  175MOL0     C23526  11.045   6.994   5.587  0.3342  0.4875 -0.1688
  175MOL0     C23527  11.162   7.071   5.542 -0.1261 -0.2035  0.2611
  175MOL0     C23528  11.128   7.135   5.403 -0.5424 -0.8782 -0.5452
  175MOL0     C23529  11.253   7.186   5.342  0.0834  0.3694 -0.1847
  175MOL0     C23530  11.234   7.275   5.221 -0.1261 -0.0556  0.7548
  175MOL0     C23531  11.371   7.341   5.177  0.1258  0.5070  0.5231
  175MOL0     C23532  11.359   7.471   5.101 -0.0282 -0.2601  0.0793
  175MOL0     C23533  11.502   7.519   5.064  0.2987  0.8738  0.4145
  175MOL0    Cl23534  11.589   7.402   4.945 -0.0630  0.4082 -0.1789
  175MOL0     C23535  10.795   6.959   5.784  0.1299  0.3121  0.4732
  175MOL0     C23536  10.660   6.907   5.812  0.1246 -0.5157  0.6225
  175MOL0     O23537  10.432   6.749   5.914  0.1640 -0.6658  0.7027
  175MOL0     C23538  10.147   6.922   5.773 -0.2568  0.3621 -0.4483
  175MOL0     C23539  10.007   6.916   5.781 -0.4827  0.5901 -0.1786
  175MOL0     N23540   9.356   6.465   5.869  0.4835 -0.2437  0.0696
  175MOL0     N23541   9.271   6.402   5.944 -0.3366  0.1274  1.3149
  175MOL0     C23542   8.027   6.574   5.753 -0.0353 -0.4698  0.8365
  175MOL0     C23543   7.889   6.596   5.752  0.6325 -0.7256 -0.3962
  175MOL0     C23544   7.468   6.615   5.731 -1.1378  0.0737 -0.3536
  175MOL0     C23545   7.398   6.677   5.840 -1.0946 -0.1427  0.0387
  175MOL0     C23546   7.277   6.729   5.829  0.0714 -0.0431 -0.0672
  175MOL0     C23547   7.206   6.723   5.708  0.5058  0.2058  0.7399
  175MOL0     O23548   7.079   6.769   5.673 -0.3617  0.5299 -0.6985
  175MOL0     C23549   6.991   6.827   5.775 -0.9787  0.1961 -0.5312
  175MOL0     C23550   6.869   6.729   5.790 -0.3788  0.0245 -0.8142
  175MOL0     C23551   6.758   6.809   5.847  0.1059  0.2074  0.4944
  175MOL0     C23552   6.630   6.730   5.888  0.5629  0.2029 -0.2294
  175MOL0     C23553   6.547   6.802   5.988  0.0591  0.2846  0.3866
  175MOL0     C23554   6.479   6.873   6.066 -0.4542  0.1308  0.7188
  175MOL0     C23555   7.269   6.653   5.600  0.6734  0.1342 -0.6250
  175MOL0     C23556   7.400   6.611   5.612 -0.2906 -0.5552  0.0839
  175MOL0     C23557   7.466   6.579   5.486 -0.3654  0.7627 -0.0480
  175MOL0     H23558   7.807   6.534   6.073  0.4215  1.6604  0.8392
  175MOL0     H23559   8.065   6.482   6.068 -0.6829 -2.6071  0.7447
  175MOL0     H23560   8.290   6.476   5.712 -1.1646  2.9030 -1.5601
  175MOL0     H23561   8.311   6.638   5.799  0.5302  1.1126  3.1398
  175MOL0     H23562   8.449   6.378   5.867 -0.6029  0.3628  2.4052
  175MOL0     H23563   8.466   6.533   5.952 -0.0944 -0.7186 -0.5122
  175MOL0     H23564   8.573   6.641   5.786 -1.2706 -0.3723  1.5244
  175MOL0     H23565   8.534   6.504   5.671 -3.1529 -0.1054  0.7651
  175MOL0     H23566   8.687   6.354   5.820 -1.1804  0.6883  1.1413
  175MOL0     H23567   8.758   6.479   5.713 -2.0766  2.4441 -0.3728
  175MOL0     H23568   8.786   6.631   5.927  0.5307 -0.7516 -2.2095
  175MOL0     H23569   8.709   6.504   6.013  0.0998 -0.2407  0.1219
  175MOL0     H23570   8.869   6.334   5.995  0.4807 -0.5696 -1.4357
  175MOL0     H23571   8.958   6.432   5.874 -1.0241  0.6319 -0.5204
  175MOL0     H23572   8.906   6.476   6.182 -2.4899  2.5974 -0.4630
  175MOL0     H23573   8.953   6.606   6.077  0.1682  0.2074  1.5109
  175MOL0     H23574   9.152   6.482   6.207 -0.0432 -2.3706  0.5495
  175MOL0     H23575   9.100   6.346   6.116 -1.5193  0.8606 -0.7520
  175MOL0     H23576   9.155   6.711   5.956  0.7081 -0.4983  3.4766
  175MOL0     H23577   9.370   6.660   5.667  0.3132  0.6496 -0.8689
  175MOL0     H23578   9.330   6.791   5.783  2.4956  1.5020  0.3131
  175MOL0     H23579   9.580   6.627   5.767 -1.1450 -1.1384  2.9830
  175MOL0     H23580   9.559   6.792   5.712  0.1703 -0.6706 -1.5331
  175MOL0     H23581   9.530   6.685   6.008 -2.7154  1.5016  0.8064
  175MOL0     H23582   9.533   6.858   5.964 -0.7877  0.1944 -1.8814
  175MOL0     H23583   9.756   6.655   5.938  1.9144  0.0650  0.5392
  175MOL0     H23584   9.757   6.793   6.045 -2.7810  0.1045  0.8751
  175MOL0     H23585   9.957   6.639   5.943  0.0703 -0.3504 -1.8427
  175MOL0     H23586  10.210   6.646   5.953 -1.7179 -2.7433 -2.3039
  175MOL0     H23587  10.539   6.929   5.501 -0.6054 -3.7169  0.4933
  175MOL0     H23588  10.771   7.033   5.456 -0.2757  1.4284  0.0504
  175MOL0     H23589  11.083   6.928   5.665 -0.7936  1.2962  1.1037
  175MOL0     H23590  10.997   6.935   5.508 -0.7386 -0.0488  0.8501
  175MOL0     H23591  11.194   7.146   5.615  2.3395 -1.5920  0.6995
  175MOL0     H23592  11.248   7.004   5.532  0.5225  0.4333  1.3523
  175MOL0     H23593  11.095   7.057   5.334 -0.4564 -0.2075 -1.3719
  175MOL0     H23594  11.054   7.214   5.421  0.2509 -0.0088 -1.0022
  175MOL0     H23595  11.314   7.100   5.314 -0.5595  0.2797 -1.3867
  175MOL0     H23596  11.295   7.255   5.416 -2.0809  1.4428  0.1046
  175MOL0     H23597  11.163   7.350   5.257 -1.1193 -2.2358  3.8004
  175MOL0     H23598  11.188   7.220   5.138  0.7294 -0.1459  0.3334
  175MOL0     H23599  11.433   7.354   5.266  0.3103  1.7855  0.2374
  175MOL0     H23600  11.427   7.267   5.120 -0.8462 -0.7885  1.1972
  175MOL0     H23601  11.300   7.538   5.165  1.3229  1.1193 -0.0381
  175MOL0     H23602  11.301   7.454   5.011  1.0318 -2.4331 -0.2458
  175MOL0     H23603  11.478   7.617   5.021 -2.6960  1.5316  3.1691
  175MOL0     H23604  11.558   7.547   5.154  0.5379  4.0460 -0.5932
  175MOL0     H23605  10.855   6.986   5.871  2.0905  0.7745 -0.9659
  175MOL0     H23606  10.642   6.887   5.917  1.7676  0.2888  1.0906
  175MOL0     H23607  10.193   6.997   5.710  3.5935 -0.7087  0.8502
  175MOL0     H23608   9.957   7.006   5.748 -1.5064 -0.6158 -2.1073
  175MOL0     H23609   8.079   6.569   5.658 -4.3076 -2.7538 -1.6824
  175MOL0     H23610   7.854   6.619   5.652 -1.1425 -1.9766 -0.1275
  175MOL0     H23611   7.445   6.683   5.938  0.5314 -1.3133 -0.6283
  175MOL0     H23612   7.226   6.778   5.911  0.3308  2.3147 -1.2249
  175MOL0     H23613   6.956   6.924   5.740 -3.2802  1.7036  4.8040
  175MOL0     H23614   7.034   6.842   5.875 -3.7446 -0.3890  0.8745
  175MOL0     H23615   6.895   6.663   5.873 -0.9049 -0.7161 -1.2230
  175MOL0     H23616   6.845   6.684   5.693  1.3478 -0.6444 -0.9767
  175MOL0     H23617   6.721   6.881   5.773  2.2725  0.9791  0.0952
  175MOL0     H23618   6.789   6.863   5.937 -0.1114  1.8992 -0.3972
  175MOL0     H23619   6.566   6.734   5.799  0.0130  1.7177  0.2062
  175MOL0     H23620   6.643   6.625   5.915  0.8671 -0.6701 -3.3170
  175MOL0     H23621   6.429   6.929   6.142  2.0914  2.1498  1.0287
  175MOL0     H23622   7.217   6.648   5.505 -2.7732 -0.4228  1.1244
  175MOL0     H23623   7.565   6.626   5.483  1.1773 -1.9019  2.8258
  175MOL0     H23624   7.480   6.471   5.479 -2.8905  0.3576  0.4344
  175MOL0     H23625   7.415   6.616   5.397 -1.4924  3.1203  1.4899
  176MOL0     O23626   6.889   7.938   1.277  0.2519  0.3046  0.3428
  176MOL0     C23627   6.792   7.874   1.237 -0.8430 -0.4800  0.5026
  176MOL0     O23628   6.769   7.861   1.102  0.2502 -0.0386  0.0764
  176MOL0     C23629   6.845   7.901   0.996 -0.2087 -0.2890  0.3616
  176MOL0     C23630   6.778   7.943   0.876 -0.0172  0.8321 -0.2404
  176MOL0     C23631   6.850   7.979   0.765  0.7330 -0.0948  0.4137
  176MOL0     C23632   6.982   7.973   0.750 -0.5241  1.0600 -0.6144
  176MOL0     O23633   7.031   7.996   0.629 -0.1764  0.5891  0.6337
  176MOL0     C23634   7.174   7.984   0.600 -0.3454 -0.2008 -0.6089
  176MOL0     C23635   7.205   8.045   0.460 -0.1341  0.9705  0.3403
  176MOL0     C23636   7.352   8.028   0.405  0.1380 -0.1806  0.4350
  176MOL0     C23637   7.454   8.100   0.509  0.0417 -0.6860 -0.4237
  176MOL0     C23638   7.601   8.086   0.468 -0.0878 -0.0495 -1.4664
  176MOL0     C23639   7.655   7.947   0.486 -0.3490  0.8701 -0.3157
  176MOL0     C23640   7.810   7.939   0.455 -0.0485 -0.2346  0.1376
  176MOL0     C23641   7.850   7.850   0.330 -0.4429 -0.5669  0.3410
  176MOL0     N23642   7.993   7.869   0.310 -0.2590 -0.2338  0.1037
  176MOL0     C23643   8.095   7.789   0.340  0.5799  0.2139  0.6543
  176MOL0     C23644   8.203   7.859   0.302 -0.3419 -0.3857 -0.6800
  176MOL0     C23645   8.349   7.802   0.328  0.0045 -0.3253 -0.0307
  176MOL0     C23646   8.460   7.880   0.260  0.1526  0.2640 -0.5494
  176MOL0     C23647   8.559   7.814   0.156  0.2975 -0.0071  0.5134
  176MOL0     C23648   8.659   7.906   0.097 -0.3574 -0.0100  0.0971
  176MOL0     O23649   8.720   7.991   0.199 -0.0330  0.3987 -0.4493
  176MOL0     C23650   8.832   8.062   0.162 -0.0165  0.5310  0.1925
  176MOL0     C23651   8.927   8.099   0.263 -0.5749  0.1267  0.7361
  176MOL0     C23652   9.036   8.187   0.226 -0.6753  0.0093 -0.0450
  176MOL0     C23653   9.055   8.235   0.098  0.5089  0.5032  0.8331
  176MOL0     C23654   9.164   8.310   0.057 -0.3952 -0.9996 -0.0962
  176MOL0     O23655   9.151   8.369  -0.064 -0.3175 -0.1079  0.2788
  176MOL0     C23656   9.239   8.464  -0.112  0.7893  0.1575  0.1714
  176MOL0     C23657   9.383   8.443  -0.111  0.4811  0.0988 -0.3357
  176MOL0     C23658   9.467   8.530  -0.182  0.2309  0.3648 -0.7046
  176MOL0     C23659   9.412   8.637  -0.246  0.4270 -0.0892  0.7215
  176MOL0     O23660   9.484   8.742  -0.306  0.0121  0.0429 -0.2858
  176MOL0     C23661   9.622   8.734  -0.319 -0.2785  0.0191  0.2092
  176MOL0     C23662   9.677   8.880  -0.335  0.1461 -0.2176  0.4692
  176MOL0     C23663   9.828   8.894  -0.360 -0.0682  0.0792 -0.4521
  176MOL0     C23664   9.886   9.037  -0.343  0.3965  0.6045  0.0264
  176MOL0     C23665  10.048   9.040  -0.369  0.3508  0.2318 -0.1058
  176MOL0     C23666  10.087   8.997  -0.501 -0.1936  0.4297  0.2097
  176MOL0     C23667  10.236   9.015  -0.523  0.5904  0.5282  0.3259
  176MOL0     C23668  10.287   8.950  -0.654  1.0071 -0.7141 -0.0577
  176MOL0    Cl23669  10.457   8.964  -0.659  0.2598 -0.0686 -0.0754
  176MOL0     C23670   9.274   8.669  -0.238  0.9526 -0.2776  0.5920
  176MOL0     C23671   9.183   8.579  -0.176  0.4708  0.2460  0.1624
  176MOL0     O23672   9.263   8.322   0.132 -0.2326  0.4764  0.7014
  176MOL0     C23673   8.962   8.193   0.004  0.2200  0.1636  0.7334
  176MOL0     C23674   8.865   8.092   0.031  0.5977  0.2477 -0.4987
  176MOL0     N23675   8.171   7.974   0.245  0.5571  0.5982  0.3753
  176MOL0     N23676   8.043   7.983   0.248 -0.0458 -1.1003  0.6484
  176MOL0     C23677   7.049   7.937   0.869 -0.2005  0.1041 -0.5367
  176MOL0     C23678   6.983   7.902   0.992  0.8647 -0.1414  0.4055
  176MOL0     C23679   6.693   7.816   1.323 -0.5938  0.5376  0.1018
  176MOL0     C23680   6.570   7.764   1.276 -0.1289  0.2495 -0.6617
  176MOL0     C23681   6.460   7.726   1.361  1.2878 -0.5034  0.5525
  176MOL0     C23682   6.483   7.738   1.503  0.4865 -0.2836 -0.0974
  176MOL0     O23683   6.398   7.706   1.599  0.4128  0.1604 -0.3183
  176MOL0     C23684   6.288   7.620   1.561 -0.1016 -0.3858  0.8107
  176MOL0     C23685   6.170   7.629   1.661  0.6739  0.5120  1.1249
  176MOL0     C23686   6.131   7.775   1.672 -0.2758 -0.0334 -0.3370
  176MOL0     C23687   5.986   7.804   1.727  0.2096  0.6328  0.2143
  176MOL0     C23688   5.970   7.765   1.865  0.4667  0.2452 -0.3647
  176MOL0     C23689   5.946   7.751   1.988 -0.7645  0.3226 -0.7393
  176MOL0     C23690   6.608   7.777   1.547  0.5677  0.0294  0.3209
  176MOL0     C23691   6.703   7.819   1.465  0.1633 -0.2666  0.2717
  176MOL0     C23692   6.839   7.808   1.532  1.5041  0.2858  0.0964
  176MOL0     H23693   6.669   7.938   0.873  0.0463 -1.2884 -1.7313
  176MOL0     H23694   6.808   8.022   0.675  1.1571  2.7980  1.4893
  176MOL0     H23695   7.228   8.035   0.680  0.7491 -2.1551 -0.0522
  176MOL0     H23696   7.205   7.879   0.609  0.2206 -0.1454 -1.7435
  176MOL0     H23697   7.204   8.154   0.467 -1.3904  0.9803  0.1810
  176MOL0     H23698   7.131   8.013   0.386  1.1747  0.9610 -1.0240
  176MOL0     H23699   7.349   8.090   0.315  1.3998  1.3536  1.3887
  176MOL0     H23700   7.371   7.921   0.395 -3.2005 -1.1541  2.7457
  176MOL0     H23701   7.419   8.203   0.503 -1.0678 -0.7532  2.8037
  176MOL0     H23702   7.424   8.057   0.605  0.8503 -0.2572  0.0264
  176MOL0     H23703   7.610   8.108   0.361 -3.1619 -0.7232 -1.9669
  176MOL0     H23704   7.657   8.157   0.529  1.5283 -1.1884 -1.5566
  176MOL0     H23705   7.646   7.919   0.591 -1.0876  1.1652 -0.2913
  176MOL0     H23706   7.605   7.873   0.423  0.2185  1.6479 -1.7505
  176MOL0     H23707   7.845   7.894   0.548 -1.7146  1.0109  1.4369
  176MOL0     H23708   7.851   8.039   0.439  1.4633 -0.7810  0.5122
  176MOL0     H23709   7.827   7.745   0.351  1.2814 -1.0510 -0.0540
  176MOL0     H23710   7.779   7.886   0.255 -1.5036 -4.1560 -0.5711
  176MOL0     H23711   8.105   7.686   0.373  0.0598 -0.1058 -0.1586
  176MOL0     H23712   8.363   7.800   0.436  3.3815  3.5869 -0.1802
  176MOL0     H23713   8.354   7.704   0.279  1.5331 -0.2881  0.0030
  176MOL0     H23714   8.416   7.967   0.211 -0.4704 -0.1358 -0.7083
  176MOL0     H23715   8.515   7.915   0.349 -3.2467  0.4926  1.6381
  176MOL0     H23716   8.501   7.772   0.073 -0.2891  3.3666 -0.9477
  176MOL0     H23717   8.616   7.735   0.206  1.5891  0.8370  0.4386
  176MOL0     H23718   8.614   7.961   0.014  3.3939  1.2324 -1.3387
  176MOL0     H23719   8.730   7.843   0.043  0.1058 -0.5348  1.2727
  176MOL0     H23720   8.910   8.053   0.360  1.8950 -0.8384  0.7791
  176MOL0     H23721   9.104   8.205   0.309 -4.4573  1.2241  3.0684
  176MOL0     H23722   9.422   8.355  -0.060 -1.0373  0.0868  0.8642
  176MOL0     H23723   9.575   8.519  -0.180  0.3381  1.2487 -0.9511
  176MOL0     H23724   9.671   8.699  -0.227 -2.4969  1.7102  2.1672
  176MOL0     H23725   9.655   8.678  -0.407  1.7815 -1.8441  2.0456
  176MOL0     H23726   9.629   8.937  -0.415  0.4118 -2.2318 -1.1974
  176MOL0     H23727   9.667   8.932  -0.239  0.2522 -0.8532  0.8329
  176MOL0     H23728   9.877   8.835  -0.281 -2.0580  2.7745  3.1195
  176MOL0     H23729   9.867   8.842  -0.448  0.1669  0.4247 -0.5535
  176MOL0     H23730   9.862   9.077  -0.245  0.0384  1.0302 -0.2298
  176MOL0     H23731   9.833   9.102  -0.414  1.9794  0.0345 -1.7807
  176MOL0     H23732  10.106   8.985  -0.295  0.4897 -1.1411 -1.1828
  176MOL0     H23733  10.076   9.146  -0.360  1.4488 -0.1743  1.8253
  176MOL0     H23734  10.059   8.893  -0.520 -1.8787  1.0169 -0.7912
  176MOL0     H23735  10.024   9.043  -0.578  1.5590  1.2535 -0.7886
  176MOL0     H23736  10.288   8.968  -0.439  1.3137 -0.9081 -0.8648
  176MOL0     H23737  10.261   9.120  -0.535 -0.7821  0.6636 -2.0777
  176MOL0     H23738  10.244   8.850  -0.664 -2.1366  0.3243  1.9000
  176MOL0     H23739  10.253   9.008  -0.741  1.4248  0.9894  0.8631
  176MOL0     H23740   9.237   8.759  -0.287 -0.6307 -0.1493  1.9251
  176MOL0     H23741   9.076   8.594  -0.168  0.7306  1.1705  2.9527
  176MOL0     H23742   8.968   8.221  -0.101 -1.3140 -0.8751  0.3272
  176MOL0     H23743   8.813   8.055  -0.057  3.6582 -0.6005 -2.0995
  176MOL0     H23744   7.157   7.923   0.870 -0.1710  0.2818 -1.0477
  176MOL0     H23745   7.054   7.869   1.066  1.1306 -1.1598 -0.2783
  176MOL0     H23746   6.540   7.746   1.173 -4.8542  3.5463 -0.1416
  176MOL0     H23747   6.370   7.683   1.319  2.0417 -0.5669 -1.0780
  176MOL0     H23748   6.321   7.517   1.543  2.6266  0.7984 -1.7790
  176MOL0     H23749   6.241   7.654   1.469  1.0601  0.6597  0.5682
  176MOL0     H23750   6.193   7.588   1.760  1.8873  0.8522  0.9987
  176MOL0     H23751   6.085   7.576   1.618 -0.8346  1.3018  2.9963
  176MOL0     H23752   6.132   7.826   1.575 -1.2572 -1.3809 -1.1033
  176MOL0     H23753   6.203   7.829   1.734 -1.5840  0.1737  1.0608
  176MOL0     H23754   5.954   7.907   1.709  0.7144  0.6247 -0.8260
  176MOL0     H23755   5.910   7.750   1.669  0.4127  3.6006 -3.1627
  176MOL0     H23756   5.928   7.740   2.093  0.3165 -0.1447 -0.5881
  176MOL0     H23757   6.627   7.759   1.653  1.5169 -1.6474 -0.0996
  176MOL0     H23758   6.899   7.725   1.495 -1.2544 -1.8011 -0.0204
  176MOL0     H23759   6.890   7.904   1.519 -1.3665  2.1887  1.6956
  176MOL0     H23760   6.829   7.781   1.638  3.0449  2.5007  0.9001
  177MOL0     O23761   0.655   3.703   1.278 -0.1056 -0.6831 -0.0690
  177MOL0     C23762   0.662   3.779   1.370  0.0970  0.1323 -0.2920
  177MOL0     O23763   0.749   3.762   1.478  0.2306  0.2235 -0.1095
  177MOL0     C23764   0.839   3.661   1.459  0.1842  0.0856  0.2179
  177MOL0     C23765   0.936   3.647   1.358  0.1966 -0.3019  0.4415
  177MOL0     C23766   1.025   3.540   1.347  0.5688  0.1691 -0.0545
  177MOL0     C23767   1.024   3.444   1.444 -0.9575 -0.0711 -0.2751
  177MOL0     O23768   1.120   3.341   1.453 -0.0448  0.0747  0.2347
  177MOL0     C23769   1.176   3.286   1.336 -0.7651 -0.6055  0.6890
  177MOL0     C23770   1.254   3.159   1.368  0.6230 -0.0553 -0.7146
  177MOL0     C23771   1.142   3.064   1.425 -1.0192 -0.5184  0.1014
  177MOL0     C23772   1.204   2.961   1.523  0.6639  0.3485  0.6936
  177MOL0     C23773   1.103   2.854   1.572 -0.1523 -0.7164  0.3532
  177MOL0     C23774   1.162   2.762   1.688  0.3038  0.5141 -0.3331
  177MOL0     C23775   1.087   2.796   1.820 -0.2970 -0.6116 -0.7492
  177MOL0     C23776   0.947   2.733   1.844  1.2179  1.0614 -0.6403
  177MOL0     N23777   0.948   2.591   1.865 -0.3641 -0.0163 -0.4200
  177MOL0     C23778   0.898   2.493   1.776 -0.5560 -0.1361  0.1409
  177MOL0     C23779   0.920   2.376   1.837  0.0450 -0.4403  0.3926
  177MOL0     C23780   0.881   2.249   1.775 -0.4048  0.8267 -0.0447
  177MOL0     C23781   0.988   2.195   1.673 -0.5942  0.1853 -0.9280
  177MOL0     C23782   1.127   2.158   1.731  1.0003 -0.8927 -0.4488
  177MOL0     C23783   1.115   2.045   1.833  0.5085  0.6306 -0.0743
  177MOL0     O23784   1.058   1.923   1.779  0.0626 -0.2544  0.4638
  177MOL0     C23785   1.116   1.849   1.689  0.3370 -0.2303  1.0882
  177MOL0     C23786   1.247   1.866   1.633  0.6653  0.1999 -0.7303
  177MOL0     C23787   1.297   1.780   1.532  0.2484 -0.1043  0.4417
  177MOL0     C23788   1.210   1.675   1.484 -0.7278  0.1434  0.2484
  177MOL0     C23789   1.252   1.594   1.368  0.7644  1.0265 -0.1911
  177MOL0     O23790   1.379   1.598   1.336 -0.8215 -0.1360 -0.4145
  177MOL0     C23791   1.440   1.522   1.235  0.3807  0.7404 -0.2353
  177MOL0     C23792   1.580   1.546   1.225  0.1960  0.0533  0.3328
  177MOL0     C23793   1.660   1.482   1.123 -0.0386 -0.1174  0.3188
  177MOL0     C23794   1.602   1.385   1.047 -0.8930  0.2277  0.4947
  177MOL0     O23795   1.668   1.322   0.946 -0.0165 -0.4985 -0.1169
  177MOL0     C23796   1.813   1.310   0.947 -0.0788 -0.9003 -0.1256
  177MOL0     C23797   1.847   1.263   0.806 -0.1499 -0.2775  0.5845
  177MOL0     C23798   2.000   1.278   0.778  0.2291  0.1106 -0.5801
  177MOL0     C23799   2.063   1.132   0.787 -0.0505 -1.1210  0.2360
  177MOL0     C23800   2.213   1.125   0.784  0.5571 -0.9418 -0.4719
  177MOL0     C23801   2.271   0.985   0.784  0.2188 -0.2669  0.4444
  177MOL0     C23802   2.223   0.902   0.909 -0.2397 -0.1868 -0.2801
  177MOL0     C23803   2.326   0.787   0.916  0.6053  0.6571  0.1460
  177MOL0    Cl23804   2.297   0.703   1.073  0.1450  0.1031 -0.0346
  177MOL0     C23805   1.473   1.356   1.062  0.4585  0.0022  1.1181
  177MOL0     C23806   1.385   1.426   1.144 -0.7006 -0.4563  0.4653
  177MOL0     O23807   1.172   1.507   1.327  0.0697  0.0600  0.5886
  177MOL0     C23808   1.083   1.653   1.544 -0.6650 -0.1587  0.2024
  177MOL0     C23809   1.035   1.746   1.638 -0.8397 -0.3039 -0.6450
  177MOL0     N23810   0.995   2.403   1.947 -0.2056 -0.4721 -0.7426
  177MOL0     N23811   1.002   2.530   1.976  0.6292  0.4254  0.5552
  177MOL0     C23812   0.936   3.458   1.548  0.5413  0.1253  0.2532
  177MOL0     C23813   0.840   3.565   1.561  0.5323 -0.3070 -0.4887
  177MOL0     C23814   0.573   3.896   1.369  0.0430  0.4720 -0.0551
  177MOL0     C23815   0.633   4.007   1.428  0.1048 -0.7589  0.3888
  177MOL0     C23816   0.561   4.122   1.463 -0.4536  0.9254  0.8255
  177MOL0     C23817   0.426   4.136   1.417 -1.4289  0.5507 -0.2524
  177MOL0     O23818   0.380   4.260   1.445 -0.7172 -0.9177 -0.6826
  177MOL0     C23819   0.243   4.299   1.411  0.4701  0.2749  0.5301
  177MOL0     C23820   0.251   4.367   1.267 -0.2263 -0.4989  0.0146
  177MOL0     C23821   0.117   4.439   1.242 -0.4409  0.0133  0.0340
  177MOL0     C23822   0.114   4.520   1.111 -0.5256  0.2615  0.0751
  177MOL0     C23823   0.002   4.616   1.125 -0.0258  0.1379  0.1059
  177MOL0     C23824  -0.091   4.694   1.128 -0.7534 -0.5205 -0.6054
  177MOL0     C23825   0.369   4.025   1.355  0.7977  0.6757 -0.4153
  177MOL0     C23826   0.438   3.905   1.329  0.2854  0.2888 -0.5931
  177MOL0     C23827   0.375   3.794   1.254 -0.0767 -0.0859 -0.1615
  177MOL0     H23828   0.947   3.726   1.284 -0.0488 -0.3608  0.3419
  177MOL0     H23829   1.110   3.547   1.281  3.9601  1.5430  3.9770
  177MOL0     H23830   1.108   3.264   1.254 -0.4047 -0.0137  0.2276
  177MOL0     H23831   1.245   3.360   1.296 -0.7927 -0.6485  0.5630
  177MOL0     H23832   1.318   3.177   1.455 -1.2540  1.7048  0.3768
  177MOL0     H23833   1.311   3.119   1.283  1.7831  0.9869 -0.4509
  177MOL0     H23834   1.115   3.019   1.329 -0.1474  0.1632 -0.4863
  177MOL0     H23835   1.050   3.101   1.470 -3.2751 -3.6476 -1.5891
  177MOL0     H23836   1.286   2.912   1.470 -0.9408 -0.9194 -0.7414
  177MOL0     H23837   1.245   3.009   1.612  2.2020 -0.4525  0.4582
  177MOL0     H23838   1.012   2.905   1.604  0.2271 -0.5912  1.2656
  177MOL0     H23839   1.065   2.795   1.488 -2.0926  0.5088  0.3017
  177MOL0     H23840   1.142   2.658   1.658 -0.6091  0.8766 -1.0418
  177MOL0     H23841   1.270   2.772   1.697  0.5290 -1.1267 -0.9121
  177MOL0     H23842   1.067   2.903   1.832  2.6818 -0.1084  0.8351
  177MOL0     H23843   1.155   2.801   1.905 -0.8891  2.5662 -0.3233
  177MOL0     H23844   0.892   2.773   1.930  0.3608  1.5660 -1.4040
  177MOL0     H23845   0.878   2.763   1.765  3.6848 -1.1164 -3.8495
  177MOL0     H23846   0.845   2.515   1.684 -1.0952  0.6751  0.6300
  177MOL0     H23847   0.861   2.174   1.852 -2.9051 -0.0111 -1.4132
  177MOL0     H23848   0.790   2.255   1.714  1.4775 -1.5110 -3.3881
  177MOL0     H23849   0.959   2.097   1.632 -0.1437 -0.7415  0.8631
  177MOL0     H23850   0.998   2.277   1.601  2.2628  1.7964  1.1096
  177MOL0     H23851   1.178   2.247   1.767 -0.5007 -0.1981  0.0254
  177MOL0     H23852   1.182   2.130   1.641  1.3398  1.2486 -0.9618
  177MOL0     H23853   1.044   2.084   1.907 -1.2417 -0.6678 -0.9935
  177MOL0     H23854   1.216   2.019   1.867  0.5483  1.7123  0.6905
  177MOL0     H23855   1.316   1.946   1.659  0.3946  0.0415  0.5646
  177MOL0     H23856   1.401   1.778   1.502 -0.0588 -0.9521 -0.6253
  177MOL0     H23857   1.618   1.628   1.284 -1.0816  0.1191  1.1053
  177MOL0     H23858   1.764   1.512   1.114 -0.4336  1.9250  1.7979
  177MOL0     H23859   1.861   1.408   0.958  2.5219 -1.8973 -1.5782
  177MOL0     H23860   1.863   1.250   1.024  2.0480  0.9366  0.0435
  177MOL0     H23861   1.817   1.158   0.799  0.7705 -0.4820 -0.6899
  177MOL0     H23862   1.790   1.325   0.736 -0.7035 -0.5296  0.8110
  177MOL0     H23863   2.016   1.313   0.675 -2.3922  0.3394 -0.9612
  177MOL0     H23864   2.063   1.341   0.842  2.5547 -1.3849 -1.2493
  177MOL0     H23865   2.028   1.074   0.702 -3.2606  0.1631  0.5566
  177MOL0     H23866   2.036   1.084   0.881  0.9378 -0.5822  0.8160
  177MOL0     H23867   2.251   1.187   0.866 -1.7605 -0.5098  0.3293
  177MOL0     H23868   2.248   1.178   0.695 -0.7991  1.9135  0.5755
  177MOL0     H23869   2.236   0.923   0.700 -2.0518  1.0376  0.3576
  177MOL0     H23870   2.379   1.002   0.778  0.5265 -2.3007 -1.5923
  177MOL0     H23871   2.123   0.870   0.880 -0.0020 -1.3918  0.1577
  177MOL0     H23872   2.225   0.963   1.000  3.8635 -1.1829  0.5188
  177MOL0     H23873   2.302   0.710   0.842  3.1331  0.1186 -0.2043
  177MOL0     H23874   2.433   0.805   0.902  0.7624  1.2913  1.9335
  177MOL0     H23875   1.435   1.287   0.988  2.2962  1.0288 -0.8915
  177MOL0     H23876   1.278   1.405   1.136 -0.2435 -3.1972  0.6460
  177MOL0     H23877   1.034   1.562   1.509 -1.5601  0.7610 -0.9888
  177MOL0     H23878   0.949   1.729   1.701 -0.3874  1.9018  0.6945
  177MOL0     H23879   0.933   3.380   1.623 -0.1042  1.2660  1.4400
  177MOL0     H23880   0.779   3.580   1.649  0.1658  1.5100 -1.0033
  177MOL0     H23881   0.731   4.001   1.474 -0.4900  0.2778  1.8971
  177MOL0     H23882   0.611   4.212   1.499  3.0244 -0.3551 -0.4105
  177MOL0     H23883   0.207   4.369   1.486 -0.4482  0.8070 -0.3787
  177MOL0     H23884   0.166   4.222   1.402  2.1770 -1.6981  1.8397
  177MOL0     H23885   0.255   4.292   1.187 -0.3550  0.5033 -0.9556
  177MOL0     H23886   0.335   4.437   1.267 -0.0257 -0.4458 -4.2572
  177MOL0     H23887   0.095   4.500   1.330  0.2450 -0.6464  0.6855
  177MOL0     H23888   0.035   4.367   1.240 -1.0534  0.4753  3.0742
  177MOL0     H23889   0.212   4.566   1.094  0.2959 -1.9046 -1.5705
  177MOL0     H23890   0.103   4.442   1.035  3.8131 -1.2774  0.7119
  177MOL0     H23891  -0.175   4.760   1.136 -0.6027 -0.3955  0.0785
  177MOL0     H23892   0.269   4.029   1.313  1.1275 -2.9383 -1.9183
  177MOL0     H23893   0.267   3.803   1.243 -0.2915 -0.3603  1.4724
  177MOL0     H23894   0.400   3.809   1.149  0.9440  0.1129  0.0994
  177MOL0     H23895   0.403   3.696   1.293 -3.0686 -0.5215  1.1692
  178MOL0     O23896   1.604   1.933  10.023  0.1603  1.2339 -0.4641
  178MOL0     C23897   1.500   1.967   9.969  0.2906 -0.2843  0.6882
  178MOL0     O23898   1.379   1.962  10.018  0.6454  0.1625 -0.1786
  178MOL0     C23899   1.351   1.866  10.107  0.4496  0.7977 -0.6833
  178MOL0     C23900   1.274   1.882  10.226  0.4920 -0.4250 -1.2610
  178MOL0     C23901   1.225   1.782  10.311 -1.2994 -0.4441 -0.4208
  178MOL0     C23902   1.266   1.650  10.272  0.4158 -0.3480 -0.6599
  178MOL0     O23903   1.239   1.538  10.348 -0.2644  0.2759 -0.0226
  178MOL0     C23904   1.123   1.546  10.434  0.5076  0.3873  0.7350
  178MOL0     C23905   1.065   1.407  10.447 -0.2618  0.4086  0.1241
  178MOL0     C23906   0.996   1.360  10.314 -0.2899 -1.3288  0.2532
  178MOL0     C23907   0.929   1.228  10.317 -0.2493 -0.4359 -0.2383
  178MOL0     C23908   0.843   1.191  10.193 -0.3541  0.2092 -0.1832
  178MOL0     C23909   0.940   1.144  10.080 -0.7771 -0.2056  0.4908
  178MOL0     C23910   0.859   1.107   9.962 -0.2468 -0.4894 -0.2116
  178MOL0     C23911   0.771   0.977   9.981  1.1339 -0.3521 -0.3285
  178MOL0     N23912   0.849   0.859  10.006 -0.1143 -0.3633 -0.0421
  178MOL0     C23913   0.848   0.782  10.121  0.6507  0.2410 -0.8719
  178MOL0     C23914   0.901   0.658  10.083 -0.0811 -0.0903  0.5322
  178MOL0     C23915   0.917   0.530  10.166 -0.1548  0.0411 -0.0163
  178MOL0     C23916   1.032   0.536  10.263  0.4434 -0.3390 -0.2984
  178MOL0     C23917   1.064   0.400  10.321 -0.1062  0.2703  0.3931
  178MOL0     C23918   0.958   0.342  10.420 -0.0709 -0.4883  0.3780
  178MOL0     O23919   0.960   0.407  10.550 -0.0102 -0.6817 -0.1769
  178MOL0     C23920   0.912   0.319  10.643  0.6262  0.5553 -0.3202
  178MOL0     C23921   0.965   0.324  10.776  0.7013 -0.6759 -0.0073
  178MOL0     C23922   0.908   0.244  10.875 -1.0828 -0.6754 -0.1160
  178MOL0     C23923   0.802   0.153  10.837  1.0008 -0.4826 -0.8764
  178MOL0     C23924   0.763   0.053  10.931  0.4512 -0.2632 -0.6190
  178MOL0     O23925   0.662  -0.029  10.891 -0.1157 -0.5102 -0.1527
  178MOL0     C23926   0.607  -0.130  10.959  0.0085  0.4085 -1.0354
  178MOL0     C23927   0.659  -0.208  11.064  0.4209  0.8110  1.2071
  178MOL0     C23928   0.597  -0.325  11.109 -0.0777 -0.0467  0.0331
  178MOL0     C23929   0.468  -0.351  11.069  0.1204 -0.3221  0.0528
  178MOL0     O23930   0.416  -0.456  11.136  0.1457 -0.7638 -1.3604
  178MOL0     C23931   0.283  -0.452  11.189 -0.8188 -0.4249  0.0792
  178MOL0     C23932   0.204  -0.554  11.113  0.3046  0.4392 -1.0511
  178MOL0     C23933   0.064  -0.577  11.175 -0.8116  0.4856  0.1408
  178MOL0     C23934  -0.020  -0.671  11.094  0.3446 -0.5295  0.6156
  178MOL0     C23935  -0.168  -0.680  11.158 -0.1107  0.0540  0.6135
  178MOL0     C23936  -0.262  -0.678  11.038  0.3286 -1.1420 -0.9968
  178MOL0     C23937  -0.411  -0.711  11.070  1.1466 -0.4503  0.4404
  178MOL0     C23938  -0.455  -0.634  11.198 -0.2114 -1.6457  0.2523
  178MOL0    Cl23939  -0.620  -0.675  11.251  0.0017 -0.3747 -0.2193
  178MOL0     C23940   0.406  -0.269  10.977  0.2147 -0.2272  0.6951
  178MOL0     C23941   0.475  -0.160  10.919  0.7739 -0.2049 -0.3806
  178MOL0     O23942   0.810   0.056  11.049 -0.5911 -0.3734  0.1627
  178MOL0     C23943   0.742   0.155  10.704 -0.2181  0.0565 -0.0117
  178MOL0     C23944   0.800   0.233  10.615  0.1009  0.1097  0.3970
  178MOL0     N23945   0.939   0.675   9.951 -1.0582  0.6539 -0.2664
  178MOL0     N23946   0.916   0.786   9.911  0.1601 -0.3897  0.0957
  178MOL0     C23947   1.363   1.631  10.171  0.1892  0.3151 -0.5880
  178MOL0     C23948   1.397   1.731  10.081 -0.2432 -0.7521  0.4994
  178MOL0     C23949   1.512   2.038   9.844  0.3503  0.0022  0.5596
  178MOL0     C23950   1.622   2.123   9.813  0.3912 -0.3574  0.1971
  178MOL0     C23951   1.641   2.172   9.691 -0.2188 -0.2967  0.7196
  178MOL0     C23952   1.568   2.138   9.576 -0.3389 -0.3718  0.6981
  178MOL0     O23953   1.580   2.201   9.457  0.6760  0.3919  0.9176
  178MOL0     C23954   1.490   2.308   9.433 -0.1946 -0.4347 -0.7751
  178MOL0     C23955   1.530   2.437   9.489 -0.3891  0.2387 -0.0828
  178MOL0     C23956   1.664   2.485   9.422 -0.8773  0.2477  0.8696
  178MOL0     C23957   1.680   2.631   9.480 -0.1586 -0.0963  0.3471
  178MOL0     C23958   1.673   2.651   9.627 -0.3508  0.2855  0.4318
  178MOL0     C23959   1.660   2.664   9.743  0.8098 -0.5323  0.1485
  178MOL0     C23960   1.469   2.041   9.604  0.4420  0.9837  0.6777
  178MOL0     C23961   1.435   1.992   9.730 -1.0458 -0.1454 -0.5688
  178MOL0     C23962   1.316   1.901   9.747  0.7351  0.0696 -0.4271
  178MOL0     H23963   1.244   1.984  10.250  0.6409 -0.7021  0.2272
  178MOL0     H23964   1.168   1.797  10.403 -0.1682  3.0329 -0.1267
  178MOL0     H23965   1.146   1.586  10.533 -0.6705  1.1252  0.7264
  178MOL0     H23966   1.050   1.611  10.385  0.7069  1.3228  1.6419
  178MOL0     H23967   0.991   1.400  10.528  0.2136  2.3405  0.7787
  178MOL0     H23968   1.143   1.331  10.462 -0.8483 -1.1490 -3.6517
  178MOL0     H23969   1.071   1.365  10.235 -0.9478 -1.2795 -0.3736
  178MOL0     H23970   0.923   1.434  10.281  1.7451  0.8996  0.4071
  178MOL0     H23971   1.009   1.155  10.332  1.9457  2.4366  4.0369
  178MOL0     H23972   0.860   1.219  10.401 -0.5966 -4.8073 -0.7544
  178MOL0     H23973   0.771   1.110  10.208  0.0222 -0.0005  0.5765
  178MOL0     H23974   0.794   1.285  10.169 -1.4490 -0.1430  0.6139
  178MOL0     H23975   1.018   1.215  10.049 -1.3142 -0.2988 -1.1266
  178MOL0     H23976   0.992   1.052  10.108  0.9093  0.2200 -0.9830
  178MOL0     H23977   0.937   1.082   9.890 -1.2123 -0.7727 -1.1842
  178MOL0     H23978   0.810   1.196   9.920 -0.2565 -1.5082 -2.4953
  178MOL0     H23979   0.704   0.996  10.066  3.0550 -1.5470  1.5198
  178MOL0     H23980   0.701   0.960   9.898  0.3172  0.8648  0.0769
  178MOL0     H23981   0.803   0.799  10.218 -0.2110  3.9104 -1.7450
  178MOL0     H23982   0.822   0.521  10.220  0.4586 -0.0566  1.0782
  178MOL0     H23983   0.934   0.449  10.096  0.8956 -1.9228  2.3650
  178MOL0     H23984   1.114   0.584  10.209 -3.2523  4.7449 -2.2464
  178MOL0     H23985   1.016   0.616  10.336  1.0021 -0.7461  0.2779
  178MOL0     H23986   1.159   0.407  10.374  1.1942  2.6903 -2.0069
  178MOL0     H23987   1.077   0.330  10.238  0.6723  0.5741  0.2469
  178MOL0     H23988   0.986   0.238  10.435 -0.4827 -0.9797 -1.9534
  178MOL0     H23989   0.860   0.340  10.372 -0.6776  0.1921  1.5595
  178MOL0     H23990   1.036   0.397  10.812  1.5254 -2.0537  1.2731
  178MOL0     H23991   0.944   0.245  10.978 -0.8589  3.7931 -0.0667
  178MOL0     H23992   0.761  -0.179  11.085  1.6137 -2.2955  0.2517
  178MOL0     H23993   0.658  -0.380  11.180  0.5626 -0.1776 -0.6106
  178MOL0     H23994   0.283  -0.478  11.296 -0.0168 -1.3122 -0.1317
  178MOL0     H23995   0.252  -0.347  11.188 -1.4066 -0.5872 -1.3471
  178MOL0     H23996   0.198  -0.535  11.006 -1.3844  1.5926 -0.7838
  178MOL0     H23997   0.251  -0.651  11.130 -1.6282 -0.7948 -2.2984
  178MOL0     H23998   0.076  -0.618  11.276 -0.3996 -1.4602 -0.6551
  178MOL0     H23999   0.018  -0.478  11.189  2.0386  2.0919 -0.9890
  178MOL0     H24000   0.043  -0.759  11.076  0.5224 -0.4400  0.8052
  178MOL0     H24001  -0.034  -0.618  10.999  2.5331  0.1163  0.6027
  178MOL0     H24002  -0.177  -0.592  11.224  3.1974 -0.0973  1.4339
  178MOL0     H24003  -0.169  -0.769  11.221  1.8912 -0.3538  0.1092
  178MOL0     H24004  -0.261  -0.571  11.015 -2.1475  1.3364  7.0272
  178MOL0     H24005  -0.228  -0.744  10.958  2.0977  0.0919 -1.3388
  178MOL0     H24006  -0.444  -0.815  11.079 -2.2389  0.3201 -1.4114
  178MOL0     H24007  -0.478  -0.673  10.992 -1.3056 -0.2368  2.4950
  178MOL0     H24008  -0.387  -0.670  11.275  1.7819  0.2619 -0.5059
  178MOL0     H24009  -0.456  -0.526  11.178  1.5527 -1.9746 -1.9610
  178MOL0     H24010   0.300  -0.284  10.956  0.2949 -2.1073  1.4553
  178MOL0     H24011   0.420  -0.113  10.839  0.7629  0.3851 -0.0316
  178MOL0     H24012   0.663   0.084  10.682 -1.5940  1.2404  0.9324
  178MOL0     H24013   0.764   0.243  10.513 -1.6704 -2.1165  0.7442
  178MOL0     H24014   1.393   1.528  10.154 -0.8895 -0.5334  2.0712
  178MOL0     H24015   1.452   1.716   9.988 -0.0540  1.0523  0.2791
  178MOL0     H24016   1.676   2.156   9.901 -1.0146 -0.0488  0.9716
  178MOL0     H24017   1.718   2.244   9.663 -1.7899  1.2636  0.1758
  178MOL0     H24018   1.390   2.285   9.471 -0.1211 -2.6399 -1.7624
  178MOL0     H24019   1.490   2.317   9.324 -1.3431  1.7339 -0.6639
  178MOL0     H24020   1.555   2.429   9.595  1.6949 -0.2382 -0.5512
  178MOL0     H24021   1.451   2.511   9.473  1.1483  3.2032  4.1237
  178MOL0     H24022   1.649   2.487   9.314  1.0499  0.5967  0.5810
  178MOL0     H24023   1.748   2.425   9.456  0.0640  1.3523  0.5632
  178MOL0     H24024   1.774   2.669   9.440 -0.1299 -0.0682  0.4409
  178MOL0     H24025   1.602   2.693   9.435 -2.0805 -3.6523 -1.7828
  178MOL0     H24026   1.658   2.676   9.849  2.1037  4.1135 -0.1390
  178MOL0     H24027   1.413   2.004   9.519 -0.0137 -0.6237  1.6215
  178MOL0     H24028   1.244   1.950   9.812  1.4706  0.2225  0.2900
  178MOL0     H24029   1.271   1.878   9.650  1.5678 -5.1549  0.1121
  178MOL0     H24030   1.347   1.803   9.785  2.4068  1.0430  0.8840
  179MOL0     O24031   6.636   8.646   5.208  0.5406 -0.5628  0.5548
  179MOL0     C24032   6.737   8.640   5.142  0.3884  0.3563  0.6251
  179MOL0     O24033   6.735   8.658   5.000  0.4734  0.4480 -0.3363
  179MOL0     C24034   6.621   8.711   4.951  0.0923 -0.7637  1.0323
  179MOL0     C24035   6.527   8.621   4.901 -0.0287 -0.0818  0.0485
  179MOL0     C24036   6.403   8.673   4.852  0.6486  0.3972  0.4407
  179MOL0     C24037   6.371   8.809   4.855 -0.0213 -0.2619 -0.1432
  179MOL0     O24038   6.244   8.852   4.829 -0.8470 -0.2707 -0.3848
  179MOL0     C24039   6.192   8.961   4.894  0.1199 -1.7437 -0.3146
  179MOL0     C24040   6.039   8.953   4.905 -0.3223  0.0118 -0.2331
  179MOL0     C24041   5.977   9.011   4.774  0.0986 -0.7379  0.1568
  179MOL0     C24042   5.843   8.954   4.736  0.2736 -0.5062 -0.2467
  179MOL0     C24043   5.727   8.991   4.823  0.1565  0.1871 -0.6310
  179MOL0     C24044   5.594   8.986   4.743 -0.0926  0.2030 -0.3025
  179MOL0     C24045   5.487   9.061   4.826 -0.2537 -0.4838 -0.4744
  179MOL0     C24046   5.352   9.067   4.757 -0.8605  0.3834  0.3315
  179MOL0     N24047   5.349   9.167   4.646 -0.2848  0.9763 -0.0835
  179MOL0     C24048   5.405   9.158   4.526  0.3433  0.5359 -0.9155
  179MOL0     C24049   5.349   9.258   4.450  0.9818  0.2907 -0.3053
  179MOL0     C24050   5.391   9.308   4.308  0.1752  0.6085  0.2874
  179MOL0     C24051   5.284   9.390   4.227 -0.5051 -0.5213 -0.2707
  179MOL0     C24052   5.198   9.310   4.135  0.3139 -0.1187  0.1036
  179MOL0     C24053   5.084   9.386   4.058 -1.3143 -0.1219 -0.1796
  179MOL0     O24054   4.972   9.410   4.149 -0.2778 -0.6845 -0.2011
  179MOL0     C24055   4.858   9.468   4.108 -0.7057  0.1677 -0.5565
  179MOL0     C24056   4.762   9.490   4.215  0.5351 -0.7085  0.3432
  179MOL0     C24057   4.646   9.559   4.174 -0.1312  0.6111 -0.4154
  179MOL0     C24058   4.603   9.588   4.040 -0.5092  0.5743 -0.0195
  179MOL0     C24059   4.483   9.661   4.006 -0.5674 -0.7403 -0.7655
  179MOL0     O24060   4.420   9.727   4.107 -0.0486  0.5255 -0.8268
  179MOL0     C24061   4.318   9.818   4.068 -0.2071 -1.2432  0.5963
  179MOL0     C24062   4.196   9.823   4.142  0.3913 -0.5589  0.4450
  179MOL0     C24063   4.096   9.915   4.108 -0.3466 -0.2727 -0.2455
  179MOL0     C24064   4.112  10.011   3.999  0.8968  0.1578 -1.0006
  179MOL0     O24065   4.033  10.111   3.956  0.1970 -0.3152 -0.6650
  179MOL0     C24066   3.911  10.129   4.029 -0.3718  0.0049  0.2463
  179MOL0     C24067   3.856  10.274   4.017  0.2313  0.6899 -0.9704
  179MOL0     C24068   3.717  10.300   4.079  0.0948 -0.4371 -0.0340
  179MOL0     C24069   3.655  10.406   4.007  0.1608  0.0781 -0.1940
  179MOL0     C24070   3.519  10.455   4.071 -0.2569 -0.4659 -0.2434
  179MOL0     C24071   3.465  10.575   3.994  0.7643 -0.0295 -0.2128
  179MOL0     C24072   3.343  10.629   4.073 -0.3221 -1.0460 -0.1200
  179MOL0     C24073   3.318  10.775   4.030 -0.7516 -0.0566  0.4912
  179MOL0    Cl24074   3.333  10.794   3.848  0.2787  0.5121 -0.4472
  179MOL0     C24075   4.233   9.998   3.930  0.1504 -0.2624  1.3263
  179MOL0     C24076   4.338   9.918   3.964  0.1948 -0.5705  0.0428
  179MOL0     O24077   4.444   9.647   3.887 -0.5146 -0.6017 -0.4642
  179MOL0     C24078   4.697   9.554   3.944 -0.7263  0.6880  0.1903
  179MOL0     C24079   4.823   9.494   3.973  0.1312 -0.2209 -0.3949
  179MOL0     N24080   5.232   9.300   4.518  0.3141  0.2910 -0.4409
  179MOL0     N24081   5.244   9.254   4.636 -0.1533 -0.4448 -0.8294
  179MOL0     C24082   6.481   8.897   4.887  1.2724  0.2329 -0.0988
  179MOL0     C24083   6.601   8.848   4.946 -0.0078 -0.3540  0.6378
  179MOL0     C24084   6.864   8.625   5.210 -0.0404 -0.1406 -0.0244
  179MOL0     C24085   6.965   8.561   5.136 -0.0340 -0.4321  0.4399
  179MOL0     C24086   7.094   8.555   5.178 -0.6417 -0.5906 -0.5014
  179MOL0     C24087   7.119   8.586   5.313 -0.1653 -0.5497  0.3495
  179MOL0     O24088   7.245   8.546   5.345  0.0021 -0.2374  0.0799
  179MOL0     C24089   7.287   8.586   5.473 -0.5517  0.1565 -0.6438
  179MOL0     C24090   7.420   8.510   5.502  0.2792 -0.0169  0.5043
  179MOL0     C24091   7.435   8.492   5.649  0.2001  1.1718  0.6845
  179MOL0     C24092   7.580   8.430   5.675  0.4446  0.1901  0.7403
  179MOL0     C24093   7.575   8.395   5.819  0.3394 -0.3814 -0.1114
  179MOL0     C24094   7.583   8.355   5.934 -0.3547 -0.5488 -0.2556
  179MOL0     C24095   7.018   8.646   5.391 -0.0173 -0.6153 -0.0476
  179MOL0     C24096   6.894   8.682   5.339 -0.4514 -0.4679  0.2304
  179MOL0     C24097   6.798   8.765   5.417 -0.2497  0.8917 -0.0044
  179MOL0     H24098   6.555   8.516   4.906  1.0422  0.2454  1.6584
  179MOL0     H24099   6.326   8.610   4.810 -1.0455  0.8728  2.6731
  179MOL0     H24100   6.234   8.978   4.994  3.5945  0.4137 -1.9674
  179MOL0     H24101   6.210   9.056   4.845 -2.7403 -1.6947 -1.4552
  179MOL0     H24102   6.000   9.019   4.983 -1.1600  0.0351 -0.6636
  179MOL0     H24103   6.006   8.853   4.933 -0.7604  0.6023  1.4622
  179MOL0     H24104   6.051   9.015   4.694 -0.3004 -0.8817 -0.2207
  179MOL0     H24105   5.955   9.115   4.801  4.5610  0.9351 -1.7091
  179MOL0     H24106   5.816   8.990   4.636 -0.2615 -0.6218 -0.1443
  179MOL0     H24107   5.854   8.845   4.734 -0.5407 -0.6397  1.2705
  179MOL0     H24108   5.717   8.920   4.906  3.9580 -0.1587 -0.2872
  179MOL0     H24109   5.750   9.093   4.855  2.8502 -0.1793 -1.1844
  179MOL0     H24110   5.613   9.021   4.641  0.9810  0.5195 -0.0105
  179MOL0     H24111   5.559   8.882   4.742 -0.0564  0.1074  2.0342
  179MOL0     H24112   5.520   9.165   4.817 -0.5449 -0.2824  0.6505
  179MOL0     H24113   5.476   9.028   4.930 -1.6413  1.3292  0.0107
  179MOL0     H24114   5.334   8.967   4.715 -1.2218 -0.6825  2.8509
  179MOL0     H24115   5.272   9.091   4.828 -1.1093 -0.2023  0.2585
  179MOL0     H24116   5.490   9.095   4.498 -0.8421 -1.2036 -0.7908
  179MOL0     H24117   5.476   9.372   4.329  1.3396 -0.4940 -0.8871
  179MOL0     H24118   5.420   9.216   4.256 -1.9308  0.0484 -0.0141
  179MOL0     H24119   5.228   9.450   4.300 -1.2057  0.1721 -1.3367
  179MOL0     H24120   5.343   9.465   4.172 -1.8031 -0.0598 -1.0695
  179MOL0     H24121   5.140   9.240   4.196 -1.3585  1.2415  0.1527
  179MOL0     H24122   5.266   9.278   4.055 -0.4244 -0.8140 -0.2668
  179MOL0     H24123   5.044   9.327   3.975  1.1735 -3.3026  0.6785
  179MOL0     H24124   5.128   9.474   4.011 -0.5040 -1.0689 -1.2288
  179MOL0     H24125   4.788   9.462   4.316  0.9043 -1.9084 -0.0683
  179MOL0     H24126   4.567   9.575   4.247  0.3854 -3.7333  1.4188
  179MOL0     H24127   4.198   9.755   4.227 -0.4526 -1.4990 -0.2600
  179MOL0     H24128   4.012   9.921   4.177  0.1972  1.2414  0.3104
  179MOL0     H24129   3.852  10.047   3.988  1.6829 -0.0853 -2.8689
  179MOL0     H24130   3.922  10.110   4.136  0.5364 -3.9371 -0.3979
  179MOL0     H24131   3.920  10.348   4.066  0.1036 -0.0947  0.4389
  179MOL0     H24132   3.872  10.293   3.911  0.9526 -1.2848 -1.2473
  179MOL0     H24133   3.655  10.211   4.070 -0.7853  0.2296 -0.8279
  179MOL0     H24134   3.736  10.317   4.185 -2.5742  1.1034  0.3064
  179MOL0     H24135   3.622  10.356   3.915 -1.4661  1.0864 -0.1964
  179MOL0     H24136   3.721  10.491   3.988 -1.1649  0.4151 -4.3467
  179MOL0     H24137   3.530  10.459   4.180 -0.1632  2.2035 -0.2986
  179MOL0     H24138   3.450  10.370   4.062  0.7015 -1.1729 -1.2228
  179MOL0     H24139   3.551  10.643   4.002  0.6600  0.0633  0.1320
  179MOL0     H24140   3.428  10.541   3.897  0.0657  2.7694 -1.0165
  179MOL0     H24141   3.363  10.617   4.180  0.2854 -0.4800 -0.1670
  179MOL0     H24142   3.262  10.561   4.047  0.2990 -1.1973 -1.7284
  179MOL0     H24143   3.228  10.809   4.081 -0.1970 -1.5515  2.6182
  179MOL0     H24144   3.397  10.843   4.062 -1.6660  2.0523 -1.4832
  179MOL0     H24145   4.254  10.077   3.858  0.6835 -2.2618 -0.8289
  179MOL0     H24146   4.436   9.925   3.918  0.5040  2.3523  0.9424
  179MOL0     H24147   4.678   9.584   3.842 -0.4716 -1.5375 -0.5412
  179MOL0     H24148   4.876   9.461   3.885  1.1089  1.2154 -0.3909
  179MOL0     H24149   6.463   9.004   4.876  1.5535  0.1221 -1.8769
  179MOL0     H24150   6.672   8.919   4.987 -0.2812  0.5547 -0.4278
  179MOL0     H24151   6.936   8.531   5.035 -0.8436 -4.9386  1.7799
  179MOL0     H24152   7.184   8.519   5.129  0.1602  1.9939 -1.0732
  179MOL0     H24153   7.223   8.557   5.557 -1.6824  3.2076 -0.3296
  179MOL0     H24154   7.313   8.692   5.477  0.3976 -0.0476 -1.1163
  179MOL0     H24155   7.500   8.572   5.460 -2.5241  1.9695 -2.3725
  179MOL0     H24156   7.435   8.419   5.442  2.6012  2.1856 -2.5778
  179MOL0     H24157   7.368   8.416   5.691  0.6173 -0.6192 -1.6200
  179MOL0     H24158   7.426   8.587   5.701 -1.6160  0.9029  0.9189
  179MOL0     H24159   7.588   8.343   5.611 -1.4870  0.0443  0.6430
  179MOL0     H24160   7.657   8.506   5.660  0.9043 -0.1341  1.3941
  179MOL0     H24161   7.600   8.317   6.033  0.6791 -0.8371 -0.5367
  179MOL0     H24162   7.053   8.670   5.491  0.2081 -0.8142 -0.0771
  179MOL0     H24163   6.846   8.837   5.484 -2.1105  1.2670  1.0084
  179MOL0     H24164   6.723   8.821   5.361  0.9707  2.9605  0.3135
  179MOL0     H24165   6.753   8.689   5.482  1.7813  0.0930  0.5442
  180MOL0     O24166   2.065   0.564   7.048  0.6140 -0.2320 -0.0146
  180MOL0     C24167   2.010   0.661   7.105  0.9407 -0.0471  0.2437
  180MOL0     O24168   2.065   0.737   7.207  0.2593  0.0388 -0.1387
  180MOL0     C24169   2.193   0.700   7.244  0.9862  0.0563  0.5501
  180MOL0     C24170   2.210   0.646   7.370 -0.3032 -0.5033 -0.0299
  180MOL0     C24171   2.334   0.598   7.414  0.0642  0.5199 -0.8028
  180MOL0     C24172   2.440   0.602   7.335 -0.1822  0.0754 -0.6321
  180MOL0     O24173   2.565   0.546   7.380  0.1438 -0.4153 -0.0995
  180MOL0     C24174   2.681   0.622   7.340 -0.5854  0.0488  0.6225
  180MOL0     C24175   2.812   0.541   7.348  1.0350 -0.2582  0.8347
  180MOL0     C24176   2.841   0.460   7.479 -0.4050 -1.3463  0.3225
  180MOL0     C24177   2.970   0.382   7.480 -0.0926 -0.2567  0.2595
  180MOL0     C24178   3.005   0.341   7.621  0.0067  0.1183  0.1880
  180MOL0     C24179   3.100   0.218   7.638  0.2640  0.0422  0.8759
  180MOL0     C24180   3.144   0.206   7.778  0.9539 -0.2035  0.2317
  180MOL0     C24181   3.228   0.086   7.794 -0.4868  0.0772 -0.4294
  180MOL0     N24182   3.360   0.090   7.735 -0.1164  0.5957 -0.0393
  180MOL0     C24183   3.394   0.037   7.612 -0.3027 -0.0938  0.6839
  180MOL0     C24184   3.529   0.048   7.605  1.3363 -0.1728  0.2743
  180MOL0     C24185   3.602   0.020   7.483  0.1435  0.2764 -0.0322
  180MOL0     C24186   3.708  -0.087   7.505 -0.7052 -0.0485 -0.9265
  180MOL0     C24187   3.823  -0.094   7.410 -0.0342 -0.0635  1.3085
  180MOL0     C24188   3.950  -0.145   7.475  0.3365  1.1662 -0.5414
  180MOL0     O24189   4.062  -0.144   7.385 -0.3480 -0.2330 -0.1081
  180MOL0     C24190   4.174  -0.198   7.440  0.0370 -0.5640 -1.0753
  180MOL0     C24191   4.197  -0.339   7.447  0.6150 -1.0172 -0.6414
  180MOL0     C24192   4.308  -0.399   7.508  0.8535  0.6818  0.0092
  180MOL0     C24193   4.394  -0.323   7.580  0.4802  0.7055  0.4045
  180MOL0     C24194   4.512  -0.370   7.651  0.3705  0.4221  0.0603
  180MOL0     O24195   4.538  -0.506   7.639  0.3840  0.1301  0.1856
  180MOL0     C24196   4.653  -0.561   7.688 -0.0275 -0.0539 -1.5547
  180MOL0     C24197   4.655  -0.697   7.704 -0.0055 -0.5766  0.2741
  180MOL0     C24198   4.771  -0.766   7.755 -0.3088  0.6853  0.6263
  180MOL0     C24199   4.886  -0.696   7.775  0.2629 -1.1298  0.5928
  180MOL0     O24200   5.007  -0.762   7.797  0.4240  0.3208 -0.1420
  180MOL0     C24201   5.121  -0.680   7.832  0.0623 -0.0257  0.1227
  180MOL0     C24202   5.232  -0.769   7.887  0.0240 -0.0600  0.0426
  180MOL0     C24203   5.198  -0.846   8.017  0.4895  0.1459 -0.2808
  180MOL0     C24204   5.304  -0.936   8.055  0.3203  0.3414  0.5650
  180MOL0     C24205   5.244  -1.027   8.167  1.1182 -1.0955 -0.2718
  180MOL0     C24206   5.351  -1.125   8.210 -0.5369 -0.1545 -0.4540
  180MOL0     C24207   5.384  -1.232   8.097 -0.3358 -0.2043  0.1538
  180MOL0     C24208   5.427  -1.362   8.168 -0.4156 -0.2838 -0.1708
  180MOL0    Cl24209   5.447  -1.512   8.058 -0.1085 -0.3179 -0.0725
  180MOL0     C24210   4.894  -0.562   7.746 -0.0556 -0.1032  0.0718
  180MOL0     C24211   4.782  -0.498   7.706  0.2477 -0.4958 -0.3398
  180MOL0     O24212   4.572  -0.289   7.723  0.0748  0.2616  0.5822
  180MOL0     C24213   4.371  -0.181   7.574  0.3738  0.3407 -0.5831
  180MOL0     C24214   4.275  -0.124   7.494  0.6246  0.1467 -0.0018
  180MOL0     N24215   3.572   0.093   7.729  0.5246 -0.0043 -0.1324
  180MOL0     N24216   3.472   0.111   7.810 -0.3999 -1.0932 -0.8137
  180MOL0     C24217   2.424   0.654   7.202  0.1649 -0.4619  0.6902
  180MOL0     C24218   2.301   0.715   7.165  0.1150 -0.6366  0.1546
  180MOL0     C24219   1.862   0.689   7.084 -0.3381  0.2632 -0.6950
  180MOL0     C24220   1.795   0.783   7.167 -0.3694  0.5546 -0.3403
  180MOL0     C24221   1.654   0.799   7.171  0.2109 -0.6049  0.2533
  180MOL0     C24222   1.573   0.739   7.073 -0.4956 -0.0131 -0.1883
  180MOL0     O24223   1.436   0.755   7.057  0.2368  0.1291 -0.0168
  180MOL0     C24224   1.372   0.846   7.143 -0.3395 -0.1037  0.2431
  180MOL0     C24225   1.252   0.915   7.071  1.1147  0.4481  0.1729
  180MOL0     C24226   1.136   0.823   7.048 -0.3309 -0.4066 -0.2708
  180MOL0     C24227   1.036   0.846   7.157 -0.8699 -0.2592  0.4536
  180MOL0     C24228   0.930   0.742   7.163 -0.0432 -0.8428  1.3632
  180MOL0     C24229   0.869   0.642   7.182  0.1424  0.9516 -0.7796
  180MOL0     C24230   1.635   0.647   6.991  0.2906  0.4498  0.2197
  180MOL0     C24231   1.775   0.623   6.989 -0.0393 -1.2092 -0.8442
  180MOL0     C24232   1.825   0.537   6.878 -0.2363  0.3747  0.3490
  180MOL0     H24233   2.122   0.623   7.430 -0.4720 -2.1476 -0.8545
  180MOL0     H24234   2.357   0.554   7.510  3.8567  3.8623  0.0506
  180MOL0     H24235   2.678   0.657   7.237 -0.0848  1.3490  1.0283
  180MOL0     H24236   2.699   0.714   7.397 -1.0979 -1.1324  2.8084
  180MOL0     H24237   2.900   0.604   7.331  2.4021 -2.3616 -0.2538
  180MOL0     H24238   2.813   0.470   7.265  1.4089 -0.5242  1.0664
  180MOL0     H24239   2.757   0.392   7.494  0.0527 -2.1232 -0.4952
  180MOL0     H24240   2.850   0.534   7.559  3.3320 -0.3196 -0.8016
  180MOL0     H24241   2.959   0.292   7.419  0.6468  0.6333 -1.2451
  180MOL0     H24242   3.058   0.437   7.445 -0.4935  0.3547  0.1955
  180MOL0     H24243   3.047   0.416   7.688  2.3665 -2.9614  2.4634
  180MOL0     H24244   2.911   0.311   7.668 -1.3685  1.3530 -1.6135
  180MOL0     H24245   3.048   0.130   7.600 -1.6870  2.3732 -2.3181
  180MOL0     H24246   3.190   0.223   7.576  1.5763  0.0383  2.6829
  180MOL0     H24247   3.062   0.215   7.850  2.5749 -0.8582  2.2601
  180MOL0     H24248   3.211   0.284   7.816 -0.8703  2.2597 -1.2884
  180MOL0     H24249   3.246   0.085   7.902 -0.6776 -0.1627 -0.3975
  180MOL0     H24250   3.181  -0.008   7.762  1.4923 -0.8987 -0.6439
  180MOL0     H24251   3.334  -0.003   7.530  2.6068  2.6770 -3.1937
  180MOL0     H24252   3.530  -0.014   7.409 -1.5470  1.2620  1.1058
  180MOL0     H24253   3.642   0.117   7.452  1.0534  0.0675  0.4374
  180MOL0     H24254   3.751  -0.082   7.606 -0.8662  0.3082 -0.8748
  180MOL0     H24255   3.662  -0.186   7.492 -0.1523  0.0394 -4.2546
  180MOL0     H24256   3.845   0.010   7.383 -2.1007  1.0086  3.3769
  180MOL0     H24257   3.802  -0.160   7.325  0.4874 -0.9405  1.8468
  180MOL0     H24258   3.939  -0.252   7.495 -1.0740  1.1799 -1.1144
  180MOL0     H24259   3.977  -0.091   7.566  1.1250 -0.7900  0.4611
  180MOL0     H24260   4.117  -0.400   7.404  1.3533 -2.2241 -0.3652
  180MOL0     H24261   4.332  -0.504   7.500  1.0395  0.6300  1.0859
  180MOL0     H24262   4.564  -0.755   7.691  0.1099 -1.0565  1.4853
  180MOL0     H24263   4.767  -0.870   7.785  2.2001  0.0446 -0.9323
  180MOL0     H24264   5.153  -0.623   7.744 -3.6598  2.4070  0.1280
  180MOL0     H24265   5.101  -0.604   7.908  0.3029  1.0823 -0.8948
  180MOL0     H24266   5.270  -0.833   7.806  2.6175 -0.3278  1.3599
  180MOL0     H24267   5.317  -0.705   7.911 -0.2854  0.7287 -0.8666
  180MOL0     H24268   5.172  -0.779   8.099  1.5728 -0.6390  0.7296
  180MOL0     H24269   5.107  -0.903   7.993  0.7051 -0.4985  0.4007
  180MOL0     H24270   5.393  -0.887   8.096  0.9316 -1.2750  1.2730
  180MOL0     H24271   5.342  -0.999   7.974 -0.2670  0.9182 -0.1756
  180MOL0     H24272   5.147  -1.067   8.137 -0.2066  1.7537 -0.1414
  180MOL0     H24273   5.219  -0.959   8.250 -0.6095 -1.2992 -0.5964
  180MOL0     H24274   5.446  -1.080   8.239 -0.2968  1.4587 -3.3183
  180MOL0     H24275   5.314  -1.177   8.299  1.6032 -0.3158  0.3985
  180MOL0     H24276   5.456  -1.184   8.031 -1.1517  1.2808  0.2786
  180MOL0     H24277   5.290  -1.242   8.041  0.5100  0.0119 -1.3660
  180MOL0     H24278   5.517  -1.361   8.230 -0.7809 -1.3679  0.4221
  180MOL0     H24279   5.342  -1.380   8.235 -1.1025 -0.2556 -1.0258
  180MOL0     H24280   4.982  -0.498   7.753  0.2175 -0.4995  0.3248
  180MOL0     H24281   4.791  -0.394   7.680  2.9134 -0.1167  1.6889
  180MOL0     H24282   4.440  -0.104   7.606  4.7829 -2.3131 -2.6824
  180MOL0     H24283   4.277  -0.015   7.493  0.2151  0.1729  1.0492
  180MOL0     H24284   2.510   0.650   7.137  1.7502 -0.1108  2.6813
  180MOL0     H24285   2.277   0.757   7.068 -0.9925 -1.6544 -0.0281
  180MOL0     H24286   1.842   0.829   7.254 -3.7281  2.4757  0.6533
  180MOL0     H24287   1.614   0.868   7.244  0.2301  0.3360 -0.6154
  180MOL0     H24288   1.434   0.932   7.166 -0.1309 -0.1622 -0.0860
  180MOL0     H24289   1.335   0.804   7.237  0.8315  0.4412  0.9676
  180MOL0     H24290   1.275   0.959   6.974  0.5593  2.6457  0.9744
  180MOL0     H24291   1.228   1.003   7.132  1.5806  1.0971 -0.5718
  180MOL0     H24292   1.160   0.716   7.041 -2.2630 -0.8948  0.1631
  180MOL0     H24293   1.092   0.846   6.950 -0.6616 -2.3777 -0.6257
  180MOL0     H24294   1.087   0.848   7.254  1.2488 -1.0876 -0.5720
  180MOL0     H24295   0.980   0.938   7.137  0.1927  0.4914  0.7975
  180MOL0     H24296   0.830   0.544   7.199 -1.2149  1.9246  2.4008
  180MOL0     H24297   1.567   0.605   6.918 -0.4425 -3.6201  2.9073
  180MOL0     H24298   1.797   0.432   6.891 -0.5895  0.7004  2.6820
  180MOL0     H24299   1.777   0.568   6.785  2.6462 -0.9457 -1.7380
  180MOL0     H24300   1.926   0.547   6.839 -0.5371 -1.7582 -1.1486
  181MOL0     O24301   4.724   3.799   4.071  0.6144  0.1537 -0.3224
  181MOL0     C24302   4.811   3.798   4.155 -0.1621 -0.4004  0.5079
  181MOL0     O24303   4.796   3.762   4.285  0.2831 -0.2802 -0.0639
  181MOL0     C24304   4.676   3.734   4.338 -0.4951  0.0560 -0.7230
  181MOL0     C24305   4.669   3.620   4.405  0.3434  0.4738 -0.2956
  181MOL0     C24306   4.554   3.592   4.475 -0.0039 -0.0765  0.0705
  181MOL0     C24307   4.443   3.669   4.483  0.3860  0.7292 -0.3602
  181MOL0     O24308   4.342   3.621   4.561 -0.7345  0.8652 -0.7001
  181MOL0     C24309   4.253   3.529   4.489  0.0727 -0.6338 -0.3675
  181MOL0     C24310   4.118   3.529   4.566  0.6062  0.7028  0.5465
  181MOL0     C24311   4.126   3.414   4.676 -0.1105 -0.2822  0.8002
  181MOL0     C24312   3.994   3.393   4.757 -1.3652  0.0166  0.2320
  181MOL0     C24313   3.980   3.242   4.801  0.3266 -0.3993 -0.3301
  181MOL0     C24314   3.915   3.154   4.687 -0.2993 -0.2085  0.1075
  181MOL0     C24315   3.858   3.021   4.746 -1.6073 -0.1275 -0.3251
  181MOL0     C24316   3.975   2.929   4.803 -0.3265  0.0376  0.4788
  181MOL0     N24317   4.073   2.863   4.701  0.4598  0.4738  0.3640
  181MOL0     C24318   4.209   2.891   4.685  0.8779  1.1252 -0.4359
  181MOL0     C24319   4.254   2.780   4.616 -0.0529 -0.3106  0.7218
  181MOL0     C24320   4.395   2.754   4.581 -0.4481  0.7536  0.1182
  181MOL0     C24321   4.432   2.815   4.446 -1.1497  0.0555  0.7882
  181MOL0     C24322   4.570   2.777   4.397 -0.2154  0.3282 -0.3038
  181MOL0     C24323   4.675   2.884   4.441  0.4055 -0.0585  0.7126
  181MOL0     O24324   4.795   2.843   4.388  1.0162  0.2871  0.1470
  181MOL0     C24325   4.892   2.932   4.390  0.0330  0.0748  0.0176
  181MOL0     C24326   4.998   2.911   4.296  0.4859  0.0390 -0.3526
  181MOL0     C24327   5.119   2.996   4.300  1.2226 -0.0609  0.0579
  181MOL0     C24328   5.125   3.095   4.401  0.2449  0.5679 -0.4806
  181MOL0     C24329   5.250   3.169   4.426 -1.0630  0.9509 -1.1781
  181MOL0     O24330   5.321   3.218   4.325 -0.3014 -0.2998  0.1251
  181MOL0     C24331   5.439   3.291   4.341 -0.1264  0.5839  0.5231
  181MOL0     C24332   5.476   3.371   4.446  0.5733  0.0780  0.1994
  181MOL0     C24333   5.602   3.437   4.441  0.4682 -0.0771  0.4594
  181MOL0     C24334   5.682   3.447   4.327  1.0814 -0.4608 -0.9509
  181MOL0     O24335   5.782   3.544   4.342  0.6061 -0.1633 -0.5323
  181MOL0     C24336   5.871   3.553   4.234 -0.6826  0.8184  0.0402
  181MOL0     C24337   5.958   3.680   4.263 -0.0342 -0.1971 -0.2049
  181MOL0     C24338   5.872   3.803   4.216  0.3549  0.1735 -0.1953
  181MOL0     C24339   5.870   3.809   4.065  0.1784 -0.1956  0.0381
  181MOL0     C24340   5.804   3.934   3.999  0.2494 -0.1887 -0.4766
  181MOL0     C24341   5.777   3.923   3.844 -0.8815 -1.0444 -0.1228
  181MOL0     C24342   5.685   4.039   3.793 -0.0454 -0.0291 -0.0028
  181MOL0     C24343   5.617   4.007   3.666  0.1120  1.6266 -0.7509
  181MOL0    Cl24344   5.509   4.143   3.639  0.3586 -0.0008 -0.0548
  181MOL0     C24345   5.648   3.358   4.223  0.6374  0.3790  0.0806
  181MOL0     C24346   5.529   3.285   4.228 -0.1293 -0.1161  0.1845
  181MOL0     O24347   5.291   3.166   4.539  0.7599 -0.3779 -0.0631
  181MOL0     C24348   5.016   3.108   4.488 -0.6314 -0.3066 -0.1640
  181MOL0     C24349   4.902   3.028   4.482 -0.0175  0.0641  0.0842
  181MOL0     N24350   4.149   2.704   4.568  0.2226 -0.7473 -0.5792
  181MOL0     N24351   4.050   2.749   4.630 -0.5543 -0.8180  0.4746
  181MOL0     C24352   4.438   3.787   4.408 -0.2362  0.0518 -0.6592
  181MOL0     C24353   4.563   3.816   4.340 -0.0282  0.5449  0.1122
  181MOL0     C24354   4.935   3.873   4.126  0.7064  0.7269 -0.7958
  181MOL0     C24355   4.987   3.952   4.226  0.9219  0.0155 -0.1713
  181MOL0     C24356   5.104   4.033   4.209  0.4282  0.4550  0.2829
  181MOL0     C24357   5.160   4.035   4.087  0.5513  0.4876 -0.4926
  181MOL0     O24358   5.262   4.124   4.070 -0.0554 -0.2947  0.2098
  181MOL0     C24359   5.302   4.155   3.936 -0.1205 -0.0944 -0.2922
  181MOL0     C24360   5.196   4.232   3.847  0.4039  0.1537 -0.0206
  181MOL0     C24361   5.163   4.353   3.918  0.2613  0.1709  0.5173
  181MOL0     C24362   5.085   4.459   3.840 -0.4756  0.6164  0.5969
  181MOL0     C24363   5.126   4.589   3.894  0.7618  0.0750  0.1662
  181MOL0     C24364   5.189   4.683   3.936 -0.2789 -0.7616 -0.1085
  181MOL0     C24365   5.103   3.957   3.979 -0.0398 -0.6630 -0.9060
  181MOL0     C24366   4.988   3.875   3.998  1.0233 -0.7481  0.4336
  181MOL0     C24367   4.932   3.790   3.873 -0.0275 -0.6862 -0.3315
  181MOL0     H24368   4.761   3.563   4.405  1.1293  1.6191  1.9287
  181MOL0     H24369   4.563   3.508   4.543 -2.7044  1.7616  3.0031
  181MOL0     H24370   4.222   3.575   4.394 -1.2002  4.7932  2.2722
  181MOL0     H24371   4.296   3.430   4.475 -1.3335 -1.5080  1.1552
  181MOL0     H24372   4.028   3.527   4.504  1.1895  1.1734 -0.3374
  181MOL0     H24373   4.101   3.622   4.620 -0.9763 -0.2935  1.8257
  181MOL0     H24374   4.202   3.433   4.752  1.4050 -0.6768 -0.5526
  181MOL0     H24375   4.162   3.323   4.626 -0.4489 -0.0405  0.1024
  181MOL0     H24376   3.996   3.461   4.843  0.6387  1.4887 -0.9054
  181MOL0     H24377   3.901   3.417   4.705 -2.6510 -2.0125  1.4436
  181MOL0     H24378   4.064   3.190   4.849 -1.5183 -3.1900  0.1083
  181MOL0     H24379   3.903   3.236   4.878 -1.6321  1.7064 -1.9822
  181MOL0     H24380   3.834   3.205   4.634 -0.4324 -1.1364 -0.6032
  181MOL0     H24381   3.995   3.141   4.614 -3.0402  1.7350 -3.5915
  181MOL0     H24382   3.812   2.970   4.661  0.0182 -3.7607  0.7572
  181MOL0     H24383   3.781   3.046   4.819 -1.0280 -0.2821  0.3546
  181MOL0     H24384   4.035   2.985   4.875 -0.4144  0.4841  0.2087
  181MOL0     H24385   3.930   2.847   4.860 -0.0109 -1.1177 -0.8601
  181MOL0     H24386   4.275   2.959   4.737  3.2704  0.6710 -2.6802
  181MOL0     H24387   4.460   2.798   4.657  1.0270  1.9349 -1.7427
  181MOL0     H24388   4.422   2.648   4.574  1.3335  1.2351 -1.0509
  181MOL0     H24389   4.373   2.784   4.360  2.1821  2.6549 -2.7787
  181MOL0     H24390   4.427   2.924   4.456  1.5628  0.2806  0.3139
  181MOL0     H24391   4.579   2.761   4.289  2.9232  0.5438 -0.1709
  181MOL0     H24392   4.606   2.681   4.435 -1.6274  0.1918  0.7360
  181MOL0     H24393   4.685   2.883   4.550 -0.3387 -3.5931  0.8836
  181MOL0     H24394   4.633   2.980   4.409 -2.5617 -1.3566  0.4047
  181MOL0     H24395   4.995   2.826   4.228  2.0398 -0.5195  0.2218
  181MOL0     H24396   5.208   2.976   4.240  2.4219 -0.3596  1.8756
  181MOL0     H24397   5.418   3.393   4.535 -0.3805  3.1239 -1.0649
  181MOL0     H24398   5.618   3.501   4.527 -2.3143  3.3312 -1.2979
  181MOL0     H24399   5.923   3.457   4.235  0.9124  1.6459  1.4514
  181MOL0     H24400   5.812   3.563   4.143 -1.4309  2.5249  0.6627
  181MOL0     H24401   5.975   3.687   4.371  1.2365  0.0000 -0.4059
  181MOL0     H24402   6.058   3.679   4.219  0.8925  1.3558  1.6899
  181MOL0     H24403   5.768   3.804   4.249  0.2907 -2.1331 -0.1709
  181MOL0     H24404   5.913   3.893   4.264  0.8247  0.1449 -0.5328
  181MOL0     H24405   5.817   3.718   4.035  1.1949 -1.4441  1.7737
  181MOL0     H24406   5.972   3.810   4.026  0.0769  1.9672 -0.2748
  181MOL0     H24407   5.862   4.021   4.030  0.1810  0.0579 -1.0380
  181MOL0     H24408   5.705   3.938   4.045 -1.3400 -0.3843 -3.6369
  181MOL0     H24409   5.880   3.933   3.808 -0.4950  1.0126  1.3761
  181MOL0     H24410   5.727   3.831   3.812 -0.6514 -0.4884 -2.2201
  181MOL0     H24411   5.740   4.133   3.777 -1.4833  0.8696  0.2016
  181MOL0     H24412   5.609   4.060   3.869  0.5011 -1.1858  0.8826
  181MOL0     H24413   5.686   3.988   3.584  0.1649 -0.3660 -0.2832
  181MOL0     H24414   5.562   3.914   3.681  1.2843  1.2408  1.7881
  181MOL0     H24415   5.716   3.337   4.141 -0.2171 -1.8540 -0.1246
  181MOL0     H24416   5.514   3.221   4.142  1.4993 -0.0010 -0.2271
  181MOL0     H24417   5.012   3.192   4.557 -0.0714 -1.3953  1.2360
  181MOL0     H24418   4.828   3.039   4.560  0.5220  2.8845  0.3066
  181MOL0     H24419   4.351   3.851   4.420 -1.6231 -2.0508  1.1754
  181MOL0     H24420   4.564   3.907   4.280 -0.6722 -0.3986 -1.3693
  181MOL0     H24421   4.929   3.956   4.318 -1.2138 -0.7051 -1.3963
  181MOL0     H24422   5.143   4.100   4.285 -0.8459 -1.6528  2.9825
  181MOL0     H24423   5.328   4.069   3.874  1.5405 -1.1406  1.7100
  181MOL0     H24424   5.399   4.206   3.934 -0.4741  0.8619  2.3825
  181MOL0     H24425   5.100   4.180   3.844  0.2720  0.4333 -0.9068
  181MOL0     H24426   5.237   4.234   3.746 -0.4227 -2.9251 -0.5319
  181MOL0     H24427   5.255   4.396   3.961 -0.6982 -1.0501  4.1368
  181MOL0     H24428   5.100   4.327   4.003 -0.3567  1.3200  0.4344
  181MOL0     H24429   5.113   4.453   3.734  2.2755 -2.1630  1.3191
  181MOL0     H24430   4.979   4.435   3.842 -0.5272  0.5236 -1.1326
  181MOL0     H24431   5.247   4.772   3.949  0.9700 -1.1487 -2.4831
  181MOL0     H24432   5.156   3.952   3.885  0.8501 -2.1225 -0.3622
  181MOL0     H24433   5.025   3.783   3.815  1.3986 -0.7573  1.8762
  181MOL0     H24434   4.892   3.690   3.896  0.3673 -0.5793  0.8600
  181MOL0     H24435   4.856   3.842   3.814  0.8033 -0.2148 -1.0066
  182MOL0     O24436   9.180  11.386   5.810 -0.4655 -0.6583 -0.2254
  182MOL0     C24437   9.136  11.350   5.704  0.3652  0.5317 -0.2162
  182MOL0     O24438   9.192  11.381   5.582  0.5029  0.4718  0.6574
  182MOL0     C24439   9.308  11.464   5.579 -0.1753  0.8803 -0.6890
  182MOL0     C24440   9.313  11.577   5.508 -0.3520 -0.4280 -0.2248
  182MOL0     C24441   9.430  11.662   5.521  0.9619  0.3159 -0.8413
  182MOL0     C24442   9.543  11.624   5.597 -1.0456  0.1853  0.0075
  182MOL0     O24443   9.650  11.707   5.626 -1.0074  0.0812  0.4770
  182MOL0     C24444   9.660  11.818   5.538 -0.2454 -0.6118 -0.2866
  182MOL0     C24445   9.779  11.907   5.578  0.5694 -0.0661 -0.1667
  182MOL0     C24446   9.911  11.833   5.542  0.1259  0.2188  0.5674
  182MOL0     C24447  10.036  11.896   5.607  0.7830  1.1072 -0.6880
  182MOL0     C24448  10.167  11.811   5.597  0.8273 -0.8073 -1.2792
  182MOL0     C24449  10.288  11.881   5.652  0.0467 -0.6800 -0.3087
  182MOL0     C24450  10.423  11.802   5.634  1.0843  0.2700 -0.8347
  182MOL0     C24451  10.529  11.858   5.730  0.5041  0.4528 -0.4323
  182MOL0     N24452  10.656  11.789   5.712 -0.0975  0.8024 -0.3286
  182MOL0     C24453  10.692  11.730   5.593  0.4111 -0.4147  0.7393
  182MOL0     C24454  10.827  11.719   5.591 -0.6885  0.2405  0.5605
  182MOL0     C24455  10.900  11.654   5.475 -0.1282 -0.5112  0.3027
  182MOL0     C24456  11.036  11.607   5.507 -0.7722  0.3967 -0.1090
  182MOL0     C24457  11.112  11.582   5.378  0.2145  0.1132  0.5219
  182MOL0     C24458  11.252  11.521   5.424  0.3078 -0.8261  0.2316
  182MOL0     O24459  11.337  11.484   5.311  0.0785 -0.0043  0.2364
  182MOL0     C24460  11.460  11.441   5.335 -0.1991  0.1249 -0.2842
  182MOL0     C24461  11.533  11.443   5.458  0.3728 -0.0801 -0.4722
  182MOL0     C24462  11.658  11.387   5.467  0.7293  0.0419 -0.2290
  182MOL0     C24463  11.718  11.346   5.340  0.3101 -1.1835 -0.1889
  182MOL0     C24464  11.863  11.298   5.336  0.9899 -0.5875  0.3346
  182MOL0     O24465  11.916  11.260   5.218  0.6599 -0.1092  0.2259
  182MOL0     C24466  12.038  11.197   5.226  0.5283 -0.0559  0.3743
  182MOL0     C24467  12.059  11.057   5.243  0.4710 -0.1585  0.2373
  182MOL0     C24468  12.195  11.009   5.272  0.0028 -0.3769  0.4623
  182MOL0     C24469  12.301  11.102   5.262 -0.5974 -0.5368  0.2688
  182MOL0     O24470  12.434  11.077   5.263  0.3665 -0.0044 -0.5377
  182MOL0     C24471  12.468  10.939   5.272  0.2696  0.7717  0.0353
  182MOL0     C24472  12.618  10.886   5.270 -0.8644 -0.4275 -0.3500
  182MOL0     C24473  12.693  10.945   5.144 -0.9350 -0.5518  0.5194
  182MOL0     C24474  12.671  10.877   5.004 -0.0886  0.3892 -0.3829
  182MOL0     C24475  12.777  10.934   4.907  0.3173 -0.1928  0.3452
  182MOL0     C24476  12.926  10.893   4.938 -0.8751  1.1666 -0.6545
  182MOL0     C24477  13.024  10.881   4.815 -0.1485 -0.5849  0.6008
  182MOL0     C24478  13.156  10.829   4.861  0.2704 -0.1058 -0.0223
  182MOL0    Cl24479  13.262  10.786   4.718 -0.1274 -0.4063 -0.1081
  182MOL0     C24480  12.269  11.234   5.251  0.0186  0.9680 -0.4555
  182MOL0     C24481  12.142  11.279   5.222 -0.7771  0.1664  0.2102
  182MOL0     O24482  11.922  11.294   5.448 -0.3110  0.0882 -0.3077
  182MOL0     C24483  11.645  11.358   5.213 -0.8293  0.2534  0.4569
  182MOL0     C24484  11.521  11.412   5.209 -0.6066 -0.5287  0.0987
  182MOL0     N24485  10.872  11.768   5.714  0.5832 -1.1144 -0.1726
  182MOL0     N24486  10.769  11.823   5.772 -0.1927  0.1495 -0.5461
  182MOL0     C24487   9.533  11.503   5.663 -0.2725  0.6894 -0.2983
  182MOL0     C24488   9.415  11.421   5.654  0.1627  0.3398 -0.2703
  182MOL0     C24489   8.998  11.274   5.716 -0.1593 -1.3210  0.4400
  182MOL0     C24490   8.940  11.233   5.598  0.5542 -0.7492  0.0456
  182MOL0     C24491   8.824  11.162   5.591  0.4143  0.2088  0.1722
  182MOL0     C24492   8.758  11.131   5.704  0.4843 -0.5129  0.1305
  182MOL0     O24493   8.638  11.067   5.705  0.3760 -0.9389  0.1415
  182MOL0     C24494   8.530  11.143   5.748  0.9540 -0.7124  0.3357
  182MOL0     C24495   8.435  11.144   5.623 -0.6053  0.6158 -0.9475
  182MOL0     C24496   8.379  11.009   5.584 -0.1620  0.8764  0.2575
  182MOL0     C24497   8.289  11.017   5.463  0.1791 -0.4154  0.6121
  182MOL0     C24498   8.371  10.998   5.345  0.5282 -0.5042  0.4369
  182MOL0     C24499   8.433  10.977   5.238 -0.1743  0.2138  0.5463
  182MOL0     C24500   8.814  11.171   5.823  0.2006  0.0341  0.1107
  182MOL0     C24501   8.937  11.243   5.833  1.3885 -0.0193 -1.0167
  182MOL0     C24502   8.976  11.273   5.981  0.1439 -0.2780 -0.2948
  182MOL0     H24503   9.225  11.605   5.450  0.2384 -1.3197 -1.5903
  182MOL0     H24504   9.424  11.761   5.478  0.1034  0.0346 -1.4008
  182MOL0     H24505   9.674  11.794   5.433 -0.4757 -0.2863 -0.3919
  182MOL0     H24506   9.567  11.876   5.546  0.4219  0.7386 -1.7550
  182MOL0     H24507   9.777  11.922   5.686  0.9514 -0.3806 -0.1123
  182MOL0     H24508   9.765  12.002   5.526 -1.4807  0.6708  1.6030
  182MOL0     H24509   9.922  11.830   5.433  1.3362 -2.1774  0.6868
  182MOL0     H24510   9.912  11.726   5.565  0.4883 -0.3008 -1.6110
  182MOL0     H24511  10.068  11.987   5.555  0.9091  3.0326  2.4888
  182MOL0     H24512  10.024  11.927   5.711 -1.0497  0.3451 -0.6340
  182MOL0     H24513  10.145  11.731   5.669 -1.3244  0.7054 -0.1545
  182MOL0     H24514  10.175  11.773   5.495  2.8781 -1.3283 -0.9659
  182MOL0     H24515  10.302  11.971   5.592 -1.2381 -0.5178 -0.3969
  182MOL0     H24516  10.274  11.902   5.759 -1.6405 -0.0755 -0.6074
  182MOL0     H24517  10.451  11.804   5.528  2.2604  0.3765 -0.5295
  182MOL0     H24518  10.400  11.697   5.655 -1.1367  0.9912  0.7336
  182MOL0     H24519  10.535  11.966   5.709 -1.3896  0.8988  1.1547
  182MOL0     H24520  10.507  11.859   5.837  1.2137  0.3330 -0.2781
  182MOL0     H24521  10.621  11.700   5.516 -0.7782 -0.8315  1.9630
  182MOL0     H24522  10.845  11.563   5.446 -0.6206  0.0768 -0.6850
  182MOL0     H24523  10.903  11.717   5.386  2.9695 -1.1431 -0.1342
  182MOL0     H24524  11.096  11.667   5.575  0.8383  1.0406 -2.0087
  182MOL0     H24525  11.042  11.506   5.548  2.1319 -1.1064 -3.6396
  182MOL0     H24526  11.133  11.674   5.324  1.9051 -1.5996 -1.9655
  182MOL0     H24527  11.066  11.518   5.302  1.9729  0.9624 -1.3530
  182MOL0     H24528  11.230  11.442   5.496 -0.6774 -1.0309 -0.2750
  182MOL0     H24529  11.308  11.595   5.482  3.6117 -0.0980 -3.4562
  182MOL0     H24530  11.487  11.474   5.552 -0.0635  1.1965 -1.0828
  182MOL0     H24531  11.712  11.385   5.561  3.3367 -0.9465 -1.6128
  182MOL0     H24532  11.975  10.989   5.253 -1.2314  1.3815 -2.3697
  182MOL0     H24533  12.200  10.900   5.271  1.2505 -0.3450  0.6910
  182MOL0     H24534  12.427  10.895   5.364  2.4906  0.6747  1.0634
  182MOL0     H24535  12.422  10.887   5.188 -2.1914 -1.0848  2.3349
  182MOL0     H24536  12.659  10.935   5.359 -0.9089 -0.7230 -0.1647
  182MOL0     H24537  12.621  10.777   5.284 -1.2685 -0.4161 -0.1707
  182MOL0     H24538  12.674  11.053   5.139  3.3896  0.4327  1.3212
  182MOL0     H24539  12.798  10.936   5.172  0.1164  0.5783 -2.6830
  182MOL0     H24540  12.578  10.902   4.953 -0.6379 -0.2851  0.2670
  182MOL0     H24541  12.683  10.769   5.014  0.3191  0.5994  1.9408
  182MOL0     H24542  12.757  11.041   4.911 -1.3816 -0.5101  2.5172
  182MOL0     H24543  12.747  10.899   4.808 -0.2397 -2.5942  1.2782
  182MOL0     H24544  12.975  10.964   5.005  0.0138  1.2083 -1.3304
  182MOL0     H24545  12.925  10.798   4.991  0.9959  0.3064 -2.0680
  182MOL0     H24546  13.024  10.974   4.757 -2.0446 -1.9665 -1.8095
  182MOL0     H24547  12.976  10.812   4.745 -5.3474  2.0589  1.0417
  182MOL0     H24548  13.216  10.902   4.916  2.0562  0.4082 -2.4507
  182MOL0     H24549  13.134  10.736   4.913 -1.1809 -0.2562 -0.8410
  182MOL0     H24550  12.348  11.308   5.252  2.8559 -1.7264 -2.7574
  182MOL0     H24551  12.129  11.385   5.200  2.6195 -0.0662 -4.3405
  182MOL0     H24552  11.692  11.321   5.123 -2.6963  0.1031 -0.5169
  182MOL0     H24553  11.460  11.417   5.120  0.7350 -0.8114 -0.8597
  182MOL0     H24554   9.604  11.468   5.738  1.0452  1.3566 -1.2102
  182MOL0     H24555   9.403  11.325   5.703  0.7181  0.6997  0.6003
  182MOL0     H24556   8.986  11.265   5.505 -2.7896  0.6654 -1.2908
  182MOL0     H24557   8.790  11.141   5.490  0.7499 -0.3992  0.1817
  182MOL0     H24558   8.548  11.247   5.777 -1.0986 -1.2836  4.3980
  182MOL0     H24559   8.478  11.094   5.831  0.9398  0.2276  0.8966
  182MOL0     H24560   8.480  11.192   5.536  3.3979 -0.2922  0.4148
  182MOL0     H24561   8.345  11.199   5.653 -0.9172 -0.1745 -0.3934
  182MOL0     H24562   8.313  10.963   5.657  0.2004 -1.3707 -0.7382
  182MOL0     H24563   8.461  10.937   5.583 -1.2140 -0.6597  4.3777
  182MOL0     H24564   8.216  10.936   5.461  1.0995 -1.3261  1.8989
  182MOL0     H24565   8.243  11.117   5.461 -0.9864 -0.9421 -0.5975
  182MOL0     H24566   8.484  10.945   5.150 -2.0699 -0.9221 -0.2050
  182MOL0     H24567   8.766  11.134   5.913 -2.3784 -0.6614 -1.4375
  182MOL0     H24568   8.953  11.377   6.007 -0.2187 -0.4996  0.3164
  182MOL0     H24569   8.940  11.199   6.054  1.0270  0.9220  1.4521
  182MOL0     H24570   9.084  11.259   5.993  0.0731  0.6263  1.8479
  183MOL0     O24571   8.336   3.175   0.781  1.3030 -0.4764  0.1793
  183MOL0     C24572   8.265   3.259   0.836  0.1423 -0.1009 -0.6100
  183MOL0     O24573   8.305   3.373   0.898 -0.0627 -0.3171  0.3429
  183MOL0     C24574   8.439   3.388   0.895  0.2368  0.6186  0.5385
  183MOL0     C24575   8.507   3.444   0.785  0.3621 -0.3024 -0.1720
  183MOL0     C24576   8.640   3.457   0.791  0.4232  0.2774 -0.2552
  183MOL0     C24577   8.719   3.408   0.896 -0.1660 -0.2531  0.4104
  183MOL0     O24578   8.856   3.399   0.899 -0.0137  0.5627  0.2846
  183MOL0     C24579   8.942   3.481   0.818  0.9026 -0.1561 -0.0081
  183MOL0     C24580   9.065   3.525   0.908 -0.2440  0.0282 -0.6230
  183MOL0     C24581   9.138   3.423   0.989  0.8564  0.7419 -0.2323
  183MOL0     C24582   9.174   3.298   0.897  0.1159 -0.7800 -0.5793
  183MOL0     C24583   9.310   3.235   0.952 -0.1032 -0.2248 -0.2363
  183MOL0     C24584   9.309   3.167   1.097  0.0779 -0.1650 -0.0500
  183MOL0     C24585   9.428   3.076   1.117  0.3248 -0.0160 -0.1418
  183MOL0     C24586   9.403   3.008   1.257 -0.1272 -0.0214  0.3581
  183MOL0     N24587   9.517   2.924   1.283  0.8553  0.5653  0.1145
  183MOL0     C24588   9.596   2.908   1.403  0.4879 -0.6268 -0.7991
  183MOL0     C24589   9.678   2.802   1.376 -0.8211  0.3258  0.3213
  183MOL0     C24590   9.791   2.739   1.468  0.1691 -0.5443 -0.6565
  183MOL0     C24591   9.932   2.795   1.462 -1.0817  0.4977 -0.5042
  183MOL0     C24592  10.005   2.767   1.331 -0.0324  0.4316  0.7543
  183MOL0     C24593  10.157   2.785   1.332  0.6964 -0.0725 -0.4900
  183MOL0     O24594  10.216   2.778   1.201  0.0482 -0.6410  0.4198
  183MOL0     C24595  10.356   2.800   1.182  0.3244  0.1074 -0.8704
  183MOL0     C24596  10.451   2.783   1.287 -0.7194 -0.0087  0.1400
  183MOL0     C24597  10.582   2.810   1.270 -0.3511 -0.3978 -0.8845
  183MOL0     C24598  10.620   2.852   1.141  0.2300 -0.4905  0.1135
  183MOL0     C24599  10.761   2.898   1.124  0.3585  0.4508 -0.7916
  183MOL0     O24600  10.832   2.904   1.239  0.4148 -0.7016  0.3474
  183MOL0     C24601  10.951   2.968   1.242 -0.1989 -0.4503 -0.5004
  183MOL0     C24602  11.015   3.041   1.150  0.7249 -0.2665  0.3956
  183MOL0     C24603  11.142   3.094   1.166 -0.6773  0.3431  0.3263
  183MOL0     C24604  11.206   3.062   1.289 -0.0413 -0.2720  0.5936
  183MOL0     O24605  11.329   3.120   1.314  0.4949 -0.0193 -0.4192
  183MOL0     C24606  11.452   3.038   1.318 -0.5753  0.0890  0.8841
  183MOL0     C24607  11.483   2.987   1.180 -0.2564  0.5170  0.1681
  183MOL0     C24608  11.627   2.985   1.138 -0.4386  1.1142 -0.2572
  183MOL0     C24609  11.709   2.868   1.202 -0.6636  0.3434 -0.1697
  183MOL0     C24610  11.860   2.892   1.162  0.2838  0.6075 -0.1586
  183MOL0     C24611  11.949   2.771   1.197  0.2368 -0.6171  0.6025
  183MOL0     C24612  11.956   2.734   1.353  0.5423  0.3386  0.7503
  183MOL0     C24613  12.039   2.832   1.430  0.3227  0.7773  0.3207
  183MOL0    Cl24614  12.039   2.791   1.605  0.1180 -0.1923 -0.0361
  183MOL0     C24615  11.146   2.979   1.385 -0.0059  0.1712  0.1433
  183MOL0     C24616  11.020   2.924   1.356 -0.4035  0.7487  0.9778
  183MOL0     O24617  10.801   2.906   1.011  0.0169  0.0379  0.1922
  183MOL0     C24618  10.527   2.868   1.041 -0.1065 -0.1907 -0.1802
  183MOL0     C24619  10.396   2.830   1.057 -0.1849  0.4846 -0.5387
  183MOL0     N24620   9.654   2.752   1.248  0.3169  0.7786  0.2787
  183MOL0     N24621   9.559   2.823   1.195  0.0734  0.1842 -0.4661
  183MOL0     C24622   8.656   3.351   1.006  0.1879  0.3936  0.9372
  183MOL0     C24623   8.514   3.340   1.001  0.7316 -0.4224  0.2914
  183MOL0     C24624   8.122   3.220   0.829 -0.1052 -0.8484 -1.3621
  183MOL0     C24625   8.025   3.322   0.867 -0.8576 -0.3963  0.7469
  183MOL0     C24626   7.894   3.305   0.842  0.7573 -0.3500 -0.3453
  183MOL0     C24627   7.838   3.182   0.810 -0.3816  0.1992  0.2723
  183MOL0     O24628   7.708   3.175   0.789  0.0416  0.4266  0.4494
  183MOL0     C24629   7.643   3.057   0.760  0.7872  0.2038 -0.3931
  183MOL0     C24630   7.495   3.061   0.781  0.8089 -0.2674 -1.1504
  183MOL0     C24631   7.471   3.065   0.945  0.3805  0.2535  0.0838
  183MOL0     C24632   7.329   3.041   0.983 -0.1457  0.3174 -0.0086
  183MOL0     C24633   7.233   3.140   0.928  0.2286  0.1804  0.4242
  183MOL0     C24634   7.156   3.215   0.865 -0.0740 -0.3727 -0.4016
  183MOL0     C24635   7.932   3.081   0.787  0.8937  0.2410 -0.4930
  183MOL0     C24636   8.065   3.100   0.789 -0.7238  0.4355  0.1217
  183MOL0     C24637   8.149   2.975   0.759  0.8018 -0.2420 -0.0996
  183MOL0     H24638   8.452   3.479   0.697 -1.3247  3.0540  1.9830
  183MOL0     H24639   8.691   3.493   0.702 -2.1171  1.5237 -1.2917
  183MOL0     H24640   8.982   3.422   0.735 -0.1805 -0.6807 -0.1662
  183MOL0     H24641   8.893   3.567   0.773 -0.8618 -0.6409  0.9036
  183MOL0     H24642   9.040   3.608   0.975 -1.4196 -1.1331  0.4025
  183MOL0     H24643   9.136   3.567   0.836  0.1088  2.6048  1.0603
  183MOL0     H24644   9.077   3.375   1.066 -0.0699 -0.0556 -1.4091
  183MOL0     H24645   9.223   3.474   1.034 -0.4422  0.4035  2.8399
  183MOL0     H24646   9.104   3.214   0.899 -0.8391 -0.0175 -1.4158
  183MOL0     H24647   9.185   3.325   0.791  1.2666 -1.6517 -0.7084
  183MOL0     H24648   9.349   3.159   0.884 -1.2231 -0.0749 -1.0799
  183MOL0     H24649   9.387   3.312   0.962 -0.6792  0.1216  1.9943
  183MOL0     H24650   9.306   3.249   1.170 -0.5811  1.1834 -1.5411
  183MOL0     H24651   9.210   3.121   1.105 -0.9083  0.8646 -4.2290
  183MOL0     H24652   9.515   3.142   1.111 -2.0382  3.1924 -1.6178
  183MOL0     H24653   9.424   2.995   1.043 -2.5379 -0.6885  0.6138
  183MOL0     H24654   9.387   3.077   1.340  1.5603 -0.8175  1.4172
  183MOL0     H24655   9.313   2.948   1.250 -0.5470  0.7264 -1.1369
  183MOL0     H24656   9.594   2.982   1.483  0.2737  1.1236 -2.3463
  183MOL0     H24657   9.764   2.752   1.573  1.0160  0.2271 -0.5160
  183MOL0     H24658   9.800   2.633   1.444  1.5663 -0.9789  1.4723
  183MOL0     H24659   9.918   2.904   1.465  1.6796  0.9189  0.1147
  183MOL0     H24660  10.000   2.767   1.543 -0.8628 -1.3899 -1.3014
  183MOL0     H24661   9.952   2.829   1.258  0.9515  0.2016 -0.1721
  183MOL0     H24662   9.985   2.666   1.295 -1.7270  0.2081  2.1502
  183MOL0     H24663  10.190   2.705   1.399  2.5346  0.8849 -0.2032
  183MOL0     H24664  10.187   2.882   1.371  0.1564  1.4136 -3.5032
  183MOL0     H24665  10.407   2.753   1.381 -0.3244  0.2032  0.3938
  183MOL0     H24666  10.647   2.783   1.353 -2.2809 -0.6605  0.5996
  183MOL0     H24667  10.965   3.056   1.054  2.3964 -0.3557 -0.5280
  183MOL0     H24668  11.191   3.149   1.086  0.4770 -1.7004 -0.4397
  183MOL0     H24669  11.537   3.093   1.359  0.0104  0.7403 -1.0950
  183MOL0     H24670  11.441   2.955   1.389 -0.2815 -1.4379 -0.7666
  183MOL0     H24671  11.430   2.891   1.172  0.4842  0.2340 -1.9606
  183MOL0     H24672  11.439   3.051   1.102  0.6290  0.5480 -0.3108
  183MOL0     H24673  11.639   2.986   1.029  0.3593  2.2332 -0.1841
  183MOL0     H24674  11.674   3.079   1.170  4.0918  0.5675 -4.1132
  183MOL0     H24675  11.681   2.766   1.175 -0.2482  0.1427  0.1439
  183MOL0     H24676  11.694   2.875   1.310  3.1435  0.3217  0.4987
  183MOL0     H24677  11.896   2.976   1.223 -2.5425  1.3974  0.5670
  183MOL0     H24678  11.875   2.906   1.054 -2.4174 -1.5569 -0.9073
  183MOL0     H24679  11.918   2.685   1.137  0.1445 -1.0599  1.2662
  183MOL0     H24680  12.044   2.815   1.166 -0.8785  1.5135  0.0838
  183MOL0     H24681  12.006   2.638   1.363 -0.5512 -0.5611 -1.7485
  183MOL0     H24682  11.859   2.715   1.400 -0.6977  1.4519 -1.2143
  183MOL0     H24683  12.140   2.819   1.391  0.8896  3.7293  0.5817
  183MOL0     H24684  12.017   2.937   1.412 -0.6126  0.6349  0.5761
  183MOL0     H24685  11.188   2.958   1.482 -1.0001 -1.4570  0.2606
  183MOL0     H24686  10.974   2.857   1.428  2.0748 -2.0345  0.1452
  183MOL0     H24687  10.545   2.906   0.941  4.2309 -0.3675  0.3465
  183MOL0     H24688  10.331   2.826   0.970  3.1582 -2.0112 -3.2079
  183MOL0     H24689   8.715   3.338   1.097  0.6187  0.4515  0.6671
  183MOL0     H24690   8.463   3.295   1.085  0.5540  0.8905  0.9172
  183MOL0     H24691   8.034   3.424   0.902  1.9201  0.3342 -1.7300
  183MOL0     H24692   7.816   3.380   0.851 -0.4579 -1.4506 -1.2619
  183MOL0     H24693   7.692   2.983   0.824  0.4697  0.6023  0.3205
  183MOL0     H24694   7.644   3.019   0.657 -0.4393 -2.4540  0.4771
  183MOL0     H24695   7.451   2.964   0.752 -1.6053 -0.1336  1.6429
  183MOL0     H24696   7.451   3.147   0.731  1.0969  0.9678  0.6455
  183MOL0     H24697   7.501   3.163   0.982 -2.2158  0.2710  2.4564
  183MOL0     H24698   7.542   2.992   0.985  1.4839  1.3004  0.0935
  183MOL0     H24699   7.293   2.938   0.970  1.1583 -0.0639 -0.8856
  183MOL0     H24700   7.330   3.056   1.091  2.4771  1.8284 -0.1608
  183MOL0     H24701   7.082   3.263   0.803 -0.7053 -0.7359  0.0622
  183MOL0     H24702   7.901   2.978   0.771 -1.1096  0.3134  2.2285
  183MOL0     H24703   8.093   2.888   0.722  1.4680 -1.5852  1.8465
  183MOL0     H24704   8.218   2.998   0.677  2.9615 -0.1482  1.6333
  183MOL0     H24705   8.198   2.947   0.853  0.5160  4.0421  1.5422
  184MOL0     O24706   6.241   9.264   0.611  0.7380  0.2396  0.3144
  184MOL0     C24707   6.310   9.182   0.551  0.2128 -0.4939 -0.6732
  184MOL0     O24708   6.394   9.098   0.611  0.2506 -0.1531 -0.9450
  184MOL0     C24709   6.479   9.152   0.698  1.1548 -0.5746 -0.2947
  184MOL0     C24710   6.517   9.291   0.699  0.7942 -0.1223 -0.0420
  184MOL0     C24711   6.622   9.329   0.782 -0.1177 -0.9405  0.8043
  184MOL0     C24712   6.679   9.248   0.871  0.7215  0.3498 -0.6837
  184MOL0     O24713   6.749   9.310   0.967  0.0654 -0.5901 -0.0190
  184MOL0     C24714   6.877   9.256   1.009  0.6186 -0.7470 -1.4664
  184MOL0     C24715   6.999   9.266   0.920 -0.1935 -1.1504 -0.2497
  184MOL0     C24716   7.109   9.165   0.968 -0.3203 -1.0061 -0.2366
  184MOL0     C24717   7.236   9.169   0.882 -0.8995 -0.3860 -0.0269
  184MOL0     C24718   7.348   9.100   0.951 -0.3899  0.4309  0.0317
  184MOL0     C24719   7.477   9.091   0.867 -0.4656 -0.2573 -0.4589
  184MOL0     C24720   7.579   8.999   0.943 -0.2648  0.7702 -0.7059
  184MOL0     C24721   7.687   8.973   0.831 -0.2249 -0.7467  0.0299
  184MOL0     N24722   7.779   8.867   0.862  0.9956  0.2708 -0.0296
  184MOL0     C24723   7.868   8.893   0.961  0.6504 -0.4828 -0.6103
  184MOL0     C24724   7.978   8.817   0.943  0.5085  0.0198  0.3052
  184MOL0     C24725   8.091   8.803   1.044  0.0682  0.2424  0.5874
  184MOL0     C24726   8.154   8.666   1.045  0.0568  0.7830 -0.1802
  184MOL0     C24727   8.283   8.660   0.961  0.7457 -0.8105 -0.5336
  184MOL0     C24728   8.358   8.525   0.984 -0.2092  0.2256  1.0647
  184MOL0     O24729   8.463   8.504   0.881  0.5250 -0.4237  0.2736
  184MOL0     C24730   8.584   8.575   0.881  0.2752 -0.0409  0.4017
  184MOL0     C24731   8.642   8.598   0.760 -0.3885 -0.2241  0.6938
  184MOL0     C24732   8.741   8.686   0.736 -0.4554 -0.2289 -0.5034
  184MOL0     C24733   8.809   8.737   0.853 -0.0188  0.1967  0.1311
  184MOL0     C24734   8.933   8.827   0.849 -0.6721  0.7273 -0.6840
  184MOL0     O24735   9.003   8.822   0.734 -0.0488  1.2191  0.0318
  184MOL0     C24736   9.131   8.876   0.723  0.1749  0.4681 -0.6232
  184MOL0     C24737   9.185   8.974   0.805 -0.3686 -0.2198  0.0955
  184MOL0     C24738   9.306   9.026   0.766 -0.4681  0.7910 -0.4484
  184MOL0     C24739   9.380   8.964   0.657 -1.2313 -0.0334 -1.0347
  184MOL0     O24740   9.504   9.020   0.643 -0.1024 -0.0005 -0.5490
  184MOL0     C24741   9.601   8.934   0.586 -0.4197 -0.4174 -1.4860
  184MOL0     C24742   9.730   9.014   0.572  0.0569 -0.6636 -0.0399
  184MOL0     C24743   9.834   8.962   0.466  0.0349  0.3480  0.0733
  184MOL0     C24744   9.958   9.050   0.482 -1.0677  0.1859 -0.6353
  184MOL0     C24745  10.069   9.016   0.381  0.1674  0.9988  0.0194
  184MOL0     C24746  10.186   9.115   0.399  0.2264 -0.3870  0.0488
  184MOL0     C24747  10.305   9.057   0.314 -0.7028  0.7456  1.2637
  184MOL0     C24748  10.408   9.166   0.280 -0.8827 -0.8108  0.9609
  184MOL0    Cl24749  10.507   9.111   0.144 -0.0976  0.3015  0.2552
  184MOL0     C24750   9.326   8.862   0.583 -0.2214 -0.1576  1.0037
  184MOL0     C24751   9.197   8.819   0.618  0.6072 -0.6970 -0.7867
  184MOL0     O24752   8.956   8.895   0.954  0.2695  0.2801  0.3459
  184MOL0     C24753   8.751   8.711   0.980 -0.5791  1.0112 -0.0091
  184MOL0     C24754   8.637   8.628   0.994 -0.3842  0.6896  0.3380
  184MOL0     N24755   7.952   8.740   0.831  0.4310  0.3791 -0.4199
  184MOL0     N24756   7.837   8.772   0.777  0.2481 -1.4131 -0.0216
  184MOL0     C24757   6.644   9.110   0.872  0.0840 -0.4254 -0.2648
  184MOL0     C24758   6.541   9.062   0.787 -0.6200  0.3025 -0.2930
  184MOL0     C24759   6.279   9.147   0.414  0.6673  0.3324  0.4645
  184MOL0     C24760   6.291   9.009   0.378 -0.9075 -0.5181  0.1158
  184MOL0     C24761   6.283   8.970   0.248  0.8093 -0.0109 -0.5391
  184MOL0     C24762   6.264   9.068   0.149  0.1861  0.0388 -0.0430
  184MOL0     O24763   6.255   9.042   0.011 -0.0764  0.0144 -0.4424
  184MOL0     C24764   6.331   8.930  -0.049 -0.1524  0.0838 -1.2514
  184MOL0     C24765   6.417   8.971  -0.164  0.2189  0.7678 -0.1005
  184MOL0     C24766   6.493   9.105  -0.119  0.2424 -0.0319 -0.3002
  184MOL0     C24767   6.592   9.144  -0.220  0.3692 -0.4193  0.3399
  184MOL0     C24768   6.650   9.267  -0.166 -0.6040 -0.2289 -0.3238
  184MOL0     C24769   6.692   9.377  -0.143  0.0724  0.1131 -0.4929
  184MOL0     C24770   6.237   9.199   0.180 -0.5160  0.1592 -0.2268
  184MOL0     C24771   6.239   9.239   0.317 -0.7276 -0.1538  0.2584
  184MOL0     C24772   6.236   9.389   0.338  0.0141 -0.0911 -0.4436
  184MOL0     H24773   6.465   9.360   0.633 -1.0605 -0.8007  0.6253
  184MOL0     H24774   6.640   9.436   0.786 -3.4059 -0.3043  1.8015
  184MOL0     H24775   6.904   9.299   1.106 -0.2638 -1.4760 -0.8869
  184MOL0     H24776   6.878   9.150   1.033  0.7670 -0.4517 -0.0823
  184MOL0     H24777   7.032   9.370   0.925  0.5362 -1.2627 -2.0969
  184MOL0     H24778   6.981   9.238   0.816 -1.0732 -0.4492 -0.2966
  184MOL0     H24779   7.076   9.061   0.965  1.6519 -1.6648 -0.0709
  184MOL0     H24780   7.122   9.181   1.076 -0.7405 -0.5099 -0.2497
  184MOL0     H24781   7.219   9.125   0.784  0.4842 -1.2041  0.0780
  184MOL0     H24782   7.257   9.275   0.866 -0.4261 -0.2752  1.1769
  184MOL0     H24783   7.374   9.138   1.050 -0.0096  0.6231 -0.1386
  184MOL0     H24784   7.305   9.000   0.961 -0.9766  0.5325 -1.2541
  184MOL0     H24785   7.456   9.049   0.768  3.2819  0.4987 -1.7322
  184MOL0     H24786   7.502   9.197   0.860 -1.7459  0.0916 -0.0113
  184MOL0     H24787   7.518   8.911   0.967 -1.0593  0.5821 -3.1394
  184MOL0     H24788   7.619   9.049   1.032 -1.1083 -0.8464  0.6470
  184MOL0     H24789   7.659   8.933   0.733  3.7101 -1.7279 -0.8824
  184MOL0     H24790   7.739   9.066   0.806 -2.8851  0.1472 -2.8404
  184MOL0     H24791   7.852   8.965   1.041 -1.0194  0.7749 -1.9942
  184MOL0     H24792   8.169   8.874   1.014 -0.8491  1.4164  0.9007
  184MOL0     H24793   8.058   8.844   1.140  1.1400 -1.0453  1.5332
  184MOL0     H24794   8.177   8.647   1.151 -1.8991 -1.2317 -0.0622
  184MOL0     H24795   8.085   8.592   1.004  0.4303  1.9678 -3.1999
  184MOL0     H24796   8.353   8.737   0.995 -0.3141 -0.3031  0.6074
  184MOL0     H24797   8.251   8.670   0.857  0.4280 -2.3890 -0.6168
  184MOL0     H24798   8.291   8.440   0.992 -0.4626  0.3831  0.6234
  184MOL0     H24799   8.410   8.537   1.079  0.1723 -0.5792  0.9666
  184MOL0     H24800   8.606   8.550   0.670 -0.0317 -0.5485  0.7257
  184MOL0     H24801   8.772   8.712   0.635  1.6437  0.0181  0.1670
  184MOL0     H24802   9.147   9.018   0.897  2.2446 -0.0686  1.1791
  184MOL0     H24803   9.344   9.116   0.813 -0.1142  1.6009 -2.1708
  184MOL0     H24804   9.619   8.857   0.662 -1.7776  1.0026  0.3604
  184MOL0     H24805   9.579   8.885   0.491  1.1933 -2.0165 -1.1066
  184MOL0     H24806   9.697   9.110   0.531  1.6407  0.2961  0.8055
  184MOL0     H24807   9.768   9.047   0.669  1.4738  0.2246 -0.8494
  184MOL0     H24808   9.866   8.870   0.515 -1.9740  1.8777  4.8599
  184MOL0     H24809   9.807   8.949   0.361  2.2834  0.1797 -0.5350
  184MOL0     H24810   9.990   9.056   0.586  0.9788  4.2594 -1.2953
  184MOL0     H24811   9.936   9.153   0.454  0.3498  1.0317  1.2236
  184MOL0     H24812  10.022   9.018   0.282  2.5603 -0.7679 -1.2702
  184MOL0     H24813  10.102   8.913   0.401 -0.5574  0.8951  0.7441
  184MOL0     H24814  10.167   9.217   0.366 -1.9053 -0.4939  0.7708
  184MOL0     H24815  10.207   9.125   0.505  1.8601  3.0447 -0.4622
  184MOL0     H24816  10.259   9.015   0.224  3.0000 -0.8935 -0.0403
  184MOL0     H24817  10.355   8.970   0.357 -0.0686  0.0899 -0.7005
  184MOL0     H24818  10.369   9.262   0.246  1.7912 -0.5201 -1.7001
  184MOL0     H24819  10.469   9.181   0.369  0.0963 -1.1567  0.3620
  184MOL0     H24820   9.381   8.807   0.508  0.4689 -0.4887  1.7326
  184MOL0     H24821   9.148   8.735   0.570  1.0694 -2.0042  0.9179
  184MOL0     H24822   8.806   8.745   1.068  0.6582 -1.0712  0.1108
  184MOL0     H24823   8.597   8.600   1.091 -0.2538 -1.0098 -0.0711
  184MOL0     H24824   6.702   9.049   0.940  0.4288 -1.9069 -1.8305
  184MOL0     H24825   6.521   8.956   0.772 -1.1155  0.4742 -0.8768
  184MOL0     H24826   6.315   8.938   0.457 -3.0963 -0.7097  0.6763
  184MOL0     H24827   6.296   8.862   0.247  2.3005  0.1469 -0.4231
  184MOL0     H24828   6.273   8.843  -0.080  1.3613 -1.5990  0.3630
  184MOL0     H24829   6.399   8.887   0.025  1.8113 -0.2765 -3.1468
  184MOL0     H24830   6.357   8.991  -0.253 -0.3670  2.2523  0.5962
  184MOL0     H24831   6.488   8.888  -0.176  0.7219  0.9125  1.5610
  184MOL0     H24832   6.539   9.094  -0.021 -1.4011  0.8374  0.6131
  184MOL0     H24833   6.426   9.191  -0.111  1.9848  1.1917  2.4717
  184MOL0     H24834   6.653   9.053  -0.224 -0.8988 -1.3937  1.7447
  184MOL0     H24835   6.547   9.162  -0.318  2.1306 -2.7647 -0.9907
  184MOL0     H24836   6.741   9.472  -0.131  0.4721 -0.2056  0.4117
  184MOL0     H24837   6.216   9.266   0.097  0.0766 -1.4840 -1.7545
  184MOL0     H24838   6.315   9.424   0.405  0.1618 -2.0068  0.4593
  184MOL0     H24839   6.242   9.435   0.239 -2.1370 -1.1430 -1.1403
  184MOL0     H24840   6.141   9.413   0.387  1.0746  0.9873  1.1832
  185MOL0     O24841   1.967   6.541   0.185 -0.7230  0.0194  0.6731
  185MOL0     C24842   2.058   6.475   0.241 -0.1092 -1.0731  0.0854
  185MOL0     O24843   2.114   6.351   0.198  0.2997 -0.3619  0.1814
  185MOL0     C24844   2.089   6.312   0.076 -0.2773  0.0851  0.7334
  185MOL0     C24845   2.198   6.320  -0.017 -0.2220  0.4224  0.6628
  185MOL0     C24846   2.181   6.268  -0.148 -0.1184 -0.4822 -0.3290
  185MOL0     C24847   2.059   6.214  -0.188 -0.2836 -0.2288  0.7781
  185MOL0     O24848   2.064   6.172  -0.320 -0.0174 -0.3987  0.3748
  185MOL0     C24849   1.942   6.139  -0.385  0.6775  0.8121 -0.6815
  185MOL0     C24850   1.964   6.103  -0.533  0.0631 -1.3091  0.0345
  185MOL0     C24851   1.995   6.227  -0.620  0.3245 -0.3949 -0.0234
  185MOL0     C24852   2.015   6.195  -0.771  0.2476 -0.1492  0.2204
  185MOL0     C24853   1.879   6.200  -0.844  0.2260  0.0256 -0.2298
  185MOL0     C24854   1.894   6.149  -0.991  0.6608  0.4911 -0.0156
  185MOL0     C24855   1.743   6.142  -1.061  0.4313 -1.1101  0.2987
  185MOL0     C24856   1.683   6.286  -1.095  0.4017 -0.1033 -0.0495
  185MOL0     N24857   1.749   6.376  -1.190  0.3211 -0.4176  0.2350
  185MOL0     C24858   1.708   6.408  -1.324  0.6453  1.2557  0.0511
  185MOL0     C24859   1.781   6.508  -1.367  0.1989 -1.0540  0.1972
  185MOL0     C24860   1.749   6.572  -1.497  0.7176  0.2002 -0.1243
  185MOL0     C24861   1.851   6.675  -1.542 -0.8884  0.0372  0.3744
  185MOL0     C24862   1.824   6.819  -1.511  0.0080  0.2969  0.7934
  185MOL0     C24863   1.680   6.875  -1.527 -0.4051  0.0262  0.6028
  185MOL0     O24864   1.639   6.844  -1.670  0.1883 -0.4707  0.1177
  185MOL0     C24865   1.545   6.917  -1.733  0.7248  0.5484 -0.0418
  185MOL0     C24866   1.544   6.897  -1.868  0.1208 -0.3633  0.6892
  185MOL0     C24867   1.449   6.975  -1.936  0.4937  0.1779 -0.6063
  185MOL0     C24868   1.343   7.053  -1.871  0.1210 -0.1246 -0.5322
  185MOL0     C24869   1.240   7.117  -1.946  0.5451 -0.2887 -0.2948
  185MOL0     O24870   1.154   7.200  -1.874  0.2362  0.0173  0.0682
  185MOL0     C24871   1.068   7.280  -1.944  0.7718 -0.5447 -0.3163
  185MOL0     C24872   1.122   7.376  -2.023 -0.1124  0.5763 -0.3095
  185MOL0     C24873   1.053   7.463  -2.109 -0.0637 -0.5244 -0.0465
  185MOL0     C24874   0.917   7.450  -2.120 -0.2034  0.4669  0.5751
  185MOL0     O24875   0.827   7.524  -2.197  0.2617  0.5375 -0.3171
  185MOL0     C24876   0.851   7.656  -2.229 -0.5771 -0.2294  0.0917
  185MOL0     C24877   0.775   7.741  -2.121 -0.0976 -0.0177  0.0815
  185MOL0     C24878   0.810   7.897  -2.156 -0.3248  0.6435 -0.0958
  185MOL0     C24879   0.721   7.974  -2.062 -0.4232 -0.2248 -1.0019
  185MOL0     C24880   0.699   8.121  -2.101  0.4273  0.1425 -0.4226
  185MOL0     C24881   0.834   8.188  -2.104 -0.3826  0.1274 -0.1965
  185MOL0     C24882   0.844   8.340  -2.110  0.3691  0.4059  0.3049
  185MOL0     C24883   0.737   8.406  -2.199 -0.3173  0.5940 -0.1547
  185MOL0    Cl24884   0.751   8.349  -2.376  0.0550 -0.4269  0.1839
  185MOL0     C24885   0.854   7.363  -2.042  0.5029 -0.2101  0.2529
  185MOL0     C24886   0.928   7.278  -1.948 -0.3821 -0.0988 -0.4261
  185MOL0     O24887   1.235   7.099  -2.071  0.2492 -0.8502  0.3781
  185MOL0     C24888   1.362   7.066  -1.735 -0.3718 -0.3534 -0.1303
  185MOL0     C24889   1.461   6.996  -1.664 -0.1970  0.2030  0.0883
  185MOL0     N24890   1.871   6.544  -1.260 -0.1200 -0.2556 -0.0560
  185MOL0     N24891   1.849   6.469  -1.157 -0.7709  0.5152  1.6832
  185MOL0     C24892   1.954   6.207  -0.101 -1.1052 -0.4542 -0.9735
  185MOL0     C24893   1.966   6.264   0.027  0.8149  0.1196 -1.8305
  185MOL0     C24894   2.107   6.534   0.360  0.2929 -0.2571  0.7097
  185MOL0     C24895   2.182   6.442   0.442 -0.0595 -0.6129  0.0488
  185MOL0     C24896   2.233   6.490   0.562 -0.4850  0.4436  0.6423
  185MOL0     C24897   2.214   6.625   0.601 -0.3275 -0.2593  0.1409
  185MOL0     O24898   2.237   6.673   0.727 -0.6860  0.0303 -0.0643
  185MOL0     C24899   2.363   6.629   0.783 -0.3116 -0.0918  0.0952
  185MOL0     C24900   2.350   6.599   0.935 -0.4757 -0.1676 -0.6134
  185MOL0     C24901   2.492   6.599   0.993  0.7230 -0.3083 -0.8055
  185MOL0     C24902   2.516   6.629   1.136  0.2206 -1.0355  0.2523
  185MOL0     C24903   2.488   6.777   1.175  0.7117 -0.2529  0.2425
  185MOL0     C24904   2.486   6.900   1.203 -0.0968  0.6329  0.4655
  185MOL0     C24905   2.152   6.706   0.522  0.1805 -0.2342 -0.0612
  185MOL0     C24906   2.093   6.666   0.405 -0.0638  0.1647  0.1048
  185MOL0     C24907   2.009   6.770   0.339 -0.5325 -0.8032  0.2325
  185MOL0     H24908   2.291   6.373   0.002  0.9472 -0.7360 -1.4123
  185MOL0     H24909   2.267   6.256  -0.213  1.4888 -1.4302  1.8641
  185MOL0     H24910   1.890   6.054  -0.339 -3.2377  2.1463 -2.2366
  185MOL0     H24911   1.864   6.214  -0.370  0.6754  0.6182  0.3800
  185MOL0     H24912   1.872   6.057  -0.570  0.0227 -0.1627 -1.3587
  185MOL0     H24913   2.049   6.036  -0.552  2.2318  1.1973  0.2289
  185MOL0     H24914   2.086   6.273  -0.580 -1.0278  2.0490  0.4415
  185MOL0     H24915   1.915   6.301  -0.617  0.0077 -0.7047 -0.6577
  185MOL0     H24916   2.076   6.272  -0.819 -0.5650 -0.7432 -1.8741
  185MOL0     H24917   2.071   6.101  -0.770 -2.2981 -1.8039  1.9022
  185MOL0     H24918   1.800   6.148  -0.790  1.5785 -1.8193  0.0518
  185MOL0     H24919   1.841   6.303  -0.850  0.2054 -0.0310 -1.3744
  185MOL0     H24920   1.963   6.206  -1.053 -1.1587  2.3109 -0.4609
  185MOL0     H24921   1.934   6.049  -0.969 -2.5618  0.0799  6.1360
  185MOL0     H24922   1.674   6.081  -1.002  0.6457 -1.0622  0.6051
  185MOL0     H24923   1.739   6.080  -1.151 -1.7097 -1.6899  0.7517
  185MOL0     H24924   1.581   6.267  -1.132  0.4035 -2.0996  0.8876
  185MOL0     H24925   1.668   6.332  -0.997  1.6818  0.6577 -0.1947
  185MOL0     H24926   1.626   6.351  -1.367  1.5529  0.9802 -1.4079
  185MOL0     H24927   1.753   6.490  -1.569  2.8562 -1.1329  1.3691
  185MOL0     H24928   1.646   6.607  -1.509  0.1960 -1.4864 -0.9248
  185MOL0     H24929   1.947   6.644  -1.500 -0.9068  0.4971  0.7600
  185MOL0     H24930   1.864   6.662  -1.650  1.4544 -0.7474  0.6980
  185MOL0     H24931   1.888   6.872  -1.583 -1.2401 -0.0299 -0.6150
  185MOL0     H24932   1.860   6.839  -1.410  2.2255 -0.8582  0.2933
  185MOL0     H24933   1.679   6.983  -1.512 -0.2653  0.0850  0.2160
  185MOL0     H24934   1.615   6.827  -1.453 -0.9640 -1.4306 -0.7656
  185MOL0     H24935   1.613   6.827  -1.915  0.3518  0.6278 -0.4864
  185MOL0     H24936   1.446   6.970  -2.045 -0.6671  2.3784 -0.7333
  185MOL0     H24937   1.229   7.389  -2.030  0.2071 -1.6633 -0.2455
  185MOL0     H24938   1.108   7.540  -2.163  0.8907  1.3844  3.3460
  185MOL0     H24939   0.959   7.670  -2.213 -0.3090 -1.5120 -0.4747
  185MOL0     H24940   0.823   7.663  -2.334  3.6326 -0.2485 -1.2488
  185MOL0     H24941   0.667   7.727  -2.128 -0.1305  0.8770 -1.9721
  185MOL0     H24942   0.821   7.723  -2.024  2.0620 -3.3587 -1.3730
  185MOL0     H24943   0.918   7.912  -2.149  0.0180 -0.0187 -2.7736
  185MOL0     H24944   0.787   7.922  -2.260 -0.1950  2.4122  0.2775
  185MOL0     H24945   0.766   7.966  -1.962  1.4409  3.2045 -1.4202
  185MOL0     H24946   0.623   7.925  -2.068 -0.0975 -1.2211  0.9558
  185MOL0     H24947   0.621   8.180  -2.050  0.8075  0.7840 -0.5715
  185MOL0     H24948   0.658   8.117  -2.202  0.4000 -2.3884 -0.3718
  185MOL0     H24949   0.876   8.159  -2.007 -0.2517 -1.7116 -0.7698
  185MOL0     H24950   0.893   8.156  -2.191 -0.9016 -2.0590  0.2071
  185MOL0     H24951   0.944   8.371  -2.142  0.5418  0.8585  1.2540
  185MOL0     H24952   0.824   8.383  -2.012 -2.3359  2.1303 -0.8598
  185MOL0     H24953   0.637   8.375  -2.168 -0.6148  0.9555 -0.7523
  185MOL0     H24954   0.745   8.515  -2.196  1.7641  0.5570 -1.5970
  185MOL0     H24955   0.745   7.357  -2.046  0.4870  0.4344 -0.7260
  185MOL0     H24956   0.883   7.198  -1.892  1.5299  0.9047  2.7788
  185MOL0     H24957   1.309   7.142  -1.678 -0.4324  0.5476 -1.3581
  185MOL0     H24958   1.471   6.993  -1.556  2.3330 -1.9396 -0.0992
  185MOL0     H24959   1.860   6.171  -0.141  0.4701 -0.9375 -4.5980
  185MOL0     H24960   1.882   6.260   0.095  2.1122  1.5706 -0.0608
  185MOL0     H24961   2.185   6.335   0.427  0.1001 -0.4586 -1.0728
  185MOL0     H24962   2.274   6.417   0.630 -2.0438 -1.0107  0.0897
  185MOL0     H24963   2.429   6.714   0.765  1.6498 -0.9366  2.6819
  185MOL0     H24964   2.398   6.545   0.721 -0.8923 -1.8736  2.0408
  185MOL0     H24965   2.307   6.498   0.941 -1.8297  0.3477 -1.3445
  185MOL0     H24966   2.293   6.675   0.989 -0.0484 -1.1032  1.2733
  185MOL0     H24967   2.544   6.679   0.940 -1.1341 -0.3578 -2.8439
  185MOL0     H24968   2.519   6.493   0.985 -1.4941 -1.3509  2.9276
  185MOL0     H24969   2.448   6.570   1.198  1.2084  1.3595  3.9447
  185MOL0     H24970   2.618   6.593   1.144  0.0587 -1.5012  0.2566
  185MOL0     H24971   2.493   7.005   1.226  1.4679  1.4518 -3.1323
  185MOL0     H24972   2.145   6.813   0.539 -0.5486  0.0024 -1.5881
  185MOL0     H24973   2.007   6.859   0.403 -0.3439 -2.0742  2.0924
  185MOL0     H24974   2.038   6.799   0.237  0.8200  1.4663  1.1738
  185MOL0     H24975   1.908   6.730   0.340 -1.1591  0.7065  0.0120
  186MOL0     O24976   5.474  10.843   5.125 -0.0017  0.0077 -0.6448
  186MOL0     C24977   5.523  10.737   5.088  0.9942 -0.0882 -0.4688
  186MOL0     O24978   5.614  10.729   4.991  0.7188 -0.0017  0.0323
  186MOL0     C24979   5.693  10.833   4.970 -0.3508 -0.0541  0.7793
  186MOL0     C24980   5.826  10.806   4.960  0.2060  0.7500 -0.6201
  186MOL0     C24981   5.916  10.896   4.899  0.5269 -0.2792  0.0946
  186MOL0     C24982   5.866  11.020   4.853 -0.8193  0.8301 -0.2374
  186MOL0     O24983   5.951  11.111   4.793  0.4538  0.4714 -0.8134
  186MOL0     C24984   6.080  11.071   4.756 -0.0828 -0.0640 -0.6884
  186MOL0     C24985   6.155  11.168   4.668 -0.1818  0.9501 -0.7122
  186MOL0     C24986   6.134  11.318   4.718  0.3733  0.5406 -0.5434
  186MOL0     C24987   6.225  11.404   4.641 -0.4878 -0.3357  0.4093
  186MOL0     C24988   6.364  11.391   4.688 -0.2459  0.3972  0.5471
  186MOL0     C24989   6.405  11.461   4.816 -0.0141  0.1486  0.6252
  186MOL0     C24990   6.552  11.508   4.831  0.5857 -0.1712 -0.2604
  186MOL0     C24991   6.664  11.411   4.876 -0.1511 -0.2465  0.1910
  186MOL0     N24992   6.799  11.472   4.891 -0.5841 -0.6658 -0.3149
  186MOL0     C24993   6.848  11.540   5.003  0.8121  0.2265 -0.3244
  186MOL0     C24994   6.961  11.592   4.964 -0.3358 -0.4560 -0.8476
  186MOL0     C24995   7.056  11.663   5.053 -0.1293 -0.4866 -0.0641
  186MOL0     C24996   7.043  11.812   4.996  0.4421 -0.2777 -0.6290
  186MOL0     C24997   7.128  11.908   5.077  0.3068 -0.1456 -0.6822
  186MOL0     C24998   7.279  11.884   5.092 -0.0901 -0.2777  0.4598
  186MOL0     O24999   7.338  11.870   4.954  0.0118 -0.2457 -0.4904
  186MOL0     C25000   7.469  11.852   4.950  0.1229 -0.0912  0.3486
  186MOL0     C25001   7.526  11.802   4.835  0.0378 -0.3431  0.5435
  186MOL0     C25002   7.665  11.790   4.820  0.0391  0.0818 -0.5589
  186MOL0     C25003   7.746  11.823   4.928 -1.0610  0.5920 -0.1084
  186MOL0     C25004   7.896  11.813   4.899  0.9107  0.3742 -0.2210
  186MOL0     O25005   7.971  11.857   4.998 -0.4474  0.2222  0.1534
  186MOL0     C25006   8.104  11.843   4.988  0.6214 -0.1539  0.5801
  186MOL0     C25007   8.159  11.727   5.051 -0.2076 -0.5519 -0.1160
  186MOL0     C25008   8.297  11.710   5.066 -0.4634 -0.1095  0.3201
  186MOL0     C25009   8.387  11.810   5.017 -0.0574  0.8242 -0.3677
  186MOL0     O25010   8.526  11.777   5.008  0.4997  0.1152  0.2219
  186MOL0     C25011   8.583  11.748   5.130 -0.2792 -0.6069  0.3289
  186MOL0     C25012   8.724  11.721   5.080  0.1445 -1.1465 -0.3029
  186MOL0     C25013   8.818  11.736   5.197  0.7244  0.6889  0.2389
  186MOL0     C25014   8.966  11.688   5.178  0.3499  0.1691 -0.4067
  186MOL0     C25015   9.068  11.775   5.108  0.1390 -0.4492 -0.5353
  186MOL0     C25016   9.223  11.740   5.140  0.3205  1.1673  0.8430
  186MOL0     C25017   9.326  11.805   5.044  0.6369  0.2046 -0.7346
  186MOL0     C25018   9.470  11.783   5.090 -0.3577 -0.5528 -0.3272
  186MOL0    Cl25019   9.584  11.858   4.966  0.3059  0.1247  0.2150
  186MOL0     C25020   8.336  11.927   4.951  0.4860  0.3191  0.6964
  186MOL0     C25021   8.197  11.945   4.938 -0.7414 -0.1859 -0.2914
  186MOL0     O25022   7.936  11.774   4.786  1.2732  0.7235 -0.6630
  186MOL0     C25023   7.693  11.862   5.046  0.3069 -0.0677  0.1097
  186MOL0     C25024   7.556  11.886   5.051 -0.1686 -0.2084 -1.8461
  186MOL0     N25025   6.984  11.567   4.830  0.0901  0.2987  0.0233
  186MOL0     N25026   6.884  11.501   4.791  0.6641  0.7635  0.1096
  186MOL0     C25027   5.731  11.055   4.866  0.3858  0.4475 -0.9228
  186MOL0     C25028   5.647  10.956   4.922  0.3309 -0.3365 -0.5614
  186MOL0     C25029   5.465  10.617   5.140 -0.0416  0.6023  0.9314
  186MOL0     C25030   5.425  10.515   5.046  0.0504 -0.3185  0.6629
  186MOL0     C25031   5.369  10.403   5.099  0.0181 -0.2436  0.4230
  186MOL0     C25032   5.336  10.386   5.235  0.0215 -0.5014  0.6883
  186MOL0     O25033   5.292  10.264   5.284 -0.4649 -0.2862  0.8650
  186MOL0     C25034   5.169  10.214   5.230  0.3203  0.4180 -0.2749
  186MOL0     C25035   5.142  10.077   5.282 -0.0976 -0.1801 -0.0086
  186MOL0     C25036   5.250   9.986   5.228  0.0004  0.2841  0.1131
  186MOL0     C25037   5.203   9.829   5.226 -0.0631 -0.1768 -0.0174
  186MOL0     C25038   5.322   9.750   5.180 -0.3199 -0.6496 -0.1983
  186MOL0     C25039   5.417   9.679   5.152 -0.0985  0.0927  1.0415
  186MOL0     C25040   5.367  10.490   5.323 -1.1886 -0.4204  0.0933
  186MOL0     C25041   5.430  10.604   5.275  0.0874 -0.0594 -0.3898
  186MOL0     C25042   5.457  10.716   5.385 -0.1511 -0.3685  0.3814
  186MOL0     H25043   5.865  10.709   4.989 -0.9167 -0.0231 -1.6227
  186MOL0     H25044   6.017  10.857   4.890  1.8052  2.1306  2.3552
  186MOL0     H25045   6.138  11.046   4.844 -2.1643 -0.5896  0.6146
  186MOL0     H25046   6.071  10.978   4.698 -3.2008 -0.4706  0.2512
  186MOL0     H25047   6.114  11.159   4.567 -3.3946  0.5367  0.5175
  186MOL0     H25048   6.261  11.142   4.679  0.5840  3.1857 -2.1995
  186MOL0     H25049   6.140  11.323   4.827 -1.9559 -1.2017 -0.2373
  186MOL0     H25050   6.031  11.352   4.700 -0.7097 -1.3460  1.5236
  186MOL0     H25051   6.217  11.396   4.532  2.0190 -0.2707  0.1733
  186MOL0     H25052   6.197  11.508   4.663  1.9643  0.1341  1.6039
  186MOL0     H25053   6.386  11.284   4.698  3.1320  1.0530  1.3715
  186MOL0     H25054   6.427  11.433   4.609  4.0232 -3.2170  1.5558
  186MOL0     H25055   6.344  11.550   4.828 -0.6079 -0.3093  1.0424
  186MOL0     H25056   6.368  11.400   4.899 -4.4667  1.9494  0.2513
  186MOL0     H25057   6.553  11.587   4.907  1.9597  0.5655 -0.9929
  186MOL0     H25058   6.584  11.558   4.739  0.9755  0.0717  0.0048
  186MOL0     H25059   6.650  11.358   4.971  2.4539  0.7073  1.2035
  186MOL0     H25060   6.670  11.340   4.792  1.3263 -2.3321  1.9360
  186MOL0     H25061   6.795  11.552   5.097  0.4874  3.7839 -0.8104
  186MOL0     H25062   7.026  11.642   5.156 -0.1712 -1.5260 -0.2808
  186MOL0     H25063   7.151  11.613   5.032  1.3754  1.5090  1.5628
  186MOL0     H25064   7.084  11.803   4.895  1.7981  0.7995 -0.1986
  186MOL0     H25065   6.941  11.850   4.984  0.9996  0.8407 -2.0857
  186MOL0     H25066   7.086  11.927   5.177  2.7769  2.8540 -0.0592
  186MOL0     H25067   7.110  12.011   5.043  1.3559  0.3623  0.2271
  186MOL0     H25068   7.306  11.797   5.153 -0.3340  0.0502  1.0416
  186MOL0     H25069   7.325  11.977   5.128 -0.4650 -0.1550  0.6286
  186MOL0     H25070   7.459  11.801   4.750 -0.9961  0.0963  1.3265
  186MOL0     H25071   7.706  11.760   4.724  0.8850  0.9157 -0.4694
  186MOL0     H25072   8.094  11.654   5.098  2.2622 -2.4210  0.6484
  186MOL0     H25073   8.335  11.617   5.106  2.7002  1.2264  0.8000
  186MOL0     H25074   8.575  11.833   5.198 -3.1657  0.7008 -1.4701
  186MOL0     H25075   8.549  11.656   5.178 -0.1839 -1.2137 -0.7141
  186MOL0     H25076   8.728  11.619   5.040 -0.3599 -1.0028 -0.7185
  186MOL0     H25077   8.754  11.794   5.004  0.7609 -1.6303 -0.5419
  186MOL0     H25078   8.815  11.837   5.239  3.2789  0.6703  0.6330
  186MOL0     H25079   8.772  11.684   5.282  1.2705  1.3409  0.9479
  186MOL0     H25080   8.965  11.589   5.131  2.1931 -1.3223  2.4625
  186MOL0     H25081   9.000  11.678   5.281  1.3661 -1.5215 -0.8782
  186MOL0     H25082   9.046  11.879   5.133 -2.0864 -0.8100 -0.7931
  186MOL0     H25083   9.061  11.768   4.999  0.7683 -0.4278 -0.5791
  186MOL0     H25084   9.251  11.773   5.241  0.0278  0.5506  1.1294
  186MOL0     H25085   9.231  11.632   5.130 -2.8004  1.0426 -2.4541
  186MOL0     H25086   9.303  11.912   5.044  1.3804  0.3917 -2.3828
  186MOL0     H25087   9.311  11.773   4.940  1.0399 -0.6101 -0.5447
  186MOL0     H25088   9.492  11.828   5.187  0.4553 -2.2303  0.2990
  186MOL0     H25089   9.479  11.676   5.108  0.6515 -0.4905 -0.4448
  186MOL0     H25090   8.392  12.005   4.900 -0.7104  0.0511 -1.1180
  186MOL0     H25091   8.166  12.036   4.888 -0.2651  2.7583  4.2248
  186MOL0     H25092   7.748  11.886   5.136  1.5527 -0.4915 -0.5110
  186MOL0     H25093   7.523  11.938   5.141 -1.6862  0.4050 -2.7090
  186MOL0     H25094   5.696  11.149   4.826 -2.4019 -0.1696 -0.1834
  186MOL0     H25095   5.540  10.977   4.913 -0.4207 -3.4000  0.1579
  186MOL0     H25096   5.423  10.525   4.938 -2.5958 -1.4875  0.5005
  186MOL0     H25097   5.326  10.336   5.025 -0.0300  0.4240 -0.1679
  186MOL0     H25098   5.187  10.208   5.122  1.6284 -1.0316  0.0008
  186MOL0     H25099   5.082  10.280   5.246 -1.3665 -1.9005  0.6947
  186MOL0     H25100   5.046  10.042   5.243  0.4704 -1.0370 -0.6887
  186MOL0     H25101   5.142  10.069   5.391  1.2502  1.6537  0.1783
  186MOL0     H25102   5.351  10.006   5.265  0.8027  0.1034 -1.8206
  186MOL0     H25103   5.250  10.015   5.122  0.1838  0.2619  0.1066
  186MOL0     H25104   5.155   9.801   5.321 -0.0118  2.0992  0.7446
  186MOL0     H25105   5.127   9.819   5.148 -2.7651  2.3540  2.0762
  186MOL0     H25106   5.510   9.628   5.135 -0.1154 -0.3972  2.3158
  186MOL0     H25107   5.339  10.486   5.427  0.6577  0.5100  0.6759
  186MOL0     H25108   5.392  10.802   5.366  0.8798  0.2822 -0.3178
  186MOL0     H25109   5.434  10.673   5.483 -0.3246  0.4440  0.7056
  186MOL0     H25110   5.559  10.753   5.374 -0.0949 -0.8321 -0.9543
  187MOL0     O25111   9.157   4.080   9.800 -0.2660 -0.2305 -0.4174
  187MOL0     C25112   9.194   3.971   9.846 -0.7169  0.6532 -0.4765
  187MOL0     O25113   9.327   3.935   9.868 -0.0439  0.1340 -0.2093
  187MOL0     C25114   9.429   4.030   9.847  0.7024 -0.2626 -0.5613
  187MOL0     C25115   9.445   4.096   9.730 -1.0496  0.0504 -0.4618
  187MOL0     C25116   9.545   4.197   9.710 -0.8849 -0.0220  0.2706
  187MOL0     C25117   9.643   4.215   9.819  0.5276  0.0373  0.5036
  187MOL0     O25118   9.762   4.287   9.811 -0.2946 -0.4364  0.4758
  187MOL0     C25119   9.847   4.233   9.714 -0.0130 -1.3919  0.7601
  187MOL0     C25120   9.923   4.119   9.777 -0.3048 -0.9292 -0.1115
  187MOL0     C25121  10.020   4.181   9.878  0.2436 -0.5478  0.4528
  187MOL0     C25122  10.154   4.202   9.806 -0.2517 -0.1316  0.4507
  187MOL0     C25123  10.272   4.263   9.887  0.3232  0.3574 -0.0919
  187MOL0     C25124  10.307   4.152   9.986 -0.4597 -0.1111  0.3718
  187MOL0     C25125  10.432   4.182  10.071 -0.0873 -0.3107 -0.8017
  187MOL0     C25126  10.440   4.109  10.201  0.1119  0.2174  0.1429
  187MOL0     N25127  10.573   4.127  10.260  0.5421  0.1622 -0.1865
  187MOL0     C25128  10.635   4.012  10.299  0.4863 -0.3792  0.0553
  187MOL0     C25129  10.757   4.053  10.337  0.0451 -0.4491  0.5493
  187MOL0     C25130  10.864   3.963  10.408  0.0673  0.1111  0.6741
  187MOL0     C25131  10.889   3.826  10.333  0.1386 -0.1211  0.8871
  187MOL0     C25132  10.945   3.847  10.190  0.5612  0.4079 -0.6982
  187MOL0     C25133  11.012   3.715  10.143 -0.7057 -0.2875 -0.6897
  187MOL0     O25134  10.913   3.618  10.127 -0.5240  0.0587 -0.3143
  187MOL0     C25135  10.839   3.607  10.008  0.5485  0.8599 -0.6010
  187MOL0     C25136  10.757   3.491   9.983  0.5865  0.1634  0.0053
  187MOL0     C25137  10.694   3.463   9.857  0.0480 -0.8156  0.4146
  187MOL0     C25138  10.719   3.546   9.743  0.5704  0.4690  0.4154
  187MOL0     C25139  10.645   3.518   9.612  0.1938  0.5865  0.0279
  187MOL0     O25140  10.570   3.404   9.591 -0.0018 -0.0403  0.0872
  187MOL0     C25141  10.497   3.390   9.470 -0.2960 -0.3341 -0.3230
  187MOL0     C25142  10.545   3.411   9.336 -0.2054  1.1296 -0.3444
  187MOL0     C25143  10.459   3.409   9.227  0.6309 -0.1547  0.4910
  187MOL0     C25144  10.326   3.381   9.242 -0.4468  0.3392 -0.4884
  187MOL0     O25145  10.248   3.367   9.129 -0.3404  0.5229 -0.1110
  187MOL0     C25146  10.108   3.405   9.129  0.2297  0.0213 -0.1863
  187MOL0     C25147  10.095   3.556   9.123 -0.8048  1.1766  0.6113
  187MOL0     C25148  10.160   3.624   8.995 -0.0912 -0.1139 -0.2441
  187MOL0     C25149  10.158   3.782   8.983 -0.1988 -0.2577 -0.2212
  187MOL0     C25150  10.299   3.846   8.982  0.6248 -0.4483 -0.0817
  187MOL0     C25151  10.370   3.826   9.115 -0.0862  0.2273  0.5021
  187MOL0     C25152  10.510   3.887   9.098  1.1825  0.2443 -0.0854
  187MOL0     C25153  10.591   3.874   9.222  0.6303  0.3407 -0.6003
  187MOL0    Cl25154  10.752   3.927   9.189 -0.4337  0.0712  0.3706
  187MOL0     C25155  10.279   3.355   9.370  0.2194  0.3334  0.1333
  187MOL0     C25156  10.364   3.359   9.479  0.1445 -0.1333 -0.6094
  187MOL0     O25157  10.653   3.606   9.529  0.0167 -0.0869 -1.1479
  187MOL0     C25158  10.804   3.658   9.761 -1.0975 -0.2329 -0.4452
  187MOL0     C25159  10.857   3.685   9.893 -0.2091 -0.1776  0.1592
  187MOL0     N25160  10.772   4.187  10.307  0.3809  0.1977  0.4007
  187MOL0     N25161  10.660   4.229  10.261 -0.6092 -0.0304  0.2765
  187MOL0     C25162   9.618   4.142   9.936 -0.0798 -0.4926 -0.0246
  187MOL0     C25163   9.512   4.055   9.947  1.0802  0.2313 -0.5175
  187MOL0     C25164   9.086   3.882   9.870 -0.2499  0.4006 -0.6429
  187MOL0     C25165   9.113   3.748   9.836  0.6040  0.2614  0.2367
  187MOL0     C25166   9.012   3.651   9.841  0.3443  0.6696 -0.1632
  187MOL0     C25167   8.883   3.678   9.891 -0.7787 -0.5583 -0.0655
  187MOL0     O25168   8.791   3.573   9.892 -0.6894  0.3266 -0.2633
  187MOL0     C25169   8.666   3.598   9.956  0.5507 -0.0041 -0.4818
  187MOL0     C25170   8.574   3.649   9.844  0.7511  0.6744 -0.4545
  187MOL0     C25171   8.433   3.684   9.906 -0.2262  0.1104 -0.5703
  187MOL0     C25172   8.421   3.838   9.937 -0.8639 -0.0213  0.9078
  187MOL0     C25173   8.285   3.888   9.927 -0.3416  0.5430 -0.1347
  187MOL0     C25174   8.171   3.923   9.923  0.2244 -0.2602  0.1779
  187MOL0     C25175   8.855   3.814   9.933 -0.6034 -0.0549  0.1141
  187MOL0     C25176   8.953   3.913   9.918 -1.0819 -0.9039  0.7004
  187MOL0     C25177   8.911   4.057   9.938  0.1996 -0.8834 -0.0242
  187MOL0     H25178   9.381   4.072   9.645 -2.2568 -1.8028  0.9025
  187MOL0     H25179   9.551   4.238   9.610 -2.6196  0.4786  0.3468
  187MOL0     H25180   9.791   4.206   9.624  0.1914  2.8525 -0.8797
  187MOL0     H25181   9.925   4.305   9.685 -1.5205  0.5327  1.2900
  187MOL0     H25182   9.993   4.074   9.707 -0.2934 -0.6305 -0.2892
  187MOL0     H25183   9.849   4.045   9.808 -1.5296 -0.3274 -1.5012
  187MOL0     H25184  10.033   4.101   9.952  1.4690 -2.3339 -1.5636
  187MOL0     H25185   9.988   4.277   9.919  0.3541  1.2189 -3.2049
  187MOL0     H25186  10.187   4.108   9.762  2.8713  1.3603 -0.7326
  187MOL0     H25187  10.139   4.277   9.728 -3.1834  0.1769  1.1971
  187MOL0     H25188  10.354   4.286   9.819 -0.6352  0.4192 -1.2533
  187MOL0     H25189  10.231   4.348   9.943  2.1795  1.5934 -0.5478
  187MOL0     H25190  10.220   4.142  10.052 -0.4625 -2.6059  0.0790
  187MOL0     H25191  10.317   4.056   9.934  0.7752 -0.6064  1.4750
  187MOL0     H25192  10.434   4.290  10.085 -1.1197 -0.3231 -0.4998
  187MOL0     H25193  10.519   4.162  10.007  0.3012  0.8244 -0.6415
  187MOL0     H25194  10.362   4.148  10.266 -1.5864 -2.7646  0.0982
  187MOL0     H25195  10.410   4.006  10.179  1.9136  0.0136 -1.7468
  187MOL0     H25196  10.587   3.915  10.301 -0.3616  0.0331  0.4143
  187MOL0     H25197  10.958   4.018  10.410  1.1143 -1.6193  2.1597
  187MOL0     H25198  10.834   3.937  10.510  0.9119 -0.0116  0.8962
  187MOL0     H25199  10.958   3.770  10.396 -3.3550 -0.6900  4.6596
  187MOL0     H25200  10.793   3.774  10.325 -2.0151  3.7350 -2.1285
  187MOL0     H25201  11.022   3.925  10.190  1.4515 -0.4489 -1.7246
  187MOL0     H25202  10.866   3.881  10.122  0.2754  2.0246  0.3819
  187MOL0     H25203  11.069   3.673  10.227 -0.1017  4.2354  1.4578
  187MOL0     H25204  11.069   3.717  10.050 -1.8811 -0.9536 -1.4563
  187MOL0     H25205  10.736   3.424  10.066 -4.0600 -0.3730 -1.2882
  187MOL0     H25206  10.625   3.380   9.848 -0.8970  0.0456 -0.5865
  187MOL0     H25207  10.651   3.435   9.329 -0.0666  2.5020  3.6752
  187MOL0     H25208  10.501   3.441   9.133 -1.2924 -4.1131 -2.0112
  187MOL0     H25209  10.055   3.343   9.056  0.4581 -2.0331  1.3019
  187MOL0     H25210  10.058   3.388   9.225  0.7812  4.4372  1.1038
  187MOL0     H25211   9.987   3.575   9.132 -0.9710  0.7947 -0.4151
  187MOL0     H25212  10.145   3.611   9.203  0.4717  1.2478 -0.2072
  187MOL0     H25213  10.262   3.587   8.987  0.3277  0.1723  2.7700
  187MOL0     H25214  10.106   3.579   8.911  0.8966 -3.0867  0.5875
  187MOL0     H25215  10.102   3.811   9.072 -0.5985  1.9468 -1.1393
  187MOL0     H25216  10.102   3.815   8.895  1.0303 -2.5878 -1.9798
  187MOL0     H25217  10.285   3.953   8.966 -1.9325 -0.6189  0.5983
  187MOL0     H25218  10.350   3.812   8.891 -2.3798 -1.8616 -1.3634
  187MOL0     H25219  10.313   3.873   9.197  1.3317  0.3372  1.4576
  187MOL0     H25220  10.389   3.722   9.143  3.1886  0.3452 -0.9264
  187MOL0     H25221  10.499   3.994   9.075 -3.2273 -0.6646 -3.8288
  187MOL0     H25222  10.569   3.841   9.018  0.3032 -0.4705 -0.3445
  187MOL0     H25223  10.562   3.923   9.315 -0.9987 -1.1123 -0.2751
  187MOL0     H25224  10.597   3.770   9.256 -3.2964  0.6883  1.7617
  187MOL0     H25225  10.178   3.317   9.390  0.5235 -0.2556  0.6086
  187MOL0     H25226  10.319   3.333   9.574 -1.5665  0.9110 -1.0922
  187MOL0     H25227  10.833   3.722   9.678  2.5783 -2.2106 -0.9143
  187MOL0     H25228  10.936   3.759   9.898  1.4385 -1.8338 -0.3811
  187MOL0     H25229   9.694   4.155  10.012 -2.6844  3.6491  2.2247
  187MOL0     H25230   9.488   3.999  10.037 -1.6424  1.1215 -0.5691
  187MOL0     H25231   9.207   3.715   9.793 -1.3263 -3.1465 -1.8240
  187MOL0     H25232   9.035   3.548   9.813  2.5305  0.4961  1.9540
  187MOL0     H25233   8.670   3.656  10.048  0.1496 -1.5165  0.5218
  187MOL0     H25234   8.619   3.505   9.988  0.8207 -0.6500 -1.8577
  187MOL0     H25235   8.565   3.570   9.769 -1.5910  1.2797 -0.8901
  187MOL0     H25236   8.614   3.730   9.783  3.0228 -2.4770 -3.6033
  187MOL0     H25237   8.412   3.626   9.996  0.7242  0.1278 -0.3335
  187MOL0     H25238   8.356   3.645   9.839 -1.1289  0.2464  0.3582
  187MOL0     H25239   8.486   3.869  10.020  3.1718 -1.3788 -1.4792
  187MOL0     H25240   8.473   3.900   9.865 -1.1320  0.0140  0.7408
  187MOL0     H25241   8.071   3.962   9.926 -0.7789 -2.4735 -1.5303
  187MOL0     H25242   8.766   3.845   9.987 -1.1412  0.2104 -0.8932
  187MOL0     H25243   8.983   4.117   9.993  1.4878 -0.4368 -2.1040
  187MOL0     H25244   8.884   4.112   9.847 -0.7876 -1.2390  0.0338
  187MOL0     H25245   8.819   4.064   9.997  0.5158  1.3758  0.2882
  188MOL0     O25246   8.995   6.123  11.347 -0.5849 -0.9287 -0.1791
  188MOL0     C25247   9.110   6.081  11.339 -0.7123 -0.6647 -0.9118
  188MOL0     O25248   9.222   6.141  11.368 -0.7612 -0.2713  0.4003
  188MOL0     C25249   9.210   6.274  11.385 -0.0619 -0.0259 -0.8782
  188MOL0     C25250   9.290   6.347  11.301  0.6648  0.0008  0.3797
  188MOL0     C25251   9.299   6.485  11.318 -0.2935 -0.0890 -0.2474
  188MOL0     C25252   9.211   6.553  11.411 -0.2563  0.9774  1.2509
  188MOL0     O25253   9.225   6.684  11.415  0.3040 -0.5607 -0.3453
  188MOL0     C25254   9.124   6.762  11.477 -0.2118  1.3067 -0.5021
  188MOL0     C25255   9.143   6.911  11.439 -0.1772  1.3581  0.0930
  188MOL0     C25256   9.285   6.962  11.474 -0.1978 -0.4848 -0.0576
  188MOL0     C25257   9.304   7.105  11.417 -0.8125  0.5168  0.1765
  188MOL0     C25258   9.454   7.147  11.388  0.1001 -0.4291 -0.3331
  188MOL0     C25259   9.460   7.295  11.358 -0.0474  0.1080  0.2782
  188MOL0     C25260   9.585   7.347  11.302  0.7710  0.2465  0.1434
  188MOL0     C25261   9.718   7.323  11.387  0.0244  0.1805  0.6227
  188MOL0     N25262   9.837   7.414  11.348  1.5208 -0.3495 -0.4569
  188MOL0     C25263   9.876   7.466  11.230  0.3306 -0.6577 -0.5275
  188MOL0     C25264   9.997   7.518  11.247  0.0346  0.3205  0.7636
  188MOL0     C25265  10.068   7.584  11.138 -0.3049  0.0283  0.6992
  188MOL0     C25266  10.138   7.479  11.044  0.2377  0.1733 -1.2566
  188MOL0     C25267  10.253   7.393  11.107 -0.3744 -0.5575  0.4295
  188MOL0     C25268  10.390   7.453  11.162  1.4181 -0.0707  0.1493
  188MOL0     O25269  10.458   7.530  11.065  0.4940 -0.1283  0.2515
  188MOL0     C25270  10.535   7.474  10.977 -0.2015  0.7309 -0.1326
  188MOL0     C25271  10.584   7.342  10.983 -0.5799  0.3632 -0.0995
  188MOL0     C25272  10.676   7.297  10.897 -0.1595 -0.2213 -0.1033
  188MOL0     C25273  10.717   7.376  10.787 -0.0429 -0.3112 -0.4022
  188MOL0     C25274  10.829   7.337  10.702 -0.4039 -0.1923  0.3035
  188MOL0     O25275  10.866   7.207  10.699 -0.0358  0.2013  0.7237
  188MOL0     C25276  10.971   7.160  10.626 -0.5523  0.1747  0.4338
  188MOL0     C25277  10.970   7.036  10.572 -0.1719  0.3310  0.3821
  188MOL0     C25278  11.076   6.984  10.501 -0.1632 -0.1636 -0.8192
  188MOL0     C25279  11.194   7.056  10.490 -0.6435  0.1981 -0.1095
  188MOL0     O25280  11.310   6.982  10.441  0.6746 -0.6039  0.5095
  188MOL0     C25281  11.413   7.062  10.365  0.0262  0.2720  0.2327
  188MOL0     C25282  11.360   7.085  10.222  0.0268  0.1904 -0.9115
  188MOL0     C25283  11.303   6.963  10.141 -0.7890 -0.6148  0.5179
  188MOL0     C25284  11.402   6.842  10.113  0.2700  0.5201 -0.4198
  188MOL0     C25285  11.320   6.732  10.047  0.2778  0.8423 -0.2378
  188MOL0     C25286  11.341   6.603  10.138 -0.0717  0.1844  0.6396
  188MOL0     C25287  11.265   6.474  10.089 -0.4473 -0.0808 -0.3023
  188MOL0     C25288  11.146   6.446  10.174 -0.2309  0.2372 -0.2165
  188MOL0    Cl25289  11.032   6.589  10.163  0.0027 -0.1943 -0.1005
  188MOL0     C25290  11.202   7.180  10.552 -1.1417 -0.3552  0.4061
  188MOL0     C25291  11.089   7.232  10.614  0.0436 -0.0139  0.5237
  188MOL0     O25292  10.889   7.437  10.646  0.1614  0.4213  0.2637
  188MOL0     C25293  10.662   7.503  10.774  0.6510 -0.3919 -0.5837
  188MOL0     C25294  10.577   7.551  10.875  1.1041 -0.1958  0.3020
  188MOL0     N25295  10.032   7.508  11.378  0.3469  0.4882  0.0211
  188MOL0     N25296   9.935   7.442  11.437 -0.0545  0.0750  0.5568
  188MOL0     C25297   9.122   6.477  11.481  0.3604 -0.8334  0.6891
  188MOL0     C25298   9.120   6.339  11.467  1.0220  1.0231 -0.1851
  188MOL0     C25299   9.115   5.934  11.325  0.4592  0.1106  0.9187
  188MOL0     C25300   9.136   5.868  11.204 -0.0855 -0.4443 -0.1584
  188MOL0     C25301   9.143   5.725  11.205 -0.9491  0.0984 -0.2682
  188MOL0     C25302   9.128   5.648  11.316 -0.5199  0.6156 -0.4580
  188MOL0     O25303   9.121   5.510  11.301 -0.5327  0.4412 -0.1914
  188MOL0     C25304   9.117   5.422  11.419 -0.0564 -0.7912  0.1176
  188MOL0     C25305   9.243   5.409  11.509 -0.1544  0.5792 -0.0241
  188MOL0     C25306   9.382   5.397  11.436 -0.1367 -0.2766  0.4243
  188MOL0     C25307   9.507   5.411  11.518 -0.6562 -0.9570  0.3553
  188MOL0     C25308   9.628   5.404  11.440 -0.0830 -0.0292  0.5640
  188MOL0     C25309   9.725   5.404  11.371 -0.3742  0.1315 -0.2907
  188MOL0     C25310   9.114   5.711  11.434 -0.3511 -1.3031 -0.0360
  188MOL0     C25311   9.108   5.851  11.439 -0.0224 -0.1613  0.2755
  188MOL0     C25312   9.110   5.910  11.579  0.3779 -0.5779 -1.2692
  188MOL0     H25313   9.369   6.302  11.241  0.5567  0.7474 -0.3601
  188MOL0     H25314   9.358   6.542  11.247 -2.0764 -0.4733 -2.1405
  188MOL0     H25315   9.021   6.737  11.447  0.3787  0.4276 -1.8914
  188MOL0     H25316   9.120   6.754  11.586 -2.9452  2.8654 -0.3813
  188MOL0     H25317   9.070   6.974  11.491  0.0474  2.2105 -0.6043
  188MOL0     H25318   9.123   6.931  11.333 -1.4572 -2.0639 -0.4272
  188MOL0     H25319   9.354   6.888  11.434  0.6656  0.6153 -0.6646
  188MOL0     H25320   9.305   6.962  11.581 -0.8911 -0.1260  0.0780
  188MOL0     H25321   9.249   7.099  11.322 -0.3024  1.1172 -0.1652
  188MOL0     H25322   9.253   7.174  11.485 -0.2412  0.9285  0.1923
  188MOL0     H25323   9.502   7.125  11.484 -0.8745 -1.9676 -0.1633
  188MOL0     H25324   9.506   7.081  11.318  2.6609 -0.0669  1.0993
  188MOL0     H25325   9.384   7.317  11.283 -0.3229 -1.2114  0.1410
  188MOL0     H25326   9.439   7.346  11.452 -1.8585 -1.5451  0.8526
  188MOL0     H25327   9.570   7.454  11.289  2.7552  0.8002  1.8329
  188MOL0     H25328   9.606   7.301  11.205  0.2662 -0.1409  0.2095
  188MOL0     H25329   9.692   7.342  11.491 -0.5801 -1.3728  0.7736
  188MOL0     H25330   9.745   7.217  11.390 -5.3340 -1.4238  2.9281
  188MOL0     H25331   9.832   7.435  11.136  0.4746  1.5291 -1.3655
  188MOL0     H25332   9.993   7.642  11.083 -1.1301 -2.2944 -0.7682
  188MOL0     H25333  10.142   7.656  11.175 -1.0304  1.4724 -0.5316
  188MOL0     H25334  10.070   7.403  11.006 -2.3256  1.9672 -0.5180
  188MOL0     H25335  10.170   7.548  10.965  0.3401  2.4988  0.6818
  188MOL0     H25336  10.286   7.325  11.028 -1.5765  1.6182 -2.0879
  188MOL0     H25337  10.217   7.330  11.189  0.6220 -1.1879  0.4046
  188MOL0     H25338  10.450   7.376  11.212 -0.7650 -1.9277  0.0967
  188MOL0     H25339  10.355   7.512  11.247 -0.1492 -0.5158 -0.1488
  188MOL0     H25340  10.553   7.280  11.066 -0.3898  0.0807 -0.2350
  188MOL0     H25341  10.709   7.194  10.909 -2.0045 -1.1194 -2.1156
  188MOL0     H25342  10.878   6.980  10.587  0.9278 -1.3852  1.0837
  188MOL0     H25343  11.058   6.886  10.458  1.9189 -1.3386  0.7738
  188MOL0     H25344  11.444   7.150  10.423 -1.9767  1.0305  0.2531
  188MOL0     H25345  11.502   6.998  10.365 -1.2880 -1.6808 -1.1541
  188MOL0     H25346  11.267   7.142  10.233  0.2295  0.2400  0.7897
  188MOL0     H25347  11.434   7.141  10.164  0.0080  0.8505 -0.3142
  188MOL0     H25348  11.223   6.922  10.204 -0.1176 -1.3904  0.8712
  188MOL0     H25349  11.258   6.999  10.048  2.1718  1.9326 -0.1096
  188MOL0     H25350  11.445   6.812  10.209  0.3806  5.3194  1.2964
  188MOL0     H25351  11.478   6.885  10.047 -1.6536 -1.5917 -4.3527
  188MOL0     H25352  11.358   6.715   9.946  0.2095 -0.9246  0.0118
  188MOL0     H25353  11.213   6.752  10.039  0.5989  3.7493  1.1639
  188MOL0     H25354  11.447   6.579  10.137  0.3017  1.6571  1.4191
  188MOL0     H25355  11.310   6.618  10.242 -0.6533 -0.3798  0.5542
  188MOL0     H25356  11.334   6.392  10.109  0.0116  0.6715  1.3473
  188MOL0     H25357  11.235   6.477   9.984  0.7742  1.9125 -0.6536
  188MOL0     H25358  11.096   6.353  10.145  1.1120 -0.2980 -0.8698
  188MOL0     H25359  11.173   6.438  10.279  0.0188  1.5053 -0.1629
  188MOL0     H25360  11.296   7.236  10.553 -2.1865  1.4705  1.5009
  188MOL0     H25361  11.085   7.333  10.654  2.0483  1.1284 -1.8974
  188MOL0     H25362  10.677   7.562  10.684 -2.0136 -1.0718 -1.5718
  188MOL0     H25363  10.518   7.641  10.863  0.5164 -0.3513  1.7453
  188MOL0     H25364   9.059   6.514  11.561  2.2956  0.8060  1.5294
  188MOL0     H25365   9.055   6.282  11.534  1.2875  0.5380 -0.3364
  188MOL0     H25366   9.134   5.927  11.113 -3.7137  0.6712  0.4789
  188MOL0     H25367   9.157   5.672  11.111  0.2375  2.1467 -1.3184
  188MOL0     H25368   9.096   5.321  11.383  0.1205 -0.3649 -1.2428
  188MOL0     H25369   9.029   5.451  11.478  0.8612 -1.4671  1.9125
  188MOL0     H25370   9.237   5.330  11.584  3.5605  0.8606  0.7954
  188MOL0     H25371   9.252   5.504  11.565  1.6905  0.8793 -0.7441
  188MOL0     H25372   9.388   5.481  11.366  0.6529  0.4318  1.3172
  188MOL0     H25373   9.388   5.303  11.380  0.8561 -0.0591  0.1399
  188MOL0     H25374   9.508   5.491  11.593 -0.7097 -0.3205 -0.3168
  188MOL0     H25375   9.501   5.320  11.579 -2.3372 -0.4226  1.0383
  188MOL0     H25376   9.817   5.409  11.316 -0.0682  0.6395  0.2626
  188MOL0     H25377   9.115   5.655  11.527  0.5073  3.5409  3.3023
  188MOL0     H25378   9.179   5.992  11.600  0.0045 -0.9375  1.7764
  188MOL0     H25379   9.007   5.947  11.583  0.8926  1.4247 -3.5646
  188MOL0     H25380   9.115   5.841  11.663 -2.6090  1.9235  1.2366
  189MOL0     O25381   7.626   2.892   0.420 -0.6159 -1.0563 -0.1733
  189MOL0     C25382   7.619   3.014   0.391 -0.6751 -0.3345 -0.6153
  189MOL0     O25383   7.713   3.083   0.327  0.2489 -0.1205 -0.3745
  189MOL0     C25384   7.837   3.031   0.315 -1.3303 -0.8433 -0.5499
  189MOL0     C25385   7.935   3.062   0.412  0.4581  0.1546  0.5294
  189MOL0     C25386   8.074   3.031   0.385 -0.1375  0.3438  0.4972
  189MOL0     C25387   8.104   2.967   0.259 -0.6675 -0.1900  0.5610
  189MOL0     O25388   8.222   2.905   0.228 -0.0920 -0.2514 -0.0012
  189MOL0     C25389   8.326   2.925   0.325 -0.2379  0.4412 -0.5169
  189MOL0     C25390   8.445   2.847   0.290  0.3592  0.6783  0.6655
  189MOL0     C25391   8.514   2.923   0.169  0.4644 -0.2233 -0.3101
  189MOL0     C25392   8.649   2.851   0.144  0.7238  0.0781 -0.1643
  189MOL0     C25393   8.736   2.932   0.043 -0.2779 -0.4433 -0.2714
  189MOL0     C25394   8.848   2.839  -0.013 -0.3832 -0.6013 -1.4319
  189MOL0     C25395   8.972   2.838   0.089 -0.3987 -0.0677 -0.5974
  189MOL0     C25396   9.081   2.747   0.023 -0.8538 -0.5474 -0.3890
  189MOL0     N25397   9.209   2.746   0.095  0.1403  0.2502  0.5628
  189MOL0     C25398   9.254   2.654   0.193 -0.5533 -0.2835 -0.1612
  189MOL0     C25399   9.348   2.719   0.264  1.2426  0.3393 -0.5252
  189MOL0     C25400   9.431   2.674   0.377 -0.7291  0.3909 -0.5707
  189MOL0     C25401   9.577   2.646   0.339  0.3683 -0.7019 -0.2807
  189MOL0     C25402   9.649   2.780   0.307  0.3176 -0.4864  1.0180
  189MOL0     C25403   9.803   2.773   0.305  0.5740  0.4572  0.6044
  189MOL0     O25404   9.845   2.665   0.216 -0.5212 -0.0671  0.2832
  189MOL0     C25405   9.981   2.633   0.228  0.3928 -0.3771  0.8613
  189MOL0     C25406  10.085   2.719   0.270 -0.5804  0.4399 -0.9057
  189MOL0     C25407  10.210   2.659   0.271  0.3612 -0.2800 -0.6450
  189MOL0     C25408  10.237   2.525   0.248  0.2416  1.0255  0.4616
  189MOL0     C25409  10.375   2.469   0.245  0.9094  0.3314 -0.5659
  189MOL0     O25410  10.405   2.348   0.191  0.6234  0.0640 -0.2157
  189MOL0     C25411  10.531   2.322   0.155 -0.6197  1.1461 -0.0850
  189MOL0     C25412  10.579   2.185   0.155 -0.1849 -0.4825 -0.4763
  189MOL0     C25413  10.717   2.157   0.134 -0.2044 -0.0360 -0.3650
  189MOL0     C25414  10.791   2.248   0.056 -0.4545 -1.1558 -0.1134
  189MOL0     O25415  10.922   2.215   0.027  0.1492 -0.3281  0.6077
  189MOL0     C25416  11.014   2.310  -0.024  0.2584  0.0373  0.9383
  189MOL0     C25417  11.156   2.270  -0.004 -0.2615 -0.8952 -0.5760
  189MOL0     C25418  11.216   2.312   0.132 -0.4382  0.4895 -0.0096
  189MOL0     C25419  11.263   2.459   0.140 -0.3154 -0.7542 -0.7341
  189MOL0     C25420  11.333   2.493   0.274  0.7565  0.0388 -0.2351
  189MOL0     C25421  11.402   2.634   0.269 -0.4649 -0.0972 -0.8631
  189MOL0     C25422  11.474   2.659   0.403  0.2687  0.2645  0.2018
  189MOL0     C25423  11.518   2.810   0.414  0.8089 -0.0718 -0.0573
  189MOL0    Cl25424  11.375   2.919   0.450  0.4573  0.0193  0.1682
  189MOL0     C25425  10.733   2.369   0.009  0.4022  0.4074 -0.4544
  189MOL0     C25426  10.607   2.402   0.063  0.0179 -0.3878  0.4190
  189MOL0     O25427  10.460   2.546   0.287 -0.1654 -0.0990 -0.4746
  189MOL0     C25428  10.133   2.437   0.211  0.1009 -0.0576  0.0187
  189MOL0     C25429  10.000   2.496   0.207 -0.1423  0.4660 -0.3097
  189MOL0     N25430   9.347   2.850   0.215 -0.3805 -0.8012  0.7158
  189MOL0     N25431   9.280   2.860   0.106  0.3285 -0.0085  0.1579
  189MOL0     C25432   8.009   2.960   0.162 -0.1618 -0.5969  0.6587
  189MOL0     C25433   7.873   2.978   0.193  0.0879 -0.2738  0.0132
  189MOL0     C25434   7.483   3.073   0.398 -0.0811  0.5570 -0.8791
  189MOL0     C25435   7.370   2.998   0.417 -0.6028 -0.2515  0.1643
  189MOL0     C25436   7.249   3.054   0.446 -0.2475 -0.8804  0.4502
  189MOL0     C25437   7.228   3.186   0.425  0.1363 -0.8864  0.0162
  189MOL0     O25438   7.099   3.236   0.421 -0.0166  0.9250 -1.2106
  189MOL0     C25439   7.069   3.372   0.386  0.0342 -0.4744  0.2479
  189MOL0     C25440   7.107   3.400   0.239 -0.1932  0.0015  0.5089
  189MOL0     C25441   7.024   3.496   0.155 -0.5547  0.6111 -0.2230
  189MOL0     C25442   7.012   3.637   0.210 -0.1205 -0.9461  0.2928
  189MOL0     C25443   7.130   3.725   0.191  0.0752  0.4054  0.8460
  189MOL0     C25444   7.227   3.795   0.182 -0.1048  0.3556  0.4325
  189MOL0     C25445   7.340   3.268   0.428  0.6103  0.9410 -0.5769
  189MOL0     C25446   7.470   3.215   0.418 -0.0097 -1.0058  0.6159
  189MOL0     C25447   7.588   3.319   0.409 -0.2348  0.5206 -0.1941
  189MOL0     H25448   7.910   3.108   0.507  2.2174 -0.7092  1.4574
  189MOL0     H25449   8.151   3.059   0.456  2.0840 -1.6210 -0.9836
  189MOL0     H25450   8.359   3.028   0.335  3.1882 -0.5965  0.1930
  189MOL0     H25451   8.289   2.883   0.419 -1.7774 -1.1347 -1.7598
  189MOL0     H25452   8.426   2.741   0.268  0.7395  0.7645 -0.1397
  189MOL0     H25453   8.513   2.847   0.376  1.6703  2.9633 -0.2922
  189MOL0     H25454   8.530   3.030   0.182  1.3564 -0.7049  4.9127
  189MOL0     H25455   8.458   2.911   0.076  1.8910  2.7769 -1.6818
  189MOL0     H25456   8.711   2.844   0.234 -3.0607  0.8698  2.7637
  189MOL0     H25457   8.625   2.752   0.107 -1.3279 -0.1975  1.7294
  189MOL0     H25458   8.688   2.970  -0.048 -0.8811  0.6842  0.4976
  189MOL0     H25459   8.788   3.015   0.092 -1.2398  0.5586 -0.8945
  189MOL0     H25460   8.822   2.733  -0.018  1.0897 -1.0911  0.3120
  189MOL0     H25461   8.889   2.867  -0.111 -1.2024 -0.6322 -1.7867
  189MOL0     H25462   8.939   2.790   0.182  1.4615 -0.0512  0.1274
  189MOL0     H25463   9.004   2.942   0.094 -1.7025  0.3616 -0.8141
  189MOL0     H25464   9.050   2.642   0.018 -0.4827 -0.6759 -0.0252
  189MOL0     H25465   9.109   2.776  -0.079 -1.9538 -1.9796 -1.1340
  189MOL0     H25466   9.230   2.549   0.209 -2.9360  0.5575  2.5391
  189MOL0     H25467   9.439   2.747   0.458 -1.8473 -0.8046  0.6749
  189MOL0     H25468   9.380   2.586   0.416  0.2954 -1.2084 -2.6818
  189MOL0     H25469   9.626   2.605   0.427 -0.9457  1.1396  1.3794
  189MOL0     H25470   9.585   2.573   0.258  2.9130 -2.7372  1.6370
  189MOL0     H25471   9.626   2.857   0.381 -2.7307  1.8257 -2.0297
  189MOL0     H25472   9.609   2.809   0.209 -2.3118 -2.3222  1.4576
  189MOL0     H25473   9.838   2.761   0.408  0.7945 -0.7855  0.4051
  189MOL0     H25474   9.837   2.869   0.267 -1.5170  0.8733 -0.3669
  189MOL0     H25475  10.066   2.822   0.300 -1.6956 -0.7540  3.1342
  189MOL0     H25476  10.289   2.722   0.310 -1.4861  1.2192  0.9436
  189MOL0     H25477  10.518   2.114   0.211  1.4308 -1.6399 -0.0990
  189MOL0     H25478  10.765   2.067   0.170 -1.2882 -0.4693  0.0656
  189MOL0     H25479  10.983   2.319  -0.129  0.2611  3.4152  1.0992
  189MOL0     H25480  10.987   2.405   0.024 -0.2004 -0.4129  1.5854
  189MOL0     H25481  11.169   2.161  -0.004  1.3339 -0.7751 -2.3519
  189MOL0     H25482  11.219   2.315  -0.082  0.0773  0.8734  0.6755
  189MOL0     H25483  11.135   2.297   0.205 -1.2773  1.9886 -0.5889
  189MOL0     H25484  11.286   2.236   0.168  1.3380  1.5923 -1.0348
  189MOL0     H25485  11.177   2.524   0.127  0.4957  0.1118 -2.0347
  189MOL0     H25486  11.339   2.488   0.066  1.5668 -1.4316  0.8494
  189MOL0     H25487  11.403   2.410   0.282  0.4470 -0.1713  0.2753
  189MOL0     H25488  11.266   2.482   0.360 -2.0022  0.8226 -2.1398
  189MOL0     H25489  11.474   2.661   0.191  0.8980 -0.8107  0.1287
  189MOL0     H25490  11.325   2.711   0.253  0.6463  0.7362 -2.5926
  189MOL0     H25491  11.562   2.595   0.394 -1.0133 -1.2710 -3.0169
  189MOL0     H25492  11.412   2.631   0.488  1.1286 -1.4276  0.3001
  189MOL0     H25493  11.583   2.809   0.502 -0.5135 -3.0721  0.9894
  189MOL0     H25494  11.572   2.843   0.324 -0.1677  1.2306 -0.1940
  189MOL0     H25495  10.787   2.434  -0.059  0.9478 -0.1126 -0.5238
  189MOL0     H25496  10.577   2.503   0.037  1.3287 -0.5206 -1.8689
  189MOL0     H25497  10.145   2.331   0.188 -2.0193 -0.3888  0.2200
  189MOL0     H25498   9.918   2.431   0.180 -0.4103  0.8151 -0.3542
  189MOL0     H25499   8.037   2.916   0.067 -1.6556 -0.6121  0.2009
  189MOL0     H25500   7.797   2.979   0.115  0.1587  2.1737 -0.1183
  189MOL0     H25501   7.380   2.890   0.411  1.4894 -0.0249 -1.2257
  189MOL0     H25502   7.161   2.995   0.471 -1.7696  0.3432 -1.6758
  189MOL0     H25503   7.118   3.440   0.457 -2.5085  1.3685  0.3736
  189MOL0     H25504   6.962   3.394   0.398  0.6468  1.8237  2.4105
  189MOL0     H25505   7.105   3.300   0.193  0.5200 -1.0631  2.6668
  189MOL0     H25506   7.214   3.425   0.242  0.9491 -4.0697  1.6255
  189MOL0     H25507   6.927   3.446   0.145  0.2385 -0.8578 -0.8853
  189MOL0     H25508   7.057   3.486   0.051  0.9775 -1.3546  0.3805
  189MOL0     H25509   6.926   3.691   0.170 -0.2859  2.0136  4.0617
  189MOL0     H25510   7.004   3.618   0.318 -0.3577 -1.4174  0.1946
  189MOL0     H25511   7.313   3.854   0.156  0.8475  0.6583  3.7886
  189MOL0     H25512   7.312   3.373   0.428  2.2966  1.4411 -2.2664
  189MOL0     H25513   7.640   3.324   0.313  0.7290 -0.8634  0.2263
  189MOL0     H25514   7.548   3.419   0.426  1.0864  1.1361 -0.5945
  189MOL0     H25515   7.662   3.300   0.487  0.6011  1.3149 -0.7665
  190MOL0     O25516   5.092   0.532   3.827  0.0445 -0.1067 -0.2516
  190MOL0     C25517   5.097   0.535   3.699  0.0300 -0.7486  1.2553
  190MOL0     O25518   5.204   0.552   3.624  0.7740 -0.1166  0.0652
  190MOL0     C25519   5.311   0.604   3.689  0.1187 -0.9073 -0.4401
  190MOL0     C25520   5.325   0.705   3.788  0.9031 -0.0296 -1.3526
  190MOL0     C25521   5.448   0.728   3.849  0.6140  0.1755  0.1904
  190MOL0     C25522   5.566   0.664   3.814 -0.2471  0.0335  0.2983
  190MOL0     O25523   5.682   0.690   3.879 -0.3140  0.8151 -0.5604
  190MOL0     C25524   5.776   0.588   3.910 -0.2051  0.3675 -0.2352
  190MOL0     C25525   5.864   0.631   4.022  0.0365 -0.3912 -0.4465
  190MOL0     C25526   5.939   0.755   3.994  0.2865 -0.1090 -0.2918
  190MOL0     C25527   6.034   0.807   4.103  0.2736  0.1864  0.1109
  190MOL0     C25528   6.143   0.702   4.143 -0.3559 -0.2133  0.2054
  190MOL0     C25529   6.249   0.784   4.224 -0.7042  0.1931  0.2858
  190MOL0     C25530   6.374   0.703   4.269  0.2912 -0.0905 -0.1425
  190MOL0     C25531   6.455   0.773   4.385  0.1857  0.0560  0.2769
  190MOL0     N25532   6.574   0.696   4.425  0.0954 -0.8841  0.0605
  190MOL0     C25533   6.577   0.588   4.513 -0.5388  0.2197  0.3752
  190MOL0     C25534   6.709   0.552   4.506 -0.8492 -0.0748  0.9665
  190MOL0     C25535   6.779   0.429   4.563  0.0741 -0.0164 -0.2549
  190MOL0     C25536   6.906   0.471   4.651  0.2855  0.5060  0.2402
  190MOL0     C25537   7.027   0.467   4.555 -0.4969 -0.4160 -0.3002
  190MOL0     C25538   7.158   0.532   4.614  0.6445 -0.1970 -0.6464
  190MOL0     O25539   7.129   0.651   4.696 -0.3385 -0.9888  0.7346
  190MOL0     C25540   7.231   0.704   4.762 -0.6862 -0.9196 -0.4153
  190MOL0     C25541   7.191   0.776   4.875  0.4748 -0.4745 -0.4553
  190MOL0     C25542   7.281   0.829   4.974  0.3935  0.8294  0.3277
  190MOL0     C25543   7.421   0.810   4.941 -0.7680 -0.8537  0.1546
  190MOL0     C25544   7.525   0.844   5.037  0.1954  0.1829  0.3925
  190MOL0     O25545   7.629   0.915   4.990 -0.6376  0.5937  0.2930
  190MOL0     C25546   7.715   0.981   5.078 -0.5244 -0.0762 -0.3570
  190MOL0     C25547   7.747   0.957   5.217 -1.1330  2.2468  0.8710
  190MOL0     C25548   7.844   1.031   5.287  0.1948  0.5515 -0.5140
  190MOL0     C25549   7.914   1.136   5.222 -0.1731 -0.6922  0.5445
  190MOL0     O25550   8.015   1.213   5.279  0.1525  0.6690  0.4130
  190MOL0     C25551   8.083   1.171   5.394  0.8709 -0.7281 -0.2655
  190MOL0     C25552   8.227   1.227   5.393  0.6307  0.5769  0.2653
  190MOL0     C25553   8.324   1.158   5.501 -0.0952 -0.1026  0.9420
  190MOL0     C25554   8.460   1.236   5.516  0.2947  0.4424  0.3005
  190MOL0     C25555   8.570   1.151   5.599 -0.2733 -0.5287 -0.4155
  190MOL0     C25556   8.703   1.211   5.594  0.8885 -0.8940  0.1892
  190MOL0     C25557   8.821   1.128   5.657 -0.4300 -0.0104  0.8762
  190MOL0     C25558   8.838   1.172   5.804  0.6153  0.7433 -0.1457
  190MOL0    Cl25559   8.909   1.336   5.807 -0.2549  0.0697  0.0002
  190MOL0     C25560   7.882   1.165   5.090 -0.2415 -0.0996 -0.1599
  190MOL0     C25561   7.794   1.082   5.023  0.0299  0.5956 -0.1048
  190MOL0     O25562   7.502   0.818   5.156  0.6680 -0.1493 -0.1255
  190MOL0     C25563   7.460   0.749   4.817  0.3780  0.2732 -0.5859
  190MOL0     C25564   7.365   0.690   4.736  0.3795 -0.3031 -0.5984
  190MOL0     N25565   6.783   0.649   4.433 -0.5033  0.6878 -0.1847
  190MOL0     N25566   6.698   0.731   4.384  0.2025 -0.2254  0.1196
  190MOL0     C25567   5.554   0.574   3.702 -0.8318  0.0786 -0.0576
  190MOL0     C25568   5.429   0.548   3.640 -0.5444  0.2521 -0.7567
  190MOL0     C25569   4.965   0.536   3.627  0.2838 -0.4723 -0.0572
  190MOL0     C25570   4.956   0.633   3.522  0.9095 -0.2912  0.4064
  190MOL0     C25571   4.836   0.648   3.458  0.1613 -0.4211  0.5333
  190MOL0     C25572   4.721   0.570   3.481 -0.5573 -0.2680  0.7081
  190MOL0     O25573   4.605   0.580   3.403 -0.0021  0.2388 -0.1229
  190MOL0     C25574   4.503   0.485   3.400  0.5798 -0.7906 -0.0456
  190MOL0     C25575   4.366   0.541   3.438 -0.5937 -0.1124  0.6882
  190MOL0     C25576   4.360   0.553   3.590 -0.4479  0.4370  0.0038
  190MOL0     C25577   4.224   0.607   3.634  0.2217 -0.0764  0.6690
  190MOL0     C25578   4.234   0.619   3.783 -0.3418  0.1244  0.4122
  190MOL0     C25579   4.246   0.624   3.905 -0.9006  0.3090  0.0897
  190MOL0     C25580   4.723   0.473   3.588  0.4338 -0.1078  0.8058
  190MOL0     C25581   4.845   0.453   3.658  0.0682 -0.0137  0.6462
  190MOL0     C25582   4.842   0.343   3.762  0.0810 -0.4283 -0.8106
  190MOL0     H25583   5.238   0.763   3.815  2.3925  1.6088  0.2043
  190MOL0     H25584   5.453   0.808   3.923  1.2095  0.1274  0.2118
  190MOL0     H25585   5.733   0.496   3.949 -4.0888  2.3631  0.7244
  190MOL0     H25586   5.834   0.579   3.818 -2.2359  1.0076 -1.6237
  190MOL0     H25587   5.937   0.557   4.057  0.5491 -0.0361 -0.7396
  190MOL0     H25588   5.804   0.649   4.112 -0.9605  1.1203 -1.3569
  190MOL0     H25589   5.869   0.838   3.978 -0.4416 -0.2977  1.6766
  190MOL0     H25590   5.996   0.733   3.903  0.5788  2.2443 -0.7458
  190MOL0     H25591   6.083   0.899   4.072 -0.8639  1.6448  2.3395
  190MOL0     H25592   5.963   0.830   4.184 -0.5640  1.3566 -0.9320
  190MOL0     H25593   6.091   0.641   4.217 -3.8807 -4.4275 -5.0199
  190MOL0     H25594   6.192   0.649   4.061 -0.8195 -1.9816  1.0142
  190MOL0     H25595   6.297   0.868   4.173  0.2563 -0.5176 -0.0040
  190MOL0     H25596   6.190   0.819   4.309 -2.2423  1.7829 -1.3483
  190MOL0     H25597   6.440   0.678   4.185 -0.6014  1.8427 -1.4914
  190MOL0     H25598   6.344   0.607   4.312 -1.2192  1.3290  2.1807
  190MOL0     H25599   6.483   0.871   4.346 -0.8222  0.5285  0.7048
  190MOL0     H25600   6.399   0.787   4.478  1.2240  1.2881  0.7645
  190MOL0     H25601   6.497   0.541   4.568  0.7674 -1.9220  0.5417
  190MOL0     H25602   6.709   0.389   4.637  1.3578  0.6346  1.3604
  190MOL0     H25603   6.821   0.358   4.492 -1.3352  1.0992 -2.3319
  190MOL0     H25604   6.883   0.571   4.690  0.5881  0.5243  0.3695
  190MOL0     H25605   6.917   0.398   4.732 -0.5147 -0.2392 -0.2958
  190MOL0     H25606   7.012   0.525   4.464 -1.3069 -0.9878 -0.5483
  190MOL0     H25607   7.042   0.364   4.524 -1.5079 -0.4110 -0.8563
  190MOL0     H25608   7.214   0.559   4.524 -0.6336  0.7061 -1.2010
  190MOL0     H25609   7.208   0.452   4.669  0.4149  0.0894 -0.0155
  190MOL0     H25610   7.084   0.790   4.890  0.2634  0.1552 -2.2390
  190MOL0     H25611   7.252   0.884   5.063 -2.3226  0.3052 -0.1422
  190MOL0     H25612   7.709   0.869   5.269 -1.2299 -0.3070 -3.1061
  190MOL0     H25613   7.861   0.988   5.385  1.2725 -0.6631 -1.1924
  190MOL0     H25614   8.028   1.204   5.482 -2.7940 -3.0957 -1.4286
  190MOL0     H25615   8.080   1.063   5.409  1.0701 -0.7328 -0.2542
  190MOL0     H25616   8.275   1.221   5.294  0.1879  5.4870 -0.5164
  190MOL0     H25617   8.207   1.334   5.402 -1.1111  0.5572 -2.2304
  190MOL0     H25618   8.259   1.161   5.589 -2.9764  0.2965 -1.0671
  190MOL0     H25619   8.349   1.054   5.477 -1.5483 -0.5885  1.4633
  190MOL0     H25620   8.435   1.329   5.568 -1.9433 -0.1026  0.2798
  190MOL0     H25621   8.500   1.264   5.418 -1.2253  2.0744  0.0978
  190MOL0     H25622   8.577   1.046   5.568 -0.8209  0.0908 -2.8220
  190MOL0     H25623   8.525   1.161   5.699 -2.7377 -0.8437 -1.4039
  190MOL0     H25624   8.736   1.217   5.490  1.6553 -1.1922  0.4080
  190MOL0     H25625   8.696   1.309   5.644 -0.9002 -1.6500  1.5302
  190MOL0     H25626   8.908   1.139   5.593  0.7448 -1.2742  2.1723
  190MOL0     H25627   8.802   1.021   5.673  4.1456 -0.9600  1.2852
  190MOL0     H25628   8.740   1.174   5.853  0.8077  0.3841  0.2633
  190MOL0     H25629   8.897   1.099   5.861 -0.6270  0.9061  1.4152
  190MOL0     H25630   7.945   1.236   5.038  0.8006 -1.4342 -0.7822
  190MOL0     H25631   7.765   1.100   4.920 -1.0065 -2.4184 -0.4552
  190MOL0     H25632   7.564   0.728   4.794  0.2948  0.5073 -1.1921
  190MOL0     H25633   7.398   0.634   4.649  0.5165  0.9372 -1.3719
  190MOL0     H25634   5.647   0.536   3.661 -0.4280  2.8829 -2.0456
  190MOL0     H25635   5.422   0.480   3.556 -0.7643 -0.1605 -0.4022
  190MOL0     H25636   5.033   0.708   3.510 -0.6568  1.1262 -1.3844
  190MOL0     H25637   4.839   0.728   3.384 -0.3029  1.0111  1.9944
  190MOL0     H25638   4.527   0.399   3.464 -2.9586 -0.7339  1.5796
  190MOL0     H25639   4.497   0.445   3.299 -1.1498  0.0522 -0.3100
  190MOL0     H25640   4.285   0.474   3.405 -0.4892  0.8545 -1.7989
  190MOL0     H25641   4.353   0.638   3.388 -1.2164  0.3427  1.7113
  190MOL0     H25642   4.423   0.635   3.627 -2.0314  0.7567  2.0991
  190MOL0     H25643   4.393   0.465   3.646  2.8342  0.4728 -1.5847
  190MOL0     H25644   4.200   0.696   3.575 -1.5564 -0.1115  1.2635
  190MOL0     H25645   4.146   0.535   3.610  1.3029 -1.4325  1.1168
  190MOL0     H25646   4.292   0.631   4.002  1.0549 -0.0114 -0.7556
  190MOL0     H25647   4.636   0.417   3.622 -0.3955 -0.1732 -1.2573
  190MOL0     H25648   4.820   0.379   3.863 -0.4003 -2.1812 -0.2515
  190MOL0     H25649   4.764   0.270   3.741  0.7107 -1.2304 -0.4432
  190MOL0     H25650   4.935   0.286   3.752 -0.0405 -1.3031  2.1323
  191MOL0     O25651   2.583   6.010   2.097  0.9146  0.4734 -0.1147
  191MOL0     C25652   2.505   5.945   2.026 -0.2740  0.4056  0.0983
  191MOL0     O25653   2.547   5.897   1.907 -0.0311 -0.4322  0.5504
  191MOL0     C25654   2.675   5.900   1.862 -0.4621  0.1419 -0.0237
  191MOL0     C25655   2.709   5.796   1.783  0.2051  0.7495 -0.0924
  191MOL0     C25656   2.840   5.777   1.735  0.1889  0.3694 -0.0218
  191MOL0     C25657   2.938   5.875   1.766  0.1097 -0.1779  0.2144
  191MOL0     O25658   3.063   5.857   1.715  0.1762  0.6411 -0.0368
  191MOL0     C25659   3.172   5.947   1.715  0.0934  0.0104  0.1168
  191MOL0     C25660   3.147   6.046   1.600  0.7500  0.0711  0.4354
  191MOL0     C25661   3.130   5.969   1.463 -0.5404  0.0733 -0.9604
  191MOL0     C25662   2.987   5.929   1.420  0.7962 -0.0889 -0.4763
  191MOL0     C25663   2.986   5.818   1.312 -0.2032 -0.1204 -0.2073
  191MOL0     C25664   3.009   5.677   1.361  0.2864 -0.0379 -0.5500
  191MOL0     C25665   3.057   5.597   1.230 -0.5329  1.0857  0.7731
  191MOL0     C25666   2.924   5.564   1.150  0.7014 -0.2095  0.1878
  191MOL0     N25667   2.956   5.473   1.037 -0.6671  0.4447  0.5142
  191MOL0     C25668   3.071   5.482   0.955  1.0368  0.3277 -0.6357
  191MOL0     C25669   3.066   5.373   0.869 -0.3248 -0.4003 -0.7038
  191MOL0     C25670   3.166   5.335   0.771 -0.3871 -0.6470  0.0039
  191MOL0     C25671   3.213   5.439   0.669  0.2232 -0.2952 -0.4172
  191MOL0     C25672   3.092   5.508   0.604 -0.7171  0.7397 -0.0835
  191MOL0     C25673   3.051   5.644   0.670  0.0837  0.2995 -0.0618
  191MOL0     O25674   3.173   5.728   0.696  0.1576 -0.2017  0.1198
  191MOL0     C25675   3.173   5.820   0.799  0.3401  1.5104 -0.6292
  191MOL0     C25676   3.057   5.875   0.856  1.4013  1.5498  0.1604
  191MOL0     C25677   3.055   5.977   0.953  0.7821  1.2974 -0.4379
  191MOL0     C25678   3.172   6.011   1.013  0.2197 -1.2853 -0.1273
  191MOL0     C25679   3.179   6.102   1.123 -0.6941  0.0349 -0.0179
  191MOL0     O25680   3.302   6.143   1.155  0.2226 -0.1944 -0.3481
  191MOL0     C25681   3.335   6.238   1.254 -0.3947 -0.0425  0.0060
  191MOL0     C25682   3.239   6.296   1.342  0.0342 -0.6194  0.0894
  191MOL0     C25683   3.274   6.390   1.437 -0.7005 -0.6620  0.7530
  191MOL0     C25684   3.397   6.443   1.437  0.7905 -0.1450  0.7079
  191MOL0     O25685   3.418   6.548   1.520  0.1245 -0.3920 -0.0997
  191MOL0     C25686   3.549   6.573   1.557 -0.4064  0.0579  0.0927
  191MOL0     C25687   3.553   6.656   1.687 -1.4061  0.0221 -0.2730
  191MOL0     C25688   3.681   6.742   1.693  0.2464  0.2303 -0.0774
  191MOL0     C25689   3.697   6.835   1.815 -0.0840  0.5055  0.5258
  191MOL0     C25690   3.833   6.900   1.782  0.0652 -0.5697  0.2267
  191MOL0     C25691   3.876   6.997   1.897  0.2191 -0.2155 -0.3326
  191MOL0     C25692   4.005   7.066   1.856 -0.1055  0.6720  0.2890
  191MOL0     C25693   4.066   7.164   1.959  0.5877  0.5849 -0.0814
  191MOL0    Cl25694   3.957   7.303   1.963  0.3606  0.2187 -0.1935
  191MOL0     C25695   3.493   6.404   1.345 -0.4749  0.5729  0.8164
  191MOL0     C25696   3.466   6.282   1.272  0.2702 -0.0186  1.6326
  191MOL0     O25697   3.075   6.142   1.173  0.0600  0.2444 -0.2211
  191MOL0     C25698   3.290   5.945   0.963 -0.8433 -0.6252  0.3947
  191MOL0     C25699   3.293   5.859   0.850 -0.3493  0.3818  0.5593
  191MOL0     N25700   2.950   5.303   0.892 -1.0547 -0.0063 -0.9040
  191MOL0     N25701   2.882   5.367   0.983  0.0296 -0.1221  0.9786
  191MOL0     C25702   2.900   5.992   1.839  0.7044 -0.3195 -0.4356
  191MOL0     C25703   2.765   6.000   1.881 -0.2925  0.2482  1.0265
  191MOL0     C25704   2.378   5.894   2.073 -0.7880  0.4617  0.6709
  191MOL0     C25705   2.283   5.854   1.976 -0.2267 -0.5070  0.4026
  191MOL0     C25706   2.162   5.796   2.019 -0.1771 -0.1080 -1.1879
  191MOL0     C25707   2.131   5.789   2.157 -0.2427  0.1018  0.0257
  191MOL0     O25708   2.007   5.731   2.182  0.4064 -0.3293  0.7716
  191MOL0     C25709   1.952   5.729   2.309  0.9782 -0.9360 -0.1881
  191MOL0     C25710   1.805   5.699   2.284  0.3772  0.2841  0.5144
  191MOL0     C25711   1.786   5.545   2.280  0.5164 -0.7801  0.1809
  191MOL0     C25712   1.644   5.502   2.265  1.0413  0.4588  0.5518
  191MOL0     C25713   1.638   5.351   2.260  0.9070 -0.6605 -0.4712
  191MOL0     C25714   1.624   5.233   2.277  0.0622  0.3788  0.5088
  191MOL0     C25715   2.218   5.841   2.252  0.4124 -0.2622 -0.8497
  191MOL0     C25716   2.347   5.891   2.217 -0.1397  0.1052  0.3616
  191MOL0     C25717   2.443   5.916   2.328  0.0110 -0.0921  0.2060
  191MOL0     H25718   2.635   5.719   1.763  1.1211 -0.3341  0.4984
  191MOL0     H25719   2.865   5.704   1.659  0.6801  0.2859  0.2183
  191MOL0     H25720   3.175   6.000   1.811 -1.2652 -0.1378  0.2618
  191MOL0     H25721   3.265   5.892   1.700 -0.6573 -0.9363 -1.3195
  191MOL0     H25722   3.240   6.104   1.592  1.4889 -1.2044 -0.7616
  191MOL0     H25723   3.056   6.106   1.612  0.5242 -0.6011  2.2603
  191MOL0     H25724   3.204   5.889   1.468 -0.3146  0.3614  2.4159
  191MOL0     H25725   3.167   6.041   1.390 -1.1305  1.1235 -0.2501
  191MOL0     H25726   2.922   5.893   1.500  1.4516  0.9211  0.5279
  191MOL0     H25727   2.942   6.020   1.380 -2.0312 -0.2301  1.9856
  191MOL0     H25728   2.901   5.836   1.246  0.2585  2.1361 -0.2700
  191MOL0     H25729   3.069   5.850   1.248  1.0726  0.5120  1.6637
  191MOL0     H25730   3.090   5.670   1.433  2.1789 -0.8587 -2.6445
  191MOL0     H25731   2.916   5.635   1.403 -0.3178  1.6155 -0.1817
  191MOL0     H25732   3.102   5.502   1.261 -2.3171 -0.1733 -0.3140
  191MOL0     H25733   3.123   5.653   1.162 -0.9547  0.3431 -0.2792
  191MOL0     H25734   2.848   5.514   1.210 -1.1671  2.5220  0.2740
  191MOL0     H25735   2.875   5.658   1.122  1.1235  0.8039  2.6558
  191MOL0     H25736   3.152   5.552   0.974  0.1719  0.4582  3.4566
  191MOL0     H25737   3.252   5.299   0.828 -0.2491 -3.6693 -1.8580
  191MOL0     H25738   3.123   5.252   0.714 -1.1689 -1.9327  2.3045
  191MOL0     H25739   3.283   5.505   0.720  0.2181 -2.7324  3.1435
  191MOL0     H25740   3.278   5.389   0.597  0.8085  0.7559 -0.6349
  191MOL0     H25741   3.011   5.435   0.609 -0.2827  0.2251 -0.4894
  191MOL0     H25742   3.114   5.538   0.501  0.0106 -2.1511 -0.8477
  191MOL0     H25743   3.008   5.611   0.765  1.8230 -0.5613  0.4811
  191MOL0     H25744   2.976   5.684   0.601  1.4005 -1.1720 -2.4875
  191MOL0     H25745   2.962   5.842   0.815  1.1988 -0.4762  2.0358
  191MOL0     H25746   2.960   6.016   0.988  0.8296  2.9840 -2.0451
  191MOL0     H25747   3.134   6.268   1.347  0.4349 -2.7440 -1.6730
  191MOL0     H25748   3.189   6.417   1.499 -1.9651 -0.2083 -1.1176
  191MOL0     H25749   3.615   6.487   1.568 -3.1416 -2.5355 -1.8953
  191MOL0     H25750   3.583   6.637   1.475 -1.1600 -1.6184 -1.6133
  191MOL0     H25751   3.461   6.715   1.686  0.0223  2.3546 -1.1432
  191MOL0     H25752   3.562   6.583   1.769  2.8408  0.1348 -0.4525
  191MOL0     H25753   3.767   6.674   1.683  0.3027  0.5112 -1.9489
  191MOL0     H25754   3.692   6.795   1.598  0.9606  5.1240  2.4568
  191MOL0     H25755   3.707   6.785   1.912 -3.6134 -1.5022  0.0599
  191MOL0     H25756   3.617   6.909   1.822  0.3004  0.8072  1.7894
  191MOL0     H25757   3.829   6.948   1.684  1.2183 -0.7706  0.0792
  191MOL0     H25758   3.917   6.831   1.776 -1.6790 -3.7147  5.0824
  191MOL0     H25759   3.800   7.072   1.921  1.2106  0.9932 -0.8301
  191MOL0     H25760   3.897   6.935   1.985  2.3603 -2.1417 -2.0632
  191MOL0     H25761   3.987   7.121   1.763 -2.4502  2.2026  1.5395
  191MOL0     H25762   4.075   6.982   1.844 -3.5373 -2.1672 -2.1067
  191MOL0     H25763   4.067   7.122   2.060  0.0508 -2.3019 -1.1977
  191MOL0     H25764   4.168   7.190   1.928  1.2716 -2.0933 -0.2859
  191MOL0     H25765   3.595   6.440   1.334 -0.4333 -0.2130 -2.5772
  191MOL0     H25766   3.549   6.239   1.217  1.7323  1.6299  2.4382
  191MOL0     H25767   3.389   5.970   1.002 -1.1270  1.6954 -0.1760
  191MOL0     H25768   3.385   5.829   0.801 -1.8973 -1.1983 -1.5728
  191MOL0     H25769   2.975   6.067   1.864 -0.8163  0.5621  1.7985
  191MOL0     H25770   2.732   6.089   1.934 -0.3915  1.3412 -0.7810
  191MOL0     H25771   2.289   5.863   1.868 -1.0457  3.0238  0.5094
  191MOL0     H25772   2.086   5.755   1.954 -0.8792 -2.2769  0.8531
  191MOL0     H25773   1.969   5.822   2.364  1.2923 -1.0853 -0.0302
  191MOL0     H25774   1.987   5.652   2.378  0.5119 -0.5564  0.4894
  191MOL0     H25775   1.777   5.729   2.183  2.1183 -0.1565 -0.1323
  191MOL0     H25776   1.736   5.752   2.350 -0.4665  1.3507 -1.1674
  191MOL0     H25777   1.834   5.516   2.374  1.1074  2.9858  1.2152
  191MOL0     H25778   1.839   5.514   2.189 -1.7274 -0.2916 -1.3624
  191MOL0     H25779   1.577   5.530   2.347 -2.6421 -3.8051 -0.5806
  191MOL0     H25780   1.610   5.537   2.166  0.9478 -0.1670  0.3590
  191MOL0     H25781   1.612   5.128   2.294 -0.6397  0.3998  0.2018
  191MOL0     H25782   2.197   5.833   2.359 -0.5628  1.7901 -0.8431
  191MOL0     H25783   2.499   6.007   2.305  1.0268 -1.3370 -2.9298
  191MOL0     H25784   2.383   5.938   2.416  0.9309 -1.9880  1.3767
  191MOL0     H25785   2.505   5.827   2.345  3.4129  2.1479  0.4128
  192MOL0     O25786   5.414  10.092  11.304 -0.3629  0.1424 -0.3972
  192MOL0     C25787   5.359  10.065  11.200  0.9605  0.7977  0.1938
  192MOL0     O25788   5.419   9.990  11.104  0.2911  0.0387  0.0371
  192MOL0     C25789   5.550   9.940  11.126 -0.5035 -0.3356 -0.6576
  192MOL0     C25790   5.647  10.019  11.181  0.6183  0.0464  0.4473
  192MOL0     C25791   5.781   9.971  11.202  1.0924  1.0795  0.4192
  192MOL0     C25792   5.807   9.834  11.163 -0.1777 -0.0930 -1.3747
  192MOL0     O25793   5.928   9.773  11.178 -1.3119  0.3244 -0.8210
  192MOL0     C25794   6.026   9.845  11.255  0.1919 -0.4332 -0.2444
  192MOL0     C25795   6.146   9.744  11.279 -0.5433 -0.6133  0.3653
  192MOL0     C25796   6.199   9.665  11.155 -0.1758 -0.7998 -0.5833
  192MOL0     C25797   6.240   9.761  11.038  0.3588 -0.0446 -0.5408
  192MOL0     C25798   6.364   9.832  11.082  0.1326 -0.5887  0.1517
  192MOL0     C25799   6.496   9.748  11.070 -0.1225 -0.7281 -0.1926
  192MOL0     C25800   6.624   9.834  11.076 -0.0706  0.1728  0.5410
  192MOL0     C25801   6.723   9.777  10.989 -0.2433  0.2983  0.6747
  192MOL0     N25802   6.854   9.847  10.984 -0.0116  1.1651  0.2560
  192MOL0     C25803   6.894   9.950  10.902  0.5548  0.0073  0.1654
  192MOL0     C25804   7.021   9.985  10.934  0.3866  1.1214  0.0561
  192MOL0     C25805   7.100  10.098  10.869 -0.2691  0.2420 -0.2730
  192MOL0     C25806   7.247  10.055  10.854  1.0996  0.4126 -0.1759
  192MOL0     C25807   7.317  10.086  10.993  0.1937  0.5356  0.2421
  192MOL0     C25808   7.463  10.041  11.000  0.3796  1.4607 -0.0477
  192MOL0     O25809   7.489   9.903  10.956 -0.1506 -0.3455  0.0762
  192MOL0     C25810   7.625   9.877  10.917  1.1211 -0.0238 -0.0405
  192MOL0     C25811   7.643   9.767  10.833 -0.2021  0.4623 -0.1076
  192MOL0     C25812   7.766   9.750  10.778 -1.0611  0.8246 -0.2525
  192MOL0     C25813   7.882   9.830  10.792 -0.4638 -0.3120 -0.1170
  192MOL0     C25814   7.997   9.803  10.705  0.4258 -0.3204  0.0858
  192MOL0     O25815   7.982   9.705  10.611 -0.0349 -0.3793 -0.7412
  192MOL0     C25816   8.092   9.667  10.546 -0.0493  0.1503  0.8838
  192MOL0     C25817   8.126   9.691  10.415 -0.4030 -0.7355  0.2764
  192MOL0     C25818   8.258   9.656  10.364  0.4047  0.6282 -0.4213
  192MOL0     C25819   8.355   9.595  10.440  0.5546 -0.3756 -0.0838
  192MOL0     O25820   8.473   9.556  10.392  0.2636 -0.8686  0.6586
  192MOL0     C25821   8.475   9.502  10.257 -0.0181 -0.7776 -0.7364
  192MOL0     C25822   8.567   9.586  10.164  0.8861  0.3978 -0.4141
  192MOL0     C25823   8.508   9.728  10.137 -0.8975  0.1378 -0.6392
  192MOL0     C25824   8.627   9.820  10.115 -0.2471  0.1337 -0.5750
  192MOL0     C25825   8.599   9.961  10.058  0.5796 -0.3828  0.6787
  192MOL0     C25826   8.718  10.059  10.068  0.3241 -0.9294  0.5681
  192MOL0     C25827   8.688  10.190  10.004 -0.4556 -0.4187 -0.1681
  192MOL0     C25828   8.792  10.299  10.036 -1.1663 -0.1624 -0.3375
  192MOL0    Cl25829   8.940  10.256   9.959 -0.0926  0.1219  0.2454
  192MOL0     C25830   8.326   9.581  10.576  0.9749  0.1113 -0.0507
  192MOL0     C25831   8.199   9.608  10.622 -0.2945  0.0117 -0.9968
  192MOL0     O25832   8.093   9.876  10.722 -0.0417 -0.0268  0.1679
  192MOL0     C25833   7.867   9.932  10.893  0.0912  0.3908  0.8107
  192MOL0     C25834   7.739   9.955  10.948  0.4492  0.0188 -0.1790
  192MOL0     N25835   7.058   9.907  11.039 -0.1800 -0.9808  0.5453
  192MOL0     N25836   6.963   9.827  11.066  0.1339  0.1091 -0.5092
  192MOL0     C25837   5.705   9.757  11.107  0.3301 -0.3160 -0.6722
  192MOL0     C25838   5.577   9.807  11.092  0.4032  0.3418 -0.1811
  192MOL0     C25839   5.220  10.120  11.176 -0.1243 -0.6178 -0.0805
  192MOL0     C25840   5.187  10.238  11.248  0.1334 -0.0046 -0.0307
  192MOL0     C25841   5.061  10.290  11.237  0.5919 -0.1755  0.7989
  192MOL0     C25842   4.969  10.229  11.151 -0.3420 -1.3736 -0.1779
  192MOL0     O25843   4.847  10.282  11.143 -0.5698 -0.7557 -0.6269
  192MOL0     C25844   4.836  10.398  11.060  0.3779  0.4603 -0.0782
  192MOL0     C25845   4.691  10.434  11.030 -0.1109 -0.4258  0.1328
  192MOL0     C25846   4.689  10.572  10.964 -0.2627  0.2399 -1.0666
  192MOL0     C25847   4.546  10.622  10.926  0.0618 -0.4050 -0.9582
  192MOL0     C25848   4.473  10.526  10.840  0.1893 -0.4210 -0.2236
  192MOL0     C25849   4.415  10.441  10.775 -0.1832  0.1544  0.2897
  192MOL0     C25850   5.000  10.122  11.069 -1.0102 -0.5144  0.3058
  192MOL0     C25851   5.120  10.057  11.088  0.6394  0.4516 -0.1331
  192MOL0     C25852   5.157   9.930  11.006 -0.1346 -0.3045 -0.6537
  192MOL0     H25853   5.628  10.122  11.207  0.4728  0.1505 -0.0605
  192MOL0     H25854   5.855  10.035  11.248  0.9841  0.8079  0.9733
  192MOL0     H25855   6.071   9.926  11.197  3.9999 -2.6300 -0.6791
  192MOL0     H25856   5.998   9.870  11.358  0.1997 -0.7920 -0.1536
  192MOL0     H25857   6.118   9.667  11.351 -0.5602 -1.0202 -0.0678
  192MOL0     H25858   6.228   9.794  11.331 -0.9445  0.1692  0.2737
  192MOL0     H25859   6.121   9.603  11.109  1.0269 -1.4349 -1.8496
  192MOL0     H25860   6.280   9.595  11.178  0.6436  0.7437  1.6524
  192MOL0     H25861   6.250   9.713  10.940 -1.1243  2.2347 -1.8804
  192MOL0     H25862   6.160   9.833  11.018 -1.3281 -0.8623  2.5689
  192MOL0     H25863   6.378   9.913  11.010 -0.4233 -0.9999 -0.4305
  192MOL0     H25864   6.360   9.886  11.178 -1.8082 -1.2621  0.4818
  192MOL0     H25865   6.515   9.673  11.148  1.3144  0.6787  0.8794
  192MOL0     H25866   6.498   9.692  10.976  0.5013  0.0704 -0.6640
  192MOL0     H25867   6.669   9.844  11.175  0.9458  2.0797 -0.0638
  192MOL0     H25868   6.606   9.935  11.039 -1.5570 -0.3799 -0.3206
  192MOL0     H25869   6.749   9.678  11.028  0.4291  0.0903 -0.2637
  192MOL0     H25870   6.683   9.775  10.887  3.5408  0.6949 -0.9779
  192MOL0     H25871   6.826   9.997  10.832  1.6117 -1.1732 -1.7673
  192MOL0     H25872   7.064  10.128  10.770  1.6919  1.8758 -0.5660
  192MOL0     H25873   7.099  10.190  10.928  0.7079  2.1786 -3.0396
  192MOL0     H25874   7.246   9.951  10.821  0.7291 -0.0991  1.3893
  192MOL0     H25875   7.305  10.108  10.778  0.4423 -2.0087 -2.4921
  192MOL0     H25876   7.258  10.036  11.071 -0.3739  3.8053  2.0649
  192MOL0     H25877   7.315  10.193  11.015 -0.2764  0.3403  1.1696
  192MOL0     H25878   7.486  10.041  11.107 -2.1522 -0.1815  0.5821
  192MOL0     H25879   7.530  10.114  10.955  0.6354  1.1436 -0.1838
  192MOL0     H25880   7.550   9.716  10.810 -0.1663  1.1682 -2.0078
  192MOL0     H25881   7.772   9.679  10.696  0.2407 -1.0957  1.3977
  192MOL0     H25882   8.051   9.724  10.344  0.2751 -0.4366 -0.3175
  192MOL0     H25883   8.267   9.667  10.256  0.0596 -0.8918 -0.6255
  192MOL0     H25884   8.511   9.402  10.281  2.8139  0.2694 -0.2748
  192MOL0     H25885   8.376   9.495  10.211 -1.2425  0.5344  1.5246
  192MOL0     H25886   8.668   9.590  10.206  0.2096 -0.5360  1.4015
  192MOL0     H25887   8.572   9.535  10.067 -0.4498  3.1819 -2.0512
  192MOL0     H25888   8.438   9.719  10.053 -0.4232  2.2948 -1.3444
  192MOL0     H25889   8.446   9.762  10.221 -3.3819 -2.2657 -1.3414
  192MOL0     H25890   8.696   9.779  10.040  1.4887 -0.5277  1.3044
  192MOL0     H25891   8.681   9.841  10.208  0.4161 -1.3760 -0.5823
  192MOL0     H25892   8.521  10.006  10.120  0.9774 -1.2474  1.8536
  192MOL0     H25893   8.555   9.953   9.958  1.1940  0.4538  0.3349
  192MOL0     H25894   8.763  10.068  10.167  1.3518 -2.8275  0.3142
  192MOL0     H25895   8.798  10.019  10.005  0.3946  1.3247 -0.9074
  192MOL0     H25896   8.588  10.223  10.033 -0.5731  0.3247 -1.3471
  192MOL0     H25897   8.683  10.175   9.895 -0.3145  0.0552 -0.2413
  192MOL0     H25898   8.755  10.401  10.021  0.1634  0.5437  0.9297
  192MOL0     H25899   8.808  10.296  10.144 -4.0333  3.5449  0.4024
  192MOL0     H25900   8.402   9.537  10.639  0.0576  0.5942  1.4272
  192MOL0     H25901   8.172   9.581  10.723  1.6687 -3.1010 -1.1591
  192MOL0     H25902   7.949   9.997  10.923 -0.4020  1.4094  0.0415
  192MOL0     H25903   7.717  10.035  11.019 -3.4107 -0.7659 -0.2629
  192MOL0     H25904   5.727   9.652  11.089 -1.2049 -0.8411  0.2649
  192MOL0     H25905   5.500   9.736  11.064 -0.9134  1.4199  0.5841
  192MOL0     H25906   5.257  10.287  11.315 -1.5883 -2.2114  3.7160
  192MOL0     H25907   5.024  10.373  11.295 -1.3475 -0.0681 -0.5191
  192MOL0     H25908   4.894  10.384  10.968  2.5669  1.5862  1.0368
  192MOL0     H25909   4.880  10.488  11.106  1.4716 -0.3341  0.5024
  192MOL0     H25910   4.636  10.424  11.124 -2.1630  3.1621 -0.4935
  192MOL0     H25911   4.653  10.352  10.969  0.6170 -0.5364 -0.1778
  192MOL0     H25912   4.745  10.570  10.871 -0.8338  0.7804 -1.4319
  192MOL0     H25913   4.734  10.645  11.032 -3.6650  1.6800 -0.0988
  192MOL0     H25914   4.485  10.647  11.014  1.7400  1.1102 -0.1554
  192MOL0     H25915   4.555  10.713  10.866 -1.1974  1.6561  1.7378
  192MOL0     H25916   4.363  10.383  10.702 -1.9727  0.0694  1.5503
  192MOL0     H25917   4.934  10.108  10.985 -0.6595 -0.1064 -0.0426
  192MOL0     H25918   5.241   9.951  10.940  3.3836  2.4934  4.0677
  192MOL0     H25919   5.194   9.850  11.071 -0.0905  0.3114  0.0974
  192MOL0     H25920   5.063   9.894  10.963 -0.7755  0.9400 -0.3627
  193MOL0     O25921  10.229   5.802   7.822  0.3787  0.3641 -0.0414
  193MOL0     C25922  10.127   5.728   7.819  0.1161 -0.3397 -0.8286
  193MOL0     O25923  10.080   5.655   7.710 -0.2087  0.2636 -0.0937
  193MOL0     C25924  10.149   5.644   7.592 -0.3453  0.4364  0.7930
  193MOL0     C25925  10.075   5.641   7.473  0.5091  0.3637 -0.7709
  193MOL0     C25926  10.134   5.654   7.355 -0.0766  0.6089  0.1588
  193MOL0     C25927  10.281   5.636   7.336 -0.5420 -0.6973  0.5252
  193MOL0     O25928  10.347   5.645   7.220 -0.7450 -0.1581 -0.2574
  193MOL0     C25929  10.267   5.666   7.100 -0.4022 -0.0552 -0.2785
  193MOL0     C25930  10.364   5.660   6.979  0.4671  0.1425 -0.1062
  193MOL0     C25931  10.467   5.776   6.977 -0.3600 -0.3672 -0.1244
  193MOL0     C25932  10.528   5.797   6.842 -1.1220  0.1984 -1.2682
  193MOL0     C25933  10.585   5.941   6.853  0.1011 -0.2374 -0.4936
  193MOL0     C25934  10.688   5.971   6.752 -0.4468  0.1258  0.2852
  193MOL0     C25935  10.830   5.932   6.804  0.3430  0.1578 -0.9161
  193MOL0     C25936  10.938   5.947   6.696 -0.2727  0.0527  0.7263
  193MOL0     N25937  11.074   5.909   6.746  0.5573 -0.9998  0.0150
  193MOL0     C25938  11.136   5.955   6.865 -1.0757  0.8098  0.1481
  193MOL0     C25939  11.265   5.958   6.830 -0.1305 -0.3768  0.1978
  193MOL0     C25940  11.375   6.007   6.923 -0.3936  0.1135  0.6009
  193MOL0     C25941  11.464   6.127   6.865  0.2393  0.1253 -0.2145
  193MOL0     C25942  11.555   6.170   6.976  0.1185 -1.5289 -0.1775
  193MOL0     C25943  11.662   6.275   6.923  0.7548 -0.6523  0.7923
  193MOL0     O25944  11.761   6.225   6.824  0.7982  0.7111 -0.7402
  193MOL0     C25945  11.868   6.302   6.794 -1.0747 -0.2766  0.9515
  193MOL0     C25946  11.914   6.418   6.853 -0.2525  0.2311 -0.1622
  193MOL0     C25947  12.028   6.486   6.808  0.2709 -0.0863  0.6740
  193MOL0     C25948  12.080   6.449   6.675  0.7951 -0.0794 -0.2631
  193MOL0     C25949  12.181   6.536   6.620  0.7407  0.3730  0.8647
  193MOL0     O25950  12.220   6.651   6.692 -0.6849 -1.0547 -0.2245
  193MOL0     C25951  12.312   6.740   6.647  0.4801 -0.7309  0.2298
  193MOL0     C25952  12.298   6.879   6.673 -0.6741 -0.1372 -0.4181
  193MOL0     C25953  12.405   6.961   6.632 -0.2824 -0.4655 -0.1314
  193MOL0     C25954  12.519   6.917   6.564  0.1760 -0.3837  0.5118
  193MOL0     O25955  12.612   7.001   6.509  0.7801 -0.1023 -0.3063
  193MOL0     C25956  12.605   7.141   6.535  0.0359 -0.6013  0.0007
  193MOL0     C25957  12.747   7.203   6.526  0.1202  0.3469 -0.5222
  193MOL0     C25958  12.793   7.205   6.380 -0.3535 -0.0366 -0.2454
  193MOL0     C25959  12.878   7.328   6.362  0.4008  0.7832 -0.3171
  193MOL0     C25960  12.925   7.352   6.225 -0.3871 -0.8156 -0.6272
  193MOL0     C25961  13.056   7.437   6.229  0.9219 -0.2638  0.2567
  193MOL0     C25962  13.117   7.455   6.095  0.4044  0.7805  0.0951
  193MOL0     C25963  13.073   7.577   6.017 -0.5281 -0.3771  0.3924
  193MOL0    Cl25964  13.131   7.566   5.845  0.2799 -0.1068  0.0451
  193MOL0     C25965  12.528   6.788   6.540 -0.7896  0.3004 -0.0341
  193MOL0     C25966  12.432   6.698   6.585  0.1851  0.2071 -0.1265
  193MOL0     O25967  12.231   6.499   6.514  0.3878 -1.1187 -0.1764
  193MOL0     C25968  12.030   6.336   6.609  0.5851  0.4538  0.9346
  193MOL0     C25969  11.928   6.260   6.677  0.4200 -0.7358 -0.6404
  193MOL0     N25970  11.281   5.916   6.698  0.2457  0.1578 -0.3297
  193MOL0     N25971  11.166   5.889   6.646 -0.2164 -0.5606 -0.3522
  193MOL0     C25972  10.354   5.628   7.453 -0.3787  0.1395 -0.0185
  193MOL0     C25973  10.290   5.638   7.574  0.6249  0.0360  0.3969
  193MOL0     C25974  10.039   5.749   7.942 -0.2424  0.0454 -0.6654
  193MOL0     C25975  10.073   5.842   8.036 -0.4607  0.1369  0.1498
  193MOL0     C25976  10.016   5.861   8.162  0.0141  0.8296 -0.2552
  193MOL0     C25977   9.910   5.786   8.207 -0.5793  0.7364 -0.6842
  193MOL0     O25978   9.850   5.808   8.329 -0.3107  0.5515  0.0539
  193MOL0     C25979   9.831   5.944   8.362  0.1491 -0.2755 -0.1042
  193MOL0     C25980   9.761   5.948   8.499 -0.3347  0.4866  0.3450
  193MOL0     C25981   9.762   6.095   8.546 -0.1391  0.4436 -0.7135
  193MOL0     C25982   9.700   6.098   8.686  0.0290  0.3932 -0.5766
  193MOL0     C25983   9.555   6.070   8.691  0.6032 -0.3683  0.3433
  193MOL0     C25984   9.435   6.048   8.701 -0.2748 -0.1847  0.4859
  193MOL0     C25985   9.864   5.689   8.107  1.3081  0.8419  0.6678
  193MOL0     C25986   9.933   5.668   7.985 -1.2935 -1.6688  0.2660
  193MOL0     C25987   9.901   5.543   7.910  0.0133  0.7240 -0.7031
  193MOL0     H25988   9.968   5.654   7.481  0.2072 -2.0603 -0.2245
  193MOL0     H25989  10.074   5.681   7.268 -1.9702  2.6964  1.9934
  193MOL0     H25990  10.202   5.578   7.093  1.9629 -2.0867  1.2660
  193MOL0     H25991  10.215   5.761   7.088  2.0141  1.4644  0.4013
  193MOL0     H25992  10.299   5.664   6.891  0.7517  1.0321 -0.2829
  193MOL0     H25993  10.415   5.564   6.973  1.4811  0.6137  0.7146
  193MOL0     H25994  10.545   5.767   7.053  0.7241 -1.6624 -1.3329
  193MOL0     H25995  10.414   5.869   7.000  2.7506  2.0378 -1.8309
  193MOL0     H25996  10.596   5.712   6.826 -0.5963  0.3202  0.2101
  193MOL0     H25997  10.451   5.780   6.766 -3.2415 -1.4739  1.0713
  193MOL0     H25998  10.504   6.014   6.837  1.3981  1.3028 -0.3597
  193MOL0     H25999  10.615   5.955   6.957 -2.0035 -2.4386  0.5126
  193MOL0     H26000  10.663   5.907   6.668 -2.6471 -0.4156  1.2944
  193MOL0     H26001  10.690   6.079   6.732 -1.7774  0.5391  2.0356
  193MOL0     H26002  10.825   5.830   6.845  0.8879  0.2391 -0.6324
  193MOL0     H26003  10.864   6.000   6.882 -0.6969 -0.6373  0.2757
  193MOL0     H26004  10.911   5.870   6.624  1.0465 -0.8699  1.1919
  193MOL0     H26005  10.934   6.042   6.642  0.2489 -0.9978 -1.2298
  193MOL0     H26006  11.082   5.988   6.953 -1.1200 -0.8804  0.7933
  193MOL0     H26007  11.323   6.034   7.016 -0.1796  0.1858  0.6981
  193MOL0     H26008  11.435   5.920   6.951  1.2722  0.8712 -0.4751
  193MOL0     H26009  11.507   6.100   6.768  0.9473  4.4897 -1.3492
  193MOL0     H26010  11.399   6.214   6.851  0.2281  0.4216  1.4893
  193MOL0     H26011  11.624   6.089   6.999  3.7288  1.4878  0.6436
  193MOL0     H26012  11.497   6.211   7.059  1.6368  0.6729 -0.1109
  193MOL0     H26013  11.727   6.307   7.005  0.9131 -1.1953  0.8849
  193MOL0     H26014  11.609   6.361   6.881  0.7923 -1.2789 -0.5836
  193MOL0     H26015  11.875   6.446   6.951  1.8130 -0.8171  1.0404
  193MOL0     H26016  12.073   6.562   6.870  1.6146 -1.0582  0.9313
  193MOL0     H26017  12.213   6.927   6.720  0.7451  0.2312  1.9938
  193MOL0     H26018  12.393   7.064   6.662  3.8393  0.0224  0.4673
  193MOL0     H26019  12.535   7.184   6.463  1.3508  0.5518 -0.6086
  193MOL0     H26020  12.570   7.162   6.637  1.7959 -0.4154  0.5953
  193MOL0     H26021  12.738   7.307   6.559  0.9343 -0.1637  1.3932
  193MOL0     H26022  12.810   7.145   6.593 -2.1564 -0.0833  1.4006
  193MOL0     H26023  12.851   7.114   6.358 -2.0771 -1.4418  0.7807
  193MOL0     H26024  12.708   7.190   6.313  0.8291 -0.9238 -1.6201
  193MOL0     H26025  12.967   7.312   6.425 -1.2092 -1.1330  1.6257
  193MOL0     H26026  12.830   7.423   6.388  1.5891  1.2738  0.1707
  193MOL0     H26027  12.842   7.397   6.170 -2.3027 -0.4543  2.3178
  193MOL0     H26028  12.943   7.253   6.183  0.6051 -1.7120  1.6892
  193MOL0     H26029  13.050   7.535   6.277  1.9341 -1.1539  2.3233
  193MOL0     H26030  13.128   7.396   6.300  0.1023 -2.2296  0.0236
  193MOL0     H26031  13.091   7.370   6.031  2.9686  0.6725 -0.9411
  193MOL0     H26032  13.226   7.450   6.107  0.2960  2.7171  2.7487
  193MOL0     H26033  12.968   7.598   6.040 -1.1199 -3.2009  0.6815
  193MOL0     H26034  13.120   7.666   6.059  1.2068 -0.8576 -0.4371
  193MOL0     H26035  12.608   6.748   6.478 -0.6368 -3.4548  2.2547
  193MOL0     H26036  12.456   6.593   6.570 -0.5902  0.1386 -0.9481
  193MOL0     H26037  12.069   6.308   6.511 -2.8238  3.0859 -1.4314
  193MOL0     H26038  11.874   6.182   6.624 -2.0662  0.3320  0.1739
  193MOL0     H26039  10.463   5.622   7.452 -0.3646  0.3674 -0.9691
  193MOL0     H26040  10.351   5.643   7.663  1.5435  4.0473 -0.2394
  193MOL0     H26041  10.164   5.901   8.025  0.0738 -0.5734  0.6011
  193MOL0     H26042  10.064   5.924   8.236  1.1303  0.2559 -0.4640
  193MOL0     H26043   9.758   5.999   8.301  3.0695  0.8323 -2.8400
  193MOL0     H26044   9.919   6.007   8.374 -0.1544  0.0859  0.2720
  193MOL0     H26045   9.815   5.877   8.562 -1.2248  1.8813  2.8195
  193MOL0     H26046   9.658   5.921   8.473  0.0833  2.3152 -4.1521
  193MOL0     H26047   9.709   6.166   8.482 -0.0668 -0.3813 -1.7213
  193MOL0     H26048   9.865   6.126   8.563 -0.3195 -0.2001  1.9445
  193MOL0     H26049   9.761   6.034   8.749  0.2578 -0.4161 -1.5810
  193MOL0     H26050   9.708   6.199   8.728 -0.4039  0.9000 -1.6427
  193MOL0     H26051   9.331   6.022   8.696 -0.3228  0.2407 -1.7893
  193MOL0     H26052   9.773   5.631   8.118 -1.9053  4.6521 -2.4499
  193MOL0     H26053   9.993   5.486   7.898  0.0004 -0.1026  2.3891
  193MOL0     H26054   9.833   5.474   7.961  2.1006 -0.8770  0.0253
  193MOL0     H26055   9.852   5.560   7.814 -4.2347 -0.9203  0.9355
  194MOL0     O26056  10.183   2.144   4.562  1.3092  0.3105 -0.1443
  194MOL0     C26057  10.114   2.161   4.665 -0.3543  0.2922  0.4641
  194MOL0     O26058  10.152   2.139   4.799 -0.5355 -0.4258  0.0762
  194MOL0     C26059  10.285   2.108   4.817  0.2916 -0.2062 -0.6647
  194MOL0     C26060  10.375   2.205   4.843 -0.0317 -0.2222 -0.7685
  194MOL0     C26061  10.516   2.173   4.855  0.6989  0.3846  0.2373
  194MOL0     C26062  10.559   2.042   4.841  0.4970  0.4597  1.1980
  194MOL0     O26063  10.692   2.017   4.850  0.6619 -0.1476  0.4997
  194MOL0     C26064  10.724   1.893   4.905 -0.2568  0.0955 -0.5836
  194MOL0     C26065  10.854   1.909   4.989  0.3512 -0.0589  0.6730
  194MOL0     C26066  10.910   1.778   5.035 -0.8219  0.5505 -0.4275
  194MOL0     C26067  11.035   1.798   5.114  0.2067 -0.3151 -0.3711
  194MOL0     C26068  11.067   1.675   5.191 -0.0469 -0.5038  0.7529
  194MOL0     C26069  10.971   1.637   5.305  0.6390  0.4848 -1.1185
  194MOL0     C26070  10.992   1.711   5.446 -0.1640 -0.1835 -0.6632
  194MOL0     C26071  10.913   1.842   5.458  0.8576  0.0151 -0.2271
  194MOL0     N26072  10.770   1.807   5.479 -0.2856  0.3641  0.0830
  194MOL0     C26073  10.671   1.842   5.391  0.1566 -0.4933 -0.0615
  194MOL0     C26074  10.551   1.837   5.462  0.3174  0.4694  0.1727
  194MOL0     C26075  10.404   1.855   5.411 -0.3446 -0.4867  0.0944
  194MOL0     C26076  10.319   1.935   5.507 -0.6775 -0.9207  0.0054
  194MOL0     C26077  10.329   2.083   5.474  0.2097 -0.7235 -0.9590
  194MOL0     C26078  10.474   2.136   5.481  0.1086  0.9544  1.4727
  194MOL0     O26079  10.537   2.133   5.349  0.7050 -0.0623  0.3283
  194MOL0     C26080  10.652   2.189   5.314  1.0639  0.2310 -0.1995
  194MOL0     C26081  10.676   2.203   5.174 -0.2061 -0.2366 -0.5302
  194MOL0     C26082  10.804   2.226   5.130 -0.1598 -0.5856  0.7253
  194MOL0     C26083  10.911   2.267   5.210  0.1375 -0.6881  0.5591
  194MOL0     C26084  11.050   2.283   5.164 -0.9450  0.3172  0.4915
  194MOL0     O26085  11.160   2.290   5.254 -0.4141  0.0486 -0.3981
  194MOL0     C26086  11.281   2.239   5.218 -0.0947  0.0121 -0.4840
  194MOL0     C26087  11.295   2.128   5.137  1.1078 -0.2227 -0.2179
  194MOL0     C26088  11.410   2.078   5.085  1.2108 -0.0935 -0.3474
  194MOL0     C26089  11.524   2.142   5.114 -0.5260 -0.1250 -0.0036
  194MOL0     O26090  11.643   2.080   5.077  0.1198 -0.6764 -0.1450
  194MOL0     C26091  11.741   2.162   5.017 -0.0066  0.2793 -0.5509
  194MOL0     C26092  11.843   2.059   4.963  0.5666 -0.6974 -0.5170
  194MOL0     C26093  11.934   2.019   5.078 -0.3336  0.4276 -0.3148
  194MOL0     C26094  12.036   2.131   5.118  0.5582  0.3199 -0.4925
  194MOL0     C26095  12.154   2.085   5.203  0.2733 -0.4155 -0.0672
  194MOL0     C26096  12.257   2.189   5.252 -0.6103 -0.1028  0.9427
  194MOL0     C26097  12.358   2.121   5.347 -0.6215  0.6236 -0.2837
  194MOL0     C26098  12.463   2.219   5.392 -0.2685 -0.7368  0.5742
  194MOL0    Cl26099  12.392   2.366   5.470  0.1460  0.2359  0.0191
  194MOL0     C26100  11.521   2.260   5.185 -0.1345 -0.7801 -0.4589
  194MOL0     C26101  11.400   2.308   5.238  0.1845 -0.2143 -0.5024
  194MOL0     O26102  11.063   2.259   5.042 -0.3836 -0.3506  0.1937
  194MOL0     C26103  10.882   2.269   5.349 -0.4357  0.0129  0.2337
  194MOL0     C26104  10.758   2.219   5.397 -0.8078 -0.2906 -0.8713
  194MOL0     N26105  10.580   1.789   5.593  0.4982 -0.3448  0.5023
  194MOL0     N26106  10.714   1.780   5.601 -0.3915  0.3493  0.3700
  194MOL0     C26107  10.463   1.949   4.812 -0.5238  0.5644  0.1631
  194MOL0     C26108  10.330   1.978   4.789 -1.2254  0.4465 -0.4212
  194MOL0     C26109   9.982   2.232   4.644 -0.9945 -0.2416  0.4678
  194MOL0     C26110   9.977   2.331   4.551  0.1081 -0.0196 -0.7304
  194MOL0     C26111   9.851   2.404   4.545 -1.0504  0.0511  0.9848
  194MOL0     C26112   9.743   2.388   4.627 -0.5106  0.4144  0.3288
  194MOL0     O26113   9.642   2.472   4.615  0.1780  0.2225  0.4908
  194MOL0     C26114   9.510   2.438   4.665 -0.5123  0.0899  0.0128
  194MOL0     C26115   9.423   2.563   4.636  1.0699  1.0353 -0.0211
  194MOL0     C26116   9.288   2.549   4.711 -0.4322  0.1771  0.8739
  194MOL0     C26117   9.301   2.595   4.852  0.5254 -0.4023 -0.5692
  194MOL0     C26118   9.356   2.735   4.871  0.5709 -0.1118 -0.0669
  194MOL0     C26119   9.418   2.833   4.889 -0.8800 -0.2439  0.1906
  194MOL0     C26120   9.758   2.291   4.732 -1.4201  0.4465  0.7255
  194MOL0     C26121   9.870   2.204   4.737 -0.9283 -0.1481 -0.4269
  194MOL0     C26122   9.856   2.095   4.841  0.0356 -0.4202  0.8212
  194MOL0     H26123  10.339   2.307   4.855 -1.3178 -0.6678 -0.7317
  194MOL0     H26124  10.578   2.257   4.884 -0.2603  0.9223  0.7696
  194MOL0     H26125  10.640   1.858   4.966  0.0468 -0.9399 -0.7421
  194MOL0     H26126  10.751   1.826   4.823 -1.1782 -2.4428  1.0462
  194MOL0     H26127  10.827   1.978   5.070  2.0126 -0.8037  1.9117
  194MOL0     H26128  10.929   1.953   4.924 -1.2525 -0.2817 -1.4324
  194MOL0     H26129  10.931   1.704   4.957 -1.8962 -0.2989  0.0493
  194MOL0     H26130  10.837   1.730   5.101  0.1623 -0.4095  0.0027
  194MOL0     H26131  11.120   1.846   5.064 -0.4912  1.0874 -0.2779
  194MOL0     H26132  11.007   1.878   5.183 -1.4517 -1.4344  0.3021
  194MOL0     H26133  11.092   1.591   5.125  0.4998 -0.2125  0.5870
  194MOL0     H26134  11.164   1.692   5.239  0.2468 -2.9575  1.1975
  194MOL0     H26135  10.865   1.636   5.278  0.1696  0.9286  0.5965
  194MOL0     H26136  11.007   1.538   5.335  2.8309  1.4136 -0.4248
  194MOL0     H26137  11.099   1.730   5.462 -0.3035  1.2558 -1.2383
  194MOL0     H26138  10.955   1.642   5.522  0.0133  1.0595  0.6141
  194MOL0     H26139  10.926   1.904   5.548 -4.0715  0.2086  0.6292
  194MOL0     H26140  10.926   1.910   5.373 -2.5380  0.4374 -0.5577
  194MOL0     H26141  10.692   1.873   5.289  2.4639  3.8660  1.4835
  194MOL0     H26142  10.408   1.901   5.312 -1.0065 -0.0581  0.2588
  194MOL0     H26143  10.365   1.753   5.398  2.2263 -1.3250 -1.6739
  194MOL0     H26144  10.218   1.905   5.477 -0.0562 -0.2791 -3.1026
  194MOL0     H26145  10.345   1.920   5.612  1.8821  3.0577  0.1385
  194MOL0     H26146  10.277   2.144   5.549  0.3129  1.4865 -2.5816
  194MOL0     H26147  10.282   2.105   5.378  0.9271  2.4468 -0.6864
  194MOL0     H26148  10.528   2.073   5.552 -1.4548 -1.9541  0.3087
  194MOL0     H26149  10.469   2.239   5.516 -0.4998 -0.1551  5.0883
  194MOL0     H26150  10.598   2.185   5.100 -0.4123  0.6314 -0.5383
  194MOL0     H26151  10.806   2.219   5.022  2.0864  3.4164  0.3006
  194MOL0     H26152  11.212   2.071   5.095 -0.9194  1.7792  0.8352
  194MOL0     H26153  11.404   1.989   5.024 -0.8990  2.4280 -4.2157
  194MOL0     H26154  11.711   2.223   4.931 -0.6373  4.2248  2.2099
  194MOL0     H26155  11.785   2.233   5.088 -0.0190 -1.9397  1.8198
  194MOL0     H26156  11.782   1.978   4.920  1.4838 -1.9501  0.4735
  194MOL0     H26157  11.911   2.103   4.889  2.5758 -0.4820  1.3935
  194MOL0     H26158  11.872   1.995   5.165  4.8491 -0.2843  3.7601
  194MOL0     H26159  11.982   1.922   5.064  1.2414  1.0126  0.5966
  194MOL0     H26160  11.985   2.208   5.176 -3.0447 -1.5628 -0.8662
  194MOL0     H26161  12.083   2.171   5.027  3.6943  0.8210  1.2239
  194MOL0     H26162  12.202   2.002   5.150  4.6059  0.6762  1.7588
  194MOL0     H26163  12.113   2.034   5.290 -2.6217 -1.3096 -1.8100
  194MOL0     H26164  12.314   2.226   5.167  0.3851  1.0708  2.0788
  194MOL0     H26165  12.200   2.266   5.305 -2.8251  0.3246 -1.8170
  194MOL0     H26166  12.405   2.035   5.298 -1.8413 -0.4861  0.4201
  194MOL0     H26167  12.310   2.079   5.436  0.9254  2.7017  1.6837
  194MOL0     H26168  12.528   2.172   5.467 -1.2003  1.1990  2.7198
  194MOL0     H26169  12.526   2.252   5.309 -4.0843  2.5471 -1.3485
  194MOL0     H26170  11.615   2.313   5.198 -0.3059 -0.9057  1.6432
  194MOL0     H26171  11.404   2.397   5.299 -4.2195 -1.0732  1.4728
  194MOL0     H26172  10.952   2.300   5.425 -0.5558  0.4955  0.1490
  194MOL0     H26173  10.736   2.209   5.503  0.7853 -2.7785 -0.6798
  194MOL0     H26174  10.484   1.843   4.804 -0.8949  0.2054  3.0138
  194MOL0     H26175  10.268   1.893   4.765 -0.0374 -0.4065 -0.5452
  194MOL0     H26176  10.057   2.345   4.479 -0.9688  1.3466 -1.7257
  194MOL0     H26177   9.857   2.478   4.466 -3.0399 -1.0553 -0.2832
  194MOL0     H26178   9.502   2.411   4.771  0.9481 -1.5019 -0.2563
  194MOL0     H26179   9.464   2.358   4.606 -2.6591  2.1823 -1.3300
  194MOL0     H26180   9.410   2.558   4.527 -0.4018 -2.7893  0.1616
  194MOL0     H26181   9.479   2.655   4.654  2.0290  0.4321  0.1643
  194MOL0     H26182   9.260   2.443   4.717  2.7404 -0.7954  0.4452
  194MOL0     H26183   9.205   2.601   4.661 -0.0893 -0.6738 -0.6398
  194MOL0     H26184   9.200   2.592   4.895  0.6039 -0.4729 -0.3909
  194MOL0     H26185   9.361   2.519   4.900  0.5925  0.8279  1.3965
  194MOL0     H26186   9.472   2.918   4.926 -2.1206 -0.0949  1.7712
  194MOL0     H26187   9.680   2.283   4.807  0.5960  1.5953  3.0891
  194MOL0     H26188   9.935   2.024   4.865  0.5966  0.4741  1.7005
  194MOL0     H26189   9.847   2.145   4.938 -0.9723 -0.7141  0.8950
  194MOL0     H26190   9.764   2.039   4.823  1.3876 -2.5078  0.0633
  195MOL0     O26191   0.234   2.027   3.942  0.0072 -0.4846  0.7584
  195MOL0     C26192   0.202   2.013   4.061 -0.1237 -0.5111 -0.3115
  195MOL0     O26193   0.147   1.898   4.115 -0.8176 -0.1667  1.2205
  195MOL0     C26194   0.160   1.778   4.054 -0.3635  0.0903  0.2045
  195MOL0     C26195   0.254   1.746   3.959  0.0555  0.0412  0.2200
  195MOL0     C26196   0.285   1.618   3.909 -0.2862 -0.2296  0.1319
  195MOL0     C26197   0.192   1.522   3.942 -0.1920 -0.7756  0.0207
  195MOL0     O26198   0.220   1.398   3.891  0.1394 -0.1665 -0.0647
  195MOL0     C26199   0.111   1.313   3.854 -0.1295 -0.2494 -0.3862
  195MOL0     C26200   0.156   1.195   3.764  0.9838  0.3609 -0.6111
  195MOL0     C26201   0.227   1.236   3.632 -0.6743 -0.2471 -0.2265
  195MOL0     C26202   0.233   1.125   3.534 -0.1104  0.5980  0.2162
  195MOL0     C26203   0.324   1.151   3.409 -0.7311 -0.1196 -0.8852
  195MOL0     C26204   0.312   1.054   3.297 -0.9770  0.0868 -0.0977
  195MOL0     C26205   0.364   1.089   3.160  0.1233 -0.5951  0.3553
  195MOL0     C26206   0.295   1.197   3.079  0.6130  0.4455 -0.5944
  195MOL0     N26207   0.155   1.165   3.044 -0.0755  0.1073  0.5024
  195MOL0     C26208   0.047   1.183   3.128  0.3904  0.3088 -0.1721
  195MOL0     C26209  -0.052   1.117   3.059  0.3337 -0.1495 -0.4589
  195MOL0     C26210  -0.201   1.120   3.103 -0.3441  0.1532  0.3058
  195MOL0     C26211  -0.237   0.994   3.178 -0.7330 -0.2241  0.0537
  195MOL0     C26212  -0.246   1.007   3.327  0.3758 -0.1392  0.5330
  195MOL0     C26213  -0.235   0.873   3.398 -0.0648  0.2832 -0.5111
  195MOL0     O26214  -0.143   0.791   3.335  0.4745 -0.2631 -0.4014
  195MOL0     C26215  -0.011   0.787   3.383 -1.7537 -0.6973  0.3037
  195MOL0     C26216   0.084   0.744   3.286  0.2613 -0.5023  0.2014
  195MOL0     C26217   0.205   0.695   3.323  0.6397 -0.1643 -0.9663
  195MOL0     C26218   0.254   0.720   3.452  0.2547  0.6284  0.2234
  195MOL0     C26219   0.390   0.682   3.496  0.8004  0.0313  0.0332
  195MOL0     O26220   0.490   0.667   3.397  0.3414  0.2612  0.7894
  195MOL0     C26221   0.614   0.690   3.433 -0.4472 -0.7472 -0.3262
  195MOL0     C26222   0.662   0.821   3.402  0.1969 -0.5616  0.2358
  195MOL0     C26223   0.798   0.848   3.405  0.3274 -0.2621  0.2956
  195MOL0     C26224   0.889   0.741   3.436 -0.1670 -0.5541 -0.5377
  195MOL0     O26225   1.026   0.755   3.457  0.9495 -0.3509 -1.6274
  195MOL0     C26226   1.068   0.888   3.494 -0.2050 -0.1224 -0.2863
  195MOL0     C26227   1.214   0.896   3.540 -1.3758  0.1648 -0.4158
  195MOL0     C26228   1.270   1.038   3.574  0.1494  0.5488  0.8892
  195MOL0     C26229   1.409   1.043   3.635  0.2835  0.1688 -1.3097
  195MOL0     C26230   1.463   1.187   3.648 -0.3121  0.3641 -1.4834
  195MOL0     C26231   1.596   1.182   3.731  0.0686  0.0574  0.4814
  195MOL0     C26232   1.658   1.322   3.727  0.7670  0.3035 -0.0258
  195MOL0     C26233   1.649   1.395   3.867  0.4184  0.9600  1.2599
  195MOL0    Cl26234   1.744   1.542   3.860  0.1746 -0.1836  0.1623
  195MOL0     C26235   0.839   0.615   3.465  0.0821 -0.6737  0.4227
  195MOL0     C26236   0.700   0.597   3.471 -0.1975 -0.1153  0.1816
  195MOL0     O26237   0.416   0.671   3.613  0.7718 -0.8249 -0.0332
  195MOL0     C26238   0.166   0.772   3.544  0.3430  0.0709 -0.4743
  195MOL0     C26239   0.027   0.796   3.517 -0.2585 -0.2076  0.6347
  195MOL0     N26240  -0.006   1.067   2.938 -0.0914  0.3348  0.7604
  195MOL0     N26241   0.121   1.107   2.927  0.4414  0.8929 -0.2685
  195MOL0     C26242   0.078   1.552   4.018 -1.3317 -0.2188  0.5484
  195MOL0     C26243   0.073   1.674   4.090 -0.1790  0.0995  0.7545
  195MOL0     C26244   0.200   2.130   4.147  0.1573 -0.3409 -1.2519
  195MOL0     C26245   0.085   2.137   4.225  0.4706 -0.4004 -0.3176
  195MOL0     C26246   0.070   2.243   4.311 -0.2756  0.2262 -0.7704
  195MOL0     C26247   0.158   2.343   4.327  0.1510 -0.3009  0.2015
  195MOL0     O26248   0.141   2.440   4.422 -0.1191  0.3687 -0.4758
  195MOL0     C26249   0.055   2.550   4.380 -0.6459  0.2529 -0.4523
  195MOL0     C26250   0.135   2.632   4.273  0.3624 -0.1943  1.9673
  195MOL0     C26251   0.257   2.701   4.342  0.2899  0.3791 -0.3155
  195MOL0     C26252   0.225   2.826   4.422 -0.0798  0.1897 -0.4336
  195MOL0     C26253   0.308   2.939   4.388  0.5052  0.1455 -0.6428
  195MOL0     C26254   0.362   3.046   4.374 -0.4781  0.2464  0.2227
  195MOL0     C26255   0.286   2.323   4.264  0.5936 -0.3712  1.0066
  195MOL0     C26256   0.301   2.220   4.164 -0.3463 -1.2054 -0.0305
  195MOL0     C26257   0.431   2.208   4.095  0.0976 -0.0823 -0.0491
  195MOL0     H26258   0.328   1.818   3.926  1.2594 -0.3020  1.9893
  195MOL0     H26259   0.359   1.599   3.832 -1.9296 -2.1301 -1.0835
  195MOL0     H26260   0.063   1.265   3.939 -1.6991  0.7922 -0.6437
  195MOL0     H26261   0.023   1.370   3.821 -1.3026 -0.5189  2.0685
  195MOL0     H26262   0.063   1.141   3.742  1.3022 -0.5736  0.2902
  195MOL0     H26263   0.226   1.131   3.818  1.1983 -0.7596 -2.1537
  195MOL0     H26264   0.330   1.268   3.653  0.1974 -3.1321  0.3275
  195MOL0     H26265   0.179   1.327   3.594  2.0747  1.5099  0.2284
  195MOL0     H26266   0.255   1.028   3.579 -1.3481  0.1337 -0.1128
  195MOL0     H26267   0.131   1.109   3.495 -0.3448 -0.1521  1.1181
  195MOL0     H26268   0.310   1.255   3.376  4.2381  1.2895  0.5418
  195MOL0     H26269   0.426   1.146   3.449 -1.3664 -1.3396  0.6687
  195MOL0     H26270   0.362   0.961   3.329  0.1706  1.1106  1.2474
  195MOL0     H26271   0.209   1.018   3.287 -0.5817 -0.5503 -2.3995
  195MOL0     H26272   0.368   0.994   3.105 -1.3145 -2.4847  3.2369
  195MOL0     H26273   0.469   1.117   3.168  0.2931 -1.1353  0.0874
  195MOL0     H26274   0.302   1.290   3.137 -0.7836  1.9402 -2.6890
  195MOL0     H26275   0.355   1.207   2.988  1.1776 -2.0123 -0.5556
  195MOL0     H26276   0.028   1.241   3.217 -2.0674  0.9323 -1.0104
  195MOL0     H26277  -0.207   1.217   3.153 -0.1868  1.0318 -1.3293
  195MOL0     H26278  -0.255   1.123   3.008  0.0837  0.5966  0.0766
  195MOL0     H26279  -0.329   0.960   3.130  0.9035  0.5012 -4.0565
  195MOL0     H26280  -0.155   0.926   3.152 -0.0067  0.9450 -0.8244
  195MOL0     H26281  -0.345   1.052   3.342  0.1216 -0.5308  0.0537
  195MOL0     H26282  -0.170   1.079   3.357  1.1491 -0.6278 -0.2001
  195MOL0     H26283  -0.330   0.820   3.383  0.9855 -1.1344 -2.5076
  195MOL0     H26284  -0.210   0.885   3.504  1.2440 -0.0411 -0.7721
  195MOL0     H26285   0.051   0.725   3.184  0.0028  0.0239  0.1883
  195MOL0     H26286   0.272   0.658   3.246  0.2278 -1.0318 -0.9229
  195MOL0     H26287   0.600   0.906   3.376 -0.4693 -1.2738 -0.5693
  195MOL0     H26288   0.821   0.954   3.399  0.2404 -0.2917 -0.9196
  195MOL0     H26289   1.053   0.963   3.415 -2.9474 -1.1170 -0.8240
  195MOL0     H26290   1.001   0.909   3.578 -0.3111 -1.5870  0.0062
  195MOL0     H26291   1.223   0.833   3.629 -1.2708  1.4992  0.5349
  195MOL0     H26292   1.284   0.865   3.461 -0.3756  0.6991  0.2361
  195MOL0     H26293   1.269   1.099   3.483 -0.8443  2.8289  2.3339
  195MOL0     H26294   1.193   1.092   3.630 -0.5098  2.1063 -1.3818
  195MOL0     H26295   1.484   0.983   3.583  0.6074 -1.4668  0.8789
  195MOL0     H26296   1.394   0.985   3.727  0.4841  1.9612 -0.1014
  195MOL0     H26297   1.395   1.236   3.718 -0.1952  1.4902 -2.1427
  195MOL0     H26298   1.465   1.234   3.550 -0.3649  0.6245 -1.3594
  195MOL0     H26299   1.583   1.154   3.836  3.5620 -3.0978  0.2955
  195MOL0     H26300   1.656   1.105   3.682 -1.4020  0.7509 -2.6707
  195MOL0     H26301   1.612   1.380   3.647 -1.0358 -1.3700 -0.2746
  195MOL0     H26302   1.765   1.307   3.717  0.6875 -4.2640  3.0040
  195MOL0     H26303   1.542   1.413   3.885 -0.4237 -2.5962  0.5311
  195MOL0     H26304   1.683   1.314   3.932  4.2867 -0.7084 -2.3993
  195MOL0     H26305   0.905   0.535   3.497 -2.4653 -3.2312 -0.3265
  195MOL0     H26306   0.667   0.504   3.517  0.8753  0.4369  2.1731
  195MOL0     H26307   0.208   0.788   3.643  3.7597  0.6117 -1.8638
  195MOL0     H26308  -0.040   0.826   3.597  1.0783 -1.8040  2.4141
  195MOL0     H26309  -0.002   1.480   4.030 -2.8278  1.0062 -1.3579
  195MOL0     H26310  -0.011   1.702   4.152  1.6880  3.3910  2.0365
  195MOL0     H26311  -0.003   2.078   4.202 -0.4131  0.1258  1.4882
  195MOL0     H26312  -0.023   2.248   4.367  0.6059 -1.0041  0.8759
  195MOL0     H26313   0.024   2.611   4.466 -3.6223  0.3387 -1.4909
  195MOL0     H26314  -0.040   2.511   4.343  0.7881 -2.4979 -1.4942
  195MOL0     H26315   0.091   2.710   4.211  0.2260 -0.9386  1.0929
  195MOL0     H26316   0.164   2.562   4.194 -0.8266  1.9627 -0.5158
  195MOL0     H26317   0.330   2.729   4.265 -0.1691 -1.4362 -1.4972
  195MOL0     H26318   0.310   2.638   4.415  1.0482 -0.0705 -1.2179
  195MOL0     H26319   0.123   2.858   4.397 -0.2256  0.9418  1.0464
  195MOL0     H26320   0.229   2.821   4.531  0.6682  0.8659 -0.4249
  195MOL0     H26321   0.397   3.147   4.362  0.5277  0.0855  1.5653
  195MOL0     H26322   0.370   2.384   4.296 -0.6589  0.4560  2.9521
  195MOL0     H26323   0.500   2.280   4.140 -1.4353  1.4879 -0.0830
  195MOL0     H26324   0.469   2.106   4.100  0.5968  0.0990 -0.1406
  195MOL0     H26325   0.416   2.235   3.990 -2.9808 -3.5190 -0.6968
  196MOL0     O26326   7.240  10.260   8.840 -1.1046 -0.4801 -0.1412
  196MOL0     C26327   7.203  10.299   8.952 -0.1570 -0.3348  0.4419
  196MOL0     O26328   7.260  10.258   9.065 -0.0775  0.8719  0.0080
  196MOL0     C26329   7.396  10.248   9.073  0.3019  0.5145  0.4172
  196MOL0     C26330   7.484  10.316   8.997 -0.8451  0.0900 -0.3422
  196MOL0     C26331   7.629  10.311   9.019  0.4897 -0.0591  0.5432
  196MOL0     C26332   7.680  10.230   9.123 -1.3458  0.2602 -0.6705
  196MOL0     O26333   7.817  10.216   9.152  0.1565  0.3917  0.4119
  196MOL0     C26334   7.874  10.344   9.189  0.0132  0.2313 -0.5857
  196MOL0     C26335   7.996  10.325   9.266 -0.5875  1.0002  0.1410
  196MOL0     C26336   8.051  10.467   9.302 -0.2850  0.4487 -0.2283
  196MOL0     C26337   8.191  10.471   9.365 -0.5075  0.5263 -0.5753
  196MOL0     C26338   8.294  10.430   9.255 -0.7073 -0.8399 -0.8828
  196MOL0     C26339   8.430  10.421   9.325  0.6504 -0.1473  0.6596
  196MOL0     C26340   8.525  10.353   9.220  1.4959 -0.2939 -1.1759
  196MOL0     C26341   8.670  10.364   9.251  0.3612 -0.2361  0.3885
  196MOL0     N26342   8.704  10.512   9.253  1.1513 -0.8363 -0.4264
  196MOL0     C26343   8.715  10.594   9.136 -0.5527  0.3713 -0.1127
  196MOL0     C26344   8.759  10.712   9.174 -0.8223 -1.1277 -0.3834
  196MOL0     C26345   8.767  10.826   9.087  0.3372 -0.2642 -0.0792
  196MOL0     C26346   8.682  10.950   9.130 -0.2134 -0.7172  0.1282
  196MOL0     C26347   8.720  11.018   9.261  1.2119 -0.4486  1.1686
  196MOL0     C26348   8.848  11.094   9.263  0.0650 -0.1884  0.7381
  196MOL0     O26349   8.958  11.012   9.291  0.7150 -0.8859 -0.5013
  196MOL0     C26350   9.091  11.065   9.293 -0.3368  0.1610  0.2864
  196MOL0     C26351   9.129  11.204   9.272 -0.3513 -0.4324  0.7445
  196MOL0     C26352   9.266  11.234   9.282  0.4644  0.3691  0.0808
  196MOL0     C26353   9.371  11.137   9.305 -0.6612 -0.6264  0.8940
  196MOL0     C26354   9.516  11.170   9.320 -0.0862  1.1231 -0.6341
  196MOL0     O26355   9.556  11.298   9.265 -0.2187 -0.0148  0.3993
  196MOL0     C26356   9.689  11.324   9.293  0.7851  0.3069 -0.3500
  196MOL0     C26357   9.792  11.231   9.257 -0.0411  0.1907  1.4118
  196MOL0     C26358   9.923  11.256   9.283  0.4835  0.3090 -0.1260
  196MOL0     C26359   9.965  11.375   9.351  0.6948 -0.1859  0.1929
  196MOL0     O26360  10.089  11.384   9.405 -0.7005 -0.2220  0.9808
  196MOL0     C26361  10.182  11.433   9.312 -0.0178 -0.5135  0.8428
  196MOL0     C26362  10.326  11.454   9.365  1.1879 -0.7660 -0.2252
  196MOL0     C26363  10.328  11.524   9.498 -0.4007 -0.8324  0.2879
  196MOL0     C26364  10.453  11.606   9.525  0.1905  0.0550 -0.2226
  196MOL0     C26365  10.476  11.633   9.674  0.0906  1.3896 -0.7266
  196MOL0     C26366  10.358  11.691   9.757  0.3185 -0.0997 -0.0901
  196MOL0     C26367  10.402  11.769   9.880  0.3712 -0.0825  0.0920
  196MOL0     C26368  10.406  11.920   9.855  1.2329  0.1678 -0.1907
  196MOL0    Cl26369  10.520  11.959   9.738  0.3377  0.3179 -0.4689
  196MOL0     C26370   9.853  11.458   9.401 -0.4299  0.2595 -0.9846
  196MOL0     C26371   9.720  11.430   9.373 -0.5271 -0.6151  1.1898
  196MOL0     O26372   9.591  11.085   9.368  0.0977  0.8531 -0.0383
  196MOL0     C26373   9.332  11.007   9.329 -0.1788  0.1916  0.0399
  196MOL0     C26374   9.193  10.968   9.309 -1.2372  0.2289  0.4619
  196MOL0     N26375   8.790  10.702   9.310  0.5041  0.4731 -0.3739
  196MOL0     N26376   8.764  10.580   9.356 -0.5838 -0.2841 -0.2544
  196MOL0     C26377   7.591  10.161   9.204 -0.5016  0.5953  0.2602
  196MOL0     C26378   7.448  10.175   9.182  0.3227 -0.4464 -0.5568
  196MOL0     C26379   7.068  10.351   8.959 -0.8704 -0.1274  0.7786
  196MOL0     C26380   6.999  10.329   9.076  1.1110  0.5238  0.6638
  196MOL0     C26381   6.866  10.354   9.096 -0.3279 -0.5297 -0.2256
  196MOL0     C26382   6.790  10.405   8.983 -0.0802  0.0488  0.2868
  196MOL0     O26383   6.656  10.424   8.995 -0.3319  0.1284 -0.3086
  196MOL0     C26384   6.588  10.435   9.124  0.1703 -0.5020 -0.5509
  196MOL0     C26385   6.481  10.550   9.108 -0.3752 -0.6260 -0.3248
  196MOL0     C26386   6.375  10.515   9.001  0.2946  0.2352  0.1461
  196MOL0     C26387   6.293  10.644   8.983  0.3891 -0.3973 -0.2400
  196MOL0     C26388   6.150  10.628   8.969  0.1064  0.1592  0.0552
  196MOL0     C26389   6.029  10.627   8.987  0.6328  0.4588  0.7698
  196MOL0     C26390   6.857  10.424   8.864  0.8171 -0.1722  0.3752
  196MOL0     C26391   6.996  10.399   8.845 -0.1434  0.4619 -0.6852
  196MOL0     C26392   7.052  10.446   8.716 -0.6269 -0.1247 -0.3452
  196MOL0     H26393   7.456  10.387   8.919  1.7878  1.3081 -0.2912
  196MOL0     H26394   7.702  10.361   8.956  0.5437 -0.5610  0.1978
  196MOL0     H26395   7.887  10.406   9.100  1.0913 -0.0955 -0.6666
  196MOL0     H26396   7.798  10.403   9.241 -1.2230  1.7505 -3.8409
  196MOL0     H26397   8.079  10.282   9.210 -0.0481  1.6339  0.4340
  196MOL0     H26398   7.972  10.257   9.349 -2.8530 -1.3724 -2.2474
  196MOL0     H26399   7.975  10.503   9.372 -1.7103  0.4535 -1.7309
  196MOL0     H26400   8.054  10.540   9.220 -2.6087  0.5812 -0.2634
  196MOL0     H26401   8.212  10.568   9.410  0.7629  0.4659 -1.0114
  196MOL0     H26402   8.189  10.394   9.442 -1.2461  2.1422  1.0811
  196MOL0     H26403   8.276  10.333   9.206  0.8670 -0.4794 -2.2704
  196MOL0     H26404   8.301  10.504   9.175 -1.6585 -1.2507 -1.3674
  196MOL0     H26405   8.458  10.522   9.356  0.2858  0.5277 -1.0714
  196MOL0     H26406   8.421  10.363   9.417 -0.4332 -0.8272  0.1507
  196MOL0     H26407   8.520  10.393   9.118 -0.6360  1.2177 -0.5514
  196MOL0     H26408   8.496  10.248   9.216  1.3845 -0.3389  0.2619
  196MOL0     H26409   8.688  10.323   9.351  2.2543 -0.0606  0.1622
  196MOL0     H26410   8.727  10.309   9.175  1.5574  0.1246  0.9926
  196MOL0     H26411   8.709  10.560   9.033 -0.5671  2.1113 -0.7304
  196MOL0     H26412   8.872  10.851   9.068  0.3975 -1.2553 -1.1767
  196MOL0     H26413   8.724  10.789   8.993 -2.5070  0.3229  0.8736
  196MOL0     H26414   8.698  11.026   9.054  2.5961 -1.1852  0.1413
  196MOL0     H26415   8.576  10.921   9.135 -0.7250  1.1626  0.8756
  196MOL0     H26416   8.708  10.946   9.342  0.7600  0.4127  1.8908
  196MOL0     H26417   8.642  11.091   9.282  1.0343 -0.4203  0.4207
  196MOL0     H26418   8.838  11.171   9.339 -0.2579  1.1729 -0.6247
  196MOL0     H26419   8.864  11.147   9.169  0.6944 -3.2791 -1.0528
  196MOL0     H26420   9.043  11.268   9.255 -0.0598  0.2434  1.6908
  196MOL0     H26421   9.293  11.338   9.267  0.0382  0.4613 -0.0841
  196MOL0     H26422   9.772  11.138   9.206 -3.0214  2.3275 -1.7370
  196MOL0     H26423   9.994  11.176   9.264  0.4632  0.3090 -0.2001
  196MOL0     H26424  10.190  11.366   9.226  0.5543  2.9320 -2.0172
  196MOL0     H26425  10.144  11.530   9.279  1.7096 -0.2883 -0.6578
  196MOL0     H26426  10.382  11.360   9.370 -2.1636 -3.0400 -1.5801
  196MOL0     H26427  10.373  11.507   9.282  4.0500 -1.4544  0.8241
  196MOL0     H26428  10.246  11.596   9.509 -0.0195 -0.2000 -0.8857
  196MOL0     H26429  10.325  11.450   9.579  0.5408  0.7646  1.8684
  196MOL0     H26430  10.447  11.706   9.480  0.6306  1.4640  2.6086
  196MOL0     H26431  10.534  11.545   9.484  1.1680  1.0526  0.1500
  196MOL0     H26432  10.566  11.694   9.677 -0.4214  2.1248  0.6348
  196MOL0     H26433  10.496  11.539   9.725 -1.2943  1.3720 -0.1748
  196MOL0     H26434  10.287  11.744   9.693  0.2539  0.2427  0.2622
  196MOL0     H26435  10.298  11.608   9.797  1.8000 -2.6142 -2.7165
  196MOL0     H26436  10.498  11.736   9.919 -0.0479 -0.0676  1.1777
  196MOL0     H26437  10.326  11.759   9.958 -0.8108  0.6472 -0.9157
  196MOL0     H26438  10.306  11.959   9.830  0.3782 -0.6205  1.8062
  196MOL0     H26439  10.431  11.973   9.947  4.0617  2.0228 -1.8591
  196MOL0     H26440   9.864  11.542   9.468 -2.3367  0.1712 -0.5249
  196MOL0     H26441   9.646  11.500   9.411 -0.4803  0.8504 -1.2151
  196MOL0     H26442   9.409  10.930   9.336 -0.5430 -0.3623 -1.6501
  196MOL0     H26443   9.171  10.862   9.313  0.6068 -0.2381 -0.6978
  196MOL0     H26444   7.642  10.114   9.287  4.0582  1.4745 -1.7714
  196MOL0     H26445   7.382  10.123   9.251  0.7112 -0.1425  0.0491
  196MOL0     H26446   7.042  10.288   9.167  1.4659 -1.7749 -0.4746
  196MOL0     H26447   6.820  10.344   9.193  0.2227  2.1651  0.3862
  196MOL0     H26448   6.651  10.483   9.199 -1.9797 -0.5219  1.3827
  196MOL0     H26449   6.552  10.342   9.170  1.4504 -0.5143  0.4754
  196MOL0     H26450   6.541  10.639   9.087  0.9923 -1.8293 -1.7795
  196MOL0     H26451   6.427  10.564   9.202 -0.7873 -0.6345 -0.5565
  196MOL0     H26452   6.306  10.434   9.024 -1.2234  0.9163 -1.7277
  196MOL0     H26453   6.429  10.480   8.913 -0.9583 -1.0867 -0.1274
  196MOL0     H26454   6.295  10.703   9.076 -0.1731  0.3442 -0.6915
  196MOL0     H26455   6.334  10.705   8.902 -0.4155  0.5677  0.0527
  196MOL0     H26456   5.923  10.619   8.998  0.2918 -2.3542 -2.6917
  196MOL0     H26457   6.804  10.466   8.779  0.8099 -0.8782  0.0172
  196MOL0     H26458   7.060  10.555   8.723  1.7847 -0.3236  3.9026
  196MOL0     H26459   7.151  10.412   8.683  1.8863  3.8005  2.2655
  196MOL0     H26460   6.980  10.432   8.635 -1.2526  1.8973 -0.2092
  197MOL0     O26461   6.170  10.037   4.224 -0.5515  0.2083  0.3804
  197MOL0     C26462   6.160   9.926   4.178 -0.3468 -0.9097  0.5561
  197MOL0     O26463   6.264   9.866   4.115 -0.8070  0.1488 -0.1817
  197MOL0     C26464   6.381   9.945   4.105  0.0908  0.6100 -0.0024
  197MOL0     C26465   6.462   9.958   4.218  0.0223  0.3083 -0.3915
  197MOL0     C26466   6.570  10.049   4.218 -0.0364  0.2963 -0.4535
  197MOL0     C26467   6.601  10.119   4.101  0.2538  0.1098 -0.6639
  197MOL0     O26468   6.711  10.200   4.090 -0.2449 -0.3057  0.4521
  197MOL0     C26469   6.835  10.126   4.078 -0.5023 -0.0907 -0.2496
  197MOL0     C26470   6.859  10.056   3.942 -0.8398  0.3261 -0.3270
  197MOL0     C26471   6.948   9.930   3.964  0.1244 -0.3427  1.4863
  197MOL0     C26472   6.949   9.844   3.831  0.1450  0.2849  0.5089
  197MOL0     C26473   7.079   9.763   3.823  0.4094  0.2004  0.8840
  197MOL0     C26474   7.067   9.646   3.729  0.1440 -0.0867  0.2051
  197MOL0     C26475   7.058   9.682   3.579  0.9595  0.3251  0.1589
  197MOL0     C26476   7.096   9.568   3.483 -0.1674  0.2950 -0.5858
  197MOL0     N26477   7.077   9.594   3.342 -0.4055  0.1505  0.1548
  197MOL0     C26478   7.106   9.719   3.280  0.0262 -0.3035 -0.7555
  197MOL0     C26479   7.069   9.687   3.152  0.3681 -0.2120  0.3022
  197MOL0     C26480   7.084   9.768   3.026  0.4612  0.4164  0.0360
  197MOL0     C26481   7.223   9.732   2.972  0.0462 -0.0866  0.1534
  197MOL0     C26482   7.219   9.730   2.817 -0.0125 -0.2036 -0.2760
  197MOL0     C26483   7.362   9.696   2.772 -0.1582 -0.8062 -1.1718
  197MOL0     O26484   7.437   9.821   2.753 -0.8235  0.6267 -0.4523
  197MOL0     C26485   7.579   9.809   2.745  0.3670  0.7352 -0.7663
  197MOL0     C26486   7.643   9.682   2.732  0.2468 -0.5557 -0.1440
  197MOL0     C26487   7.779   9.679   2.725  0.3640 -1.7249  1.5439
  197MOL0     C26488   7.858   9.797   2.734  1.8830 -0.4404 -0.5177
  197MOL0     C26489   8.001   9.789   2.717  0.1003  0.5515 -0.1810
  197MOL0     O26490   8.065   9.667   2.750  0.6022 -0.0719 -0.4356
  197MOL0     C26491   8.201   9.668   2.715  0.7297  0.8424  0.4094
  197MOL0     C26492   8.237   9.662   2.584  1.0735 -0.0115 -0.2853
  197MOL0     C26493   8.373   9.685   2.543  0.3498 -0.5885  0.1659
  197MOL0     C26494   8.477   9.713   2.642 -0.6847  0.4336  0.4985
  197MOL0     O26495   8.616   9.714   2.615 -0.1324  0.3356 -0.2079
  197MOL0     C26496   8.660   9.697   2.482  0.4228 -0.3696  0.4842
  197MOL0     C26497   8.805   9.702   2.457 -0.8193 -0.6141  0.6704
  197MOL0     C26498   8.844   9.642   2.317 -0.5108  0.6335  0.0658
  197MOL0     C26499   8.765   9.680   2.193  0.0079  0.1584 -0.7642
  197MOL0     C26500   8.777   9.603   2.052  0.5174  0.1873 -0.0868
  197MOL0     C26501   8.910   9.626   1.983  0.4779  0.5763  0.1100
  197MOL0     C26502   8.913   9.587   1.834  1.2911  0.4139 -0.0946
  197MOL0     C26503   9.057   9.603   1.770  0.0978 -0.3938 -0.9566
  197MOL0    Cl26504   9.142   9.758   1.797  0.4805  0.0353  0.5014
  197MOL0     C26505   8.438   9.706   2.774  0.6892  0.5033  0.8890
  197MOL0     C26506   8.301   9.680   2.811 -0.0740  0.3820 -1.1589
  197MOL0     O26507   8.057   9.898   2.690  0.0950  0.8348  0.2313
  197MOL0     C26508   7.788   9.926   2.749  0.0918  0.5962  0.2129
  197MOL0     C26509   7.648   9.927   2.742 -0.1761 -0.0026 -1.1837
  197MOL0     N26510   7.015   9.555   3.136 -0.0504  0.3621 -0.3189
  197MOL0     N26511   7.030   9.497   3.250 -1.0993  0.4029 -0.7803
  197MOL0     C26512   6.525  10.106   3.984 -0.2662  0.6206  0.0516
  197MOL0     C26513   6.410  10.019   3.989  0.0007  0.3700  0.6673
  197MOL0     C26514   6.034   9.861   4.185  0.5949  0.2322 -0.0934
  197MOL0     C26515   5.989   9.793   4.063 -0.5276  0.5588  0.5837
  197MOL0     C26516   5.862   9.729   4.055 -1.0015  1.4162 -0.6934
  197MOL0     C26517   5.783   9.733   4.176 -0.3764  0.4148  0.1371
  197MOL0     O26518   5.664   9.671   4.161 -0.7877  1.1885  0.3335
  197MOL0     C26519   5.552   9.719   4.231  1.1713  0.7400  0.2449
  197MOL0     C26520   5.512   9.857   4.189 -0.6923  0.8181  0.5107
  197MOL0     C26521   5.505   9.862   4.034 -0.4570  0.7319 -0.0255
  197MOL0     C26522   5.384   9.938   3.979  0.0156  0.6547  0.4390
  197MOL0     C26523   5.264   9.851   3.995  0.5062 -0.9323 -0.0354
  197MOL0     C26524   5.164   9.780   4.029  1.2104  0.1812  0.2188
  197MOL0     C26525   5.826   9.788   4.298 -0.0015  0.0417  0.2426
  197MOL0     C26526   5.950   9.855   4.299  0.5421  0.2073  0.8706
  197MOL0     C26527   5.992   9.910   4.430 -0.6807  0.3116 -0.5216
  197MOL0     H26528   6.437   9.903   4.308  0.2573  1.0079  0.1092
  197MOL0     H26529   6.630  10.061   4.307  1.2913 -1.7999 -0.9986
  197MOL0     H26530   6.920  10.195   4.088  0.6466 -1.1577 -2.0676
  197MOL0     H26531   6.831  10.046   4.151 -2.3768 -1.8664 -2.1527
  197MOL0     H26532   6.905  10.127   3.872  1.3349 -1.8559 -1.2475
  197MOL0     H26533   6.766  10.026   3.892 -2.2451  3.9967 -0.2791
  197MOL0     H26534   6.909   9.874   4.050 -2.0678 -0.2311  0.6077
  197MOL0     H26535   7.047   9.963   3.998  0.9466 -3.3357  2.3367
  197MOL0     H26536   6.861   9.780   3.817 -0.2614  1.0818 -0.8044
  197MOL0     H26537   6.950   9.907   3.741 -0.6652  0.2640  0.4721
  197MOL0     H26538   7.166   9.821   3.789  2.7422 -2.0872  2.5304
  197MOL0     H26539   7.110   9.723   3.920  4.2710  0.0487 -0.2067
  197MOL0     H26540   7.156   9.587   3.755  1.0506  2.4726  3.7381
  197MOL0     H26541   6.977   9.593   3.761  1.0839 -1.1049  1.2879
  197MOL0     H26542   7.129   9.762   3.556  1.8856 -0.3385  0.6024
  197MOL0     H26543   6.958   9.722   3.559  0.0747 -3.2914 -4.4918
  197MOL0     H26544   7.195   9.537   3.517 -0.1441  0.7805 -0.1943
  197MOL0     H26545   7.026   9.486   3.503  1.7534 -1.5494 -1.1209
  197MOL0     H26546   7.137   9.814   3.322  1.6353 -0.5400 -1.3265
  197MOL0     H26547   7.001   9.749   2.957  0.3875 -2.4207  0.8183
  197MOL0     H26548   7.079   9.873   3.058 -1.5821 -0.4217  2.8077
  197MOL0     H26549   7.308   9.792   3.004  0.9558 -1.0625 -0.3704
  197MOL0     H26550   7.252   9.635   3.012  1.0825  0.1630  0.0318
  197MOL0     H26551   7.186   9.823   2.771 -0.8581  0.3466  1.3437
  197MOL0     H26552   7.156   9.644   2.791 -1.3661 -0.6225  3.6322
  197MOL0     H26553   7.353   9.637   2.680 -0.0259 -1.4339 -0.7846
  197MOL0     H26554   7.410   9.633   2.847 -0.8182 -0.3560 -0.3639
  197MOL0     H26555   7.593   9.587   2.720  0.7038 -0.5912 -2.1165
  197MOL0     H26556   7.819   9.579   2.712 -1.2894 -2.0970 -1.9029
  197MOL0     H26557   8.153   9.636   2.520 -1.5016 -0.8143  3.1163
  197MOL0     H26558   8.394   9.676   2.437 -4.6016  0.2869 -1.1409
  197MOL0     H26559   8.625   9.595   2.463  1.7695 -1.5300  3.5349
  197MOL0     H26560   8.604   9.765   2.418 -0.8547 -0.2996  1.6153
  197MOL0     H26561   8.846   9.803   2.463 -0.0515 -0.5117 -3.4626
  197MOL0     H26562   8.858   9.649   2.537  1.7221  1.1365  0.2802
  197MOL0     H26563   8.949   9.664   2.296 -0.5114  0.6716  0.1075
  197MOL0     H26564   8.838   9.533   2.320  1.0193  0.5425  0.3553
  197MOL0     H26565   8.790   9.786   2.176 -1.1649  0.6928  0.6870
  197MOL0     H26566   8.657   9.681   2.212  0.2469  0.3099  0.7228
  197MOL0     H26567   8.690   9.624   1.990  0.2435 -0.2603  0.1449
  197MOL0     H26568   8.764   9.496   2.070 -0.9281  0.7019  2.3604
  197MOL0     H26569   8.933   9.733   1.984 -2.0077  1.1841 -1.1781
  197MOL0     H26570   8.982   9.570   2.044  0.2369 -0.2258 -0.3239
  197MOL0     H26571   8.845   9.641   1.768  1.6103 -2.1323 -2.7407
  197MOL0     H26572   8.877   9.484   1.836  1.3431  0.4053  1.9458
  197MOL0     H26573   9.114   9.526   1.822 -1.3087 -0.1542  1.0604
  197MOL0     H26574   9.040   9.588   1.664  0.5810  0.7965 -1.2240
  197MOL0     H26575   8.505   9.714   2.859 -0.4442 -0.3527  1.9010
  197MOL0     H26576   8.274   9.678   2.916  2.1422 -1.0840 -0.5445
  197MOL0     H26577   7.847  10.015   2.735  0.7977 -0.3632 -5.3155
  197MOL0     H26578   7.596  10.023   2.747  0.3359  0.2218  0.4725
  197MOL0     H26579   6.549  10.166   3.897  3.0401 -0.2635  0.2114
  197MOL0     H26580   6.348  10.006   3.900  0.7049  4.5359 -0.6536
  197MOL0     H26581   6.060   9.801   3.980 -0.7571  1.3179  0.4595
  197MOL0     H26582   5.822   9.672   3.972 -1.1164 -1.0434  0.9719
  197MOL0     H26583   5.575   9.724   4.338 -1.4244  3.0952  0.8108
  197MOL0     H26584   5.467   9.653   4.213  2.7823 -0.5905 -3.7442
  197MOL0     H26585   5.588   9.929   4.222  2.2536 -2.7176  2.0585
  197MOL0     H26586   5.418   9.884   4.238 -1.6233 -2.3678  0.6497
  197MOL0     H26587   5.488   9.759   4.002 -1.8231  0.5685  1.1311
  197MOL0     H26588   5.602   9.899   3.997 -0.5120 -1.3963 -2.5623
  197MOL0     H26589   5.367  10.027   4.040 -3.1899  0.6161 -0.2289
  197MOL0     H26590   5.393   9.973   3.875  0.7882 -0.7483  0.0095
  197MOL0     H26591   5.086   9.711   4.054  0.2385  0.2805 -2.2749
  197MOL0     H26592   5.765   9.794   4.387  1.9797  3.2170  1.5480
  197MOL0     H26593   5.911   9.922   4.501  0.1580 -1.1198  0.7379
  197MOL0     H26594   6.065   9.844   4.478 -0.6687  1.0082  0.4485
  197MOL0     H26595   6.034  10.011   4.422 -2.5599  0.9707 -3.5123
  198MOL0     O26596   3.625   4.935   6.997 -0.8410  0.7296  0.6248
  198MOL0     C26597   3.545   4.986   7.077  0.7135 -0.0386 -0.2614
  198MOL0     O26598   3.561   5.112   7.139 -0.2246  0.3493  0.2764
  198MOL0     C26599   3.688   5.170   7.137 -0.2264 -0.2428 -0.3544
  198MOL0     C26600   3.821   5.116   7.135 -0.2189 -1.3184 -0.4791
  198MOL0     C26601   3.939   5.196   7.139  0.1852  0.8520  0.3965
  198MOL0     C26602   3.925   5.334   7.141 -0.3138  0.2417 -0.3026
  198MOL0     O26603   4.035   5.414   7.130  0.1903 -0.5398  0.2049
  198MOL0     C26604   4.028   5.546   7.188  0.7690  0.3547  0.2649
  198MOL0     C26605   4.160   5.611   7.209 -0.9828 -0.5617  0.2606
  198MOL0     C26606   4.224   5.570   7.341 -0.0332  1.1920  0.1258
  198MOL0     C26607   4.367   5.618   7.351 -0.0363  0.9369  0.2739
  198MOL0     C26608   4.440   5.563   7.469 -0.3713  0.3156  0.1732
  198MOL0     C26609   4.582   5.612   7.456 -0.0755 -0.7604  0.5030
  198MOL0     C26610   4.651   5.590   7.587  0.9937 -0.0125 -1.1741
  198MOL0     C26611   4.685   5.443   7.619  0.6704  0.0363  0.3015
  198MOL0     N26612   4.807   5.420   7.688 -0.0635 -0.0652 -0.7934
  198MOL0     C26613   4.818   5.421   7.823 -0.0554  1.0592 -0.5644
  198MOL0     C26614   4.949   5.387   7.847 -0.0733  0.2129  0.4392
  198MOL0     C26615   5.017   5.402   7.976  0.4114 -0.1166  0.1826
  198MOL0     C26616   5.034   5.553   8.011 -0.8537 -0.4255  0.3735
  198MOL0     C26617   5.104   5.645   7.902 -0.5355 -0.1374 -0.3956
  198MOL0     C26618   5.257   5.628   7.884  0.7827 -0.0116 -0.5224
  198MOL0     O26619   5.333   5.699   7.989 -0.2786 -0.3614  0.5901
  198MOL0     C26620   5.472   5.667   7.994  1.4881  0.0299 -0.5643
  198MOL0     C26621   5.531   5.708   8.112  0.0512 -0.6752  0.4707
  198MOL0     C26622   5.658   5.676   8.141 -0.1980 -0.3313  0.4081
  198MOL0     C26623   5.740   5.607   8.052  0.1766  0.0292 -0.2554
  198MOL0     C26624   5.877   5.581   8.091 -1.0472 -0.0725 -0.2905
  198MOL0     O26625   5.926   5.618   8.216  1.1200 -0.5080  0.0173
  198MOL0     C26626   6.059   5.623   8.247  0.2303 -0.3305 -0.0734
  198MOL0     C26627   6.100   5.566   8.371 -1.0038  0.7672  0.6198
  198MOL0     C26628   6.238   5.571   8.406  0.4381 -0.3215  0.0499
  198MOL0     C26629   6.328   5.619   8.309 -0.2780 -0.4101 -0.8620
  198MOL0     O26630   6.472   5.635   8.321  0.6143  0.1455 -0.7226
  198MOL0     C26631   6.534   5.583   8.443 -0.9220 -0.6439  0.2549
  198MOL0     C26632   6.688   5.621   8.432 -0.0543 -0.6654 -0.0618
  198MOL0     C26633   6.761   5.495   8.492  0.3618 -0.0483 -0.1712
  198MOL0     C26634   6.892   5.555   8.535 -1.1628 -0.0338 -0.3929
  198MOL0     C26635   6.972   5.450   8.610 -0.1452 -0.4510  0.4006
  198MOL0     C26636   7.107   5.503   8.663 -0.1354 -0.2904  0.4190
  198MOL0     C26637   7.193   5.398   8.752  0.0342 -0.1227 -0.0121
  198MOL0     C26638   7.290   5.315   8.671 -0.3206  0.0096  0.1912
  198MOL0    Cl26639   7.223   5.162   8.609  0.5355  0.7104  0.0437
  198MOL0     C26640   6.286   5.666   8.181 -1.2656  1.0032  0.2948
  198MOL0     C26641   6.152   5.671   8.154  0.3497  0.3562  0.2796
  198MOL0     O26642   5.945   5.529   8.000 -0.7362 -0.3694  1.3141
  198MOL0     C26643   5.686   5.564   7.925  0.2946 -0.4864  0.1487
  198MOL0     C26644   5.545   5.587   7.901  0.2623 -0.1236  0.2358
  198MOL0     N26645   5.011   5.364   7.720 -0.4787  0.1062  0.5515
  198MOL0     N26646   4.928   5.384   7.625  0.3285 -0.8222  0.9982
  198MOL0     C26647   3.794   5.383   7.153 -0.3638 -0.0180 -0.2509
  198MOL0     C26648   3.682   5.309   7.145 -0.8455  0.2819 -0.8988
  198MOL0     C26649   3.410   4.912   7.079 -0.0574 -0.6820 -1.1701
  198MOL0     C26650   3.307   4.987   7.133 -0.2473 -0.1241 -0.2502
  198MOL0     C26651   3.187   4.934   7.166 -0.7570 -0.2703 -0.3195
  198MOL0     C26652   3.166   4.809   7.118  0.7390  0.0878 -0.0590
  198MOL0     O26653   3.046   4.746   7.117  0.5146  0.5108  0.5398
  198MOL0     C26654   2.920   4.825   7.147 -0.1825  0.0129 -0.3318
  198MOL0     C26655   2.792   4.746   7.123 -0.8043  0.0728 -0.9104
  198MOL0     C26656   2.667   4.839   7.134 -0.9249 -0.1037  0.5523
  198MOL0     C26657   2.638   4.900   7.274  0.4653 -0.5356 -0.2204
  198MOL0     C26658   2.642   4.801   7.377 -0.8545  0.3434 -1.1885
  198MOL0     C26659   2.650   4.721   7.470 -0.4380 -0.3223  0.3485
  198MOL0     C26660   3.267   4.725   7.070  0.2874 -0.1328 -0.7697
  198MOL0     C26661   3.392   4.775   7.047 -0.2804 -0.5779  0.7162
  198MOL0     C26662   3.506   4.675   7.001  0.2916 -0.4226 -0.8978
  198MOL0     H26663   3.831   5.008   7.129 -1.1200 -1.5343  1.2398
  198MOL0     H26664   4.040   5.157   7.126  0.1196  1.3952 -2.4244
  198MOL0     H26665   3.973   5.612   7.119 -0.3643 -2.0011 -1.2081
  198MOL0     H26666   3.973   5.537   7.282  2.3736  0.2369  1.2170
  198MOL0     H26667   4.139   5.719   7.216 -1.4912 -0.6775  0.5551
  198MOL0     H26668   4.226   5.580   7.127 -1.5115 -3.9993  0.9893
  198MOL0     H26669   4.216   5.461   7.348  1.3396  1.1225  0.9165
  198MOL0     H26670   4.169   5.615   7.424 -0.9423 -0.6962  0.6181
  198MOL0     H26671   4.417   5.578   7.262 -0.2358 -1.3501  1.1479
  198MOL0     H26672   4.374   5.727   7.358  4.0127  0.9426 -1.1455
  198MOL0     H26673   4.399   5.607   7.561 -1.4117  2.3738 -1.2027
  198MOL0     H26674   4.433   5.454   7.470 -1.2316  0.3005 -2.3429
  198MOL0     H26675   4.635   5.565   7.372  2.3601  0.5449  1.2063
  198MOL0     H26676   4.573   5.721   7.452  0.3280 -0.5763  2.9435
  198MOL0     H26677   4.586   5.638   7.662 -0.0396 -0.7825 -1.5533
  198MOL0     H26678   4.745   5.645   7.586  0.6103  0.6461 -1.7332
  198MOL0     H26679   4.602   5.396   7.673 -1.6794 -0.7457 -3.5635
  198MOL0     H26680   4.691   5.386   7.526 -2.1736 -0.8279  0.5458
  198MOL0     H26681   4.745   5.451   7.897  0.0908  0.7557 -0.2948
  198MOL0     H26682   4.949   5.350   8.045 -1.8955  2.2495 -0.1437
  198MOL0     H26683   5.112   5.349   7.975  0.6328  0.2799 -0.2698
  198MOL0     H26684   4.937   5.591   8.045  0.2410  1.4963  1.5375
  198MOL0     H26685   5.097   5.560   8.101  0.9208  0.7300 -0.8948
  198MOL0     H26686   5.089   5.750   7.929  1.7661  0.3890 -0.9282
  198MOL0     H26687   5.054   5.628   7.807 -1.3258 -0.8792  0.1436
  198MOL0     H26688   5.277   5.662   7.782 -1.7077  0.1717 -1.0242
  198MOL0     H26689   5.277   5.521   7.885  3.4639  0.4297 -0.4893
  198MOL0     H26690   5.475   5.768   8.183  1.3279  0.9278  0.1905
  198MOL0     H26691   5.705   5.712   8.232  2.0024  0.2473 -0.8890
  198MOL0     H26692   6.020   5.535   8.437 -1.7686  0.2927 -0.5029
  198MOL0     H26693   6.282   5.536   8.498 -1.1370 -0.4682  0.7886
  198MOL0     H26694   6.492   5.625   8.534 -2.1822 -1.6286  0.1564
  198MOL0     H26695   6.510   5.477   8.459  1.3088 -2.2672 -4.9641
  198MOL0     H26696   6.703   5.629   8.324 -1.4494 -0.7494 -0.2718
  198MOL0     H26697   6.703   5.715   8.488 -0.8977 -1.1235  0.9659
  198MOL0     H26698   6.703   5.466   8.581  0.7169  0.2964  0.1774
  198MOL0     H26699   6.755   5.406   8.430  0.5743 -0.4595  0.3931
  198MOL0     H26700   6.875   5.643   8.597  3.2423  0.6213  0.2071
  198MOL0     H26701   6.951   5.598   8.453 -0.7935 -1.4386 -0.9002
  198MOL0     H26702   7.006   5.375   8.537  0.8012 -2.6029  2.8947
  198MOL0     H26703   6.914   5.406   8.691 -1.2508  2.6955  1.4744
  198MOL0     H26704   7.171   5.549   8.587 -3.3735 -0.0359 -2.4199
  198MOL0     H26705   7.090   5.581   8.738 -2.5002 -2.4023  2.2649
  198MOL0     H26706   7.122   5.338   8.810  0.4301  0.2854  0.9148
  198MOL0     H26707   7.255   5.451   8.825 -0.1239 -1.1711  0.9019
  198MOL0     H26708   7.329   5.378   8.591 -0.2947 -1.5341 -1.0591
  198MOL0     H26709   7.378   5.293   8.732  1.1668 -1.4144 -2.2865
  198MOL0     H26710   6.364   5.708   8.119 -2.2658  0.2675 -1.5376
  198MOL0     H26711   6.114   5.701   8.056  1.7320  3.0893  0.4735
  198MOL0     H26712   5.749   5.512   7.855  2.8907  1.6956  0.6737
  198MOL0     H26713   5.512   5.564   7.801  0.4857 -1.0624  0.3713
  198MOL0     H26714   3.775   5.490   7.161  2.0200  0.4385  0.1994
  198MOL0     H26715   3.583   5.350   7.163  0.1516  1.7020  1.9165
  198MOL0     H26716   3.335   5.090   7.154 -0.7802 -0.1254  0.4985
  198MOL0     H26717   3.110   5.005   7.197 -0.4190  0.5554 -1.3510
  198MOL0     H26718   2.921   4.920   7.092  0.8238 -0.6961 -1.5989
  198MOL0     H26719   2.926   4.862   7.250  1.7895  1.7240 -0.9876
  198MOL0     H26720   2.787   4.665   7.195  3.0383  1.4997  1.2662
  198MOL0     H26721   2.803   4.702   7.023 -0.6423 -1.7436 -0.1272
  198MOL0     H26722   2.578   4.784   7.104 -0.4412 -0.9539  0.6422
  198MOL0     H26723   2.669   4.927   7.069  1.1325  0.8214  1.7880
  198MOL0     H26724   2.710   4.979   7.298  0.9727 -1.2074  0.5253
  198MOL0     H26725   2.536   4.940   7.260  0.8954  0.7510  0.1492
  198MOL0     H26726   2.645   4.654   7.554  2.5260 -1.5845 -0.3351
  198MOL0     H26727   3.231   4.625   7.051 -3.3624  0.8733 -0.0654
  198MOL0     H26728   3.565   4.654   7.091  1.1006  2.0739 -0.7861
  198MOL0     H26729   3.469   4.582   6.957  1.2134 -2.0900  1.6332
  198MOL0     H26730   3.559   4.707   6.911 -1.2870 -1.1244 -2.1338
  199MOL0     O26731   9.620   7.922   8.651  0.3479 -0.8417  0.7002
  199MOL0     C26732   9.606   7.999   8.560  0.6401 -0.0608 -0.4429
  199MOL0     O26733   9.708   8.086   8.519  0.3887  0.0064  0.6097
  199MOL0     C26734   9.812   8.092   8.604  0.4497 -0.8380  0.2426
  199MOL0     C26735   9.905   7.993   8.590  0.2914 -0.0226 -1.0758
  199MOL0     C26736  10.021   7.999   8.672  0.0783 -0.4955  0.3377
  199MOL0     C26737  10.041   8.102   8.762 -0.0327 -0.5902  0.0411
  199MOL0     O26738  10.154   8.110   8.837  0.4971 -0.5659  0.1996
  199MOL0     C26739  10.258   8.015   8.842  0.4356 -0.2610  0.0235
  199MOL0     C26740  10.233   7.920   8.959  0.8877 -0.4787  0.4400
  199MOL0     C26741  10.355   7.887   9.047  0.1882  0.1868  0.4735
  199MOL0     C26742  10.415   8.018   9.114  0.2653  0.1591  0.9129
  199MOL0     C26743  10.509   7.978   9.230 -0.5759 -0.3839  0.5908
  199MOL0     C26744  10.545   8.099   9.308 -0.8541 -0.1556  0.1818
  199MOL0     C26745  10.661   8.065   9.403  0.0014 -0.0161 -0.2549
  199MOL0     C26746  10.717   8.187   9.477  0.1094  0.5322  0.9196
  199MOL0     N26747  10.780   8.287   9.400  0.3766 -0.6823  0.6081
  199MOL0     C26748  10.914   8.297   9.364  0.0869 -1.4059 -0.4821
  199MOL0     C26749  10.931   8.431   9.336 -0.6499  1.1368  0.0514
  199MOL0     C26750  11.072   8.475   9.299 -0.7537 -0.3644 -0.6754
  199MOL0     C26751  11.086   8.522   9.148 -0.3486  0.0867 -0.6324
  199MOL0     C26752  11.073   8.672   9.119  0.3119  0.7901 -0.9388
  199MOL0     C26753  11.189   8.752   9.186 -0.2403 -0.5263 -0.1411
  199MOL0     O26754  11.313   8.698   9.135  0.0918 -0.3608  0.1767
  199MOL0     C26755  11.415   8.705   9.226 -0.5284 -0.3502 -0.2381
  199MOL0     C26756  11.509   8.808   9.219 -0.8370  0.4189  0.3940
  199MOL0     C26757  11.608   8.816   9.322 -0.7586 -0.3300 -0.2607
  199MOL0     C26758  11.627   8.716   9.416  0.3008 -0.8865  0.3362
  199MOL0     C26759  11.734   8.722   9.516 -0.5120  0.0301  0.0641
  199MOL0     O26760  11.753   8.602   9.582  0.2147  0.2867 -0.4053
  199MOL0     C26761  11.848   8.606   9.681 -0.6237  0.5411  0.0336
  199MOL0     C26762  11.982   8.572   9.654 -0.3644 -0.5720  0.0778
  199MOL0     C26763  12.081   8.560   9.754  0.2079  0.0919 -0.7134
  199MOL0     C26764  12.034   8.580   9.893  0.3436 -0.0680  0.1747
  199MOL0     O26765  12.118   8.573  10.001 -0.3192  0.4818 -0.4514
  199MOL0     C26766  12.255   8.541   9.976  0.6184  0.3839  0.0362
  199MOL0     C26767  12.327   8.521  10.112  1.1760  0.2322  0.3169
  199MOL0     C26768  12.470   8.466  10.095  0.0224  0.6406  0.2720
  199MOL0     C26769  12.525   8.450  10.235  0.1806 -0.2205  0.1971
  199MOL0     C26770  12.682   8.471  10.249  0.0193 -0.7985 -0.3099
  199MOL0     C26771  12.731   8.426  10.385 -0.2624 -0.4857  0.0208
  199MOL0     C26772  12.884   8.440  10.401 -0.5591  0.0655 -0.0496
  199MOL0     C26773  12.968   8.385  10.289 -0.6321  0.1687 -0.2682
  199MOL0    Cl26774  12.944   8.206  10.298  0.2495  0.1034  0.2018
  199MOL0     C26775  11.903   8.611   9.920  0.3070  0.4562  1.7697
  199MOL0     C26776  11.808   8.625   9.812 -0.2332  1.5614 -0.1646
  199MOL0     O26777  11.798   8.834   9.533  0.2624 -0.0975 -0.2323
  199MOL0     C26778  11.529   8.619   9.425 -0.0193  0.1992 -0.5034
  199MOL0     C26779  11.436   8.602   9.323  0.5421 -0.1074  0.0823
  199MOL0     N26780  10.813   8.496   9.354  0.3344  0.2053  0.6275
  199MOL0     N26781  10.728   8.408   9.388 -0.7604 -0.4334 -0.0748
  199MOL0     C26782   9.942   8.201   8.771  0.5442  0.0901  1.4491
  199MOL0     C26783   9.820   8.194   8.700 -0.4703 -0.9743  0.1336
  199MOL0     C26784   9.492   7.968   8.477  1.1409 -0.2650  0.4234
  199MOL0     C26785   9.479   8.045   8.356  0.4063 -0.2323  0.0180
  199MOL0     C26786   9.374   8.026   8.268 -0.6264  0.3263 -0.1915
  199MOL0     C26787   9.283   7.924   8.293 -1.2200  0.1785  0.6473
  199MOL0     O26788   9.184   7.876   8.212 -0.1764 -0.3014 -0.2482
  199MOL0     C26789   9.188   7.915   8.074  0.7664 -0.5588  0.6336
  199MOL0     C26790   9.136   8.063   8.060 -0.4263  0.9564  0.6171
  199MOL0     C26791   9.020   8.087   7.965  0.9427  0.6676 -0.1537
  199MOL0     C26792   8.896   8.137   8.026  0.4381  0.0260 -0.4298
  199MOL0     C26793   8.801   8.139   7.919 -0.1794  0.8166 -0.3801
  199MOL0     C26794   8.715   8.113   7.836 -0.8586  0.0820  0.5009
  199MOL0     C26795   9.289   7.858   8.414  0.4782 -0.2353 -0.1246
  199MOL0     C26796   9.386   7.884   8.516 -0.4879 -0.9143  0.5703
  199MOL0     C26797   9.368   7.832   8.656  1.0155 -0.4407  0.9853
  199MOL0     H26798   9.885   7.919   8.513  1.5062  1.2531 -2.6973
  199MOL0     H26799  10.094   7.924   8.643 -0.8003 -0.4736 -2.1668
  199MOL0     H26800  10.273   7.968   8.745  0.9899  0.5820 -0.3047
  199MOL0     H26801  10.352   8.062   8.873  0.6066 -0.6438  0.0976
  199MOL0     H26802  10.184   7.834   8.912 -0.7378  0.6969 -0.0688
  199MOL0     H26803  10.157   7.964   9.024  1.3674  0.3247  0.4770
  199MOL0     H26804  10.432   7.847   8.980 -0.7433  1.1988 -1.2755
  199MOL0     H26805  10.319   7.814   9.119 -1.6785  0.0603 -0.5347
  199MOL0     H26806  10.466   8.082   9.040 -2.8840  1.8707  0.0233
  199MOL0     H26807  10.337   8.085   9.149 -0.1921 -0.8999  1.9789
  199MOL0     H26808  10.462   7.892   9.277 -3.4569 -0.3711 -1.9333
  199MOL0     H26809  10.601   7.950   9.177 -0.4224  1.4075 -0.1837
  199MOL0     H26810  10.589   8.175   9.243 -0.8418 -0.1887  0.1509
  199MOL0     H26811  10.462   8.143   9.364 -1.8173 -3.9832  2.1422
  199MOL0     H26812  10.741   8.025   9.341 -1.4048 -2.6955 -0.4889
  199MOL0     H26813  10.637   8.007   9.493  0.0880  2.2437  1.3090
  199MOL0     H26814  10.639   8.231   9.539  0.3455  1.2973  0.6798
  199MOL0     H26815  10.788   8.153   9.553  2.1077 -2.9680 -2.1524
  199MOL0     H26816  10.995   8.227   9.387  2.1209  1.5053  1.9578
  199MOL0     H26817  11.111   8.553   9.365  1.3444 -0.1844 -2.0083
  199MOL0     H26818  11.146   8.397   9.322 -1.2219 -0.8314 -0.7414
  199MOL0     H26819  11.171   8.470   9.102 -1.5527 -1.2790 -1.4211
  199MOL0     H26820  11.000   8.467   9.109  1.5365 -3.8917  0.1939
  199MOL0     H26821  10.979   8.710   9.161  0.0665  0.9171 -1.5930
  199MOL0     H26822  11.069   8.697   9.013  3.0943  5.3395 -0.2376
  199MOL0     H26823  11.181   8.732   9.293 -2.1632  1.2653  0.1001
  199MOL0     H26824  11.180   8.859   9.167  2.1718 -0.4038 -0.8639
  199MOL0     H26825  11.486   8.886   9.147 -1.2139 -0.7551 -0.8048
  199MOL0     H26826  11.677   8.899   9.318  0.3578 -1.1390  1.2971
  199MOL0     H26827  12.010   8.538   9.555 -0.0012 -2.5443  0.8165
  199MOL0     H26828  12.184   8.531   9.736  0.9650  1.9526  0.4144
  199MOL0     H26829  12.264   8.450   9.915 -0.0421  1.0277 -1.0753
  199MOL0     H26830  12.299   8.626   9.923 -0.4695  0.9229 -0.0251
  199MOL0     H26831  12.329   8.609  10.177 -2.3544 -0.4975  1.6276
  199MOL0     H26832  12.279   8.433  10.154 -0.6051  1.5095  1.0862
  199MOL0     H26833  12.459   8.369  10.045 -0.6194  1.3554 -1.0340
  199MOL0     H26834  12.528   8.532  10.030  0.3872 -1.6072 -1.8404
  199MOL0     H26835  12.492   8.350  10.264 -0.8729  1.0379  3.8754
  199MOL0     H26836  12.470   8.521  10.297 -3.0901 -1.8883 -0.5805
  199MOL0     H26837  12.699   8.579  10.238 -1.8027 -0.3094  1.2239
  199MOL0     H26838  12.726   8.414  10.167  5.0494 -1.6269  2.5965
  199MOL0     H26839  12.682   8.486  10.461 -1.3779 -0.3340 -0.7940
  199MOL0     H26840  12.699   8.323  10.403  1.4973 -1.6271 -2.7032
  199MOL0     H26841  12.926   8.401  10.495  1.5267  0.5522 -0.7232
  199MOL0     H26842  12.897   8.548  10.413 -1.0467 -0.0432  1.9052
  199MOL0     H26843  12.935   8.425  10.193  2.6245  1.9758 -0.7983
  199MOL0     H26844  13.074   8.407  10.307 -1.2581  0.9504  3.0021
  199MOL0     H26845  11.855   8.622  10.017  1.8559  1.1563  2.5070
  199MOL0     H26846  11.709   8.667   9.827  0.0923  1.6968  1.8002
  199MOL0     H26847  11.528   8.558   9.516 -0.4243  0.7700 -0.1214
  199MOL0     H26848  11.371   8.516   9.311  0.8997 -1.1263  4.1923
  199MOL0     H26849   9.965   8.287   8.833 -1.3172 -1.2754  4.2675
  199MOL0     H26850   9.740   8.266   8.696  1.6588  1.5362  0.0248
  199MOL0     H26851   9.548   8.126   8.336 -0.9306  1.2966  1.2992
  199MOL0     H26852   9.373   8.089   8.179 -1.2749 -0.2736 -0.6120
  199MOL0     H26853   9.124   7.851   8.013 -1.1422 -0.1801  2.1166
  199MOL0     H26854   9.289   7.912   8.032  0.7472 -2.6585  0.6334
  199MOL0     H26855   9.210   8.134   8.020 -2.6532  0.8343 -4.6158
  199MOL0     H26856   9.103   8.089   8.161  1.9977 -1.0457  2.0321
  199MOL0     H26857   8.989   7.993   7.918  1.9468 -0.2110  0.8845
  199MOL0     H26858   9.059   8.155   7.889  2.8926  0.2438  0.4133
  199MOL0     H26859   8.855   8.073   8.104 -1.4346  0.6296 -0.8694
  199MOL0     H26860   8.910   8.239   8.065  2.9508 -0.2513 -0.4498
  199MOL0     H26861   8.639   8.090   7.763  2.1975  1.4501 -3.4943
  199MOL0     H26862   9.209   7.786   8.432 -0.9451  1.2271 -0.4428
  199MOL0     H26863   9.258   7.826   8.662  0.5746 -1.5649 -4.1640
  199MOL0     H26864   9.408   7.732   8.674 -1.5879 -1.9462 -0.8390
  199MOL0     H26865   9.400   7.905   8.731  3.5581  0.7457 -1.1208
  200MOL0     O26866  11.294  10.162   0.135 -0.5672 -0.1677  0.2026
  200MOL0     C26867  11.334  10.056   0.195 -0.0420  0.6174  1.2753
  200MOL0     O26868  11.445  10.047   0.264 -0.4944 -0.8386  0.0015
  200MOL0     C26869  11.569  10.083   0.215 -0.3432  0.1233 -0.5131
  200MOL0     C26870  11.674  10.017   0.273 -0.6074 -0.3661  0.0724
  200MOL0     C26871  11.799  10.049   0.230  0.3591  0.4977 -0.1168
  200MOL0     C26872  11.832  10.151   0.132 -0.2905  0.5714 -0.6232
  200MOL0     O26873  11.967  10.176   0.107  0.0910  0.0314  0.1531
  200MOL0     C26874  12.001  10.305   0.058  0.1191  0.4528  0.9081
  200MOL0     C26875  12.144  10.319   0.053 -0.0229 -0.3812  0.4620
  200MOL0     C26876  12.194  10.241  -0.065  0.6266  0.0519  0.2281
  200MOL0     C26877  12.331  10.311  -0.111 -0.4452  0.4307  0.6997
  200MOL0     C26878  12.455  10.298  -0.030 -0.6638  0.6029  0.3198
  200MOL0     C26879  12.503  10.148  -0.011  0.2207 -0.1666  0.2614
  200MOL0     C26880  12.630  10.145   0.070 -0.1113 -0.9368 -0.2981
  200MOL0     C26881  12.699  10.016   0.056 -0.2228 -0.3101  0.7770
  200MOL0     N26882  12.846  10.003   0.081  0.2482  0.4197 -0.4716
  200MOL0     C26883  12.914  10.042   0.189  0.4904 -0.8141 -0.0200
  200MOL0     C26884  13.047  10.037   0.162  0.4919  0.0068 -0.8192
  200MOL0     C26885  13.152  10.083   0.263  0.3413  0.0776 -0.0200
  200MOL0     C26886  13.223   9.962   0.330  0.0290  0.1968 -0.4070
  200MOL0     C26887  13.339  10.028   0.410 -0.4660  0.2727 -0.2025
  200MOL0     C26888  13.431   9.917   0.442 -0.1575  0.7000 -0.4505
  200MOL0     O26889  13.386   9.851   0.563 -0.0725  0.6548 -0.1254
  200MOL0     C26890  13.483   9.775   0.617 -0.1675 -0.0897 -0.0329
  200MOL0     C26891  13.533   9.661   0.555  0.0671  0.2696  0.5846
  200MOL0     C26892  13.636   9.592   0.615  0.1600  0.1765  0.7750
  200MOL0     C26893  13.692   9.641   0.737  0.1536  0.1815  0.0310
  200MOL0     C26894  13.810   9.572   0.787 -0.6960  0.8379 -0.1753
  200MOL0     O26895  13.849   9.457   0.719  0.7310 -0.1486 -0.1386
  200MOL0     C26896  13.944   9.381   0.779 -0.5384 -0.5969  0.0603
  200MOL0     C26897  14.073   9.375   0.739  0.9436 -0.4422 -0.6992
  200MOL0     C26898  14.159   9.286   0.804 -0.3172  0.5402  0.0156
  200MOL0     C26899  14.115   9.195   0.903  0.6671  0.7041  1.1598
  200MOL0     O26900  14.196   9.116   0.975  0.2760  0.2759 -0.0806
  200MOL0     C26901  14.331   9.089   0.949 -0.4031 -0.9470 -0.4834
  200MOL0     C26902  14.424   9.166   1.037  1.1700  0.4750  0.1738
  200MOL0     C26903  14.481   9.298   0.986 -0.0321 -0.5966  0.0664
  200MOL0     C26904  14.618   9.341   1.036  0.6638 -0.1185 -0.3594
  200MOL0     C26905  14.673   9.460   0.962 -0.6712  0.1517 -0.5551
  200MOL0     C26906  14.814   9.508   1.016  0.5296  0.4537 -0.0020
  200MOL0     C26907  14.881   9.627   0.942 -0.2161  0.5975  0.3185
  200MOL0     C26908  14.977   9.711   1.026 -0.3466 -0.0847 -0.3365
  200MOL0    Cl26909  14.902   9.761   1.182  0.1393  0.2698  0.5451
  200MOL0     C26910  13.984   9.202   0.936  0.0817  0.8317 -0.5391
  200MOL0     C26911  13.897   9.300   0.883 -0.8242  0.2268 -0.0407
  200MOL0     O26912  13.866   9.616   0.886  0.0290 -0.1231  0.3699
  200MOL0     C26913  13.642   9.757   0.796 -0.4943  0.3482  0.3186
  200MOL0     C26914  13.533   9.820   0.742 -0.0565 -0.4396 -0.1772
  200MOL0     N26915  13.066   9.987   0.036  0.3836  0.6273  0.6153
  200MOL0     N26916  12.942   9.970  -0.014 -0.3343  0.1136 -0.7439
  200MOL0     C26917  11.722  10.223   0.078 -0.4982 -0.3486 -0.1368
  200MOL0     C26918  11.591  10.187   0.125 -1.1156  0.1930 -0.1023
  200MOL0     C26919  11.234   9.937   0.190  0.0399 -0.2187 -0.2503
  200MOL0     C26920  11.104   9.974   0.131 -0.2960  0.3276  0.9917
  200MOL0     C26921  11.009   9.877   0.116 -0.0079  0.1379  0.6755
  200MOL0     C26922  11.030   9.749   0.162 -0.1147  0.1083 -1.2036
  200MOL0     O26923  10.939   9.650   0.150  0.1446 -0.0427  0.0949
  200MOL0     C26924  10.795   9.672   0.122 -0.3151 -0.0221  0.1303
  200MOL0     C26925  10.740   9.750   0.244 -0.4757  0.1934  0.1041
  200MOL0     C26926  10.592   9.756   0.235 -0.1711  0.0039 -0.8721
  200MOL0     C26927  10.531   9.829   0.352  0.0841  0.2429 -0.8115
  200MOL0     C26928  10.514   9.980   0.337 -1.1462  0.7216  0.1379
  200MOL0     C26929  10.498  10.098   0.328 -0.7551  0.0040 -0.5737
  200MOL0     C26930  11.156   9.713   0.210  0.1173 -0.2227 -0.4035
  200MOL0     C26931  11.271   9.803   0.226  1.0727 -0.1789 -0.2047
  200MOL0     C26932  11.404   9.762   0.281  0.3105 -0.0117 -0.5010
  200MOL0     H26933  11.668   9.926   0.332 -1.5940 -0.9279 -0.8534
  200MOL0     H26934  11.886   9.994   0.264  0.4975  1.4492  1.1129
  200MOL0     H26935  11.952  10.324  -0.038 -2.7457 -1.2251  1.9263
  200MOL0     H26936  11.956  10.375   0.128 -0.6632  0.0761  0.7966
  200MOL0     H26937  12.182  10.275   0.146  2.4054  0.6561  0.0422
  200MOL0     H26938  12.185  10.420   0.061  1.4036 -0.7275 -1.6761
  200MOL0     H26939  12.127  10.256  -0.150  1.0581  2.5883  0.2452
  200MOL0     H26940  12.207  10.134  -0.046 -2.0652 -0.3435  0.2536
  200MOL0     H26941  12.349  10.266  -0.209 -5.4353  2.2313 -1.3981
  200MOL0     H26942  12.304  10.417  -0.123  2.5940  1.2652  0.3595
  200MOL0     H26943  12.543  10.335  -0.083  0.0260 -1.8311 -0.3617
  200MOL0     H26944  12.436  10.342   0.069  0.3952 -0.1583  0.8838
  200MOL0     H26945  12.432  10.083   0.040 -0.9399 -0.1443 -1.2459
  200MOL0     H26946  12.529  10.103  -0.107 -2.7348 -2.3075  0.3305
  200MOL0     H26947  12.607  10.158   0.176  1.3327 -0.3776 -0.0295
  200MOL0     H26948  12.702  10.220   0.037  0.5626 -1.3431  0.2209
  200MOL0     H26949  12.645   9.933   0.101  0.3090  0.6898  3.3968
  200MOL0     H26950  12.698   9.997  -0.052 -1.4662  1.6475  0.3957
  200MOL0     H26951  12.856  10.082   0.272  0.6539  4.7840 -2.1689
  200MOL0     H26952  13.224  10.139   0.203 -0.3768  1.6673  0.5555
  200MOL0     H26953  13.106  10.139   0.345  2.0023 -0.4545  1.3411
  200MOL0     H26954  13.167   9.912   0.410  3.5024 -1.5577  1.1285
  200MOL0     H26955  13.244   9.889   0.251 -2.2294 -0.3606 -0.5681
  200MOL0     H26956  13.312  10.090   0.495  2.2881  2.0922 -0.5207
  200MOL0     H26957  13.407  10.081   0.343  0.7006 -1.6350 -0.6009
  200MOL0     H26958  13.533   9.951   0.465  1.2413 -3.8877  1.3490
  200MOL0     H26959  13.444   9.845   0.361  1.8867 -1.7484  1.8350
  200MOL0     H26960  13.489   9.641   0.458 -1.9211  0.1721  1.4556
  200MOL0     H26961  13.660   9.502   0.560  0.5147 -1.0678  2.8489
  200MOL0     H26962  14.111   9.441   0.661  0.0974  1.8050  0.6835
  200MOL0     H26963  14.263   9.286   0.773 -0.8752  1.8140 -2.0536
  200MOL0     H26964  14.341   8.985   0.982 -0.3822 -0.5843  0.7373
  200MOL0     H26965  14.364   9.099   0.846  1.3416 -0.2640  0.0985
  200MOL0     H26966  14.367   9.194   1.125  0.4226  0.0947 -0.1788
  200MOL0     H26967  14.514   9.111   1.066  1.2985  0.1252 -0.8259
  200MOL0     H26968  14.477   9.288   0.877 -3.6504  0.5582 -0.0471
  200MOL0     H26969  14.415   9.382   1.009  1.8688  0.3929  2.2122
  200MOL0     H26970  14.687   9.257   1.024  2.3740  1.2129 -0.3847
  200MOL0     H26971  14.616   9.376   1.139  0.8129 -4.3310  1.2596
  200MOL0     H26972  14.610   9.549   0.955 -1.2054  0.1875  2.8182
  200MOL0     H26973  14.692   9.417   0.863  3.0072 -0.2415  0.1840
  200MOL0     H26974  14.805   9.538   1.120  2.8532  0.3454  0.2960
  200MOL0     H26975  14.886   9.428   0.996  0.2193  0.4295 -1.1077
  200MOL0     H26976  14.802   9.700   0.923 -0.8860  0.3161  1.9070
  200MOL0     H26977  14.922   9.611   0.842 -0.6112 -0.1741  0.2713
  200MOL0     H26978  15.061   9.647   1.057 -2.5206 -1.9300  2.1795
  200MOL0     H26979  15.025   9.792   0.969  0.9357  0.6116  1.6278
  200MOL0     H26980  13.944   9.142   1.018 -1.3605  1.8245 -0.4891
  200MOL0     H26981  13.805   9.299   0.940 -0.4468 -1.4382  0.6181
  200MOL0     H26982  13.684   9.795   0.888  0.6007  2.1554 -0.8706
  200MOL0     H26983  13.482   9.906   0.786 -1.0614 -0.3211 -1.5040
  200MOL0     H26984  11.744  10.294  -0.001 -0.2278 -0.6053 -0.2951
  200MOL0     H26985  11.507  10.244   0.085  0.1702  2.2795  0.0033
  200MOL0     H26986  11.081  10.074   0.097  0.6207 -0.4536 -2.3335
  200MOL0     H26987  10.907   9.901   0.089 -0.8605 -1.0395  2.6833
  200MOL0     H26988  10.750   9.572   0.120  0.1514 -0.2535 -2.3118
  200MOL0     H26989  10.773   9.726   0.029  3.9343  1.3181 -0.3523
  200MOL0     H26990  10.771   9.854   0.253  0.5656 -0.1628  0.7386
  200MOL0     H26991  10.777   9.690   0.327  2.0785  1.6350  0.1138
  200MOL0     H26992  10.545   9.658   0.235 -0.1192 -0.0548  0.6881
  200MOL0     H26993  10.565   9.808   0.143 -1.1743  1.1369  0.0104
  200MOL0     H26994  10.431   9.793   0.377  0.1611  1.2233  1.1892
  200MOL0     H26995  10.590   9.809   0.442  0.4632  0.0048 -1.1109
  200MOL0     H26996  10.477  10.202   0.317  3.2542  1.0320 -0.0707
  200MOL0     H26997  11.170   9.607   0.230 -0.2838  0.1780  2.4192
  200MOL0     H26998  11.422   9.829   0.365 -0.1707 -2.1996  1.4639
  200MOL0     H26999  11.413   9.663   0.326  1.5910 -0.6286 -2.0258
  200MOL0     H27000  11.479   9.768   0.201 -0.3444 -1.7901 -1.3130
  201MOL0     O27001   7.338   0.755   2.829  1.3227  0.2124 -0.7097
  201MOL0     C27002   7.219   0.800   2.831  0.0713 -0.4640  0.4865
  201MOL0     O27003   7.186   0.933   2.868 -0.1604 -0.0656 -0.0649
  201MOL0     C27004   7.272   1.021   2.925  0.1625  0.8500 -0.1345
  201MOL0     C27005   7.415   1.010   2.933 -0.9524 -1.0746 -0.4923
  201MOL0     C27006   7.485   1.113   2.991  1.0811 -0.3740 -0.6214
  201MOL0     C27007   7.423   1.232   3.041 -1.3810 -0.5133 -0.8285
  201MOL0     O27008   7.514   1.322   3.092  0.5677  0.6443 -1.7780
  201MOL0     C27009   7.484   1.371   3.224 -0.0520 -0.8480  0.9358
  201MOL0     C27010   7.605   1.462   3.261  0.0616 -0.0606  0.3540
  201MOL0     C27011   7.728   1.388   3.314  0.2212  0.7478  0.2085
  201MOL0     C27012   7.843   1.493   3.331 -0.9980 -0.7135 -0.0985
  201MOL0     C27013   7.984   1.435   3.346  1.1498  0.9386  0.3968
  201MOL0     C27014   8.092   1.539   3.388 -0.0907 -1.1848  0.3516
  201MOL0     C27015   8.228   1.466   3.407  0.2220  0.2339  0.0052
  201MOL0     C27016   8.284   1.425   3.277 -0.3632  0.6331  0.4753
  201MOL0     N27017   8.410   1.347   3.290  0.0107  0.9236 -0.2351
  201MOL0     C27018   8.512   1.332   3.200  0.0051 -0.1088 -0.0254
  201MOL0     C27019   8.595   1.245   3.256  0.0945  0.0185  0.6003
  201MOL0     C27020   8.732   1.201   3.210  0.2006  0.6269 -0.1408
  201MOL0     C27021   8.842   1.314   3.212  0.1791 -0.2912 -0.0785
  201MOL0     C27022   8.849   1.406   3.339  0.2223  0.6339 -0.5956
  201MOL0     C27023   8.946   1.353   3.439  0.1618  1.3392 -0.6748
  201MOL0     O27024   8.932   1.210   3.464 -0.4724 -0.1488  0.4682
  201MOL0     C27025   9.034   1.146   3.522  0.0621  0.3050 -0.5082
  201MOL0     C27026   9.153   1.204   3.587  0.0036  0.2796  0.5667
  201MOL0     C27027   9.252   1.130   3.647 -1.1302  0.2853 -0.6699
  201MOL0     C27028   9.240   0.995   3.649 -0.1099  0.4086 -0.3030
  201MOL0     C27029   9.344   0.920   3.720 -0.3300  1.0653 -0.4846
  201MOL0     O27030   9.425   0.999   3.794  0.6088 -0.1183 -0.2602
  201MOL0     C27031   9.486   0.942   3.900 -0.0886 -0.4277  0.6897
  201MOL0     C27032   9.570   0.826   3.881  0.9246 -0.4685  0.4278
  201MOL0     C27033   9.617   0.758   3.998 -0.0015 -0.5569  0.0415
  201MOL0     C27034   9.605   0.812   4.131 -0.4496  0.4151  0.1533
  201MOL0     O27035   9.650   0.753   4.247  0.2852 -0.9003  0.5874
  201MOL0     C27036   9.591   0.640   4.296 -0.7996 -0.8339 -0.2091
  201MOL0     C27037   9.471   0.662   4.385  0.6875  0.8533 -0.3676
  201MOL0     C27038   9.418   0.529   4.441  0.1689  0.0827 -0.3992
  201MOL0     C27039   9.294   0.547   4.546  0.5982 -0.9936  0.2837
  201MOL0     C27040   9.169   0.608   4.465 -0.7739  0.7609  0.2311
  201MOL0     C27041   9.048   0.643   4.551  1.0211 -0.0461  0.4092
  201MOL0     C27042   8.938   0.712   4.479 -0.6645 -1.8671  0.1100
  201MOL0     C27043   8.801   0.695   4.544 -0.2117  0.4549 -0.4304
  201MOL0    Cl27044   8.680   0.742   4.432 -0.0630 -0.1403 -0.7943
  201MOL0     C27045   9.526   0.928   4.138 -0.3373  0.8017 -0.4293
  201MOL0     C27046   9.464   0.992   4.026 -0.2543  0.4420 -0.5588
  201MOL0     O27047   9.337   0.794   3.721  0.0862  0.1958  0.3114
  201MOL0     C27048   9.121   0.939   3.598  0.6760  0.5381 -0.4388
  201MOL0     C27049   9.021   1.012   3.536  0.5778 -0.1672  0.2763
  201MOL0     N27050   8.546   1.207   3.385  0.3865 -0.4616 -0.3065
  201MOL0     N27051   8.436   1.270   3.398 -1.2204  0.4771 -0.5511
  201MOL0     C27052   7.284   1.248   3.023 -0.5250  0.2410 -0.6914
  201MOL0     C27053   7.208   1.141   2.974 -0.3156 -0.3651 -0.0960
  201MOL0     C27054   7.108   0.712   2.800 -0.5934 -0.1394  1.0808
  201MOL0     C27055   6.995   0.726   2.881  0.1876  0.0945  0.4433
  201MOL0     C27056   6.880   0.645   2.865 -0.2170 -0.4565  0.5814
  201MOL0     C27057   6.883   0.543   2.764  0.4139  0.0256 -0.6220
  201MOL0     O27058   6.796   0.439   2.747 -0.0133 -0.0121 -0.5985
  201MOL0     C27059   6.656   0.465   2.775 -0.2046 -0.4401  1.3351
  201MOL0     C27060   6.566   0.362   2.716 -0.7118 -0.0396 -0.0407
  201MOL0     C27061   6.560   0.398   2.571  0.4796  0.9576 -0.1092
  201MOL0     C27062   6.501   0.293   2.484  0.2920 -0.3861 -0.0222
  201MOL0     C27063   6.362   0.266   2.521  0.1463  0.6310 -0.9358
  201MOL0     C27064   6.238   0.262   2.553 -0.2867  0.0854  0.8170
  201MOL0     C27065   6.993   0.528   2.684 -0.0200  0.4752  1.1864
  201MOL0     C27066   7.103   0.608   2.700  0.2567  0.2437 -0.3886
  201MOL0     C27067   7.231   0.563   2.634  0.3815  0.4829  0.1134
  201MOL0     H27068   7.477   0.928   2.899 -1.1602 -1.1030 -0.8042
  201MOL0     H27069   7.594   1.115   2.995  1.0908 -1.7562  1.4604
  201MOL0     H27070   7.395   1.435   3.222 -0.6802 -1.6576 -2.2756
  201MOL0     H27071   7.477   1.290   3.297 -0.8933 -0.3918  1.3829
  201MOL0     H27072   7.574   1.532   3.340  0.1154 -0.2938  0.5819
  201MOL0     H27073   7.621   1.522   3.171 -1.1332 -1.3168 -0.7540
  201MOL0     H27074   7.753   1.304   3.248  0.6233  0.3273  0.8829
  201MOL0     H27075   7.703   1.346   3.411  2.5376  1.5012  1.2159
  201MOL0     H27076   7.827   1.539   3.234 -2.6264  2.0891  1.3694
  201MOL0     H27077   7.810   1.563   3.408 -1.8923  0.1746 -1.2545
  201MOL0     H27078   7.980   1.354   3.420 -1.5835  0.1645 -0.4661
  201MOL0     H27079   8.006   1.390   3.249  0.7717  0.8583  0.3475
  201MOL0     H27080   8.102   1.615   3.310  1.2017 -1.0541  0.6222
  201MOL0     H27081   8.064   1.591   3.480 -0.8860  0.3599 -0.7245
  201MOL0     H27082   8.211   1.378   3.470  2.8726  1.0279  2.0594
  201MOL0     H27083   8.304   1.519   3.466  1.8310 -0.8193 -1.0297
  201MOL0     H27084   8.214   1.359   3.225 -0.3366 -1.3882  2.8331
  201MOL0     H27085   8.313   1.517   3.226  3.5358 -0.3580  0.5691
  201MOL0     H27086   8.515   1.386   3.106 -2.0693 -0.9978 -0.6467
  201MOL0     H27087   8.762   1.114   3.269  1.3908  0.9146 -0.2951
  201MOL0     H27088   8.724   1.168   3.106  0.6122 -1.6043  0.4905
  201MOL0     H27089   8.943   1.279   3.189  1.0133  0.2365  2.4745
  201MOL0     H27090   8.811   1.378   3.128 -2.7214 -1.3904  0.0417
  201MOL0     H27091   8.749   1.419   3.381  0.4905  0.4201  0.1062
  201MOL0     H27092   8.875   1.510   3.316 -0.2572  0.7455 -0.6421
  201MOL0     H27093   8.919   1.396   3.536  1.3860  1.6837 -0.4706
  201MOL0     H27094   9.049   1.375   3.410  1.7502 -1.8829  1.8897
  201MOL0     H27095   9.168   1.311   3.570  2.7871 -0.4153 -2.4693
  201MOL0     H27096   9.330   1.189   3.694  0.7372 -2.9042  0.5795
  201MOL0     H27097   9.576   0.776   3.784 -2.2168 -1.2429  0.5455
  201MOL0     H27098   9.675   0.667   3.987 -1.1439 -1.4003  0.7069
  201MOL0     H27099   9.576   0.577   4.207  1.2358 -0.2893 -0.9920
  201MOL0     H27100   9.664   0.581   4.351 -0.1522 -0.0844 -0.2547
  201MOL0     H27101   9.503   0.732   4.462  0.2484  0.0652  0.5526
  201MOL0     H27102   9.396   0.715   4.326  1.8413  2.6987 -0.2426
  201MOL0     H27103   9.403   0.466   4.353 -0.8226 -0.3579  0.0683
  201MOL0     H27104   9.498   0.482   4.498 -1.7146 -1.0111  1.4906
  201MOL0     H27105   9.316   0.593   4.643 -0.3290 -0.9155  0.4633
  201MOL0     H27106   9.258   0.449   4.581  1.9536 -1.9502 -0.8546
  201MOL0     H27107   9.133   0.537   4.390  1.9707  0.9712 -1.4397
  201MOL0     H27108   9.200   0.696   4.406  0.0626 -0.5389 -1.3765
  201MOL0     H27109   9.014   0.552   4.601  0.2838  1.0248  1.9788
  201MOL0     H27110   9.076   0.707   4.636 -0.7304  0.4678  0.6368
  201MOL0     H27111   8.933   0.672   4.377 -4.7988 -0.1554 -0.5794
  201MOL0     H27112   8.964   0.817   4.470  0.8860 -2.0605  1.8208
  201MOL0     H27113   8.786   0.593   4.582  5.0234 -0.9148 -1.3216
  201MOL0     H27114   8.794   0.761   4.631  1.2772 -2.2637  1.9392
  201MOL0     H27115   9.509   0.960   4.240  0.9778 -2.1000  0.8047
  201MOL0     H27116   9.400   1.080   4.028  1.8069  1.9982 -0.5049
  201MOL0     H27117   9.095   0.834   3.607  0.5381  0.6614  0.8268
  201MOL0     H27118   8.925   0.978   3.499  0.9050 -1.8286  0.8701
  201MOL0     H27119   7.232   1.333   3.067 -0.9096 -1.4960  2.5404
  201MOL0     H27120   7.101   1.150   2.963 -0.2405  0.9873  0.0623
  201MOL0     H27121   7.005   0.799   2.960  0.0409 -0.9131  1.4194
  201MOL0     H27122   6.800   0.656   2.936 -1.9316 -1.3836 -1.1055
  201MOL0     H27123   6.635   0.563   2.733 -0.2677 -0.8604  0.3546
  201MOL0     H27124   6.641   0.457   2.883  0.1957 -2.2758  1.2848
  201MOL0     H27125   6.468   0.360   2.764  0.7514 -2.0887  3.2323
  201MOL0     H27126   6.605   0.260   2.718  0.8544  0.5370  1.7922
  201MOL0     H27127   6.662   0.417   2.536 -0.5591  0.2599 -3.9972
  201MOL0     H27128   6.506   0.487   2.538  0.4852  0.3409 -1.8824
  201MOL0     H27129   6.492   0.331   2.382 -0.2271 -3.4487 -1.2333
  201MOL0     H27130   6.572   0.209   2.485  1.3836  0.5125 -0.0064
  201MOL0     H27131   6.138   0.274   2.590  0.0846 -0.4276  2.0342
  201MOL0     H27132   6.997   0.442   2.619  2.9875  0.5992  1.0352
  201MOL0     H27133   7.243   0.640   2.557 -1.5686 -0.4316 -1.1884
  201MOL0     H27134   7.323   0.554   2.693 -1.2108 -1.2471  2.5656
  201MOL0     H27135   7.215   0.470   2.580  2.5000  0.9642 -1.4226
  202MOL0     O27136   2.539  10.820   3.525  0.4015  0.0893  0.3796
  202MOL0     C27137   2.466  10.867   3.432 -0.3853 -0.6342  0.1078
  202MOL0     O27138   2.503  10.983   3.361 -0.1527  0.9284 -0.4623
  202MOL0     C27139   2.630  11.028   3.374  0.5057 -0.2155  0.3010
  202MOL0     C27140   2.652  11.159   3.410 -0.0203  0.1802 -0.0069
  202MOL0     C27141   2.781  11.215   3.420 -0.3359  0.0565 -0.3785
  202MOL0     C27142   2.887  11.123   3.411 -0.6902  0.5519  0.3766
  202MOL0     O27143   3.003  11.188   3.436 -0.6144  0.3560 -0.0266
  202MOL0     C27144   3.121  11.109   3.449  0.5614 -0.4411  0.2471
  202MOL0     C27145   3.230  11.201   3.510  0.1579  0.6601 -0.2718
  202MOL0     C27146   3.207  11.252   3.656  0.3161  0.7062 -0.2966
  202MOL0     C27147   3.348  11.290   3.709 -0.2565  1.1533 -0.1791
  202MOL0     C27148   3.343  11.316   3.851 -0.1107 -1.1205 -0.7532
  202MOL0     C27149   3.346  11.190   3.944 -0.0265  0.1771 -0.3835
  202MOL0     C27150   3.476  11.105   3.931 -1.0135  0.7599  0.3446
  202MOL0     C27151   3.608  11.185   3.948  0.8456  0.0627  0.3484
  202MOL0     N27152   3.646  11.199   4.089 -0.4454  0.4274 -0.1578
  202MOL0     C27153   3.654  11.311   4.170  0.3848 -0.6853  0.3922
  202MOL0     C27154   3.722  11.274   4.273  0.0757  0.3655 -1.0771
  202MOL0     C27155   3.762  11.366   4.382  0.4224  0.0208 -0.0919
  202MOL0     C27156   3.869  11.460   4.341 -0.0861 -1.0204  0.2651
  202MOL0     C27157   3.916  11.539   4.471  0.3037  0.3455 -0.5087
  202MOL0     C27158   4.032  11.628   4.448  0.1141  0.4928 -0.1920
  202MOL0     O27159   4.000  11.739   4.367 -0.2225 -0.3215 -0.6572
  202MOL0     C27160   4.093  11.835   4.338 -0.2845 -0.8715  0.2276
  202MOL0     C27161   4.229  11.822   4.381  0.8524 -0.1576  0.2747
  202MOL0     C27162   4.313  11.930   4.351 -0.8942 -0.2202 -0.3259
  202MOL0     C27163   4.265  12.049   4.295  0.4133  0.3998  0.3738
  202MOL0     C27164   4.359  12.154   4.267 -0.4275 -0.5826 -0.8520
  202MOL0     O27165   4.480  12.151   4.329  0.1237 -0.4718  0.0391
  202MOL0     C27166   4.580  12.245   4.305 -0.4647 -0.3276 -0.1308
  202MOL0     C27167   4.624  12.256   4.174  0.7355  0.4265  0.6473
  202MOL0     C27168   4.747  12.323   4.143 -0.3515  0.6150 -0.5876
  202MOL0     C27169   4.817  12.389   4.245 -0.3668  1.0334 -0.6109
  202MOL0     O27170   4.919  12.472   4.204 -0.0648  0.0168 -0.4591
  202MOL0     C27171   5.049  12.401   4.205  0.8090 -0.0342  0.3046
  202MOL0     C27172   5.153  12.514   4.220 -0.4051 -0.3840 -0.4962
  202MOL0     C27173   5.279  12.458   4.281 -0.3674  0.0653  0.0369
  202MOL0     C27174   5.389  12.565   4.302 -0.1913  1.1493  0.6765
  202MOL0     C27175   5.514  12.511   4.383  1.2949  1.2030 -0.7590
  202MOL0     C27176   5.619  12.617   4.368 -0.4317 -0.3429 -0.6078
  202MOL0     C27177   5.758  12.571   4.422  0.9690 -1.0682 -0.3053
  202MOL0     C27178   5.845  12.697   4.456 -0.4346 -0.2172 -0.0034
  202MOL0    Cl27179   6.019  12.645   4.471  0.2997 -0.0443 -0.1496
  202MOL0     C27180   4.772  12.381   4.380 -0.0782  0.3259  0.2387
  202MOL0     C27181   4.659  12.304   4.407  0.1855  0.6789 -0.7241
  202MOL0     O27182   4.324  12.239   4.186 -0.1822 -0.8281  0.5648
  202MOL0     C27183   4.132  12.045   4.238 -0.6656 -1.4377  0.2359
  202MOL0     C27184   4.047  11.944   4.268  0.5176 -0.4143 -0.1318
  202MOL0     N27185   3.745  11.137   4.278  0.0597 -0.1869 -0.1096
  202MOL0     N27186   3.701  11.093   4.159  0.4924 -0.1403 -0.0944
  202MOL0     C27187   2.866  10.986   3.378  0.3167 -0.3083  0.1602
  202MOL0     C27188   2.738  10.942   3.370  0.2437 -0.1747  1.6668
  202MOL0     C27189   2.326  10.816   3.409 -0.8976  0.1119  0.3584
  202MOL0     C27190   2.228  10.912   3.362 -0.1283  0.0760  0.2023
  202MOL0     C27191   2.108  10.871   3.317 -0.7341 -0.6854 -0.2876
  202MOL0     C27192   2.075  10.737   3.325  0.8978  1.0635 -1.1664
  202MOL0     O27193   1.950  10.685   3.290 -0.9694 -0.0400 -0.0505
  202MOL0     C27194   1.835  10.766   3.264  0.3147  0.1457 -0.2137
  202MOL0     C27195   1.757  10.778   3.401 -0.2379 -0.2652 -0.2840
  202MOL0     C27196   1.829  10.871   3.496  0.2150  0.1436  0.1289
  202MOL0     C27197   1.759  10.913   3.635  0.3806  0.4638  0.2428
  202MOL0     C27198   1.717  10.793   3.708  0.9806  1.1081  0.2926
  202MOL0     C27199   1.676  10.697   3.774 -0.7019  0.0804 -0.4957
  202MOL0     C27200   2.169  10.640   3.367  0.7522  0.8404 -0.4348
  202MOL0     C27201   2.297  10.681   3.397  0.3641  0.1526 -0.6465
  202MOL0     C27202   2.398  10.584   3.444  0.0787 -0.8180 -0.8943
  202MOL0     H27203   2.571  11.231   3.400 -0.0380  0.2818  0.8515
  202MOL0     H27204   2.801  11.320   3.435  0.4503 -0.2222  0.6377
  202MOL0     H27205   3.097  11.028   3.519  1.2365 -1.9340 -1.1861
  202MOL0     H27206   3.154  11.074   3.351 -2.5549  1.3912 -1.6021
  202MOL0     H27207   3.240  11.280   3.436  0.8686 -0.8255 -1.8399
  202MOL0     H27208   3.325  11.148   3.495 -0.3571 -1.2670  2.5392
  202MOL0     H27209   3.175  11.162   3.709 -0.0095  0.6857 -0.5247
  202MOL0     H27210   3.138  11.334   3.676  0.4887  0.5544  0.9964
  202MOL0     H27211   3.425  11.216   3.687 -1.2627 -0.8306  2.4341
  202MOL0     H27212   3.376  11.372   3.642  0.4552  0.3741 -0.8689
  202MOL0     H27213   3.419  11.387   3.888 -3.6925  1.4126  2.5877
  202MOL0     H27214   3.247  11.363   3.875  0.4169 -0.8930  1.1256
  202MOL0     H27215   3.330  11.236   4.042  5.2584  0.6853  0.5564
  202MOL0     H27216   3.264  11.122   3.922  0.8309 -1.1057  0.2524
  202MOL0     H27217   3.482  11.059   3.831  5.7876 -2.1081  1.5020
  202MOL0     H27218   3.470  11.018   3.997 -3.6101  0.2510 -0.4500
  202MOL0     H27219   3.692  11.136   3.898 -0.4506 -0.2293 -1.6617
  202MOL0     H27220   3.606  11.277   3.889 -0.9840 -0.5163 -0.5902
  202MOL0     H27221   3.622  11.413   4.146  0.2331  1.0324  6.3798
  202MOL0     H27222   3.671  11.423   4.407  0.4990  0.6810 -1.2537
  202MOL0     H27223   3.781  11.304   4.470 -2.4559  0.5033  0.9823
  202MOL0     H27224   3.955  11.407   4.299 -0.3124  0.1341 -1.7387
  202MOL0     H27225   3.837  11.537   4.270  2.3288 -0.9818 -0.8824
  202MOL0     H27226   3.935  11.471   4.554 -2.7343 -0.4438 -0.3516
  202MOL0     H27227   3.841  11.612   4.500  0.0754 -0.2183  0.3597
  202MOL0     H27228   4.107  11.558   4.409 -0.0282 -0.3097  0.9278
  202MOL0     H27229   4.071  11.662   4.545 -1.6983  0.7936  0.4759
  202MOL0     H27230   4.263  11.728   4.422  0.5518  0.3882  1.8426
  202MOL0     H27231   4.416  11.929   4.386 -1.6788 -2.7600  2.2331
  202MOL0     H27232   4.576  12.210   4.088  0.1342 -0.5588  1.4853
  202MOL0     H27233   4.786  12.324   4.042  1.6988  1.7923  0.1621
  202MOL0     H27234   5.052  12.325   4.284 -3.0280  1.7810  2.5178
  202MOL0     H27235   5.070  12.348   4.112 -0.3195  3.8628 -2.4078
  202MOL0     H27236   5.175  12.561   4.124 -0.9682  1.5180  0.2476
  202MOL0     H27237   5.100  12.588   4.281  0.0422 -0.2997 -0.2034
  202MOL0     H27238   5.245  12.416   4.376 -1.4109  1.1798  0.1786
  202MOL0     H27239   5.320  12.382   4.214 -0.3546 -0.9860  1.1914
  202MOL0     H27240   5.346  12.656   4.344 -1.1376  0.7312  0.6351
  202MOL0     H27241   5.418  12.598   4.201 -4.3707  2.5856 -0.2642
  202MOL0     H27242   5.542  12.416   4.338 -1.0715  0.1799 -0.2108
  202MOL0     H27243   5.480  12.502   4.487  1.8664  2.1689 -0.4795
  202MOL0     H27244   5.627  12.658   4.267  2.7488 -0.5064 -0.5046
  202MOL0     H27245   5.600  12.697   4.440  1.8172  1.2567 -1.6908
  202MOL0     H27246   5.818  12.503   4.361  1.3637  0.1398 -1.3054
  202MOL0     H27247   5.740  12.533   4.523 -3.0963 -0.2114 -0.5399
  202MOL0     H27248   5.843  12.781   4.386  1.5277  0.6349  0.8894
  202MOL0     H27249   5.806  12.728   4.553 -0.7109 -0.9302  0.1209
  202MOL0     H27250   4.832  12.439   4.449  2.2273  1.2827 -2.3560
  202MOL0     H27251   4.619  12.295   4.507  0.0663 -1.0637 -0.9038
  202MOL0     H27252   4.093  12.129   4.182 -0.0664 -0.9181  0.5872
  202MOL0     H27253   3.943  11.937   4.238  0.1713 -0.7731  1.0692
  202MOL0     H27254   2.948  10.914   3.376  0.3268 -0.2868 -0.2973
  202MOL0     H27255   2.723  10.839   3.341  0.8245 -0.5000  2.4798
  202MOL0     H27256   2.250  11.018   3.360 -0.0699  0.1182  1.6745
  202MOL0     H27257   2.054  10.943   3.257  0.6373 -2.4333 -3.8986
  202MOL0     H27258   1.771  10.712   3.194 -0.2914  1.4595 -0.7040
  202MOL0     H27259   1.861  10.865   3.224  0.9670 -0.2195 -0.7229
  202MOL0     H27260   1.750  10.685   3.457 -3.5435 -0.3020 -0.5262
  202MOL0     H27261   1.661  10.829   3.384 -1.5829 -1.5630  2.7331
  202MOL0     H27262   1.854  10.959   3.436 -2.3206  0.7864 -0.0797
  202MOL0     H27263   1.927  10.825   3.513 -0.1774 -0.0362  2.1248
  202MOL0     H27264   1.834  10.969   3.692  0.3828  0.8777 -0.1642
  202MOL0     H27265   1.676  10.983   3.623  0.6098  0.4671 -1.6387
  202MOL0     H27266   1.617  10.619   3.818 -1.1278  1.0564  0.7337
  202MOL0     H27267   2.141  10.539   3.394  2.3332  0.2080 -1.0642
  202MOL0     H27268   2.367  10.479   3.445  1.1819 -1.1835 -2.2250
  202MOL0     H27269   2.492  10.585   3.387  1.2423  2.4462  0.7978
  202MOL0     H27270   2.432  10.606   3.546  1.9235  1.1589 -1.8670
  203MOL0     O27271  11.194   4.444   4.931  0.0186  0.6401 -0.6067
  203MOL0     C27272  11.212   4.494   4.820  0.2492 -0.7460 -0.2102
  203MOL0     O27273  11.189   4.433   4.705 -0.2023 -0.3746 -0.8263
  203MOL0     C27274  11.121   4.313   4.697 -0.1723  0.2357 -1.0934
  203MOL0     C27275  10.990   4.304   4.655  0.7348 -0.4196 -0.6646
  203MOL0     C27276  10.923   4.184   4.627  0.6581 -0.9298 -0.6242
  203MOL0     C27277  10.990   4.065   4.634 -1.2520 -0.3601  0.2039
  203MOL0     O27278  10.937   3.944   4.601 -0.2273 -0.0392 -0.0969
  203MOL0     C27279  10.834   3.937   4.506  0.6906  0.4098  0.4304
  203MOL0     C27280  10.706   3.912   4.579  0.6036 -0.0623  0.8537
  203MOL0     C27281  10.587   3.888   4.474  0.0614 -0.9277  0.2493
  203MOL0     C27282  10.597   3.761   4.391  0.1640 -0.1355  0.1194
  203MOL0     C27283  10.476   3.718   4.313 -0.2824  0.5968  0.8201
  203MOL0     C27284  10.451   3.798   4.194 -0.3594 -0.0665  0.4362
  203MOL0     C27285  10.328   3.725   4.134 -0.8874 -0.5157  0.0257
  203MOL0     C27286  10.292   3.790   4.007  1.0271  0.1621 -0.2696
  203MOL0     N27287  10.163   3.730   3.959 -0.0952  0.1474  0.2142
  203MOL0     C27288  10.051   3.813   3.933 -0.2562  0.0279 -0.0388
  203MOL0     C27289   9.953   3.716   3.920  1.5441  0.0537 -0.3069
  203MOL0     C27290   9.806   3.744   3.920 -0.3590 -0.0129 -0.5233
  203MOL0     C27291   9.749   3.811   4.053 -0.2888  0.0837 -0.3186
  203MOL0     C27292   9.779   3.729   4.178 -0.4171  0.6435 -0.4031
  203MOL0     C27293   9.898   3.762   4.266  0.1919  0.1951  0.7118
  203MOL0     O27294   9.902   3.902   4.272  0.0834  0.3358  0.6528
  203MOL0     C27295   9.986   3.950   4.372  0.1984 -0.4993  0.2882
  203MOL0     C27296  10.000   4.084   4.368 -0.3411 -0.2280  0.3542
  203MOL0     C27297  10.083   4.165   4.449 -1.1671 -0.2278  0.1088
  203MOL0     C27298  10.173   4.096   4.533  0.9660  0.3002 -0.4364
  203MOL0     C27299  10.271   4.178   4.606  0.2022  0.3067 -0.2653
  203MOL0     O27300  10.266   4.311   4.596  0.4455  0.6660 -0.0863
  203MOL0     C27301  10.356   4.396   4.656  0.5266  0.5574  0.5168
  203MOL0     C27302  10.424   4.385   4.777  1.4676 -0.5679 -0.1824
  203MOL0     C27303  10.512   4.483   4.822 -0.4080 -0.1900 -0.2299
  203MOL0     C27304  10.542   4.591   4.746 -0.2172  0.2224  0.4885
  203MOL0     O27305  10.647   4.679   4.788 -0.0533 -0.4603  0.0906
  203MOL0     C27306  10.716   4.756   4.682 -0.1328  0.3775 -0.3182
  203MOL0     C27307  10.798   4.851   4.769  0.4140 -0.0997 -0.9220
  203MOL0     C27308  10.904   4.930   4.687 -0.8479 -0.4308 -0.5173
  203MOL0     C27309  10.957   5.056   4.757  0.4013  0.2016 -0.3289
  203MOL0     C27310  11.072   5.124   4.673 -0.1869  0.9565  0.0706
  203MOL0     C27311  11.165   5.214   4.764  0.2915  0.0394 -0.5580
  203MOL0     C27312  11.087   5.346   4.780 -0.2344 -0.1289  0.2776
  203MOL0     C27313  11.188   5.452   4.826 -1.0125  0.2342 -0.5565
  203MOL0    Cl27314  11.284   5.513   4.688 -0.4310 -0.2755  0.3028
  203MOL0     C27315  10.467   4.616   4.632  0.2031  0.2483  0.4884
  203MOL0     C27316  10.383   4.516   4.584 -0.0135  0.4179  0.1924
  203MOL0     O27317  10.360   4.118   4.672 -0.6003  0.2606  0.0327
  203MOL0     C27318  10.163   3.954   4.543 -0.3487  0.4530  0.0646
  203MOL0     C27319  10.069   3.883   4.460 -0.7252  0.2334 -0.2146
  203MOL0     N27320  10.003   3.585   3.914  0.2517  0.0812  0.1859
  203MOL0     N27321  10.135   3.592   3.933  0.4825 -0.1533 -0.0023
  203MOL0     C27322  11.121   4.064   4.682  1.1927  1.0115  1.0066
  203MOL0     C27323  11.183   4.184   4.723  0.0050  0.1368 -0.1544
  203MOL0     C27324  11.270   4.633   4.817  0.2549 -0.4184  0.8475
  203MOL0     C27325  11.335   4.676   4.697 -0.6270  0.1146 -1.1170
  203MOL0     C27326  11.410   4.794   4.685  0.7840  1.0923  0.6825
  203MOL0     C27327  11.405   4.883   4.783 -0.5856  0.0651  0.4895
  203MOL0     O27328  11.468   5.010   4.768  0.1216  0.8513 -0.2675
  203MOL0     C27329  11.560   5.044   4.659 -0.0883  0.4675  0.0076
  203MOL0     C27330  11.611   5.192   4.667  0.1304  0.6256 -0.0745
  203MOL0     C27331  11.670   5.218   4.798  0.0663 -0.0822 -0.1859
  203MOL0     C27332  11.718   5.372   4.810  0.0986 -0.3725  0.3039
  203MOL0     C27333  11.622   5.466   4.869 -0.7652 -0.2402 -0.7157
  203MOL0     C27334  11.541   5.557   4.906  0.2345  0.2526  0.0620
  203MOL0     C27335  11.335   4.849   4.897  0.4218  0.2135 -0.2784
  203MOL0     C27336  11.272   4.726   4.922  0.1315  0.7120  0.1093
  203MOL0     C27337  11.216   4.690   5.056  0.4893  0.4271 -0.0685
  203MOL0     H27338  10.943   4.401   4.644  0.0114 -0.5650  0.8797
  203MOL0     H27339  10.815   4.185   4.622  0.4439  2.4454  1.7462
  203MOL0     H27340  10.825   4.026   4.444  1.4376 -0.1143 -0.4438
  203MOL0     H27341  10.847   3.857   4.433  1.0449  0.0418  0.8842
  203MOL0     H27342  10.681   3.999   4.640  2.4273 -0.3327  2.0707
  203MOL0     H27343  10.708   3.827   4.646  3.3134 -0.7584  0.0352
  203MOL0     H27344  10.581   3.975   4.408  1.3261 -2.6419 -2.2576
  203MOL0     H27345  10.502   3.877   4.542 -0.2155 -0.3149  0.0138
  203MOL0     H27346  10.684   3.754   4.326 -0.1416 -1.4019 -0.1839
  203MOL0     H27347  10.612   3.677   4.460 -2.0081 -0.3363  0.4485
  203MOL0     H27348  10.485   3.612   4.287  1.6718  0.8052  0.5008
  203MOL0     H27349  10.390   3.738   4.377 -0.1515 -0.7441  1.4421
  203MOL0     H27350  10.427   3.902   4.219  1.6582  0.6397 -0.4023
  203MOL0     H27351  10.540   3.807   4.132 -1.5919  3.8869 -1.0417
  203MOL0     H27352  10.248   3.724   4.208 -0.2979 -4.0299  0.8345
  203MOL0     H27353  10.356   3.619   4.122  0.8326 -0.0128 -0.7027
  203MOL0     H27354  10.278   3.896   4.028  0.9057  0.0442  0.2427
  203MOL0     H27355  10.367   3.765   3.931  0.2265 -2.4417 -0.3097
  203MOL0     H27356  10.062   3.921   3.940  0.4744  0.0400 -1.0273
  203MOL0     H27357   9.778   3.798   3.829 -4.0456  0.2056  0.5587
  203MOL0     H27358   9.751   3.650   3.909 -0.8547  0.1918  0.1303
  203MOL0     H27359   9.781   3.915   4.063 -3.7112  1.1917  0.6353
  203MOL0     H27360   9.641   3.822   4.037 -0.7599 -2.3734  0.6574
  203MOL0     H27361   9.779   3.623   4.152  2.5895  0.6198 -0.6481
  203MOL0     H27362   9.694   3.749   4.244  1.2855 -0.1339  2.1692
  203MOL0     H27363   9.980   3.716   4.209 -1.7686 -3.3187  0.4394
  203MOL0     H27364   9.899   3.703   4.358  0.1930 -2.4206 -0.8558
  203MOL0     H27365   9.950   4.138   4.289 -0.5855 -1.2408 -0.2037
  203MOL0     H27366  10.081   4.273   4.436 -0.6001 -0.2093  0.1174
  203MOL0     H27367  10.425   4.295   4.838  1.3943 -0.2059  0.3569
  203MOL0     H27368  10.573   4.466   4.910  2.4373  0.1668 -2.0117
  203MOL0     H27369  10.779   4.695   4.617  0.2980  0.1683  0.2884
  203MOL0     H27370  10.654   4.811   4.610  0.3232  3.0176  1.1700
  203MOL0     H27371  10.730   4.924   4.814  1.2098 -0.3092  0.7134
  203MOL0     H27372  10.835   4.794   4.855  0.1573  0.6368 -0.3128
  203MOL0     H27373  10.992   4.869   4.664  2.6634  3.6307  0.7625
  203MOL0     H27374  10.857   4.969   4.596  1.4608  1.5750 -0.9620
  203MOL0     H27375  10.989   5.035   4.859  0.6280 -1.7957 -0.7816
  203MOL0     H27376  10.873   5.126   4.760  1.2877  1.3823  3.6049
  203MOL0     H27377  11.027   5.167   4.583  0.4307  1.9711  0.2319
  203MOL0     H27378  11.134   5.043   4.632  1.5315  2.0789  0.3358
  203MOL0     H27379  11.192   5.167   4.859 -0.7949  0.6092  0.0553
  203MOL0     H27380  11.262   5.236   4.719  1.0665  0.4946  1.2447
  203MOL0     H27381  11.018   5.332   4.864 -3.0712  2.7784 -1.3824
  203MOL0     H27382  11.035   5.384   4.692  0.4113 -0.3916 -0.2328
  203MOL0     H27383  11.128   5.532   4.869  0.8274  0.9323  0.8575
  203MOL0     H27384  11.257   5.409   4.900 -2.5280  0.9873  1.3805
  203MOL0     H27385  10.472   4.705   4.569  0.7871  0.2255  0.4974
  203MOL0     H27386  10.333   4.535   4.489  0.5224  1.3389  0.0761
  203MOL0     H27387  10.221   3.895   4.613  0.6524 -0.5984 -1.5976
  203MOL0     H27388  10.060   3.775   4.466  4.8277 -0.5621 -0.5690
  203MOL0     H27389  11.163   3.964   4.688 -0.2090  0.4521  2.2325
  203MOL0     H27390  11.285   4.183   4.760 -0.1724 -1.9007  0.4175
  203MOL0     H27391  11.342   4.611   4.611  0.7314  0.5426 -1.3459
  203MOL0     H27392  11.461   4.817   4.592 -0.7051  1.9174  0.0329
  203MOL0     H27393  11.511   5.013   4.566 -0.1721 -2.1323  0.8433
  203MOL0     H27394  11.649   4.981   4.665 -0.3315  0.1665  0.4749
  203MOL0     H27395  11.535   5.267   4.642 -1.0105 -0.0322  1.2593
  203MOL0     H27396  11.697   5.204   4.601  1.9113 -1.3181  1.7437
  203MOL0     H27397  11.746   5.142   4.818  0.8870  0.6937 -0.2905
  203MOL0     H27398  11.601   5.207   4.883 -0.0513 -0.7913 -0.3686
  203MOL0     H27399  11.799   5.366   4.884  1.6041  1.1455 -1.1027
  203MOL0     H27400  11.759   5.409   4.716  0.9845  0.0763  0.8496
  203MOL0     H27401  11.471   5.635   4.929  0.4256  1.1779 -2.2306
  203MOL0     H27402  11.324   4.932   4.967  2.1506  2.1683 -2.1732
  203MOL0     H27403  11.245   4.594   5.100 -2.0772 -0.2725  0.2558
  203MOL0     H27404  11.255   4.763   5.128  2.2905 -1.4525  0.9521
  203MOL0     H27405  11.107   4.697   5.056  0.4137 -0.1876  1.6788
  204MOL0     O27406  11.057   1.446   5.617  0.1871  0.0012 -0.0097
  204MOL0     C27407  10.994   1.341   5.639 -0.2881 -0.2803 -0.6720
  204MOL0     O27408  11.035   1.235   5.725  0.3947  0.6258 -0.2105
  204MOL0     C27409  11.158   1.226   5.781 -0.9139  0.7745  0.4918
  204MOL0     C27410  11.280   1.201   5.714 -0.0582 -0.2922 -0.2555
  204MOL0     C27411  11.404   1.207   5.785 -0.3902  0.0766  0.7357
  204MOL0     C27412  11.409   1.221   5.930  0.4662  0.1070  0.1548
  204MOL0     O27413  11.526   1.227   5.993 -0.6510  0.0710  0.0913
  204MOL0     C27414  11.540   1.305   6.112 -1.0333 -0.2517 -0.2084
  204MOL0     C27415  11.562   1.448   6.068  0.9075 -0.1738  0.1055
  204MOL0     C27416  11.555   1.553   6.174 -0.4914  0.4226 -0.2003
  204MOL0     C27417  11.662   1.560   6.286  0.2132 -0.7943  0.9054
  204MOL0     C27418  11.621   1.675   6.378 -0.6359 -0.6940 -0.3887
  204MOL0     C27419  11.569   1.621   6.508  0.5605  1.1035  0.5700
  204MOL0     C27420  11.518   1.730   6.598  0.8827 -0.2177 -0.6854
  204MOL0     C27421  11.464   1.681   6.740 -0.4793  0.3625  1.2388
  204MOL0     N27422  11.574   1.628   6.817 -0.6167 -0.2501  0.5937
  204MOL0     C27423  11.596   1.498   6.854  0.1067 -0.0558 -0.4234
  204MOL0     C27424  11.707   1.503   6.925 -0.4987  0.6851 -0.5820
  204MOL0     C27425  11.776   1.372   6.963  0.3726 -0.2959 -0.5996
  204MOL0     C27426  11.792   1.362   7.122 -0.1473 -0.7825 -0.0029
  204MOL0     C27427  11.846   1.234   7.182  0.7961  0.1889 -0.8441
  204MOL0     C27428  11.991   1.204   7.179 -0.6241 -0.9332 -0.3074
  204MOL0     O27429  12.030   1.200   7.038  0.4099  1.4523 -0.9615
  204MOL0     C27430  12.155   1.200   6.996 -0.5432 -0.7231  0.0051
  204MOL0     C27431  12.188   1.145   6.866  0.4307 -0.6970  0.5593
  204MOL0     C27432  12.320   1.138   6.829 -0.4218  1.0147  0.7728
  204MOL0     C27433  12.417   1.183   6.913 -0.3978  0.0737 -0.4358
  204MOL0     C27434  12.557   1.185   6.866 -0.3450  1.1916 -0.1618
  204MOL0     O27435  12.651   1.219   6.960 -0.7281  0.5842  0.0692
  204MOL0     C27436  12.784   1.220   6.937 -0.1711 -0.2269  2.5559
  204MOL0     C27437  12.878   1.198   7.041  0.7182 -1.0077  0.0341
  204MOL0     C27438  13.021   1.181   7.026  0.0194  0.1042 -1.3360
  204MOL0     C27439  13.071   1.196   6.898 -0.8578  0.7751 -0.2549
  204MOL0     O27440  13.202   1.202   6.879  0.4887  0.4315 -0.4230
  204MOL0     C27441  13.257   1.070   6.907  0.9414 -0.6763  0.5282
  204MOL0     C27442  13.390   1.058   6.833  0.3677 -0.1263 -0.5655
  204MOL0     C27443  13.486   1.177   6.884  0.3548 -0.1512  0.0438
  204MOL0     C27444  13.534   1.143   7.029 -0.0589 -0.1539 -0.5582
  204MOL0     C27445  13.679   1.096   7.019  0.3856 -0.5147 -0.0196
  204MOL0     C27446  13.738   1.069   7.162  0.4767 -0.2394  1.4752
  204MOL0     C27447  13.894   1.049   7.137 -0.0144 -0.0371 -0.0180
  204MOL0     C27448  13.973   1.006   7.262  0.2786 -0.3150  0.1525
  204MOL0    Cl27449  13.956   1.102   7.404 -0.3100  0.2086 -0.2887
  204MOL0     C27450  12.988   1.221   6.793 -0.1700  0.5037 -0.0059
  204MOL0     C27451  12.849   1.226   6.810 -0.3233 -0.2089  0.5641
  204MOL0     O27452  12.575   1.156   6.750  0.0273  0.0571 -0.5041
  204MOL0     C27453  12.393   1.224   7.043  0.3819  0.3266  0.8995
  204MOL0     C27454  12.254   1.220   7.086 -1.1621 -0.1066 -1.0320
  204MOL0     N27455  11.740   1.633   6.951  0.2171  0.2920 -0.6036
  204MOL0     N27456  11.666   1.707   6.882  0.3509 -0.3874  0.0655
  204MOL0     C27457  11.281   1.233   5.988 -0.8350  1.2233  0.6437
  204MOL0     C27458  11.160   1.242   5.917 -0.3159 -0.1891 -0.9388
  204MOL0     C27459  10.859   1.333   5.581  0.3575  0.0057 -0.2580
  204MOL0     C27460  10.770   1.436   5.617  0.0857  0.0512  0.1161
  204MOL0     C27461  10.634   1.432   5.589  0.3013  1.3057 -0.2997
  204MOL0     C27462  10.589   1.314   5.518 -0.1975  0.8815 -0.1280
  204MOL0     O27463  10.464   1.286   5.491  0.7362  0.4130 -0.9929
  204MOL0     C27464  10.352   1.345   5.557  0.3460 -0.0609  0.4248
  204MOL0     C27465  10.227   1.276   5.496 -0.6517 -0.1496  0.2396
  204MOL0     C27466  10.207   1.310   5.353 -0.3298 -0.0820  0.7065
  204MOL0     C27467  10.064   1.354   5.313 -0.2282  0.4179  0.9091
  204MOL0     C27468  10.054   1.378   5.164  0.4071 -0.2723  0.1245
  204MOL0     C27469  10.065   1.407   5.044 -0.7239 -0.4069 -0.4189
  204MOL0     C27470  10.680   1.216   5.475 -0.5786  0.5634  0.6588
  204MOL0     C27471  10.815   1.225   5.506  0.1832 -0.2274  0.5080
  204MOL0     C27472  10.917   1.134   5.445  0.5378 -0.3970 -0.0833
  204MOL0     H27473  11.277   1.188   5.606 -0.7661 -2.3503 -0.0354
  204MOL0     H27474  11.490   1.203   5.720 -0.0989  2.1491  0.9198
  204MOL0     H27475  11.458   1.304   6.185  1.6673  1.0166  3.0777
  204MOL0     H27476  11.633   1.283   6.166 -1.5236 -2.6120 -0.1986
  204MOL0     H27477  11.482   1.474   5.998  2.2594 -0.1376 -1.4952
  204MOL0     H27478  11.657   1.461   6.015  1.9965 -0.0538  1.9995
  204MOL0     H27479  11.459   1.536   6.225 -0.3377 -0.8956 -0.3136
  204MOL0     H27480  11.545   1.650   6.125 -3.1704  0.0956 -0.4546
  204MOL0     H27481  11.673   1.466   6.340  2.0612 -1.1056  0.0424
  204MOL0     H27482  11.754   1.599   6.241 -0.3895  1.2366  1.3433
  204MOL0     H27483  11.705   1.734   6.417 -2.8787  1.5224  1.3302
  204MOL0     H27484  11.556   1.747   6.328 -1.3940 -0.7158  0.5587
  204MOL0     H27485  11.488   1.552   6.481 -2.9404  3.8065  3.2220
  204MOL0     H27486  11.648   1.566   6.559  2.7216  0.7279 -2.8512
  204MOL0     H27487  11.427   1.778   6.560  0.1455  0.0302  1.2597
  204MOL0     H27488  11.593   1.809   6.613  1.4070 -0.2603 -2.7510
  204MOL0     H27489  11.427   1.771   6.791  3.7320  2.5515  0.9147
  204MOL0     H27490  11.390   1.605   6.713  1.4955 -0.7408 -1.6746
  204MOL0     H27491  11.541   1.412   6.819  0.3517  0.8046 -3.2152
  204MOL0     H27492  11.729   1.280   6.927 -0.2412 -0.0143 -0.5229
  204MOL0     H27493  11.872   1.380   6.910  1.8729 -1.1241  1.8158
  204MOL0     H27494  11.850   1.446   7.159 -0.7211  0.2053 -1.2501
  204MOL0     H27495  11.696   1.389   7.167  1.0979  1.1945  1.6111
  204MOL0     H27496  11.798   1.151   7.129  0.4004  0.0466 -0.2665
  204MOL0     H27497  11.802   1.230   7.282  1.7407 -0.4984 -0.4363
  204MOL0     H27498  12.021   1.107   7.219 -1.4083 -1.2004 -0.3560
  204MOL0     H27499  12.038   1.284   7.237 -1.6503 -0.7919  0.3594
  204MOL0     H27500  12.106   1.111   6.804 -1.3961  0.5677  2.1475
  204MOL0     H27501  12.335   1.107   6.727 -0.8831  0.5381  0.8424
  204MOL0     H27502  12.839   1.199   7.143 -2.1626 -0.7999 -0.9559
  204MOL0     H27503  13.092   1.191   7.108  2.1844 -0.6910 -3.0437
  204MOL0     H27504  13.274   1.060   7.014 -0.3647 -2.8840  0.6133
  204MOL0     H27505  13.187   0.987   6.888  0.1367  0.2023 -0.4565
  204MOL0     H27506  13.438   0.960   6.838 -0.9678 -0.8626 -1.3373
  204MOL0     H27507  13.375   1.065   6.724  3.1284 -1.1023 -1.0835
  204MOL0     H27508  13.570   1.186   6.814 -0.4239  0.3216 -0.8512
  204MOL0     H27509  13.443   1.277   6.877  1.6043  0.3075 -1.9445
  204MOL0     H27510  13.487   1.050   7.062  1.4956 -1.1966 -1.1367
  204MOL0     H27511  13.518   1.229   7.094  2.8503 -0.4126  0.6880
  204MOL0     H27512  13.732   1.175   6.966 -0.9629  0.8021  0.5220
  204MOL0     H27513  13.668   1.009   6.954 -1.5517 -0.4021  0.0980
  204MOL0     H27514  13.728   1.159   7.222  3.7077  1.0497  0.2855
  204MOL0     H27515  13.688   0.983   7.209 -0.5276 -0.9357 -0.7242
  204MOL0     H27516  13.932   1.146   7.101 -1.5461  0.3494 -0.6930
  204MOL0     H27517  13.931   0.978   7.063  1.1827  2.2658 -1.7763
  204MOL0     H27518  13.935   0.906   7.286 -0.4040  0.2271  1.4402
  204MOL0     H27519  14.078   1.012   7.232  0.5862  1.4126  1.4273
  204MOL0     H27520  13.040   1.255   6.704 -1.6306  3.5643  0.1801
  204MOL0     H27521  12.789   1.242   6.721  1.7166  1.1202 -0.6625
  204MOL0     H27522  12.460   1.258   7.121  1.1808  1.8335 -0.3976
  204MOL0     H27523  12.241   1.267   7.183 -0.0852  1.7646 -1.7439
  204MOL0     H27524  11.271   1.232   6.096  1.2200 -1.1027  0.9162
  204MOL0     H27525  11.063   1.251   5.964 -1.5059 -0.6332 -3.1476
  204MOL0     H27526  10.809   1.517   5.677 -0.7096  1.1875 -0.8669
  204MOL0     H27527  10.568   1.512   5.622  2.2149  3.7301 -1.9949
  204MOL0     H27528  10.360   1.453   5.542 -1.1555 -0.2092 -1.9493
  204MOL0     H27529  10.356   1.333   5.666 -0.5058 -0.7192  0.3902
  204MOL0     H27530  10.139   1.311   5.551  1.4150  2.0347  2.4105
  204MOL0     H27531  10.233   1.168   5.512 -1.9169 -0.0504  1.6302
  204MOL0     H27532  10.243   1.233   5.285  1.4311 -0.3069  1.8426
  204MOL0     H27533  10.274   1.396   5.344 -2.4754  1.4607 -2.5460
  204MOL0     H27534  10.008   1.267   5.348  0.3517 -0.8394 -1.1382
  204MOL0     H27535  10.039   1.443   5.372  0.7555  1.2669  0.0849
  204MOL0     H27536  10.069   1.437   4.941 -0.9371  0.6241 -0.1345
  204MOL0     H27537  10.645   1.144   5.402 -0.6772  0.0725  1.1826
  204MOL0     H27538  10.983   1.203   5.391 -1.6517  0.5043 -1.7959
  204MOL0     H27539  10.982   1.084   5.517 -1.5845 -0.7450  1.6911
  204MOL0     H27540  10.860   1.064   5.384 -0.8033  0.3071  0.3057
  205MOL0     O27541   2.846  10.225   3.218  0.0162  0.9233 -0.2921
  205MOL0     C27542   2.859  10.346   3.213  0.9554  0.1270 -0.0068
  205MOL0     O27543   2.759  10.431   3.174 -0.8195 -0.1262  0.0719
  205MOL0     C27544   2.636  10.404   3.117 -0.7322  0.7658  0.2608
  205MOL0     C27545   2.602  10.471   2.998 -0.4874 -0.3357 -0.1424
  205MOL0     C27546   2.473  10.449   2.941  1.1096 -0.8944 -0.0695
  205MOL0     C27547   2.370  10.367   3.004 -0.4799  0.5840  0.5586
  205MOL0     O27548   2.245  10.372   2.958  0.7819  0.6666  0.7670
  205MOL0     C27549   2.209  10.268   2.871 -0.0924 -0.5489  0.1392
  205MOL0     C27550   2.063  10.278   2.829 -0.1605 -0.4409  0.8435
  205MOL0     C27551   1.972  10.247   2.949 -1.0571  0.1753 -0.0739
  205MOL0     C27552   1.826  10.204   2.920  0.3327  0.4389  1.0124
  205MOL0     C27553   1.812  10.059   2.875  0.3476 -0.3329  0.0309
  205MOL0     C27554   1.670  10.028   2.834 -0.4170  0.6538  0.5408
  205MOL0     C27555   1.667   9.885   2.765 -0.3949  0.0234 -0.3541
  205MOL0     C27556   1.527   9.833   2.749  1.0981  0.3886 -0.1471
  205MOL0     N27557   1.443   9.919   2.670  0.2054  0.6497  0.6371
  205MOL0     C27558   1.349  10.008   2.713  0.2436 -0.4742 -1.0213
  205MOL0     C27559   1.303  10.062   2.602 -0.1437 -0.3247  0.1282
  205MOL0     C27560   1.189  10.162   2.608  0.7436 -0.3673 -0.2084
  205MOL0     C27561   1.057  10.097   2.602 -0.6808 -0.0987 -1.0600
  205MOL0     C27562   0.945  10.204   2.623  0.1198 -0.6899 -1.1185
  205MOL0     C27563   0.902  10.216   2.772  0.5049 -1.9497  0.1293
  205MOL0     O27564   0.809  10.328   2.781 -0.4373  0.3826  0.4903
  205MOL0     C27565   0.670  10.311   2.768 -0.5580  0.5426 -0.1266
  205MOL0     C27566   0.600  10.425   2.787 -0.6401  0.7995  0.5179
  205MOL0     C27567   0.465  10.429   2.771  1.2316  0.3812  0.6628
  205MOL0     C27568   0.401  10.317   2.728  0.2253  0.2458  0.4112
  205MOL0     C27569   0.255  10.326   2.685  0.4668  0.3480  0.7996
  205MOL0     O27570   0.207  10.204   2.641 -0.6441 -0.3702  0.2300
  205MOL0     C27571   0.070  10.204   2.614  0.2619 -0.6454  0.1600
  205MOL0     C27572   0.014  10.218   2.489  0.0097  0.0736  0.1448
  205MOL0     C27573  -0.124  10.233   2.476  0.5726  0.5155  0.0948
  205MOL0     C27574  -0.207  10.236   2.591 -0.3699 -0.0090 -0.6973
  205MOL0     O27575  -0.345  10.246   2.582  0.1695  0.0730 -0.2740
  205MOL0     C27576  -0.401  10.292   2.456 -0.0417 -0.0452  0.6689
  205MOL0     C27577  -0.550  10.337   2.468 -0.3420 -0.4554 -0.6707
  205MOL0     C27578  -0.615  10.334   2.329  0.3317 -0.0377 -1.1740
  205MOL0     C27579  -0.762  10.393   2.330 -0.4698 -0.0608  0.7697
  205MOL0     C27580  -0.848  10.327   2.426 -0.4477  1.1713  0.0506
  205MOL0     C27581  -0.981  10.392   2.406 -0.2121  0.2458  0.0145
  205MOL0     C27582  -1.088  10.341   2.506 -0.2354 -1.0664 -0.0257
  205MOL0     C27583  -1.146  10.211   2.464  0.3706  1.0077 -1.1887
  205MOL0    Cl27584  -1.298  10.194   2.553 -0.2691  0.6241  0.5189
  205MOL0     C27585  -0.146  10.227   2.723  0.1833  0.6070  0.4664
  205MOL0     C27586  -0.009  10.213   2.730 -0.2989  0.0838 -0.2319
  205MOL0     O27587   0.193  10.433   2.695  0.1144 -0.0254  0.1209
  205MOL0     C27588   0.466  10.194   2.712 -0.1117 -0.9217 -0.1275
  205MOL0     C27589   0.597  10.188   2.745 -0.1091  0.3564  0.6758
  205MOL0     N27590   1.349   9.986   2.493  0.9088  0.1469  0.2903
  205MOL0     N27591   1.435   9.903   2.532  0.9298  0.6579 -0.2016
  205MOL0     C27592   2.407  10.320   3.132 -0.2103 -0.6627 -0.3029
  205MOL0     C27593   2.538  10.333   3.183 -0.5375 -0.3073 -0.0367
  205MOL0     C27594   2.996  10.402   3.234 -0.9079 -0.8222 -0.1386
  205MOL0     C27595   3.023  10.532   3.197  0.0175 -0.0008  0.5323
  205MOL0     C27596   3.145  10.598   3.211  0.6065  0.2124 -1.0166
  205MOL0     C27597   3.253  10.525   3.264 -0.5338 -0.2664  0.9573
  205MOL0     O27598   3.380  10.586   3.289  0.4353  0.3912 -0.1874
  205MOL0     C27599   3.393  10.727   3.260 -0.3393  0.7662 -0.3566
  205MOL0     C27600   3.330  10.807   3.383 -0.4802 -0.6908  0.6946
  205MOL0     C27601   3.377  10.763   3.524 -0.1776 -0.0231 -0.2013
  205MOL0     C27602   3.529  10.783   3.544 -0.1882  0.5302  0.4570
  205MOL0     C27603   3.568  10.921   3.542 -0.4619  0.2752 -0.9628
  205MOL0     C27604   3.612  11.037   3.550 -0.1674  0.7921 -0.5358
  205MOL0     C27605   3.233  10.394   3.290  0.2209  0.5833 -0.5418
  205MOL0     C27606   3.107  10.330   3.291  0.0667  0.1001  0.6641
  205MOL0     C27607   3.095  10.188   3.343 -0.8272  0.4958  0.0097
  205MOL0     H27608   2.680  10.530   2.952  2.3514 -2.5308  1.5826
  205MOL0     H27609   2.444  10.511   2.858 -1.8554 -0.4467  1.1525
  205MOL0     H27610   2.285  10.276   2.792  1.1976 -0.3448  1.3691
  205MOL0     H27611   2.231  10.171   2.916  1.3897 -0.2966  0.0087
  205MOL0     H27612   2.044  10.216   2.741 -2.0696  0.4303  0.5789
  205MOL0     H27613   2.045  10.377   2.785  1.1619 -0.4740  0.1850
  205MOL0     H27614   1.962  10.340   3.006 -3.0488  0.5471 -0.9483
  205MOL0     H27615   2.027  10.176   3.012 -0.4606 -0.2576 -1.0534
  205MOL0     H27616   1.757  10.220   3.003  2.7130 -0.5116  3.3149
  205MOL0     H27617   1.784  10.270   2.843 -2.9181  0.2865  2.4860
  205MOL0     H27618   1.869  10.045   2.782 -5.4321 -1.4578 -3.8616
  205MOL0     H27619   1.852   9.992   2.951  1.4457  0.9447  0.6214
  205MOL0     H27620   1.595  10.047   2.911  0.4483  0.9199  1.3538
  205MOL0     H27621   1.636  10.098   2.757 -2.7416 -0.7735  0.2105
  205MOL0     H27622   1.740   9.815   2.804  1.8384  0.9723 -2.5470
  205MOL0     H27623   1.698   9.914   2.664 -0.6180  0.4323 -0.3095
  205MOL0     H27624   1.531   9.730   2.712 -0.3271 -0.6440  2.2573
  205MOL0     H27625   1.487   9.828   2.851 -0.3403  2.6731 -0.5287
  205MOL0     H27626   1.317  10.029   2.814  1.9807 -0.2595 -0.4847
  205MOL0     H27627   1.201  10.218   2.701  0.0151 -2.4828  1.2247
  205MOL0     H27628   1.205  10.223   2.518  0.5699  1.2619  0.8224
  205MOL0     H27629   1.033  10.060   2.501 -1.2020  2.2194 -1.8603
  205MOL0     H27630   1.052  10.015   2.674 -0.0441  3.8669  4.0675
  205MOL0     H27631   0.857  10.177   2.564  0.6034 -2.3695 -1.1175
  205MOL0     H27632   0.980  10.300   2.584 -1.6805  0.0583 -1.0010
  205MOL0     H27633   0.995  10.244   2.823  1.7369  0.6301 -3.2222
  205MOL0     H27634   0.855  10.119   2.793 -0.7466 -2.4532 -4.1117
  205MOL0     H27635   0.646  10.521   2.806 -0.5788  0.2208  3.8588
  205MOL0     H27636   0.402  10.516   2.785  0.6291  0.3135 -1.2703
  205MOL0     H27637   0.077  10.213   2.401  0.7852  1.8270  0.5575
  205MOL0     H27638  -0.171  10.227   2.378  0.2758  0.0570  0.2619
  205MOL0     H27639  -0.354  10.370   2.396 -0.0718 -0.0514  0.6362
  205MOL0     H27640  -0.393  10.202   2.394 -0.1798  2.0242 -2.6098
  205MOL0     H27641  -0.601  10.271   2.539  0.7360 -1.5714 -0.8922
  205MOL0     H27642  -0.557  10.436   2.513  3.6752 -0.4746  0.4038
  205MOL0     H27643  -0.553  10.387   2.257 -1.0417  1.4605 -1.3142
  205MOL0     H27644  -0.615  10.234   2.285 -0.7588 -0.4199 -0.3628
  205MOL0     H27645  -0.797  10.381   2.227  1.2393 -4.7749  0.4871
  205MOL0     H27646  -0.755  10.500   2.349  2.0982 -0.1021  0.4166
  205MOL0     H27647  -0.820  10.354   2.528 -1.3550 -1.6414  1.1417
  205MOL0     H27648  -0.849  10.219   2.407 -2.0043  1.4975 -2.1336
  205MOL0     H27649  -0.980  10.501   2.409  0.2190  0.4030 -3.1701
  205MOL0     H27650  -1.021  10.373   2.306  0.4202 -0.6615 -0.0855
  205MOL0     H27651  -1.168  10.415   2.508  1.1452  0.5601 -1.5137
  205MOL0     H27652  -1.037  10.327   2.602  2.3751 -0.1135 -1.1872
  205MOL0     H27653  -1.160  10.206   2.355  2.0918  2.7711 -1.5505
  205MOL0     H27654  -1.080  10.132   2.498  0.1573  0.4016 -2.1496
  205MOL0     H27655  -0.209  10.226   2.811 -1.6109 -2.8509 -0.6724
  205MOL0     H27656   0.030  10.213   2.831  1.6516 -0.4268 -0.9395
  205MOL0     H27657   0.423  10.104   2.670  1.3374 -0.9255 -1.6847
  205MOL0     H27658   0.636  10.087   2.756  0.0650  0.5024  1.4562
  205MOL0     H27659   2.324  10.272   3.183 -1.7605  0.3986 -1.7192
  205MOL0     H27660   2.557  10.293   3.282  0.5838  4.8731  2.1725
  205MOL0     H27661   2.943  10.597   3.161  1.1733  1.0486 -0.2211
  205MOL0     H27662   3.153  10.705   3.195  2.6319  1.0399  3.7441
  205MOL0     H27663   3.342  10.743   3.165  1.6169 -3.4944 -2.3718
  205MOL0     H27664   3.500  10.744   3.245 -0.1549  0.3319  0.3969
  205MOL0     H27665   3.221  10.807   3.386 -0.6617 -0.9257 -2.7413
  205MOL0     H27666   3.360  10.909   3.356  2.5411 -2.3207 -2.9608
  205MOL0     H27667   3.352  10.657   3.538 -0.9280  0.4034  2.1966
  205MOL0     H27668   3.322  10.824   3.596  0.3561  0.3663 -0.1142
  205MOL0     H27669   3.574  10.726   3.625  3.0546  0.0058 -1.5222
  205MOL0     H27670   3.578  10.738   3.457 -0.2848 -0.4350  0.8904
  205MOL0     H27671   3.646  11.138   3.565  1.9307 -0.0727  1.0418
  205MOL0     H27672   3.309  10.323   3.321 -3.4603 -2.2963  3.0870
  205MOL0     H27673   3.052  10.115   3.273 -1.0405 -0.2227  0.8777
  205MOL0     H27674   3.194  10.153   3.371 -0.3457  2.3333  0.7637
  205MOL0     H27675   3.038  10.192   3.436 -3.0160 -1.9908 -1.0897
  206MOL0     O27676   0.765   1.176   5.991 -0.1402  0.2615 -0.7861
  206MOL0     C27677   0.770   1.201   5.875  0.5742 -0.1000  1.0681
  206MOL0     O27678   0.879   1.195   5.798 -0.5174  0.5040 -0.7686
  206MOL0     C27679   0.987   1.127   5.840  0.1937  0.5213  0.2101
  206MOL0     C27680   1.112   1.184   5.819 -0.0383 -0.7745 -0.6495
  206MOL0     C27681   1.232   1.119   5.866  0.6668 -0.2998  0.4430
  206MOL0     C27682   1.223   0.985   5.913  0.6175 -0.2901 -0.8895
  206MOL0     O27683   1.318   0.917   5.972  0.0168  0.3097 -0.0750
  206MOL0     C27684   1.447   0.970   6.001 -0.1980 -0.1990  1.0567
  206MOL0     C27685   1.527   0.900   6.117  0.3131 -0.8617 -0.1177
  206MOL0     C27686   1.617   0.792   6.053  1.4579 -0.3583  0.5657
  206MOL0     C27687   1.694   0.739   6.169 -0.2323  0.0147  1.2123
  206MOL0     C27688   1.781   0.613   6.136 -0.0420 -0.6176 -0.5436
  206MOL0     C27689   1.902   0.655   6.043  0.4526  0.2900 -0.4519
  206MOL0     C27690   1.990   0.544   6.042 -0.4038  0.0762 -0.0257
  206MOL0     C27691   2.100   0.565   5.943 -0.7856  0.1102 -0.2002
  206MOL0     N27692   2.194   0.453   5.934 -0.5667 -0.1540  0.3374
  206MOL0     C27693   2.264   0.389   6.038  1.0668 -0.6884  0.6460
  206MOL0     C27694   2.323   0.282   5.975  0.5087 -0.5212 -0.4192
  206MOL0     C27695   2.407   0.182   6.053  1.5044 -0.0455 -0.0438
  206MOL0     C27696   2.564   0.210   6.050 -0.0064  0.7391 -0.4567
  206MOL0     C27697   2.601   0.340   6.117 -0.1062  0.4869  0.1260
  206MOL0     C27698   2.733   0.348   6.192 -0.5507 -0.0273  0.0364
  206MOL0     O27699   2.738   0.225   6.265  0.0305  0.6467 -0.4194
  206MOL0     C27700   2.853   0.179   6.311 -0.3667  0.5439 -0.0426
  206MOL0     C27701   2.862   0.056   6.350  0.1025 -0.0999 -0.4703
  206MOL0     C27702   2.976  -0.007   6.394  0.0892  0.2299  0.0348
  206MOL0     C27703   3.093   0.063   6.394  0.0448  0.1520  0.2449
  206MOL0     C27704   3.218  -0.005   6.450 -0.2679  0.8274 -0.3934
  206MOL0     O27705   3.334   0.071   6.464  0.0642  0.2281  0.3565
  206MOL0     C27706   3.456   0.020   6.504 -0.0664 -0.0234 -0.2055
  206MOL0     C27707   3.481  -0.028   6.632 -0.2090 -0.1885  0.1640
  206MOL0     C27708   3.611  -0.065   6.662 -1.1331  0.1346 -0.6626
  206MOL0     C27709   3.717  -0.046   6.571 -0.1166  0.4056  0.4860
  206MOL0     O27710   3.842  -0.068   6.595 -0.0802  0.0228  0.2658
  206MOL0     C27711   3.887  -0.123   6.718 -0.1631 -0.7386  0.2774
  206MOL0     C27712   4.046  -0.121   6.723 -0.1947  0.6437  0.0510
  206MOL0     C27713   4.105  -0.183   6.851 -0.2407  0.9149 -0.0850
  206MOL0     C27714   4.200  -0.090   6.930  0.0993 -0.2080  0.0875
  206MOL0     C27715   4.242  -0.155   7.058  0.3705 -0.0909 -0.2699
  206MOL0     C27716   4.373  -0.097   7.103 -0.2173  0.1614 -0.6667
  206MOL0     C27717   4.472  -0.213   7.120  0.5832  0.4953  0.0708
  206MOL0     C27718   4.516  -0.270   6.984 -0.5939 -0.3016  0.6840
  206MOL0    Cl27719   4.678  -0.357   6.988  0.5474 -0.0766 -0.2892
  206MOL0     C27720   3.688  -0.004   6.442 -0.7337 -0.2342 -0.2153
  206MOL0     C27721   3.563   0.035   6.415 -0.1951  0.0286 -1.1845
  206MOL0     O27722   3.211  -0.128   6.464 -0.4129  0.1911  0.0439
  206MOL0     C27723   3.094   0.194   6.345  0.1316  0.0191  1.0521
  206MOL0     C27724   2.975   0.250   6.312  0.2635 -0.1205 -0.1933
  206MOL0     N27725   2.300   0.290   5.836 -0.3098 -0.1076  0.4249
  206MOL0     N27726   2.226   0.392   5.817  0.3328 -0.1883  0.4376
  206MOL0     C27727   1.095   0.931   5.927 -0.1844  0.0259 -0.6443
  206MOL0     C27728   0.980   0.991   5.879 -0.8544 -0.6954 -0.2141
  206MOL0     C27729   0.640   1.233   5.813  0.2167 -0.0351 -0.1785
  206MOL0     C27730   0.624   1.220   5.671  0.5244  0.2673  0.7133
  206MOL0     C27731   0.510   1.270   5.602 -0.2687  0.0964  0.0143
  206MOL0     C27732   0.416   1.338   5.679  0.2182  0.1487 -0.1781
  206MOL0     O27733   0.304   1.395   5.622 -0.3909 -0.9482 -0.1720
  206MOL0     C27734   0.214   1.480   5.700  0.3030  0.0031  0.4591
  206MOL0     C27735   0.100   1.535   5.616  0.2417 -1.0119 -0.8073
  206MOL0     C27736   0.014   1.631   5.694 -0.1746 -0.5621 -1.3132
  206MOL0     C27737  -0.103   1.696   5.630 -0.1166 -0.4384  0.8992
  206MOL0     C27738  -0.054   1.791   5.525  0.1844  0.2568 -0.0942
  206MOL0     C27739  -0.013   1.869   5.441  0.0627  0.2908  0.2836
  206MOL0     C27740   0.425   1.327   5.823 -0.2079 -0.5169 -0.0794
  206MOL0     C27741   0.538   1.285   5.893  0.3041  0.5289  0.0977
  206MOL0     C27742   0.542   1.303   6.038  0.3499 -0.4949 -0.0844
  206MOL0     H27743   1.123   1.277   5.764 -0.4143 -1.0808 -1.2481
  206MOL0     H27744   1.331   1.163   5.867 -0.3560  2.2488  2.3696
  206MOL0     H27745   1.504   0.967   5.908 -2.3207  0.8349 -0.3637
  206MOL0     H27746   1.433   1.075   6.031 -0.0118  0.5859 -1.4003
  206MOL0     H27747   1.461   0.844   6.184  1.6355 -1.2887  0.8569
  206MOL0     H27748   1.592   0.974   6.164 -1.3792  0.9250 -0.4565
  206MOL0     H27749   1.688   0.828   5.977  1.5200 -1.2135  0.2004
  206MOL0     H27750   1.550   0.717   6.010  1.0122 -0.2168  1.0141
  206MOL0     H27751   1.759   0.813   6.216 -0.9928 -0.0210  2.3572
  206MOL0     H27752   1.618   0.692   6.232 -0.5066  0.2318  1.0427
  206MOL0     H27753   1.820   0.560   6.223 -1.4295 -1.9053 -0.6668
  206MOL0     H27754   1.727   0.536   6.079  1.0547 -1.5905 -0.2958
  206MOL0     H27755   1.864   0.682   5.945 -3.2085 -3.1580 -0.2381
  206MOL0     H27756   1.962   0.738   6.082 -1.2060  1.1693  0.3397
  206MOL0     H27757   1.929   0.462   6.002 -1.2744  0.4437  0.5109
  206MOL0     H27758   2.032   0.501   6.134 -2.0397  1.2957  1.3710
  206MOL0     H27759   2.060   0.593   5.844 -0.3447  1.0389 -0.1211
  206MOL0     H27760   2.168   0.642   5.979 -0.3192 -0.8390  1.0039
  206MOL0     H27761   2.257   0.412   6.143  0.5193 -0.9144  0.6610
  206MOL0     H27762   2.381   0.171   6.159  1.1802  0.6876 -0.0479
  206MOL0     H27763   2.380   0.090   6.000  0.7673 -0.3780  0.8856
  206MOL0     H27764   2.610   0.120   6.092 -0.2421 -0.2447 -2.1946
  206MOL0     H27765   2.600   0.215   5.947 -0.3756  1.7137 -0.5501
  206MOL0     H27766   2.529   0.373   6.192  0.3073  2.6814 -0.3887
  206MOL0     H27767   2.596   0.409   6.032  4.0570  0.3471 -0.4764
  206MOL0     H27768   2.722   0.431   6.263  2.0973  3.2541 -3.0122
  206MOL0     H27769   2.820   0.372   6.130  0.3233 -1.7197  0.5235
  206MOL0     H27770   2.772  -0.004   6.357 -1.6154  2.4301  0.2078
  206MOL0     H27771   2.963  -0.106   6.435 -1.4043 -0.2791 -1.5402
  206MOL0     H27772   3.393  -0.047   6.693 -0.8232 -3.4627 -1.5423
  206MOL0     H27773   3.631  -0.108   6.760 -2.4519 -0.0206 -0.4403
  206MOL0     H27774   3.848  -0.063   6.801 -1.7016 -1.7633  0.3448
  206MOL0     H27775   3.843  -0.223   6.726 -1.6100 -0.2022 -0.6180
  206MOL0     H27776   4.082  -0.171   6.633 -3.7409  2.9580 -2.9498
  206MOL0     H27777   4.083  -0.018   6.729 -0.9654  0.8594  2.7759
  206MOL0     H27778   4.020  -0.209   6.915  0.9866 -1.5502  0.6456
  206MOL0     H27779   4.155  -0.273   6.814 -2.9801  0.1820 -2.3860
  206MOL0     H27780   4.154   0.007   6.952 -0.5668 -0.5237  0.1074
  206MOL0     H27781   4.282  -0.079   6.859  0.0607 -0.4011  0.0120
  206MOL0     H27782   4.261  -0.261   7.040  0.2845 -0.2609  0.6053
  206MOL0     H27783   4.169  -0.155   7.140 -1.2801 -2.6436 -1.6175
  206MOL0     H27784   4.409  -0.022   7.033  2.6705  0.7388  1.2589
  206MOL0     H27785   4.357  -0.050   7.201  0.7286  0.5735 -0.7026
  206MOL0     H27786   4.424  -0.287   7.185  1.5133  0.2301  0.4600
  206MOL0     H27787   4.559  -0.176   7.174  0.2671  0.0328  0.9226
  206MOL0     H27788   4.443  -0.330   6.929 -1.0168  1.2923 -0.5478
  206MOL0     H27789   4.537  -0.181   6.925 -0.8830 -0.9097 -0.3636
  206MOL0     H27790   3.773   0.010   6.376 -0.0626  2.1958  1.0683
  206MOL0     H27791   3.553   0.088   6.321  3.6237  0.1307 -1.6951
  206MOL0     H27792   3.183   0.255   6.331 -0.8594  1.5523  1.2264
  206MOL0     H27793   2.984   0.355   6.284  2.6335 -0.1017  0.4141
  206MOL0     H27794   1.097   0.841   5.987  1.7703 -1.5809 -2.9359
  206MOL0     H27795   0.881   0.948   5.888 -1.7275  0.6700 -2.3671
  206MOL0     H27796   0.693   1.170   5.604 -2.5247  1.2486 -3.6142
  206MOL0     H27797   0.501   1.246   5.496 -1.0773  0.6822 -0.0653
  206MOL0     H27798   0.265   1.568   5.741  1.0353 -0.3268  0.2831
  206MOL0     H27799   0.169   1.416   5.777 -0.4696 -1.5012 -1.1871
  206MOL0     H27800   0.041   1.454   5.573 -2.3715 -0.3434  1.3228
  206MOL0     H27801   0.148   1.589   5.533 -0.0126 -1.5553 -1.3133
  206MOL0     H27802   0.072   1.715   5.733  2.9486 -1.5364 -3.4760
  206MOL0     H27803  -0.025   1.591   5.787 -2.3399  2.0752 -0.9602
  206MOL0     H27804  -0.171   1.621   5.588 -1.2900  1.5913 -1.0697
  206MOL0     H27805  -0.160   1.750   5.706  0.3864 -1.0924  1.7581
  206MOL0     H27806   0.005   1.948   5.372 -3.2973  1.3142  0.3862
  206MOL0     H27807   0.352   1.376   5.886 -0.3324 -0.7796 -0.0190
  206MOL0     H27808   0.458   1.364   6.073 -0.1543 -0.7700 -0.7938
  206MOL0     H27809   0.546   1.209   6.095 -0.3545  0.4293  1.5848
  206MOL0     H27810   0.626   1.366   6.068 -0.5374  0.9819 -0.5883
  207MOL0     O27811  10.245  10.873   2.713  0.1171 -0.3488  0.2713
  207MOL0     C27812  10.243  10.753   2.708 -0.0617  0.3040  0.0069
  207MOL0     O27813  10.337  10.671   2.635  0.2189 -1.0732 -0.6088
  207MOL0     C27814  10.445  10.736   2.590  0.3499 -0.7523 -0.9664
  207MOL0     C27815  10.574  10.704   2.648  0.2715 -0.2082  0.9029
  207MOL0     C27816  10.684  10.777   2.609 -0.1126  0.5647 -0.1439
  207MOL0     C27817  10.682  10.870   2.505 -0.3187 -0.5981 -0.4223
  207MOL0     O27818  10.800  10.930   2.450  0.4979  0.2601 -0.7210
  207MOL0     C27819  10.887  10.997   2.538 -0.1784 -0.3402 -0.2391
  207MOL0     C27820  10.979  11.080   2.446  0.5318  0.3898  0.2379
  207MOL0     C27821  11.097  10.988   2.413 -0.9326  0.1346  0.0476
  207MOL0     C27822  11.197  11.068   2.320 -0.9441  0.3653  0.3532
  207MOL0     C27823  11.326  10.996   2.274 -0.5757  0.2347 -0.1475
  207MOL0     C27824  11.414  11.098   2.198  0.7974 -0.9784  0.0002
  207MOL0     C27825  11.543  11.024   2.161  0.9058  0.2614  0.5216
  207MOL0     C27826  11.650  11.126   2.121 -1.0201  0.2926  0.1170
  207MOL0     N27827  11.770  11.059   2.069  0.3474 -0.0855 -0.6938
  207MOL0     C27828  11.846  10.963   2.132 -0.8599  0.3883 -0.0511
  207MOL0     C27829  11.940  10.919   2.042  0.3956  0.0038  0.2133
  207MOL0     C27830  12.053  10.812   2.055 -0.0252  1.2879 -0.5778
  207MOL0     C27831  12.108  10.758   1.910  0.3922  0.1210 -1.6759
  207MOL0     C27832  12.001  10.664   1.849 -0.1446  0.0447 -0.7610
  207MOL0     C27833  12.021  10.640   1.694 -0.2902 -0.8852  0.1159
  207MOL0     O27834  12.097  10.525   1.663  1.0012 -0.1020 -0.4013
  207MOL0     C27835  12.029  10.403   1.690  0.3807  0.0142 -0.0276
  207MOL0     C27836  12.106  10.302   1.737 -0.4642 -0.3489  0.3309
  207MOL0     C27837  12.048  10.184   1.786 -0.0524 -0.3290 -0.5426
  207MOL0     C27838  11.909  10.166   1.788  0.0220  0.4918 -0.1840
  207MOL0     C27839  11.853  10.048   1.843  0.2720 -0.2718 -0.0276
  207MOL0     O27840  11.729  10.055   1.907  0.0997 -0.9637 -0.0857
  207MOL0     C27841  11.660   9.949   1.964 -0.3369  0.0679  0.3782
  207MOL0     C27842  11.531   9.982   2.006  0.2230  0.1324 -0.4161
  207MOL0     C27843  11.448   9.878   2.057 -0.9681  0.2245 -0.3941
  207MOL0     C27844  11.489   9.745   2.051  0.4273 -1.7492 -1.0371
  207MOL0     O27845  11.395   9.649   2.089 -0.0351 -0.1840 -0.4902
  207MOL0     C27846  11.412   9.523   2.024  0.4243  0.8235  0.4886
  207MOL0     C27847  11.300   9.431   2.034  0.3660  0.3942  0.7519
  207MOL0     C27848  11.293   9.354   2.165  0.7079 -0.4043 -0.1130
  207MOL0     C27849  11.172   9.253   2.176 -0.7168 -0.4023 -1.4086
  207MOL0     C27850  11.031   9.315   2.150 -0.6218 -0.3327 -0.0766
  207MOL0     C27851  10.916   9.214   2.177  0.1754 -0.7739 -0.0793
  207MOL0     C27852  10.784   9.279   2.127  0.3958  0.2464 -0.0107
  207MOL0     C27853  10.663   9.194   2.120  1.1623  0.3648  0.2960
  207MOL0    Cl27854  10.611   9.144   2.274  0.1634  0.6718 -0.1097
  207MOL0     C27855  11.621   9.712   2.031 -0.9548  0.0884  0.6859
  207MOL0     C27856  11.714   9.816   1.984  0.2081 -1.0451 -0.6514
  207MOL0     O27857  11.918   9.947   1.822 -0.7876  0.8946 -0.4545
  207MOL0     C27858  11.827  10.265   1.730 -0.7756 -0.7144  0.4190
  207MOL0     C27859  11.887  10.383   1.687 -0.3044 -0.3437 -0.2418
  207MOL0     N27860  11.924  11.001   1.930  0.4144 -0.2994  0.2961
  207MOL0     N27861  11.829  11.090   1.950 -0.3641  0.2707  0.3324
  207MOL0     C27862  10.558  10.896   2.444  0.0630 -0.2481  0.7415
  207MOL0     C27863  10.437  10.835   2.489  0.5525  0.3196  0.5062
  207MOL0     C27864  10.149  10.685   2.799  0.3240 -0.5891 -0.3049
  207MOL0     C27865  10.157  10.551   2.789 -0.7029  1.1486  0.9259
  207MOL0     C27866  10.064  10.472   2.848  0.3078  0.4626 -0.0997
  207MOL0     C27867   9.976  10.526   2.943 -0.2090 -0.0856  0.1043
  207MOL0     O27868   9.903  10.446   3.025  0.3764  0.5516 -0.2813
  207MOL0     C27869   9.773  10.501   3.063 -0.0911 -0.6620  0.8368
  207MOL0     C27870   9.693  10.391   3.107 -0.0253  0.6232  0.1072
  207MOL0     C27871   9.539  10.430   3.108  0.1381 -0.0307  0.1420
  207MOL0     C27872   9.450  10.316   3.153  0.3906  0.2610  0.4313
  207MOL0     C27873   9.310  10.365   3.187  0.4474 -0.5021 -0.0838
  207MOL0     C27874   9.206  10.422   3.219 -0.2335 -0.1049  0.2439
  207MOL0     C27875   9.986  10.663   2.963  0.4928  0.2753 -0.1245
  207MOL0     C27876  10.065  10.746   2.896 -0.2981  0.4647 -0.1049
  207MOL0     C27877  10.044  10.896   2.913  0.0096  0.1925 -0.0590
  207MOL0     H27878  10.574  10.627   2.724  0.5546 -0.9805  0.1400
  207MOL0     H27879  10.771  10.755   2.670 -1.4549 -2.6825  0.8268
  207MOL0     H27880  10.835  11.070   2.600  1.3987 -0.5376  1.3783
  207MOL0     H27881  10.936  10.926   2.606  0.7215  2.3920  2.1640
  207MOL0     H27882  11.023  11.165   2.498 -0.8059 -0.3713  2.7826
  207MOL0     H27883  10.927  11.102   2.353  1.5986  1.5696 -0.1086
  207MOL0     H27884  11.064  10.905   2.350 -1.2539  1.7750 -2.0724
  207MOL0     H27885  11.155  10.949   2.497  2.3012  1.8299 -1.1825
  207MOL0     H27886  11.151  11.093   2.224  0.8362  1.0412 -0.3791
  207MOL0     H27887  11.231  11.157   2.375  1.0821 -0.7418  0.9986
  207MOL0     H27888  11.390  10.962   2.356  1.2159 -1.9232 -2.2863
  207MOL0     H27889  11.312  10.915   2.202  3.1775  0.8411 -1.8382
  207MOL0     H27890  11.361  11.138   2.111 -3.0125  0.6786  2.8091
  207MOL0     H27891  11.433  11.179   2.269 -1.9797 -0.8989  0.7530
  207MOL0     H27892  11.508  10.962   2.077  2.5846  2.2578 -1.7867
  207MOL0     H27893  11.566  10.965   2.250 -0.8446  0.0125  0.8385
  207MOL0     H27894  11.602  11.195   2.050 -2.5805 -1.4164 -0.5536
  207MOL0     H27895  11.689  11.186   2.204  1.2250  1.2076 -1.4894
  207MOL0     H27896  11.824  10.914   2.227 -0.4389 -2.4637 -1.3266
  207MOL0     H27897  12.129  10.870   2.107  0.3271  1.6927 -1.5274
  207MOL0     H27898  12.024  10.729   2.121  1.6137  2.0418  1.1581
  207MOL0     H27899  12.128  10.838   1.839  1.4497  1.4766  0.0917
  207MOL0     H27900  12.199  10.702   1.932 -0.9582 -1.3098  0.6856
  207MOL0     H27901  11.898  10.698   1.862  0.2757  1.0216  0.1636
  207MOL0     H27902  12.012  10.571   1.905  1.0200 -0.0068 -1.0568
  207MOL0     H27903  12.077  10.728   1.660  0.8066 -0.8921  1.7762
  207MOL0     H27904  11.934  10.637   1.628 -0.7573 -1.2892  0.7378
  207MOL0     H27905  12.213  10.299   1.723 -0.5663 -2.6037 -0.4397
  207MOL0     H27906  12.108  10.101   1.823  1.0019 -0.0170 -1.4991
  207MOL0     H27907  11.510  10.088   1.999  4.2489  0.9642 -3.2729
  207MOL0     H27908  11.357   9.902   2.112 -0.1758 -0.5090  1.3175
  207MOL0     H27909  11.427   9.533   1.916 -0.2873  4.9563  0.5948
  207MOL0     H27910  11.499   9.480   2.075 -0.3020  0.9958  1.9117
  207MOL0     H27911  11.203   9.477   2.010 -0.4698 -1.0526  1.2239
  207MOL0     H27912  11.311   9.349   1.963 -3.9291  0.1781  0.0346
  207MOL0     H27913  11.388   9.298   2.161  0.6267 -0.7108  1.5086
  207MOL0     H27914  11.285   9.419   2.253 -0.4849 -0.2699 -0.3045
  207MOL0     H27915  11.175   9.228   2.282  0.9862 -0.5690 -1.4707
  207MOL0     H27916  11.186   9.169   2.107  0.1001 -2.1094  0.7102
  207MOL0     H27917  11.029   9.346   2.045  0.2209 -0.4850 -0.1428
  207MOL0     H27918  11.024   9.396   2.223  1.0473 -2.6557  2.9111
  207MOL0     H27919  10.943   9.134   2.108 -1.7537  0.3142 -2.2272
  207MOL0     H27920  10.910   9.188   2.283  0.8666  1.7307  0.6486
  207MOL0     H27921  10.800   9.333   2.033  2.4354  1.3189  0.8821
  207MOL0     H27922  10.757   9.347   2.207  0.4108 -1.5555  1.5940
  207MOL0     H27923  10.578   9.246   2.074  2.6872  4.0661  1.3564
  207MOL0     H27924  10.675   9.103   2.059 -3.3658  1.6295 -3.0360
  207MOL0     H27925  11.656   9.609   2.029  0.3108  0.5211 -0.7550
  207MOL0     H27926  11.816   9.794   1.954  0.9355  0.0948  0.8498
  207MOL0     H27927  11.718  10.262   1.731 -0.9471  1.9938 -0.7058
  207MOL0     H27928  11.810  10.450   1.651 -0.4858 -2.0268 -3.3077
  207MOL0     H27929  10.562  10.952   2.351 -3.5895  1.2250  1.2815
  207MOL0     H27930  10.345  10.845   2.432  0.1510 -4.2191 -0.0324
  207MOL0     H27931  10.226  10.492   2.729 -2.6833 -0.4965  0.1420
  207MOL0     H27932  10.045  10.367   2.829  1.8784  0.3273 -1.0724
  207MOL0     H27933   9.729  10.535   2.968  2.6823 -0.0213 -0.3280
  207MOL0     H27934   9.772  10.577   3.142 -1.4316  1.1983 -0.8521
  207MOL0     H27935   9.727  10.356   3.205 -0.6036 -1.8106 -0.4945
  207MOL0     H27936   9.694  10.307   3.037 -2.4176  2.5853 -2.4869
  207MOL0     H27937   9.504  10.470   3.013  1.1423 -0.7279 -0.5417
  207MOL0     H27938   9.525  10.514   3.178 -0.4789  1.5446 -1.7749
  207MOL0     H27939   9.437  10.240   3.075  0.1895 -0.9720  1.6294
  207MOL0     H27940   9.496  10.270   3.240  0.6165  1.7391  1.1222
  207MOL0     H27941   9.126  10.492   3.231  0.9175  1.1483  0.8539
  207MOL0     H27942   9.924  10.700   3.044  2.6766  2.0435  0.8243
  207MOL0     H27943   9.976  10.923   2.994  0.8875 -0.9840  1.1227
  207MOL0     H27944  10.139  10.948   2.927 -0.2741  0.4417  0.9902
  207MOL0     H27945  10.002  10.929   2.817  1.8275  0.8066 -0.6888
  208MOL0     O27946  11.099   3.193   6.537  0.8232  0.4914  0.1488
  208MOL0     C27947  11.043   3.284   6.469 -0.0188 -0.5836  0.2723
  208MOL0     O27948  11.117   3.377   6.396 -0.6194 -0.0529 -0.1929
  208MOL0     C27949  11.250   3.342   6.381 -0.9996 -0.0168  0.7264
  208MOL0     C27950  11.294   3.233   6.301 -0.9530  0.6384 -0.3001
  208MOL0     C27951  11.435   3.212   6.289  0.1366  0.5164 -0.6821
  208MOL0     C27952  11.525   3.300   6.342 -0.0906  0.2881 -0.0044
  208MOL0     O27953  11.660   3.297   6.323  0.1758  0.1144  0.7173
  208MOL0     C27954  11.722   3.422   6.276  1.2954 -0.0718 -0.7847
  208MOL0     C27955  11.861   3.409   6.220 -0.0134  0.4728  0.7287
  208MOL0     C27956  11.945   3.340   6.329 -0.6413 -0.4775 -0.0000
  208MOL0     C27957  12.085   3.300   6.273  0.1181  0.2263 -0.3359
  208MOL0     C27958  12.191   3.394   6.318 -0.1240 -0.1075  0.3274
  208MOL0     C27959  12.172   3.550   6.280 -0.2085  0.0038 -0.0454
  208MOL0     C27960  12.301   3.637   6.265 -0.1131 -0.4375 -0.4956
  208MOL0     C27961  12.350   3.673   6.403  0.2952 -0.4086  0.1167
  208MOL0     N27962  12.455   3.774   6.379 -0.0963  0.1989 -0.6370
  208MOL0     C27963  12.587   3.745   6.401 -0.5669  0.4947  1.0490
  208MOL0     C27964  12.647   3.856   6.355  0.2185  0.0730  0.9986
  208MOL0     C27965  12.785   3.898   6.346  0.1493 -0.2766 -0.2265
  208MOL0     C27966  12.882   3.876   6.452 -0.9499  0.5420 -0.9400
  208MOL0     C27967  13.031   3.883   6.386  0.8617  0.2328 -0.1581
  208MOL0     C27968  13.138   3.829   6.470  0.2936 -0.7592 -0.2781
  208MOL0     O27969  13.259   3.883   6.427 -0.3228  0.0334 -0.7105
  208MOL0     C27970  13.373   3.819   6.429  0.0646  0.0915 -0.0746
  208MOL0     C27971  13.391   3.690   6.477 -0.0828  0.8487 -0.0391
  208MOL0     C27972  13.508   3.622   6.453 -0.1984  0.2792  0.2911
  208MOL0     C27973  13.622   3.690   6.405 -0.1186 -0.0463 -0.3462
  208MOL0     C27974  13.752   3.627   6.388 -0.0552  0.2119 -0.1611
  208MOL0     O27975  13.847   3.711   6.341  0.2697  0.1233 -0.5849
  208MOL0     C27976  13.968   3.659   6.315 -0.4507  0.0668 -0.8773
  208MOL0     C27977  14.021   3.663   6.189  1.2461 -0.2228 -0.7445
  208MOL0     C27978  14.152   3.624   6.161 -0.1936  1.1175  0.5967
  208MOL0     C27979  14.233   3.571   6.260 -0.0978 -0.6887 -0.3307
  208MOL0     O27980  14.361   3.523   6.241  0.0379  0.1262 -0.3103
  208MOL0     C27981  14.456   3.592   6.159 -0.1304 -0.8318  0.1283
  208MOL0     C27982  14.504   3.720   6.234 -0.1032 -0.2981  0.2656
  208MOL0     C27983  14.564   3.689   6.374 -0.3741  0.6125  0.5600
  208MOL0     C27984  14.698   3.603   6.374 -0.3610  0.2876  0.0780
  208MOL0     C27985  14.756   3.586   6.513  0.3067 -1.0164 -0.6749
  208MOL0     C27986  14.906   3.552   6.521 -0.7385 -1.0310 -0.2951
  208MOL0     C27987  14.938   3.473   6.643 -0.5762  0.7651 -0.4014
  208MOL0     C27988  15.091   3.472   6.667 -0.3710 -0.6298 -0.8902
  208MOL0    Cl27989  15.170   3.411   6.520 -0.2288 -0.0875  0.0293
  208MOL0     C27990  14.176   3.565   6.393  0.2630 -0.9540  0.2363
  208MOL0     C27991  14.044   3.607   6.418  0.0928  1.0617 -0.4571
  208MOL0     O27992  13.775   3.507   6.419  1.2109 -1.0447 -0.3593
  208MOL0     C27993  13.603   3.821   6.361 -1.0567 -0.3256  0.3848
  208MOL0     C27994  13.473   3.885   6.369  0.3663  0.5029 -0.1836
  208MOL0     N27995  12.555   3.945   6.320  1.1108  0.1260  0.2177
  208MOL0     N27996  12.439   3.893   6.323  0.1064  0.9209 -0.3241
  208MOL0     C27997  11.483   3.408   6.409  0.0838 -0.4614 -0.3752
  208MOL0     C27998  11.345   3.426   6.433 -0.6636 -0.7927  0.8025
  208MOL0     C27999  10.893   3.323   6.499 -0.4481  0.3820 -0.1723
  208MOL0     C28000  10.856   3.448   6.455 -0.1780 -0.0981 -0.1415
  208MOL0     C28001  10.727   3.493   6.475 -0.5090 -0.6249 -0.0944
  208MOL0     C28002  10.631   3.421   6.551 -0.0252 -0.5064 -0.0775
  208MOL0     O28003  10.502   3.472   6.573 -0.9206  0.7152  0.2841
  208MOL0     C28004  10.397   3.388   6.598 -0.8928 -0.5192 -0.5816
  208MOL0     C28005  10.270   3.470   6.600 -0.1576  0.8253  0.9237
  208MOL0     C28006  10.262   3.571   6.714 -0.3495  0.5267  0.3500
  208MOL0     C28007  10.119   3.636   6.722  0.2577  0.7907  0.2936
  208MOL0     C28008  10.013   3.540   6.757 -0.0972 -0.5519 -0.7373
  208MOL0     C28009   9.915   3.466   6.784 -0.4071  0.5671  0.2366
  208MOL0     C28010  10.669   3.298   6.599 -0.2153  0.2169  0.2520
  208MOL0     C28011  10.799   3.243   6.568  0.3222  0.1234 -0.2755
  208MOL0     C28012  10.821   3.098   6.604  0.3881 -0.1130 -0.0325
  208MOL0     H28013  11.231   3.155   6.258 -0.7830  0.7232 -0.7075
  208MOL0     H28014  11.470   3.133   6.223 -0.2245  1.1339 -1.6245
  208MOL0     H28015  11.653   3.472   6.206  0.2771 -0.6793 -0.2385
  208MOL0     H28016  11.744   3.492   6.357  1.8996 -2.0147  0.7797
  208MOL0     H28017  11.895   3.506   6.185  0.5274  0.4019  1.0348
  208MOL0     H28018  11.851   3.345   6.132  1.0982  0.1296  0.8231
  208MOL0     H28019  11.894   3.254   6.376 -1.4799  0.6868  1.3142
  208MOL0     H28020  11.964   3.416   6.406  2.0151 -0.6838 -0.3607
  208MOL0     H28021  12.107   3.204   6.320  4.3821  1.5060  0.7106
  208MOL0     H28022  12.081   3.287   6.164 -2.5152  1.4120 -0.4586
  208MOL0     H28023  12.203   3.377   6.425 -0.8165  0.0109  0.4266
  208MOL0     H28024  12.289   3.375   6.273  0.0855 -1.8468  1.4180
  208MOL0     H28025  12.125   3.555   6.181  0.7800  1.0841 -0.4879
  208MOL0     H28026  12.102   3.595   6.351 -1.7988 -2.8538  0.3592
  208MOL0     H28027  12.276   3.724   6.203  4.5718  0.5105 -1.3937
  208MOL0     H28028  12.388   3.595   6.214  1.0167  2.0342 -0.7613
  208MOL0     H28029  12.266   3.721   6.453 -1.3331 -0.6264 -2.2453
  208MOL0     H28030  12.393   3.586   6.455  0.3101 -0.3862  0.1420
  208MOL0     H28031  12.623   3.665   6.465  0.0262 -0.5893 -0.5748
  208MOL0     H28032  12.835   3.856   6.258  2.1388  0.9161  0.2684
  208MOL0     H28033  12.780   4.005   6.323  1.0206 -0.1363  0.2273
  208MOL0     H28034  12.863   3.954   6.526 -1.6589 -0.0276 -0.5161
  208MOL0     H28035  12.864   3.777   6.493 -3.6478  0.9533 -0.9846
  208MOL0     H28036  13.056   3.981   6.344 -0.1374 -0.1198 -1.6391
  208MOL0     H28037  13.028   3.816   6.299  1.3034  0.3287 -0.2515
  208MOL0     H28038  13.121   3.721   6.466  3.2954 -1.4500  2.0303
  208MOL0     H28039  13.133   3.861   6.574  2.3391  1.7215 -0.8382
  208MOL0     H28040  13.322   3.624   6.530  0.0121  2.1248  1.7630
  208MOL0     H28041  13.511   3.518   6.481  0.6216 -0.4944 -2.3762
  208MOL0     H28042  13.957   3.708   6.114 -1.4599  1.4312  2.2757
  208MOL0     H28043  14.186   3.643   6.059  3.1231 -0.8015  1.2240
  208MOL0     H28044  14.544   3.527   6.149  2.3293  1.9828  1.9273
  208MOL0     H28045  14.419   3.610   6.058 -1.2747  0.1185  0.6953
  208MOL0     H28046  14.579   3.768   6.170 -0.9419  1.6851  0.6966
  208MOL0     H28047  14.426   3.796   6.227  0.2589 -0.0348 -1.4246
  208MOL0     H28048  14.588   3.785   6.420  0.2560  0.8702 -0.2903
  208MOL0     H28049  14.490   3.650   6.445 -0.9410  0.6627  0.0075
  208MOL0     H28050  14.753   3.659   6.297 -0.1580  2.9195  2.0102
  208MOL0     H28051  14.685   3.502   6.333  0.5145  1.5376 -3.7844
  208MOL0     H28052  14.691   3.512   6.560 -3.8488  0.4939 -3.4312
  208MOL0     H28053  14.738   3.676   6.572 -0.2956 -1.6255  0.0821
  208MOL0     H28054  14.933   3.499   6.429 -1.2319 -0.7684 -0.5948
  208MOL0     H28055  14.961   3.646   6.531 -4.1168  0.9609  1.2622
  208MOL0     H28056  14.893   3.375   6.625 -2.2982  1.1703  1.2774
  208MOL0     H28057  14.894   3.506   6.738  1.7952 -4.4026  2.9292
  208MOL0     H28058  15.118   3.574   6.696 -0.3961 -1.0463  0.6450
  208MOL0     H28059  15.120   3.412   6.753 -1.7313  0.4524  0.3685
  208MOL0     H28060  14.246   3.525   6.467 -0.3407 -0.5561  1.0435
  208MOL0     H28061  13.996   3.590   6.514 -0.0502  1.7645 -0.3997
  208MOL0     H28062  13.686   3.878   6.319 -0.8918 -1.2291 -0.5440
  208MOL0     H28063  13.456   3.986   6.334  0.7539  1.1362  1.3618
  208MOL0     H28064  11.552   3.487   6.434  2.7813 -2.6329 -0.4725
  208MOL0     H28065  11.309   3.500   6.504 -1.0592 -1.1417  0.9734
  208MOL0     H28066  10.916   3.512   6.391 -0.3617 -1.3919 -1.6597
  208MOL0     H28067  10.691   3.582   6.425  0.1197  1.4091  2.7922
  208MOL0     H28068  10.401   3.349   6.700 -1.3046 -1.8224 -1.0437
  208MOL0     H28069  10.386   3.301   6.532  3.1068  0.1415 -2.4142
  208MOL0     H28070  10.193   3.393   6.599  1.1914 -0.5919 -1.3226
  208MOL0     H28071  10.267   3.520   6.502 -1.6825 -0.3127  0.3568
  208MOL0     H28072  10.332   3.655   6.709  1.2893 -0.7247  1.1689
  208MOL0     H28073  10.294   3.531   6.811 -1.2429 -0.4351  0.2588
  208MOL0     H28074  10.129   3.711   6.802  0.0516  1.3342 -0.1853
  208MOL0     H28075  10.090   3.684   6.629  0.2002 -0.0429 -0.1214
  208MOL0     H28076   9.859   3.379   6.810  0.5186 -0.6761 -1.7030
  208MOL0     H28077  10.603   3.240   6.663 -1.1169  0.1512 -0.7120
  208MOL0     H28078  10.895   3.093   6.685  0.2832  1.6145  0.2006
  208MOL0     H28079  10.729   3.047   6.631 -1.4106  1.8271 -2.1048
  208MOL0     H28080  10.870   3.043   6.523  1.9159  2.1322 -0.7436
  209MOL0     O28081   1.836  10.352   5.122 -0.0874  0.2767  0.2285
  209MOL0     C28082   1.772  10.455   5.126  0.8191  0.1889 -0.4909
  209MOL0     O28083   1.825  10.576   5.111  0.1205  0.5538  0.0478
  209MOL0     C28084   1.949  10.612   5.172  0.4847 -0.2866  0.1323
  209MOL0     C28085   2.018  10.539   5.277 -0.0826  0.2232 -0.1124
  209MOL0     C28086   2.138  10.590   5.336  0.2137  0.5845  0.4952
  209MOL0     C28087   2.174  10.721   5.306  0.7251  0.7459 -0.1459
  209MOL0     O28088   2.276  10.778   5.372 -0.0549  0.4185  0.7766
  209MOL0     C28089   2.372  10.856   5.297  0.6984 -0.4585 -0.5689
  209MOL0     C28090   2.454  10.955   5.392 -0.1787 -0.2670  0.1881
  209MOL0     C28091   2.570  10.883   5.464  0.2446  0.8726  0.2196
  209MOL0     C28092   2.622  10.981   5.566  0.5395  0.3880  0.1954
  209MOL0     C28093   2.730  11.064   5.489 -0.2690 -0.4741  0.0061
  209MOL0     C28094   2.865  10.999   5.457  0.4058  0.0316 -0.5355
  209MOL0     C28095   2.951  11.122   5.405 -0.7629 -0.0050 -0.6375
  209MOL0     C28096   3.103  11.088   5.382 -0.8987 -0.1844  0.8586
  209MOL0     N28097   3.190  11.206   5.386 -0.6934 -0.7703 -0.0050
  209MOL0     C28098   3.222  11.274   5.502  0.2154  0.0841 -0.0328
  209MOL0     C28099   3.276  11.384   5.452 -0.3916  1.0292  0.3387
  209MOL0     C28100   3.316  11.494   5.545 -0.3026  0.1634 -0.3036
  209MOL0     C28101   3.436  11.454   5.622 -0.8851 -0.5190 -0.4870
  209MOL0     C28102   3.563  11.492   5.550  0.7562 -0.4654 -0.6398
  209MOL0     C28103   3.609  11.380   5.450 -0.3064 -0.5301  0.0718
  209MOL0     O28104   3.690  11.450   5.360 -0.7061 -0.1413 -0.5617
  209MOL0     C28105   3.821  11.445   5.400  0.1488 -1.0187 -0.0479
  209MOL0     C28106   3.879  11.567   5.445 -0.8548  0.1363  0.0447
  209MOL0     C28107   4.018  11.569   5.488 -0.4057  0.1955  0.5924
  209MOL0     C28108   4.102  11.453   5.468  1.3011  1.0663  0.5481
  209MOL0     C28109   4.244  11.455   5.497  0.3034  0.1864  0.3681
  209MOL0     O28110   4.324  11.347   5.475  0.6828  0.6241  0.0802
  209MOL0     C28111   4.457  11.352   5.508 -0.0360 -0.1056 -0.6941
  209MOL0     C28112   4.511  11.386   5.634  0.1852 -0.2200  0.7259
  209MOL0     C28113   4.648  11.392   5.656  0.3456 -0.0792  0.7877
  209MOL0     C28114   4.745  11.352   5.566 -0.5042  0.0141  0.0628
  209MOL0     O28115   4.878  11.372   5.588 -0.7152 -0.2638 -0.7440
  209MOL0     C28116   4.943  11.243   5.591 -0.6051  0.1917  0.4062
  209MOL0     C28117   5.075  11.257   5.678  0.2649 -1.0041  1.2315
  209MOL0     C28118   5.057  11.285   5.824  0.9109 -0.1196 -0.7755
  209MOL0     C28119   5.190  11.251   5.901 -0.7811  0.9671 -0.1626
  209MOL0     C28120   5.178  11.255   6.054 -0.1385  0.5004 -0.4111
  209MOL0     C28121   5.061  11.173   6.112  0.6061  0.6758 -0.0907
  209MOL0     C28122   5.080  11.145   6.262 -0.6040 -0.2074  0.4048
  209MOL0     C28123   4.961  11.103   6.339  1.3492 -0.2268 -0.3550
  209MOL0    Cl28124   5.008  11.063   6.507 -0.3051  0.2114 -0.2277
  209MOL0     C28125   4.695  11.309   5.440  0.6765  0.9354  0.1065
  209MOL0     C28126   4.557  11.312   5.415 -0.0018  0.8834  0.1175
  209MOL0     O28127   4.288  11.558   5.550  0.6886 -0.6219  0.1337
  209MOL0     C28128   4.039  11.333   5.424  1.1851 -0.0545  0.2147
  209MOL0     C28129   3.902  11.336   5.384 -0.1890  0.2187  0.0263
  209MOL0     N28130   3.265  11.391   5.316 -0.0056  0.1288  0.5494
  209MOL0     N28131   3.205  11.285   5.276 -1.0525 -1.0649 -0.1642
  209MOL0     C28132   2.099  10.790   5.209 -0.2062 -0.4891 -0.0092
  209MOL0     C28133   1.991  10.742   5.146  0.5295 -0.5384  0.4222
  209MOL0     C28134   1.628  10.458   5.156 -0.9017 -0.2619  0.4207
  209MOL0     C28135   1.569  10.581   5.177  0.2121  0.0597  0.4623
  209MOL0     C28136   1.434  10.590   5.213  0.2408  0.2634 -0.5615
  209MOL0     C28137   1.353  10.475   5.209 -0.1841 -0.0073  0.9174
  209MOL0     O28138   1.228  10.490   5.256  0.2142  0.1708 -0.5161
  209MOL0     C28139   1.121  10.435   5.181  0.2251  0.4740  0.0501
  209MOL0     C28140   1.041  10.553   5.126  0.8096 -0.5579 -0.1867
  209MOL0     C28141   0.912  10.513   5.062 -0.2752  0.1335  0.2376
  209MOL0     C28142   0.799  10.607   5.103  0.1435  0.3459 -0.0897
  209MOL0     C28143   0.809  10.740   5.034  0.4956 -0.3385 -0.2597
  209MOL0     C28144   0.789  10.850   4.981 -0.0996  0.0268  0.5976
  209MOL0     C28145   1.409  10.354   5.180 -0.1403 -0.3055  1.1353
  209MOL0     C28146   1.545  10.337   5.152  0.2265 -0.0840  0.1769
  209MOL0     C28147   1.597  10.194   5.122  0.0945  1.3490 -0.2205
  209MOL0     H28148   1.979  10.441   5.304  2.2110  0.0142  2.9961
  209MOL0     H28149   2.187  10.516   5.398 -0.1866 -0.7024 -0.6550
  209MOL0     H28150   2.436  10.784   5.247 -1.2845 -2.4630 -0.4103
  209MOL0     H28151   2.322  10.912   5.218 -2.2608  0.7167  1.8961
  209MOL0     H28152   2.396  10.999   5.473 -0.6341  1.7251 -1.1601
  209MOL0     H28153   2.494  11.035   5.330 -0.3373  0.1571  0.6227
  209MOL0     H28154   2.648  10.847   5.395 -0.3879  0.9342 -0.5441
  209MOL0     H28155   2.540  10.798   5.525  1.0163  2.0804  2.3840
  209MOL0     H28156   2.541  11.046   5.601  1.4556  2.6515 -1.5944
  209MOL0     H28157   2.675  10.927   5.645  1.0869 -0.0860 -0.4902
  209MOL0     H28158   2.688  11.103   5.396  1.3613 -1.1993 -1.0703
  209MOL0     H28159   2.742  11.150   5.557 -2.6190  0.1288 -0.2494
  209MOL0     H28160   2.923  10.959   5.541  0.8719  3.5371  0.9868
  209MOL0     H28161   2.846  10.918   5.386 -1.7003  1.4862 -1.7340
  209MOL0     H28162   2.937  11.198   5.483 -2.5338 -1.1821  0.2524
  209MOL0     H28163   2.917  11.164   5.310 -1.5400 -2.2260 -1.4063
  209MOL0     H28164   3.140  11.012   5.451 -2.7262  0.5915  2.8105
  209MOL0     H28165   3.113  11.048   5.281 -1.6124 -0.4989  0.9018
  209MOL0     H28166   3.221  11.239   5.605 -1.3928 -2.3179 -0.7727
  209MOL0     H28167   3.315  11.589   5.489 -2.8571  1.7078  2.0838
  209MOL0     H28168   3.237  11.503   5.620  0.1519 -1.5897  0.4171
  209MOL0     H28169   3.431  11.506   5.719 -0.8926  0.6978 -1.1174
  209MOL0     H28170   3.440  11.347   5.642 -0.6358 -0.8656 -2.2890
  209MOL0     H28171   3.644  11.504   5.623  0.0485  1.7692 -0.1454
  209MOL0     H28172   3.553  11.586   5.495  1.7797 -0.3577 -0.6703
  209MOL0     H28173   3.520  11.336   5.405  0.6100 -0.1814 -2.2308
  209MOL0     H28174   3.660  11.304   5.510  0.4253 -1.3133 -1.4794
  209MOL0     H28175   3.823  11.656   5.472  0.2046  0.7847  0.1706
  209MOL0     H28176   4.064  11.660   5.526  2.0721 -0.6761 -0.0799
  209MOL0     H28177   4.440  11.412   5.711  0.4131  1.7373  0.3311
  209MOL0     H28178   4.695  11.428   5.747  2.2243 -2.3000  0.7865
  209MOL0     H28179   4.875  11.170   5.636  0.1703 -0.8109  0.0070
  209MOL0     H28180   4.971  11.201   5.494 -0.2817  1.1581  0.0744
  209MOL0     H28181   5.125  11.160   5.669  0.1706 -0.9387 -0.2304
  209MOL0     H28182   5.142  11.330   5.633 -0.2699 -3.1809 -3.7024
  209MOL0     H28183   5.035  11.391   5.841  1.4308  0.0564 -1.1934
  209MOL0     H28184   4.980  11.217   5.862  0.3751  0.3493 -1.0061
  209MOL0     H28185   5.265  11.328   5.877  1.3608  0.4764  4.0555
  209MOL0     H28186   5.229  11.156   5.864  0.5400  0.0082  3.3518
  209MOL0     H28187   5.154  11.360   6.069  0.0559  0.6089 -0.8384
  209MOL0     H28188   5.276  11.223   6.090 -0.4600 -0.6240 -0.4938
  209MOL0     H28189   4.965  11.223   6.097  0.2162  0.1003  0.4214
  209MOL0     H28190   5.046  11.078   6.060  0.0007  0.9096 -0.3488
  209MOL0     H28191   5.121  11.236   6.306  0.7244  0.8373 -2.7028
  209MOL0     H28192   5.154  11.065   6.273 -1.6742 -1.8617 -3.0188
  209MOL0     H28193   4.890  11.185   6.344  0.5914 -0.9073  0.4331
  209MOL0     H28194   4.916  11.015   6.293 -1.2743  1.6922 -1.6971
  209MOL0     H28195   4.767  11.288   5.361 -1.3311 -3.9283 -0.8329
  209MOL0     H28196   4.512  11.278   5.322  0.8015  1.2321 -0.4101
  209MOL0     H28197   4.092  11.240   5.406  2.7382  0.5742  1.3348
  209MOL0     H28198   3.853  11.241   5.363  0.9731 -0.1054 -1.4062
  209MOL0     H28199   2.113  10.895   5.189 -1.4605  0.2536  2.5319
  209MOL0     H28200   1.944  10.803   5.069  2.5754  0.7589  0.1152
  209MOL0     H28201   1.611  10.681   5.185 -1.6912  0.9046  0.7333
  209MOL0     H28202   1.380  10.681   5.235 -3.4948 -1.9830  0.3245
  209MOL0     H28203   1.061  10.372   5.247 -0.3414 -0.1013 -0.9867
  209MOL0     H28204   1.145  10.370   5.096 -2.4401 -1.2143  0.4977
  209MOL0     H28205   1.104  10.602   5.051 -1.2951  0.4758 -1.3759
  209MOL0     H28206   1.020  10.626   5.205  0.3124 -2.0296  1.0760
  209MOL0     H28207   0.886  10.412   5.095 -0.1636 -0.0751 -0.2966
  209MOL0     H28208   0.915  10.498   4.954  0.0697 -1.6253  0.4520
  209MOL0     H28209   0.702  10.563   5.075  0.3577  0.3717 -0.8852
  209MOL0     H28210   0.798  10.628   5.211 -0.4997 -0.0517 -0.0117
  209MOL0     H28211   0.776  10.948   4.940  0.3422 -0.8694 -1.8752
  209MOL0     H28212   1.349  10.264   5.190 -2.2033  0.9839  1.0889
  209MOL0     H28213   1.609  10.182   5.014  0.5964  0.7522 -0.1068
  209MOL0     H28214   1.687  10.163   5.176 -1.0870 -0.0917  1.0031
  209MOL0     H28215   1.515  10.122   5.128  1.8853 -0.6791  2.8421
  210MOL0     O28216  10.337   3.192   0.391  0.4512  0.5310 -0.0405
  210MOL0     C28217  10.329   3.091   0.324 -0.3302  1.2695  0.6266
  210MOL0     O28218  10.352   2.963   0.370 -0.3310  0.1392  0.3664
  210MOL0     C28219  10.459   2.935   0.451  0.3723 -0.1466 -0.0560
  210MOL0     C28220  10.448   2.836   0.547  0.3787 -0.4896  1.0071
  210MOL0     C28221  10.549   2.795   0.639  0.7018 -0.0823  0.4751
  210MOL0     C28222  10.678   2.858   0.628 -0.5267  0.4800  0.0674
  210MOL0     O28223  10.774   2.800   0.707  0.6173  0.4786  0.0649
  210MOL0     C28224  10.905   2.862   0.715 -0.3813  0.9652 -0.4501
  210MOL0     C28225  11.005   2.757   0.780 -0.7279  0.8836 -0.5777
  210MOL0     C28226  11.142   2.826   0.801 -0.2505 -0.2537 -0.6408
  210MOL0     C28227  11.255   2.733   0.833 -0.3815 -0.2929  0.1978
  210MOL0     C28228  11.398   2.804   0.834  0.0732 -0.2905 -0.0925
  210MOL0     C28229  11.506   2.709   0.885  0.4322  0.4264 -0.0131
  210MOL0     C28230  11.649   2.738   0.822  0.5268 -0.3617  0.0158
  210MOL0     C28231  11.738   2.618   0.832 -0.9142 -0.1711 -0.0084
  210MOL0     N28232  11.859   2.662   0.767 -1.5511  0.1613  0.4850
  210MOL0     C28233  11.987   2.672   0.830 -0.2337 -0.1672 -0.3973
  210MOL0     C28234  12.065   2.722   0.735 -0.5078  0.4184 -0.6263
  210MOL0     C28235  12.213   2.746   0.743 -0.2691  0.4154  0.2031
  210MOL0     C28236  12.247   2.867   0.824  0.6724 -0.0101 -0.2778
  210MOL0     C28237  12.251   2.989   0.737  0.9083 -0.5918  0.4801
  210MOL0     C28238  12.230   3.113   0.815 -0.6474  0.3297  0.6288
  210MOL0     O28239  12.099   3.141   0.872  0.4615 -0.1270 -0.9618
  210MOL0     C28240  11.981   3.165   0.799 -0.0878 -0.2946 -0.8136
  210MOL0     C28241  11.977   3.176   0.659  0.7972  0.2779 -0.5176
  210MOL0     C28242  11.858   3.229   0.607  0.4933  0.3579 -0.9228
  210MOL0     C28243  11.738   3.240   0.681 -0.5916 -0.0664  0.2976
  210MOL0     C28244  11.622   3.298   0.614 -0.1120 -0.3714 -0.1694
  210MOL0     O28245  11.514   3.307   0.695 -0.5673  0.1324  0.9546
  210MOL0     C28246  11.391   3.322   0.636 -0.4087 -0.9766 -0.0423
  210MOL0     C28247  11.340   3.425   0.552 -0.0677  0.7198  0.3796
  210MOL0     C28248  11.218   3.420   0.486  0.0770  0.1108 -0.0240
  210MOL0     C28249  11.124   3.317   0.512 -0.1057  0.4235 -0.2637
  210MOL0     O28250  11.001   3.303   0.440 -0.3506  0.2654  0.1642
  210MOL0     C28251  10.883   3.332   0.515  0.6968  0.2496  0.2766
  210MOL0     C28252  10.755   3.304   0.431  0.1874 -0.3809 -0.5416
  210MOL0     C28253  10.740   3.408   0.316  0.3487 -0.5365 -0.0466
  210MOL0     C28254  10.620   3.370   0.227 -0.4368  0.4339 -0.1307
  210MOL0     C28255  10.626   3.431   0.092  0.2252 -0.0627 -0.0514
  210MOL0     C28256  10.514   3.378   0.006 -0.7624  0.2033 -0.2542
  210MOL0     C28257  10.490   3.465  -0.123 -1.0294  0.0412  0.3148
  210MOL0     C28258  10.346   3.463  -0.173  0.2950  0.3486  0.4850
  210MOL0    Cl28259  10.239   3.558  -0.068  0.0628 -0.0705  0.2001
  210MOL0     C28260  11.163   3.224   0.611 -0.1319  0.6632 -0.8473
  210MOL0     C28261  11.296   3.225   0.673  0.4098 -0.7176 -0.0517
  210MOL0     O28262  11.628   3.339   0.500  0.4937 -0.3305  0.2222
  210MOL0     C28263  11.738   3.209   0.815 -0.8053  0.1060  0.1984
  210MOL0     C28264  11.864   3.180   0.875 -0.9651 -0.7914  0.2250
  210MOL0     N28265  11.986   2.736   0.619 -0.0938 -0.2514 -0.2239
  210MOL0     N28266  11.867   2.704   0.638 -0.6030  0.1911 -0.0485
  210MOL0     C28267  10.698   2.955   0.521 -0.0854 -0.1026  0.3447
  210MOL0     C28268  10.583   2.985   0.438 -0.7880 -0.2505  0.0594
  210MOL0     C28269  10.261   3.105   0.185  0.0884 -0.0142  0.4949
  210MOL0     C28270  10.292   3.004   0.094 -0.4263  0.1062 -0.0520
  210MOL0     C28271  10.239   3.019  -0.033 -0.0278  1.4365 -0.0805
  210MOL0     C28272  10.161   3.127  -0.076 -0.5930 -0.7658 -0.1380
  210MOL0     O28273  10.110   3.140  -0.200  0.1123  0.2546  0.1242
  210MOL0     C28274   9.970   3.142  -0.206  1.0137 -0.2315  0.5962
  210MOL0     C28275   9.933   3.194  -0.341  0.3051  0.4597  0.6645
  210MOL0     C28276  10.006   3.317  -0.377 -0.3919 -0.5914 -0.0132
  210MOL0     C28277   9.971   3.430  -0.287 -0.2584 -0.1131  0.8857
  210MOL0     C28278   9.994   3.560  -0.357 -1.0862 -0.1193  0.1709
  210MOL0     C28279  10.012   3.661  -0.414  0.1235  0.5616  0.0913
  210MOL0     C28280  10.147   3.233   0.008 -0.0883 -0.4107  0.2152
  210MOL0     C28281  10.187   3.215   0.139  0.6959 -0.2736  0.1532
  210MOL0     C28282  10.157   3.337   0.230 -0.0887  0.3060 -0.2662
  210MOL0     H28283  10.355   2.780   0.553 -1.0252  1.2202 -2.2772
  210MOL0     H28284  10.520   2.722   0.713 -0.3466 -0.7705 -0.5778
  210MOL0     H28285  10.943   2.896   0.619 -0.3691  1.4842 -0.2654
  210MOL0     H28286  10.890   2.951   0.778  1.8355  1.0783 -0.0067
  210MOL0     H28287  11.024   2.666   0.722 -0.7717  1.3926 -1.4193
  210MOL0     H28288  10.972   2.729   0.880  1.2757  0.0081 -0.1093
  210MOL0     H28289  11.127   2.882   0.894  1.8331 -1.9569  0.8207
  210MOL0     H28290  11.163   2.884   0.710 -1.7321  3.9403  1.4471
  210MOL0     H28291  11.233   2.681   0.927  0.3504 -1.9373 -0.5155
  210MOL0     H28292  11.252   2.658   0.755 -0.0646 -0.0460 -0.0546
  210MOL0     H28293  11.433   2.824   0.732 -0.5170  3.0191  0.2450
  210MOL0     H28294  11.403   2.892   0.898  0.5530  0.5340 -1.2368
  210MOL0     H28295  11.507   2.732   0.992 -0.5996  0.9657 -0.1047
  210MOL0     H28296  11.469   2.610   0.856 -1.4000  1.0762 -0.0039
  210MOL0     H28297  11.687   2.824   0.878 -1.7350  2.4183 -2.3965
  210MOL0     H28298  11.631   2.762   0.716 -3.9335 -3.1265 -0.0725
  210MOL0     H28299  11.758   2.590   0.936 -0.8798 -1.4708 -0.3485
  210MOL0     H28300  11.705   2.526   0.784  1.1654 -1.0187  0.0823
  210MOL0     H28301  12.011   2.646   0.933  0.3954 -1.1595 -0.7824
  210MOL0     H28302  12.261   2.664   0.797  2.5264  1.1255 -1.0319
  210MOL0     H28303  12.255   2.759   0.643  0.5562  2.0292  0.7220
  210MOL0     H28304  12.173   2.884   0.903 -0.8109  0.7112 -1.7729
  210MOL0     H28305  12.345   2.853   0.871  0.8073  3.2955  0.6841
  210MOL0     H28306  12.179   2.975   0.656 -0.6471  0.2334  1.6777
  210MOL0     H28307  12.349   3.009   0.693 -0.1735  2.1139 -0.9069
  210MOL0     H28308  12.252   3.197   0.748  1.2266  1.2894  2.3343
  210MOL0     H28309  12.302   3.109   0.897 -1.2096  1.5481  1.2114
  210MOL0     H28310  12.066   3.170   0.596  0.3886 -0.3136 -1.0444
  210MOL0     H28311  11.854   3.256   0.502 -0.4200  0.3938 -0.8875
  210MOL0     H28312  11.404   3.509   0.528 -0.9310  1.2332 -0.1817
  210MOL0     H28313  11.187   3.497   0.416 -2.2326 -0.2134  0.5386
  210MOL0     H28314  10.867   3.264   0.599  0.7442 -0.2167 -0.0921
  210MOL0     H28315  10.886   3.432   0.560  0.5567 -0.4274  1.8543
  210MOL0     H28316  10.755   3.200   0.400  1.7481 -0.5366 -0.1136
  210MOL0     H28317  10.671   3.316   0.500  0.9192 -0.7474  0.4444
  210MOL0     H28318  10.722   3.502   0.369 -2.9721 -1.3501  0.5215
  210MOL0     H28319  10.837   3.414   0.266  0.4301  0.3571  0.2063
  210MOL0     H28320  10.529   3.408   0.274 -0.6728 -0.0580 -0.1890
  210MOL0     H28321  10.614   3.261   0.230 -0.6285  0.4668  1.4511
  210MOL0     H28322  10.725   3.402   0.053  0.6019 -0.1047  0.9113
  210MOL0     H28323  10.616   3.539   0.107  2.0325  0.0323  0.8125
  210MOL0     H28324  10.508   3.271  -0.017 -5.8480  0.6167 -2.1802
  210MOL0     H28325  10.424   3.393   0.067 -1.2502 -1.3491 -0.5341
  210MOL0     H28326  10.540   3.423  -0.211 -3.6195 -1.8743 -0.3658
  210MOL0     H28327  10.514   3.570  -0.102 -1.0831 -0.0249  0.7072
  210MOL0     H28328  10.349   3.496  -0.277  0.3744 -0.2414  0.2957
  210MOL0     H28329  10.309   3.360  -0.175 -2.8610  1.3113  2.0337
  210MOL0     H28330  11.106   3.141   0.650 -0.6320  0.4735 -1.9437
  210MOL0     H28331  11.331   3.153   0.746 -1.8572 -0.3407  1.5127
  210MOL0     H28332  11.642   3.207   0.865 -0.0863  1.5714  1.7187
  210MOL0     H28333  11.858   3.160   0.981 -0.6118 -1.3680  0.1401
  210MOL0     H28334  10.793   3.003   0.500  0.1158 -0.8461 -0.4745
  210MOL0     H28335  10.615   3.056   0.362  4.8149 -1.0815  1.2158
  210MOL0     H28336  10.362   2.925   0.120 -0.7509 -0.8528 -1.9582
  210MOL0     H28337  10.260   2.938  -0.103  3.6064  0.9343  1.3628
  210MOL0     H28338   9.932   3.208  -0.128 -1.0159 -0.5856 -0.0567
  210MOL0     H28339   9.921   3.045  -0.190 -1.2776  0.6963 -0.4199
  210MOL0     H28340   9.827   3.204  -0.366  1.0702  1.8155 -2.4221
  210MOL0     H28341   9.976   3.126  -0.415  1.1210  2.1667 -0.4850
  210MOL0     H28342   9.966   3.345  -0.475 -0.0312  0.9783  0.2667
  210MOL0     H28343  10.115   3.305  -0.385 -0.2347  1.5426 -2.3309
  210MOL0     H28344   9.864   3.423  -0.268 -0.2719 -2.8139  0.1812
  210MOL0     H28345  10.035   3.414  -0.200  1.1509 -2.1918 -0.4516
  210MOL0     H28346  10.021   3.748  -0.475 -0.5847  0.3715 -0.2942
  210MOL0     H28347  10.091   3.324  -0.014  1.0016  0.5805  1.3483
  210MOL0     H28348  10.098   3.290   0.309  0.4395  2.7395  1.7085
  210MOL0     H28349  10.240   3.392   0.277  0.0196  0.8698 -1.0977
  210MOL0     H28350  10.096   3.414   0.182 -1.0396 -0.0978  0.2616
  211MOL0     O28351   4.099   6.801  10.460  0.3239  0.8409  0.6056
  211MOL0     C28352   4.132   6.914  10.456 -0.0103 -0.5498 -0.3221
  211MOL0     O28353   4.246   6.958  10.400 -0.2746 -0.1192  0.0600
  211MOL0     C28354   4.300   6.898  10.288  0.3740 -0.0725  0.1833
  211MOL0     C28355   4.428   6.929  10.253 -0.6212  0.5635  0.3412
  211MOL0     C28356   4.505   6.864  10.155 -0.2487  1.2016  1.2845
  211MOL0     C28357   4.440   6.771  10.078  0.3867 -0.1494  0.3651
  211MOL0     O28358   4.513   6.709   9.982  0.2545 -0.4513  0.8918
  211MOL0     C28359   4.638   6.758   9.936 -0.3525 -0.5831  0.5687
  211MOL0     C28360   4.668   6.692   9.797  0.3092 -0.2904 -0.4525
  211MOL0     C28361   4.719   6.544   9.815  0.6413  1.1383  0.0789
  211MOL0     C28362   4.598   6.443   9.816 -0.4781 -0.6026  0.1655
  211MOL0     C28363   4.640   6.295   9.816  0.5304 -0.4755 -0.2074
  211MOL0     C28364   4.707   6.254   9.952 -0.2143  0.2417 -0.7651
  211MOL0     C28365   4.786   6.125   9.942  0.3080 -0.0381 -0.3267
  211MOL0     C28366   4.700   5.997   9.943 -0.2635 -1.0294 -1.0003
  211MOL0     N28367   4.785   5.880   9.950 -0.3611 -0.3429  0.1562
  211MOL0     C28368   4.894   5.845   9.871  0.1635 -0.6301 -0.0712
  211MOL0     C28369   4.930   5.728   9.922  0.0452  0.4098  0.3406
  211MOL0     C28370   5.043   5.646   9.880 -0.5563  0.2611  0.0557
  211MOL0     C28371   5.176   5.713   9.886  0.8606  0.1913 -0.0971
  211MOL0     C28372   5.229   5.771   9.761  0.5359  0.7406  0.0038
  211MOL0     C28373   5.374   5.761   9.766  0.5634 -1.0420 -0.2246
  211MOL0     O28374   5.433   5.844   9.874  0.1888  0.3880  0.2741
  211MOL0     C28375   5.568   5.868   9.861  0.9560 -0.4659  0.4935
  211MOL0     C28376   5.628   5.988   9.912 -0.1135  1.1100 -0.1729
  211MOL0     C28377   5.762   6.011   9.917  0.6913 -0.7378 -0.2659
  211MOL0     C28378   5.848   5.912   9.867  0.8176 -0.4439  0.3807
  211MOL0     C28379   5.998   5.934   9.873 -0.2844  0.0069 -0.3221
  211MOL0     O28380   6.054   6.050   9.896  1.2092 -0.2294 -0.5196
  211MOL0     C28381   6.183   6.059   9.934  0.7382  0.5770 -0.9589
  211MOL0     C28382   6.221   6.038  10.068 -0.0104 -0.2853 -0.1144
  211MOL0     C28383   6.360   6.060  10.098 -0.8936 -0.0077  0.2223
  211MOL0     C28384   6.452   6.094  10.005 -0.3553 -0.0193 -0.1804
  211MOL0     O28385   6.581   6.100  10.054  0.2632 -0.9847 -0.3508
  211MOL0     C28386   6.704   6.070   9.978  0.5220  0.7615 -0.1184
  211MOL0     C28387   6.806   6.188   9.977  0.0016 -0.2875  0.1759
  211MOL0     C28388   6.925   6.138   9.904  0.6974  0.8174 -0.3096
  211MOL0     C28389   7.041   6.233   9.885 -0.2207 -0.5863 -0.4718
  211MOL0     C28390   7.139   6.201   9.774 -0.9332 -0.2563 -0.9970
  211MOL0     C28391   7.199   6.322   9.719  0.9811 -1.1083  0.3565
  211MOL0     C28392   7.292   6.287   9.600  0.1148  0.1610  0.3491
  211MOL0     C28393   7.349   6.409   9.530 -0.9555 -0.7669  0.4513
  211MOL0    Cl28394   7.528   6.376   9.498 -0.0624  0.0843  0.0759
  211MOL0     C28395   6.409   6.124   9.872 -0.3005 -0.0911 -0.0812
  211MOL0     C28396   6.274   6.114   9.848  0.3743 -0.2159  0.7409
  211MOL0     O28397   6.058   5.830   9.868  0.2441 -0.2290 -0.4033
  211MOL0     C28398   5.793   5.798   9.815 -0.5584  0.5514  0.2404
  211MOL0     C28399   5.656   5.775   9.810  0.8460  0.0992 -0.2742
  211MOL0     N28400   4.852   5.682  10.023  0.7956 -0.2355  0.3042
  211MOL0     N28401   4.765   5.782  10.049  0.0098 -0.4959 -0.1619
  211MOL0     C28402   4.314   6.729  10.109 -0.1005 -0.1526  0.4381
  211MOL0     C28403   4.237   6.801  10.213  0.9085 -0.5173  1.0036
  211MOL0     C28404   4.046   7.031  10.501 -0.2654 -0.6009  0.1073
  211MOL0     C28405   4.113   7.160  10.524 -0.4816 -0.4692 -0.7400
  211MOL0     C28406   4.034   7.258  10.578 -0.3764  0.3877 -0.2032
  211MOL0     C28407   3.899   7.245  10.611  1.3497  1.2054  0.2510
  211MOL0     O28408   3.828   7.349  10.668 -0.3979 -0.5710  0.0659
  211MOL0     C28409   3.906   7.473  10.680  0.3228 -0.2160  0.3558
  211MOL0     C28410   3.814   7.581  10.737 -0.1376 -0.2017  0.3959
  211MOL0     C28411   3.862   7.722  10.713 -0.1296 -0.5667 -0.1029
  211MOL0     C28412   3.797   7.831  10.799 -0.9126 -0.1478  0.0261
  211MOL0     C28413   3.841   7.814  10.939 -0.2962  0.2574  0.5173
  211MOL0     C28414   3.863   7.786  11.055  0.3404 -0.3283  0.4771
  211MOL0     C28415   3.835   7.127  10.579 -0.3058  0.1867 -0.2216
  211MOL0     C28416   3.910   7.014  10.534 -0.1590 -0.7432 -0.0557
  211MOL0     C28417   3.838   6.883  10.532  0.7696 -0.9085 -0.7037
  211MOL0     H28418   4.470   7.010  10.313 -1.7384  0.2705  1.5628
  211MOL0     H28419   4.608   6.896  10.137  0.1479 -0.3316  0.6317
  211MOL0     H28420   4.643   6.866   9.921  4.3590 -0.9013 -2.2495
  211MOL0     H28421   4.721   6.735  10.003  0.7922  2.7250  0.4630
  211MOL0     H28422   4.740   6.763   9.756 -0.6704 -0.0031 -1.7193
  211MOL0     H28423   4.588   6.703   9.723  0.7086  0.6884 -0.7449
  211MOL0     H28424   4.767   6.527   9.912  2.1548  1.2881 -0.6154
  211MOL0     H28425   4.789   6.517   9.736  0.5073  0.9686  0.0170
  211MOL0     H28426   4.547   6.446   9.913 -0.2757  4.3733  0.3467
  211MOL0     H28427   4.526   6.472   9.739  0.2041 -0.0845 -0.2773
  211MOL0     H28428   4.549   6.235   9.806  0.5921 -0.2693 -2.9716
  211MOL0     H28429   4.705   6.285   9.728  0.7831  0.4308 -0.1304
  211MOL0     H28430   4.790   6.322   9.975 -0.6999  0.5403  0.1633
  211MOL0     H28431   4.638   6.240  10.035 -1.1147  1.0128 -1.3660
  211MOL0     H28432   4.861   6.129  10.022  2.7561  0.2216 -2.4735
  211MOL0     H28433   4.851   6.123   9.853  0.0503  0.9764 -0.5497
  211MOL0     H28434   4.634   5.997  10.030  0.2723  1.8514 -0.4978
  211MOL0     H28435   4.643   6.005   9.850  0.3514 -0.2839 -1.3207
  211MOL0     H28436   4.936   5.906   9.793 -0.5060  1.8293  1.3822
  211MOL0     H28437   5.045   5.558   9.945 -2.8525 -0.4635 -0.7453
  211MOL0     H28438   5.019   5.617   9.777  2.5693  0.5488 -0.8567
  211MOL0     H28439   5.160   5.784   9.968 -0.4768 -0.9866  0.7084
  211MOL0     H28440   5.252   5.640   9.915 -1.3807 -3.1625 -1.9913
  211MOL0     H28441   5.204   5.877   9.750  0.2208  0.5233 -1.7302
  211MOL0     H28442   5.197   5.726   9.667 -0.3478  0.2942  0.5022
  211MOL0     H28443   5.415   5.791   9.669  0.4540  3.9967  0.9699
  211MOL0     H28444   5.412   5.659   9.774  4.8455  0.2764 -0.9526
  211MOL0     H28445   5.558   6.064   9.944  0.1898  1.1143  0.5099
  211MOL0     H28446   5.802   6.107   9.949 -0.4136  0.3106 -1.8738
  211MOL0     H28447   6.144   6.010  10.140  0.6256  0.9232  1.0903
  211MOL0     H28448   6.390   6.033  10.198 -4.4281  0.3918  1.5460
  211MOL0     H28449   6.759   5.991  10.030 -1.7764 -1.0506 -0.2539
  211MOL0     H28450   6.681   6.036   9.876 -0.5622  0.4703  0.2013
  211MOL0     H28451   6.754   6.269   9.924 -1.2338 -0.8843  0.4341
  211MOL0     H28452   6.838   6.228  10.073 -0.5554  3.0090 -0.8802
  211MOL0     H28453   6.955   6.045   9.952 -0.6705  0.0758 -0.8225
  211MOL0     H28454   6.889   6.112   9.803 -0.8637  2.6237 -0.2877
  211MOL0     H28455   7.097   6.222   9.979  1.8737 -2.2745 -1.8414
  211MOL0     H28456   7.000   6.334   9.875 -2.0857 -1.0388  1.7474
  211MOL0     H28457   7.077   6.146   9.702 -0.8137 -2.7737  0.7257
  211MOL0     H28458   7.219   6.137   9.811 -1.5910 -0.8438 -0.5660
  211MOL0     H28459   7.120   6.390   9.685 -0.3427 -3.1600 -0.9261
  211MOL0     H28460   7.252   6.374   9.799  0.6531  0.1092 -0.1962
  211MOL0     H28461   7.248   6.210   9.537  2.1183 -0.3611 -0.4968
  211MOL0     H28462   7.379   6.237   9.645  0.2928  2.4297  2.8295
  211MOL0     H28463   7.295   6.439   9.440 -0.0832  1.5153  0.6234
  211MOL0     H28464   7.341   6.499   9.592 -0.6197 -0.7237  0.4343
  211MOL0     H28465   6.484   6.137   9.795  0.8225  0.4915  1.0655
  211MOL0     H28466   6.237   6.141   9.749  1.0199  1.4157  0.9256
  211MOL0     H28467   5.858   5.722   9.772 -1.6396 -1.1689  1.4722
  211MOL0     H28468   5.629   5.684   9.759  2.9315 -0.6979 -0.0562
  211MOL0     H28469   4.266   6.669  10.033  0.1668 -1.2156  1.0942
  211MOL0     H28470   4.134   6.769  10.216  0.3531  0.8902 -0.9317
  211MOL0     H28471   4.218   7.178  10.503 -0.7707  0.3859 -1.5460
  211MOL0     H28472   4.089   7.351  10.588  0.9994  0.0318 -3.3087
  211MOL0     H28473   3.935   7.496  10.577 -0.4474 -1.6918 -0.2157
  211MOL0     H28474   3.994   7.458  10.744 -1.8224 -0.8865  3.3182
  211MOL0     H28475   3.812   7.566  10.845  0.4223 -0.1096  0.4237
  211MOL0     H28476   3.714   7.584  10.692 -0.0430  0.4211  0.2227
  211MOL0     H28477   3.847   7.752  10.608 -0.2562 -1.5884 -0.3840
  211MOL0     H28478   3.971   7.719  10.716  0.2016  3.9414 -0.4385
  211MOL0     H28479   3.827   7.929  10.760  0.7058 -0.7186 -0.2679
  211MOL0     H28480   3.688   7.834  10.790 -0.9120  1.3099  0.2751
  211MOL0     H28481   3.898   7.764  11.154  2.3996 -2.8510 -0.6917
  211MOL0     H28482   3.731   7.115  10.606 -0.9198  3.3000 -0.8649
  211MOL0     H28483   3.866   6.839  10.628 -0.1706  1.9885  1.0353
  211MOL0     H28484   3.734   6.916  10.535  1.1791  0.5649  2.9974
  211MOL0     H28485   3.860   6.820  10.445  1.6902 -2.3436  0.5081
  212MOL0     O28486   4.439   2.924   6.162 -0.1182  0.1649 -0.7216
  212MOL0     C28487   4.427   2.821   6.107 -0.8498  0.0232 -0.3562
  212MOL0     O28488   4.320   2.781   6.045 -0.5011  0.2878 -0.5035
  212MOL0     C28489   4.194   2.809   6.094  0.0846 -0.1074 -0.0232
  212MOL0     C28490   4.142   2.922   6.143 -0.8962 -0.5039 -0.1993
  212MOL0     C28491   4.016   2.944   6.200 -0.2907  0.4929  1.1483
  212MOL0     C28492   3.921   2.843   6.193 -0.2312  0.4282 -0.2117
  212MOL0     O28493   3.796   2.851   6.259 -0.4269 -0.4373 -0.1363
  212MOL0     C28494   3.714   2.972   6.247 -0.0912 -1.1364 -0.5438
  212MOL0     C28495   3.589   2.943   6.325 -0.1811 -0.7448 -0.1551
  212MOL0     C28496   3.475   3.047   6.336 -0.1699  0.7057 -0.1695
  212MOL0     C28497   3.418   3.060   6.193  0.5663  0.7557 -1.2292
  212MOL0     C28498   3.298   3.148   6.176  0.3239  0.6033  0.3095
  212MOL0     C28499   3.234   3.153   6.030 -0.6712  0.0551  0.1409
  212MOL0     C28500   3.135   3.276   6.008 -0.4972  0.4110  0.2157
  212MOL0     C28501   3.051   3.255   5.885  0.1705  0.0803  0.0501
  212MOL0     N28502   2.967   3.371   5.853  0.2364  0.3855 -0.2100
  212MOL0     C28503   2.829   3.378   5.833 -0.5996  0.2039  0.0354
  212MOL0     C28504   2.800   3.496   5.772 -0.0847  0.8368  0.1217
  212MOL0     C28505   2.661   3.531   5.731 -0.1864 -0.0418  0.3716
  212MOL0     C28506   2.645   3.580   5.586 -0.5294 -0.2447 -0.1147
  212MOL0     C28507   2.494   3.611   5.551 -0.3169  0.0424  0.1823
  212MOL0     C28508   2.432   3.686   5.659  0.3418  0.6880 -0.5492
  212MOL0     O28509   2.483   3.821   5.674  0.1714  0.1352 -0.0768
  212MOL0     C28510   2.407   3.916   5.733 -0.1927 -0.5339 -0.8772
  212MOL0     C28511   2.311   3.889   5.829 -0.3966 -0.3750  0.1125
  212MOL0     C28512   2.243   3.991   5.893 -0.4263 -0.6037 -0.7492
  212MOL0     C28513   2.271   4.127   5.862 -0.4404  0.5685  0.1058
  212MOL0     C28514   2.212   4.233   5.937 -0.1163 -1.1030 -0.4122
  212MOL0     O28515   2.237   4.362   5.885 -0.1307  0.3110  0.1963
  212MOL0     C28516   2.168   4.461   5.951  0.0106 -0.6984 -0.2604
  212MOL0     C28517   2.209   4.501   6.073 -0.0246 -0.4278 -0.1345
  212MOL0     C28518   2.137   4.595   6.143 -0.2632 -0.7157 -0.6123
  212MOL0     C28519   2.026   4.663   6.091  0.3040  0.4243 -0.4081
  212MOL0     O28520   1.942   4.742   6.165 -0.0764 -0.6926 -0.2304
  212MOL0     C28521   1.896   4.684   6.292 -0.0926  0.0449  0.1427
  212MOL0     C28522   1.769   4.771   6.325  0.0171  1.5180 -1.1065
  212MOL0     C28523   1.690   4.712   6.444 -0.4285 -0.0098 -0.7344
  212MOL0     C28524   1.617   4.573   6.412  0.1717 -0.3616 -0.5894
  212MOL0     C28525   1.523   4.539   6.524  0.6611 -0.4532  0.2184
  212MOL0     C28526   1.421   4.435   6.479  0.4177 -0.8454  0.2700
  212MOL0     C28527   1.312   4.405   6.586  0.7470  0.7762  0.0124
  212MOL0     C28528   1.240   4.269   6.550  0.8511 -0.2944 -0.5028
  212MOL0    Cl28529   1.145   4.268   6.393  0.0780  0.1301  0.3782
  212MOL0     C28530   1.986   4.628   5.960  0.2864  0.6877  0.7042
  212MOL0     C28531   2.057   4.528   5.888 -0.3003  0.6471 -0.5218
  212MOL0     O28532   2.141   4.210   6.031  0.1624  0.1684 -0.6056
  212MOL0     C28533   2.367   4.152   5.758 -0.8028  0.5271 -0.5910
  212MOL0     C28534   2.435   4.054   5.698 -0.9749  1.5936 -0.4978
  212MOL0     N28535   2.924   3.569   5.769  0.7171  0.6357  0.2026
  212MOL0     N28536   3.013   3.493   5.811  0.1827 -0.1593 -0.2226
  212MOL0     C28537   3.956   2.725   6.134  0.3989  1.3160 -1.2264
  212MOL0     C28538   4.092   2.707   6.096 -1.0199  0.4090 -0.2856
  212MOL0     C28539   4.548   2.728   6.086 -0.1636 -0.0176  0.8124
  212MOL0     C28540   4.668   2.776   6.139 -0.6074  0.3620 -0.7639
  212MOL0     C28541   4.783   2.710   6.112  0.3552 -0.0456  0.8544
  212MOL0     C28542   4.786   2.580   6.051 -0.7371 -0.5201 -0.1932
  212MOL0     O28543   4.894   2.502   6.034 -1.0385 -0.0609  0.0758
  212MOL0     C28544   5.021   2.545   6.085  0.0947 -0.4418 -0.3280
  212MOL0     C28545   5.138   2.452   6.054 -0.0772 -0.3643  0.1756
  212MOL0     C28546   5.184   2.475   5.908  0.1093 -0.2129  0.1871
  212MOL0     C28547   5.290   2.386   5.856  0.2769  0.0875 -0.3595
  212MOL0     C28548   5.407   2.383   5.942 -0.3879  0.5217  1.4004
  212MOL0     C28549   5.510   2.375   6.004 -0.7265  0.6318 -0.9549
  212MOL0     C28550   4.666   2.530   6.006  0.9688 -0.4162 -0.8335
  212MOL0     C28551   4.548   2.597   6.028  0.2860 -0.3130 -0.2882
  212MOL0     C28552   4.419   2.530   5.974 -0.0544 -0.8320  0.2420
  212MOL0     H28553   4.223   2.994   6.154  2.3761 -4.1048  1.6635
  212MOL0     H28554   3.975   3.034   6.244  1.5986  2.2855 -0.5580
  212MOL0     H28555   3.774   3.058   6.279  1.7659 -1.7874 -2.0527
  212MOL0     H28556   3.682   2.985   6.143 -1.3911 -2.5524 -0.3468
  212MOL0     H28557   3.626   2.915   6.424  2.0278  0.9067 -0.4338
  212MOL0     H28558   3.553   2.847   6.287 -1.7172  0.0270 -0.7213
  212MOL0     H28559   3.524   3.139   6.369 -1.9293  0.7018  2.8780
  212MOL0     H28560   3.391   3.023   6.401 -1.7577  0.3908 -2.2449
  212MOL0     H28561   3.499   3.099   6.131  1.8962  1.9375  1.0803
  212MOL0     H28562   3.382   2.959   6.173  0.2271 -0.1206  2.8556
  212MOL0     H28563   3.224   3.121   6.252  0.0698  1.1390  0.2545
  212MOL0     H28564   3.331   3.250   6.199 -1.8237  1.4478 -0.1232
  212MOL0     H28565   3.318   3.174   5.964  0.3354  3.1102  2.1619
  212MOL0     H28566   3.203   3.050   6.014 -0.5747  0.2622 -1.5810
  212MOL0     H28567   3.191   3.368   5.993 -0.3345 -0.1797 -4.1889
  212MOL0     H28568   3.071   3.287   6.096  0.2071  2.9877  0.4636
  212MOL0     H28569   3.113   3.228   5.800  0.0175 -1.1721  0.3148
  212MOL0     H28570   2.981   3.171   5.897  0.1022 -0.5530 -3.6628
  212MOL0     H28571   2.764   3.293   5.847 -0.3898 -0.2188 -1.3566
  212MOL0     H28572   2.606   3.437   5.740  0.3791 -0.5892 -1.4903
  212MOL0     H28573   2.628   3.601   5.809 -1.3520  0.5963 -0.6643
  212MOL0     H28574   2.710   3.667   5.587  1.8036 -1.8942  1.2351
  212MOL0     H28575   2.683   3.506   5.515 -1.9171 -1.3723  0.2614
  212MOL0     H28576   2.441   3.517   5.538  1.1197 -0.7948  0.2066
  212MOL0     H28577   2.494   3.654   5.450  2.3358  1.0368  0.5198
  212MOL0     H28578   2.424   3.629   5.752 -1.1426  0.6295 -0.6768
  212MOL0     H28579   2.328   3.685   5.625  0.9184 -1.9195 -2.5918
  212MOL0     H28580   2.298   3.786   5.860  1.3096 -0.1374  1.7893
  212MOL0     H28581   2.172   3.973   5.974 -1.3285  1.8520 -0.8936
  212MOL0     H28582   2.296   4.458   6.123  0.8656  1.3083 -0.1156
  212MOL0     H28583   2.174   4.617   6.243  4.2372 -1.4624 -1.8681
  212MOL0     H28584   1.864   4.581   6.272  0.5135 -0.0931 -0.1534
  212MOL0     H28585   1.984   4.697   6.356 -1.0580 -0.3581  1.6041
  212MOL0     H28586   1.802   4.869   6.360  0.7463  0.2491  2.1553
  212MOL0     H28587   1.709   4.776   6.233 -0.4951  0.4808 -0.8500
  212MOL0     H28588   1.756   4.706   6.531 -0.4906  2.8134 -0.3988
  212MOL0     H28589   1.612   4.787   6.465 -2.1512 -1.5549 -1.3474
  212MOL0     H28590   1.691   4.494   6.398  2.8096  0.7889  4.4616
  212MOL0     H28591   1.556   4.595   6.324 -0.7390 -0.3363  0.0364
  212MOL0     H28592   1.473   4.630   6.560  0.3406 -0.5581  0.0449
  212MOL0     H28593   1.583   4.500   6.606  1.5889  0.1005 -0.1839
  212MOL0     H28594   1.364   4.470   6.393 -1.1717  1.2451  2.0602
  212MOL0     H28595   1.473   4.343   6.448  0.5732  0.2271 -3.1154
  212MOL0     H28596   1.238   4.484   6.601  2.4206  3.5172 -4.1310
  212MOL0     H28597   1.353   4.383   6.685  1.0920  0.2244 -0.2470
  212MOL0     H28598   1.314   4.189   6.559  0.7575 -0.2367  0.9447
  212MOL0     H28599   1.176   4.254   6.637  0.3279  1.5604 -0.5149
  212MOL0     H28600   1.903   4.669   5.903  1.0341  1.6588  0.2865
  212MOL0     H28601   2.018   4.491   5.793  1.0077 -2.0229 -0.1207
  212MOL0     H28602   2.395   4.255   5.739  1.8091  0.3490  1.6940
  212MOL0     H28603   2.527   4.077   5.645 -0.5004 -2.0104 -1.4563
  212MOL0     H28604   3.883   2.645   6.134  2.4916 -0.7884 -3.7739
  212MOL0     H28605   4.119   2.604   6.077 -2.8555 -1.2613  4.5004
  212MOL0     H28606   4.670   2.873   6.188  4.2114  0.6185 -0.9797
  212MOL0     H28607   4.876   2.758   6.141  0.7621  1.2576 -2.3146
  212MOL0     H28608   5.030   2.546   6.194 -0.9219  2.5013 -0.2000
  212MOL0     H28609   5.052   2.641   6.045 -0.4806  0.4040  1.1707
  212MOL0     H28610   5.108   2.347   6.063  0.3204 -0.4848  0.1021
  212MOL0     H28611   5.220   2.483   6.119  1.3778 -0.3235 -1.6135
  212MOL0     H28612   5.214   2.580   5.898  0.8338 -0.6524 -3.7788
  212MOL0     H28613   5.096   2.454   5.846  1.4466  0.0612 -1.9136
  212MOL0     H28614   5.251   2.284   5.846  1.1210 -0.1557 -1.4024
  212MOL0     H28615   5.320   2.414   5.754 -1.2162 -0.7103 -1.0569
  212MOL0     H28616   5.601   2.370   6.060 -0.6312  2.9032 -0.8156
  212MOL0     H28617   4.651   2.432   5.961 -3.0888  1.0371 -3.1504
  212MOL0     H28618   4.370   2.586   5.894  2.0709 -1.9885 -1.9984
  212MOL0     H28619   4.436   2.431   5.932 -1.8542 -1.2081  0.3501
  212MOL0     H28620   4.347   2.529   6.056 -2.8882 -3.5205 -2.0333
  213MOL0     O28621   3.162   4.393   4.703  0.2514 -0.1697  0.8021
  213MOL0     C28622   3.182   4.301   4.617 -0.1652 -0.4085 -0.5666
  213MOL0     O28623   3.300   4.269   4.547 -0.4561 -0.9867  0.1718
  213MOL0     C28624   3.404   4.365   4.545  0.6258  0.0337  0.2140
  213MOL0     C28625   3.398   4.507   4.521 -0.3964  0.7407  0.2491
  213MOL0     C28626   3.518   4.586   4.533  0.5588  0.5396 -0.1080
  213MOL0     C28627   3.644   4.534   4.585 -0.3624 -0.9264  0.7049
  213MOL0     O28628   3.758   4.600   4.610 -0.0971  0.0755  0.3744
  213MOL0     C28629   3.791   4.718   4.543 -0.5869  0.2857  0.5721
  213MOL0     C28630   3.927   4.751   4.601 -0.3286 -0.5544 -0.1184
  213MOL0     C28631   3.983   4.885   4.551 -0.9234 -0.1003  0.0121
  213MOL0     C28632   4.123   4.905   4.616 -0.2275 -0.0864  0.3740
  213MOL0     C28633   4.195   5.016   4.549  0.0289  0.0887 -0.1359
  213MOL0     C28634   4.140   5.143   4.610 -0.4076  0.6287 -0.0781
  213MOL0     C28635   4.213   5.258   4.537 -0.3292  0.3248 -0.1311
  213MOL0     C28636   4.208   5.392   4.618 -0.0468  0.0287 -0.4099
  213MOL0     N28637   4.332   5.435   4.692  0.3637 -0.0888 -0.4301
  213MOL0     C28638   4.393   5.397   4.808 -0.8827 -0.1318 -0.9882
  213MOL0     C28639   4.514   5.457   4.804 -0.3056 -0.3638 -0.2251
  213MOL0     C28640   4.631   5.423   4.894  0.0969  0.3690 -0.3922
  213MOL0     C28641   4.636   5.264   4.919 -0.3101 -0.2803 -0.3217
  213MOL0     C28642   4.755   5.212   5.010 -0.5547  0.3453  0.5034
  213MOL0     C28643   4.746   5.262   5.153  1.0682  0.2502  0.1493
  213MOL0     O28644   4.813   5.188   5.256  0.7262 -0.0504 -0.2931
  213MOL0     C28645   4.945   5.164   5.238 -0.6198  0.6929  0.4262
  213MOL0     C28646   5.038   5.236   5.151  0.1636  0.9821  0.1790
  213MOL0     C28647   5.165   5.186   5.132 -0.5628 -0.5980  0.3440
  213MOL0     C28648   5.215   5.072   5.203 -0.9072  0.4968  0.4194
  213MOL0     C28649   5.346   5.020   5.172 -0.1011 -0.4363 -0.0739
  213MOL0     O28650   5.392   4.915   5.237  0.2186 -0.5978 -0.2250
  213MOL0     C28651   5.505   4.849   5.210  0.3464  0.1215  1.1454
  213MOL0     C28652   5.575   4.832   5.086  0.1132 -0.2915  0.1309
  213MOL0     C28653   5.698   4.781   5.065  0.1565  0.4254 -0.7133
  213MOL0     C28654   5.767   4.741   5.181 -0.0771 -0.1840 -0.9499
  213MOL0     O28655   5.901   4.720   5.155 -0.1853 -0.0748 -0.1935
  213MOL0     C28656   5.959   4.617   5.240  0.6187 -0.0542 -0.0700
  213MOL0     C28657   6.075   4.543   5.171  0.6304 -0.0644 -0.4325
  213MOL0     C28658   6.098   4.417   5.250  0.2391  0.0434 -0.0685
  213MOL0     C28659   6.225   4.347   5.184  0.1465  0.3009 -0.6149
  213MOL0     C28660   6.372   4.395   5.217  0.6461  0.3897 -0.5454
  213MOL0     C28661   6.400   4.412   5.367  0.6323  0.2578 -0.1739
  213MOL0     C28662   6.549   4.414   5.397  0.0868 -0.1989  0.0671
  213MOL0     C28663   6.588   4.462   5.538  0.4654 -0.8308  0.4997
  213MOL0    Cl28664   6.755   4.518   5.537  0.1038 -0.5444  0.6670
  213MOL0     C28665   5.711   4.746   5.307  1.0788 -0.4816 -0.4523
  213MOL0     C28666   5.573   4.795   5.321  0.5285 -0.1340 -0.4172
  213MOL0     O28667   5.396   5.073   5.071 -0.3839  0.1432  0.0546
  213MOL0     C28668   5.131   5.004   5.287  0.1528  0.2637  0.0043
  213MOL0     C28669   5.006   5.060   5.314  0.1261  0.3575 -0.0103
  213MOL0     N28670   4.522   5.536   4.682  0.6029 -0.1585 -0.3451
  213MOL0     N28671   4.407   5.523   4.630  0.2549  0.4048  0.8878
  213MOL0     C28672   3.641   4.395   4.615  0.3916 -0.3162 -0.6638
  213MOL0     C28673   3.520   4.323   4.590  0.3434 -0.3038 -0.5382
  213MOL0     C28674   3.067   4.219   4.566 -0.0105 -0.7269 -0.5024
  213MOL0     C28675   3.072   4.171   4.432  0.1080 -0.3255 -0.9092
  213MOL0     C28676   2.960   4.107   4.379 -0.3880  0.1694 -0.1418
  213MOL0     C28677   2.843   4.083   4.456 -0.3441 -0.1028  0.4496
  213MOL0     O28678   2.727   4.033   4.403 -0.2202  0.7262 -0.3058
  213MOL0     C28679   2.595   4.089   4.425 -0.2933  0.3291 -0.1096
  213MOL0     C28680   2.535   4.099   4.287  0.1199  0.2733 -0.1034
  213MOL0     C28681   2.425   3.997   4.268  0.2811  0.7402  0.2948
  213MOL0     C28682   2.348   4.022   4.132  0.0735 -0.6429 -0.7365
  213MOL0     C28683   2.232   3.937   4.111 -0.6775 -0.0080  2.0192
  213MOL0     C28684   2.158   3.842   4.095  1.6971 -0.9440 -0.2012
  213MOL0     C28685   2.857   4.114   4.590 -0.8473 -0.7624  0.5547
  213MOL0     C28686   2.972   4.161   4.651 -0.5731 -0.1468 -0.3034
  213MOL0     C28687   2.960   4.173   4.807  0.1399  0.4873 -0.3483
  213MOL0     H28688   3.312   4.565   4.487  0.6935  0.1326 -4.1357
  213MOL0     H28689   3.526   4.691   4.507 -0.9515  0.9579  0.9449
  213MOL0     H28690   3.795   4.707   4.434 -1.2602 -1.0197  0.6545
  213MOL0     H28691   3.720   4.797   4.569 -1.9922 -1.1978  1.4122
  213MOL0     H28692   3.997   4.670   4.578  0.5110 -0.3938  1.6934
  213MOL0     H28693   3.909   4.762   4.709 -3.2415  0.8797 -0.6431
  213MOL0     H28694   3.912   4.959   4.589 -0.9906  0.0732 -0.4456
  213MOL0     H28695   3.978   4.880   4.442  3.5719 -0.9141 -0.3401
  213MOL0     H28696   4.117   4.906   4.725 -3.0657 -2.0635  0.3527
  213MOL0     H28697   4.176   4.810   4.602  0.7702  0.4116  0.6785
  213MOL0     H28698   4.300   5.003   4.575 -0.3838 -1.2081  0.9418
  213MOL0     H28699   4.179   5.015   4.440  1.8987 -0.9419 -0.4347
  213MOL0     H28700   4.033   5.155   4.588 -0.6593  0.3974  0.9743
  213MOL0     H28701   4.160   5.142   4.717  0.8269  0.3464 -0.2975
  213MOL0     H28702   4.167   5.262   4.437 -1.2141  0.8526  0.2811
  213MOL0     H28703   4.320   5.243   4.524 -0.0882 -0.7436  2.4681
  213MOL0     H28704   4.167   5.475   4.561  1.3077  1.1961  0.2682
  213MOL0     H28705   4.133   5.385   4.698  1.2720 -3.4073  0.7203
  213MOL0     H28706   4.348   5.350   4.896 -2.1264  1.5502 -0.6781
  213MOL0     H28707   4.717   5.466   4.842 -0.1000  0.7687 -0.3965
  213MOL0     H28708   4.617   5.482   4.986 -1.5926  2.4299 -1.8697
  213MOL0     H28709   4.540   5.230   4.960  0.0569 -1.5764 -0.4858
  213MOL0     H28710   4.650   5.215   4.822 -2.4965 -0.0311 -0.8147
  213MOL0     H28711   4.844   5.253   4.961 -0.6215  0.2725  0.3187
  213MOL0     H28712   4.756   5.103   5.005  1.2206  0.3140  0.9966
  213MOL0     H28713   4.640   5.267   5.182  1.5794  1.1627  2.0451
  213MOL0     H28714   4.766   5.369   5.148 -2.3126  0.9320 -3.6374
  213MOL0     H28715   5.005   5.322   5.095 -1.7281 -2.0219 -3.8614
  213MOL0     H28716   5.223   5.249   5.067 -0.8692  1.5730  2.0622
  213MOL0     H28717   5.521   4.844   4.993 -0.0126  0.4493  0.2947
  213MOL0     H28718   5.741   4.772   4.965 -0.4199  0.2107 -0.9440
  213MOL0     H28719   5.978   4.657   5.340  0.2853 -1.2648  0.4982
  213MOL0     H28720   5.884   4.542   5.267 -0.5436  0.5403 -1.5066
  213MOL0     H28721   6.040   4.516   5.071 -1.9253 -0.4840  0.4880
  213MOL0     H28722   6.165   4.604   5.170 -0.5824  1.7879  0.0989
  213MOL0     H28723   6.123   4.448   5.352 -0.5824 -0.1723  0.2035
  213MOL0     H28724   6.009   4.354   5.259 -1.9831  3.1123  1.5147
  213MOL0     H28725   6.218   4.340   5.075  3.1251 -0.9012 -0.8182
  213MOL0     H28726   6.226   4.243   5.216  1.4692 -0.0570 -1.7319
  213MOL0     H28727   6.402   4.481   5.156 -0.8162 -1.3011 -3.8778
  213MOL0     H28728   6.444   4.320   5.185 -1.9717 -2.0691 -1.0651
  213MOL0     H28729   6.350   4.506   5.392 -0.7332 -0.1400 -1.2599
  213MOL0     H28730   6.359   4.332   5.430 -1.5971  3.3049  2.6031
  213MOL0     H28731   6.588   4.491   5.329 -0.5681  1.1419  1.1683
  213MOL0     H28732   6.591   4.316   5.371 -0.3982 -0.5144  0.4513
  213MOL0     H28733   6.523   4.546   5.567 -1.3089 -1.2213 -2.0659
  213MOL0     H28734   6.573   4.382   5.611  1.9701 -1.4972  0.1143
  213MOL0     H28735   5.758   4.722   5.402  0.0361  2.2147  0.8159
  213MOL0     H28736   5.518   4.812   5.413 -0.5309  0.0537 -1.0722
  213MOL0     H28737   5.159   4.910   5.333  1.4331  0.6858  0.1020
  213MOL0     H28738   4.934   5.020   5.384 -0.2200 -0.0378 -0.5767
  213MOL0     H28739   3.730   4.344   4.650 -0.0148 -1.8937 -1.8481
  213MOL0     H28740   3.520   4.216   4.606  0.3973  0.1422  3.2542
  213MOL0     H28741   3.146   4.199   4.357  0.3925  1.2850 -0.0902
  213MOL0     H28742   2.963   4.057   4.283 -0.9425 -3.1845  1.4554
  213MOL0     H28743   2.593   4.190   4.466  0.2506  0.3519 -0.1388
  213MOL0     H28744   2.539   4.027   4.496  2.8173 -0.1143  2.1443
  213MOL0     H28745   2.607   4.091   4.205  0.3797  4.8565 -0.5782
  213MOL0     H28746   2.504   4.204   4.277  0.4766  0.2908 -1.0865
  213MOL0     H28747   2.348   4.016   4.343 -0.8476 -0.8875 -0.3932
  213MOL0     H28748   2.443   3.890   4.284 -0.8026  0.5947  0.6248
  213MOL0     H28749   2.313   4.125   4.123  2.2159  0.0207 -2.6003
  213MOL0     H28750   2.410   4.018   4.042 -1.5319 -2.3501 -1.8122
  213MOL0     H28751   2.094   3.757   4.080 -1.1563  0.4780  2.6614
  213MOL0     H28752   2.770   4.080   4.645 -2.6341  2.2087 -0.2004
  213MOL0     H28753   2.857   4.149   4.836  0.7093 -1.5706  0.1304
  213MOL0     H28754   3.031   4.103   4.852 -1.2819 -1.4486 -0.9324
  213MOL0     H28755   2.981   4.273   4.845 -2.4083  0.9991 -0.0800
  214MOL0     O28756   2.428  11.120   1.413  0.3110 -0.4748 -0.4615
  214MOL0     C28757   2.465  11.232   1.407 -0.2288  0.2650  0.4343
  214MOL0     O28758   2.442  11.317   1.299 -0.1023 -0.6565 -0.0490
  214MOL0     C28759   2.356  11.286   1.196  0.0126 -0.1663 -0.2949
  214MOL0     C28760   2.408  11.312   1.071  0.2566  0.4491  0.4020
  214MOL0     C28761   2.321  11.295   0.955 -0.7491  0.0427 -1.1819
  214MOL0     C28762   2.191  11.249   0.964  1.0500  0.9256  0.3051
  214MOL0     O28763   2.114  11.221   0.847  0.4825 -0.9606  0.3689
  214MOL0     C28764   2.033  11.098   0.848 -0.7048 -0.7731  0.0496
  214MOL0     C28765   1.879  11.150   0.874 -1.1283  0.3505  0.5345
  214MOL0     C28766   1.794  11.033   0.937 -0.0128 -0.4066 -0.2461
  214MOL0     C28767   1.697  10.963   0.843 -0.1728 -0.0443  0.7765
  214MOL0     C28768   1.575  11.051   0.816  0.6168 -0.7949  0.3415
  214MOL0     C28769   1.471  10.987   0.731 -0.6566 -0.3296  0.1526
  214MOL0     C28770   1.344  11.058   0.749  1.0366  0.2969  0.3909
  214MOL0     C28771   1.231  11.002   0.648 -0.6938  0.7075 -0.2141
  214MOL0     N28772   1.126  11.096   0.620 -0.2553  0.1500 -0.5230
  214MOL0     C28773   1.151  11.222   0.573  0.9874 -0.1206  0.7278
  214MOL0     C28774   1.028  11.277   0.546 -0.4464  0.0390  0.4711
  214MOL0     C28775   1.017  11.410   0.471  0.1839  0.5350 -0.6968
  214MOL0     C28776   1.079  11.532   0.552  0.4499  0.0213  0.0001
  214MOL0     C28777   1.049  11.544   0.698  0.5967 -0.0804 -0.7205
  214MOL0     C28778   1.113  11.436   0.807  0.4594 -0.4795  0.5123
  214MOL0     O28779   1.248  11.432   0.769 -0.8747 -0.9729 -0.5294
  214MOL0     C28780   1.334  11.394   0.869 -0.8230 -0.5919  0.1537
  214MOL0     C28781   1.301  11.343   0.993  1.0687  0.4335 -0.6169
  214MOL0     C28782   1.402  11.320   1.097 -0.7856  0.4228  0.0895
  214MOL0     C28783   1.541  11.338   1.059  0.7064 -0.1095  0.4390
  214MOL0     C28784   1.642  11.318   1.160  0.7209 -1.1583  0.0589
  214MOL0     O28785   1.610  11.273   1.287  0.3081  0.0604 -0.1803
  214MOL0     C28786   1.714  11.246   1.368 -0.1323  0.6142  0.1711
  214MOL0     C28787   1.816  11.154   1.326  0.1179 -0.7194  0.2310
  214MOL0     C28788   1.924  11.130   1.405  0.2069 -0.6651 -0.2117
  214MOL0     C28789   1.938  11.200   1.528  0.3652 -1.0005 -0.5896
  214MOL0     O28790   2.069  11.193   1.578 -0.1461 -0.2307  0.1769
  214MOL0     C28791   2.083  11.212   1.728 -0.4512  0.1756  0.4932
  214MOL0     C28792   2.207  11.135   1.772 -0.7151 -0.5121  0.3872
  214MOL0     C28793   2.197  11.079   1.913  0.0088 -0.2194  0.3747
  214MOL0     C28794   2.278  11.144   2.029 -0.4109  0.9486 -0.9100
  214MOL0     C28795   2.275  11.048   2.148 -0.8770  0.0691 -1.2313
  214MOL0     C28796   2.343  11.122   2.269 -0.3176  0.0751  0.0057
  214MOL0     C28797   2.306  11.048   2.398 -0.4420 -0.4697 -0.0010
  214MOL0     C28798   2.368  10.907   2.405  0.4450 -0.4439 -0.0099
  214MOL0    Cl28799   2.340  10.851   2.564  0.3744  0.4345 -0.0900
  214MOL0     C28800   1.843  11.288   1.572  0.0313  0.6648 -0.9823
  214MOL0     C28801   1.723  11.303   1.494  0.2551 -0.7019  0.4007
  214MOL0     O28802   1.754  11.359   1.123  0.1699  0.2941 -0.7242
  214MOL0     C28803   1.568  11.388   0.932  0.8273  0.3732 -0.3998
  214MOL0     C28804   1.468  11.418   0.836 -0.2505 -0.4962 -0.1731
  214MOL0     N28805   0.944  11.167   0.557  0.8405 -0.9149  0.4718
  214MOL0     N28806   0.995  11.060   0.605 -0.0671  0.3523  0.0963
  214MOL0     C28807   2.137  11.226   1.092  0.0198  0.4140 -0.6012
  214MOL0     C28808   2.221  11.238   1.212  0.3450  0.0538  0.8072
  214MOL0     C28809   2.560  11.285   1.509 -0.1397  0.4256 -0.5038
  214MOL0     C28810   2.546  11.234   1.644  0.0211 -0.7989  0.1941
  214MOL0     C28811   2.624  11.280   1.751  0.0169  0.0754  0.1317
  214MOL0     C28812   2.727  11.377   1.729 -0.3808 -0.9013  0.4845
  214MOL0     O28813   2.802  11.432   1.834  0.3640  0.9700  0.0857
  214MOL0     C28814   2.819  11.374   1.965 -0.0216 -0.1433  0.4028
  214MOL0     C28815   2.795  11.484   2.072 -0.1220 -0.3756 -0.3526
  214MOL0     C28816   2.656  11.527   2.105 -0.1700  0.2204 -0.2040
  214MOL0     C28817   2.556  11.418   2.136  0.0182 -0.7935 -0.6285
  214MOL0     C28818   2.549  11.403   2.285  0.4720  0.1807  0.3670
  214MOL0     C28819   2.546  11.392   2.408 -0.0756  0.0708  0.8510
  214MOL0     C28820   2.748  11.422   1.594  0.1243  0.4616  0.2624
  214MOL0     C28821   2.662  11.373   1.487  0.5299 -0.2351  0.6452
  214MOL0     C28822   2.704  11.432   1.352  0.5010 -1.3618  0.0173
  214MOL0     H28823   2.505  11.358   1.054 -0.4408  0.9961 -2.7579
  214MOL0     H28824   2.375  11.312   0.862  2.8450 -2.4718  0.1846
  214MOL0     H28825   2.023  11.042   0.755 -0.5551 -1.5318  0.4798
  214MOL0     H28826   2.075  11.032   0.924 -1.4911  1.6028  2.7702
  214MOL0     H28827   1.830  11.184   0.782 -1.9582 -0.4145  0.6875
  214MOL0     H28828   1.887  11.235   0.942  1.1454  0.9437 -0.3620
  214MOL0     H28829   1.731  11.074   1.016  1.7701  2.0634 -0.0063
  214MOL0     H28830   1.865  10.963   0.982  0.5904  1.0912  1.2236
  214MOL0     H28831   1.753  10.924   0.757 -0.1018 -0.8051  1.1625
  214MOL0     H28832   1.657  10.875   0.894 -1.8808 -0.3485 -0.9509
  214MOL0     H28833   1.538  11.077   0.915 -2.7777 -3.7673  0.0759
  214MOL0     H28834   1.598  11.141   0.759  1.9638 -1.3271 -0.0043
  214MOL0     H28835   1.509  10.988   0.629  1.5958 -1.8507  0.9008
  214MOL0     H28836   1.461  10.886   0.773 -1.1128 -0.3810 -0.0718
  214MOL0     H28837   1.358  11.166   0.734 -0.5334  0.4418 -0.1980
  214MOL0     H28838   1.305  11.045   0.850  1.2942  0.4438  0.5082
  214MOL0     H28839   1.287  10.978   0.557 -1.6650 -2.1967 -0.1480
  214MOL0     H28840   1.208  10.906   0.696  2.6547  0.3702  0.9911
  214MOL0     H28841   1.247  11.271   0.563 -0.6728  3.0358 -1.3928
  214MOL0     H28842   1.076  11.403   0.378 -0.2724  0.2832 -0.9715
  214MOL0     H28843   0.919  11.432   0.427  0.0656 -1.5310 -1.6106
  214MOL0     H28844   1.187  11.534   0.530  0.6707 -0.1443  1.0063
  214MOL0     H28845   1.027  11.619   0.510  1.9969  0.3947 -1.2378
  214MOL0     H28846   0.940  11.552   0.706  0.3925 -0.7071 -2.4129
  214MOL0     H28847   1.092  11.639   0.731 -2.4081  0.9581  0.5313
  214MOL0     H28848   1.079  11.333   0.798  2.8195 -1.1684 -1.4362
  214MOL0     H28849   1.084  11.470   0.907 -1.3461 -0.3354 -0.0277
  214MOL0     H28850   1.199  11.326   1.027  0.8916 -1.9857 -2.0777
  214MOL0     H28851   1.369  11.287   1.195 -1.3448 -1.1047 -0.5846
  214MOL0     H28852   1.821  11.115   1.225 -0.5596 -2.3102  0.7736
  214MOL0     H28853   2.007  11.065   1.379  0.7413  1.0995 -3.3883
  214MOL0     H28854   2.100  11.319   1.746  0.9931 -0.2322  1.7653
  214MOL0     H28855   1.992  11.171   1.772  0.0947 -1.5281  0.0942
  214MOL0     H28856   2.221  11.054   1.700 -2.8224  0.1399 -0.8775
  214MOL0     H28857   2.294  11.201   1.769 -1.4221  0.4364 -1.8056
  214MOL0     H28858   2.093  11.089   1.944  0.1004 -3.0672  1.9978
  214MOL0     H28859   2.226  10.974   1.920  2.0071  0.3737  3.0373
  214MOL0     H28860   2.230  11.240   2.048 -2.3308  0.3008 -2.1864
  214MOL0     H28861   2.385  11.164   2.017  0.0503 -1.3459 -1.0775
  214MOL0     H28862   2.335  10.962   2.119  2.4037  1.0411  2.0479
  214MOL0     H28863   2.173  11.017   2.172  0.2290 -1.5912  1.7795
  214MOL0     H28864   2.452  11.133   2.262 -0.2690 -0.8782 -1.0450
  214MOL0     H28865   2.287  11.215   2.286 -1.7051 -0.6867 -0.2614
  214MOL0     H28866   2.199  11.035   2.415  0.0367 -2.1848  2.2966
  214MOL0     H28867   2.341  11.099   2.488 -1.9906 -1.0656  0.9703
  214MOL0     H28868   2.320  10.845   2.328  0.7104  1.0162 -1.3985
  214MOL0     H28869   2.472  10.934   2.388 -0.1622  2.3919  0.2528
  214MOL0     H28870   1.846  11.334   1.670  0.1237  1.5235 -1.3774
  214MOL0     H28871   1.655  11.382   1.525 -1.4165 -1.3377 -1.4205
  214MOL0     H28872   1.670  11.406   0.899  1.6674 -0.8869  1.3330
  214MOL0     H28873   1.494  11.453   0.737  0.3733 -0.7415 -0.0987
  214MOL0     H28874   2.035  11.198   1.116  0.6289 -1.0518  0.4195
  214MOL0     H28875   2.181  11.210   1.309  0.2700 -1.7757  0.2868
  214MOL0     H28876   2.462  11.167   1.660 -2.7433  1.8106 -2.1896
  214MOL0     H28877   2.605  11.241   1.850  0.5617  2.9728  1.4840
  214MOL0     H28878   2.919  11.334   1.979 -0.5692 -1.5191  0.6036
  214MOL0     H28879   2.749  11.292   1.986 -1.1651  1.5973  4.4040
  214MOL0     H28880   2.863  11.568   2.055  1.2050 -1.2173  0.5723
  214MOL0     H28881   2.828  11.442   2.168 -0.9693 -2.8621 -1.0857
  214MOL0     H28882   2.627  11.562   2.005 -0.5468 -1.3779 -0.6836
  214MOL0     H28883   2.650  11.613   2.172  0.2182 -0.6813  1.0195
  214MOL0     H28884   2.459  11.455   2.101 -1.1063 -1.1393  1.8769
  214MOL0     H28885   2.571  11.326   2.079 -0.6151 -0.0053 -2.1041
  214MOL0     H28886   2.536  11.386   2.515 -4.1453  0.0568  0.6519
  214MOL0     H28887   2.829  11.492   1.574 -0.0342  1.1538  1.8694
  214MOL0     H28888   2.714  11.361   1.269  0.3824  1.9097 -3.0330
  214MOL0     H28889   2.628  11.499   1.311  0.3775 -2.4883 -1.6846
  214MOL0     H28890   2.798  11.487   1.359  1.5456 -3.1369  0.5954
  215MOL0     O28891  10.294   2.054   7.465 -0.3170  0.6264 -0.3168
  215MOL0     C28892  10.239   2.114   7.554 -0.5263  0.7643 -0.2387
  215MOL0     O28893  10.300   2.191   7.648 -0.1185 -0.0656 -0.5553
  215MOL0     C28894  10.423   2.239   7.615 -0.1856 -0.0970  0.9035
  215MOL0     C28895  10.449   2.309   7.506 -0.3526  0.7218  0.5344
  215MOL0     C28896  10.580   2.341   7.464  0.2255  0.8929 -0.0730
  215MOL0     C28897  10.692   2.305   7.547  0.5054 -0.9823  0.5576
  215MOL0     O28898  10.812   2.333   7.500  0.1258 -0.1730  0.4647
  215MOL0     C28899  10.917   2.257   7.564 -0.7326  0.7542 -0.1349
  215MOL0     C28900  11.051   2.294   7.488 -0.3210  0.1526 -0.6578
  215MOL0     C28901  11.160   2.209   7.554  0.1669 -0.0444 -0.1871
  215MOL0     C28902  11.238   2.298   7.650 -0.5627 -0.5779 -0.2902
  215MOL0     C28903  11.372   2.235   7.697 -0.6274 -0.1856  0.4411
  215MOL0     C28904  11.415   2.311   7.823 -0.0685  0.6052  0.8816
  215MOL0     C28905  11.572   2.310   7.850  0.9346 -0.2829  0.5770
  215MOL0     C28906  11.607   2.196   7.944 -0.4776 -0.5956  0.9091
  215MOL0     N28907  11.634   2.241   8.079  0.2662 -0.2307 -0.5925
  215MOL0     C28908  11.708   2.358   8.118 -0.4726  0.2327 -0.0810
  215MOL0     C28909  11.691   2.378   8.252  0.4791 -0.1200  0.1662
  215MOL0     C28910  11.736   2.493   8.342 -0.0793  0.2791 -1.1653
  215MOL0     C28911  11.874   2.546   8.309 -0.3052  0.3536 -0.0110
  215MOL0     C28912  11.915   2.642   8.413  0.0249 -0.4936 -0.1456
  215MOL0     C28913  12.053   2.690   8.387  0.8097 -0.2165  0.7772
  215MOL0     O28914  12.092   2.786   8.490  0.4373  0.7293 -0.4701
  215MOL0     C28915  12.212   2.853   8.492 -0.2782  0.0013 -0.6851
  215MOL0     C28916  12.339   2.825   8.437  0.9735  1.5243  0.0576
  215MOL0     C28917  12.458   2.900   8.462 -0.2520 -0.3324 -0.4332
  215MOL0     C28918  12.445   3.007   8.557  0.0402  0.2145  0.2831
  215MOL0     C28919  12.559   3.087   8.598 -0.0230 -1.7828  0.2114
  215MOL0     O28920  12.676   3.040   8.546  0.0700  0.5482  0.6627
  215MOL0     C28921  12.777   3.127   8.545  0.3362  0.2987  0.3340
  215MOL0     C28922  12.778   3.223   8.443  0.4464 -0.4476 -1.1229
  215MOL0     C28923  12.888   3.310   8.459  0.0173  1.1296 -0.4357
  215MOL0     C28924  12.986   3.298   8.557  0.1935 -0.0672 -0.7111
  215MOL0     O28925  13.076   3.397   8.555  0.6194 -0.3130 -0.7775
  215MOL0     C28926  13.182   3.400   8.661 -0.1683  0.7550 -0.2536
  215MOL0     C28927  13.255   3.537   8.656  0.2625 -0.2380  0.0095
  215MOL0     C28928  13.364   3.538   8.762  0.1181  0.5527 -0.5827
  215MOL0     C28929  13.461   3.650   8.733  0.0833 -0.1204  0.0363
  215MOL0     C28930  13.572   3.634   8.835  0.2004  0.5270 -0.6140
  215MOL0     C28931  13.643   3.768   8.823 -0.0552 -0.1701 -0.7743
  215MOL0     C28932  13.763   3.758   8.912 -0.4052  0.6551 -0.8606
  215MOL0     C28933  13.894   3.707   8.835 -0.1600 -0.0808 -0.1462
  215MOL0    Cl28934  13.941   3.840   8.720  0.1930 -0.1409 -0.0302
  215MOL0     C28935  12.979   3.198   8.652  0.2410  0.1666  0.3170
  215MOL0     C28936  12.877   3.105   8.636 -0.0749  0.5928 -0.0225
  215MOL0     O28937  12.551   3.203   8.656  1.4081 -0.6374  0.5169
  215MOL0     C28938  12.321   3.035   8.612 -0.4001  0.9620 -0.5233
  215MOL0     C28939  12.214   2.960   8.583 -0.0894 -0.3506 -0.0770
  215MOL0     N28940  11.616   2.273   8.295 -0.1015  0.2745 -0.2919
  215MOL0     N28941  11.582   2.190   8.198  0.3863 -1.1204 -0.6462
  215MOL0     C28942  10.659   2.250   7.675  0.0156  0.4812 -0.4173
  215MOL0     C28943  10.531   2.213   7.700  0.2935  0.3493 -0.9558
  215MOL0     C28944  10.088   2.107   7.565  0.4708 -0.5300  0.2049
  215MOL0     C28945  10.033   2.210   7.638  0.3239  0.3708  0.3448
  215MOL0     C28946   9.896   2.204   7.667  0.3777  1.1482  0.2951
  215MOL0     C28947   9.812   2.098   7.623 -0.0911  0.1674  0.5408
  215MOL0     O28948   9.678   2.088   7.640  0.1180  0.2496  0.5255
  215MOL0     C28949   9.606   2.191   7.708 -0.8047  0.5112  1.2980
  215MOL0     C28950   9.460   2.155   7.711  0.3160 -0.2598 -0.5713
  215MOL0     C28951   9.392   2.141   7.574 -0.3016  0.0562  0.5899
  215MOL0     C28952   9.374   2.002   7.531 -0.4445  0.3324  0.0669
  215MOL0     C28953   9.240   1.956   7.562 -1.2323 -0.1491  0.4566
  215MOL0     C28954   9.133   1.916   7.585  0.3469  0.5773  0.0763
  215MOL0     C28955   9.874   1.995   7.542  0.0561 -0.3989 -0.1312
  215MOL0     C28956  10.008   2.001   7.515 -0.4716 -0.9085  0.0250
  215MOL0     C28957  10.055   1.883   7.433  0.9130  0.6117 -0.2385
  215MOL0     H28958  10.372   2.334   7.434  0.7230  0.8166 -0.6084
  215MOL0     H28959  10.585   2.390   7.366  3.1065 -2.5441 -1.8671
  215MOL0     H28960  10.916   2.268   7.673 -2.3698  0.8823 -0.1413
  215MOL0     H28961  10.903   2.151   7.544 -1.3830  0.8726 -0.3100
  215MOL0     H28962  11.079   2.399   7.476 -3.3532  0.8896 -2.4963
  215MOL0     H28963  11.038   2.267   7.383 -4.2349  0.7769 -0.5114
  215MOL0     H28964  11.234   2.179   7.480  0.1932 -1.2749  0.3008
  215MOL0     H28965  11.121   2.114   7.594  0.3778 -1.1559 -2.4573
  215MOL0     H28966  11.270   2.395   7.612 -3.4055  0.6038  0.0646
  215MOL0     H28967  11.169   2.320   7.732 -1.1411  1.2332 -1.2030
  215MOL0     H28968  11.364   2.129   7.724  0.9137 -0.0693  1.4719
  215MOL0     H28969  11.437   2.257   7.611 -0.7217 -0.7676  0.2194
  215MOL0     H28970  11.387   2.416   7.820  0.4773  0.7266 -1.5779
  215MOL0     H28971  11.351   2.278   7.906  0.3775 -1.0603  0.6130
  215MOL0     H28972  11.604   2.407   7.891 -1.1956  0.9235 -0.4581
  215MOL0     H28973  11.622   2.311   7.753 -1.8116  0.8387 -0.9125
  215MOL0     H28974  11.534   2.114   7.953 -1.4159  0.2204  0.8861
  215MOL0     H28975  11.698   2.158   7.896 -0.6153  2.5524 -2.2637
  215MOL0     H28976  11.759   2.421   8.046 -0.7855  3.7667  2.4957
  215MOL0     H28977  11.664   2.575   8.338 -3.2725 -2.3957 -3.7160
  215MOL0     H28978  11.736   2.464   8.448  0.9764 -1.3784 -1.5950
  215MOL0     H28979  11.948   2.466   8.316  0.2434  0.8878  0.2913
  215MOL0     H28980  11.887   2.589   8.209  1.5863 -1.2317 -0.5211
  215MOL0     H28981  11.913   2.601   8.514  0.7035 -1.0386 -0.3484
  215MOL0     H28982  11.848   2.729   8.406  2.4242  1.4052 -0.7955
  215MOL0     H28983  12.065   2.730   8.286 -0.0460 -0.5838  0.5181
  215MOL0     H28984  12.117   2.603   8.374  0.2590 -0.3083 -1.8333
  215MOL0     H28985  12.354   2.746   8.365  4.3586  3.0118 -1.0755
  215MOL0     H28986  12.555   2.885   8.417  0.3465 -0.2101  0.7831
  215MOL0     H28987  12.700   3.255   8.375  0.3773  1.4139 -0.2470
  215MOL0     H28988  12.896   3.390   8.385 -0.7720 -1.5989 -3.7530
  215MOL0     H28989  13.140   3.392   8.761  1.1125  1.8438  0.4035
  215MOL0     H28990  13.261   3.326   8.647  0.5259  1.4346 -0.0208
  215MOL0     H28991  13.290   3.555   8.554 -3.2957 -1.3080 -1.5298
  215MOL0     H28992  13.183   3.612   8.687 -0.6905 -1.2991  0.4205
  215MOL0     H28993  13.317   3.560   8.858 -0.5697 -2.9296  0.0262
  215MOL0     H28994  13.412   3.440   8.762 -1.3255 -0.2007 -1.7274
  215MOL0     H28995  13.420   3.751   8.732  1.3386  0.4497 -2.0668
  215MOL0     H28996  13.518   3.640   8.640  3.2665 -1.5358  1.9767
  215MOL0     H28997  13.640   3.549   8.826 -0.7422 -0.3052 -0.1693
  215MOL0     H28998  13.531   3.624   8.936  2.3326  2.8319  0.5661
  215MOL0     H28999  13.691   3.799   8.730  2.7119  1.2358  0.9805
  215MOL0     H29000  13.578   3.849   8.858  1.3863  0.7311 -0.0329
  215MOL0     H29001  13.739   3.693   8.997  0.7786  0.9025 -0.3155
  215MOL0     H29002  13.777   3.852   8.967  2.3389 -0.8970  1.4018
  215MOL0     H29003  13.967   3.682   8.913 -0.4632  2.2616  0.9767
  215MOL0     H29004  13.866   3.614   8.784 -0.6356 -0.4129  0.7072
  215MOL0     H29005  13.055   3.175   8.726 -1.1398 -0.6340  1.5376
  215MOL0     H29006  12.866   3.032   8.715 -2.8274  2.0049  1.0596
  215MOL0     H29007  12.309   3.115   8.684 -2.6001  2.4650 -2.4000
  215MOL0     H29008  12.132   2.967   8.654 -0.8018  0.1852 -0.9353
  215MOL0     H29009  10.735   2.229   7.749  1.0732 -1.5875 -1.9814
  215MOL0     H29010  10.509   2.154   7.789 -1.4223  0.1084 -1.4914
  215MOL0     H29011  10.093   2.291   7.678 -0.7466  0.3803  2.0699
  215MOL0     H29012   9.857   2.283   7.730 -3.0164 -0.5766  0.5672
  215MOL0     H29013   9.616   2.288   7.658  2.2987 -1.1665 -1.7367
  215MOL0     H29014   9.643   2.209   7.810  1.7145  1.0552  0.3565
  215MOL0     H29015   9.413   2.232   7.773  0.6824 -0.5952  0.1273
  215MOL0     H29016   9.440   2.065   7.769  0.6367  0.2689  0.3862
  215MOL0     H29017   9.456   2.196   7.505 -0.5014  1.8105  1.7294
  215MOL0     H29018   9.300   2.200   7.558 -1.0653 -1.7273 -2.3636
  215MOL0     H29019   9.383   1.993   7.422 -4.2213 -0.1212 -0.3477
  215MOL0     H29020   9.445   1.935   7.580  0.6910 -0.6605 -2.7229
  215MOL0     H29021   9.039   1.867   7.597  2.1982 -2.8259  2.7811
  215MOL0     H29022   9.823   1.906   7.509  2.5727 -1.0873 -2.4904
  215MOL0     H29023   9.991   1.795   7.432 -0.4991  1.6115 -1.6171
  215MOL0     H29024  10.063   1.914   7.329  0.1756 -1.1892 -0.8744
  215MOL0     H29025  10.153   1.841   7.458 -0.3248 -2.0492  0.5044
  216MOL0     O29026   9.457   0.551   6.166 -0.1216  0.7342  0.1574
  216MOL0     C29027   9.367   0.557   6.084  0.6581 -0.0391 -0.8082
  216MOL0     O29028   9.366   0.627   5.974  0.2645  0.2013 -0.2032
  216MOL0     C29029   9.470   0.717   5.951 -0.2594 -0.1418 -0.5011
  216MOL0     C29030   9.479   0.837   6.029  0.2669  0.8441 -1.3482
  216MOL0     C29031   9.582   0.932   6.012  0.2283  0.0154 -0.3971
  216MOL0     C29032   9.677   0.903   5.916 -0.7647 -0.7719 -0.3464
  216MOL0     O29033   9.770   1.005   5.900  0.0813 -0.1420  0.5012
  216MOL0     C29034   9.902   0.982   5.936 -0.3884  0.2525  0.9162
  216MOL0     C29035   9.972   1.117   5.894  0.0118 -0.3093 -0.2729
  216MOL0     C29036  10.113   1.127   5.956 -0.8312 -0.0456 -0.0942
  216MOL0     C29037  10.195   1.250   5.915 -0.1244  0.2843 -0.1497
  216MOL0     C29038  10.314   1.270   6.014  0.0400 -0.1438  0.6581
  216MOL0     C29039  10.425   1.173   5.988  0.2696  0.2486 -0.2143
  216MOL0     C29040  10.543   1.179   6.084  0.4089 -0.0121 -0.6443
  216MOL0     C29041  10.646   1.275   6.026  0.3392  0.5475  1.0318
  216MOL0     N29042  10.771   1.253   6.103  0.0057  0.0605 -0.0033
  216MOL0     C29043  10.781   1.264   6.237 -0.4020  0.1679  0.3983
  216MOL0     C29044  10.876   1.178   6.280 -0.4644 -0.0036 -0.2366
  216MOL0     C29045  10.926   1.146   6.424 -0.6473 -0.2425 -0.2892
  216MOL0     C29046  11.077   1.107   6.441 -0.3405 -0.7277  0.2468
  216MOL0     C29047  11.115   0.971   6.401  0.2221 -0.2620 -0.4995
  216MOL0     C29048  11.258   0.936   6.442 -1.6497  0.2879 -0.1437
  216MOL0     O29049  11.355   0.999   6.349  0.5439 -0.3556  0.0699
  216MOL0     C29050  11.441   0.917   6.293 -0.6319  0.2816  0.8180
  216MOL0     C29051  11.458   0.927   6.153 -0.3440  0.5393  0.4759
  216MOL0     C29052  11.555   0.842   6.086  0.9747 -0.2937 -0.0138
  216MOL0     C29053  11.624   0.754   6.167 -0.1563  1.0163  0.0148
  216MOL0     C29054  11.728   0.664   6.114  1.0195  0.0833  0.3043
  216MOL0     O29055  11.781   0.580   6.205 -0.2885  0.5614 -0.3402
  216MOL0     C29056  11.888   0.498   6.183 -0.1249 -1.1833  0.2856
  216MOL0     C29057  11.891   0.372   6.246 -0.3939  0.1920 -0.5751
  216MOL0     C29058  11.990   0.281   6.223  0.2223  0.6053  0.0690
  216MOL0     C29059  12.100   0.313   6.147 -0.3306  0.1000  0.2115
  216MOL0     O29060  12.212   0.243   6.133  0.4607 -0.6220 -0.0595
  216MOL0     C29061  12.212   0.103   6.161  0.1847 -0.6305 -0.3279
  216MOL0     C29062  12.331   0.024   6.096  0.1213  0.5377  0.1230
  216MOL0     C29063  12.299  -0.123   6.096  0.7575  0.1419  0.0583
  216MOL0     C29064  12.424  -0.210   6.054  0.6695  0.3558  0.7336
  216MOL0     C29065  12.520  -0.225   6.162  0.4328 -0.6787  0.1325
  216MOL0     C29066  12.625  -0.336   6.132 -0.5066  0.3614 -0.8271
  216MOL0     C29067  12.720  -0.316   6.006  1.0134  0.5540 -0.4815
  216MOL0     C29068  12.783  -0.182   6.004 -0.5202 -0.0656 -1.0315
  216MOL0    Cl29069  12.857  -0.139   6.158 -0.5196  0.2932 -0.0213
  216MOL0     C29070  12.104   0.439   6.084  0.1465  0.8275 -0.7507
  216MOL0     C29071  12.006   0.534   6.109 -0.5573 -1.0101  0.1030
  216MOL0     O29072  11.774   0.676   5.999  0.3953  0.4451  0.0692
  216MOL0     C29073  11.607   0.751   6.306 -0.2256 -0.2943  0.0794
  216MOL0     C29074  11.522   0.832   6.366 -0.5431 -0.3692  0.5920
  216MOL0     N29075  10.923   1.115   6.166 -0.2559 -0.3724 -0.3462
  216MOL0     N29076  10.868   1.167   6.063 -0.0932  0.2809 -0.2112
  216MOL0     C29077   9.675   0.789   5.843  0.4683 -0.7950 -0.4578
  216MOL0     C29078   9.568   0.696   5.849 -0.7998 -0.3644 -1.2620
  216MOL0     C29079   9.268   0.448   6.102 -0.4534 -0.1296 -0.2417
  216MOL0     C29080   9.195   0.443   6.226  0.1524 -0.8568 -0.2129
  216MOL0     C29081   9.093   0.353   6.251 -0.3894  0.1516  0.2026
  216MOL0     C29082   9.069   0.251   6.156 -0.4069 -0.1651  0.1585
  216MOL0     O29083   8.968   0.152   6.164 -0.2406 -0.8131  0.2132
  216MOL0     C29084   8.886   0.147   6.281 -0.0512  0.2969  0.8452
  216MOL0     C29085   8.738   0.159   6.212 -0.1986 -0.3653  0.8883
  216MOL0     C29086   8.692   0.295   6.165  0.3046 -0.2688 -0.8209
  216MOL0     C29087   8.551   0.287   6.105  0.3372 -0.8572 -0.4033
  216MOL0     C29088   8.496   0.424   6.102 -0.6335 -0.0000 -0.8360
  216MOL0     C29089   8.456   0.536   6.109 -0.1923 -0.2286 -0.6601
  216MOL0     C29090   9.148   0.253   6.040  0.4139 -0.3343  0.0430
  216MOL0     C29091   9.239   0.347   6.011 -0.1357  0.0579 -0.6094
  216MOL0     C29092   9.314   0.337   5.885  1.0301  0.9362  0.0618
  216MOL0     H29093   9.397   0.851   6.098  0.9460 -3.2273  0.6194
  216MOL0     H29094   9.581   1.031   6.056 -0.4136  0.8531 -2.1865
  216MOL0     H29095   9.899   0.965   6.044  0.8602  0.9859  1.0925
  216MOL0     H29096   9.939   0.890   5.889 -1.1518  0.6023 -0.4387
  216MOL0     H29097   9.909   1.200   5.929  1.4263  0.6141  0.1871
  216MOL0     H29098   9.966   1.120   5.784 -1.4470 -1.9548 -0.2704
  216MOL0     H29099  10.172   1.036   5.949  1.3733  1.2197  0.9830
  216MOL0     H29100  10.074   1.139   6.057 -0.7824  2.9039 -0.3193
  216MOL0     H29101  10.227   1.245   5.811  2.9685 -0.8223  0.7468
  216MOL0     H29102  10.132   1.340   5.916  0.0215  0.4345 -1.8853
  216MOL0     H29103  10.357   1.369   5.998 -1.0382  0.3830  0.9489
  216MOL0     H29104  10.285   1.265   6.119 -2.8139  2.0567  0.0633
  216MOL0     H29105  10.381   1.073   5.994 -0.9577  0.6002 -2.3181
  216MOL0     H29106  10.470   1.181   5.889  0.3540  2.8306 -0.0450
  216MOL0     H29107  10.589   1.081   6.071 -3.3553 -1.7043 -2.8382
  216MOL0     H29108  10.506   1.205   6.184  0.8892  1.5906 -0.8543
  216MOL0     H29109  10.662   1.250   5.921  3.6848  1.1966  1.2577
  216MOL0     H29110  10.615   1.380   6.037  1.6590  1.1214 -0.3324
  216MOL0     H29111  10.721   1.327   6.302 -1.6520  2.3193 -2.6670
  216MOL0     H29112  10.915   1.245   6.469 -1.8872 -1.0026  1.1781
  216MOL0     H29113  10.856   1.075   6.470 -0.2875 -2.1643 -2.5336
  216MOL0     H29114  11.141   1.168   6.376  0.2514 -1.7408 -0.1464
  216MOL0     H29115  11.095   1.119   6.548  2.0199 -0.6861 -0.0921
  216MOL0     H29116  11.108   0.969   6.292  0.9783  1.3786 -0.6003
  216MOL0     H29117  11.051   0.902   6.457 -2.6598  1.6530 -1.2104
  216MOL0     H29118  11.267   0.827   6.451  2.4094  0.3375 -1.5931
  216MOL0     H29119  11.282   0.984   6.537  2.1492  2.1084 -1.8140
  216MOL0     H29120  11.397   0.991   6.090 -1.5408 -0.3520  0.6913
  216MOL0     H29121  11.561   0.855   5.978 -1.3561  4.3949  0.1757
  216MOL0     H29122  11.804   0.338   6.301 -0.0981 -3.6750 -2.1932
  216MOL0     H29123  11.988   0.190   6.282 -0.7608  2.4930  3.1818
  216MOL0     H29124  12.211   0.092   6.270 -0.4869 -0.7499 -0.3423
  216MOL0     H29125  12.115   0.062   6.131 -1.2161  0.5221  2.2779
  216MOL0     H29126  12.343   0.056   5.992  0.5375 -1.3073 -0.4256
  216MOL0     H29127  12.416   0.056   6.158 -0.9106  2.4702  0.6293
  216MOL0     H29128  12.267  -0.152   6.196  2.5366 -0.6214  0.4515
  216MOL0     H29129  12.216  -0.142   6.027  1.0262  1.6599 -0.7238
  216MOL0     H29130  12.470  -0.158   5.970 -0.4143  2.3353  1.3040
  216MOL0     H29131  12.389  -0.305   6.012 -2.0671  1.2208  0.8189
  216MOL0     H29132  12.467  -0.253   6.254  1.3580  2.1593  1.6397
  216MOL0     H29133  12.560  -0.127   6.187 -1.4309  1.2251 -3.5526
  216MOL0     H29134  12.691  -0.347   6.218 -0.2164 -1.3774 -1.2407
  216MOL0     H29135  12.575  -0.428   6.100  0.2878  0.3583 -2.1381
  216MOL0     H29136  12.657  -0.322   5.916  0.5351 -0.6177 -0.1018
  216MOL0     H29137  12.789  -0.401   6.017 -1.3539 -1.7419 -1.9557
  216MOL0     H29138  12.850  -0.163   5.920  1.4312  2.9323  1.0081
  216MOL0     H29139  12.707  -0.106   5.983 -1.3750 -0.7598 -0.5293
  216MOL0     H29140  12.180   0.462   6.010 -0.4341  0.1914 -1.5615
  216MOL0     H29141  12.010   0.626   6.052  0.8993 -1.9928 -1.4545
  216MOL0     H29142  11.663   0.687   6.375  0.4809  1.7601  1.4959
  216MOL0     H29143  11.506   0.835   6.473 -0.8383  1.4176  0.5268
  216MOL0     H29144   9.752   0.788   5.767  0.5933  0.5545 -0.3676
  216MOL0     H29145   9.564   0.616   5.777  2.0791 -0.7807 -1.0566
  216MOL0     H29146   9.190   0.519   6.303 -1.0421 -0.1634 -0.9372
  216MOL0     H29147   9.041   0.354   6.346  0.8083 -2.1548  0.9508
  216MOL0     H29148   8.892   0.222   6.360  0.4104 -0.8744  1.9551
  216MOL0     H29149   8.896   0.049   6.330  0.0902  1.0200  2.3105
  216MOL0     H29150   8.657   0.126   6.277 -0.6551  1.2288  1.1865
  216MOL0     H29151   8.736   0.098   6.122 -3.0027  3.0012 -1.6023
  216MOL0     H29152   8.757   0.332   6.085  0.4132  0.2860 -0.4845
  216MOL0     H29153   8.703   0.370   6.244 -2.4408  0.6849 -1.2400
  216MOL0     H29154   8.551   0.255   6.000 -0.1411  0.0289 -0.6873
  216MOL0     H29155   8.483   0.222   6.158 -0.5381  0.0002 -0.4494
  216MOL0     H29156   8.425   0.639   6.104  4.0738  1.2182 -1.4036
  216MOL0     H29157   9.132   0.179   5.962 -0.2535  0.7514 -0.8849
  216MOL0     H29158   9.334   0.439   5.850  2.0168  0.9333  0.5807
  216MOL0     H29159   9.408   0.285   5.900  1.4969  1.1794 -1.7167
  216MOL0     H29160   9.255   0.302   5.799  1.5582  1.2603 -0.4377
  217MOL0     O29161   7.979   5.856   4.887  0.1108  0.8986 -0.8118
  217MOL0     C29162   7.883   5.907   4.842 -0.0212 -0.2378 -0.1734
  217MOL0     O29163   7.818   5.861   4.743  0.9452  0.3587 -0.6588
  217MOL0     C29164   7.804   5.723   4.707  0.7785 -0.4467  0.5230
  217MOL0     C29165   7.797   5.622   4.804 -0.7044 -0.5113 -0.5849
  217MOL0     C29166   7.773   5.485   4.772  0.1604  0.3782 -0.2154
  217MOL0     C29167   7.759   5.452   4.642 -0.2746  1.0289  0.7458
  217MOL0     O29168   7.736   5.316   4.612  0.2374  0.7023  0.5697
  217MOL0     C29169   7.700   5.273   4.479 -0.4432 -0.2308 -0.1825
  217MOL0     C29170   7.688   5.123   4.479  0.3989  0.4494  0.2293
  217MOL0     C29171   7.616   5.065   4.355 -0.5843  0.5898  0.2434
  217MOL0     C29172   7.701   5.091   4.221  0.3360  0.7059 -0.3122
  217MOL0     C29173   7.808   4.981   4.203  0.0805  0.6335 -0.1746
  217MOL0     C29174   7.885   5.018   4.074  0.0249  0.3515 -0.0234
  217MOL0     C29175   8.006   4.919   4.051  0.3129 -0.3036 -0.0434
  217MOL0     C29176   7.974   4.813   3.956 -0.0068 -1.0782 -0.3505
  217MOL0     N29177   8.078   4.703   3.972  0.5679 -0.7425  0.5453
  217MOL0     C29178   8.201   4.711   3.900  0.0563 -0.5524 -0.8350
  217MOL0     C29179   8.269   4.599   3.954  0.1716 -0.4614  0.2528
  217MOL0     C29180   8.414   4.560   3.922 -0.0805 -0.2335  0.2987
  217MOL0     C29181   8.521   4.665   3.927  0.0152 -0.2664 -0.3927
  217MOL0     C29182   8.552   4.717   4.070  0.0003  0.1774 -0.3422
  217MOL0     C29183   8.559   4.610   4.177  0.4651  0.2376  0.5498
  217MOL0     O29184   8.647   4.641   4.290 -0.0401 -0.3033 -0.0923
  217MOL0     C29185   8.782   4.658   4.260  0.3930  0.2998 -0.1344
  217MOL0     C29186   8.843   4.613   4.138 -0.7175 -0.2240 -0.3261
  217MOL0     C29187   8.976   4.631   4.120  0.5040 -0.0890  0.0254
  217MOL0     C29188   9.060   4.693   4.214 -0.7081  0.8302  0.0631
  217MOL0     C29189   9.204   4.715   4.187 -0.7278  0.3370 -0.3084
  217MOL0     O29190   9.268   4.781   4.284  0.8565 -0.7449  0.3748
  217MOL0     C29191   9.403   4.785   4.280 -0.2572 -0.5736 -0.6552
  217MOL0     C29192   9.487   4.666   4.279  0.3409 -0.3637  0.1463
  217MOL0     C29193   9.630   4.680   4.276  0.3747  0.8225  0.2117
  217MOL0     C29194   9.691   4.802   4.301  0.7450  0.8033 -0.2468
  217MOL0     O29195   9.824   4.782   4.306 -0.6033 -0.3939  0.8244
  217MOL0     C29196   9.876   4.819   4.438 -0.3235  0.4006 -0.9860
  217MOL0     C29197  10.019   4.760   4.463  0.6117 -0.3184  1.0498
  217MOL0     C29198  10.008   4.622   4.538  0.3352  0.4917 -0.1349
  217MOL0     C29199   9.969   4.640   4.683 -0.2347  0.3958  0.0057
  217MOL0     C29200  10.012   4.530   4.783  0.1100 -0.0020 -0.5953
  217MOL0     C29201   9.938   4.399   4.757 -0.7754 -0.4115  0.1831
  217MOL0     C29202   9.963   4.307   4.882  0.6843 -0.6695 -0.4128
  217MOL0     C29203   9.880   4.180   4.884 -1.0258 -0.2754 -0.6934
  217MOL0    Cl29204   9.904   4.097   4.730 -0.2957  0.2520  0.0038
  217MOL0     C29205   9.606   4.910   4.322  0.3095  0.2021 -0.1084
  217MOL0     C29206   9.470   4.909   4.297  0.1344 -1.0989 -0.5529
  217MOL0     O29207   9.264   4.679   4.082 -0.3220  0.1918 -0.4725
  217MOL0     C29208   9.004   4.722   4.341  0.0017 -0.5328  0.7618
  217MOL0     C29209   8.861   4.705   4.363 -1.3081  0.4042  0.2601
  217MOL0     N29210   8.197   4.544   4.061 -0.0608 -0.8439 -0.2380
  217MOL0     N29211   8.081   4.603   4.063  0.7303 -0.2940 -0.2376
  217MOL0     C29212   7.762   5.553   4.539 -0.0686  0.0769  0.4837
  217MOL0     C29213   7.767   5.689   4.574 -0.0924 -0.4802 -0.1741
  217MOL0     C29214   7.847   6.044   4.890 -0.5085  0.0803  0.0491
  217MOL0     C29215   7.804   6.140   4.796  0.7380  0.0149 -0.1266
  217MOL0     C29216   7.768   6.266   4.830 -0.1648  0.2437 -0.4543
  217MOL0     C29217   7.772   6.317   4.959 -0.3324 -0.1758  0.0410
  217MOL0     O29218   7.735   6.446   4.984 -0.5654 -0.2286 -0.5134
  217MOL0     C29219   7.757   6.499   5.119  0.6032  0.4227 -0.4430
  217MOL0     C29220   7.743   6.650   5.107 -0.4476 -0.2253 -0.4137
  217MOL0     C29221   7.830   6.708   4.990  0.4549  0.3266  0.1543
  217MOL0     C29222   7.810   6.867   4.985  1.3251  0.2584 -0.2345
  217MOL0     C29223   7.865   6.927   4.868  0.0992 -0.5193 -0.3324
  217MOL0     C29224   7.906   6.994   4.779  0.0154 -1.0345  0.7791
  217MOL0     C29225   7.821   6.225   5.052 -0.3190 -0.9334 -0.0537
  217MOL0     C29226   7.857   6.092   5.020  0.3489  0.9061  0.3939
  217MOL0     C29227   7.885   5.995   5.131  0.2923 -0.3972  0.1817
  217MOL0     H29228   7.806   5.640   4.910  0.2977  0.9303 -0.8775
  217MOL0     H29229   7.764   5.404   4.843  2.1347 -2.4054 -2.9077
  217MOL0     H29230   7.600   5.310   4.454 -1.3809 -1.3694  1.6977
  217MOL0     H29231   7.777   5.295   4.404 -2.6120  1.3568 -2.0936
  217MOL0     H29232   7.616   5.105   4.560  0.6529  1.7890  0.7786
  217MOL0     H29233   7.778   5.066   4.504 -0.0973 -0.5730 -0.2335
  217MOL0     H29234   7.526   5.126   4.350 -0.8652  0.0977 -1.8017
  217MOL0     H29235   7.598   4.958   4.372  0.4926  0.8954  4.5229
  217MOL0     H29236   7.633   5.095   4.135 -2.7302 -0.9170  1.8521
  217MOL0     H29237   7.758   5.184   4.225  1.7333  0.1214 -3.5195
  217MOL0     H29238   7.873   4.977   4.291 -3.2997  0.1462  2.5305
  217MOL0     H29239   7.755   4.886   4.196 -1.0464  1.0133  2.2395
  217MOL0     H29240   7.825   5.017   3.983  4.3533 -1.4969 -3.2173
  217MOL0     H29241   7.925   5.119   4.085  0.6572 -0.1209  2.6312
  217MOL0     H29242   8.041   4.881   4.148  1.1180  2.7465  0.9998
  217MOL0     H29243   8.090   4.976   4.012 -0.2461  0.0303 -0.7956
  217MOL0     H29244   7.873   4.777   3.974  0.2057 -2.9654 -2.5016
  217MOL0     H29245   7.975   4.873   3.865  1.0064 -1.4539 -0.6068
  217MOL0     H29246   8.239   4.776   3.823 -0.7175  0.6199 -0.2708
  217MOL0     H29247   8.439   4.471   3.981 -0.0587 -3.2844 -3.8931
  217MOL0     H29248   8.417   4.531   3.817  3.4936  1.2098 -0.1226
  217MOL0     H29249   8.607   4.632   3.868  0.0349 -0.1146 -0.4502
  217MOL0     H29250   8.494   4.760   3.879 -0.8270  0.5855  1.6402
  217MOL0     H29251   8.473   4.780   4.112  0.6517 -0.6436  2.2678
  217MOL0     H29252   8.643   4.777   4.060  0.8095 -0.6496  1.7062
  217MOL0     H29253   8.593   4.518   4.128  1.2472  0.4327  0.7168
  217MOL0     H29254   8.456   4.596   4.212  0.4131  0.3250  0.4290
  217MOL0     H29255   8.793   4.556   4.060  1.4042 -0.8683 -1.2967
  217MOL0     H29256   9.000   4.578   4.028 -1.8894  3.2987 -2.8356
  217MOL0     H29257   9.435   4.573   4.260  0.4573 -0.0890 -1.7128
  217MOL0     H29258   9.686   4.587   4.265  0.2955  0.2552  3.5417
  217MOL0     H29259   9.880   4.928   4.443  2.7359  0.3512 -0.9796
  217MOL0     H29260   9.807   4.785   4.516 -0.6822 -2.8512 -2.5285
  217MOL0     H29261  10.074   4.740   4.371  0.8038 -0.4700  1.1953
  217MOL0     H29262  10.083   4.827   4.520  0.5504 -0.3956  1.2117
  217MOL0     H29263   9.947   4.546   4.488  1.9206 -0.9114 -0.0465
  217MOL0     H29264  10.107   4.576   4.554 -0.3977 -0.7320  1.1360
  217MOL0     H29265   9.861   4.657   4.691 -0.4169 -1.5584  3.0815
  217MOL0     H29266  10.018   4.731   4.718  1.3193  0.5424 -2.3508
  217MOL0     H29267   9.988   4.571   4.882 -0.2500 -1.5045 -0.0408
  217MOL0     H29268  10.119   4.513   4.797 -0.1485 -0.8007  0.5270
  217MOL0     H29269   9.833   4.427   4.753 -1.1838 -1.9584 -0.6904
  217MOL0     H29270   9.973   4.345   4.669  1.5961  0.2534  0.6372
  217MOL0     H29271   9.930   4.357   4.974 -0.7251 -1.2341 -0.5823
  217MOL0     H29272  10.069   4.280   4.886  0.4395 -1.7326 -0.7103
  217MOL0     H29273   9.897   4.104   4.961 -1.0920  1.9618  1.6336
  217MOL0     H29274   9.773   4.201   4.898 -0.7879  1.8332 -1.6444
  217MOL0     H29275   9.647   5.008   4.342 -2.2970  0.9976  1.7172
  217MOL0     H29276   9.416   5.003   4.303  2.2528  0.2480 -1.5560
  217MOL0     H29277   9.066   4.762   4.420  2.7577  1.1136 -1.9838
  217MOL0     H29278   8.831   4.725   4.465 -0.4007 -0.9837  0.8353
  217MOL0     H29279   7.737   5.534   4.435 -2.9031 -0.8340  1.2622
  217MOL0     H29280   7.762   5.763   4.495 -0.0256  0.4011  0.6138
  217MOL0     H29281   7.791   6.108   4.693  0.5972  1.3759 -0.5415
  217MOL0     H29282   7.751   6.326   4.741 -1.2551 -1.4980 -1.4873
  217MOL0     H29283   7.863   6.476   5.135  0.6678 -0.2766 -1.7183
  217MOL0     H29284   7.688   6.477   5.201  1.1808  4.1110  1.2242
  217MOL0     H29285   7.788   6.695   5.196  2.5541 -2.7443 -0.4693
  217MOL0     H29286   7.638   6.676   5.097 -0.1155  1.6347  0.5876
  217MOL0     H29287   7.792   6.659   4.900  1.5679  0.1197 -0.2199
  217MOL0     H29288   7.935   6.677   5.003  0.5594 -0.5513 -2.3384
  217MOL0     H29289   7.710   6.909   4.994  2.4735  3.0830  0.7034
  217MOL0     H29290   7.866   6.909   5.069  0.3525 -0.7124  0.9315
  217MOL0     H29291   7.957   7.047   4.701  2.4916 -1.9559  1.6594
  217MOL0     H29292   7.843   6.267   5.149 -0.7754  2.2214 -1.1995
  217MOL0     H29293   7.987   5.957   5.133  0.4772  0.1291  2.0455
  217MOL0     H29294   7.855   6.035   5.228  1.3757 -3.2624  1.8199
  217MOL0     H29295   7.809   5.917   5.123  2.3975 -2.5458 -0.1246
  218MOL0     O29296   0.879   4.643   5.767 -0.7687 -0.0546 -0.9332
  218MOL0     C29297   0.833   4.533   5.786 -0.4919  0.2471 -0.8283
  218MOL0     O29298   0.889   4.413   5.733  0.6672  0.5882  0.1187
  218MOL0     C29299   1.016   4.427   5.681 -0.3022 -0.0302 -0.7695
  218MOL0     C29300   1.127   4.505   5.741  0.2101 -0.2436 -0.7797
  218MOL0     C29301   1.257   4.515   5.695  0.1370 -0.5133  0.3916
  218MOL0     C29302   1.289   4.438   5.582  0.3961  0.6233  0.0453
  218MOL0     O29303   1.415   4.430   5.542 -0.5709 -0.6025  0.3626
  218MOL0     C29304   1.454   4.367   5.416 -0.0754 -0.5911  0.0185
  218MOL0     C29305   1.391   4.430   5.289 -0.3589  0.6555 -0.2699
  218MOL0     C29306   1.395   4.583   5.264 -0.1669  0.2354 -0.1452
  218MOL0     C29307   1.541   4.631   5.271  0.8303 -0.4879  0.2133
  218MOL0     C29308   1.642   4.548   5.178 -0.0264 -0.9507  0.5378
  218MOL0     C29309   1.778   4.619   5.165  0.4228 -0.1743 -0.9346
  218MOL0     C29310   1.853   4.618   5.297  0.4381  0.4513  0.0468
  218MOL0     C29311   2.004   4.616   5.275  0.3300 -0.0968 -0.1305
  218MOL0     N29312   2.080   4.576   5.392 -0.3565  0.9939  0.6119
  218MOL0     C29313   2.211   4.608   5.420 -0.0569 -0.2227  0.3101
  218MOL0     C29314   2.244   4.524   5.523 -0.1472 -0.4974  0.1708
  218MOL0     C29315   2.389   4.533   5.580 -0.0671  0.7792 -0.7269
  218MOL0     C29316   2.495   4.444   5.514 -0.0565  1.5160  0.2904
  218MOL0     C29317   2.627   4.447   5.577  0.9737  0.5213  0.5225
  218MOL0     C29318   2.724   4.352   5.495 -0.2989  0.1279  0.5292
  218MOL0     O29319   2.686   4.213   5.484  0.3583 -0.3000  0.2954
  218MOL0     C29320   2.718   4.137   5.381 -0.6464 -0.7962  0.4753
  218MOL0     C29321   2.690   4.006   5.384  0.8320  0.1164  0.9001
  218MOL0     C29322   2.719   3.910   5.288  0.8042  0.2183  1.1545
  218MOL0     C29323   2.792   3.953   5.169 -0.3852  0.1287 -0.7666
  218MOL0     C29324   2.844   3.844   5.080 -0.4888 -0.2411 -0.1336
  218MOL0     O29325   2.937   3.876   4.979  0.8391 -0.3576 -0.8902
  218MOL0     C29326   2.972   3.787   4.884 -0.6377 -0.0562 -0.8858
  218MOL0     C29327   3.095   3.723   4.891  1.3544  0.3040  0.2681
  218MOL0     C29328   3.119   3.628   4.788  1.1066  0.7807  0.2176
  218MOL0     C29329   3.021   3.604   4.692  0.0271 -0.2114  0.0467
  218MOL0     O29330   3.030   3.499   4.600  0.4249  0.6660  0.0088
  218MOL0     C29331   3.014   3.379   4.675  0.9981  0.4265 -0.5356
  218MOL0     C29332   2.976   3.272   4.568 -0.5019 -0.7184  0.5704
  218MOL0     C29333   2.989   3.132   4.629  0.0520 -0.3271  0.5607
  218MOL0     C29334   2.940   3.018   4.551 -0.3425  0.4335 -0.4822
  218MOL0     C29335   2.980   2.877   4.617  0.2744 -0.2370 -0.1324
  218MOL0     C29336   2.941   2.872   4.763 -0.6783  0.8570 -0.0087
  218MOL0     C29337   2.938   2.724   4.822  0.6001 -0.4075  0.4859
  218MOL0     C29338   2.906   2.734   4.975 -0.0322  0.6545 -0.0243
  218MOL0    Cl29339   3.044   2.755   5.075  0.1096  0.1062  0.0297
  218MOL0     C29340   2.908   3.674   4.680 -0.3320  0.4931 -0.8423
  218MOL0     C29341   2.875   3.761   4.783  0.2083  0.5772  0.5012
  218MOL0     O29342   2.805   3.734   5.101  0.3774 -0.0747 -0.5027
  218MOL0     C29343   2.801   4.090   5.151 -0.3023  0.0685 -0.0413
  218MOL0     C29344   2.760   4.180   5.246  0.5853 -1.0135  0.1258
  218MOL0     N29345   2.122   4.456   5.561 -0.2524  0.0971  0.6917
  218MOL0     N29346   2.035   4.485   5.482 -0.1736  0.0895  0.2404
  218MOL0     C29347   1.191   4.344   5.535 -0.2241 -0.5564 -0.4011
  218MOL0     C29348   1.058   4.340   5.580 -0.0456  0.9496 -0.8641
  218MOL0     C29349   0.707   4.513   5.862  0.0991 -0.3335 -0.2553
  218MOL0     C29350   0.685   4.384   5.922 -0.2660 -0.0087 -0.2087
  218MOL0     C29351   0.577   4.352   6.013  0.4779 -0.5438  0.4674
  218MOL0     C29352   0.478   4.454   6.028  0.2361 -0.0920  0.7363
  218MOL0     O29353   0.369   4.451   6.107  0.5570  0.4119 -0.3276
  218MOL0     C29354   0.364   4.384   6.239 -0.1660  0.2996  0.1267
  218MOL0     C29355   0.310   4.242   6.234  0.5310 -0.2588 -0.3180
  218MOL0     C29356   0.175   4.210   6.166  0.1799  0.4233  0.3614
  218MOL0     C29357   0.053   4.214   6.245 -0.3006  0.4310  0.1476
  218MOL0     C29358  -0.048   4.125   6.189  0.1496  0.3361 -0.7279
  218MOL0     C29359  -0.129   4.061   6.139 -0.1224  0.7098 -0.6725
  218MOL0     C29360   0.497   4.584   5.967  0.1317  0.2346  0.4596
  218MOL0     C29361   0.611   4.613   5.892  0.6668 -0.6717  0.5041
  218MOL0     C29362   0.633   4.763   5.858  0.4440 -0.3150 -0.9890
  218MOL0     H29363   1.105   4.556   5.834 -0.4658 -3.5969  1.0242
  218MOL0     H29364   1.332   4.581   5.739  0.3769 -0.1972 -0.4632
  218MOL0     H29365   1.562   4.377   5.406  0.1340  3.4518  3.4072
  218MOL0     H29366   1.441   4.259   5.409  0.3396 -0.6069 -0.6472
  218MOL0     H29367   1.287   4.402   5.271 -0.9828  1.5322  1.6412
  218MOL0     H29368   1.441   4.388   5.202 -0.2829  1.0413 -0.4165
  218MOL0     H29369   1.329   4.623   5.342 -1.6559 -1.5702 -0.4005
  218MOL0     H29370   1.346   4.592   5.167  2.8350 -2.7925 -2.1664
  218MOL0     H29371   1.568   4.732   5.239  3.1525 -0.2867  2.4976
  218MOL0     H29372   1.584   4.620   5.370  2.9784 -0.5485 -0.6774
  218MOL0     H29373   1.661   4.447   5.215  1.0309 -0.7409  0.6185
  218MOL0     H29374   1.599   4.547   5.077 -0.7396  1.4503  0.7398
  218MOL0     H29375   1.833   4.557   5.094  0.8105 -3.1132  1.6893
  218MOL0     H29376   1.773   4.720   5.123 -1.4709 -0.7314 -2.2041
  218MOL0     H29377   1.813   4.532   5.352 -3.4056  2.0278 -0.0332
  218MOL0     H29378   1.829   4.698   5.368  0.3900 -0.3667  0.9748
  218MOL0     H29379   2.022   4.547   5.191 -0.0901  0.6602 -0.8608
  218MOL0     H29380   2.033   4.715   5.241  1.8270 -0.5506 -0.2313
  218MOL0     H29381   2.266   4.694   5.384  1.2725 -0.7925  0.9339
  218MOL0     H29382   2.429   4.635   5.572  1.9504  0.1383  0.4966
  218MOL0     H29383   2.387   4.527   5.689  0.7848 -1.8480 -0.7822
  218MOL0     H29384   2.453   4.343   5.526  2.7014  0.2161 -0.1500
  218MOL0     H29385   2.515   4.480   5.413 -2.1211  2.1574  0.0722
  218MOL0     H29386   2.626   4.407   5.679  0.8887 -1.7713 -0.3171
  218MOL0     H29387   2.669   4.546   5.597 -0.3191  0.7917  2.1653
  218MOL0     H29388   2.822   4.364   5.542  0.1774  1.1464 -0.6918
  218MOL0     H29389   2.733   4.395   5.396 -0.9551 -1.0634 -0.0753
  218MOL0     H29390   2.638   3.978   5.475 -0.5430  1.1034  0.4491
  218MOL0     H29391   2.685   3.812   5.318  1.1752 -0.6819 -1.1830
  218MOL0     H29392   3.179   3.739   4.957  1.8105 -0.0629 -0.2141
  218MOL0     H29393   3.217   3.584   4.774  0.3067 -1.6193  1.6631
  218MOL0     H29394   3.111   3.366   4.725  0.4063 -0.7627  0.3722
  218MOL0     H29395   2.942   3.389   4.757  0.0203  1.7916 -1.5039
  218MOL0     H29396   2.880   3.291   4.519  0.0937 -0.0051 -0.3786
  218MOL0     H29397   3.042   3.297   4.484 -2.4610  0.2514 -0.7441
  218MOL0     H29398   3.097   3.124   4.645  0.7716  2.9954 -1.6430
  218MOL0     H29399   2.950   3.123   4.730 -0.2322  0.5861  0.5419
  218MOL0     H29400   2.968   3.030   4.446 -1.1669 -1.0719 -0.9000
  218MOL0     H29401   2.831   3.017   4.547 -0.4547  2.3311  0.8818
  218MOL0     H29402   3.088   2.865   4.610  0.5146  1.0153  0.9580
  218MOL0     H29403   2.937   2.785   4.576  0.7008 -0.7169  0.4916
  218MOL0     H29404   3.011   2.937   4.816  0.7522  0.2615 -1.1195
  218MOL0     H29405   2.839   2.911   4.773 -2.3834 -2.9369 -0.6258
  218MOL0     H29406   3.031   2.672   4.797  1.9502  1.0954  2.1690
  218MOL0     H29407   2.857   2.665   4.776  0.8132  0.0375 -0.4826
  218MOL0     H29408   2.847   2.825   4.990  1.5152  1.3515  2.2025
  218MOL0     H29409   2.848   2.647   5.008  1.9724 -0.4333  0.7685
  218MOL0     H29410   2.832   3.653   4.605 -0.3054 -1.1868 -0.4309
  218MOL0     H29411   2.777   3.807   4.782 -1.6497 -3.0258 -1.0291
  218MOL0     H29412   2.844   4.132   5.061  2.1189 -1.8238  0.1362
  218MOL0     H29413   2.768   4.286   5.228  2.1973 -1.0129  0.6895
  218MOL0     H29414   1.204   4.285   5.445 -0.6516  3.2556 -3.2256
  218MOL0     H29415   0.980   4.269   5.553  2.3470 -2.1145 -0.2581
  218MOL0     H29416   0.752   4.299   5.926  1.2780  1.2064  1.6854
  218MOL0     H29417   0.560   4.259   6.067 -2.2755 -1.4454 -1.6846
  218MOL0     H29418   0.292   4.439   6.300  0.0905 -1.4294  2.0985
  218MOL0     H29419   0.457   4.384   6.295  1.3359 -0.2591 -2.2049
  218MOL0     H29420   0.311   4.199   6.335 -1.3766  0.5790  0.0966
  218MOL0     H29421   0.391   4.188   6.182  1.6392 -0.9490  1.9970
  218MOL0     H29422   0.183   4.108   6.127 -2.9579  0.0879  0.3067
  218MOL0     H29423   0.157   4.270   6.077 -0.7735  1.3399  1.1492
  218MOL0     H29424   0.078   4.190   6.349 -0.4103  1.8465  0.5245
  218MOL0     H29425   0.030   4.321   6.242  1.2781  0.9223  2.4890
  218MOL0     H29426  -0.197   3.991   6.095 -0.2384 -0.4927  1.3134
  218MOL0     H29427   0.418   4.654   5.992  0.9583  0.7341  1.7869
  218MOL0     H29428   0.732   4.792   5.894  0.9128 -2.7942 -0.0445
  218MOL0     H29429   0.626   4.769   5.749 -2.4795 -4.4495 -1.2547
  218MOL0     H29430   0.551   4.820   5.901 -0.3250 -0.8105 -1.7572
  219MOL0     O29431   9.168   8.468   5.055 -0.1025 -0.4371  0.2462
  219MOL0     C29432   9.140   8.377   5.133 -0.8089  0.3780 -0.0330
  219MOL0     O29433   9.225   8.278   5.162  0.2287  0.5533 -0.3561
  219MOL0     C29434   9.360   8.300   5.134 -0.4286 -0.8315  0.5308
  219MOL0     C29435   9.424   8.249   5.023  0.5534 -0.8410  0.8607
  219MOL0     C29436   9.560   8.276   5.002 -0.9905  0.5348  0.1923
  219MOL0     C29437   9.630   8.351   5.090 -0.2246 -0.3035 -0.6234
  219MOL0     O29438   9.758   8.377   5.057 -0.7524 -0.1587  0.4531
  219MOL0     C29439   9.826   8.478   5.141  0.3823  0.1121  0.0840
  219MOL0     C29440   9.956   8.499   5.067  0.3019 -0.4569  0.5239
  219MOL0     C29441   9.931   8.581   4.945 -0.8810 -0.2968 -0.1060
  219MOL0     C29442  10.067   8.595   4.853  0.5052  1.7918 -0.2790
  219MOL0     C29443  10.044   8.696   4.740  0.2115 -0.0474 -0.4232
  219MOL0     C29444  10.037   8.837   4.787 -0.7155 -0.5011 -0.6404
  219MOL0     C29445  10.032   8.925   4.666  0.4494 -1.0185  0.8065
  219MOL0     C29446   9.987   9.069   4.713  0.6045 -0.2234 -0.0482
  219MOL0     N29447  10.088   9.133   4.790  0.1782  0.3458  0.1626
  219MOL0     C29448  10.223   9.103   4.786 -0.0876 -0.2447 -0.1555
  219MOL0     C29449  10.278   9.199   4.866 -0.2505 -0.0853 -0.3212
  219MOL0     C29450  10.425   9.219   4.887 -0.1379 -0.2567 -0.1982
  219MOL0     C29451  10.467   9.206   5.031 -0.2492 -0.1975  0.5297
  219MOL0     C29452  10.572   9.313   5.065 -0.6606 -0.3771 -0.0066
  219MOL0     C29453  10.701   9.299   4.987 -0.0033 -0.2889 -0.1388
  219MOL0     O29454  10.812   9.363   5.063 -0.3034 -0.5461 -0.2199
  219MOL0     C29455  10.946   9.345   5.034  1.0005  0.2096 -0.8739
  219MOL0     C29456  10.996   9.260   4.938 -0.1808 -0.1639  0.3531
  219MOL0     C29457  11.132   9.253   4.919 -0.1399  0.4203  0.5859
  219MOL0     C29458  11.216   9.324   5.000 -0.3155 -0.1143 -0.0145
  219MOL0     C29459  11.361   9.313   4.984 -0.4357  0.1519  0.1541
  219MOL0     O29460  11.407   9.247   4.870 -0.0872  0.3429 -0.4466
  219MOL0     C29461  11.533   9.262   4.830  0.1431 -0.2705  0.5520
  219MOL0     C29462  11.603   9.388   4.826  0.5521 -0.3096  0.1729
  219MOL0     C29463  11.745   9.389   4.816  0.1860 -0.1205 -0.1062
  219MOL0     C29464  11.822   9.270   4.793  0.7547  0.0924  1.0281
  219MOL0     O29465  11.957   9.263   4.773 -0.0214  0.6377 -0.9797
  219MOL0     C29466  12.034   9.375   4.813  0.2189  0.4430  0.0578
  219MOL0     C29467  12.175   9.340   4.860 -1.0159 -0.7317 -0.2579
  219MOL0     C29468  12.260   9.463   4.828  0.5243  0.2085  1.0637
  219MOL0     C29469  12.394   9.465   4.898 -0.3316 -0.1976  0.3368
  219MOL0     C29470  12.504   9.383   4.826 -0.0247 -0.5098  0.1494
  219MOL0     C29471  12.640   9.373   4.897  0.9976 -0.2981  0.3745
  219MOL0     C29472  12.721   9.497   4.868  0.1282  0.4117  0.2152
  219MOL0     C29473  12.794   9.498   4.743  0.2624 -0.6472  0.2365
  219MOL0    Cl29474  12.903   9.635   4.735  0.0010 -0.3786  0.0171
  219MOL0     C29475  11.750   9.150   4.783 -0.6897  0.5672 -0.5166
  219MOL0     C29476  11.611   9.147   4.797 -1.0285  0.0876 -0.4859
  219MOL0     O29477  11.436   9.368   5.063  0.3239 -1.0813  0.0898
  219MOL0     C29478  11.168   9.420   5.088 -0.1335  0.1751  0.5889
  219MOL0     C29479  11.031   9.437   5.106 -0.7868 -0.3729  0.5347
  219MOL0     N29480  10.178   9.282   4.906 -0.1989  0.5130  0.0457
  219MOL0     N29481  10.067   9.251   4.852  0.9311  0.0726 -0.2477
  219MOL0     C29482   9.566   8.398   5.204 -0.1716  0.6746 -0.8722
  219MOL0     C29483   9.438   8.368   5.222  1.1660 -0.3743  0.0723
  219MOL0     C29484   8.999   8.359   5.180 -0.2549  0.5647 -0.0069
  219MOL0     C29485   8.978   8.264   5.279  0.4902  0.1378 -0.4406
  219MOL0     C29486   8.849   8.227   5.321  0.4711 -0.8122 -0.1081
  219MOL0     C29487   8.744   8.284   5.268  0.8355  0.1647 -0.4239
  219MOL0     O29488   8.622   8.239   5.307  0.5377  0.1005 -0.1592
  219MOL0     C29489   8.522   8.335   5.342 -0.2299 -0.0266 -0.0492
  219MOL0     C29490   8.421   8.253   5.427 -0.1029  0.0690  0.3976
  219MOL0     C29491   8.295   8.335   5.464  0.2303 -0.1531  0.0197
  219MOL0     C29492   8.204   8.249   5.553 -0.5441  0.9449  0.0796
  219MOL0     C29493   8.087   8.326   5.596 -0.0868  1.0910  0.8020
  219MOL0     C29494   7.978   8.375   5.623 -0.3637  0.2660  0.5954
  219MOL0     C29495   8.763   8.376   5.165  0.6186  0.2670  0.4367
  219MOL0     C29496   8.886   8.417   5.118 -0.8867  0.0865 -0.7683
  219MOL0     C29497   8.876   8.495   4.989 -0.6372  0.4429  0.0074
  219MOL0     H29498   9.363   8.211   4.941  3.7196 -1.2479 -1.5244
  219MOL0     H29499   9.612   8.236   4.915  0.6298  0.3446  1.2010
  219MOL0     H29500   9.775   8.575   5.147  0.1051 -0.1014  1.2053
  219MOL0     H29501   9.839   8.435   5.240  1.2407  0.6471  0.2162
  219MOL0     H29502   9.999   8.402   5.040 -1.4363 -2.0302  2.9051
  219MOL0     H29503  10.020   8.555   5.136  2.3303 -0.9191 -0.9267
  219MOL0     H29504   9.911   8.682   4.983  1.9406  0.3994 -0.1776
  219MOL0     H29505   9.852   8.548   4.878 -0.7034  1.4561 -1.2572
  219MOL0     H29506  10.149   8.626   4.919  0.8093 -0.2038  0.3541
  219MOL0     H29507  10.092   8.495   4.817  0.5580  2.0013 -0.8254
  219MOL0     H29508  10.124   8.679   4.667 -0.0406  4.3613 -2.0296
  219MOL0     H29509   9.948   8.674   4.692  1.4275  2.6605 -4.6719
  219MOL0     H29510   9.950   8.853   4.850 -1.8672 -1.2037 -2.0013
  219MOL0     H29511  10.129   8.859   4.842  1.2924  2.0392 -4.5055
  219MOL0     H29512   9.970   8.882   4.587 -0.4414 -0.0234  0.9424
  219MOL0     H29513  10.121   8.938   4.603 -0.5600 -0.0971 -0.4984
  219MOL0     H29514   9.971   9.130   4.624  0.9965 -1.2563 -0.8460
  219MOL0     H29515   9.901   9.067   4.781  0.5903  2.1278  0.0782
  219MOL0     H29516  10.270   9.028   4.723 -0.9301  1.1590 -2.6003
  219MOL0     H29517  10.491   9.153   4.830  1.6955  0.9165  0.5146
  219MOL0     H29518  10.447   9.318   4.846  0.3189 -0.0387  0.5735
  219MOL0     H29519  10.386   9.217   5.104  0.8692 -0.8266  1.9190
  219MOL0     H29520  10.504   9.104   5.045  3.8963  1.2030  1.2348
  219MOL0     H29521  10.594   9.314   5.172 -2.2274  1.8671  0.3639
  219MOL0     H29522  10.542   9.417   5.047  0.2290  0.7554  4.0050
  219MOL0     H29523  10.707   9.355   4.893 -1.5608 -1.6995 -1.1438
  219MOL0     H29524  10.723   9.195   4.959 -1.4391 -0.0248 -2.6122
  219MOL0     H29525  10.930   9.205   4.872 -0.9868 -0.7223  1.5961
  219MOL0     H29526  11.174   9.185   4.847  1.7336 -1.6390  3.4232
  219MOL0     H29527  11.556   9.483   4.845 -2.0590 -1.2751 -1.0707
  219MOL0     H29528  11.797   9.484   4.824  0.1970  0.0219 -1.4969
  219MOL0     H29529  12.037   9.431   4.719  1.7497 -1.0115 -0.8068
  219MOL0     H29530  11.986   9.433   4.892 -2.1969 -0.4077 -0.7264
  219MOL0     H29531  12.189   9.287   4.955 -1.0154 -5.6859 -2.6723
  219MOL0     H29532  12.209   9.270   4.783 -1.6411  0.0081 -1.2319
  219MOL0     H29533  12.273   9.476   4.720  2.5060 -0.3886  1.1965
  219MOL0     H29534  12.218   9.550   4.879  0.4984 -0.1461  1.6519
  219MOL0     H29535  12.371   9.433   5.000 -0.1162 -2.6931 -0.3308
  219MOL0     H29536  12.431   9.568   4.902  1.0280 -0.7025  2.2123
  219MOL0     H29537  12.514   9.415   4.722 -0.4731 -3.9803 -1.1164
  219MOL0     H29538  12.474   9.278   4.826  0.5615 -0.6832  0.0778
  219MOL0     H29539  12.629   9.376   5.006 -0.8211  1.2996  0.2094
  219MOL0     H29540  12.703   9.287   4.870  1.4188  0.6060 -1.7221
  219MOL0     H29541  12.808   9.497   4.935  1.7443  1.0833 -1.7755
  219MOL0     H29542  12.663   9.589   4.875 -0.6804 -0.0512 -0.2062
  219MOL0     H29543  12.859   9.411   4.731  1.7254  0.3602  0.5245
  219MOL0     H29544  12.721   9.492   4.661  2.0685  0.7699 -1.6058
  219MOL0     H29545  11.792   9.051   4.772 -1.5053 -0.3708  3.2894
  219MOL0     H29546  11.574   9.045   4.806 -0.4627  0.0503  3.1431
  219MOL0     H29547  11.237   9.479   5.147  1.2585  0.8030 -1.5539
  219MOL0     H29548  11.006   9.501   5.190 -0.9404 -1.1310  1.0690
  219MOL0     H29549   9.625   8.444   5.282  3.0782 -1.5844 -1.8022
  219MOL0     H29550   9.375   8.391   5.307 -1.7653 -3.1195 -1.1790
  219MOL0     H29551   9.064   8.227   5.334  0.3296  0.2146 -0.1373
  219MOL0     H29552   8.833   8.163   5.407  0.0940 -0.1203  0.3427
  219MOL0     H29553   8.473   8.395   5.265  0.6783  1.5105  0.5145
  219MOL0     H29554   8.569   8.403   5.415  0.2687 -0.4944  0.0677
  219MOL0     H29555   8.457   8.209   5.521  2.8959  1.5565  0.0537
  219MOL0     H29556   8.372   8.175   5.369 -0.6880  0.2138  0.6913
  219MOL0     H29557   8.253   8.380   5.374 -2.1648 -2.1079  0.0216
  219MOL0     H29558   8.324   8.421   5.525  0.4114  0.0685 -0.3768
  219MOL0     H29559   8.170   8.163   5.493  0.0647  1.6913 -1.3869
  219MOL0     H29560   8.262   8.201   5.633 -1.1559 -0.0463 -0.0442
  219MOL0     H29561   7.884   8.422   5.642  1.2095  3.2925  1.6526
  219MOL0     H29562   8.670   8.414   5.123  0.0497  0.5650  1.9064
  219MOL0     H29563   8.963   8.481   4.924 -0.5177 -1.4157  0.4991
  219MOL0     H29564   8.790   8.453   4.937 -0.4788 -1.7606  1.4043
  219MOL0     H29565   8.857   8.599   5.015  0.0268  0.3970  0.7230
  220MOL0     O29566   9.318   3.644   6.043 -0.6701 -0.2882 -0.2434
  220MOL0     C29567   9.341   3.685   6.156 -1.0501 -0.1153 -0.1974
  220MOL0     O29568   9.256   3.708   6.254 -0.7277  0.6925  0.0007
  220MOL0     C29569   9.127   3.669   6.205  0.6613 -0.1916 -0.0629
  220MOL0     C29570   9.012   3.760   6.195 -0.4787 -0.0114  0.5234
  220MOL0     C29571   8.884   3.690   6.186 -0.1913 -0.5928  0.0162
  220MOL0     C29572   8.863   3.554   6.196  0.0216 -0.8632 -0.2949
  220MOL0     O29573   8.735   3.508   6.172  0.1437 -0.1198  0.4115
  220MOL0     C29574   8.721   3.368   6.157  0.4730 -0.1913  0.3101
  220MOL0     C29575   8.567   3.337   6.154  0.7906  0.1513 -0.3553
  220MOL0     C29576   8.548   3.201   6.079  0.3741 -0.2854  0.6271
  220MOL0     C29577   8.398   3.180   6.036 -0.7255  0.1780  0.2909
  220MOL0     C29578   8.377   3.029   6.023 -0.7410 -0.1458 -0.0741
  220MOL0     C29579   8.233   3.002   5.996 -0.2809  0.6830  0.4240
  220MOL0     C29580   8.213   2.849   5.943  0.1539 -0.5380  0.2842
  220MOL0     C29581   8.079   2.843   5.861 -0.0439  0.3388  0.1288
  220MOL0     N29582   8.031   2.708   5.840 -0.0426  0.0061 -0.7670
  220MOL0     C29583   8.064   2.637   5.729 -0.7740  0.0802 -0.2860
  220MOL0     C29584   7.991   2.523   5.748 -0.0249 -0.1797  0.4270
  220MOL0     C29585   7.963   2.410   5.648 -0.1176  0.2550 -0.5460
  220MOL0     C29586   7.810   2.402   5.610 -0.8823  0.2702  0.3939
  220MOL0     C29587   7.769   2.513   5.518 -0.1511  0.1364  0.0314
  220MOL0     C29588   7.819   2.505   5.367  0.1086  0.0666  0.1014
  220MOL0     O29589   7.966   2.530   5.354 -0.0586 -0.4733  0.4335
  220MOL0     C29590   8.015   2.660   5.371  0.6520  0.2554  0.4162
  220MOL0     C29591   7.921   2.764   5.366 -0.7571 -0.5673 -0.1135
  220MOL0     C29592   7.967   2.897   5.389 -0.6929  0.1073 -0.2316
  220MOL0     C29593   8.095   2.919   5.430 -0.0629 -0.9250 -1.0476
  220MOL0     C29594   8.132   3.061   5.469 -0.4551 -0.3436  0.2748
  220MOL0     O29595   8.245   3.061   5.543  0.6508  0.8324 -0.2206
  220MOL0     C29596   8.307   3.171   5.596 -0.5676  0.3947  0.3003
  220MOL0     C29597   8.268   3.309   5.599 -0.0719  1.0295  0.3351
  220MOL0     C29598   8.355   3.406   5.661  0.1437  0.0515 -1.0661
  220MOL0     C29599   8.468   3.366   5.733 -0.1683 -0.4786 -0.1025
  220MOL0     O29600   8.545   3.445   5.811 -0.3669 -0.1876 -0.5985
  220MOL0     C29601   8.526   3.594   5.828 -0.0344  0.5928  0.5939
  220MOL0     C29602   8.548   3.678   5.702  0.9582  0.0557 -0.0476
  220MOL0     C29603   8.523   3.821   5.750 -1.8637  0.5036 -0.6692
  220MOL0     C29604   8.557   3.938   5.652  0.5736 -0.1905  0.7815
  220MOL0     C29605   8.539   4.075   5.713 -0.1804  0.3412  0.5040
  220MOL0     C29606   8.656   4.145   5.782  0.4062  0.9370  0.0164
  220MOL0     C29607   8.616   4.271   5.860  0.0126 -0.0645 -0.8691
  220MOL0     C29608   8.742   4.359   5.871 -0.4529  0.0709  0.0660
  220MOL0    Cl29609   8.842   4.308   6.004 -0.3687  0.3163 -0.1850
  220MOL0     C29610   8.504   3.227   5.722  0.9618 -0.1010  0.0248
  220MOL0     C29611   8.428   3.140   5.648 -0.3879  0.4069  0.1801
  220MOL0     O29612   8.065   3.161   5.435  0.3928  0.6211 -1.0487
  220MOL0     C29613   8.195   2.819   5.419  0.6232  0.5925  0.3452
  220MOL0     C29614   8.152   2.688   5.390 -0.5672  0.5546 -0.0926
  220MOL0     N29615   7.914   2.537   5.863  0.1552 -0.1519 -0.4847
  220MOL0     N29616   7.943   2.649   5.922 -0.8661 -0.1231  0.3709
  220MOL0     C29617   8.974   3.470   6.198  0.8586  0.1529 -0.4288
  220MOL0     C29618   9.101   3.530   6.216 -0.0957 -0.2671  0.0184
  220MOL0     C29619   9.478   3.733   6.177 -0.3743  0.4827 -0.1477
  220MOL0     C29620   9.567   3.769   6.077 -0.1795  0.6974  0.5915
  220MOL0     C29621   9.695   3.826   6.099  0.3875  0.3777 -0.9749
  220MOL0     C29622   9.734   3.850   6.231  0.0253  0.8728 -0.1555
  220MOL0     O29623   9.866   3.876   6.263 -0.2320  0.5788  0.3709
  220MOL0     C29624   9.910   4.016   6.255  0.7143 -0.0943 -0.3603
  220MOL0     C29625   9.970   4.060   6.397  0.0512 -0.5742 -0.3129
  220MOL0     C29626  10.092   3.975   6.437  0.1597 -0.1944 -0.0641
  220MOL0     C29627  10.209   3.958   6.338 -0.6378 -0.0912 -0.3859
  220MOL0     C29628  10.306   3.855   6.373  0.1598 -0.9085 -0.6957
  220MOL0     C29629  10.402   3.789   6.409  0.2144 -0.5496 -0.2172
  220MOL0     C29630   9.648   3.814   6.336  0.1082 -0.2515 -0.9849
  220MOL0     C29631   9.531   3.747   6.316  0.0047 -0.0170  0.3875
  220MOL0     C29632   9.464   3.690   6.448 -0.0902  0.3108  0.9088
  220MOL0     H29633   9.026   3.868   6.195 -0.1594 -0.0388 -0.6928
  220MOL0     H29634   8.796   3.753   6.175  0.1451 -0.6028 -4.2877
  220MOL0     H29635   8.764   3.332   6.063 -0.6849  0.2861 -0.4214
  220MOL0     H29636   8.758   3.311   6.243  2.5125 -1.0253 -1.0436
  220MOL0     H29637   8.527   3.413   6.085  0.7168 -1.5565 -2.2837
  220MOL0     H29638   8.523   3.350   6.253  1.1795  0.1193 -0.1786
  220MOL0     H29639   8.575   3.119   6.146  1.9564  0.3714  0.8240
  220MOL0     H29640   8.611   3.190   5.990 -0.7062 -0.3194 -0.1606
  220MOL0     H29641   8.335   3.220   6.115 -0.1292  1.0423  0.3435
  220MOL0     H29642   8.370   3.237   5.947  1.6305  0.2681 -0.4624
  220MOL0     H29643   8.448   2.990   5.950  0.1091  0.2518  0.5319
  220MOL0     H29644   8.395   2.974   6.116 -3.1123 -2.9691 -1.1122
  220MOL0     H29645   8.178   3.023   6.088  0.7612  2.7680  0.6393
  220MOL0     H29646   8.190   3.070   5.923 -2.5342 -2.3092 -1.2790
  220MOL0     H29647   8.185   2.789   6.030  1.4194 -1.4867  0.0528
  220MOL0     H29648   8.293   2.801   5.886 -1.5927 -1.2465 -1.7384
  220MOL0     H29649   8.002   2.893   5.920  2.3841 -0.1127  4.0059
  220MOL0     H29650   8.081   2.888   5.761  0.2508 -0.8775 -0.4340
  220MOL0     H29651   8.133   2.678   5.656  1.4566  0.5557  1.9324
  220MOL0     H29652   8.037   2.420   5.568  3.5916 -1.7370  2.2570
  220MOL0     H29653   7.995   2.321   5.704  2.2158 -0.1461 -2.3630
  220MOL0     H29654   7.794   2.305   5.563  1.0982  0.0698  0.0491
  220MOL0     H29655   7.767   2.403   5.711  1.8837 -1.4437  1.6883
  220MOL0     H29656   7.787   2.615   5.555  1.3231 -0.5977  1.4834
  220MOL0     H29657   7.660   2.514   5.510 -0.2763  0.5550  1.4306
  220MOL0     H29658   7.752   2.558   5.298  0.1815 -1.8695 -1.5328
  220MOL0     H29659   7.793   2.402   5.342  0.5287 -0.5194  1.9149
  220MOL0     H29660   7.816   2.758   5.342 -1.2027  2.5231  0.6272
  220MOL0     H29661   7.901   2.984   5.381  0.2796  0.8844 -0.0152
  220MOL0     H29662   8.178   3.347   5.551 -0.3459 -2.4732 -2.3139
  220MOL0     H29663   8.307   3.503   5.654 -3.0527 -0.9636  2.8777
  220MOL0     H29664   8.426   3.612   5.870  0.4398  2.4086  1.0458
  220MOL0     H29665   8.607   3.618   5.898 -0.5239  0.1063  1.3425
  220MOL0     H29666   8.646   3.650   5.661  0.3592 -1.7450 -0.3353
  220MOL0     H29667   8.468   3.651   5.633 -0.0601  0.7398  0.8482
  220MOL0     H29668   8.416   3.821   5.776 -2.0540  3.8346 -1.0011
  220MOL0     H29669   8.578   3.831   5.843 -2.2598 -3.0063  0.0866
  220MOL0     H29670   8.490   3.937   5.566  0.2799  5.1065  0.5954
  220MOL0     H29671   8.657   3.937   5.607 -0.4714  0.3167 -1.7197
  220MOL0     H29672   8.451   4.060   5.777  0.3967 -0.9108  1.0361
  220MOL0     H29673   8.505   4.146   5.637 -0.8370 -1.0672 -0.5572
  220MOL0     H29674   8.710   4.082   5.854  0.2357 -0.6047 -1.1618
  220MOL0     H29675   8.724   4.165   5.699  0.5739  0.4343  0.0283
  220MOL0     H29676   8.580   4.238   5.958  2.7882 -0.7314  0.0107
  220MOL0     H29677   8.537   4.322   5.804 -0.3444 -2.3758 -2.6405
  220MOL0     H29678   8.789   4.367   5.772  2.6290 -0.0076  1.3931
  220MOL0     H29679   8.702   4.459   5.889 -1.8850 -0.2505 -1.1232
  220MOL0     H29680   8.595   3.183   5.763  2.7238  4.2367  1.4443
  220MOL0     H29681   8.467   3.039   5.637  1.5837  1.2083 -0.6985
  220MOL0     H29682   8.300   2.822   5.446  0.8699 -0.3114 -0.4410
  220MOL0     H29683   8.219   2.607   5.364  0.5386  1.3449  0.2272
  220MOL0     H29684   8.966   3.364   6.175 -0.8022  0.0370  0.5522
  220MOL0     H29685   9.184   3.460   6.221  0.2533 -0.0070 -1.5644
  220MOL0     H29686   9.543   3.743   5.974 -2.3169  6.2252 -0.6395
  220MOL0     H29687   9.769   3.840   6.020  0.8736 -5.1329 -1.8919
  220MOL0     H29688   9.832   4.091   6.234 -1.0244 -0.3297  4.1273
  220MOL0     H29689   9.983   4.023   6.174  1.4332  0.0598  0.2874
  220MOL0     H29690   9.893   4.038   6.471  0.2574  0.2870  0.1714
  220MOL0     H29691   9.999   4.165   6.389  0.7670 -0.7171  0.2447
  220MOL0     H29692  10.043   3.877   6.442 -1.2003  0.3271 -1.9526
  220MOL0     H29693  10.114   4.013   6.537 -3.0849 -1.5114  1.2775
  220MOL0     H29694  10.186   3.921   6.237  0.7784  0.3142 -0.8862
  220MOL0     H29695  10.254   4.057   6.337  3.2180 -1.6548  0.9211
  220MOL0     H29696  10.473   3.727   6.460 -1.2926 -1.1208  1.3033
  220MOL0     H29697   9.685   3.833   6.437 -1.0045 -0.3892 -0.5380
  220MOL0     H29698   9.449   3.584   6.430  2.4333 -0.1298  1.0278
  220MOL0     H29699   9.536   3.692   6.531  1.6506 -1.2165 -0.4886
  220MOL0     H29700   9.378   3.748   6.483  0.5736  1.1574  1.1765
  221MOL0     O29701   3.533   3.202   8.187 -0.6703  0.2175  0.3869
  221MOL0     C29702   3.437   3.200   8.110  0.5871  0.9315 -0.0094
  221MOL0     O29703   3.442   3.244   7.978  0.0948  0.1160  0.5363
  221MOL0     C29704   3.565   3.285   7.924  0.2041 -0.4378 -0.5807
  221MOL0     C29705   3.566   3.419   7.885  0.7016  0.2148 -0.1136
  221MOL0     C29706   3.679   3.477   7.824  1.2869  0.0625 -0.4090
  221MOL0     C29707   3.788   3.397   7.807  0.0380  0.2849  0.0610
  221MOL0     O29708   3.893   3.453   7.739  0.1814  0.4017 -0.4982
  221MOL0     C29709   4.011   3.455   7.824 -0.2190  0.0105 -0.7260
  221MOL0     C29710   4.121   3.526   7.743 -0.1842 -0.5448 -0.0338
  221MOL0     C29711   4.085   3.668   7.693 -0.1777 -0.4090 -0.1800
  221MOL0     C29712   4.209   3.752   7.629 -0.6116 -0.1685 -1.1478
  221MOL0     C29713   4.183   3.899   7.644  0.2447 -0.1911  0.5642
  221MOL0     C29714   4.303   3.988   7.614  0.8170 -0.4694  0.6771
  221MOL0     C29715   4.429   3.951   7.690  0.3561  0.8600  0.1393
  221MOL0     C29716   4.541   4.059   7.669 -0.0857  0.4676 -0.3536
  221MOL0     N29717   4.521   4.168   7.766 -0.5269 -0.0765  0.5086
  221MOL0     C29718   4.555   4.155   7.901 -0.2899  0.6098 -0.8879
  221MOL0     C29719   4.528   4.279   7.956  1.2132 -0.9956 -0.9327
  221MOL0     C29720   4.561   4.339   8.094 -0.3425 -0.7551 -0.2073
  221MOL0     C29721   4.555   4.492   8.101  0.0313  0.1455 -0.4187
  221MOL0     C29722   4.589   4.543   8.241 -1.0061  0.5706  0.6961
  221MOL0     C29723   4.489   4.530   8.358  0.0116  0.9773 -0.7946
  221MOL0     O29724   4.504   4.616   8.467  0.2215 -0.1202  0.0368
  221MOL0     C29725   4.622   4.625   8.537  0.0058  0.0188  0.0276
  221MOL0     C29726   4.647   4.727   8.632 -0.4878  0.7907  0.4577
  221MOL0     C29727   4.765   4.735   8.706 -0.2284  0.2958 -0.2304
  221MOL0     C29728   4.863   4.630   8.696  0.9729  0.3191 -0.2213
  221MOL0     C29729   4.973   4.608   8.789  1.4500  0.6562  0.8098
  221MOL0     O29730   5.059   4.502   8.756  1.3416  0.0689 -0.2193
  221MOL0     C29731   5.151   4.453   8.841 -0.0818 -0.0864 -1.0907
  221MOL0     C29732   5.254   4.382   8.783 -0.8954 -0.2229 -0.0464
  221MOL0     C29733   5.341   4.309   8.862  0.3907 -0.0830  0.5974
  221MOL0     C29734   5.343   4.324   8.997 -0.0071  0.0013 -0.1675
  221MOL0     O29735   5.431   4.252   9.065  0.7261  0.1270  0.5789
  221MOL0     C29736   5.457   4.273   9.204 -0.9127 -0.5084 -0.3558
  221MOL0     C29737   5.586   4.199   9.243 -0.2437 -0.8205 -0.6891
  221MOL0     C29738   5.643   4.259   9.375 -0.2295  0.2429  0.2195
  221MOL0     C29739   5.578   4.200   9.498  0.6433 -0.4624 -0.2544
  221MOL0     C29740   5.612   4.280   9.625 -0.4556 -0.3085 -0.2162
  221MOL0     C29741   5.741   4.239   9.676 -0.0621 -0.4405 -0.5502
  221MOL0     C29742   5.777   4.344   9.787  0.1801  0.3777 -0.8874
  221MOL0     C29743   5.708   4.311   9.921 -0.8717 -1.3432  0.0898
  221MOL0    Cl29744   5.787   4.412  10.043  0.1821 -0.2626  0.4285
  221MOL0     C29745   5.248   4.401   9.065 -0.5400  1.0100 -0.6318
  221MOL0     C29746   5.155   4.467   8.983 -0.1179  0.4744  0.1571
  221MOL0     O29747   4.985   4.690   8.878 -0.2557  0.4294 -0.0546
  221MOL0     C29748   4.833   4.526   8.602  0.3497  0.1791  0.6904
  221MOL0     C29749   4.719   4.529   8.524 -0.7830  0.5068 -0.3744
  221MOL0     N29750   4.485   4.359   7.853  0.3132  0.3638  0.1561
  221MOL0     N29751   4.467   4.287   7.747 -0.5214  0.0432  0.4640
  221MOL0     C29752   3.783   3.259   7.838  0.1803 -0.1502  0.4721
  221MOL0     C29753   3.674   3.206   7.895 -0.1998 -0.5635 -0.2451
  221MOL0     C29754   3.306   3.151   8.164  0.5437  0.3775  0.1068
  221MOL0     C29755   3.200   3.145   8.076 -0.7705  0.6462  0.8803
  221MOL0     C29756   3.070   3.109   8.112  0.0511 -0.8722 -0.4981
  221MOL0     C29757   3.038   3.084   8.241 -0.2682  0.0091 -0.3809
  221MOL0     O29758   2.905   3.051   8.268  0.3531 -0.3891  0.4038
  221MOL0     C29759   2.864   2.971   8.382  0.3705  0.6975 -0.3516
  221MOL0     C29760   2.902   2.820   8.344  0.2104 -0.3909 -0.2856
  221MOL0     C29761   2.789   2.756   8.250  0.6894  0.9720  0.6143
  221MOL0     C29762   2.862   2.729   8.107  0.0545  0.5115  0.6989
  221MOL0     C29763   2.779   2.636   8.042  0.2732  1.0947  0.0673
  221MOL0     C29764   2.715   2.572   7.964  0.2156 -0.4331  0.1033
  221MOL0     C29765   3.143   3.080   8.334  0.0814  0.3257 -0.8471
  221MOL0     C29766   3.273   3.109   8.294 -0.0036  0.3884 -0.7314
  221MOL0     C29767   3.372   3.094   8.409  0.4345  0.1345  0.1363
  221MOL0     H29768   3.477   3.478   7.903 -0.9937 -2.3835  0.6947
  221MOL0     H29769   3.670   3.578   7.787 -3.6150  0.4886  1.1866
  221MOL0     H29770   3.986   3.517   7.911 -2.0915 -0.6961 -0.6964
  221MOL0     H29771   4.041   3.357   7.864  3.8836  0.8582 -1.3458
  221MOL0     H29772   4.142   3.463   7.656  0.1889 -2.4614  1.3786
  221MOL0     H29773   4.208   3.544   7.806 -0.8575  0.4518  0.6499
  221MOL0     H29774   4.050   3.727   7.778  2.3260  1.9192 -0.6224
  221MOL0     H29775   4.004   3.665   7.619 -0.4059 -0.8807  0.0872
  221MOL0     H29776   4.302   3.728   7.681 -2.0250 -1.4066  0.9119
  221MOL0     H29777   4.222   3.728   7.523  3.0033 -0.5646 -0.7405
  221MOL0     H29778   4.102   3.913   7.572  1.8037 -0.6233 -1.3473
  221MOL0     H29779   4.155   3.913   7.749  1.7154 -0.7701  1.0491
  221MOL0     H29780   4.332   3.976   7.509  2.3574 -2.7173  1.2857
  221MOL0     H29781   4.266   4.089   7.634 -0.4063 -0.8601  0.4860
  221MOL0     H29782   4.474   3.862   7.644  0.6204  0.5774  0.9335
  221MOL0     H29783   4.400   3.929   7.793  2.2829 -0.5990  0.4457
  221MOL0     H29784   4.636   4.015   7.700 -1.1089 -1.8323 -0.2444
  221MOL0     H29785   4.535   4.106   7.570 -0.3738  1.6560  0.2113
  221MOL0     H29786   4.588   4.062   7.946  2.3020  1.9228  0.0785
  221MOL0     H29787   4.488   4.303   8.166  0.8765 -1.2692  0.8008
  221MOL0     H29788   4.663   4.306   8.116 -0.3210 -2.0861 -2.0816
  221MOL0     H29789   4.621   4.540   8.028 -0.3285 -2.1019 -2.3641
  221MOL0     H29790   4.455   4.533   8.084 -0.2457  0.0882  0.9521
  221MOL0     H29791   4.600   4.650   8.227  1.3355  0.1392 -1.4890
  221MOL0     H29792   4.688   4.501   8.262  0.0454  3.0255  0.9992
  221MOL0     H29793   4.477   4.429   8.398  0.1512  1.3768  0.3093
  221MOL0     H29794   4.392   4.550   8.312 -0.7690 -1.3715 -0.3051
  221MOL0     H29795   4.573   4.805   8.645 -2.7081 -1.0485 -0.5710
  221MOL0     H29796   4.788   4.809   8.782  2.4505 -0.0665 -0.6136
  221MOL0     H29797   5.258   4.380   8.674 -0.4050  2.0948 -0.1051
  221MOL0     H29798   5.418   4.254   8.809 -1.8998 -0.7225 -2.3266
  221MOL0     H29799   5.470   4.381   9.209  0.3838 -0.6977  0.8787
  221MOL0     H29800   5.372   4.250   9.270 -2.0409  1.9751 -0.8274
  221MOL0     H29801   5.570   4.092   9.252 -0.4320 -0.6226  2.4660
  221MOL0     H29802   5.657   4.228   9.165 -0.0873  2.4320  0.4981
  221MOL0     H29803   5.752   4.249   9.382 -0.3239 -0.2540  1.1378
  221MOL0     H29804   5.630   4.368   9.379  1.2745  0.4318  1.0641
  221MOL0     H29805   5.607   4.095   9.509  2.2825  0.0294  0.4641
  221MOL0     H29806   5.468   4.206   9.499  0.7004  1.8550  1.1927
  221MOL0     H29807   5.530   4.254   9.693  0.5835 -2.3053  0.3766
  221MOL0     H29808   5.619   4.387   9.605  3.0121 -0.5079 -0.8337
  221MOL0     H29809   5.744   4.134   9.708 -2.9648 -0.9324 -1.5505
  221MOL0     H29810   5.820   4.256   9.603  1.0813 -1.6539  0.3438
  221MOL0     H29811   5.758   4.446   9.753 -2.9957 -0.2055 -1.1069
  221MOL0     H29812   5.886   4.341   9.801 -0.0024 -0.1886  0.4911
  221MOL0     H29813   5.600   4.331   9.917 -1.2961 -2.7949  2.0325
  221MOL0     H29814   5.709   4.204   9.946 -2.0821 -0.5806  4.1160
  221MOL0     H29815   5.260   4.416   9.172  2.0777 -1.7312 -0.4199
  221MOL0     H29816   5.086   4.525   9.044  1.8564  4.0529 -0.7575
  221MOL0     H29817   4.900   4.442   8.590 -1.5011 -1.3534  0.5479
  221MOL0     H29818   4.711   4.444   8.456 -1.9979  1.5735 -1.6260
  221MOL0     H29819   3.866   3.194   7.814 -0.6608 -1.0307 -0.1300
  221MOL0     H29820   3.654   3.103   7.922 -1.3106 -0.1513  0.6126
  221MOL0     H29821   3.212   3.174   7.972  0.2598 -1.8335  0.2518
  221MOL0     H29822   2.992   3.102   8.037 -1.0406  0.3843  0.4897
  221MOL0     H29823   2.760   2.986   8.413 -0.2159 -2.1184 -0.7261
  221MOL0     H29824   2.909   3.000   8.477 -4.3233  2.2675  1.6991
  221MOL0     H29825   2.903   2.759   8.436 -3.8571 -0.6007 -0.1995
  221MOL0     H29826   3.001   2.818   8.298  0.8613 -1.8978  1.0550
  221MOL0     H29827   2.697   2.812   8.231 -0.8511 -0.6763  2.7153
  221MOL0     H29828   2.760   2.663   8.299  1.4509  0.1789 -0.3726
  221MOL0     H29829   2.860   2.822   8.049 -1.9836  0.2731  0.3336
  221MOL0     H29830   2.965   2.694   8.123  0.6732  0.6899 -2.1991
  221MOL0     H29831   2.636   2.530   7.905  0.8039 -2.1974  0.5290
  221MOL0     H29832   3.133   3.068   8.441 -1.0860  1.0043 -0.8498
  221MOL0     H29833   3.328   3.040   8.493 -0.4411 -1.9387 -1.5519
  221MOL0     H29834   3.465   3.042   8.389 -0.0005 -0.5468 -0.1484
  221MOL0     H29835   3.394   3.198   8.435 -0.6555  1.5186 -3.6902
  222MOL0     O29836   2.467   6.823  10.787 -0.3938 -0.1866 -0.1571
  222MOL0     C29837   2.565   6.828  10.702  0.6665  0.1132 -0.6182
  222MOL0     O29838   2.613   6.729  10.637 -0.7229  0.8767  0.4859
  222MOL0     C29839   2.581   6.607  10.672  0.0429 -0.4404 -0.3963
  222MOL0     C29840   2.670   6.520  10.738 -0.1427 -0.0885 -0.1012
  222MOL0     C29841   2.635   6.383  10.764 -0.3231  0.6997 -0.6768
  222MOL0     C29842   2.502   6.344  10.732  0.9836  0.5270 -0.7960
  222MOL0     O29843   2.473   6.212  10.755 -0.1758  0.8090  0.0031
  222MOL0     C29844   2.403   6.181  10.875  0.1635 -0.1821  0.0411
  222MOL0     C29845   2.391   6.026  10.893  0.3439 -0.0814  0.3919
  222MOL0     C29846   2.523   5.965  10.936  0.5500  0.4959 -0.0223
  222MOL0     C29847   2.521   5.808  10.914  0.0352 -0.4695 -0.2436
  222MOL0     C29848   2.656   5.742  10.926 -0.2612  0.2959  0.2808
  222MOL0     C29849   2.631   5.588  10.913  0.5071  0.0269  0.3994
  222MOL0     C29850   2.756   5.505  10.882 -0.6293  0.1141  0.1048
  222MOL0     C29851   2.886   5.543  10.956 -0.1602 -0.2931 -0.5134
  222MOL0     N29852   2.887   5.475  11.092  0.4130 -0.0816 -0.5042
  222MOL0     C29853   2.875   5.334  11.115 -0.3961 -0.4496  0.7162
  222MOL0     C29854   2.868   5.329  11.245 -0.2508 -0.3920 -0.0385
  222MOL0     C29855   2.822   5.203  11.313 -0.7470  1.4383  0.9425
  222MOL0     C29856   2.949   5.117  11.314  0.8976  0.0053  0.7163
  222MOL0     C29857   2.915   4.973  11.341 -0.1148  0.7608  0.2946
  222MOL0     C29858   3.035   4.900  11.408 -0.2725  0.6773 -0.4941
  222MOL0     O29859   3.154   4.880  11.325  0.0637 -0.9237 -0.1379
  222MOL0     C29860   3.269   4.849  11.389 -0.1236  0.1647 -0.9710
  222MOL0     C29861   3.373   4.836  11.303 -0.4602 -0.0981 -0.3956
  222MOL0     C29862   3.506   4.791  11.347  0.2798 -0.4719 -0.1956
  222MOL0     C29863   3.527   4.765  11.491 -0.3207  0.0268  0.5460
  222MOL0     C29864   3.652   4.710  11.541 -0.1219 -0.9027  0.1894
  222MOL0     O29865   3.723   4.648  11.441  0.2719  0.7006  0.2483
  222MOL0     C29866   3.844   4.595  11.475  0.4835 -0.9528 -0.4682
  222MOL0     C29867   3.877   4.474  11.424 -0.5018  0.1872  0.6417
  222MOL0     C29868   4.007   4.424  11.454 -0.4089  0.3702 -0.1005
  222MOL0     C29869   4.104   4.488  11.539  0.5110  0.5732 -0.3728
  222MOL0     O29870   4.230   4.432  11.556 -0.0425  0.3754 -0.2100
  222MOL0     C29871   4.300   4.459  11.678 -0.0420  0.2131 -0.1561
  222MOL0     C29872   4.446   4.409  11.659  0.5754 -1.1285 -0.2830
  222MOL0     C29873   4.514   4.399  11.793  0.6216 -0.6775  0.1595
  222MOL0     C29874   4.643   4.319  11.787 -0.9066  0.3794  0.4833
  222MOL0     C29875   4.724   4.306  11.916  0.0369  0.1578 -0.1960
  222MOL0     C29876   4.839   4.198  11.914  0.2928 -0.8921 -0.1303
  222MOL0     C29877   4.933   4.219  12.030  0.2393 -0.3022 -0.9173
  222MOL0     C29878   5.061   4.136  12.033 -0.3225  1.0625  0.2292
  222MOL0    Cl29879   5.192   4.185  11.909  0.2573 -0.6393  0.3737
  222MOL0     C29880   4.064   4.608  11.594  0.7913 -0.4308 -0.2986
  222MOL0     C29881   3.937   4.664  11.562  0.6414  0.3988  0.4347
  222MOL0     O29882   3.672   4.717  11.666  0.5633 -0.8506 -0.6301
  222MOL0     C29883   3.419   4.777  11.577 -0.1193  0.7198  0.2304
  222MOL0     C29884   3.298   4.829  11.529  0.1580  0.8863 -0.1883
  222MOL0     N29885   2.878   5.451  11.306 -0.5260 -0.5507 -0.2121
  222MOL0     N29886   2.896   5.535  11.212 -0.2307 -0.8000  0.0546
  222MOL0     C29887   2.408   6.438  10.685  0.3605 -0.1709 -0.4050
  222MOL0     C29888   2.445   6.570  10.662 -0.0318 -0.0334  0.9368
  222MOL0     C29889   2.631   6.959  10.682 -0.8992  0.0473  0.0889
  222MOL0     C29890   2.751   6.962  10.608  0.8561  0.2751  0.5936
  222MOL0     C29891   2.825   7.082  10.571 -0.1196  0.3588 -0.0737
  222MOL0     C29892   2.777   7.204  10.625 -0.2988 -0.2207 -0.3034
  222MOL0     O29893   2.826   7.330  10.590  0.2042 -0.3976 -0.4424
  222MOL0     C29894   2.968   7.334  10.610  0.7093 -0.8315  1.1326
  222MOL0     C29895   3.009   7.451  10.525 -1.4844  1.3647 -0.3000
  222MOL0     C29896   3.136   7.500  10.593  0.8258 -0.2069 -0.2910
  222MOL0     C29897   3.225   7.583  10.499 -0.4165 -0.1856  0.0821
  222MOL0     C29898   3.343   7.644  10.572  0.1157  0.9221  0.0086
  222MOL0     C29899   3.437   7.696  10.639 -0.2602  0.4384  0.4238
  222MOL0     C29900   2.670   7.199  10.713 -0.3829 -0.7047  0.3689
  222MOL0     C29901   2.588   7.086  10.734 -1.3146 -0.6740  1.0267
  222MOL0     C29902   2.457   7.111  10.801  0.2041  0.3348  0.4785
  222MOL0     H29903   2.771   6.556  10.756  0.4553  0.3984 -3.6652
  222MOL0     H29904   2.704   6.316  10.816  0.4708  2.1598  0.2026
  222MOL0     H29905   2.474   6.219  10.949  2.2485 -2.8452 -0.4102
  222MOL0     H29906   2.309   6.236  10.879  0.1530 -0.2596  2.8617
  222MOL0     H29907   2.342   5.979  10.807  0.5350 -0.1545  0.3231
  222MOL0     H29908   2.321   6.010  10.976  0.3135  2.0592  0.8597
  222MOL0     H29909   2.552   5.981  11.040  0.8649  1.5437 -0.2608
  222MOL0     H29910   2.598   6.002  10.865 -0.3668  0.4246 -1.0461
  222MOL0     H29911   2.443   5.772  10.982 -1.0906  0.9979 -0.6942
  222MOL0     H29912   2.485   5.795  10.811 -1.9479 -2.0182  0.5920
  222MOL0     H29913   2.717   5.781  10.845  0.7659  2.7285  2.1007
  222MOL0     H29914   2.697   5.763  11.025  2.6125 -2.2448 -0.2545
  222MOL0     H29915   2.573   5.545  10.995 -0.8137 -1.4800 -1.2478
  222MOL0     H29916   2.565   5.567  10.828  0.4793 -0.2260  0.4809
  222MOL0     H29917   2.770   5.521  10.774 -3.8841 -2.8131 -0.9469
  222MOL0     H29918   2.744   5.398  10.898  0.0368  0.2337  1.5940
  222MOL0     H29919   2.978   5.511  10.906  0.0576 -1.1237  0.3876
  222MOL0     H29920   2.892   5.651  10.970 -2.5277 -0.4628  3.2856
  222MOL0     H29921   2.856   5.262  11.036 -1.0170  2.5905 -2.1284
  222MOL0     H29922   2.779   5.202  11.414 -2.9916 -0.5025  0.0514
  222MOL0     H29923   2.749   5.153  11.249 -1.3652  0.6324  2.2357
  222MOL0     H29924   2.998   5.122  11.217  0.9793  1.7046  0.8157
  222MOL0     H29925   3.016   5.151  11.394  1.6601 -2.8703  1.4278
  222MOL0     H29926   2.887   4.932  11.244 -1.4319 -0.0437  0.9887
  222MOL0     H29927   2.824   4.952  11.398 -1.6048  1.8605 -1.5489
  222MOL0     H29928   2.990   4.808  11.446 -0.6248  0.7227 -0.7903
  222MOL0     H29929   3.064   4.951  11.500 -0.3746  1.4296 -0.8723
  222MOL0     H29930   3.368   4.846  11.195  3.2167 -1.7574 -0.8759
  222MOL0     H29931   3.591   4.783  11.281  1.6909  0.0269  1.4814
  222MOL0     H29932   3.808   4.423  11.357 -3.3897  0.7768  2.9709
  222MOL0     H29933   4.030   4.327  11.410  2.1741  0.5519  0.6539
  222MOL0     H29934   4.301   4.565  11.705  1.5568  0.6912 -1.8606
  222MOL0     H29935   4.247   4.414  11.763 -0.7877  2.6412  0.7349
  222MOL0     H29936   4.451   4.313  11.607 -0.5032 -1.3076 -0.0759
  222MOL0     H29937   4.506   4.476  11.596 -0.0683  0.5284  0.7937
  222MOL0     H29938   4.527   4.502  11.825 -0.1172 -1.0284  1.7087
  222MOL0     H29939   4.439   4.349  11.856 -0.6956  1.0734  0.0250
  222MOL0     H29940   4.695   4.378  11.711 -2.8498  0.9337 -0.4965
  222MOL0     H29941   4.616   4.218  11.753 -0.3942 -0.0181  1.2274
  222MOL0     H29942   4.647   4.284  11.991 -2.3721  0.9448 -2.3006
  222MOL0     H29943   4.761   4.405  11.944 -2.0249  1.9932 -3.3999
  222MOL0     H29944   4.801   4.096  11.923 -1.5527 -0.2125  0.2092
  222MOL0     H29945   4.897   4.187  11.821 -0.6338  2.1900 -1.1880
  222MOL0     H29946   4.870   4.203  12.118 -0.7255  2.2174 -1.0865
  222MOL0     H29947   4.964   4.324  12.026 -4.5806  1.3503 -1.4290
  222MOL0     H29948   5.106   4.137  12.133 -0.2624 -0.0443  0.2245
  222MOL0     H29949   5.053   4.029  12.011  0.6266  1.6555 -3.8826
  222MOL0     H29950   4.114   4.670  11.668 -1.3289  0.8960  0.1069
  222MOL0     H29951   3.906   4.756  11.610 -3.9284  1.4531 -3.7162
  222MOL0     H29952   3.428   4.759  11.684  3.4858  1.0256  0.0998
  222MOL0     H29953   3.219   4.853  11.599 -1.2694  0.8408 -1.7299
  222MOL0     H29954   2.309   6.408  10.654  0.0844  2.0689 -1.9023
  222MOL0     H29955   2.376   6.630  10.604  1.0656 -0.1215 -0.5109
  222MOL0     H29956   2.793   6.871  10.565  0.5757  1.2448 -1.9355
  222MOL0     H29957   2.910   7.077  10.503 -1.8799 -1.4722 -2.2901
  222MOL0     H29958   3.026   7.246  10.578  0.9721 -0.0742 -0.5981
  222MOL0     H29959   2.996   7.345  10.715  2.9887 -0.4716  0.5446
  222MOL0     H29960   2.930   7.526  10.511  0.7450  3.9011 -0.1183
  222MOL0     H29961   3.030   7.404  10.429 -5.3902 -1.3012 -0.0847
  222MOL0     H29962   3.196   7.420  10.637  0.2805  0.3508  1.5854
  222MOL0     H29963   3.116   7.572  10.673  1.3823 -0.9473  0.5337
  222MOL0     H29964   3.261   7.507  10.429 -0.4970  0.1468 -0.3296
  222MOL0     H29965   3.164   7.652  10.440  1.2644 -0.1189 -1.6969
  222MOL0     H29966   3.530   7.741  10.665 -0.9170  2.3003 -0.3090
  222MOL0     H29967   2.612   7.285  10.744 -1.2117 -0.8727 -0.6527
  222MOL0     H29968   2.470   7.107  10.910 -2.4159 -2.1783  0.8289
  222MOL0     H29969   2.403   7.196  10.759 -0.3161 -0.7720 -1.1779
  222MOL0     H29970   2.390   7.026  10.781 -0.3725  0.5418  1.4875
  223MOL0     O29971   6.205   3.058   6.799 -0.3809 -0.1389 -0.3349
  223MOL0     C29972   6.166   3.032   6.914  0.5189 -0.3710 -0.3930
  223MOL0     O29973   6.257   3.027   7.020  0.5437 -0.0966 -0.5213
  223MOL0     C29974   6.390   2.985   7.013  0.7189 -0.2666  0.4532
  223MOL0     C29975   6.467   3.022   7.120  0.3363 -0.4605 -0.0742
  223MOL0     C29976   6.597   2.971   7.143  0.3804 -1.1098 -0.3388
  223MOL0     C29977   6.650   2.876   7.063  0.1147 -0.4740  0.8339
  223MOL0     O29978   6.776   2.824   7.070  0.2505 -0.5858 -0.1313
  223MOL0     C29979   6.853   2.860   7.190 -0.2475  0.6985  0.0105
  223MOL0     C29980   6.987   2.785   7.184  0.0059  0.1980  0.1273
  223MOL0     C29981   7.078   2.852   7.288 -0.0260 -0.1038  0.0655
  223MOL0     C29982   7.210   2.768   7.305 -0.2467  0.3949 -0.0404
  223MOL0     C29983   7.311   2.812   7.409 -0.2856  0.2871 -0.3733
  223MOL0     C29984   7.368   2.943   7.372  0.5209 -1.7371 -0.3115
  223MOL0     C29985   7.471   2.978   7.482  0.6458  0.9038 -0.8915
  223MOL0     C29986   7.542   3.108   7.454  0.0490 -1.1047  0.4769
  223MOL0     N29987   7.681   3.123   7.499  0.1430  0.1872  0.3764
  223MOL0     C29988   7.716   3.111   7.632  0.1109  0.4140 -0.3254
  223MOL0     C29989   7.829   3.177   7.643 -1.2546  0.3172  0.0670
  223MOL0     C29990   7.910   3.193   7.764  0.0981 -0.1783  0.2993
  223MOL0     C29991   7.903   3.336   7.813 -0.1517 -0.0616  0.2210
  223MOL0     C29992   7.964   3.343   7.950  0.3939  0.0769 -0.5190
  223MOL0     C29993   8.008   3.483   7.977  1.1659  0.9491 -0.6451
  223MOL0     O29994   8.059   3.494   8.108  0.2902 -0.0928 -0.3804
  223MOL0     C29995   8.171   3.577   8.119 -0.0364  0.3154 -1.0725
  223MOL0     C29996   8.267   3.545   8.211  0.1664  0.2384 -0.2585
  223MOL0     C29997   8.379   3.627   8.239 -0.1358  1.4012 -0.1731
  223MOL0     C29998   8.398   3.741   8.164  0.3824 -0.6353  0.1105
  223MOL0     C29999   8.517   3.822   8.177 -0.1595  0.7409 -0.0758
  223MOL0     O30000   8.612   3.777   8.265 -0.0239  1.0721 -0.0667
  223MOL0     C30001   8.714   3.863   8.303  0.8021  0.5092  1.2137
  223MOL0     C30002   8.808   3.899   8.203  0.0387  0.3003 -1.4220
  223MOL0     C30003   8.914   3.979   8.235  0.1152 -1.5294 -0.2026
  223MOL0     C30004   8.921   4.035   8.361  0.6258 -0.4614  0.0920
  223MOL0     O30005   9.018   4.126   8.382  1.0442  0.4966 -0.1848
  223MOL0     C30006   9.085   4.124   8.506  0.0869 -0.6591 -0.5562
  223MOL0     C30007   9.228   4.178   8.476  0.7581  0.7789 -0.7983
  223MOL0     C30008   9.329   4.143   8.585  0.4791  0.8087  0.5064
  223MOL0     C30009   9.305   4.219   8.715 -0.0332 -0.8927  0.5753
  223MOL0     C30010   9.419   4.184   8.813  0.1717  1.3740 -0.5218
  223MOL0     C30011   9.388   4.074   8.918 -0.0079 -0.4444 -0.9936
  223MOL0     C30012   9.331   3.934   8.868 -0.1458 -0.2423  0.0049
  223MOL0     C30013   9.266   3.868   8.989 -0.1091 -0.0237 -0.1764
  223MOL0    Cl30014   9.229   3.690   8.965 -0.4444  0.2329 -0.4858
  223MOL0     C30015   8.824   4.001   8.462 -0.2962  0.0781  0.4302
  223MOL0     C30016   8.720   3.912   8.432  0.3301  0.2842 -0.4354
  223MOL0     O30017   8.525   3.932   8.114  0.5554  0.7904  0.5552
  223MOL0     C30018   8.299   3.770   8.077 -0.0254 -1.0953 -0.2965
  223MOL0     C30019   8.174   3.703   8.058 -0.9527  0.0988 -0.7509
  223MOL0     N30020   7.866   3.224   7.516  0.6646  0.2871  0.4091
  223MOL0     N30021   7.774   3.183   7.434  0.1695 -0.4096 -0.5776
  223MOL0     C30022   6.579   2.829   6.948  0.0462  0.6993  0.7394
  223MOL0     C30023   6.451   2.890   6.932 -0.3387  0.6611  0.5843
  223MOL0     C30024   6.014   3.041   6.949 -0.8147 -0.8680  0.6546
  223MOL0     C30025   5.977   3.024   7.083 -0.0718 -0.3223 -0.8215
  223MOL0     C30026   5.853   3.007   7.127  0.1868 -0.2929 -0.4056
  223MOL0     C30027   5.745   3.026   7.038  0.0110  0.2772  0.2181
  223MOL0     O30028   5.621   3.016   7.093  0.0798  0.1711  0.1405
  223MOL0     C30029   5.505   3.023   7.018  0.0823  0.3987  0.0575
  223MOL0     C30030   5.393   2.971   7.108  1.2073 -1.0268  0.2427
  223MOL0     C30031   5.339   3.091   7.184  0.9388 -0.3193  0.4043
  223MOL0     C30032   5.225   3.153   7.080  1.1229 -0.0416  0.0607
  223MOL0     C30033   5.155   3.272   7.140 -0.6428  0.1777 -0.3126
  223MOL0     C30034   5.097   3.365   7.181  0.4474 -0.5115 -0.2539
  223MOL0     C30035   5.778   3.043   6.898 -0.1961 -0.5567  0.4896
  223MOL0     C30036   5.913   3.042   6.849 -0.3347  0.0776 -0.0978
  223MOL0     C30037   5.929   3.043   6.703 -0.6783  0.1393  0.0232
  223MOL0     H30038   6.427   3.102   7.182 -0.9898 -2.5832  1.9629
  223MOL0     H30039   6.652   3.022   7.222 -1.1251 -0.0598  0.0730
  223MOL0     H30040   6.880   2.966   7.182  5.1174 -0.3194  1.2603
  223MOL0     H30041   6.809   2.843   7.288  3.1304 -4.9376  0.9589
  223MOL0     H30042   7.027   2.782   7.083 -2.5897 -2.3651 -0.9439
  223MOL0     H30043   6.977   2.679   7.209  1.1554  0.2748  1.0236
  223MOL0     H30044   7.020   2.853   7.381  2.6994 -0.5271  1.9041
  223MOL0     H30045   7.106   2.956   7.268 -0.8907  0.4823  1.7059
  223MOL0     H30046   7.169   2.672   7.338  1.4882 -0.4737 -0.2835
  223MOL0     H30047   7.253   2.749   7.206 -1.9716 -1.8007 -0.4708
  223MOL0     H30048   7.273   2.816   7.511  2.0089 -0.9689  0.5888
  223MOL0     H30049   7.383   2.730   7.410 -0.3693  0.1549 -2.1059
  223MOL0     H30050   7.415   2.939   7.273  0.0297 -2.1345 -0.5408
  223MOL0     H30051   7.292   3.021   7.365  2.8010  0.6624  0.2820
  223MOL0     H30052   7.543   2.898   7.499  1.0417  1.0516 -1.8247
  223MOL0     H30053   7.423   2.988   7.580  0.1536  0.5354 -1.0900
  223MOL0     H30054   7.551   3.122   7.346 -0.0990  1.3545  0.7248
  223MOL0     H30055   7.485   3.189   7.500  1.4383 -1.0262  2.1531
  223MOL0     H30056   7.657   3.080   7.718  1.6924  0.9125  0.9878
  223MOL0     H30057   7.876   3.129   7.847  1.0397  0.1408  0.9392
  223MOL0     H30058   8.007   3.149   7.738  0.3454 -0.2387  1.2681
  223MOL0     H30059   7.955   3.408   7.750 -1.1474  0.8972  0.4561
  223MOL0     H30060   7.798   3.364   7.822  0.1553  0.4788  3.2812
  223MOL0     H30061   8.054   3.282   7.958 -0.1776 -0.5715  2.3557
  223MOL0     H30062   7.898   3.311   8.031  1.1457  1.2916  0.6218
  223MOL0     H30063   7.914   3.538   7.981  0.0033 -0.9350 -0.3529
  223MOL0     H30064   8.072   3.522   7.897 -0.1539  1.4667 -1.4921
  223MOL0     H30065   8.252   3.449   8.260  1.5537  1.5522  2.9862
  223MOL0     H30066   8.454   3.603   8.314  2.3542  1.9331 -2.3653
  223MOL0     H30067   8.806   3.849   8.107  0.4567 -2.7240  0.0224
  223MOL0     H30068   8.984   4.001   8.155 -1.8346  1.7496 -1.2032
  223MOL0     H30069   9.036   4.194   8.574  0.7551 -0.4299 -0.2999
  223MOL0     H30070   9.090   4.019   8.536  2.3756 -1.3300 -2.9150
  223MOL0     H30071   9.257   4.116   8.391  2.2478 -1.8834  1.4574
  223MOL0     H30072   9.237   4.285   8.456 -0.8610  0.7678 -1.7351
  223MOL0     H30073   9.339   4.037   8.613  3.2278  0.8905  0.0378
  223MOL0     H30074   9.426   4.150   8.535 -1.1856  0.1852 -3.1306
  223MOL0     H30075   9.208   4.191   8.756 -1.4748  2.4345 -0.1706
  223MOL0     H30076   9.310   4.328   8.703 -4.5824 -0.1547  3.1159
  223MOL0     H30077   9.440   4.278   8.865 -2.3474  1.0494  1.2056
  223MOL0     H30078   9.514   4.150   8.769  1.4604  0.0724  2.9401
  223MOL0     H30079   9.481   4.048   8.968 -0.8379 -1.2113  0.2201
  223MOL0     H30080   9.317   4.112   8.992  1.1577  1.4539 -0.7829
  223MOL0     H30081   9.423   3.881   8.839  0.0591  1.1233 -2.0483
  223MOL0     H30082   9.255   3.931   8.790 -2.3482  1.8249  1.9265
  223MOL0     H30083   9.337   3.869   9.072 -2.8563 -1.8340  2.4117
  223MOL0     H30084   9.171   3.919   9.006  0.3720  0.8294 -0.0113
  223MOL0     H30085   8.820   4.065   8.550 -0.4644 -1.0243  1.2451
  223MOL0     H30086   8.648   3.888   8.509 -0.1940 -0.2435 -1.0820
  223MOL0     H30087   8.304   3.867   8.029  1.2028  0.2020  2.2135
  223MOL0     H30088   8.092   3.730   7.992 -2.7922  0.7103  1.6214
  223MOL0     H30089   6.619   2.751   6.884  1.4102  1.4526  0.6573
  223MOL0     H30090   6.390   2.834   6.862 -1.0965  1.4029  0.6413
  223MOL0     H30091   6.054   3.024   7.159 -0.1197 -0.6228 -0.7758
  223MOL0     H30092   5.841   3.007   7.235  1.1854  0.1567 -0.2852
  223MOL0     H30093   5.512   2.968   6.924  1.9809  0.4819  0.1230
  223MOL0     H30094   5.484   3.127   6.988 -1.4714  0.3324  0.8031
  223MOL0     H30095   5.426   2.897   7.181 -0.1230 -2.6614 -0.7448
  223MOL0     H30096   5.319   2.922   7.044 -0.0701 -0.0871  0.9492
  223MOL0     H30097   5.408   3.175   7.194  0.2541  0.4628 -1.0421
  223MOL0     H30098   5.292   3.053   7.275  1.3541 -0.7216  0.4542
  223MOL0     H30099   5.282   3.198   6.998  1.3808  0.2562  0.4005
  223MOL0     H30100   5.156   3.073   7.054  0.6485 -0.2777  1.9321
  223MOL0     H30101   5.061   3.453   7.230  3.7973  2.0510 -2.0280
  223MOL0     H30102   5.705   3.072   6.823  0.4580  1.5774  0.6087
  223MOL0     H30103   6.013   2.983   6.667 -2.1677 -2.6427  0.8763
  223MOL0     H30104   5.835   3.006   6.660 -1.1274  0.9952  0.2512
  223MOL0     H30105   5.957   3.141   6.663  4.1597  0.1213  2.5882
  224MOL0     O30106   7.015   7.089   0.476  0.4481 -0.6424 -0.1015
  224MOL0     C30107   7.108   7.007   0.472  0.1488 -0.0666  0.4572
  224MOL0     O30108   7.111   6.876   0.450 -0.0743 -0.5616  0.3111
  224MOL0     C30109   6.991   6.811   0.437  1.1274  0.8326 -0.3477
  224MOL0     C30110   6.929   6.779   0.311  0.6623 -0.8399  0.1130
  224MOL0     C30111   6.800   6.732   0.304  0.6456  0.5042 -0.1641
  224MOL0     C30112   6.737   6.696   0.418 -0.1447 -0.2538 -0.6041
  224MOL0     O30113   6.611   6.638   0.427  0.2279 -0.2510  0.0887
  224MOL0     C30114   6.520   6.678   0.322 -0.8059 -0.0714 -0.3955
  224MOL0     C30115   6.385   6.645   0.371  0.7460 -0.6341  0.4563
  224MOL0     C30116   6.266   6.707   0.286  0.3158 -0.7615  0.4825
  224MOL0     C30117   6.236   6.852   0.324  0.3285  0.1972 -0.2755
  224MOL0     C30118   6.092   6.891   0.296  0.1102 -0.2720 -0.3834
  224MOL0     C30119   6.062   7.045   0.274  0.5799 -0.3476 -0.1929
  224MOL0     C30120   6.107   7.132   0.399  0.6357 -0.3069  0.7035
  224MOL0     C30121   6.039   7.089   0.526 -0.1190 -0.3909 -0.2809
  224MOL0     N30122   5.896   7.087   0.518  0.2931 -0.0248  0.1827
  224MOL0     C30123   5.822   6.970   0.497  0.8042 -1.3878 -0.0773
  224MOL0     C30124   5.694   7.009   0.484  0.5842  0.0344  0.0287
  224MOL0     C30125   5.568   6.934   0.454  0.5330  0.1523 -0.2841
  224MOL0     C30126   5.486   6.928   0.582 -0.7435  0.6192 -0.0703
  224MOL0     C30127   5.448   7.065   0.632  0.1321 -0.0997  0.5367
  224MOL0     C30128   5.353   7.141   0.541 -0.0187  0.1540 -0.3250
  224MOL0     O30129   5.271   7.234   0.622  0.1284  0.1601 -0.0967
  224MOL0     C30130   5.201   7.314   0.543  0.2736  0.6467 -0.6836
  224MOL0     C30131   5.276   7.426   0.508 -0.4866  0.3622  0.0990
  224MOL0     C30132   5.216   7.529   0.433 -0.8796  0.1959  0.3184
  224MOL0     C30133   5.078   7.519   0.403 -0.0690 -0.6218 -0.2264
  224MOL0     C30134   5.018   7.636   0.338 -0.1507  0.0006 -0.0357
  224MOL0     O30135   4.908   7.610   0.267  0.4679 -0.4721 -0.9429
  224MOL0     C30136   4.839   7.702   0.204  0.3379  0.3440  0.6024
  224MOL0     C30137   4.782   7.821   0.251  0.2234  0.4716 -0.2192
  224MOL0     C30138   4.707   7.905   0.161  0.3954 -0.1306  0.0076
  224MOL0     C30139   4.694   7.882   0.027  0.8198  0.2329 -0.2690
  224MOL0     O30140   4.622   7.972  -0.045  0.4680 -0.0672 -0.2624
  224MOL0     C30141   4.572   7.929  -0.171  0.5380  0.0506 -0.1872
  224MOL0     C30142   4.667   7.982  -0.281  0.1431 -0.5410  0.1669
  224MOL0     C30143   4.598   7.979  -0.411  0.1121 -1.0075 -0.1935
  224MOL0     C30144   4.696   7.979  -0.532  1.3213  0.2138  0.3025
  224MOL0     C30145   4.625   7.955  -0.668  0.4214 -0.3741  0.1078
  224MOL0     C30146   4.723   7.907  -0.785 -1.0600  0.4107 -0.6179
  224MOL0     C30147   4.814   8.018  -0.824  0.8156  0.3911 -0.5238
  224MOL0     C30148   4.736   8.141  -0.885  0.5000 -0.9849 -0.6182
  224MOL0    Cl30149   4.852   8.270  -0.945  0.1142  0.3132 -0.0520
  224MOL0     C30150   4.742   7.752  -0.015  0.5008 -0.6916  0.2735
  224MOL0     C30151   4.809   7.665   0.070  0.0046  0.3776  0.6227
  224MOL0     O30152   5.061   7.751   0.354  0.6308  0.3368 -0.6293
  224MOL0     C30153   5.005   7.414   0.432 -0.5949  1.1774  0.1703
  224MOL0     C30154   5.068   7.306   0.497  0.1139  0.0056  0.0132
  224MOL0     N30155   5.695   7.146   0.468 -0.1622 -0.5383  0.2247
  224MOL0     N30156   5.814   7.191   0.485 -0.4387 -0.4387  0.7531
  224MOL0     C30157   6.787   6.722   0.538 -0.7195  0.3930 -0.4997
  224MOL0     C30158   6.913   6.775   0.547 -1.0913 -1.0947 -0.7334
  224MOL0     C30159   7.239   7.070   0.513  0.2450 -0.2452 -0.0342
  224MOL0     C30160   7.240   7.216   0.550 -0.5418  0.0371  0.4942
  224MOL0     C30161   7.363   7.281   0.574 -0.1727 -1.0588 -0.0771
  224MOL0     C30162   7.473   7.214   0.597 -0.5013  0.3891  0.0858
  224MOL0     O30163   7.598   7.264   0.637  0.3765  1.3472 -0.0558
  224MOL0     C30164   7.645   7.375   0.554 -0.0926 -0.6888  0.0868
  224MOL0     C30165   7.796   7.377   0.552 -1.2341 -0.1884  0.6613
  224MOL0     C30166   7.851   7.372   0.703  0.0284  0.6531  0.6844
  224MOL0     C30167   7.990   7.431   0.727  1.0038  0.7004 -0.3830
  224MOL0     C30168   8.095   7.412   0.620  0.2370 -0.0420  1.5095
  224MOL0     C30169   8.168   7.385   0.528  0.1296  0.7282  0.3283
  224MOL0     C30170   7.473   7.075   0.590  0.4410 -0.7001  0.1085
  224MOL0     C30171   7.360   7.001   0.545 -0.3463  0.6257  0.0179
  224MOL0     C30172   7.380   6.849   0.539  0.4659  0.1255  0.2012
  224MOL0     H30173   6.986   6.795   0.219 -1.5514 -1.1104 -1.3702
  224MOL0     H30174   6.751   6.719   0.207 -1.2718  2.2821  0.4970
  224MOL0     H30175   6.523   6.781   0.285  0.6176 -1.1431 -3.6360
  224MOL0     H30176   6.541   6.611   0.239  0.4163 -3.1090  2.1547
  224MOL0     H30177   6.360   6.679   0.472 -0.7705  1.5715 -0.5790
  224MOL0     H30178   6.371   6.537   0.371  4.5328 -1.2780 -1.4835
  224MOL0     H30179   6.176   6.648   0.305  0.3837 -1.3571 -0.9313
  224MOL0     H30180   6.292   6.690   0.181 -0.8518  0.3790 -0.0148
  224MOL0     H30181   6.250   6.852   0.433  0.4283  0.4259 -0.2859
  224MOL0     H30182   6.315   6.909   0.274  0.3733  0.5363  0.1689
  224MOL0     H30183   6.078   6.859   0.192 -1.8390 -1.9837  0.3270
  224MOL0     H30184   6.023   6.844   0.367  0.6386 -2.2178 -1.1221
  224MOL0     H30185   6.122   7.071   0.186 -0.9198 -0.5628 -1.3174
  224MOL0     H30186   5.955   7.066   0.263  0.7711  0.3308 -0.9610
  224MOL0     H30187   6.064   7.231   0.378 -0.2625 -1.1012 -1.5166
  224MOL0     H30188   6.216   7.132   0.406  0.7898  1.3644 -0.9073
  224MOL0     H30189   6.079   6.989   0.547 -0.8559 -0.6773 -0.2215
  224MOL0     H30190   6.074   7.155   0.606 -0.4967  0.2520 -0.6375
  224MOL0     H30191   5.859   6.868   0.502  1.9147 -1.1775 -2.6387
  224MOL0     H30192   5.505   6.971   0.373 -2.6127 -0.5258  1.6464
  224MOL0     H30193   5.593   6.831   0.427  1.6425  0.5474 -0.8284
  224MOL0     H30194   5.400   6.868   0.552  0.2653  0.4298 -2.9169
  224MOL0     H30195   5.534   6.886   0.670 -1.2727 -1.4368 -0.7044
  224MOL0     H30196   5.537   7.125   0.654 -0.1490  0.2565  0.7268
  224MOL0     H30197   5.389   7.050   0.723  0.3872 -0.5998  0.6171
  224MOL0     H30198   5.298   7.062   0.489  3.6049 -3.2320  0.5350
  224MOL0     H30199   5.412   7.195   0.467 -0.3917  3.7422  1.7739
  224MOL0     H30200   5.371   7.444   0.557 -1.0853 -0.9860  1.8789
  224MOL0     H30201   5.271   7.618   0.408 -0.8995 -0.4395 -2.2451
  224MOL0     H30202   4.804   7.846   0.355 -0.6691 -2.0945  0.6563
  224MOL0     H30203   4.663   7.998   0.197 -2.9963 -0.6537 -2.3613
  224MOL0     H30204   4.564   7.819  -0.171  0.4582  0.0435 -1.3218
  224MOL0     H30205   4.474   7.973  -0.190  1.5143  2.9257  0.8549
  224MOL0     H30206   4.714   8.079  -0.258  2.5883 -2.2423  3.0979
  224MOL0     H30207   4.747   7.908  -0.277  0.5437 -0.0730  2.4579
  224MOL0     H30208   4.538   7.887  -0.416  0.6830 -1.3409 -1.5958
  224MOL0     H30209   4.537   8.068  -0.428  1.0929 -0.4099 -0.6596
  224MOL0     H30210   4.782   7.916  -0.510  1.3748  1.0434  2.8262
  224MOL0     H30211   4.738   8.079  -0.545 -0.6526  0.8495 -2.0474
  224MOL0     H30212   4.559   8.039  -0.688 -1.2053 -1.4151  0.8826
  224MOL0     H30213   4.562   7.868  -0.645 -2.0567  1.4922  0.7198
  224MOL0     H30214   4.787   7.827  -0.746  0.4730  3.3121  3.5133
  224MOL0     H30215   4.668   7.875  -0.874 -2.9886  0.3171  0.5386
  224MOL0     H30216   4.878   7.988  -0.909  0.8638  1.5378 -0.9063
  224MOL0     H30217   4.884   8.045  -0.745  1.8131 -0.7323 -0.9823
  224MOL0     H30218   4.670   8.113  -0.968  0.2371 -1.9038 -0.1211
  224MOL0     H30219   4.676   8.191  -0.810  2.0060  2.1858 -1.3635
  224MOL0     H30220   4.722   7.724  -0.118 -2.2537  1.0406  0.2199
  224MOL0     H30221   4.863   7.577   0.036  3.3839  2.5251 -0.0600
  224MOL0     H30222   4.901   7.398   0.407 -0.7637  1.2707  0.7999
  224MOL0     H30223   5.010   7.226   0.541  1.8290 -2.1090 -1.3530
  224MOL0     H30224   6.742   6.694   0.633  1.1420  1.4050  0.7352
  224MOL0     H30225   6.950   6.787   0.648 -0.9848  0.8855 -0.9638
  224MOL0     H30226   7.150   7.277   0.550 -0.2732  0.4962 -1.2441
  224MOL0     H30227   7.369   7.388   0.592  0.1008 -1.3835  2.0297
  224MOL0     H30228   7.602   7.464   0.600 -0.8816 -0.5808 -0.8258
  224MOL0     H30229   7.604   7.367   0.453  0.4016  1.3114 -0.3023
  224MOL0     H30230   7.830   7.469   0.504  0.5017 -0.4334  1.3685
  224MOL0     H30231   7.825   7.287   0.498  0.2585  0.9714 -0.5605
  224MOL0     H30232   7.867   7.267   0.731 -0.1332  0.6587  0.8016
  224MOL0     H30233   7.774   7.408   0.772 -0.6996 -0.9843  0.7769
  224MOL0     H30234   7.976   7.538   0.745  0.6550  0.3486  1.6708
  224MOL0     H30235   8.036   7.402   0.822 -0.6760  0.2442  0.3453
  224MOL0     H30236   8.230   7.367   0.443  2.4868  1.8647  1.7237
  224MOL0     H30237   7.562   7.020   0.620 -0.4651 -1.3622  1.7290
  224MOL0     H30238   7.371   6.815   0.435 -0.6163 -0.4787  0.4853
  224MOL0     H30239   7.476   6.811   0.575  0.9636 -3.4392 -3.9757
  224MOL0     H30240   7.309   6.799   0.605 -1.0595  1.3355 -0.4710
  225MOL0     O30241   5.702   9.242   8.562  0.4596 -0.0072  1.0236
  225MOL0     C30242   5.708   9.178   8.663  0.2133 -0.1938  0.3144
  225MOL0     O30243   5.826   9.118   8.705  0.1201 -0.6673  0.1124
  225MOL0     C30244   5.938   9.138   8.634 -1.4182  0.1210 -0.2812
  225MOL0     C30245   5.980   9.269   8.599 -0.8880 -0.3306  0.1000
  225MOL0     C30246   6.100   9.279   8.518 -0.0601  0.2196  0.6189
  225MOL0     C30247   6.179   9.168   8.485  0.4100  0.3610 -0.3001
  225MOL0     O30248   6.292   9.187   8.411  0.4147  0.1664  0.4997
  225MOL0     C30249   6.406   9.228   8.486 -1.0042 -0.7714 -0.1145
  225MOL0     C30250   6.521   9.254   8.375  0.3030 -0.2854 -0.0515
  225MOL0     C30251   6.657   9.241   8.434  0.8515  0.6666  0.2253
  225MOL0     C30252   6.761   9.293   8.335 -0.2731 -0.1870 -0.1159
  225MOL0     C30253   6.881   9.199   8.320 -0.4917 -0.3694 -0.1914
  225MOL0     C30254   6.994   9.254   8.226 -0.0633  0.4620  0.1899
  225MOL0     C30255   7.101   9.148   8.212  0.4295 -0.5782  0.6512
  225MOL0     C30256   7.214   9.183   8.109  0.2438  0.8825 -0.3658
  225MOL0     N30257   7.290   9.066   8.059 -0.3282 -0.1549  0.4933
  225MOL0     C30258   7.355   9.057   7.938 -0.1297 -1.0340  0.7717
  225MOL0     C30259   7.457   8.971   7.952  0.5327  0.2885 -0.7402
  225MOL0     C30260   7.554   8.946   7.846 -0.6344  0.2850  0.4785
  225MOL0     C30261   7.696   8.977   7.895 -0.0443 -0.4079  0.0880
  225MOL0     C30262   7.794   8.931   7.790  0.6332  0.0293 -0.1042
  225MOL0     C30263   7.934   8.966   7.811  0.0507 -0.1083 -0.2962
  225MOL0     O30264   7.956   9.094   7.873  0.1019  1.0989 -0.0007
  225MOL0     C30265   8.077   9.150   7.861 -0.2337 -0.3952 -0.4256
  225MOL0     C30266   8.195   9.084   7.818  0.1950 -0.4077  0.6927
  225MOL0     C30267   8.313   9.155   7.793  0.1055  0.2703 -0.4989
  225MOL0     C30268   8.317   9.292   7.832  0.2742  0.0047  0.2080
  225MOL0     C30269   8.426   9.384   7.795 -0.3016  0.1254  0.0854
  225MOL0     O30270   8.451   9.494   7.869  0.4246 -0.3763  0.1319
  225MOL0     C30271   8.558   9.564   7.850  0.0430 -0.1625  0.0600
  225MOL0     C30272   8.542   9.694   7.880  1.4237  0.6311 -0.0404
  225MOL0     C30273   8.648   9.779   7.911  0.6359  0.7928  0.4444
  225MOL0     C30274   8.782   9.735   7.893 -0.6590 -0.0605 -0.0306
  225MOL0     O30275   8.891   9.822   7.919  0.2285  0.1373  0.0587
  225MOL0     C30276   9.015   9.761   7.958 -0.1666 -0.2644  0.4250
  225MOL0     C30277   9.120   9.863   8.010 -0.2594  0.6550 -0.3844
  225MOL0     C30278   9.257   9.799   8.060  0.0325  0.9393 -0.2872
  225MOL0     C30279   9.369   9.897   8.089  0.0872 -0.9900 -0.1251
  225MOL0     C30280   9.503   9.821   8.132  0.4373 -0.8328 -0.1947
  225MOL0     C30281   9.604   9.929   8.165 -1.0974 -0.3305 -0.2589
  225MOL0     C30282   9.734   9.865   8.223 -0.4217 -0.2327  0.3995
  225MOL0     C30283   9.820   9.976   8.296 -0.4461 -0.1683  0.6686
  225MOL0    Cl30284   9.952   9.894   8.389 -0.3604 -0.4005 -0.1555
  225MOL0     C30285   8.800   9.601   7.839 -0.6830 -1.6340 -0.1428
  225MOL0     C30286   8.694   9.516   7.831  0.1845  0.1586  0.8324
  225MOL0     O30287   8.498   9.349   7.702 -0.6809 -0.4763  0.2435
  225MOL0     C30288   8.205   9.354   7.882  0.4155  0.7466  0.1594
  225MOL0     C30289   8.086   9.286   7.894  0.2554  1.2940 -0.1638
  225MOL0     N30290   7.462   8.930   8.079 -1.1525 -0.4937 -0.4979
  225MOL0     N30291   7.371   8.993   8.147  0.6806  0.2634 -0.2485
  225MOL0     C30292   6.132   9.036   8.519  0.2267 -0.4386 -0.0058
  225MOL0     C30293   6.016   9.021   8.593 -0.7425 -0.1738  0.4502
  225MOL0     C30294   5.587   9.151   8.740 -0.1536 -0.6958  0.7183
  225MOL0     C30295   5.576   9.033   8.813  0.8599 -0.4413 -0.3424
  225MOL0     C30296   5.461   8.993   8.882  0.5332  0.5422  0.5349
  225MOL0     C30297   5.343   9.080   8.874 -0.0919 -0.3376 -0.4792
  225MOL0     O30298   5.223   9.047   8.937 -0.9890 -0.1389  1.2423
  225MOL0     C30299   5.121   8.988   8.848  0.5697  0.0224  1.1780
  225MOL0     C30300   5.080   8.843   8.874 -0.5369 -0.1851  0.2837
  225MOL0     C30301   5.032   8.825   9.022  0.5575  0.0063  1.2676
  225MOL0     C30302   5.056   8.686   9.070 -1.0640  0.1981 -0.2405
  225MOL0     C30303   4.962   8.644   9.173 -0.0315 -1.2663  0.1005
  225MOL0     C30304   4.862   8.603   9.229 -0.9316  0.0697 -0.8288
  225MOL0     C30305   5.351   9.191   8.789 -0.2692 -0.2340 -0.1362
  225MOL0     C30306   5.471   9.238   8.737 -0.6876 -0.1438 -0.6051
  225MOL0     C30307   5.462   9.377   8.675 -0.6710 -1.7418  0.3087
  225MOL0     H30308   5.926   9.352   8.643 -1.8335 -0.7749 -0.1955
  225MOL0     H30309   6.133   9.382   8.507 -2.5297  0.9967 -0.3131
  225MOL0     H30310   6.388   9.320   8.543 -0.5267 -0.8140  0.1052
  225MOL0     H30311   6.435   9.152   8.559 -0.2640  2.2216  3.0007
  225MOL0     H30312   6.507   9.360   8.352 -1.3973 -0.5746 -0.5543
  225MOL0     H30313   6.509   9.193   8.285 -0.2892  0.8301 -0.7463
  225MOL0     H30314   6.660   9.139   8.472 -1.1899  1.4396  2.8120
  225MOL0     H30315   6.662   9.300   8.526  1.9669  0.4749  0.3026
  225MOL0     H30316   6.718   9.288   8.235  0.9331 -1.4772 -0.6047
  225MOL0     H30317   6.787   9.399   8.333 -1.8454  0.2127 -1.4067
  225MOL0     H30318   6.931   9.218   8.415  2.1554  1.3080 -1.7601
  225MOL0     H30319   6.852   9.096   8.301 -1.0975  0.0076 -1.4411
  225MOL0     H30320   6.959   9.281   8.126 -0.9952 -1.5129 -0.0758
  225MOL0     H30321   7.045   9.338   8.273 -1.2859  1.0156  0.5551
  225MOL0     H30322   7.052   9.051   8.204  1.1947 -0.8658 -0.7958
  225MOL0     H30323   7.146   9.141   8.312  0.0853 -0.5695  0.8098
  225MOL0     H30324   7.170   9.228   8.020 -0.4293 -0.2518 -0.6364
  225MOL0     H30325   7.290   9.249   8.150  0.6670  0.4613 -0.4584
  225MOL0     H30326   7.328   9.102   7.843  2.7017 -3.1517 -1.2340
  225MOL0     H30327   7.540   8.844   7.811  0.5472 -0.0164  0.8699
  225MOL0     H30328   7.536   9.028   7.775 -0.8769  1.5009  1.8990
  225MOL0     H30329   7.712   9.083   7.915 -0.9543 -0.4600  1.1767
  225MOL0     H30330   7.714   8.930   7.992 -1.3993  0.4524  0.7929
  225MOL0     H30331   7.762   8.965   7.691 -0.8044 -2.7152 -0.6841
  225MOL0     H30332   7.787   8.822   7.795  2.4436 -0.1939 -1.4948
  225MOL0     H30333   7.973   8.973   7.709  1.0190 -0.4004  0.0433
  225MOL0     H30334   7.992   8.890   7.864 -0.6828 -1.1337 -0.9235
  225MOL0     H30335   8.194   8.981   7.782 -0.0345  0.2703 -1.3345
  225MOL0     H30336   8.401   9.105   7.753  2.2824  3.8618 -0.6042
  225MOL0     H30337   8.443   9.733   7.902  0.6334 -0.4161 -1.5030
  225MOL0     H30338   8.627   9.870   7.966  1.1512  1.1627  0.0384
  225MOL0     H30339   9.002   9.691   8.042 -3.0550  2.3389  2.3901
  225MOL0     H30340   9.052   9.711   7.869 -1.9831  0.6671 -0.9190
  225MOL0     H30341   9.145   9.924   7.922  1.9972 -1.9937 -1.7880
  225MOL0     H30342   9.090   9.931   8.089  3.2040  1.2290  0.6297
  225MOL0     H30343   9.243   9.734   8.146 -3.5206  0.9202 -0.7487
  225MOL0     H30344   9.289   9.740   7.973  0.1701  0.0271  0.3669
  225MOL0     H30345   9.329   9.967   8.163  1.3535 -2.2525  1.8319
  225MOL0     H30346   9.387   9.958   8.000  1.3798 -2.1571 -0.6869
  225MOL0     H30347   9.541   9.763   8.048  1.3174 -3.8615  2.1331
  225MOL0     H30348   9.488   9.753   8.216  0.2974 -4.1027 -2.6989
  225MOL0     H30349   9.636   9.979   8.073  0.2226 -1.1549 -0.2690
  225MOL0     H30350   9.563  10.004   8.234 -2.2446  1.0747 -2.3626
  225MOL0     H30351   9.797   9.828   8.141  2.0918  1.1945  1.5660
  225MOL0     H30352   9.710   9.773   8.277  1.0845 -1.4921 -0.9802
  225MOL0     H30353   9.870  10.035   8.219  1.0695 -2.8159 -0.5193
  225MOL0     H30354   9.758  10.032   8.368  0.8611  0.0605  1.6589
  225MOL0     H30355   8.898   9.568   7.805 -0.1846 -0.0453 -0.3583
  225MOL0     H30356   8.701   9.408   7.821 -4.0763 -0.7172  4.1914
  225MOL0     H30357   8.207   9.456   7.920 -2.6816  1.2277 -0.7314
  225MOL0     H30358   7.995   9.329   7.936  0.4970  0.3332  1.4221
  225MOL0     H30359   6.179   8.943   8.488 -0.8531 -1.6454  1.8225
  225MOL0     H30360   5.986   8.920   8.620 -2.6497  0.0850 -0.5463
  225MOL0     H30361   5.658   8.964   8.829  1.7619  1.0694  2.3734
  225MOL0     H30362   5.464   8.903   8.943  2.5419  0.9279  1.0602
  225MOL0     H30363   5.140   9.000   8.741  0.6266 -3.7877  0.6235
  225MOL0     H30364   5.035   9.055   8.862  1.7314  1.9875 -0.4875
  225MOL0     H30365   5.167   8.778   8.858  1.0844  2.1540 -1.0019
  225MOL0     H30366   4.999   8.819   8.804 -0.8053  0.5295  0.3369
  225MOL0     H30367   4.924   8.846   9.023  0.2716 -1.3610  0.5854
  225MOL0     H30368   5.074   8.897   9.093  2.1502  2.2701 -1.7101
  225MOL0     H30369   5.052   8.608   8.993  0.3271 -0.1496  0.0035
  225MOL0     H30370   5.154   8.686   9.119 -0.9366  3.2947 -0.2932
  225MOL0     H30371   4.781   8.552   9.278  0.6470 -0.5514  1.2771
  225MOL0     H30372   5.255   9.238   8.769  0.8101  1.9143 -0.4829
  225MOL0     H30373   5.458   9.360   8.567  3.1897  1.3421 -0.5788
  225MOL0     H30374   5.374   9.430   8.712  0.7636 -0.1237  1.6008
  225MOL0     H30375   5.549   9.443   8.689 -3.6240  2.8289 -0.9334
  226MOL0     O30376   1.432   4.402   8.808  0.3305  0.8175 -0.0047
  226MOL0     C30377   1.477   4.344   8.706  0.2901 -0.6523 -0.0160
  226MOL0     O30378   1.394   4.279   8.610  0.4120 -0.3649 -0.5767
  226MOL0     C30379   1.270   4.239   8.650  0.3791  0.0673  0.0542
  226MOL0     C30380   1.157   4.286   8.575 -0.4943  0.2630 -0.4503
  226MOL0     C30381   1.028   4.250   8.615  0.1482  1.2358  0.5321
  226MOL0     C30382   1.006   4.155   8.718 -0.3372  0.1276 -0.0273
  226MOL0     O30383   0.885   4.122   8.775 -0.7612 -0.8028 -0.2881
  226MOL0     C30384   0.789   4.069   8.683 -0.5308  0.4699 -0.1564
  226MOL0     C30385   0.769   3.920   8.718 -0.3660 -0.7796 -0.5641
  226MOL0     C30386   0.752   3.881   8.861  0.5957  0.2838 -0.4767
  226MOL0     C30387   0.616   3.945   8.919 -0.9064  0.3227  0.2451
  226MOL0     C30388   0.647   4.060   9.015 -0.3407  0.2584 -0.0233
  226MOL0     C30389   0.513   4.135   9.022 -0.0676  1.0924  0.0091
  226MOL0     C30390   0.528   4.243   9.127  0.2545  0.7781  0.0177
  226MOL0     C30391   0.424   4.364   9.112 -0.7424  0.1451  1.2315
  226MOL0     N30392   0.285   4.326   9.067 -0.1173 -0.0460 -0.2121
  226MOL0     C30393   0.206   4.380   8.971  0.5485  0.8014 -0.0818
  226MOL0     C30394   0.083   4.320   8.983 -1.3571  0.0742  0.0612
  226MOL0     C30395  -0.033   4.339   8.897  0.8725  0.0770 -0.6584
  226MOL0     C30396  -0.098   4.220   8.832  0.7794  0.1090 -0.4848
  226MOL0     C30397  -0.195   4.252   8.715  0.3154 -1.0839 -0.8825
  226MOL0     C30398  -0.226   4.115   8.661 -0.6013 -0.0641 -0.4349
  226MOL0     O30399  -0.346   4.117   8.582 -0.5406 -0.8753  0.8426
  226MOL0     C30400  -0.397   4.006   8.518  0.7018 -0.1951  0.6800
  226MOL0     C30401  -0.507   4.032   8.434  0.7360 -0.3422  1.0719
  226MOL0     C30402  -0.566   3.939   8.344  0.2662  0.4155  0.4025
  226MOL0     C30403  -0.522   3.803   8.353 -0.2184 -0.3151  0.0185
  226MOL0     C30404  -0.563   3.696   8.263  0.0939 -0.3023 -0.0732
  226MOL0     O30405  -0.661   3.725   8.173  0.0488 -0.2598 -0.3318
  226MOL0     C30406  -0.722   3.626   8.097  0.8330 -0.2716  0.1697
  226MOL0     C30407  -0.773   3.509   8.152 -0.4852 -0.4100  0.2039
  226MOL0     C30408  -0.807   3.403   8.074  0.8639 -0.2236  0.0643
  226MOL0     C30409  -0.800   3.409   7.934  0.2777  0.5298 -0.2557
  226MOL0     O30410  -0.839   3.313   7.850 -0.0112 -0.2757 -0.2373
  226MOL0     C30411  -0.943   3.222   7.888  0.1818 -0.0919  0.4513
  226MOL0     C30412  -0.973   3.132   7.766 -0.5114 -0.0188 -0.3103
  226MOL0     C30413  -0.862   3.031   7.765  1.2122 -0.6773  0.0435
  226MOL0     C30414  -0.895   2.911   7.675  0.1785  0.2067  0.6524
  226MOL0     C30415  -0.997   2.806   7.718  0.0364 -0.2982  0.6287
  226MOL0     C30416  -0.972   2.749   7.857 -0.2704  0.2422 -0.5257
  226MOL0     C30417  -1.049   2.619   7.891 -0.0813  0.2398  0.0936
  226MOL0     C30418  -1.011   2.560   8.023  0.3686 -0.3615  0.2077
  226MOL0    Cl30419  -1.073   2.681   8.155  0.0474 -0.0691 -0.1187
  226MOL0     C30420  -0.745   3.523   7.879 -0.1800  0.1771 -0.0512
  226MOL0     C30421  -0.704   3.629   7.948 -0.2976 -0.4774 -0.4982
  226MOL0     O30422  -0.501   3.596   8.269  0.1419 -0.3763  0.5655
  226MOL0     C30423  -0.417   3.774   8.450 -0.9685 -0.4406  0.6623
  226MOL0     C30424  -0.347   3.875   8.524  0.9339 -0.2887 -0.1770
  226MOL0     N30425   0.095   4.230   9.094 -0.8684 -0.4481  0.0454
  226MOL0     N30426   0.213   4.236   9.139 -0.6731 -0.4610 -0.4652
  226MOL0     C30427   1.117   4.121   8.802 -0.3765  0.1901  0.7558
  226MOL0     C30428   1.245   4.166   8.764  0.3105  0.7584 -0.2152
  226MOL0     C30429   1.619   4.369   8.665  1.2099 -0.7590 -0.1395
  226MOL0     C30430   1.651   4.391   8.533 -1.6570 -0.4646 -0.5602
  226MOL0     C30431   1.775   4.429   8.497  0.0109 -0.3032 -0.1003
  226MOL0     C30432   1.881   4.454   8.596  0.0585  0.4814 -0.5747
  226MOL0     O30433   2.001   4.515   8.567  0.3325  0.5434  0.8620
  226MOL0     C30434   2.054   4.535   8.439 -0.5024  0.1816  0.5057
  226MOL0     C30435   2.189   4.608   8.462  0.6900  0.2723  0.3338
  226MOL0     C30436   2.167   4.743   8.523  0.3229 -0.0833 -0.2529
  226MOL0     C30437   2.294   4.827   8.513  0.0256  0.0596  0.4276
  226MOL0     C30438   2.396   4.778   8.603  0.6822 -0.1835 -0.0363
  226MOL0     C30439   2.477   4.732   8.675 -1.3860  0.5358 -0.8771
  226MOL0     C30440   1.843   4.438   8.729 -0.1646  0.2191 -0.0042
  226MOL0     C30441   1.720   4.398   8.765  0.4113  0.3300  0.5018
  226MOL0     C30442   1.709   4.377   8.918  0.6208  0.3012  0.3858
  226MOL0     H30443   1.164   4.348   8.487  1.2477  0.7885  0.0225
  226MOL0     H30444   0.946   4.295   8.560  2.6850  1.8886 -3.0828
  226MOL0     H30445   0.697   4.127   8.694 -0.5297  0.3628  0.4341
  226MOL0     H30446   0.822   4.078   8.579 -2.2659 -1.4647 -0.9444
  226MOL0     H30447   0.849   3.864   8.669 -0.9537 -1.7343 -0.4812
  226MOL0     H30448   0.684   3.883   8.660 -0.5399 -0.8553 -0.2652
  226MOL0     H30449   0.839   3.903   8.924  0.5186  1.8989 -0.8927
  226MOL0     H30450   0.742   3.772   8.865 -1.9118  0.4944  2.2544
  226MOL0     H30451   0.551   3.989   8.843 -0.7558  1.3785  0.7181
  226MOL0     H30452   0.575   3.857   8.970  3.9171 -1.2105  2.0776
  226MOL0     H30453   0.689   4.025   9.111  1.4770 -2.0584 -1.5224
  226MOL0     H30454   0.728   4.116   8.968  1.4053 -2.3548 -0.3673
  226MOL0     H30455   0.488   4.178   8.924  2.5498 -2.8722 -2.7040
  226MOL0     H30456   0.444   4.058   9.057  1.0499  0.2481  0.4282
  226MOL0     H30457   0.628   4.284   9.106  1.3510 -1.4025  0.7456
  226MOL0     H30458   0.526   4.205   9.229 -0.6093  0.5759 -0.0688
  226MOL0     H30459   0.421   4.424   9.203 -3.5251  1.5381  0.3361
  226MOL0     H30460   0.473   4.417   9.030 -0.1251  0.4028  1.7597
  226MOL0     H30461   0.237   4.447   8.891 -0.4012  0.0374 -1.1142
  226MOL0     H30462  -0.107   4.383   8.964  2.5454  0.7802  0.8022
  226MOL0     H30463  -0.015   4.418   8.824  0.3693  1.6891  0.9108
  226MOL0     H30464  -0.024   4.149   8.794  1.9457  0.3113  1.3084
  226MOL0     H30465  -0.144   4.162   8.912  2.5340 -1.9872 -0.8984
  226MOL0     H30466  -0.154   4.323   8.642 -1.4447  2.1924  1.0455
  226MOL0     H30467  -0.288   4.303   8.745  1.1267  0.5705 -1.0545
  226MOL0     H30468  -0.253   4.046   8.742  1.1670  0.8798  1.0412
  226MOL0     H30469  -0.149   4.063   8.603 -0.5264  0.4433 -0.7981
  226MOL0     H30470  -0.553   4.130   8.431 -3.0235 -1.7817 -4.8028
  226MOL0     H30471  -0.637   3.960   8.264 -2.0323 -0.2254  2.1657
  226MOL0     H30472  -0.777   3.501   8.260 -0.8625  2.1514  0.4503
  226MOL0     H30473  -0.841   3.309   8.117  1.7601 -1.2387 -1.3704
  226MOL0     H30474  -0.919   3.159   7.975 -0.1800 -0.9235 -0.0336
  226MOL0     H30475  -1.033   3.278   7.915 -0.3882 -1.4904  1.5779
  226MOL0     H30476  -1.061   3.068   7.782 -1.7868  1.7243 -0.0774
  226MOL0     H30477  -0.994   3.180   7.670 -0.6160  0.4120 -0.0748
  226MOL0     H30478  -0.773   3.080   7.726 -0.2924  0.8539 -1.6329
  226MOL0     H30479  -0.848   2.989   7.865 -4.4735 -1.0860  0.9674
  226MOL0     H30480  -0.803   2.855   7.661  0.3488  0.9262 -1.5010
  226MOL0     H30481  -0.932   2.959   7.584  3.5484  3.5682  0.8013
  226MOL0     H30482  -0.984   2.725   7.645  0.4521 -0.1170  0.5024
  226MOL0     H30483  -1.098   2.849   7.717  0.8045  1.6556  1.7082
  226MOL0     H30484  -0.870   2.717   7.879 -0.0344  0.5479 -1.1654
  226MOL0     H30485  -0.990   2.821   7.938  0.3020  0.3080 -0.4556
  226MOL0     H30486  -1.018   2.549   7.812 -0.3077  0.6521 -0.3626
  226MOL0     H30487  -1.158   2.616   7.889 -0.3276 -3.1743  4.0020
  226MOL0     H30488  -1.054   2.460   8.031  1.7860 -1.2459 -2.0263
  226MOL0     H30489  -0.902   2.548   8.023  0.6114  1.5342  0.1680
  226MOL0     H30490  -0.751   3.537   7.772 -0.6933 -0.8333 -0.1628
  226MOL0     H30491  -0.653   3.715   7.905 -1.0494 -0.1611 -0.7882
  226MOL0     H30492  -0.390   3.669   8.461 -2.9954 -1.1667 -0.5866
  226MOL0     H30493  -0.259   3.850   8.583  1.7753 -0.6775 -1.5560
  226MOL0     H30494   1.104   4.069   8.896 -1.9922  2.0357  1.6104
  226MOL0     H30495   1.327   4.158   8.835 -0.2433  1.2219  0.4926
  226MOL0     H30496   1.580   4.378   8.452 -0.9150  3.7219 -2.1363
  226MOL0     H30497   1.794   4.423   8.390  1.4980 -1.2140  0.1804
  226MOL0     H30498   1.993   4.586   8.363  0.0587  1.4191  0.8577
  226MOL0     H30499   2.073   4.435   8.398 -0.3960  0.3562  0.1233
  226MOL0     H30500   2.236   4.628   8.366  0.7444 -0.4948  0.1974
  226MOL0     H30501   2.257   4.553   8.528  3.1663  0.6976 -1.7260
  226MOL0     H30502   2.138   4.742   8.628 -3.0072  0.7938 -1.0348
  226MOL0     H30503   2.088   4.792   8.465 -1.5371  0.2554  2.4008
  226MOL0     H30504   2.334   4.831   8.412 -1.5174 -1.3884 -0.2892
  226MOL0     H30505   2.268   4.927   8.548  4.2719  1.0753  1.1776
  226MOL0     H30506   2.556   4.685   8.730 -1.1610  3.6644  1.7891
  226MOL0     H30507   1.920   4.458   8.803 -1.2627 -0.8428  1.5013
  226MOL0     H30508   1.813   4.366   8.951  0.9320  0.6453 -0.4281
  226MOL0     H30509   1.659   4.465   8.959  0.9504  1.4253 -1.4766
  226MOL0     H30510   1.656   4.284   8.941  3.5065 -1.7257 -0.5752
  227MOL0     O30511   6.231  11.256   5.158  0.7361  0.1749  0.1767
  227MOL0     C30512   6.202  11.202   5.265  0.2662  0.5584 -0.8357
  227MOL0     O30513   6.287  11.127   5.341  0.0528 -0.8994 -0.5967
  227MOL0     C30514   6.419  11.163   5.319 -0.3983 -0.0013 -0.2453
  227MOL0     C30515   6.498  11.127   5.205 -0.1122  0.1578 -0.5603
  227MOL0     C30516   6.632  11.161   5.196  0.6637  0.1222 -0.7005
  227MOL0     C30517   6.694  11.241   5.292  0.5397  0.8184  0.0538
  227MOL0     O30518   6.823  11.290   5.290 -0.0829  0.0902  0.7296
  227MOL0     C30519   6.922  11.262   5.189  0.4319  0.1304 -0.6095
  227MOL0     C30520   7.062  11.321   5.223  0.4075  0.8199 -0.1602
  227MOL0     C30521   7.171  11.310   5.120  0.6543 -0.5184 -0.1544
  227MOL0     C30522   7.299  11.352   5.169 -0.4104  0.0172  0.1657
  227MOL0     C30523   7.406  11.337   5.054 -1.0996  0.2664 -1.0437
  227MOL0     C30524   7.539  11.399   5.087  0.5193 -0.2402 -0.4916
  227MOL0     C30525   7.636  11.386   4.978 -0.0321 -0.3906 -0.5238
  227MOL0     C30526   7.768  11.466   4.997  0.6624 -0.3913 -0.5268
  227MOL0     N30527   7.870  11.397   5.067  0.6610 -0.0271 -0.4229
  227MOL0     C30528   7.912  11.275   5.036 -0.0384  0.4773 -0.0158
  227MOL0     C30529   8.020  11.255   5.117 -1.2513  0.2359 -0.0302
  227MOL0     C30530   8.088  11.119   5.129  0.3242 -0.1411 -0.1953
  227MOL0     C30531   8.018  11.025   5.224  0.2658  0.7067 -0.3752
  227MOL0     C30532   7.909  10.942   5.160 -0.3694  0.0984  0.6921
  227MOL0     C30533   7.770  11.005   5.186 -0.0145 -0.0085 -0.1875
  227MOL0     O30534   7.684  10.948   5.095 -0.0395  0.5333  0.0567
  227MOL0     C30535   7.556  10.920   5.137  0.8974 -0.3199 -0.2578
  227MOL0     C30536   7.492  10.800   5.114 -0.4277 -0.8062  0.1069
  227MOL0     C30537   7.361  10.770   5.151  0.4694 -0.5107 -0.2903
  227MOL0     C30538   7.289  10.872   5.222 -0.8120  1.3219 -0.0215
  227MOL0     C30539   7.142  10.836   5.253 -0.3935  0.6315  0.2969
  227MOL0     O30540   7.076  10.742   5.176  0.0465  0.3956  0.2102
  227MOL0     C30541   6.939  10.727   5.199 -0.9195 -0.0976  0.5992
  227MOL0     C30542   6.904  10.599   5.230 -0.0920  0.0987 -0.8501
  227MOL0     C30543   6.773  10.572   5.274  0.6786  0.2238  0.1514
  227MOL0     C30544   6.674  10.667   5.258  1.1548 -0.6905  0.5558
  227MOL0     O30545   6.537  10.652   5.291 -0.2208 -0.2453  0.6524
  227MOL0     C30546   6.514  10.600   5.426  0.0956  0.5215 -0.2639
  227MOL0     C30547   6.361  10.570   5.439 -0.3413  0.3398  0.7639
  227MOL0     C30548   6.283  10.703   5.419 -0.7578  1.3526 -0.1969
  227MOL0     C30549   6.140  10.679   5.466 -0.4704  1.0478  0.0290
  227MOL0     C30550   6.037  10.775   5.399  0.1388  0.0905  0.0253
  227MOL0     C30551   5.898  10.780   5.460 -0.1560  0.6567 -0.5187
  227MOL0     C30552   5.826  10.648   5.453 -0.5322  1.2518  0.3682
  227MOL0     C30553   5.818  10.587   5.306  0.5171  0.5976 -0.0602
  227MOL0    Cl30554   5.712  10.437   5.322  0.0759  0.2896 -0.3597
  227MOL0     C30555   6.710  10.794   5.211 -0.5057 -0.3445 -0.4347
  227MOL0     C30556   6.845  10.821   5.191  1.0498 -0.6542 -1.2682
  227MOL0     O30557   7.085  10.911   5.329 -0.5125 -0.4835  0.1089
  227MOL0     C30558   7.353  10.990   5.263  0.3850  0.4836 -0.5227
  227MOL0     C30559   7.484  11.017   5.215 -0.6129 -0.1879  0.2186
  227MOL0     N30560   8.050  11.369   5.183  0.1353 -0.0574 -0.6258
  227MOL0     N30561   7.955  11.459   5.151 -0.0202  0.6998 -0.1916
  227MOL0     C30562   6.615  11.281   5.403  0.4314 -0.6693 -0.1925
  227MOL0     C30563   6.482  11.241   5.415  0.0050 -0.4904 -0.0507
  227MOL0     C30564   6.060  11.204   5.292 -0.1858  0.4022 -0.8108
  227MOL0     C30565   5.977  11.138   5.206  0.0688 -0.0789 -0.2967
  227MOL0     C30566   5.842  11.121   5.244 -0.7905 -0.2164 -0.3921
  227MOL0     C30567   5.788  11.167   5.368  0.3505 -0.2339 -0.0540
  227MOL0     O30568   5.656  11.150   5.414 -0.1572 -0.0359  0.1059
  227MOL0     C30569   5.565  11.074   5.337  0.2816 -0.2637  0.4968
  227MOL0     C30570   5.425  11.128   5.369 -0.4006 -0.0765  0.2122
  227MOL0     C30571   5.406  11.267   5.310  0.9880 -0.4128  0.8329
  227MOL0     C30572   5.267  11.334   5.344 -1.1464 -0.0989  0.3423
  227MOL0     C30573   5.156  11.287   5.271  0.1023 -0.1566 -0.8577
  227MOL0     C30574   5.052  11.243   5.225 -0.0022  0.2506 -0.4063
  227MOL0     C30575   5.874  11.234   5.448 -0.6253  0.1076 -0.1353
  227MOL0     C30576   6.014  11.252   5.417  0.9503 -0.5163  0.1915
  227MOL0     C30577   6.104  11.310   5.519 -0.0251  0.6411  0.0986
  227MOL0     H30578   6.450  11.060   5.134 -0.3691  2.0672 -2.2949
  227MOL0     H30579   6.687  11.121   5.112  0.1376 -1.8260 -0.1607
  227MOL0     H30580   6.933  11.153   5.182 -2.0851 -0.0870 -2.5886
  227MOL0     H30581   6.904  11.304   5.090  2.5726 -0.6233 -1.3695
  227MOL0     H30582   7.095  11.266   5.313  0.4084  0.6545 -0.2606
  227MOL0     H30583   7.043  11.424   5.255  0.1025  0.6963  0.0706
  227MOL0     H30584   7.137  11.362   5.030 -1.7579  1.0426  1.5331
  227MOL0     H30585   7.177  11.201   5.108 -0.9446 -0.6836  0.3443
  227MOL0     H30586   7.300  11.454   5.208  0.4271 -0.5041  1.5858
  227MOL0     H30587   7.337  11.288   5.249 -0.2266  1.6915  1.4621
  227MOL0     H30588   7.420  11.230   5.033  1.3635  0.1101  0.8926
  227MOL0     H30589   7.366  11.395   4.970 -2.4837 -1.0861 -1.3747
  227MOL0     H30590   7.522  11.506   5.103  3.2798  0.0774  0.8032
  227MOL0     H30591   7.563  11.348   5.181 -0.8229 -1.0007 -0.5307
  227MOL0     H30592   7.590  11.431   4.889 -1.0935  1.0639  0.7084
  227MOL0     H30593   7.656  11.279   4.966  0.9771 -0.1655 -0.9440
  227MOL0     H30594   7.807  11.509   4.905  1.1488  0.9045  0.2494
  227MOL0     H30595   7.750  11.552   5.062  0.8447 -1.9173  1.6812
  227MOL0     H30596   7.862  11.203   4.972 -1.0347  1.0145  0.1452
  227MOL0     H30597   8.081  11.080   5.027 -0.1006  3.7367 -1.8205
  227MOL0     H30598   8.197  11.123   5.140  0.8647  0.2577 -4.0639
  227MOL0     H30599   8.097  10.962   5.267  0.7250  1.1012 -0.6421
  227MOL0     H30600   7.979  11.069   5.316 -1.4787 -0.4221 -0.5248
  227MOL0     H30601   7.896  10.844   5.208  3.6753 -1.4045 -0.7881
  227MOL0     H30602   7.931  10.931   5.054 -0.9270  0.9317  0.4815
  227MOL0     H30603   7.776  11.113   5.167  2.1075  0.0790  0.6421
  227MOL0     H30604   7.739  10.987   5.289  2.2104 -3.3974  0.0462
  227MOL0     H30605   7.545  10.728   5.053 -1.8346 -3.7178  2.1000
  227MOL0     H30606   7.320  10.675   5.119  0.9194 -1.6350  2.2060
  227MOL0     H30607   6.976  10.519   5.238  0.9956  1.0512 -0.8459
  227MOL0     H30608   6.741  10.475   5.310 -3.9656  1.5757  0.3257
  227MOL0     H30609   6.559  10.502   5.444 -0.7848  0.4159  1.6159
  227MOL0     H30610   6.564  10.662   5.502  1.7555 -0.5080 -0.4777
  227MOL0     H30611   6.339  10.494   5.364 -1.0995 -0.8308  2.1106
  227MOL0     H30612   6.340  10.537   5.541 -1.9558  4.2857  1.9116
  227MOL0     H30613   6.322  10.786   5.479  2.5931 -0.6136  0.5877
  227MOL0     H30614   6.276  10.731   5.313  1.0136 -0.2498 -0.7955
  227MOL0     H30615   6.142  10.696   5.574  1.1918 -0.5813  0.2905
  227MOL0     H30616   6.110  10.575   5.455  1.3319  0.7140 -2.2054
  227MOL0     H30617   6.032  10.765   5.291 -1.5855  1.2914 -0.0509
  227MOL0     H30618   6.089  10.869   5.419 -0.8280  0.9297 -1.2948
  227MOL0     H30619   5.899  10.823   5.561 -2.4910  1.9973 -0.9755
  227MOL0     H30620   5.842  10.846   5.392  1.7992  1.5848 -1.3118
  227MOL0     H30621   5.723  10.665   5.486  0.0208  0.0155  3.0746
  227MOL0     H30622   5.873  10.581   5.526 -1.5456  0.9847  0.7928
  227MOL0     H30623   5.786  10.662   5.232  2.0259  3.4413  1.9656
  227MOL0     H30624   5.912  10.561   5.256 -0.4381  1.5255 -2.5046
  227MOL0     H30625   6.632  10.870   5.210 -0.0102  0.1822 -0.2181
  227MOL0     H30626   6.883  10.920   5.169  1.3034 -0.8130 -1.5540
  227MOL0     H30627   7.305  11.066   5.323 -0.2709  0.7979 -1.4245
  227MOL0     H30628   7.524  11.114   5.243 -1.9533  0.8739 -1.3815
  227MOL0     H30629   6.651  11.338   5.488  1.2642 -0.7308 -0.4953
  227MOL0     H30630   6.428  11.278   5.502 -1.0770 -4.4943  1.1676
  227MOL0     H30631   6.013  11.083   5.119 -1.3077 -1.4155 -0.0650
  227MOL0     H30632   5.778  11.051   5.190  1.8214 -1.8227 -1.6200
  227MOL0     H30633   5.576  10.968   5.362  2.8013 -0.2461 -0.3323
  227MOL0     H30634   5.578  11.095   5.231 -0.3561  2.4792  0.8659
  227MOL0     H30635   5.393  11.135   5.474  0.0463 -0.6785  0.3922
  227MOL0     H30636   5.361  11.053   5.321 -0.8059  1.8988 -2.5876
  227MOL0     H30637   5.426  11.264   5.202  2.3547 -0.3969  1.0592
  227MOL0     H30638   5.490  11.329   5.344  0.2499 -0.8036  3.5429
  227MOL0     H30639   5.245  11.320   5.450  0.5644  0.0285  0.7347
  227MOL0     H30640   5.282  11.440   5.320  0.2840 -0.8062 -2.2821
  227MOL0     H30641   4.956  11.204   5.198 -0.1441  1.0519 -1.0827
  227MOL0     H30642   5.841  11.249   5.550 -0.2120  2.4012 -0.2844
  227MOL0     H30643   6.040  11.376   5.580 -2.6734 -1.1184 -0.5873
  227MOL0     H30644   6.154  11.232   5.576 -0.3939 -1.0870 -1.8472
  227MOL0     H30645   6.176  11.375   5.468 -2.5018  2.6016 -1.1704
  228MOL0     O30646   7.438   5.258   1.960 -0.1859  0.3146  0.2904
  228MOL0     C30647   7.411   5.346   2.034 -0.2570 -1.1955  0.5417
  228MOL0     O30648   7.493   5.436   2.085 -0.3548 -0.4147 -0.0693
  228MOL0     C30649   7.630   5.418   2.064 -0.2114  0.9614 -0.4301
  228MOL0     C30650   7.716   5.392   2.177  1.5126 -0.1157  0.6321
  228MOL0     C30651   7.850   5.380   2.166  0.8291  0.0795 -0.0776
  228MOL0     C30652   7.912   5.403   2.043 -0.4321 -0.0966  0.5498
  228MOL0     O30653   8.048   5.409   2.043  0.2753 -0.2832  0.8981
  228MOL0     C30654   8.115   5.532   2.007 -0.7216  0.6079  0.4921
  228MOL0     C30655   8.214   5.485   1.895 -1.0510  0.1826 -0.0140
  228MOL0     C30656   8.323   5.602   1.882 -0.0674  0.2175  0.0013
  228MOL0     C30657   8.437   5.582   1.780  0.4165  0.2137 -0.1077
  228MOL0     C30658   8.531   5.703   1.790 -0.5841  0.2001  0.0189
  228MOL0     C30659   8.650   5.698   1.698  0.0987  0.6814 -0.2170
  228MOL0     C30660   8.664   5.822   1.614  0.3108 -0.8058 -0.7863
  228MOL0     C30661   8.779   5.806   1.509  0.1093  0.3195 -0.1788
  228MOL0     N30662   8.766   5.907   1.405  0.2767  0.2771  0.3389
  228MOL0     C30663   8.682   5.889   1.304  0.2591  0.3328  1.1277
  228MOL0     C30664   8.682   6.010   1.242 -0.9645 -0.2603  0.1874
  228MOL0     C30665   8.605   6.029   1.117  0.0010  0.1848 -0.1209
  228MOL0     C30666   8.703   5.983   1.000  0.2931  0.2786  0.4344
  228MOL0     C30667   8.647   6.019   0.866  0.6466  0.5549  0.4809
  228MOL0     C30668   8.738   5.945   0.764 -0.1697  0.5824  0.6097
  228MOL0     O30669   8.668   5.953   0.642  0.0878  0.0760  0.1000
  228MOL0     C30670   8.682   6.057   0.557 -0.7793 -0.1526  0.3524
  228MOL0     C30671   8.745   6.181   0.590  0.1367  0.8849  0.3080
  228MOL0     C30672   8.751   6.286   0.499  0.3922  0.0883  1.0742
  228MOL0     C30673   8.711   6.266   0.364 -0.4118  0.4694  0.2897
  228MOL0     C30674   8.737   6.374   0.255  0.1160  0.3515 -0.1398
  228MOL0     O30675   8.684   6.350   0.131  0.0861 -0.9939 -0.3034
  228MOL0     C30676   8.702   6.451   0.041 -1.2531 -0.2084 -1.0372
  228MOL0     C30677   8.800   6.436  -0.065  0.0431  0.7156 -0.8266
  228MOL0     C30678   8.819   6.533  -0.164 -0.5936 -0.4822 -0.9819
  228MOL0     C30679   8.755   6.652  -0.145 -0.0356 -0.3193  0.6527
  228MOL0     O30680   8.767   6.749  -0.247  0.0680 -0.3762  0.1821
  228MOL0     C30681   8.864   6.843  -0.221 -0.1712 -0.4222 -0.2068
  228MOL0     C30682   8.812   6.959  -0.126  0.0022  0.3329 -0.0931
  228MOL0     C30683   8.693   7.035  -0.166  0.8999 -0.6516  0.3206
  228MOL0     C30684   8.722   7.115  -0.292  0.8245 -0.7719 -0.2128
  228MOL0     C30685   8.625   7.236  -0.310 -0.5636  0.5220  0.8243
  228MOL0     C30686   8.490   7.189  -0.369  0.1825 -0.1608  0.0612
  228MOL0     C30687   8.516   7.133  -0.516  0.6545 -0.4869  0.0096
  228MOL0     C30688   8.398   7.184  -0.610  0.1373  1.5121  0.1602
  228MOL0    Cl30689   8.429   7.351  -0.646  0.3912  0.1547  0.2153
  228MOL0     C30690   8.674   6.672  -0.034  0.0210 -0.0261 -0.7368
  228MOL0     C30691   8.641   6.576   0.058  0.2381 -0.7443 -0.7239
  228MOL0     O30692   8.805   6.469   0.291 -0.5371 -0.2868  0.2187
  228MOL0     C30693   8.666   6.137   0.322 -0.2930 -0.5401  0.0850
  228MOL0     C30694   8.655   6.032   0.425 -0.2494 -0.0572  0.6649
  228MOL0     N30695   8.772   6.095   1.304 -0.3322 -0.1567  1.5043
  228MOL0     N30696   8.828   6.030   1.405  0.6648 -0.7732  0.3664
  228MOL0     C30697   7.831   5.430   1.925  0.3577  0.7039 -0.7369
  228MOL0     C30698   7.686   5.438   1.942 -0.2550  0.4215 -0.3720
  228MOL0     C30699   7.268   5.353   2.083 -0.2299  0.4232 -0.5419
  228MOL0     C30700   7.252   5.393   2.214 -0.0880 -0.3120 -0.3325
  228MOL0     C30701   7.130   5.414   2.269 -0.0016  1.0205  0.0771
  228MOL0     C30702   7.015   5.390   2.199 -0.3431  0.1782  0.6378
  228MOL0     O30703   6.896   5.399   2.267 -0.0325 -0.3032  0.6280
  228MOL0     C30704   6.777   5.436   2.189  0.7172  1.0808 -0.4032
  228MOL0     C30705   6.677   5.321   2.175  0.6192  1.1003 -0.3247
  228MOL0     C30706   6.631   5.271   2.316 -0.4655 -0.2549  0.5482
  228MOL0     C30707   6.541   5.151   2.313  0.5459 -0.1226  0.1769
  228MOL0     C30708   6.398   5.182   2.283  0.2383  1.1682  0.7515
  228MOL0     C30709   6.280   5.214   2.281 -0.1236 -0.5795 -0.3409
  228MOL0     C30710   7.024   5.341   2.071 -0.8766 -0.0597 -0.0745
  228MOL0     C30711   7.149   5.329   2.006 -0.5021 -0.7630 -0.5019
  228MOL0     C30712   7.147   5.287   1.865  0.2920 -0.5260  0.9460
  228MOL0     H30713   7.662   5.385   2.270 -1.5683 -0.5979 -1.0772
  228MOL0     H30714   7.907   5.373   2.257  0.8890  0.1484 -0.1097
  228MOL0     H30715   8.051   5.617   1.982 -2.8346 -0.6503  1.3447
  228MOL0     H30716   8.172   5.575   2.090 -1.0075  3.2350 -0.5775
  228MOL0     H30717   8.168   5.471   1.797  0.9682 -1.6588 -0.7789
  228MOL0     H30718   8.250   5.396   1.947 -1.0312 -0.4180 -1.0361
  228MOL0     H30719   8.371   5.599   1.980  1.1702  0.6407 -0.5715
  228MOL0     H30720   8.269   5.694   1.857  0.0938  0.5908  0.9751
  228MOL0     H30721   8.480   5.482   1.794 -0.1329 -0.2272 -1.3620
  228MOL0     H30722   8.395   5.577   1.679 -2.1678  0.5312  0.8799
  228MOL0     H30723   8.472   5.794   1.773 -0.9799  0.3435  1.9588
  228MOL0     H30724   8.576   5.718   1.889  1.5786  3.2580 -1.2506
  228MOL0     H30725   8.739   5.688   1.761 -0.4712  0.5459  0.5689
  228MOL0     H30726   8.660   5.611   1.631 -1.3393  1.0014 -0.8945
  228MOL0     H30727   8.688   5.896   1.691  1.0348  0.6680 -2.3557
  228MOL0     H30728   8.570   5.851   1.566 -0.9667  0.7145  2.4055
  228MOL0     H30729   8.869   5.806   1.572 -0.8556 -2.8437  1.4275
  228MOL0     H30730   8.778   5.703   1.472 -0.5592 -0.1230  0.9906
  228MOL0     H30731   8.634   5.800   1.266 -1.8099  1.9483 -0.3282
  228MOL0     H30732   8.516   5.965   1.118  1.0826 -1.4837 -1.9424
  228MOL0     H30733   8.577   6.134   1.113 -1.2974 -0.1627 -0.9859
  228MOL0     H30734   8.799   6.035   1.009  0.2098  0.3120  1.2952
  228MOL0     H30735   8.734   5.879   1.019  2.4338  1.4457  4.6413
  228MOL0     H30736   8.638   6.126   0.849 -1.5184  0.2310 -0.7683
  228MOL0     H30737   8.543   5.987   0.865  0.9465 -0.4667 -0.7020
  228MOL0     H30738   8.756   5.840   0.789 -2.1560  0.0143 -0.1886
  228MOL0     H30739   8.834   5.998   0.758 -1.6729  3.4833 -0.0395
  228MOL0     H30740   8.769   6.212   0.691  1.9491  1.6913 -0.3368
  228MOL0     H30741   8.777   6.389   0.520 -1.4752  0.1888  3.2671
  228MOL0     H30742   8.843   6.336  -0.074  2.3867  1.5311  0.3449
  228MOL0     H30743   8.885   6.525  -0.249  1.2320  7.6569 -1.1147
  228MOL0     H30744   8.956   6.794  -0.188 -0.0650  0.2412  0.5082
  228MOL0     H30745   8.895   6.893  -0.313  1.0343  0.9583  0.9223
  228MOL0     H30746   8.786   6.900  -0.038 -0.9785  0.6264 -0.1727
  228MOL0     H30747   8.895   7.029  -0.115  0.1717  0.2897 -0.9776
  228MOL0     H30748   8.607   6.973  -0.196  2.2653 -1.4833 -2.1452
  228MOL0     H30749   8.671   7.102  -0.082 -2.7269  0.6548 -1.4688
  228MOL0     H30750   8.715   7.041  -0.372 -1.7340  0.0847 -0.8986
  228MOL0     H30751   8.823   7.156  -0.297  0.6141 -0.1861  0.1622
  228MOL0     H30752   8.675   7.306  -0.377  3.2570  0.0621  2.8531
  228MOL0     H30753   8.609   7.291  -0.217 -3.1106  0.9271  0.2234
  228MOL0     H30754   8.438   7.111  -0.313  0.3133 -1.0769 -1.0615
  228MOL0     H30755   8.436   7.284  -0.378  2.7839  1.1715 -4.8664
  228MOL0     H30756   8.522   7.024  -0.517 -1.3756 -0.6680  1.7848
  228MOL0     H30757   8.611   7.181  -0.543 -0.8886  1.6106 -2.0544
  228MOL0     H30758   8.399   7.116  -0.695  2.2844  0.6949  0.7524
  228MOL0     H30759   8.306   7.177  -0.551  0.4689  0.5024  0.5799
  228MOL0     H30760   8.618   6.765  -0.030  0.9154  0.5524 -1.2966
  228MOL0     H30761   8.578   6.605   0.142  1.1407  0.8993 -0.5827
  228MOL0     H30762   8.649   6.129   0.215  1.9787  2.2251 -0.6101
  228MOL0     H30763   8.626   5.933   0.391 -1.0941  1.2280 -2.7281
  228MOL0     H30764   7.863   5.451   1.823 -1.2819 -1.9375 -1.9213
  228MOL0     H30765   7.628   5.464   1.855  0.0238  1.1267 -0.3497
  228MOL0     H30766   7.346   5.410   2.267 -0.4813  0.3241  0.1660
  228MOL0     H30767   7.129   5.432   2.376  1.3120  1.7911 -0.0111
  228MOL0     H30768   6.805   5.474   2.091  0.3276 -0.3004 -1.0693
  228MOL0     H30769   6.726   5.516   2.244  0.7033  0.3646  0.6657
  228MOL0     H30770   6.720   5.238   2.119 -0.4398  0.3963 -0.1292
  228MOL0     H30771   6.590   5.357   2.118 -0.0604  1.0275  0.6478
  228MOL0     H30772   6.573   5.353   2.358  1.0104  1.4797 -0.6197
  228MOL0     H30773   6.722   5.246   2.371  0.2504 -2.3048 -1.4200
  228MOL0     H30774   6.563   5.091   2.224 -0.9452  0.0432 -0.3489
  228MOL0     H30775   6.553   5.093   2.405 -1.7491 -0.8179  0.1077
  228MOL0     H30776   6.180   5.247   2.260  0.1648 -0.0464 -0.9350
  228MOL0     H30777   6.938   5.308   2.013 -1.3642  0.4797  0.3317
  228MOL0     H30778   7.214   5.205   1.837  3.2250  0.6925  3.7507
  228MOL0     H30779   7.044   5.261   1.839  0.7244 -0.0049 -1.5554
  228MOL0     H30780   7.180   5.371   1.804 -1.1588  0.8857  2.0424
  229MOL0     O30781   5.126   5.446   1.821 -0.4168 -0.1205  0.5182
  229MOL0     C30782   5.015   5.457   1.847  1.0213  0.1017 -0.0624
  229MOL0     O30783   4.963   5.555   1.926  0.9270  0.6433 -0.0345
  229MOL0     C30784   5.033   5.665   1.948  0.3060  0.9067 -0.2682
  229MOL0     C30785   5.007   5.770   1.861 -0.1981 -0.0984  0.4674
  229MOL0     C30786   5.087   5.887   1.866 -0.3338 -1.0488  0.0999
  229MOL0     C30787   5.190   5.893   1.962 -0.5366  1.1860  0.5080
  229MOL0     O30788   5.262   6.012   1.971  0.1618  0.4032 -1.0861
  229MOL0     C30789   5.345   6.047   1.860 -0.6912  0.1109 -0.3751
  229MOL0     C30790   5.427   6.176   1.899 -0.1535 -0.2869 -0.3604
  229MOL0     C30791   5.523   6.143   2.012  0.0668 -0.2682  0.1779
  229MOL0     C30792   5.645   6.235   2.018 -0.4581 -1.4642 -1.0586
  229MOL0     C30793   5.767   6.195   2.109 -0.3257 -0.4932  0.6586
  229MOL0     C30794   5.863   6.305   2.137  0.4024 -0.0015 -0.7102
  229MOL0     C30795   6.008   6.259   2.144 -0.8898 -0.1583  0.5087
  229MOL0     C30796   6.031   6.176   2.264  0.6179  0.1809 -0.3471
  229MOL0     N30797   6.166   6.173   2.302 -0.0692  1.3203 -0.6871
  229MOL0     C30798   6.239   6.059   2.322 -0.0372  0.3298 -0.3643
  229MOL0     C30799   6.362   6.105   2.368  0.5908  0.8869  0.6099
  229MOL0     C30800   6.483   6.028   2.379 -0.7806  0.9703  0.4597
  229MOL0     C30801   6.598   6.101   2.326 -0.9037  0.6699  0.7814
  229MOL0     C30802   6.733   6.064   2.398 -0.6317 -0.3334  0.4296
  229MOL0     C30803   6.851   6.118   2.323 -0.4567  0.1304 -0.1513
  229MOL0     O30804   6.979   6.094   2.393  0.3706 -0.2047 -0.0064
  229MOL0     C30805   7.097   6.126   2.335 -0.0284  0.0991  0.1065
  229MOL0     C30806   7.125   6.115   2.198  0.4403 -0.6919 -0.8210
  229MOL0     C30807   7.253   6.140   2.147 -0.8108 -0.1353  0.0932
  229MOL0     C30808   7.350   6.179   2.243  0.3118 -0.2890 -0.0661
  229MOL0     C30809   7.492   6.199   2.197 -0.6129  0.1111 -0.3689
  229MOL0     O30810   7.594   6.210   2.289 -0.3349  0.8722 -0.3373
  229MOL0     C30811   7.728   6.231   2.270 -0.2291  0.3527 -0.3504
  229MOL0     C30812   7.826   6.209   2.373 -0.9555  0.4288 -0.4906
  229MOL0     C30813   7.966   6.235   2.361 -1.2628 -0.2896 -0.6517
  229MOL0     C30814   8.005   6.278   2.235 -0.4039 -0.8209 -0.2777
  229MOL0     O30815   8.129   6.322   2.195  0.0948 -0.0421  0.1229
  229MOL0     C30816   8.250   6.250   2.245  0.4204  0.5126 -0.1177
  229MOL0     C30817   8.264   6.112   2.176 -0.0437 -0.6428 -0.6743
  229MOL0     C30818   8.234   6.124   2.024 -0.7298  1.3942 -0.4561
  229MOL0     C30819   8.263   5.989   1.950  1.2174  0.6326  0.0891
  229MOL0     C30820   8.244   6.006   1.794  0.1625  0.1156 -0.0190
  229MOL0     C30821   8.344   6.098   1.726 -0.1616  0.4664  0.3593
  229MOL0     C30822   8.334   6.094   1.575  0.1332 -0.3609 -0.4886
  229MOL0     C30823   8.193   6.104   1.513 -0.8177 -0.7467  0.1311
  229MOL0    Cl30824   8.095   6.248   1.575 -0.5633  0.3252 -0.3352
  229MOL0     C30825   7.916   6.304   2.139 -0.8116 -0.0660  0.2730
  229MOL0     C30826   7.780   6.284   2.150 -0.0671 -0.2542 -0.5652
  229MOL0     O30827   7.512   6.202   2.077  0.1657 -0.3197 -0.5792
  229MOL0     C30828   7.328   6.185   2.374  0.6924 -0.5334 -0.1944
  229MOL0     C30829   7.205   6.167   2.426 -0.0519 -0.3460 -0.1823
  229MOL0     N30830   6.342   6.242   2.402 -0.0566  0.2046 -0.2120
  229MOL0     N30831   6.228   6.278   2.361 -0.2213 -0.0790 -0.1183
  229MOL0     C30832   5.202   5.781   2.055  0.1686 -0.1963 -0.6965
  229MOL0     C30833   5.127   5.671   2.043  0.6035  0.8790  0.3899
  229MOL0     C30834   4.908   5.373   1.785 -0.6959  0.0490 -0.7971
  229MOL0     C30835   4.771   5.411   1.797 -0.2696  0.4852 -0.1151
  229MOL0     C30836   4.673   5.323   1.742 -0.1542 -0.3376 -0.1446
  229MOL0     C30837   4.704   5.208   1.670 -0.4589 -0.0920 -0.5317
  229MOL0     O30838   4.600   5.133   1.613  0.0123  0.1224 -0.4893
  229MOL0     C30839   4.620   4.991   1.581 -0.1663  0.1224  1.4245
  229MOL0     C30840   4.478   4.936   1.533  0.8360 -0.5666 -0.6995
  229MOL0     C30841   4.375   4.928   1.654  1.0074 -0.1965 -0.0663
  229MOL0     C30842   4.253   4.837   1.613  0.0427 -0.9469 -0.1609
  229MOL0     C30843   4.168   4.810   1.730 -0.5660  0.6708 -0.2463
  229MOL0     C30844   4.090   4.776   1.818  0.0188  0.6550 -0.9562
  229MOL0     C30845   4.836   5.178   1.646  0.6893  0.5479 -0.7733
  229MOL0     C30846   4.940   5.251   1.711 -0.5430  0.4396  0.0010
  229MOL0     C30847   5.076   5.204   1.671 -0.3008  0.1688 -0.6007
  229MOL0     H30848   4.930   5.756   1.786  0.2100 -0.6669  0.1470
  229MOL0     H30849   5.079   5.969   1.795 -1.4872 -1.6906 -0.5357
  229MOL0     H30850   5.414   5.964   1.838 -0.9727  0.2605 -1.9053
  229MOL0     H30851   5.293   6.077   1.769 -1.0625  2.2660  0.5058
  229MOL0     H30852   5.361   6.259   1.926  2.1716  0.8376  2.3075
  229MOL0     H30853   5.485   6.205   1.811 -1.1636  1.8074 -0.3870
  229MOL0     H30854   5.557   6.042   1.992 -0.1425 -0.1675 -0.7031
  229MOL0     H30855   5.477   6.140   2.111  2.2713  3.2175  1.5220
  229MOL0     H30856   5.676   6.250   1.914 -0.2925  0.3454 -0.7716
  229MOL0     H30857   5.611   6.330   2.060  0.1532 -0.0216 -3.6042
  229MOL0     H30858   5.739   6.142   2.200  0.9212 -4.9617 -1.2887
  229MOL0     H30859   5.826   6.121   2.053  1.7108  3.0670 -2.4496
  229MOL0     H30860   5.855   6.390   2.068 -0.7314  2.5586  2.3270
  229MOL0     H30861   5.829   6.346   2.232  2.0044  0.4807 -0.3255
  229MOL0     H30862   6.065   6.352   2.138 -0.2241 -0.6575 -4.5629
  229MOL0     H30863   6.029   6.202   2.054  1.2730  1.2040  0.0798
  229MOL0     H30864   5.979   6.214   2.352  3.4739  0.3287  1.3997
  229MOL0     H30865   5.989   6.076   2.249  0.1172  0.5414 -1.4779
  229MOL0     H30866   6.219   5.957   2.291  0.6212 -0.0062  0.2583
  229MOL0     H30867   6.506   6.016   2.486 -0.1725  0.9586  0.3346
  229MOL0     H30868   6.476   5.930   2.330  0.4045  0.9784  0.2425
  229MOL0     H30869   6.607   6.087   2.217 -1.7667  1.1964  0.6352
  229MOL0     H30870   6.580   6.208   2.340 -0.8766  0.9557 -1.0904
  229MOL0     H30871   6.744   5.956   2.415 -0.7876 -0.6175 -1.1637
  229MOL0     H30872   6.731   6.119   2.492  0.8556 -0.2583  0.4500
  229MOL0     H30873   6.837   6.225   2.307 -3.2545  0.0122  0.9371
  229MOL0     H30874   6.858   6.055   2.234 -1.2237 -1.5169  0.9095
  229MOL0     H30875   7.039   6.102   2.133  1.2594  0.6145 -2.2330
  229MOL0     H30876   7.275   6.140   2.041 -1.1441 -1.6480  0.0060
  229MOL0     H30877   7.783   6.184   2.469 -0.4847  1.6931  0.0763
  229MOL0     H30878   8.029   6.219   2.448 -2.5547 -0.1146  0.3606
  229MOL0     H30879   8.336   6.315   2.224  0.9056  0.0836  0.5172
  229MOL0     H30880   8.243   6.227   2.352  4.4374 -1.8722 -0.1654
  229MOL0     H30881   8.363   6.071   2.199 -0.3728 -2.2516 -1.9993
  229MOL0     H30882   8.201   6.042   2.231  1.3512 -0.3840  1.4096
  229MOL0     H30883   8.126   6.135   2.010 -1.4369 -1.2222  1.9617
  229MOL0     H30884   8.298   6.198   1.975  0.7214 -1.5186 -3.2650
  229MOL0     H30885   8.193   5.908   1.974  2.3081 -0.2280  0.4870
  229MOL0     H30886   8.365   5.953   1.971  0.8871 -0.5132 -0.1648
  229MOL0     H30887   8.149   6.054   1.770  1.2256  2.4345  0.1616
  229MOL0     H30888   8.247   5.909   1.742 -1.8590  0.6657 -1.2918
  229MOL0     H30889   8.338   6.205   1.748 -1.7057  0.6779 -0.8792
  229MOL0     H30890   8.440   6.061   1.762  0.3964  0.3042 -1.2296
  229MOL0     H30891   8.378   6.003   1.531 -0.7355 -0.6658 -0.7517
  229MOL0     H30892   8.398   6.176   1.540  0.6951 -0.6768 -0.2264
  229MOL0     H30893   8.200   6.109   1.404 -0.6723  0.0628  0.1683
  229MOL0     H30894   8.150   6.005   1.531  2.2202 -2.2806 -0.2705
  229MOL0     H30895   7.947   6.355   2.049 -0.4573 -0.2626  0.2795
  229MOL0     H30896   7.707   6.319   2.077 -3.8850 -0.1821  2.9123
  229MOL0     H30897   7.406   6.214   2.444  0.5894 -1.6509  0.4072
  229MOL0     H30898   7.189   6.184   2.532 -0.7586 -2.6072  0.1195
  229MOL0     H30899   5.279   5.782   2.131 -0.7929 -1.7329  0.3641
  229MOL0     H30900   5.145   5.581   2.101 -1.0057  1.2907  1.5987
  229MOL0     H30901   4.736   5.510   1.823 -0.8030  1.2380 -3.1976
  229MOL0     H30902   4.569   5.340   1.771 -1.5039 -2.2520 -3.3984
  229MOL0     H30903   4.662   4.938   1.667 -0.5823 -1.5297  0.6524
  229MOL0     H30904   4.682   4.971   1.494 -3.4283 -4.4609 -0.2368
  229MOL0     H30905   4.482   4.832   1.498  1.3281 -0.2544 -1.5975
  229MOL0     H30906   4.443   5.011   1.461 -0.7414  2.5242  2.9623
  229MOL0     H30907   4.338   5.026   1.685  2.2772  0.0466  0.7605
  229MOL0     H30908   4.429   4.877   1.734  3.4259  1.0688 -0.8027
  229MOL0     H30909   4.191   4.900   1.548 -1.0936 -1.7380  0.1310
  229MOL0     H30910   4.285   4.742   1.569 -0.5339  0.0932 -3.0619
  229MOL0     H30911   4.025   4.742   1.896  3.3149 -1.6738  1.0124
  229MOL0     H30912   4.865   5.095   1.583 -0.0724  2.0969 -3.2957
  229MOL0     H30913   5.082   5.095   1.675  3.8973  0.2719  0.0587
  229MOL0     H30914   5.099   5.239   1.570  0.5036 -1.1637 -0.8920
  229MOL0     H30915   5.155   5.236   1.740  0.6158  2.1306 -2.4287
  230MOL0     O30916   3.441  11.374   8.555  0.3983  0.5825  0.2717
  230MOL0     C30917   3.562  11.378   8.589 -0.0376  0.0499 -0.0597
  230MOL0     O30918   3.648  11.275   8.572 -0.1599 -0.7995 -0.2573
  230MOL0     C30919   3.603  11.152   8.543 -0.0564  1.0654 -0.3652
  230MOL0     C30920   3.668  11.080   8.445  0.0036 -0.4889  0.2073
  230MOL0     C30921   3.633  10.949   8.399 -0.5541 -0.4022 -0.4135
  230MOL0     C30922   3.512  10.897   8.443 -0.3709 -0.4095  0.3159
  230MOL0     O30923   3.485  10.773   8.393  0.4010  0.4368 -0.1410
  230MOL0     C30924   3.378  10.705   8.460 -0.1842  0.1998 -0.6347
  230MOL0     C30925   3.328  10.582   8.376 -1.0849  0.5405 -0.0049
  230MOL0     C30926   3.206  10.515   8.447 -0.3926  1.1716  0.7585
  230MOL0     C30927   3.249  10.439   8.567 -0.6484 -0.5259  0.2279
  230MOL0     C30928   3.148  10.337   8.625 -0.6725 -0.1882  0.4114
  230MOL0     C30929   3.118  10.217   8.540  1.1837 -0.1971 -0.9583
  230MOL0     C30930   3.238  10.130   8.510  0.1941 -0.5943  0.7703
  230MOL0     C30931   3.302  10.074   8.643  0.4188 -0.4886  0.4668
  230MOL0     N30932   3.384   9.954   8.632 -0.0987 -0.0238 -0.3482
  230MOL0     C30933   3.505   9.937   8.703  0.6967 -0.0813 -0.6762
  230MOL0     C30934   3.553   9.821   8.657 -0.0456  1.1945 -0.6685
  230MOL0     C30935   3.668   9.736   8.703  0.4622  0.6908  0.1106
  230MOL0     C30936   3.810   9.797   8.667 -0.9618  0.3153  0.3504
  230MOL0     C30937   3.929   9.706   8.711  0.3901 -0.8578  0.3844
  230MOL0     C30938   4.056   9.784   8.682 -0.1364 -0.2176  0.2687
  230MOL0     O30939   4.155   9.741   8.771 -0.6497 -0.6450 -0.4820
  230MOL0     C30940   4.286   9.731   8.736 -1.0615  0.1404  0.9884
  230MOL0     C30941   4.373   9.630   8.775  0.0392  0.2441  0.6301
  230MOL0     C30942   4.509   9.625   8.730 -0.6704  0.3227 -0.1089
  230MOL0     C30943   4.560   9.713   8.638 -0.0723  0.2438 -0.3824
  230MOL0     C30944   4.709   9.707   8.602 -0.6447  0.0746 -0.8837
  230MOL0     O30945   4.799   9.677   8.707  0.1255  0.3703 -0.1105
  230MOL0     C30946   4.928   9.667   8.660  0.1463 -1.3896  0.1247
  230MOL0     C30947   5.026   9.746   8.722 -0.6461  0.1640 -0.2424
  230MOL0     C30948   5.165   9.742   8.685  0.2631 -0.4343 -0.3571
  230MOL0     C30949   5.198   9.663   8.573 -0.4399  0.3093 -0.0629
  230MOL0     O30950   5.322   9.653   8.515 -0.5485 -0.3476  0.2993
  230MOL0     C30951   5.433   9.718   8.571  0.8556 -0.0230  0.7318
  230MOL0     C30952   5.434   9.861   8.521  0.1152 -1.0362  1.2931
  230MOL0     C30953   5.556   9.930   8.568  0.2852 -0.1295 -0.4212
  230MOL0     C30954   5.555  10.082   8.535 -0.1170 -0.5512 -0.9504
  230MOL0     C30955   5.499  10.169   8.651  0.2773  0.0997  0.8989
  230MOL0     C30956   5.522  10.319   8.603 -0.4613 -0.2253 -0.8344
  230MOL0     C30957   5.450  10.415   8.700  0.1811 -0.1218  1.0136
  230MOL0     C30958   5.487  10.413   8.848 -0.1793 -0.9822 -0.0181
  230MOL0    Cl30959   5.408  10.537   8.950  0.0554 -0.2377 -0.3629
  230MOL0     C30960   5.105   9.581   8.508  0.2310 -0.3119  0.0079
  230MOL0     C30961   4.974   9.584   8.554 -0.2027 -0.1227 -0.1054
  230MOL0     O30962   4.743   9.728   8.489  0.7411  0.0369 -0.0948
  230MOL0     C30963   4.476   9.816   8.597  0.3077 -0.6300  0.1446
  230MOL0     C30964   4.344   9.827   8.648 -0.3092 -0.3582 -0.2484
  230MOL0     N30965   3.472   9.774   8.564 -0.3709  0.3673  0.2619
  230MOL0     N30966   3.364   9.851   8.551 -0.5367  0.3525  0.0716
  230MOL0     C30967   3.435  10.973   8.536 -0.0516 -0.3149  0.7782
  230MOL0     C30968   3.482  11.096   8.584 -0.3835 -0.1169 -0.0759
  230MOL0     C30969   3.613  11.503   8.651  0.4388  0.4813  0.7240
  230MOL0     C30970   3.723  11.493   8.737  0.3649  0.2909 -0.5250
  230MOL0     C30971   3.770  11.595   8.821 -0.7383  0.0955 -0.4175
  230MOL0     C30972   3.710  11.720   8.799 -0.1983  0.3036  0.4120
  230MOL0     O30973   3.756  11.833   8.859 -0.3993 -0.2579 -0.0178
  230MOL0     C30974   3.859  11.831   8.951 -0.0551 -0.2960  0.2190
  230MOL0     C30975   3.880  11.975   8.979  0.4803  0.0257  0.5187
  230MOL0     C30976   3.963  12.061   8.876  0.0610 -0.3766 -0.0641
  230MOL0     C30977   4.035  12.191   8.928  0.2243 -0.3188  0.5194
  230MOL0     C30978   4.147  12.139   9.002 -0.0789  0.9371 -0.3045
  230MOL0     C30979   4.251  12.095   9.046 -0.5367 -0.3523  0.0617
  230MOL0     C30980   3.601  11.741   8.714 -1.3163  1.0149 -0.2822
  230MOL0     C30981   3.551  11.629   8.647  0.3287  0.5310  0.6027
  230MOL0     C30982   3.437  11.659   8.560  0.7664 -0.0254 -0.5125
  230MOL0     H30983   3.758  11.123   8.404 -0.8073  0.8824 -0.1845
  230MOL0     H30984   3.686  10.898   8.320 -2.9202 -1.5827 -1.3516
  230MOL0     H30985   3.406  10.691   8.565 -0.4862  1.2076 -0.4023
  230MOL0     H30986   3.296  10.778   8.454  2.2323  3.2247  0.2275
  230MOL0     H30987   3.410  10.511   8.362 -2.0102 -0.3358 -1.1915
  230MOL0     H30988   3.298  10.605   8.274  0.4930  2.2276 -0.1432
  230MOL0     H30989   3.151  10.449   8.378  0.2603  1.9671 -0.5635
  230MOL0     H30990   3.129  10.586   8.477 -1.8449  0.1148 -0.2881
  230MOL0     H30991   3.348  10.395   8.555  0.4815  1.0344  2.8677
  230MOL0     H30992   3.273  10.512   8.644  2.0504 -2.1830  1.0901
  230MOL0     H30993   3.187  10.291   8.716 -2.1286 -0.0160  1.1581
  230MOL0     H30994   3.058  10.392   8.654 -0.1075  3.2626 -3.4745
  230MOL0     H30995   3.043  10.153   8.589  0.7855  1.7359  1.1233
  230MOL0     H30996   3.073  10.244   8.444 -1.2878  1.6219  0.6081
  230MOL0     H30997   3.298  10.190   8.441 -2.4497  0.1414 -1.0678
  230MOL0     H30998   3.200  10.050   8.446  1.3545  1.1846 -2.3288
  230MOL0     H30999   3.360  10.146   8.702  3.0403 -0.7684 -1.5960
  230MOL0     H31000   3.216  10.051   8.707 -0.9228 -0.8076 -1.3435
  230MOL0     H31001   3.541   9.998   8.785  1.1903 -0.3308 -0.7051
  230MOL0     H31002   3.669   9.715   8.810 -0.0563  0.8619  0.1537
  230MOL0     H31003   3.640   9.635   8.670 -0.7348  0.3106  2.1151
  230MOL0     H31004   3.827   9.814   8.561 -0.9991 -1.9232 -0.0655
  230MOL0     H31005   3.814   9.898   8.708 -0.3724  0.8205 -0.9217
  230MOL0     H31006   3.925   9.603   8.674  0.1267 -1.8531  2.9451
  230MOL0     H31007   3.922   9.709   8.821 -0.3551 -0.4884  0.3310
  230MOL0     H31008   4.051   9.892   8.698 -1.4769 -0.0431 -1.0249
  230MOL0     H31009   4.080   9.772   8.576  2.0956  2.1601  0.3909
  230MOL0     H31010   4.339   9.551   8.842  1.7326  0.8387  2.2944
  230MOL0     H31011   4.577   9.552   8.772 -0.5230  1.8570  2.5554
  230MOL0     H31012   4.988   9.810   8.801  0.8206 -1.5805  1.9735
  230MOL0     H31013   5.237   9.795   8.746 -0.5248 -0.6878  0.8211
  230MOL0     H31014   5.430   9.723   8.680 -2.3871  0.3859  0.7158
  230MOL0     H31015   5.525   9.675   8.530  1.6028  2.4924 -0.4242
  230MOL0     H31016   5.436   9.849   8.412 -0.9732 -0.5138  1.2020
  230MOL0     H31017   5.343   9.920   8.535 -0.5895 -0.9120 -2.5205
  230MOL0     H31018   5.557   9.926   8.677 -1.8152  1.6495 -0.2507
  230MOL0     H31019   5.649   9.884   8.534  0.8648  0.4159  0.3874
  230MOL0     H31020   5.494  10.093   8.445 -0.1953 -0.8237 -0.9327
  230MOL0     H31021   5.657  10.118   8.518 -0.2972  0.1677 -0.5627
  230MOL0     H31022   5.524  10.154   8.756 -1.5682  1.4925  1.5844
  230MOL0     H31023   5.393  10.140   8.644 -0.8341  4.0918 -2.2495
  230MOL0     H31024   5.628  10.344   8.609 -0.7672  0.7857  3.5437
  230MOL0     H31025   5.477  10.328   8.503 -1.0054  1.9935 -0.4468
  230MOL0     H31026   5.343  10.393   8.707 -0.9313  3.8560 -0.3978
  230MOL0     H31027   5.466  10.516   8.662 -0.2487  0.0942  1.3997
  230MOL0     H31028   5.465  10.318   8.896  0.2224  0.5364  3.5228
  230MOL0     H31029   5.592  10.436   8.872 -0.9152  2.3696  0.5011
  230MOL0     H31030   5.119   9.499   8.438 -1.0688 -3.1335  2.8055
  230MOL0     H31031   4.910   9.518   8.497  0.9447 -0.0002 -1.6038
  230MOL0     H31032   4.511   9.888   8.524  1.2263  0.0564  1.2384
  230MOL0     H31033   4.293   9.922   8.633 -3.1465 -1.3069  2.2468
  230MOL0     H31034   3.345  10.941   8.589  0.1495  1.8312  2.5667
  230MOL0     H31035   3.421  11.142   8.661 -0.7298  0.3181 -0.5956
  230MOL0     H31036   3.764  11.395   8.760 -1.5526 -0.5638 -0.5146
  230MOL0     H31037   3.845  11.570   8.895 -0.8103 -1.7290 -0.9083
  230MOL0     H31038   3.951  11.790   8.909  0.6553  0.3034  1.1470
  230MOL0     H31039   3.846  11.777   9.045 -0.9773 -2.2105 -0.9211
  230MOL0     H31040   3.935  11.973   9.073  2.2711  0.0714 -0.4662
  230MOL0     H31041   3.788  12.030   8.999  0.5534  0.4418 -0.2124
  230MOL0     H31042   3.892  12.102   8.804  2.4944  2.7179 -0.9384
  230MOL0     H31043   4.034  11.992   8.829  2.3941  1.0014  1.2183
  230MOL0     H31044   4.077  12.244   8.843  0.2333 -2.9592 -1.2431
  230MOL0     H31045   3.966  12.255   8.984 -0.6933 -1.9191  1.2964
  230MOL0     H31046   4.334  12.046   9.092  0.2351 -0.3336 -1.2755
  230MOL0     H31047   3.564  11.838   8.682  1.5742  2.1156 -0.6343
  230MOL0     H31048   3.351  11.599   8.591 -0.2199  1.3154 -0.5801
  230MOL0     H31049   3.409  11.764   8.563  3.4831  0.7625  0.4799
  230MOL0     H31050   3.452  11.631   8.455 -1.1513 -0.3168 -0.7481
  231MOL0     O31051   8.410   5.453   5.353 -0.8394  1.0096 -1.0337
  231MOL0     C31052   8.400   5.439   5.473  0.8290  0.1556 -0.1333
  231MOL0     O31053   8.460   5.507   5.566 -0.1735  0.7487 -0.4762
  231MOL0     C31054   8.595   5.484   5.568  0.4663 -0.3249  0.5065
  231MOL0     C31055   8.682   5.592   5.543 -0.2157  0.8422  1.2002
  231MOL0     C31056   8.823   5.585   5.526  0.5552  0.0474  0.4275
  231MOL0     C31057   8.877   5.471   5.582  0.3111  0.0416 -0.4609
  231MOL0     O31058   9.011   5.452   5.604 -0.2921 -0.5099  0.1950
  231MOL0     C31059   9.103   5.538   5.546  0.3186  0.1234 -0.4837
  231MOL0     C31060   9.251   5.509   5.579  0.1867 -0.6647 -0.1463
  231MOL0     C31061   9.276   5.429   5.703  0.4122 -0.8929  1.2432
  231MOL0     C31062   9.281   5.527   5.826  0.1221  0.8350  0.0326
  231MOL0     C31063   9.297   5.456   5.957  0.5533 -0.3617 -0.3607
  231MOL0     C31064   9.446   5.426   5.968 -0.5701 -0.1430 -0.2983
  231MOL0     C31065   9.481   5.319   6.067  0.9879  0.1721  0.0781
  231MOL0     C31066   9.443   5.354   6.213  0.0278 -0.4317 -0.2258
  231MOL0     N31067   9.507   5.271   6.314 -0.4306 -0.5739  0.2748
  231MOL0     C31068   9.642   5.270   6.341 -0.5051 -0.4765  0.6916
  231MOL0     C31069   9.648   5.218   6.465  0.9571  0.4228 -0.2505
  231MOL0     C31070   9.763   5.200   6.563  0.3998  0.6905 -0.1432
  231MOL0     C31071   9.896   5.192   6.489 -0.1066  0.8786 -0.2454
  231MOL0     C31072  10.007   5.211   6.583 -0.4056  0.4614 -0.4259
  231MOL0     C31073  10.149   5.184   6.538  0.2015 -0.6239  0.4116
  231MOL0     O31074  10.248   5.200   6.649 -0.2793  0.0363 -0.0984
  231MOL0     C31075  10.372   5.172   6.609 -0.1314  0.4910  0.9693
  231MOL0     C31076  10.409   5.092   6.499  0.2741 -0.4068 -0.0684
  231MOL0     C31077  10.545   5.066   6.468  0.1548  0.2817  0.0673
  231MOL0     C31078  10.644   5.123   6.544 -0.5756  0.4241  0.1185
  231MOL0     C31079  10.786   5.074   6.540  0.5292  0.6797 -0.1408
  231MOL0     O31080  10.882   5.142   6.610  0.1812  0.1990 -0.6847
  231MOL0     C31081  11.018   5.120   6.593 -0.8455  0.0067 -0.9791
  231MOL0     C31082  11.092   5.075   6.481  0.1222  0.9483  0.6549
  231MOL0     C31083  11.230   5.057   6.482  0.1915  0.3261  0.4346
  231MOL0     C31084  11.304   5.109   6.590  0.5698 -0.2639  0.3001
  231MOL0     O31085  11.445   5.103   6.599  0.8320 -0.3998  0.6342
  231MOL0     C31086  11.527   5.035   6.503  0.2094 -0.2830 -0.3881
  231MOL0     C31087  11.681   5.047   6.544 -0.2211  0.2291 -0.2345
  231MOL0     C31088  11.750   5.173   6.523  0.0603 -0.6448 -0.2071
  231MOL0     C31089  11.888   5.174   6.600  0.2077 -0.2439 -0.8440
  231MOL0     C31090  11.943   5.313   6.567 -0.3481 -0.8781 -0.2420
  231MOL0     C31091  12.094   5.311   6.578 -0.5869  0.4184 -0.1202
  231MOL0     C31092  12.145   5.457   6.550  0.0188  0.1355  0.0181
  231MOL0     C31093  12.297   5.465   6.558  0.1799  0.2103  0.4963
  231MOL0    Cl31094  12.366   5.448   6.718 -0.5513  0.2026 -0.3075
  231MOL0     C31095  11.241   5.152   6.707  0.6810 -1.0954 -0.9520
  231MOL0     C31096  11.100   5.153   6.705  0.2848  0.3604  0.3786
  231MOL0     O31097  10.807   4.975   6.472 -0.4595  0.3268  0.1264
  231MOL0     C31098  10.605   5.206   6.649 -1.1511 -0.6704 -0.0540
  231MOL0     C31099  10.474   5.234   6.673  0.6610 -0.9404 -0.0337
  231MOL0     N31100   9.517   5.176   6.505 -1.2141 -0.0197  0.3941
  231MOL0     N31101   9.440   5.199   6.408 -1.1896  0.0654  1.0499
  231MOL0     C31102   8.799   5.366   5.626  0.7438  0.4837  0.3521
  231MOL0     C31103   8.656   5.371   5.619  0.0427 -1.1789  0.7532
  231MOL0     C31104   8.287   5.351   5.505  0.4790  0.2678  1.2134
  231MOL0     C31105   8.193   5.414   5.592  0.1808  0.1833 -0.2365
  231MOL0     C31106   8.078   5.342   5.629 -0.6259 -0.1386  0.3628
  231MOL0     C31107   8.052   5.216   5.574 -0.0820 -0.8224 -0.2255
  231MOL0     O31108   7.943   5.148   5.619  0.2153  0.5766  0.7580
  231MOL0     C31109   7.828   5.230   5.644 -0.3247 -0.1231  1.1607
  231MOL0     C31110   7.700   5.153   5.608 -0.1138  0.8209  0.8571
  231MOL0     C31111   7.686   5.121   5.456  0.3566  0.2456 -0.7251
  231MOL0     C31112   7.542   5.094   5.413  0.2967  0.4470 -0.4909
  231MOL0     C31113   7.469   5.225   5.410 -0.2761 -0.8750 -0.8486
  231MOL0     C31114   7.423   5.337   5.417  0.3454 -0.2211  0.2120
  231MOL0     C31115   8.136   5.165   5.474  0.7640  0.1006 -0.3085
  231MOL0     C31116   8.258   5.219   5.442  0.0518 -0.8904  0.7043
  231MOL0     C31117   8.350   5.156   5.349 -0.0022 -0.1539 -0.0819
  231MOL0     H31118   8.619   5.671   5.502 -3.2213 -0.9281  2.1387
  231MOL0     H31119   8.878   5.660   5.471  3.0643 -2.8044 -1.3241
  231MOL0     H31120   9.092   5.545   5.437 -1.5108 -0.6126 -0.3730
  231MOL0     H31121   9.079   5.641   5.575  2.2070  1.3009 -2.7231
  231MOL0     H31122   9.307   5.601   5.598  1.2737 -1.5216  1.0018
  231MOL0     H31123   9.294   5.462   5.490 -2.0460  0.1469 -1.7232
  231MOL0     H31124   9.369   5.371   5.694 -1.0960 -3.0754 -3.2858
  231MOL0     H31125   9.198   5.354   5.723 -0.5543  0.0525  1.1145
  231MOL0     H31126   9.362   5.600   5.816  0.6553  0.3783  0.9354
  231MOL0     H31127   9.189   5.586   5.829  0.4277  1.2932  2.2174
  231MOL0     H31128   9.268   5.526   6.036  1.9795  0.9871 -0.9701
  231MOL0     H31129   9.230   5.371   5.968  0.5390 -0.0992  2.1878
  231MOL0     H31130   9.490   5.393   5.874  1.0224 -0.8936  0.6692
  231MOL0     H31131   9.497   5.515   6.006 -0.2277 -1.1165  1.6130
  231MOL0     H31132   9.588   5.300   6.070  0.4831 -3.1152  0.3194
  231MOL0     H31133   9.440   5.224   6.031 -0.5103  0.4406  0.9753
  231MOL0     H31134   9.485   5.455   6.224  5.6109 -1.9604 -3.4364
  231MOL0     H31135   9.334   5.347   6.222  0.1754 -2.6265  0.2485
  231MOL0     H31136   9.726   5.322   6.295  1.1776 -0.5247  3.4418
  231MOL0     H31137   9.772   5.285   6.632  0.6365  0.0137  0.6768
  231MOL0     H31138   9.759   5.110   6.625  0.0367  1.4002  0.9017
  231MOL0     H31139   9.906   5.096   6.438 -1.5286 -0.6243  2.1083
  231MOL0     H31140   9.896   5.274   6.416  1.5445 -0.2792 -1.6235
  231MOL0     H31141   9.983   5.146   6.667 -0.7642 -0.0789 -0.9439
  231MOL0     H31142  10.006   5.314   6.621  3.6494  0.4643  0.0962
  231MOL0     H31143  10.171   5.264   6.467 -0.9385 -0.2777  0.4181
  231MOL0     H31144  10.156   5.088   6.486 -0.3749 -0.5214  0.1331
  231MOL0     H31145  10.343   5.026   6.444 -0.8574 -0.8544  1.7608
  231MOL0     H31146  10.571   5.006   6.382 -1.6802 -0.0190 -0.3222
  231MOL0     H31147  11.047   5.061   6.383 -2.1791  2.1493  1.4675
  231MOL0     H31148  11.273   5.022   6.389  0.3512  0.5160  0.4371
  231MOL0     H31149  11.493   4.931   6.500  0.7039 -0.4402 -0.6192
  231MOL0     H31150  11.512   5.086   6.407  1.8988  0.3423 -0.3420
  231MOL0     H31151  11.679   5.018   6.649  1.3662 -2.1073 -0.7692
  231MOL0     H31152  11.736   4.968   6.492 -1.9534 -0.3575 -1.2821
  231MOL0     H31153  11.760   5.189   6.416 -1.7730 -1.1760 -0.4863
  231MOL0     H31154  11.695   5.257   6.567  4.5026  1.6729  1.6118
  231MOL0     H31155  11.961   5.103   6.561  3.0714  0.8020  2.1402
  231MOL0     H31156  11.868   5.149   6.704 -0.5185  1.0099 -0.6534
  231MOL0     H31157  11.906   5.390   6.635 -0.7171  0.8720 -2.3363
  231MOL0     H31158  11.913   5.346   6.467 -0.6588  1.9183  0.6984
  231MOL0     H31159  12.133   5.289   6.678 -0.1516 -1.6713 -0.6918
  231MOL0     H31160  12.130   5.232   6.512 -0.8404  0.5361 -0.3976
  231MOL0     H31161  12.103   5.518   6.632  0.2586 -1.4186  1.3500
  231MOL0     H31162  12.115   5.489   6.450 -2.1221  2.6138  1.3161
  231MOL0     H31163  12.342   5.392   6.489 -2.2042 -2.3541  1.4623
  231MOL0     H31164  12.327   5.564   6.523  1.3741  0.1177  1.1678
  231MOL0     H31165  11.293   5.187   6.795 -1.3433  2.1935 -0.9053
  231MOL0     H31166  11.041   5.193   6.787  2.6257  0.8078  1.9335
  231MOL0     H31167  10.683   5.257   6.704  0.4734 -1.4748 -1.5151
  231MOL0     H31168  10.446   5.290   6.761  0.6561 -1.7069  0.4603
  231MOL0     H31169   8.833   5.277   5.678  2.8136  0.9843 -0.0771
  231MOL0     H31170   8.583   5.300   5.657 -0.6227 -0.9406 -0.0423
  231MOL0     H31171   8.211   5.514   5.629  0.6513 -0.2971  0.8571
  231MOL0     H31172   8.014   5.374   5.711  0.3536  0.1990  1.0082
  231MOL0     H31173   7.834   5.316   5.577  4.2184 -0.9995  0.0820
  231MOL0     H31174   7.838   5.276   5.743  1.3617 -0.2095  1.0702
  231MOL0     H31175   7.611   5.215   5.623 -2.1997 -1.6119 -0.5700
  231MOL0     H31176   7.690   5.059   5.663  2.0022  0.8371  1.3707
  231MOL0     H31177   7.739   5.025   5.447 -2.0230 -1.6470  2.9882
  231MOL0     H31178   7.738   5.199   5.399 -0.9788  2.1543  0.5519
  231MOL0     H31179   7.546   5.055   5.311 -0.1909 -2.5345  0.5208
  231MOL0     H31180   7.484   5.022   5.473  0.9684  0.1178 -0.2315
  231MOL0     H31181   7.376   5.432   5.432  1.8398  0.0842  3.8891
  231MOL0     H31182   8.117   5.070   5.425 -0.3028  0.7306 -1.1466
  231MOL0     H31183   8.345   5.048   5.364  0.2225  0.2482  3.7215
  231MOL0     H31184   8.347   5.188   5.244 -2.2433  0.4863  0.1246
  231MOL0     H31185   8.453   5.178   5.378 -0.6165  1.2503  1.1908
  232MOL0     O31186   2.692  11.110   0.261  0.0920  1.0172  0.2666
  232MOL0     C31187   2.693  11.032   0.165  0.4794 -0.0027  0.2226
  232MOL0     O31188   2.810  10.989   0.112  0.2598  0.2198 -0.8018
  232MOL0     C31189   2.924  11.019   0.183 -0.2096  0.5110  0.2587
  232MOL0     C31190   3.032  11.091   0.122 -0.0651  0.7302 -0.4549
  232MOL0     C31191   3.149  11.117   0.199 -0.3779  0.1037  0.0993
  232MOL0     C31192   3.163  11.074   0.334  0.0515  0.6956 -0.4142
  232MOL0     O31193   3.278  11.081   0.406 -0.3759 -0.6127 -0.3087
  232MOL0     C31194   3.398  11.030   0.357 -0.2632  0.1317  1.0124
  232MOL0     C31195   3.522  11.046   0.440  0.3975 -0.4021 -0.3702
  232MOL0     C31196   3.639  11.065   0.358 -0.6325  0.1323 -0.3725
  232MOL0     C31197   3.762  11.069   0.446  0.6194  0.0205  0.3885
  232MOL0     C31198   3.882  11.100   0.360  0.4594 -0.1555 -0.7921
  232MOL0     C31199   4.012  11.069   0.425  0.8810 -0.7917  0.7197
  232MOL0     C31200   4.131  11.100   0.324  1.1478  0.2812  0.0469
  232MOL0     C31201   4.263  11.096   0.397 -0.0561  0.5396  0.5207
  232MOL0     N31202   4.375  11.058   0.308 -0.7347 -0.0949 -0.4746
  232MOL0     C31203   4.491  11.142   0.289  0.7702  0.2974  0.0311
  232MOL0     C31204   4.576  11.064   0.226 -0.0565  0.8253 -0.1471
  232MOL0     C31205   4.706  11.106   0.165 -0.1625  0.9273 -0.0172
  232MOL0     C31206   4.697  11.173   0.028 -0.2823 -0.4015 -0.0741
  232MOL0     C31207   4.688  11.066  -0.088  0.0322  0.1505  0.1146
  232MOL0     C31208   4.715  11.127  -0.227  0.5347  0.3714 -0.4172
  232MOL0     O31209   4.669  11.047  -0.341 -0.8659 -0.3049  0.1908
  232MOL0     C31210   4.777  11.001  -0.422 -0.7356  0.2254 -0.1626
  232MOL0     C31211   4.752  10.983  -0.556 -0.2196 -1.2340 -0.7817
  232MOL0     C31212   4.860  10.951  -0.638  0.5137 -0.4659 -0.9071
  232MOL0     C31213   4.990  10.932  -0.585  0.0781  0.0863 -0.8887
  232MOL0     C31214   5.106  10.919  -0.679 -0.9138  0.5453  0.2893
  232MOL0     O31215   5.221  10.864  -0.635  0.8293  0.2039  0.1561
  232MOL0     C31216   5.331  10.851  -0.722  0.0268 -0.1863  0.6404
  232MOL0     C31217   5.387  10.958  -0.788  0.5855 -0.1143 -0.2556
  232MOL0     C31218   5.508  10.941  -0.857 -0.5246  0.6091 -0.7231
  232MOL0     C31219   5.573  10.819  -0.862  0.5045  0.2780  0.1910
  232MOL0     O31220   5.688  10.795  -0.931 -0.3441 -0.1220  0.3241
  232MOL0     C31221   5.726  10.899  -1.028  0.5029  0.8027  0.2231
  232MOL0     C31222   5.816  10.828  -1.139 -0.2976 -0.7840  0.0060
  232MOL0     C31223   5.961  10.789  -1.098 -0.1945  0.4529 -0.9155
  232MOL0     C31224   6.050  10.758  -1.212  0.1799  0.3409 -0.3240
  232MOL0     C31225   6.184  10.707  -1.163  0.0511 -0.4021 -0.0273
  232MOL0     C31226   6.283  10.659  -1.277  0.0028 -0.5012 -0.1014
  232MOL0     C31227   6.344  10.781  -1.352 -0.1086 -0.4850 -0.2976
  232MOL0     C31228   6.456  10.735  -1.439  0.5737 -0.1728 -0.5376
  232MOL0    Cl31229   6.525  10.879  -1.523 -0.2770 -0.4295  0.3179
  232MOL0     C31230   5.508  10.708  -0.807 -0.5533  0.0840 -1.1420
  232MOL0     C31231   5.402  10.726  -0.727  0.7755 -0.1757  0.1444
  232MOL0     O31232   5.083  10.933  -0.799  0.1636  0.2473 -0.9501
  232MOL0     C31233   5.015  10.932  -0.444 -0.2132  0.5216  0.3430
  232MOL0     C31234   4.902  10.962  -0.363 -0.2632 -0.7160 -0.7312
  232MOL0     N31235   4.526  10.936   0.205  0.1670  0.4811 -1.0541
  232MOL0     N31236   4.406  10.936   0.263  0.7263  0.5934  0.3768
  232MOL0     C31237   3.050  11.014   0.400 -1.3373 -0.4737  0.6813
  232MOL0     C31238   2.942  10.986   0.323 -0.3979  0.8481  0.5289
  232MOL0     C31239   2.558  11.005   0.097  0.0030 -1.2675 -0.7606
  232MOL0     C31240   2.464  11.110   0.112  0.0363  0.4110 -0.1268
  232MOL0     C31241   2.330  11.086   0.083 -0.8145  0.2844 -0.0567
  232MOL0     C31242   2.289  10.976   0.004  0.3189  0.0360  0.9173
  232MOL0     O31243   2.167  10.948  -0.059  0.1688 -0.4239  0.3655
  232MOL0     C31244   2.055  11.021  -0.005  0.3896  0.1994  0.1517
  232MOL0     C31245   1.933  10.988  -0.089 -0.5011  0.0674  0.3295
  232MOL0     C31246   1.959  11.017  -0.235  0.8208  0.1619 -1.1762
  232MOL0     C31247   1.830  11.074  -0.298  0.0671 -0.6795  0.3464
  232MOL0     C31248   1.766  10.972  -0.374  0.1469  0.1131  0.0741
  232MOL0     C31249   1.714  10.894  -0.447  0.1629  0.1221  1.4584
  232MOL0     C31250   2.396  10.880  -0.023  0.3919 -0.3112  0.9776
  232MOL0     C31251   2.525  10.894   0.025  0.4829 -0.3244 -0.6231
  232MOL0     C31252   2.616  10.788   0.005 -0.8878 -0.4596 -0.0826
  232MOL0     H31253   3.036  11.116   0.017  1.3084 -0.1734 -0.6345
  232MOL0     H31254   3.227  11.178   0.154  1.6977 -2.4917 -0.0743
  232MOL0     H31255   3.397  10.923   0.334 -0.4355  0.2185  0.5986
  232MOL0     H31256   3.414  11.067   0.256 -0.0308 -1.6502  0.3574
  232MOL0     H31257   3.531  10.948   0.488 -1.4906 -0.2892  0.3226
  232MOL0     H31258   3.510  11.120   0.520 -0.3000  0.1995 -1.0050
  232MOL0     H31259   3.638  11.160   0.303  1.0549  1.1102  1.1516
  232MOL0     H31260   3.653  10.986   0.284 -2.7535 -0.4257 -0.2252
  232MOL0     H31261   3.750  11.130   0.536 -0.6099  0.4102 -0.0157
  232MOL0     H31262   3.759  10.965   0.478 -0.6978 -0.2633 -0.5713
  232MOL0     H31263   3.875  11.058   0.259 -2.3264  2.3885 -1.8361
  232MOL0     H31264   3.868  11.206   0.337  2.1513 -0.4369 -3.4877
  232MOL0     H31265   4.004  11.140   0.507 -2.4118 -0.7686  0.5286
  232MOL0     H31266   4.007  10.962   0.449 -1.1641 -1.1926 -1.1452
  232MOL0     H31267   4.117  11.202   0.285 -2.1155  0.8056  2.1352
  232MOL0     H31268   4.122  11.027   0.243 -1.6387 -0.3115  0.7706
  232MOL0     H31269   4.278  11.197   0.436  1.4104 -0.5506  2.9647
  232MOL0     H31270   4.257  11.027   0.481  0.3588 -1.7672 -1.2548
  232MOL0     H31271   4.502  11.247   0.312 -2.1057  0.6984 -0.0313
  232MOL0     H31272   4.748  11.184   0.230 -3.3869  2.1096  0.8753
  232MOL0     H31273   4.771  11.019   0.171 -0.1755  0.9071 -0.1637
  232MOL0     H31274   4.609  11.238   0.025  1.1581  1.7500  1.3161
  232MOL0     H31275   4.784  11.238   0.015  0.6065 -1.2879  1.1923
  232MOL0     H31276   4.586  11.029  -0.072 -0.4480  2.2307  2.6518
  232MOL0     H31277   4.753  10.983  -0.058  0.6651  0.4909 -0.3003
  232MOL0     H31278   4.812  11.177  -0.236  0.3461  0.7056 -0.6080
  232MOL0     H31279   4.650  11.215  -0.220 -0.0838 -0.1346  0.4051
  232MOL0     H31280   4.658  10.997  -0.610 -1.4535 -2.8211  0.8341
  232MOL0     H31281   4.849  10.951  -0.746 -0.0428  1.0436 -0.8794
  232MOL0     H31282   5.327  11.048  -0.788  1.1636  0.2736 -0.8693
  232MOL0     H31283   5.543  11.036  -0.897 -2.0833  1.7811  0.5137
  232MOL0     H31284   5.635  10.931  -1.080  1.4297 -0.8697 -2.6339
  232MOL0     H31285   5.765  10.993  -0.989  0.4671  1.4237 -1.1760
  232MOL0     H31286   5.762  10.742  -1.181 -0.5371 -0.3395 -0.5984
  232MOL0     H31287   5.823  10.907  -1.214  1.7964 -0.2202  0.7442
  232MOL0     H31288   6.010  10.872  -1.046 -1.1304  0.0536  0.6580
  232MOL0     H31289   5.957  10.713  -1.020  2.4672  0.1695 -0.9596
  232MOL0     H31290   6.072  10.845  -1.274  2.2543 -0.6271 -1.0444
  232MOL0     H31291   6.003  10.671  -1.258 -2.2660  0.5028  1.6943
  232MOL0     H31292   6.168  10.624  -1.093  0.5197 -1.7730 -1.4868
  232MOL0     H31293   6.235  10.787  -1.108  0.4134 -1.1348  0.7313
  232MOL0     H31294   6.359  10.607  -1.218 -0.1022  0.7254  1.1578
  232MOL0     H31295   6.232  10.594  -1.349  1.6379 -1.9008 -0.0583
  232MOL0     H31296   6.388  10.855  -1.284  0.3555 -0.8756 -0.1703
  232MOL0     H31297   6.267  10.833  -1.410  0.3997  0.6067 -0.0342
  232MOL0     H31298   6.542  10.692  -1.387  1.4497  3.7154  1.6060
  232MOL0     H31299   6.410  10.671  -1.515 -0.3755 -0.9878  0.6861
  232MOL0     H31300   5.559  10.614  -0.822  3.8622  2.1341 -0.4856
  232MOL0     H31301   5.369  10.638  -0.673  4.2210  0.5201  3.7806
  232MOL0     H31302   5.110  10.925  -0.392 -1.0452  0.8059  1.9834
  232MOL0     H31303   4.916  10.963  -0.255 -1.6665 -1.9326 -0.5128
  232MOL0     H31304   3.047  10.997   0.508 -2.2810 -0.3450  0.6814
  232MOL0     H31305   2.864  10.935   0.378  0.5819  1.3165  2.4258
  232MOL0     H31306   2.487  11.206   0.157 -1.0580 -0.4344  2.4728
  232MOL0     H31307   2.258  11.165   0.105  0.7854  2.0306 -0.7764
  232MOL0     H31308   2.071  11.129  -0.007  1.4363  0.0486 -1.6668
  232MOL0     H31309   2.034  10.997   0.100 -0.3152 -1.2495 -0.2941
  232MOL0     H31310   1.843  11.031  -0.044 -0.3518  0.4470  0.2726
  232MOL0     H31311   1.928  10.879  -0.091  1.7244 -0.0966 -2.6219
  232MOL0     H31312   1.995  10.931  -0.292  0.1615 -1.8186  1.2361
  232MOL0     H31313   2.038  11.092  -0.242 -0.2120  1.3463 -0.4829
  232MOL0     H31314   1.772  11.121  -0.219  3.2526  0.6426  2.0730
  232MOL0     H31315   1.864  11.162  -0.354  0.0481 -0.0685  1.2759
  232MOL0     H31316   1.657  10.827  -0.509 -0.5230  0.6325  1.5247
  232MOL0     H31317   2.367  10.799  -0.089  2.4274  0.4849 -1.0464
  232MOL0     H31318   2.677  10.763   0.093 -3.0969 -0.1589  1.6394
  232MOL0     H31319   2.568  10.692  -0.014  2.2357 -2.0059 -0.7230
  232MOL0     H31320   2.687  10.816  -0.073  4.5015 -0.3720  4.2410
  233MOL0     O31321   1.308   1.955   8.718  0.5249  0.5262 -1.2817
  233MOL0     C31322   1.359   1.954   8.604  0.3111 -0.3428 -0.2766
  233MOL0     O31323   1.491   1.960   8.583 -0.4099 -0.7052 -0.0979
  233MOL0     C31324   1.582   1.996   8.689 -1.4674 -0.0503 -0.0888
  233MOL0     C31325   1.705   1.930   8.682  0.5687 -0.1174  0.0399
  233MOL0     C31326   1.799   1.952   8.782  0.0324 -0.3867  0.9510
  233MOL0     C31327   1.774   2.042   8.887 -0.4320 -1.0465 -0.4927
  233MOL0     O31328   1.874   2.059   8.983  0.2008  0.3162  0.2313
  233MOL0     C31329   1.874   2.172   9.069  0.7547  0.6960 -0.1720
  233MOL0     C31330   1.898   2.305   8.988 -0.0174  0.3805 -0.7199
  233MOL0     C31331   1.953   2.418   9.078 -1.0586 -0.4531 -0.0225
  233MOL0     C31332   1.997   2.548   9.007  0.4626  0.7408 -0.3508
  233MOL0     C31333   2.135   2.544   8.936  0.0864  0.3635 -0.3292
  233MOL0     C31334   2.248   2.554   9.035  0.1642 -0.5737  0.2326
  233MOL0     C31335   2.383   2.609   8.978 -0.5031  0.2839  0.0709
  233MOL0     C31336   2.502   2.614   9.085 -0.7460  0.6557 -0.8792
  233MOL0     N31337   2.563   2.477   9.119  0.4735 -1.1506  0.6691
  233MOL0     C31338   2.693   2.451   9.134  0.0326  0.0759 -0.6087
  233MOL0     C31339   2.703   2.318   9.158 -0.2977  0.7930 -0.4787
  233MOL0     C31340   2.816   2.225   9.155 -0.4065  0.6911 -0.5659
  233MOL0     C31341   2.952   2.282   9.215  1.0068  0.9674 -0.3768
  233MOL0     C31342   3.070   2.197   9.168  0.3703  0.2175  0.5987
  233MOL0     C31343   3.198   2.226   9.234  0.1620  0.0926  0.6181
  233MOL0     O31344   3.248   2.352   9.183  0.4322  0.3104 -0.3404
  233MOL0     C31345   3.365   2.392   9.242 -0.4076 -0.1345  0.1750
  233MOL0     C31346   3.482   2.394   9.172 -0.6697  0.7647  0.4793
  233MOL0     C31347   3.610   2.422   9.228  0.2841  1.1044  0.0757
  233MOL0     C31348   3.610   2.450   9.367  0.4459 -0.7208  0.0639
  233MOL0     C31349   3.742   2.481   9.434 -1.4204  0.8873 -0.6988
  233MOL0     O31350   3.736   2.540   9.548 -0.4403  0.1475 -0.2951
  233MOL0     C31351   3.836   2.602   9.612  0.3716  0.6318 -0.1758
  233MOL0     C31352   3.789   2.669   9.727 -0.7060 -0.2288 -0.4167
  233MOL0     C31353   3.880   2.738   9.803 -0.8122 -0.6932  0.3714
  233MOL0     C31354   4.014   2.744   9.768 -0.2978 -0.4888  1.0723
  233MOL0     O31355   4.084   2.821   9.849 -0.5102  0.7378 -0.6010
  233MOL0     C31356   4.224   2.814   9.845 -0.3210 -0.4389 -0.2240
  233MOL0     C31357   4.282   2.691   9.927 -0.3753  0.7072 -0.6963
  233MOL0     C31358   4.423   2.668   9.876 -0.3938 -0.8583 -0.4154
  233MOL0     C31359   4.479   2.543   9.950  0.5651 -0.2824 -0.4890
  233MOL0     C31360   4.627   2.539   9.965  0.4764  0.6656  0.8085
  233MOL0     C31361   4.663   2.401  10.031 -0.4405 -0.0999 -0.7302
  233MOL0     C31362   4.814   2.393  10.051  0.2279  0.3693 -0.7735
  233MOL0     C31363   4.852   2.285  10.153 -0.1480  0.4144  0.3627
  233MOL0    Cl31364   4.866   2.126  10.070 -0.0254  0.3063  0.0405
  233MOL0     C31365   4.059   2.679   9.657 -0.3434 -0.3099 -0.4666
  233MOL0     C31366   3.974   2.603   9.586  0.3916  1.0414  0.1161
  233MOL0     O31367   3.843   2.443   9.374 -0.1132 -0.4330 -0.3546
  233MOL0     C31368   3.487   2.478   9.433  0.1738  0.1387  0.1234
  233MOL0     C31369   3.365   2.440   9.370 -0.3107 -0.4396  0.5217
  233MOL0     N31370   2.574   2.273   9.167 -0.3584  0.1732 -0.1140
  233MOL0     N31371   2.494   2.365   9.135  0.0452  0.4908 -0.0268
  233MOL0     C31372   1.647   2.105   8.897  0.2021  1.0509  0.5953
  233MOL0     C31373   1.551   2.083   8.796 -0.0806 -0.1874  0.1079
  233MOL0     C31374   1.278   1.956   8.485  0.4370 -0.4321 -0.7512
  233MOL0     C31375   1.333   2.005   8.368 -0.4584 -0.2595  0.9306
  233MOL0     C31376   1.264   2.021   8.245 -0.1819  0.7351 -0.3497
  233MOL0     C31377   1.129   1.976   8.242 -0.0061 -0.5232 -0.2960
  233MOL0     O31378   1.068   2.002   8.119  0.1498  0.1322 -0.2062
  233MOL0     C31379   0.931   2.003   8.124  0.0133 -1.2507  0.2659
  233MOL0     C31380   0.878   2.084   8.004 -0.5574 -0.7318 -0.2001
  233MOL0     C31381   0.912   2.018   7.871  0.6290  0.7464  0.5308
  233MOL0     C31382   0.828   1.889   7.843 -0.3098 -0.5016 -0.5277
  233MOL0     C31383   0.812   1.876   7.696 -0.0234 -0.8077 -0.2927
  233MOL0     C31384   0.803   1.871   7.573 -0.4987  1.1551  0.0822
  233MOL0     C31385   1.068   1.928   8.356  0.1523  0.3940 -0.2499
  233MOL0     C31386   1.138   1.919   8.476 -0.4834 -0.7448 -0.4072
  233MOL0     C31387   1.063   1.874   8.595 -0.3379  0.4029 -0.4523
  233MOL0     H31388   1.721   1.853   8.607  3.0507  0.5262 -0.1779
  233MOL0     H31389   1.887   1.889   8.790 -0.4006 -1.0498  0.6034
  233MOL0     H31390   1.780   2.172   9.124  0.5238 -4.1239 -0.2104
  233MOL0     H31391   1.954   2.150   9.141  1.6385  0.4236 -1.2067
  233MOL0     H31392   1.808   2.338   8.936  0.8254  2.2413 -1.1177
  233MOL0     H31393   1.972   2.291   8.908 -1.6179  0.3983 -2.2552
  233MOL0     H31394   2.042   2.378   9.127 -0.4990  1.5983  0.7425
  233MOL0     H31395   1.882   2.441   9.158  1.5358 -0.5766  2.4784
  233MOL0     H31396   1.917   2.565   8.935  1.0318  0.1504 -1.1278
  233MOL0     H31397   1.993   2.630   9.080  2.7059  0.2873  0.3590
  233MOL0     H31398   2.140   2.457   8.871 -2.4451  0.6938 -1.0855
  233MOL0     H31399   2.144   2.632   8.871 -1.8709  0.0599 -1.0840
  233MOL0     H31400   2.217   2.617   9.119 -1.5235 -2.5504  1.1802
  233MOL0     H31401   2.268   2.455   9.077  1.2675 -0.2915  0.3955
  233MOL0     H31402   2.371   2.707   8.931  0.5155  0.3570 -0.0483
  233MOL0     H31403   2.415   2.549   8.893  3.0428  3.1602 -0.8508
  233MOL0     H31404   2.570   2.676   9.026 -1.4223 -0.2513 -2.6596
  233MOL0     H31405   2.483   2.662   9.182  1.3155 -0.4651  0.1486
  233MOL0     H31406   2.770   2.527   9.120  1.4066 -0.9558  0.9256
  233MOL0     H31407   2.788   2.140   9.218  1.5756 -0.8115 -1.5890
  233MOL0     H31408   2.842   2.183   9.057 -0.6030  0.8369 -0.6808
  233MOL0     H31409   2.965   2.387   9.188  2.2638  0.8784 -0.2017
  233MOL0     H31410   2.945   2.286   9.324  2.0481 -0.4171 -0.2340
  233MOL0     H31411   3.087   2.197   9.060 -3.7285  0.0543 -0.1989
  233MOL0     H31412   3.047   2.093   9.193  0.1704 -0.3502 -1.6582
  233MOL0     H31413   3.272   2.147   9.216  3.0192  2.8758 -0.9792
  233MOL0     H31414   3.177   2.222   9.341  2.1391  1.2850  1.0979
  233MOL0     H31415   3.485   2.377   9.065 -1.2179  3.5643 -0.0498
  233MOL0     H31416   3.699   2.418   9.165  1.3721 -2.3159  1.5588
  233MOL0     H31417   3.684   2.654   9.753  0.1438 -3.3285  1.8064
  233MOL0     H31418   3.850   2.782   9.897  0.1672 -0.6382  0.6700
  233MOL0     H31419   4.262   2.818   9.742  2.1763  0.3985  0.6525
  233MOL0     H31420   4.263   2.907   9.888  0.8484  0.1064 -2.3371
  233MOL0     H31421   4.291   2.708  10.035 -2.0004 -1.1187 -0.2202
  233MOL0     H31422   4.224   2.601   9.902  0.6899 -0.7544  1.7532
  233MOL0     H31423   4.421   2.644   9.770 -1.4291  1.0396 -0.8672
  233MOL0     H31424   4.493   2.748   9.901 -0.3014 -0.1187 -2.8592
  233MOL0     H31425   4.434   2.452   9.909 -1.0081 -0.7687  2.1232
  233MOL0     H31426   4.432   2.536  10.049 -0.8537 -0.9164 -1.1776
  233MOL0     H31427   4.660   2.630  10.017 -2.0049  2.7185 -0.9204
  233MOL0     H31428   4.680   2.548   9.869 -0.0248  0.3478  0.4981
  233MOL0     H31429   4.621   2.386  10.131  1.6503 -0.4948  0.1458
  233MOL0     H31430   4.628   2.324   9.961  0.5706 -0.4149 -0.9024
  233MOL0     H31431   4.844   2.487  10.098 -1.0175  0.3074  0.1834
  233MOL0     H31432   4.869   2.390   9.956  0.5721  0.1068 -0.5655
  233MOL0     H31433   4.952   2.314  10.187  2.4289 -3.3741 -3.0334
  233MOL0     H31434   4.785   2.290  10.239  1.5925  0.6261  1.7526
  233MOL0     H31435   4.161   2.664   9.625 -0.6848 -0.6685 -1.4366
  233MOL0     H31436   4.022   2.548   9.505 -1.9315  1.3870 -1.5774
  233MOL0     H31437   3.483   2.521   9.533 -3.0666  0.2634  0.0563
  233MOL0     H31438   3.277   2.452   9.432 -2.0849 -0.1486 -1.8822
  233MOL0     H31439   1.617   2.157   8.987  3.3497  1.4787  1.5023
  233MOL0     H31440   1.453   2.129   8.789 -0.0761 -0.4492 -3.1991
  233MOL0     H31441   1.436   2.036   8.357 -1.4545  2.8098 -1.1354
  233MOL0     H31442   1.322   2.042   8.156  1.6078  0.1945  0.6389
  233MOL0     H31443   0.906   2.047   8.221 -0.1126 -0.1893 -0.2300
  233MOL0     H31444   0.888   1.903   8.118  0.2839 -1.4329  1.2424
  233MOL0     H31445   0.930   2.180   8.013 -1.9111 -0.0623  0.7857
  233MOL0     H31446   0.772   2.108   8.011 -1.2092 -2.3793 -2.8678
  233MOL0     H31447   1.013   1.978   7.857  0.7062  1.4476 -1.0164
  233MOL0     H31448   0.893   2.086   7.789 -0.8454 -1.9432 -1.5342
  233MOL0     H31449   0.881   1.802   7.882  1.8817  0.2310 -1.7243
  233MOL0     H31450   0.727   1.896   7.885  1.5393 -0.8640  4.7082
  233MOL0     H31451   0.800   1.856   7.467 -0.1430 -1.3075  0.3628
  233MOL0     H31452   0.965   1.893   8.355  0.3663 -0.2539 -0.5254
  233MOL0     H31453   0.966   1.829   8.571  0.1617 -1.0562  0.1192
  233MOL0     H31454   1.117   1.796   8.651 -0.3318  1.2496  0.7599
  233MOL0     H31455   1.043   1.953   8.668  0.8652  1.8371 -1.6100
  234MOL0     O31456   8.177   0.707   9.809  0.0500 -0.3170 -0.2239
  234MOL0     C31457   8.209   0.597   9.756 -0.3310 -0.0202  0.2592
  234MOL0     O31458   8.330   0.560   9.721  0.2929 -0.7589 -0.4973
  234MOL0     C31459   8.428   0.623   9.789 -0.5675  0.2002  0.0637
  234MOL0     C31460   8.474   0.571   9.908  0.0035  0.0334 -0.7382
  234MOL0     C31461   8.567   0.637   9.986  0.1009 -1.1146 -0.3066
  234MOL0     C31462   8.632   0.746   9.933 -0.1405 -0.4345 -0.2599
  234MOL0     O31463   8.737   0.809   9.997 -0.2511  0.1661  0.6332
  234MOL0     C31464   8.869   0.767   9.948  0.8921  0.0161 -0.5851
  234MOL0     C31465   8.957   0.859  10.033 -0.5623  0.1421  0.3611
  234MOL0     C31466   9.107   0.818  10.017 -0.1277 -0.2547 -0.7122
  234MOL0     C31467   9.141   0.848   9.870 -0.4163  0.3147  0.0662
  234MOL0     C31468   9.289   0.842   9.835  0.6074  0.2897  0.1421
  234MOL0     C31469   9.315   0.896   9.693 -0.1726 -0.4186 -0.0292
  234MOL0     C31470   9.466   0.901   9.676 -0.3354  0.2061  0.4876
  234MOL0     C31471   9.495   0.921   9.525 -0.4723  0.3222 -0.1515
  234MOL0     N31472   9.636   0.961   9.516  0.0759 -0.2663  0.1568
  234MOL0     C31473   9.747   0.902   9.463 -0.0964  0.3178  0.0975
  234MOL0     C31474   9.857   0.972   9.494  0.5646  0.3518 -0.4821
  234MOL0     C31475  10.008   0.960   9.448  0.1280  0.9986 -0.1146
  234MOL0     C31476  10.040   1.061   9.335  0.3482  0.2940  0.1499
  234MOL0     C31477  10.182   1.053   9.280  0.0283  0.0745  0.9320
  234MOL0     C31478  10.297   1.078   9.378 -0.9070 -0.3418 -0.4078
  234MOL0     O31479  10.293   1.198   9.453 -0.2865  0.2086 -0.2994
  234MOL0     C31480  10.413   1.262   9.477 -0.7097  0.3835 -0.8690
  234MOL0     C31481  10.402   1.401   9.518  0.2199  0.5079  0.5033
  234MOL0     C31482  10.526   1.464   9.538  0.3886  0.5776  0.4759
  234MOL0     C31483  10.649   1.401   9.545  1.3061  0.1929 -0.3735
  234MOL0     C31484  10.776   1.473   9.577 -0.1823  0.4000  0.7855
  234MOL0     O31485  10.893   1.404   9.580  0.7124  0.2126 -1.0805
  234MOL0     C31486  11.013   1.474   9.567 -0.3931  0.0494  0.1847
  234MOL0     C31487  11.040   1.559   9.462 -0.3050  0.1419  0.0261
  234MOL0     C31488  11.159   1.636   9.466 -0.2155  0.9911  0.6313
  234MOL0     C31489  11.258   1.603   9.559  0.8761 -1.0110 -0.8139
  234MOL0     O31490  11.362   1.686   9.548 -0.1186  0.1860 -0.5143
  234MOL0     C31491  11.331   1.815   9.613  0.6640 -0.1392 -0.4908
  234MOL0     C31492  11.431   1.921   9.584 -1.3343 -0.2195  0.1183
  234MOL0     C31493  11.578   1.884   9.625 -0.0334  0.4069  0.5774
  234MOL0     C31494  11.676   1.993   9.587 -0.6383 -0.9567 -0.3235
  234MOL0     C31495  11.689   2.112   9.683  0.1885 -0.0280  0.7797
  234MOL0     C31496  11.787   2.226   9.627 -0.6154  0.1334  0.9287
  234MOL0     C31497  11.929   2.172   9.576  0.5122 -0.3408  0.0131
  234MOL0     C31498  11.989   2.288   9.498  0.7497  1.4176  0.7244
  234MOL0    Cl31499  12.003   2.432   9.609 -0.3733  0.5105  0.0255
  234MOL0     C31500  11.230   1.502   9.656 -0.5403  0.0029 -0.3456
  234MOL0     C31501  11.104   1.444   9.664 -0.0156  0.2769  0.6032
  234MOL0     O31502  10.767   1.591   9.599  0.2302  0.4315  0.0477
  234MOL0     C31503  10.651   1.268   9.528  0.6947  0.7691 -0.1986
  234MOL0     C31504  10.537   1.194   9.493  0.7941 -0.4309 -0.5422
  234MOL0     N31505   9.811   1.085   9.566 -0.4457  1.0719  0.4881
  234MOL0     N31506   9.681   1.065   9.585 -0.1484  0.2199  0.2291
  234MOL0     C31507   8.586   0.800   9.815 -0.2545 -0.1337 -0.1189
  234MOL0     C31508   8.485   0.743   9.741  0.5493 -0.1767 -0.7665
  234MOL0     C31509   8.111   0.493   9.756  0.0364  0.1770  0.6122
  234MOL0     C31510   8.156   0.366   9.719  0.6355 -0.6220  0.7068
  234MOL0     C31511   8.077   0.251   9.718 -0.6957  0.2969  1.0134
  234MOL0     C31512   7.942   0.259   9.755  0.0203  0.1523 -0.2694
  234MOL0     O31513   7.875   0.138   9.741 -0.2435  0.6558  0.0867
  234MOL0     C31514   7.752   0.126   9.809  0.3667  0.4288 -1.2128
  234MOL0     C31515   7.684   0.007   9.759 -0.4835  0.1894 -0.7655
  234MOL0     C31516   7.776  -0.113   9.778  0.1275 -0.8962  0.3894
  234MOL0     C31517   7.699  -0.247   9.735 -0.1289 -0.5767 -0.6880
  234MOL0     C31518   7.631  -0.248   9.606  0.0672  0.6335  0.9580
  234MOL0     C31519   7.607  -0.248   9.484 -0.0230  0.6530  0.1954
  234MOL0     C31520   7.891   0.383   9.804 -0.1443  0.2556  0.6077
  234MOL0     C31521   7.977   0.503   9.807  0.7548  0.2328 -0.3339
  234MOL0     C31522   7.917   0.624   9.869 -0.4614  0.4492 -0.4239
  234MOL0     H31523   8.433   0.479   9.948 -0.6577  1.1718  1.3187
  234MOL0     H31524   8.599   0.605  10.085  0.3060  1.6129  0.5998
  234MOL0     H31525   8.883   0.662   9.976 -0.2272 -0.0590 -0.2327
  234MOL0     H31526   8.875   0.780   9.840  0.4883 -1.9365 -0.8873
  234MOL0     H31527   8.932   0.849  10.138  2.0454 -1.8320  0.8950
  234MOL0     H31528   8.941   0.962  10.000 -3.0787  0.1537  1.3858
  234MOL0     H31529   9.127   0.710  10.024  1.5140  0.0941  0.8357
  234MOL0     H31530   9.166   0.871  10.093  0.5868  1.3624 -2.3469
  234MOL0     H31531   9.086   0.791   9.795 -0.0348  0.0941 -0.0523
  234MOL0     H31532   9.104   0.948   9.845  0.1312  0.3836 -0.5080
  234MOL0     H31533   9.343   0.900   9.910  2.9127 -1.0423 -0.3949
  234MOL0     H31534   9.325   0.739   9.841 -0.7596 -0.1526  1.3807
  234MOL0     H31535   9.268   0.836   9.615 -0.7031  1.7999 -1.5109
  234MOL0     H31536   9.266   0.992   9.673 -0.9490 -0.9569 -0.8110
  234MOL0     H31537   9.506   0.808   9.718 -2.1885 -0.2241  1.3865
  234MOL0     H31538   9.507   0.982   9.738 -1.3784 -1.8798  4.1936
  234MOL0     H31539   9.464   0.840   9.458 -1.2952  0.3540  0.1835
  234MOL0     H31540   9.431   1.007   9.502 -3.1185 -1.2474  0.9423
  234MOL0     H31541   9.750   0.808   9.408 -0.4123 -1.8014  3.4217
  234MOL0     H31542  10.076   0.986   9.530  1.6625 -2.5809 -0.0780
  234MOL0     H31543  10.043   0.863   9.412  1.4904  1.5489 -0.3250
  234MOL0     H31544   9.972   1.047   9.251  0.4757 -3.1299  0.4781
  234MOL0     H31545  10.022   1.163   9.370 -2.1908  0.2942 -0.9604
  234MOL0     H31546  10.189   1.134   9.206  1.5944 -0.8384  0.0373
  234MOL0     H31547  10.197   0.966   9.216  1.6937  1.0975 -0.1532
  234MOL0     H31548  10.385   1.081   9.313 -1.5026  0.9876 -1.1745
  234MOL0     H31549  10.312   0.993   9.446  1.6742  0.0083 -0.4067
  234MOL0     H31550  10.301   1.440   9.523  0.1315  0.2208  1.0206
  234MOL0     H31551  10.532   1.572   9.535  1.1846  0.5996  1.9293
  234MOL0     H31552  10.954   1.583   9.399 -0.6564  1.5822  1.0072
  234MOL0     H31553  11.184   1.707   9.387  0.0986  0.2906  0.0864
  234MOL0     H31554  11.238   1.863   9.583 -0.0743 -1.5729 -0.5668
  234MOL0     H31555  11.320   1.811   9.722  0.2844  2.1417 -0.3841
  234MOL0     H31556  11.437   1.954   9.479  1.3317  0.3216  0.3563
  234MOL0     H31557  11.397   2.008   9.640 -2.5655  1.0288 -2.3924
  234MOL0     H31558  11.573   1.872   9.734  0.3852  3.2399  0.9729
  234MOL0     H31559  11.607   1.785   9.590 -1.9888 -1.4896  3.7763
  234MOL0     H31560  11.640   2.026   9.490 -0.8474  1.0923  0.3986
  234MOL0     H31561  11.773   1.944   9.576 -0.2677  0.0985 -2.0190
  234MOL0     H31562  11.745   2.101   9.777  2.2528 -0.4987 -0.4281
  234MOL0     H31563  11.591   2.157   9.698  2.0712  4.1880  2.0580
  234MOL0     H31564  11.741   2.284   9.547  0.6161 -2.3724 -1.7874
  234MOL0     H31565  11.802   2.299   9.707  0.6238 -0.0461  0.8823
  234MOL0     H31566  11.923   2.087   9.506  0.8483  0.5402 -1.1199
  234MOL0     H31567  11.984   2.132   9.661 -0.5613 -1.2074  0.3254
  234MOL0     H31568  12.079   2.251   9.449  0.6942 -1.8860  2.8556
  234MOL0     H31569  11.918   2.318   9.420 -1.8736  0.6393  2.6824
  234MOL0     H31570  11.306   1.481   9.731 -1.4277 -1.5089  0.1795
  234MOL0     H31571  11.082   1.382   9.750  1.2927 -0.1116  0.6806
  234MOL0     H31572  10.744   1.213   9.526 -1.3624 -3.0662 -1.9948
  234MOL0     H31573  10.543   1.087   9.476 -3.0049 -0.7323 -0.8698
  234MOL0     H31574   8.631   0.895   9.788 -1.3357  1.0563  2.0546
  234MOL0     H31575   8.437   0.786   9.652  0.9552  3.7806  0.7001
  234MOL0     H31576   8.260   0.349   9.692  0.4231  1.2071 -1.4623
  234MOL0     H31577   8.128   0.157   9.699  0.3009  0.3391  3.1694
  234MOL0     H31578   7.681   0.203   9.778 -0.7086 -1.4464 -3.7798
  234MOL0     H31579   7.763   0.130   9.917 -0.4887 -1.2635 -1.0265
  234MOL0     H31580   7.654   0.019   9.654 -2.2301  3.3626 -0.0357
  234MOL0     H31581   7.596  -0.001   9.824  0.3914  1.4726  0.6253
  234MOL0     H31582   7.813  -0.117   9.881  0.9067 -2.3144  0.0695
  234MOL0     H31583   7.864  -0.108   9.713 -0.4622  2.5715 -0.3385
  234MOL0     H31584   7.758  -0.338   9.747  0.7221 -0.0730 -0.9303
  234MOL0     H31585   7.618  -0.259   9.807  2.6122 -0.6089  2.6944
  234MOL0     H31586   7.586  -0.242   9.379 -2.2552 -1.0738  0.4718
  234MOL0     H31587   7.788   0.392   9.837  0.0332  4.9819  0.5317
  234MOL0     H31588   7.911   0.693   9.784 -3.5304  0.2429 -0.4681
  234MOL0     H31589   7.816   0.602   9.906  0.3373 -3.7209 -0.2440
  234MOL0     H31590   7.976   0.663   9.953 -0.0162 -1.3429  0.1352
  235MOL0     O31591   2.410   7.055   0.209 -0.0698 -0.6111 -0.3520
  235MOL0     C31592   2.300   7.046   0.144  0.1916 -0.9437 -0.5628
  235MOL0     O31593   2.266   6.958   0.036 -0.7851  0.0804  0.7663
  235MOL0     C31594   2.361   6.859   0.000 -0.2217 -0.8195 -0.5197
  235MOL0     C31595   2.354   6.840  -0.133 -0.5286  0.2836 -0.5770
  235MOL0     C31596   2.445   6.751  -0.194 -0.0114 -0.6103  0.0642
  235MOL0     C31597   2.535   6.683  -0.112 -0.6218  1.1252  0.4993
  235MOL0     O31598   2.623   6.587  -0.161 -0.2866  0.9483  0.5352
  235MOL0     C31599   2.668   6.592  -0.300 -1.7380  0.0753  0.1373
  235MOL0     C31600   2.785   6.486  -0.298  0.7617 -0.5269  0.2208
  235MOL0     C31601   2.761   6.339  -0.248  0.7432 -0.1475 -0.0251
  235MOL0     C31602   2.890   6.265  -0.238 -0.1787 -0.1945  0.5418
  235MOL0     C31603   2.858   6.118  -0.213 -0.4441  1.0749  0.7515
  235MOL0     C31604   2.982   6.045  -0.145 -0.6838  0.4081  0.6447
  235MOL0     C31605   2.961   5.892  -0.133  0.1165  0.9456 -0.4203
  235MOL0     C31606   3.088   5.822  -0.085 -0.5175  0.1844  0.7678
  235MOL0     N31607   3.139   5.902   0.034  0.0135 -0.0365 -0.1254
  235MOL0     C31608   3.066   5.910   0.160  0.0853 -0.2352  0.1257
  235MOL0     C31609   3.151   5.970   0.248 -0.0290  0.1572 -0.2088
  235MOL0     C31610   3.137   6.029   0.385 -0.0770 -0.3251 -0.0852
  235MOL0     C31611   3.266   6.026   0.472  0.2726 -0.4472  0.4383
  235MOL0     C31612   3.263   6.151   0.552 -0.1588  0.8547  0.1165
  235MOL0     C31613   3.379   6.155   0.654  0.3703 -0.4704  0.1870
  235MOL0     O31614   3.375   6.282   0.715  0.1574  0.6864 -0.4137
  235MOL0     C31615   3.462   6.322   0.814 -0.0586  0.9869  0.1711
  235MOL0     C31616   3.592   6.274   0.836  0.3189 -0.3843  0.2521
  235MOL0     C31617   3.674   6.339   0.925 -0.0251 -0.6047  1.2854
  235MOL0     C31618   3.626   6.457   0.997 -0.1487 -0.6434 -0.0914
  235MOL0     C31619   3.721   6.524   1.084 -0.2018  0.2951 -0.5951
  235MOL0     O31620   3.677   6.635   1.161 -0.0373  0.7123  0.6022
  235MOL0     C31621   3.778   6.689   1.234 -0.6497 -1.1701 -0.5108
  235MOL0     C31622   3.814   6.828   1.216  0.4542 -0.5326 -0.5373
  235MOL0     C31623   3.920   6.889   1.287  0.1118 -0.6826  0.7132
  235MOL0     C31624   3.998   6.814   1.375  0.9099 -0.3607 -0.6383
  235MOL0     O31625   4.106   6.879   1.434 -0.1718  0.2301  0.1033
  235MOL0     C31626   4.197   6.804   1.514 -0.2046  0.0833  0.2868
  235MOL0     C31627   4.315   6.887   1.573  0.0181  0.8300 -0.4352
  235MOL0     C31628   4.418   6.937   1.463  0.7043 -0.5939  0.3758
  235MOL0     C31629   4.508   7.058   1.504 -0.3914 -0.2020 -0.0515
  235MOL0     C31630   4.634   7.086   1.419  0.0322  0.0731  0.0709
  235MOL0     C31631   4.716   7.195   1.484  0.8498  0.8476  0.5160
  235MOL0     C31632   4.864   7.201   1.429  0.0738  0.7058  0.2916
  235MOL0     C31633   4.947   7.293   1.524 -0.7499  0.3484 -0.7628
  235MOL0    Cl31634   5.110   7.289   1.470 -0.3967 -0.3994  0.4995
  235MOL0     C31635   3.957   6.679   1.393 -0.7388 -0.0052 -0.1271
  235MOL0     C31636   3.854   6.627   1.329  0.2528 -0.0360 -0.4597
  235MOL0     O31637   3.836   6.479   1.077 -0.0777 -0.4871  0.1735
  235MOL0     C31638   3.496   6.507   0.970  0.1643 -0.6409 -0.3081
  235MOL0     C31639   3.414   6.434   0.887  0.0288 -0.4446  0.7323
  235MOL0     N31640   3.269   5.987   0.178  0.5074  0.4626 -0.0837
  235MOL0     N31641   3.266   5.935   0.061 -0.4394  0.3132  0.7726
  235MOL0     C31642   2.540   6.704   0.021  0.2516 -0.1709  0.4559
  235MOL0     C31643   2.458   6.792   0.078  0.5250 -0.1446 -0.3621
  235MOL0     C31644   2.190   7.145   0.179  1.2976  0.3375 -0.1986
  235MOL0     C31645   2.059   7.110   0.144 -0.3213  0.1416 -0.4078
  235MOL0     C31646   1.953   7.204   0.144  0.9298  0.5151  0.3663
  235MOL0     C31647   1.965   7.332   0.198 -0.6572  0.4716 -0.5198
  235MOL0     O31648   1.854   7.411   0.195 -0.0025 -0.0766  0.1603
  235MOL0     C31649   1.845   7.538   0.269 -0.7695 -0.0257 -0.4085
  235MOL0     C31650   1.755   7.644   0.210  0.2849  0.5986  0.0507
  235MOL0     C31651   1.707   7.745   0.323 -0.6051 -0.1551  0.0368
  235MOL0     C31652   1.581   7.819   0.267 -0.5246  0.0034 -0.6009
  235MOL0     C31653   1.518   7.896   0.376 -0.0011 -0.3559  0.4860
  235MOL0     C31654   1.479   7.965   0.471 -0.5143 -0.1398  0.0655
  235MOL0     C31655   2.096   7.360   0.246  0.0025 -0.3773  0.0312
  235MOL0     C31656   2.212   7.277   0.231  0.4838 -0.2276 -0.5081
  235MOL0     C31657   2.343   7.329   0.275  0.0042  0.1207 -0.0450
  235MOL0     H31658   2.288   6.904  -0.189  1.5390  2.0661 -1.0925
  235MOL0     H31659   2.441   6.738  -0.302 -0.2637  2.6630 -0.4238
  235MOL0     H31660   2.586   6.555  -0.361 -1.1206 -0.3839 -0.4279
  235MOL0     H31661   2.697   6.694  -0.326  0.8461 -0.3679  0.9412
  235MOL0     H31662   2.871   6.528  -0.245  1.6441 -1.6884 -0.2363
  235MOL0     H31663   2.817   6.486  -0.403 -1.0236 -0.9482 -0.3554
  235MOL0     H31664   2.695   6.283  -0.315  0.7579 -0.3409  0.1211
  235MOL0     H31665   2.724   6.355  -0.146  2.5775  1.3279  0.4528
  235MOL0     H31666   2.947   6.279  -0.331  0.6804 -3.0681  0.5443
  235MOL0     H31667   2.956   6.303  -0.159 -0.4872  0.2916  0.5746
  235MOL0     H31668   2.767   6.124  -0.153 -2.7992  0.7085 -2.5353
  235MOL0     H31669   2.834   6.066  -0.306 -0.0976  0.9226  0.7467
  235MOL0     H31670   3.074   6.073  -0.197 -1.2557  0.5439 -0.3220
  235MOL0     H31671   2.979   6.096  -0.049 -3.8279  0.0015  0.8725
  235MOL0     H31672   2.917   5.857  -0.227 -1.2533  2.0836 -0.2351
  235MOL0     H31673   2.890   5.866  -0.054  1.6600 -1.3893  0.3057
  235MOL0     H31674   3.075   5.719  -0.052  5.0927 -0.7059  1.1623
  235MOL0     H31675   3.160   5.821  -0.167 -1.1680  1.6364  0.1297
  235MOL0     H31676   2.959   5.892   0.166 -0.0809  0.3209 -1.0063
  235MOL0     H31677   3.093   6.129   0.373 -1.1678 -0.5786  1.5156
  235MOL0     H31678   3.050   5.976   0.425  0.1248 -1.3285 -0.9405
  235MOL0     H31679   3.269   5.937   0.536  0.9222 -1.3013 -0.7347
  235MOL0     H31680   3.359   6.029   0.414  0.8508  1.0413  1.3949
  235MOL0     H31681   3.174   6.165   0.614 -1.0063 -2.2466 -0.2080
  235MOL0     H31682   3.268   6.229   0.476  2.9019  0.9026  0.2540
  235MOL0     H31683   3.468   6.137   0.593  0.5141  1.2338 -0.1597
  235MOL0     H31684   3.368   6.084   0.736  1.8114  2.0804  2.7715
  235MOL0     H31685   3.610   6.181   0.783 -1.3825  0.0632 -1.2526
  235MOL0     H31686   3.767   6.291   0.955 -1.4103 -3.5758  1.1717
  235MOL0     H31687   3.763   6.885   1.139  1.9260  1.9425  0.2039
  235MOL0     H31688   3.930   6.995   1.268  1.2214 -0.5721  1.8034
  235MOL0     H31689   4.142   6.745   1.587 -1.0708 -1.3999 -1.4854
  235MOL0     H31690   4.246   6.741   1.439 -0.7629  1.5510 -1.3916
  235MOL0     H31691   4.268   6.976   1.616  2.8047  2.6714 -0.9948
  235MOL0     H31692   4.366   6.826   1.648  0.2269  1.5226 -0.0025
  235MOL0     H31693   4.478   6.856   1.420 -2.6146 -3.1682  0.1742
  235MOL0     H31694   4.346   6.960   1.384 -0.2279 -1.4120  0.9706
  235MOL0     H31695   4.539   7.045   1.608 -1.9965 -1.7677  0.2829
  235MOL0     H31696   4.445   7.147   1.492 -0.6065 -0.3909 -0.3489
  235MOL0     H31697   4.597   7.114   1.320  0.2964 -0.3285 -0.1450
  235MOL0     H31698   4.697   6.996   1.417 -0.0180  0.0405  0.0010
  235MOL0     H31699   4.673   7.294   1.467 -0.2611  0.5927  1.6719
  235MOL0     H31700   4.719   7.176   1.591  0.1502 -3.6848 -0.0702
  235MOL0     H31701   4.871   7.234   1.325  2.4764  0.4723  0.3428
  235MOL0     H31702   4.899   7.099   1.446 -0.5228  0.9765  3.9922
  235MOL0     H31703   4.907   7.394   1.517  0.8717  1.2644  1.6017
  235MOL0     H31704   4.954   7.266   1.630  2.5047  4.1177  0.2340
  235MOL0     H31705   4.015   6.607   1.449 -2.9267 -2.0538 -0.3451
  235MOL0     H31706   3.831   6.523   1.344  1.3099 -0.1493  0.4382
  235MOL0     H31707   3.460   6.597   1.018  3.0563  0.4298  0.0678
  235MOL0     H31708   3.310   6.459   0.869 -0.8729 -2.2117  2.9292
  235MOL0     H31709   2.606   6.634   0.071 -1.2760 -1.4860  0.7024
  235MOL0     H31710   2.472   6.818   0.183  1.4326  2.6860 -1.1146
  235MOL0     H31711   2.042   7.012   0.102  0.5552  0.1038 -0.6809
  235MOL0     H31712   1.848   7.187   0.124  0.1202  2.7272  2.3147
  235MOL0     H31713   1.946   7.572   0.290  0.3530 -3.9837  1.6380
  235MOL0     H31714   1.798   7.513   0.365  3.9310  0.9468  2.4284
  235MOL0     H31715   1.673   7.599   0.153 -0.2211 -0.3952  1.4992
  235MOL0     H31716   1.815   7.694   0.133 -0.1263  1.1202  0.0652
  235MOL0     H31717   1.786   7.817   0.345 -1.6545  1.0820 -0.0823
  235MOL0     H31718   1.679   7.686   0.410  0.0599 -2.9552 -1.5379
  235MOL0     H31719   1.626   7.888   0.195  0.1001 -0.1513 -0.3650
  235MOL0     H31720   1.512   7.754   0.212 -0.2165 -2.7425  1.9792
  235MOL0     H31721   1.435   8.030   0.545 -3.5336 -0.5215 -1.2386
  235MOL0     H31722   2.099   7.458   0.292 -0.9614 -0.1761 -0.2996
  235MOL0     H31723   2.395   7.266   0.347  1.1974  0.7349 -0.3479
  235MOL0     H31724   2.421   7.338   0.199 -0.8474  1.2934 -0.8224
  235MOL0     H31725   2.328   7.431   0.311  0.0014 -0.1025  0.5928
  236MOL0     O31726   7.633   7.135   5.207 -0.3403 -0.3474 -0.6076
  236MOL0     C31727   7.630   7.257   5.187  0.7337  0.5558 -0.3718
  236MOL0     O31728   7.737   7.339   5.190  0.2158 -1.1111  0.4149
  236MOL0     C31729   7.861   7.287   5.221  0.0380  0.4307 -0.0793
  236MOL0     C31730   7.936   7.378   5.293 -0.5511 -0.6207  1.0239
  236MOL0     C31731   8.074   7.344   5.315 -0.6256 -1.4230  0.8382
  236MOL0     C31732   8.137   7.236   5.256  1.2053  0.3751  0.6445
  236MOL0     O31733   8.271   7.224   5.284 -0.1263  0.3253  0.4221
  236MOL0     C31734   8.357   7.321   5.230 -0.0239 -1.2439  0.7198
  236MOL0     C31735   8.486   7.239   5.197  0.1724 -1.1356 -0.2317
  236MOL0     C31736   8.466   7.124   5.093  0.0364  1.0385 -0.5014
  236MOL0     C31737   8.600   7.076   5.033  0.1358  0.5598 -0.6733
  236MOL0     C31738   8.673   6.994   5.138  0.4112  0.1544 -1.4927
  236MOL0     C31739   8.783   6.900   5.100  0.4211 -0.0006 -0.5626
  236MOL0     C31740   8.740   6.798   4.984 -0.2379 -0.1828 -1.0558
  236MOL0     C31741   8.822   6.682   4.946  0.1809 -1.2421 -0.2700
  236MOL0     N31742   8.962   6.718   4.906  0.0143  0.9219 -0.3405
  236MOL0     C31743   9.059   6.721   5.006  0.2622 -0.2002  0.1907
  236MOL0     C31744   9.164   6.783   4.949  0.9210 -0.1800  0.4373
  236MOL0     C31745   9.298   6.822   5.009  0.2937  0.2165  0.3286
  236MOL0     C31746   9.280   6.948   5.084 -0.4022 -0.8693  0.6903
  236MOL0     C31747   9.375   7.059   5.031  0.0041 -0.1417 -0.3422
  236MOL0     C31748   9.531   7.020   5.051 -0.3976 -1.3695  0.6105
  236MOL0     O31749   9.583   7.013   4.912 -0.0624  0.2128  0.2679
  236MOL0     C31750   9.705   6.947   4.891 -0.3569  0.2728  0.0494
  236MOL0     C31751   9.812   6.939   4.980  0.1971  0.4870  0.3536
  236MOL0     C31752   9.934   6.868   4.950  1.1475  0.3730  0.2084
  236MOL0     C31753   9.946   6.809   4.823 -0.4614 -0.4147 -0.6153
  236MOL0     C31754  10.076   6.765   4.773 -0.1984  0.5097  0.2778
  236MOL0     O31755  10.188   6.832   4.813  0.5808  0.2629 -0.3856
  236MOL0     C31756  10.319   6.783   4.794  0.2712 -0.3898 -0.9044
  236MOL0     C31757  10.352   6.640   4.785  0.0552 -0.2839 -0.2265
  236MOL0     C31758  10.487   6.598   4.773  0.1734  0.1166  1.0137
  236MOL0     C31759  10.593   6.688   4.782  0.3782 -0.2078  0.4500
  236MOL0     O31760  10.726   6.661   4.761 -0.3843  0.8103 -0.5030
  236MOL0     C31761  10.765   6.532   4.710  0.4768  0.3406  0.2611
  236MOL0     C31762  10.882   6.560   4.615 -0.5933 -0.0146 -0.2514
  236MOL0     C31763  10.995   6.648   4.678 -1.1062 -0.0108 -0.0285
  236MOL0     C31764  11.122   6.665   4.593  0.6451  0.2633 -0.1208
  236MOL0     C31765  11.238   6.729   4.658 -0.1596 -0.8766 -0.1301
  236MOL0     C31766  11.329   6.781   4.554 -0.6161  0.4713  1.1825
  236MOL0     C31767  11.464   6.827   4.609 -0.2315  0.0135  0.2812
  236MOL0     C31768  11.497   6.973   4.597  0.3116 -0.6863  0.5929
  236MOL0    Cl31769  11.373   7.060   4.694 -0.2308  0.0619  0.3119
  236MOL0     C31770  10.559   6.824   4.805  1.0257  0.3238  0.4286
  236MOL0     C31771  10.427   6.865   4.823  0.1946  0.6682  0.4295
  236MOL0     O31772  10.074   6.688   4.680 -0.5897  0.7349  0.6563
  236MOL0     C31773   9.835   6.810   4.739  0.0286 -0.1272  1.3651
  236MOL0     C31774   9.721   6.880   4.768  0.0796 -0.0658  0.5235
  236MOL0     N31775   9.127   6.829   4.821 -0.5112 -0.2652 -0.5989
  236MOL0     N31776   8.998   6.789   4.797 -0.0533 -0.0371 -0.0535
  236MOL0     C31777   8.067   7.159   5.165  0.0350  0.5440 -0.8322
  236MOL0     C31778   7.925   7.179   5.156  0.1899 -0.2877  0.8052
  236MOL0     C31779   7.504   7.317   5.152 -0.9006 -0.6145  0.9354
  236MOL0     C31780   7.455   7.420   5.228  0.5002  0.5049 -0.8662
  236MOL0     C31781   7.328   7.465   5.208  0.2758 -0.2810 -0.0525
  236MOL0     C31782   7.249   7.411   5.108  0.4981  0.1760  0.2213
  236MOL0     O31783   7.118   7.442   5.091  0.5358  0.2183 -0.0534
  236MOL0     C31784   7.038   7.358   5.163 -0.2556  0.2269  0.1126
  236MOL0     C31785   6.990   7.432   5.285  1.0596  0.8609 -1.1736
  236MOL0     C31786   6.895   7.546   5.251  0.0604  0.3072  0.6129
  236MOL0     C31787   6.825   7.618   5.366 -0.8782 -0.1265 -0.5434
  236MOL0     C31788   6.777   7.737   5.308  0.2549  0.0660 -0.6614
  236MOL0     C31789   6.745   7.852   5.268 -0.2590 -0.3650 -0.4909
  236MOL0     C31790   7.304   7.318   5.020 -0.0540 -0.3676 -0.0849
  236MOL0     C31791   7.432   7.270   5.038 -1.2274 -1.0057  0.8188
  236MOL0     C31792   7.490   7.181   4.933  0.5843 -0.0453 -0.5242
  236MOL0     H31793   7.892   7.470   5.330  0.5422  0.9156 -1.3187
  236MOL0     H31794   8.136   7.413   5.370  0.3124 -0.5534 -1.1905
  236MOL0     H31795   8.313   7.362   5.139 -0.3937  1.4651  2.0085
  236MOL0     H31796   8.375   7.404   5.299 -0.1624  0.6965 -1.4474
  236MOL0     H31797   8.531   7.200   5.289  0.6812 -1.6634 -0.6926
  236MOL0     H31798   8.563   7.297   5.145 -0.9696 -0.9671 -1.8008
  236MOL0     H31799   8.395   7.141   5.011 -0.1857 -2.5835 -1.2524
  236MOL0     H31800   8.414   7.046   5.149 -1.6475  0.4625 -2.7235
  236MOL0     H31801   8.582   7.017   4.943  1.7257  0.8219 -1.2030
  236MOL0     H31802   8.660   7.159   4.994  0.9337  0.1122 -0.4095
  236MOL0     H31803   8.722   7.068   5.202 -0.0836 -0.4246 -0.4157
  236MOL0     H31804   8.599   6.935   5.193  1.5713  0.8314  0.9748
  236MOL0     H31805   8.862   6.962   5.056  1.6852 -0.5948  0.7750
  236MOL0     H31806   8.832   6.835   5.174  0.3262 -1.6432 -1.8778
  236MOL0     H31807   8.733   6.865   4.898 -0.7718  1.6222  0.3181
  236MOL0     H31808   8.642   6.753   5.006  0.6759 -1.4010  0.7769
  236MOL0     H31809   8.827   6.616   5.033  2.8686  0.7124  1.1948
  236MOL0     H31810   8.770   6.646   4.856 -0.9700  0.5098 -0.3761
  236MOL0     H31811   9.061   6.678   5.106 -0.7267 -0.5030  0.0936
  236MOL0     H31812   9.348   6.741   5.064  2.2790  0.9525 -0.3105
  236MOL0     H31813   9.369   6.844   4.928 -1.2735 -1.1818 -1.5299
  236MOL0     H31814   9.181   6.992   5.067 -0.4544 -1.8737 -2.3012
  236MOL0     H31815   9.301   6.932   5.190  0.7289  0.1406  0.6401
  236MOL0     H31816   9.357   7.145   5.095  3.3399  0.9387 -0.6569
  236MOL0     H31817   9.345   7.083   4.929 -1.4437 -3.9659 -0.9998
  236MOL0     H31818   9.543   6.932   5.115  0.2861 -0.9986  1.0118
  236MOL0     H31819   9.581   7.104   5.100 -2.5674  1.8457 -2.2270
  236MOL0     H31820   9.807   6.982   5.080  3.0882 -3.4492  2.4767
  236MOL0     H31821  10.017   6.878   5.019  0.8652 -1.3721  0.8560
  236MOL0     H31822  10.283   6.557   4.778 -0.6508  0.3341 -0.7547
  236MOL0     H31823  10.510   6.492   4.762 -2.5546 -0.5312  1.0394
  236MOL0     H31824  10.787   6.472   4.799  3.3801 -0.5136 -0.9009
  236MOL0     H31825  10.691   6.478   4.652  1.8449  0.9488 -2.2065
  236MOL0     H31826  10.923   6.463   4.587  2.3427  1.0138  0.0736
  236MOL0     H31827  10.846   6.607   4.523  0.3742 -1.0563 -1.1978
  236MOL0     H31828  10.954   6.747   4.700 -0.4910  0.7552 -2.0968
  236MOL0     H31829  11.037   6.606   4.770  0.4287 -0.4367 -0.8832
  236MOL0     H31830  11.097   6.715   4.498  2.1985 -2.4479 -2.1062
  236MOL0     H31831  11.147   6.567   4.550 -3.8395 -1.4320  0.5832
  236MOL0     H31832  11.290   6.670   4.734 -3.7174 -0.2144  3.1532
  236MOL0     H31833  11.199   6.812   4.718  0.0243  0.4279 -1.7243
  236MOL0     H31834  11.354   6.716   4.469  2.2978  1.3184  1.2809
  236MOL0     H31835  11.287   6.871   4.508 -0.1922  0.2540  0.3573
  236MOL0     H31836  11.547   6.772   4.564  0.4366 -0.7865  2.3609
  236MOL0     H31837  11.471   6.786   4.710 -2.4459 -1.2935 -0.0325
  236MOL0     H31838  11.598   7.002   4.626  0.0065  0.0432  0.9287
  236MOL0     H31839  11.481   7.004   4.493  0.2186  0.9563  1.0769
  236MOL0     H31840  10.636   6.900   4.789  2.8005 -1.5466 -0.3657
  236MOL0     H31841  10.409   6.971   4.838  0.4267  0.9656 -1.2758
  236MOL0     H31842   9.832   6.763   4.641  1.1753 -0.2471  1.3813
  236MOL0     H31843   9.647   6.889   4.689 -1.3548 -1.1323  1.6899
  236MOL0     H31844   8.131   7.086   5.115 -0.4216 -1.4419  1.2839
  236MOL0     H31845   7.871   7.104   5.098 -0.2166  1.1925 -0.8144
  236MOL0     H31846   7.524   7.466   5.299 -1.5612  1.6580  0.5106
  236MOL0     H31847   7.291   7.552   5.262  1.4106 -0.3826  0.9183
  236MOL0     H31848   7.087   7.263   5.184 -2.6242 -1.4572 -1.6105
  236MOL0     H31849   6.954   7.344   5.096 -2.1541  1.7299  2.0379
  236MOL0     H31850   7.070   7.484   5.337  0.1884  0.5735  0.5306
  236MOL0     H31851   6.938   7.361   5.350 -1.4065  1.2131 -2.6165
  236MOL0     H31852   6.828   7.507   5.174 -1.6724  2.2984  1.0117
  236MOL0     H31853   6.958   7.619   5.200  0.1263  0.5460  1.0333
  236MOL0     H31854   6.742   7.555   5.398 -1.6970  0.9781 -0.4448
  236MOL0     H31855   6.897   7.642   5.445 -2.0823 -0.0622  0.5689
  236MOL0     H31856   6.714   7.947   5.229 -2.4597 -0.7376  0.2115
  236MOL0     H31857   7.250   7.276   4.936  0.3869 -0.8222 -0.1465
  236MOL0     H31858   7.429   7.181   4.842 -1.4995  1.9128  0.7648
  236MOL0     H31859   7.589   7.216   4.902  1.5425 -0.0533  2.3095
  236MOL0     H31860   7.503   7.080   4.973 -1.9374  0.8646  3.0038
  237MOL0     O31861   3.152   5.176   4.566 -0.6774 -1.0320 -0.6030
  237MOL0     C31862   3.123   5.063   4.604  0.5557 -0.0251  0.5516
  237MOL0     O31863   2.997   5.002   4.581 -0.1647  0.4372 -0.2079
  237MOL0     C31864   2.894   5.084   4.531  0.0876 -0.1444 -0.1339
  237MOL0     C31865   2.870   5.217   4.578 -0.4914  1.0069  1.1527
  237MOL0     C31866   2.753   5.281   4.537 -0.0263  0.3772  0.7964
  237MOL0     C31867   2.651   5.220   4.460 -0.3022  0.0950 -0.3034
  237MOL0     O31868   2.541   5.291   4.420  0.9629 -0.2733 -0.6848
  237MOL0     C31869   2.539   5.330   4.289 -0.2834 -1.0290  1.2265
  237MOL0     C31870   2.647   5.429   4.239  0.1824  0.2719  0.1081
  237MOL0     C31871   2.632   5.567   4.292 -0.0910  0.6867  0.0371
  237MOL0     C31872   2.722   5.672   4.225  0.0525 -0.5522  1.3793
  237MOL0     C31873   2.702   5.812   4.293  0.8019  0.2341  0.9332
  237MOL0     C31874   2.728   5.828   4.443  0.0320  0.5753  0.2284
  237MOL0     C31875   2.850   5.758   4.492 -0.9619  0.1544 -0.1902
  237MOL0     C31876   2.877   5.800   4.640  0.1202  0.2162 -0.3398
  237MOL0     N31877   2.971   5.704   4.690  0.3859  0.2614  0.9358
  237MOL0     C31878   3.104   5.691   4.656  0.8460 -0.2992  0.2170
  237MOL0     C31879   3.163   5.611   4.749 -0.1038  0.3220  0.4957
  237MOL0     C31880   3.310   5.593   4.773  0.0424  0.5233  0.3936
  237MOL0     C31881   3.357   5.516   4.650  0.0043 -0.9288  0.7190
  237MOL0     C31882   3.507   5.495   4.641 -0.7618  0.3192 -0.2863
  237MOL0     C31883   3.590   5.619   4.587  0.7804  0.1651  0.4876
  237MOL0     O31884   3.733   5.610   4.587 -0.4853 -0.0382  0.5788
  237MOL0     C31885   3.815   5.605   4.698 -1.0172  0.3323 -0.5379
  237MOL0     C31886   3.947   5.634   4.670  0.5388 -0.4379 -0.2415
  237MOL0     C31887   4.047   5.646   4.769 -0.4595  1.0009 -0.0468
  237MOL0     C31888   4.014   5.622   4.905  0.4360  0.1788  0.0103
  237MOL0     C31889   4.123   5.631   5.004 -0.8048  0.1854 -0.4400
  237MOL0     O31890   4.250   5.635   4.956  0.4795 -0.0476 -0.3946
  237MOL0     C31891   4.356   5.639   5.044 -0.3834  0.1977 -0.5997
  237MOL0     C31892   4.363   5.554   5.161 -0.1571 -1.3515 -0.2305
  237MOL0     C31893   4.484   5.563   5.239  0.2326  0.3318  0.2495
  237MOL0     C31894   4.582   5.662   5.199  0.1877 -0.3829  0.5377
  237MOL0     O31895   4.680   5.690   5.290  0.5138 -0.5971  0.1268
  237MOL0     C31896   4.778   5.591   5.308 -0.1285 -0.2954  0.1908
  237MOL0     C31897   4.874   5.623   5.428  0.9277 -0.2976  0.1878
  237MOL0     C31898   4.987   5.515   5.438 -1.0779  0.4406 -0.2256
  237MOL0     C31899   5.086   5.545   5.561  0.0979 -0.6478  0.2263
  237MOL0     C31900   5.021   5.494   5.688 -0.9455 -0.0771  0.2255
  237MOL0     C31901   5.125   5.490   5.802 -0.1345  0.1867  0.3528
  237MOL0     C31902   5.193   5.630   5.823  0.0223  0.5151 -0.5601
  237MOL0     C31903   5.286   5.619   5.941  0.7893 -0.7737  0.5255
  237MOL0    Cl31904   5.181   5.593   6.080  0.7541  0.2216 -0.1891
  237MOL0     C31905   4.571   5.739   5.092 -0.1933 -0.1235  0.0508
  237MOL0     C31906   4.455   5.728   5.010  0.0963  0.8199 -0.0277
  237MOL0     O31907   4.099   5.649   5.124 -0.0288  0.1879  0.0366
  237MOL0     C31908   3.878   5.601   4.936 -0.1638 -1.2109  0.2857
  237MOL0     C31909   3.776   5.594   4.844 -0.2634 -0.3020  0.5085
  237MOL0     N31910   3.063   5.557   4.826  0.1564  0.5265  0.2337
  237MOL0     N31911   2.950   5.613   4.795  1.1415  0.5211 -0.2461
  237MOL0     C31912   2.683   5.089   4.425  0.9322  0.0953 -0.6903
  237MOL0     C31913   2.803   5.020   4.453  0.0430  0.2036 -0.0738
  237MOL0     C31914   3.223   4.972   4.673  0.3034 -0.3303  0.1988
  237MOL0     C31915   3.179   4.842   4.701  0.3736  0.0091  0.2785
  237MOL0     C31916   3.258   4.752   4.772  0.6834 -0.0588  0.3767
  237MOL0     C31917   3.381   4.782   4.813  0.2463  0.5641 -0.1544
  237MOL0     O31918   3.450   4.675   4.868 -0.1462 -0.3982 -0.3901
  237MOL0     C31919   3.588   4.691   4.897 -0.3126  0.7272 -0.7244
  237MOL0     C31920   3.640   4.579   5.000 -0.5262 -0.4685  0.1759
  237MOL0     C31921   3.793   4.563   5.026 -0.8448 -0.4792  0.6554
  237MOL0     C31922   3.841   4.697   5.093  0.4790 -0.3116 -0.4004
  237MOL0     C31923   3.988   4.711   5.092 -0.3311  0.7122  0.8831
  237MOL0     C31924   4.110   4.712   5.073 -0.9434  0.7529  0.2752
  237MOL0     C31925   3.435   4.908   4.777 -0.2801  0.0585  0.7457
  237MOL0     C31926   3.360   5.005   4.713  1.0250 -0.3011  0.4664
  237MOL0     C31927   3.426   5.141   4.708  0.2300 -0.8811 -0.5098
  237MOL0     H31928   2.946   5.271   4.634  1.1016 -0.1234  0.1699
  237MOL0     H31929   2.750   5.388   4.556 -2.6982  0.8706 -1.6519
  237MOL0     H31930   2.565   5.249   4.220  2.0650 -2.7536  3.9294
  237MOL0     H31931   2.441   5.374   4.266  0.7986  0.9911  0.2006
  237MOL0     H31932   2.660   5.423   4.130  0.2527  1.3309  0.0434
  237MOL0     H31933   2.746   5.400   4.275  0.5493  2.5553  1.0878
  237MOL0     H31934   2.664   5.557   4.396  0.9788  1.2921 -0.2231
  237MOL0     H31935   2.527   5.591   4.270 -0.6650  0.8748  2.6198
  237MOL0     H31936   2.824   5.640   4.247 -0.0404 -1.3131  0.7630
  237MOL0     H31937   2.704   5.684   4.118  0.1915 -1.4231  1.2541
  237MOL0     H31938   2.773   5.878   4.242  0.8791 -1.0609 -0.7562
  237MOL0     H31939   2.606   5.846   4.255  1.3581  0.9176  0.1006
  237MOL0     H31940   2.735   5.932   4.474 -0.5945 -0.2914  3.7315
  237MOL0     H31941   2.646   5.776   4.494  2.4332 -1.8144  1.9742
  237MOL0     H31942   2.931   5.785   4.423 -1.5567 -1.0510 -1.4011
  237MOL0     H31943   2.843   5.649   4.495 -1.8030  0.2247  0.9771
  237MOL0     H31944   2.931   5.895   4.644  3.1081 -1.4248  2.4795
  237MOL0     H31945   2.791   5.797   4.707  0.5587 -2.6665  0.2369
  237MOL0     H31946   3.161   5.746   4.582  1.0745 -0.0835  0.5521
  237MOL0     H31947   3.373   5.682   4.775 -0.2296  0.7385 -0.2779
  237MOL0     H31948   3.341   5.534   4.860  2.2670 -1.2523 -1.4665
  237MOL0     H31949   3.310   5.418   4.658  0.4802 -1.2985 -0.7398
  237MOL0     H31950   3.326   5.559   4.555  1.2938  0.8858  1.0557
  237MOL0     H31951   3.527   5.415   4.570 -2.2743 -0.9460  0.6560
  237MOL0     H31952   3.541   5.459   4.739 -0.9639  0.0407 -0.3202
  237MOL0     H31953   3.573   5.713   4.642  0.8742  1.0137 -0.8811
  237MOL0     H31954   3.557   5.637   4.484 -0.6734  2.6823  1.3028
  237MOL0     H31955   3.966   5.666   4.568  0.1976  0.5805  0.0087
  237MOL0     H31956   4.148   5.661   4.733  0.0606 -3.6612 -1.0686
  237MOL0     H31957   4.279   5.489   5.183 -0.1034 -1.5073 -0.4840
  237MOL0     H31958   4.486   5.500   5.327 -4.0368 -0.7111 -0.1536
  237MOL0     H31959   4.729   5.496   5.331 -4.5807  1.1987 -2.0968
  237MOL0     H31960   4.840   5.577   5.219  2.7213 -0.5023  2.0623
  237MOL0     H31961   4.917   5.723   5.411  2.1136 -1.0471 -1.5559
  237MOL0     H31962   4.830   5.629   5.528 -0.3862 -3.8892 -0.0374
  237MOL0     H31963   4.949   5.413   5.441 -1.0268  0.4384  0.7113
  237MOL0     H31964   5.047   5.522   5.347 -1.2065 -2.0709 -0.5751
  237MOL0     H31965   5.096   5.654   5.553 -2.1244 -0.3450  1.0136
  237MOL0     H31966   5.184   5.499   5.545  0.9568  1.5311 -1.3454
  237MOL0     H31967   4.994   5.389   5.678  3.6076 -1.3931 -0.7925
  237MOL0     H31968   4.930   5.551   5.709 -2.4543 -1.6803 -1.5343
  237MOL0     H31969   5.072   5.456   5.891  2.0908 -0.7208  1.4054
  237MOL0     H31970   5.202   5.414   5.785 -0.6894 -0.4207  0.4945
  237MOL0     H31971   5.116   5.705   5.845  3.4250  3.4054  2.7780
  237MOL0     H31972   5.251   5.659   5.734 -0.3033  2.4272 -0.1921
  237MOL0     H31973   5.358   5.537   5.937 -0.3653 -1.8718 -4.4891
  237MOL0     H31974   5.327   5.718   5.963 -1.8301  1.3019 -3.0243
  237MOL0     H31975   4.643   5.813   5.057 -0.1311 -1.0992 -2.0723
  237MOL0     H31976   4.448   5.792   4.922  1.6644  0.9601 -0.0853
  237MOL0     H31977   3.852   5.607   5.041  1.7176 -2.1228  0.8583
  237MOL0     H31978   3.669   5.584   4.860 -0.1414 -1.2172  0.8306
  237MOL0     H31979   2.606   5.038   4.367 -1.7240  1.6961  1.2281
  237MOL0     H31980   2.820   4.919   4.416 -1.1964 -0.8007  1.9049
  237MOL0     H31981   3.082   4.803   4.671  1.0952 -4.0219  2.4881
  237MOL0     H31982   3.226   4.651   4.793 -0.3261 -0.0842 -1.1260
  237MOL0     H31983   3.582   4.787   4.949 -2.1177  1.2272 -1.7588
  237MOL0     H31984   3.646   4.689   4.805 -0.7467 -1.5572 -1.0093
  237MOL0     H31985   3.615   4.487   4.946  1.6236  1.1745 -4.0740
  237MOL0     H31986   3.587   4.596   5.094 -0.1183  2.2199 -0.0252
  237MOL0     H31987   3.842   4.535   4.933  0.3737  1.7625  0.5605
  237MOL0     H31988   3.808   4.479   5.094  3.7745 -1.4952 -1.2590
  237MOL0     H31989   3.796   4.775   5.031  2.3689  1.1221 -0.1051
  237MOL0     H31990   3.801   4.700   5.195 -1.1036 -0.1627 -1.0109
  237MOL0     H31991   4.206   4.733   5.028 -2.4055  0.6834 -3.2354
  237MOL0     H31992   3.540   4.929   4.798 -0.3927  1.2455  0.2061
  237MOL0     H31993   3.534   5.137   4.725  0.1539 -1.8796 -0.2026
  237MOL0     H31994   3.408   5.193   4.613  2.1934  1.9829  0.5272
  237MOL0     H31995   3.373   5.201   4.783  1.8039  1.2964 -1.0347
  238MOL0     O31996   5.979   5.095  10.487 -0.0209  0.2659 -0.0843
  238MOL0     C31997   5.955   5.217  10.495  0.1612 -0.9393  0.8909
  238MOL0     O31998   6.049   5.318  10.509 -1.1271  0.4246 -0.4520
  238MOL0     C31999   6.187   5.281  10.481 -0.5737 -0.0186  0.1701
  238MOL0     C32000   6.278   5.269  10.578 -0.5918  0.7946 -0.1887
  238MOL0     C32001   6.411   5.243  10.547  0.1765 -0.4047  0.6693
  238MOL0     C32002   6.446   5.232  10.411  0.0844 -1.1889  0.3339
  238MOL0     O32003   6.574   5.205  10.376  0.1312 -0.2116  0.5140
  238MOL0     C32004   6.675   5.169  10.471 -0.3558 -0.9239  0.6577
  238MOL0     C32005   6.812   5.137  10.410  0.9737 -0.4824  0.7547
  238MOL0     C32006   6.903   5.266  10.407  0.0886 -0.3322  0.5647
  238MOL0     C32007   6.839   5.379  10.322 -0.4020 -0.1157 -0.5515
  238MOL0     C32008   6.931   5.500  10.304  0.5589  0.4100  0.0165
  238MOL0     C32009   6.889   5.603  10.200  0.8544  0.2526  0.2672
  238MOL0     C32010   7.013   5.665  10.124 -0.2171 -0.1698 -0.9048
  238MOL0     C32011   7.086   5.576  10.022  0.0115 -0.2085 -0.5710
  238MOL0     N32012   7.001   5.506   9.931  0.7332  0.8562 -0.0951
  238MOL0     C32013   6.943   5.385   9.949  0.0811  0.1240 -1.1703
  238MOL0     C32014   6.884   5.348   9.824  0.2865 -0.1646  0.3126
  238MOL0     C32015   6.783   5.244   9.795  1.2403  0.1014  0.0358
  238MOL0     C32016   6.643   5.303   9.797  0.3473 -0.6113 -0.3520
  238MOL0     C32017   6.584   5.341   9.661  0.0031  0.1918 -0.6516
  238MOL0     C32018   6.450   5.405   9.679  0.1665  0.0708 -0.3458
  238MOL0     O32019   6.371   5.299   9.743 -0.4665  0.4473  0.3068
  238MOL0     C32020   6.240   5.322   9.787 -0.3203 -0.1795  0.1150
  238MOL0     C32021   6.187   5.230   9.879  0.8198  0.5367  0.2646
  238MOL0     C32022   6.058   5.241   9.931 -0.0921 -0.0193  0.4135
  238MOL0     C32023   5.978   5.345   9.881 -1.2433  0.4715  0.5839
  238MOL0     C32024   5.843   5.373   9.931 -0.0502  0.5667 -0.3951
  238MOL0     O32025   5.769   5.262   9.983  0.0821 -0.7734 -0.2388
  238MOL0     C32026   5.645   5.299  10.032  0.4209 -0.3639  0.3038
  238MOL0     C32027   5.528   5.307   9.945  0.2364  0.7114  0.9627
  238MOL0     C32028   5.394   5.337   9.984 -0.2333  0.0624  0.3173
  238MOL0     C32029   5.384   5.400  10.106 -0.2128 -0.4308 -0.1520
  238MOL0     O32030   5.257   5.434  10.132 -0.4286  0.5554 -0.2018
  238MOL0     C32031   5.217   5.438  10.264 -0.6256 -0.1307 -0.6255
  238MOL0     C32032   5.067   5.460  10.281 -0.5426 -0.8134 -0.2529
  238MOL0     C32033   5.031   5.420  10.422 -0.0679 -0.3351 -0.4339
  238MOL0     C32034   4.880   5.423  10.437 -0.4884  0.9554  1.1116
  238MOL0     C32035   4.842   5.363  10.576 -0.1050 -0.9140  0.1000
  238MOL0     C32036   4.695   5.358  10.618 -0.3268 -0.8317  0.5916
  238MOL0     C32037   4.613   5.258  10.545 -0.5981  0.4437 -0.3842
  238MOL0     C32038   4.663   5.115  10.593 -0.0419  0.0252 -0.4591
  238MOL0    Cl32039   4.575   4.983  10.519  0.2822 -0.0269  0.2066
  238MOL0     C32040   5.489   5.403  10.197  0.4342  0.7962  0.9721
  238MOL0     C32041   5.615   5.361  10.156  0.1394 -0.5344  1.2126
  238MOL0     O32042   5.786   5.483   9.907 -0.2289  0.2348  0.1446
  238MOL0     C32043   6.036   5.445   9.794  0.2902 -0.1980  0.4174
  238MOL0     C32044   6.166   5.432   9.743  0.9305 -0.3787 -0.3439
  238MOL0     N32045   6.926   5.453   9.733  0.7447  0.5230 -0.2581
  238MOL0     N32046   6.993   5.544   9.794 -0.3207  0.4424 -0.1773
  238MOL0     C32047   6.353   5.250  10.311  1.0683 -0.8432 -0.5903
  238MOL0     C32048   6.216   5.276  10.343 -0.3199  0.5206 -0.6267
  238MOL0     C32049   5.816   5.258  10.514  0.3474  0.3827 -0.3811
  238MOL0     C32050   5.789   5.382  10.574  0.0592 -1.7283  0.6943
  238MOL0     C32051   5.661   5.429  10.592  0.0999 -1.4148  0.3504
  238MOL0     C32052   5.559   5.350  10.555 -0.1198 -0.7293  0.1654
  238MOL0     O32053   5.422   5.382  10.562  0.2989 -0.4691  0.0294
  238MOL0     C32054   5.380   5.475  10.667 -0.0191 -0.0548 -0.7426
  238MOL0     C32055   5.305   5.394  10.786 -0.0639 -0.0531 -0.4342
  238MOL0     C32056   5.172   5.465  10.835  0.0842  0.3361  0.8436
  238MOL0     C32057   5.117   5.385  10.949 -0.7382  0.4754 -0.4216
  238MOL0     C32058   4.983   5.403  10.990  0.6789 -0.0675  0.3815
  238MOL0     C32059   4.861   5.420  11.014 -0.6046  0.4193 -0.3298
  238MOL0     C32060   5.578   5.230  10.491 -0.0988  0.2626  0.5600
  238MOL0     C32061   5.703   5.172  10.474  1.0452 -0.0804 -0.7213
  238MOL0     C32062   5.726   5.037  10.413  0.6059 -0.6939 -0.2028
  238MOL0     H32063   6.246   5.278  10.681  1.0099 -1.9735  0.6560
  238MOL0     H32064   6.487   5.230  10.623  0.8116  1.7580  0.4457
  238MOL0     H32065   6.683   5.253  10.539 -3.6048  0.3444 -0.3094
  238MOL0     H32066   6.650   5.076  10.524  2.7813 -2.2748 -0.0170
  238MOL0     H32067   6.799   5.098  10.309 -1.9121  2.8690 -0.3671
  238MOL0     H32068   6.869   5.075  10.480  1.9504  1.0461  1.3784
  238MOL0     H32069   6.999   5.241  10.361  0.6149 -0.0526  1.4945
  238MOL0     H32070   6.916   5.315  10.504  0.4454  1.4045 -0.3228
  238MOL0     H32071   6.803   5.328  10.233 -2.5114  1.1491 -0.4789
  238MOL0     H32072   6.747   5.407  10.375 -0.1356 -0.8011  0.3092
  238MOL0     H32073   6.939   5.545  10.403  0.3755 -0.6318  0.5210
  238MOL0     H32074   7.028   5.461  10.272 -0.2368 -3.2931  1.6122
  238MOL0     H32075   6.815   5.561  10.132  1.1193  2.1915 -1.3002
  238MOL0     H32076   6.844   5.690  10.250 -0.7276  0.4261 -1.3702
  238MOL0     H32077   7.078   5.687  10.209 -4.8285 -2.5205  3.7073
  238MOL0     H32078   6.992   5.762  10.078  0.7755  0.7381  0.4645
  238MOL0     H32079   7.153   5.637   9.960 -0.0912 -0.1066 -0.5835
  238MOL0     H32080   7.151   5.510  10.080 -1.5735  1.2004  3.1278
  238MOL0     H32081   6.933   5.328  10.040 -2.6838 -0.1501 -1.5647
  238MOL0     H32082   6.812   5.183   9.709 -3.3843 -0.6152 -1.2855
  238MOL0     H32083   6.783   5.180   9.884 -0.6463  0.9322  0.6687
  238MOL0     H32084   6.583   5.215   9.823  0.7948 -0.8209 -0.0015
  238MOL0     H32085   6.630   5.373   9.880 -1.3402 -1.1474 -0.1206
  238MOL0     H32086   6.580   5.261   9.586  1.1074  0.5056 -1.0572
  238MOL0     H32087   6.648   5.419   9.619 -0.4623  0.7981 -0.2554
  238MOL0     H32088   6.405   5.425   9.581 -1.1456 -1.2398 -0.0493
  238MOL0     H32089   6.468   5.499   9.732  0.8493  0.3779 -1.1022
  238MOL0     H32090   6.263   5.166   9.923  0.6731  1.5977  2.1393
  238MOL0     H32091   6.023   5.166  10.000 -1.5538  2.0551  2.0221
  238MOL0     H32092   5.546   5.270   9.844 -1.6988 -1.9763  1.5011
  238MOL0     H32093   5.310   5.320   9.918 -0.9276 -2.5248  1.7407
  238MOL0     H32094   5.249   5.342  10.306 -0.6355  0.6563  1.3052
  238MOL0     H32095   5.255   5.527  10.314 -1.6775  1.0583 -1.8482
  238MOL0     H32096   5.035   5.563  10.262 -2.6627 -1.2937  0.3557
  238MOL0     H32097   5.017   5.386  10.218 -0.5608 -1.2475  0.2691
  238MOL0     H32098   5.078   5.327  10.454  1.1790  0.6501  0.7483
  238MOL0     H32099   5.076   5.496  10.487  2.3803 -1.2218 -0.9872
  238MOL0     H32100   4.845   5.370  10.348 -1.9379  0.7211  1.7930
  238MOL0     H32101   4.829   5.520  10.436 -1.6682  0.5602  4.7425
  238MOL0     H32102   4.882   5.425  10.657  0.4625  0.1619 -0.9728
  238MOL0     H32103   4.888   5.264  10.578  2.5950  0.2570  1.6079
  238MOL0     H32104   4.693   5.324  10.722 -0.9492 -1.1261  0.4860
  238MOL0     H32105   4.662   5.462  10.613  0.9335 -0.4771 -2.2233
  238MOL0     H32106   4.623   5.281  10.438 -1.9935 -0.0632 -0.6389
  238MOL0     H32107   4.507   5.268  10.567 -1.4081 -1.8999 -2.6768
  238MOL0     H32108   4.769   5.099  10.571 -0.9501 -3.6589 -3.1941
  238MOL0     H32109   4.652   5.118  10.702 -2.7229 -0.0902 -0.6518
  238MOL0     H32110   5.480   5.447  10.295 -4.5879  1.5833  0.4184
  238MOL0     H32111   5.704   5.360  10.219  1.6367 -0.8641 -0.7902
  238MOL0     H32112   5.970   5.526   9.767  0.5299 -0.4768 -1.0807
  238MOL0     H32113   6.193   5.502   9.665 -1.4746  0.2663 -0.6543
  238MOL0     H32114   6.388   5.239  10.208 -1.0846 -0.8834 -1.3666
  238MOL0     H32115   6.147   5.291  10.261  0.4538  1.0420 -1.1963
  238MOL0     H32116   5.875   5.440  10.604 -1.1874  0.8315 -0.4197
  238MOL0     H32117   5.647   5.531  10.627 -2.2372 -1.9492  1.1606
  238MOL0     H32118   5.313   5.547  10.620 -1.5219  2.1536  4.0578
  238MOL0     H32119   5.458   5.534  10.716  0.0673 -1.7418  1.3607
  238MOL0     H32120   5.364   5.397  10.878 -0.8374 -2.8577  0.2533
  238MOL0     H32121   5.289   5.290  10.755  0.7258 -0.7176  1.2610
  238MOL0     H32122   5.093   5.469  10.761 -1.8327 -2.4402  2.5666
  238MOL0     H32123   5.196   5.564  10.876 -0.9963  0.0778  2.1588
  238MOL0     H32124   5.126   5.280  10.919  0.7408  0.9547 -1.8175
  238MOL0     H32125   5.190   5.403  11.028  1.8402 -0.2440 -2.4996
  238MOL0     H32126   4.758   5.431  11.039 -0.2720  1.2948  0.7257
  238MOL0     H32127   5.496   5.172  10.452  1.1862  1.2248 -4.2414
  238MOL0     H32128   5.758   4.969  10.493 -1.1809 -1.1563  0.1652
  238MOL0     H32129   5.628   5.004  10.377  0.7677 -1.0560 -0.3205
  238MOL0     H32130   5.795   5.035  10.328  3.1529  0.7352  1.7004
  239MOL0     O32131   6.563   9.090   2.801 -0.0018 -0.0935 -0.0969
  239MOL0     C32132   6.486   9.178   2.817  0.1852 -0.1419  0.3906
  239MOL0     O32133   6.518   9.312   2.809 -0.5477  0.5770  0.2706
  239MOL0     C32134   6.637   9.344   2.746  0.5885 -0.9891  0.3657
  239MOL0     C32135   6.744   9.382   2.823  0.4861 -0.2616 -0.0545
  239MOL0     C32136   6.860   9.433   2.761 -0.7906 -0.0899 -0.2542
  239MOL0     C32137   6.878   9.431   2.622  0.6310 -0.3927  0.2546
  239MOL0     O32138   7.003   9.448   2.562 -1.1527 -0.4206  0.5372
  239MOL0     C32139   7.091   9.341   2.592  0.1253 -0.2830 -0.0207
  239MOL0     C32140   7.117   9.255   2.470 -0.6167  0.2020  0.9709
  239MOL0     C32141   7.234   9.155   2.490 -0.9176 -0.4238 -0.0688
  239MOL0     C32142   7.242   9.047   2.376 -0.1515 -0.0134 -0.2705
  239MOL0     C32143   7.381   8.973   2.377  0.1155  0.2344  0.2025
  239MOL0     C32144   7.437   8.916   2.241 -0.0188  0.0175  0.9797
  239MOL0     C32145   7.574   8.839   2.223  0.2866  0.3078 -0.3033
  239MOL0     C32146   7.691   8.930   2.248 -0.4359 -0.0397  0.3349
  239MOL0     N32147   7.816   8.863   2.244  0.1028 -0.2606 -0.1727
  239MOL0     C32148   7.846   8.751   2.317 -0.0742  0.1446 -0.3955
  239MOL0     C32149   7.977   8.742   2.296 -0.7424  0.0568  0.7914
  239MOL0     C32150   8.059   8.630   2.367  0.5959 -0.3848 -0.0238
  239MOL0     C32151   8.099   8.514   2.273  0.5607  0.0766  0.3651
  239MOL0     C32152   7.997   8.422   2.201 -0.9380 -0.9484 -0.4897
  239MOL0     C32153   7.944   8.479   2.064 -0.0806 -0.1676 -0.1140
  239MOL0     O32154   7.851   8.391   1.995  0.2560  0.1950 -0.2258
  239MOL0     C32155   7.726   8.420   2.027 -0.1516  0.3488  0.2585
  239MOL0     C32156   7.662   8.506   2.117 -0.4838  0.0335  0.6289
  239MOL0     C32157   7.524   8.510   2.129 -0.5542  0.0486 -0.2053
  239MOL0     C32158   7.438   8.458   2.038  0.4554  0.2040  0.7555
  239MOL0     C32159   7.295   8.472   2.051 -0.7993 -0.2839 -0.1050
  239MOL0     O32160   7.246   8.578   2.128  0.0791 -0.0571 -0.1558
  239MOL0     C32161   7.115   8.614   2.109  0.1464  0.4527 -0.1118
  239MOL0     C32162   7.069   8.744   2.095 -0.2716  0.7337 -0.0679
  239MOL0     C32163   6.931   8.776   2.058  0.2705  1.1025  0.4114
  239MOL0     C32164   6.831   8.676   2.042  0.3211 -0.2895  0.0682
  239MOL0     O32165   6.701   8.727   2.033  0.9530  0.6721  0.9063
  239MOL0     C32166   6.597   8.637   1.982  0.3734 -0.4357 -0.4736
  239MOL0     C32167   6.553   8.677   1.846  0.5264  0.3867 -0.2631
  239MOL0     C32168   6.654   8.624   1.752 -0.0071 -0.4474  0.1306
  239MOL0     C32169   6.654   8.686   1.610 -0.1549  0.1219  0.0072
  239MOL0     C32170   6.760   8.620   1.520 -0.4576 -0.7301  0.4204
  239MOL0     C32171   6.763   8.680   1.381 -1.0019  0.4279 -0.1457
  239MOL0     C32172   6.644   8.676   1.288  0.3321 -0.6753 -0.2880
  239MOL0     C32173   6.663   8.764   1.168 -0.1801 -0.3893 -0.3244
  239MOL0    Cl32174   6.501   8.737   1.079  0.0912 -0.2312 -0.3590
  239MOL0     C32175   6.870   8.537   2.069  0.1712 -0.5902  0.5181
  239MOL0     C32176   7.007   8.523   2.107  0.8288 -0.7646  0.1970
  239MOL0     O32177   7.227   8.383   1.988 -0.0783  0.2485  0.5954
  239MOL0     C32178   7.496   8.370   1.941 -0.3758 -0.1095 -0.3889
  239MOL0     C32179   7.629   8.347   1.946 -0.4247 -0.4315 -0.0523
  239MOL0     N32180   8.024   8.840   2.203  0.0085  0.6608 -0.3471
  239MOL0     N32181   7.930   8.907   2.174  0.7439 -0.1594 -0.2990
  239MOL0     C32182   6.765   9.408   2.544 -0.0792  0.7585 -1.1945
  239MOL0     C32183   6.648   9.361   2.605  0.0381  0.1945 -0.3753
  239MOL0     C32184   6.341   9.155   2.858 -0.1389 -0.0516  0.1785
  239MOL0     C32185   6.260   9.271   2.877  0.1926 -0.2458 -0.9927
  239MOL0     C32186   6.131   9.249   2.931 -0.0366  0.0459 -0.5981
  239MOL0     C32187   6.076   9.123   2.961 -0.2042 -0.2852  0.6828
  239MOL0     O32188   5.957   9.115   3.019  0.0372 -0.1588 -0.0182
  239MOL0     C32189   5.869   9.004   2.984 -0.2000 -0.6150  0.6325
  239MOL0     C32190   5.858   8.983   2.833  0.0300 -1.1275  0.8208
  239MOL0     C32191   5.811   9.098   2.748  0.3763 -0.1877 -0.0510
  239MOL0     C32192   5.678   9.165   2.788 -0.1297  0.4872 -0.4813
  239MOL0     C32193   5.648   9.255   2.685  0.2422 -0.5337  0.5461
  239MOL0     C32194   5.632   9.349   2.603 -0.0254 -0.4647  1.0933
  239MOL0     C32195   6.158   9.017   2.943  0.4433  0.3317  0.0008
  239MOL0     C32196   6.282   9.028   2.880  0.8010  1.0239  0.5478
  239MOL0     C32197   6.354   8.892   2.847 -0.4583 -0.6100 -0.5090
  239MOL0     H32198   6.746   9.400   2.930  1.5830  1.9062 -0.3874
  239MOL0     H32199   6.934   9.471   2.830 -2.2056 -2.2238  2.6706
  239MOL0     H32200   7.181   9.385   2.636  0.5803 -0.4163 -0.8068
  239MOL0     H32201   7.048   9.279   2.672 -0.2640  0.8327  0.6525
  239MOL0     H32202   7.133   9.325   2.388 -1.8871 -3.1761 -2.4399
  239MOL0     H32203   7.028   9.201   2.436 -1.8866  1.8067  1.5932
  239MOL0     H32204   7.241   9.108   2.588  3.0466  1.0929  0.5420
  239MOL0     H32205   7.320   9.222   2.485 -3.0958  2.4828 -2.1792
  239MOL0     H32206   7.152   8.988   2.395  0.4273 -1.3921 -1.6434
  239MOL0     H32207   7.220   9.083   2.276 -0.9971 -4.3874 -1.8980
  239MOL0     H32208   7.458   9.050   2.388  0.8553 -0.1678 -1.6842
  239MOL0     H32209   7.391   8.896   2.455 -1.8946  0.8743  1.1468
  239MOL0     H32210   7.362   8.845   2.205 -0.7389  0.9994  0.4870
  239MOL0     H32211   7.428   8.997   2.168 -2.0068 -1.0225 -0.0407
  239MOL0     H32212   7.597   8.785   2.131  2.6600  1.6743 -0.5961
  239MOL0     H32213   7.553   8.772   2.308 -1.7884  1.8276  0.4602
  239MOL0     H32214   7.697   9.013   2.178 -0.0449  1.9774  2.6119
  239MOL0     H32215   7.679   8.979   2.345  0.3270 -0.0052  0.4184
  239MOL0     H32216   7.786   8.692   2.387 -0.0312  0.3176 -0.2116
  239MOL0     H32217   8.142   8.690   2.408  0.1355  0.8009 -0.7670
  239MOL0     H32218   7.987   8.596   2.442  0.9261  0.8518  0.8869
  239MOL0     H32219   8.158   8.574   2.202  1.7040 -2.8575 -1.3475
  239MOL0     H32220   8.168   8.444   2.321 -1.4660 -1.0324  1.7582
  239MOL0     H32221   7.920   8.408   2.277  0.0006  2.1367  1.1851
  239MOL0     H32222   8.036   8.322   2.179 -0.6899 -1.0775  0.4893
  239MOL0     H32223   8.031   8.488   1.998 -0.9685  3.3533 -1.0333
  239MOL0     H32224   7.908   8.582   2.070 -0.5626 -0.2387 -1.5483
  239MOL0     H32225   7.731   8.558   2.183  1.4925 -0.4568 -0.9615
  239MOL0     H32226   7.480   8.566   2.211  0.2788  0.8449 -0.2845
  239MOL0     H32227   7.133   8.831   2.091 -0.9849  1.2285 -3.1316
  239MOL0     H32228   6.908   8.880   2.040  2.7607  1.1901 -3.3500
  239MOL0     H32229   6.625   8.531   1.982  1.9033 -0.0687  0.2697
  239MOL0     H32230   6.513   8.657   2.049  0.8411 -0.6638  0.1909
  239MOL0     H32231   6.457   8.636   1.814  0.1873  3.9167 -4.6271
  239MOL0     H32232   6.556   8.786   1.841  1.0842  0.4536  1.0956
  239MOL0     H32233   6.759   8.636   1.781  0.4209  3.7343 -2.2937
  239MOL0     H32234   6.628   8.518   1.746 -1.2643 -0.1166 -0.5169
  239MOL0     H32235   6.668   8.793   1.626 -3.2893  0.6306  0.0261
  239MOL0     H32236   6.552   8.680   1.572 -2.3058 -0.4158  5.0390
  239MOL0     H32237   6.749   8.511   1.516 -2.5733 -0.5451 -0.3231
  239MOL0     H32238   6.854   8.647   1.567 -0.6106 -1.3359  1.1023
  239MOL0     H32239   6.789   8.787   1.387 -2.6619  0.9428 -1.4152
  239MOL0     H32240   6.852   8.633   1.337 -0.2627  1.2646  0.4117
  239MOL0     H32241   6.562   8.708   1.352  1.5824 -0.4546  1.2824
  239MOL0     H32242   6.620   8.573   1.259 -1.8495 -0.3619  0.2310
  239MOL0     H32243   6.689   8.864   1.205  1.6017 -0.7836 -0.4228
  239MOL0     H32244   6.747   8.724   1.109  2.7037  1.1867  2.3846
  239MOL0     H32245   6.793   8.461   2.065 -1.5926  0.7905  4.1030
  239MOL0     H32246   7.033   8.418   2.120  1.8545 -0.4686  0.6415
  239MOL0     H32247   7.438   8.319   1.865  1.9803 -1.9060 -1.0876
  239MOL0     H32248   7.656   8.269   1.876 -0.9401 -1.6833  1.0869
  239MOL0     H32249   6.771   9.429   2.437 -4.1140  0.1346 -1.7072
  239MOL0     H32250   6.559   9.342   2.546  0.1349  1.0372 -0.8008
  239MOL0     H32251   6.288   9.373   2.856 -1.5481  0.5758  0.3962
  239MOL0     H32252   6.065   9.336   2.929 -1.2801 -0.7600 -5.0712
  239MOL0     H32253   5.770   9.023   3.025 -0.0344  1.4532  0.1828
  239MOL0     H32254   5.896   8.909   3.031  1.2739 -1.1038 -1.0755
  239MOL0     H32255   5.783   8.905   2.818 -0.7029 -0.2109 -0.4584
  239MOL0     H32256   5.946   8.937   2.786 -0.2659 -1.5485  0.6758
  239MOL0     H32257   5.795   9.044   2.654 -4.1434 -1.3202  1.1651
  239MOL0     H32258   5.885   9.177   2.731  0.2081  0.7349  3.0024
  239MOL0     H32259   5.601   9.089   2.804 -0.5095  0.8196 -0.6864
  239MOL0     H32260   5.703   9.229   2.872  1.0510 -0.2899 -0.2245
  239MOL0     H32261   5.618   9.416   2.521 -1.0337 -1.6168  0.2929
  239MOL0     H32262   6.116   8.920   2.965 -2.0776  0.6923 -2.6262
  239MOL0     H32263   6.288   8.805   2.847  0.1759 -1.0999 -0.2510
  239MOL0     H32264   6.419   8.891   2.758 -0.1539  0.2717 -0.3119
  239MOL0     H32265   6.433   8.888   2.923  0.3050 -4.0970 -1.2944
  240MOL0     O32266   8.690   0.028   6.677  0.0275 -0.0091  0.0652
  240MOL0     C32267   8.689   0.132   6.613  0.3546 -0.6332  1.1199
  240MOL0     O32268   8.795   0.220   6.584 -0.3318 -0.3105 -0.4760
  240MOL0     C32269   8.899   0.200   6.675 -0.2615  0.8360 -0.6222
  240MOL0     C32270   9.023   0.138   6.632 -0.5498  0.4668  0.2218
  240MOL0     C32271   9.130   0.118   6.726  0.3789  0.3300 -0.2802
  240MOL0     C32272   9.115   0.175   6.862 -0.1906  0.1359  0.1473
  240MOL0     O32273   9.208   0.164   6.960 -0.9784  0.3302  0.4307
  240MOL0     C32274   9.337   0.143   6.914 -0.6214  0.2331 -0.4648
  240MOL0     C32275   9.431   0.167   7.026  0.2671 -0.5100 -0.1241
  240MOL0     C32276   9.561   0.104   7.019  0.0300  0.6092 -0.2611
  240MOL0     C32277   9.644   0.135   6.892 -0.5388  0.0586 -0.2345
  240MOL0     C32278   9.771   0.055   6.896 -1.4686 -0.4243  0.0074
  240MOL0     C32279   9.863   0.101   6.778  0.5508  0.1151 -0.1759
  240MOL0     C32280   9.805   0.106   6.636 -0.5074 -0.5992  0.7662
  240MOL0     C32281   9.757  -0.023   6.566 -0.5205  0.1951  1.0428
  240MOL0     N32282   9.622   0.003   6.511 -0.7866 -0.6808  0.3338
  240MOL0     C32283   9.598   0.071   6.393  0.2463 -0.4978  0.0596
  240MOL0     C32284   9.471   0.061   6.370  0.3005  0.3817  0.0053
  240MOL0     C32285   9.392   0.114   6.248 -0.0112  0.8959  0.0752
  240MOL0     C32286   9.412   0.017   6.128  0.1348 -0.1491 -0.9953
  240MOL0     C32287   9.329  -0.110   6.143 -0.7966 -0.4909  0.3733
  240MOL0     C32288   9.381  -0.223   6.228  0.0839 -0.4605  0.2941
  240MOL0     O32289   9.520  -0.235   6.212 -0.1743  0.0004  0.9362
  240MOL0     C32290   9.595  -0.293   6.317 -0.0037  0.0124  0.5337
  240MOL0     C32291   9.543  -0.351   6.434  0.0103 -0.6546  0.2805
  240MOL0     C32292   9.634  -0.414   6.521  0.5877 -0.0922 -0.4122
  240MOL0     C32293   9.770  -0.413   6.507 -0.5306 -1.9075  0.9294
  240MOL0     C32294   9.865  -0.478   6.601  0.3470  0.5225 -0.4559
  240MOL0     O32295   9.828  -0.587   6.663  0.1299 -0.4354 -0.2986
  240MOL0     C32296   9.934  -0.652   6.727  0.6580  0.3059 -0.1840
  240MOL0     C32297   9.968  -0.776   6.680 -0.5270  0.3023  0.1535
  240MOL0     C32298  10.069  -0.851   6.749  0.4142  0.2113  0.3112
  240MOL0     C32299  10.127  -0.797   6.864 -0.5170 -0.3228  0.3734
  240MOL0     O32300  10.207  -0.881   6.933  0.4404 -0.7983  0.3133
  240MOL0     C32301  10.304  -0.838   7.030 -0.0727  0.0907  0.6795
  240MOL0     C32302  10.360  -0.966   7.092  0.3831  0.5906  0.0358
  240MOL0     C32303  10.470  -1.028   6.997 -0.1563  0.0029  0.3666
  240MOL0     C32304  10.525  -1.160   7.049  0.0295 -0.4916 -0.7645
  240MOL0     C32305  10.608  -1.237   6.948  0.2234  0.8415 -0.9063
  240MOL0     C32306  10.675  -1.361   7.015  0.6431  0.1217  0.2034
  240MOL0     C32307  10.752  -1.436   6.909 -0.3109  0.7252 -0.3667
  240MOL0     C32308  10.828  -1.560   6.944 -0.1277  1.7541 -0.7068
  240MOL0    Cl32309  10.739  -1.709   6.914  0.0760  0.4034  0.4579
  240MOL0     C32310  10.087  -0.669   6.913  0.5160  0.0490 -0.5170
  240MOL0     C32311   9.991  -0.600   6.838 -0.7438  0.1561 -0.5963
  240MOL0     O32312   9.974  -0.422   6.617 -0.3124  0.6201 -0.2186
  240MOL0     C32313   9.816  -0.340   6.395 -0.6176  0.1415 -0.2877
  240MOL0     C32314   9.731  -0.295   6.292 -0.3353 -0.3917 -0.1486
  240MOL0     N32315   9.414   0.006   6.483 -0.6319 -0.4938  1.1848
  240MOL0     N32316   9.506  -0.031   6.567  0.5411 -0.3670 -0.4074
  240MOL0     C32317   9.001   0.243   6.886  0.6177  0.1250  0.0070
  240MOL0     C32318   8.886   0.262   6.796 -0.1926 -0.7807  0.1532
  240MOL0     C32319   8.555   0.148   6.543  0.1243 -1.0746  0.9871
  240MOL0     C32320   8.485   0.037   6.497  0.4462  0.0970  0.7646
  240MOL0     C32321   8.370   0.031   6.423 -0.2622 -0.1225 -0.1481
  240MOL0     C32322   8.311   0.156   6.393 -0.1957 -1.1403  0.2269
  240MOL0     O32323   8.188   0.156   6.321  0.4200 -0.8622 -0.4848
  240MOL0     C32324   8.136   0.278   6.279 -0.9943 -0.2645 -0.8512
  240MOL0     C32325   7.989   0.252   6.244  0.0702 -0.0636 -0.5845
  240MOL0     C32326   7.973   0.130   6.154  0.4102 -0.2369  0.3839
  240MOL0     C32327   7.831   0.125   6.095  0.0061 -0.5449 -0.5333
  240MOL0     C32328   7.730   0.100   6.204 -0.4214 -0.9893 -1.1643
  240MOL0     C32329   7.645   0.098   6.289  0.2549  0.5808  0.0633
  240MOL0     C32330   8.378   0.275   6.434 -0.0176  0.2997 -0.7227
  240MOL0     C32331   8.499   0.270   6.516  0.1503 -0.6561  0.6049
  240MOL0     C32332   8.536   0.394   6.588  0.2942 -0.1664  0.4436
  240MOL0     H32333   9.018   0.099   6.531 -2.3969 -0.1163  0.5045
  240MOL0     H32334   9.214   0.059   6.691  2.0221  1.6132  1.2917
  240MOL0     H32335   9.361   0.038   6.894 -1.5518  0.0848 -0.8409
  240MOL0     H32336   9.356   0.197   6.821  1.2469 -2.4152 -1.7594
  240MOL0     H32337   9.396   0.124   7.121  1.5810 -0.8311  0.2314
  240MOL0     H32338   9.440   0.274   7.047 -3.4338 -0.3413  1.5350
  240MOL0     H32339   9.554  -0.005   7.019 -0.4808  0.5641  2.4830
  240MOL0     H32340   9.622   0.132   7.106  1.5240  0.4930 -1.2308
  240MOL0     H32341   9.582   0.109   6.805 -1.8620  1.1003  0.3636
  240MOL0     H32342   9.664   0.242   6.884 -3.2004  0.6864  0.5483
  240MOL0     H32343   9.836   0.084   6.979 -0.6809  0.8100 -1.0010
  240MOL0     H32344   9.758  -0.054   6.902  0.4879 -0.6382  1.0810
  240MOL0     H32345   9.889   0.207   6.787  0.5119  0.1305 -0.2407
  240MOL0     H32346   9.953   0.038   6.780  1.4510  1.2781 -1.6838
  240MOL0     H32347   9.875   0.157   6.569 -1.0091 -1.4633 -0.4394
  240MOL0     H32348   9.721   0.174   6.648 -1.1025 -1.2259  0.2106
  240MOL0     H32349   9.832  -0.053   6.492  0.0483  0.2910  1.5696
  240MOL0     H32350   9.730  -0.099   6.640 -2.2032 -0.2721 -0.0054
  240MOL0     H32351   9.679   0.097   6.325 -0.2509  1.8698  0.2778
  240MOL0     H32352   9.289   0.131   6.279  0.0797 -1.0509  1.6957
  240MOL0     H32353   9.438   0.211   6.228  2.9236  0.0067  1.8545
  240MOL0     H32354   9.388   0.070   6.035  3.5181  0.4305 -1.6558
  240MOL0     H32355   9.518  -0.003   6.114  0.2368  0.0751 -0.5401
  240MOL0     H32356   9.312  -0.162   6.048 -2.0874  0.9603 -0.2402
  240MOL0     H32357   9.234  -0.075   6.184 -1.0667 -1.6878  0.8170
  240MOL0     H32358   9.334  -0.309   6.178 -0.4884  0.1055 -0.1709
  240MOL0     H32359   9.350  -0.218   6.333 -1.4633 -2.0734 -0.0232
  240MOL0     H32360   9.436  -0.358   6.453  0.2171  1.0626  2.4640
  240MOL0     H32361   9.579  -0.466   6.598 -4.0101  4.7409  0.1746
  240MOL0     H32362   9.914  -0.822   6.597  0.5981  0.4025 -0.6523
  240MOL0     H32363  10.091  -0.953   6.721 -2.5521 -1.1219  2.2962
  240MOL0     H32364  10.392  -0.785   6.992 -0.2255  0.3225  0.6528
  240MOL0     H32365  10.248  -0.784   7.106 -1.0531 -0.3357  0.2787
  240MOL0     H32366  10.397  -0.951   7.194  1.9659  0.2226 -0.4463
  240MOL0     H32367  10.277  -1.037   7.101 -0.6763  1.8570  0.6547
  240MOL0     H32368  10.429  -1.049   6.898  2.1276 -0.3425 -0.5772
  240MOL0     H32369  10.552  -0.957   6.981  0.5846 -0.3676  2.2156
  240MOL0     H32370  10.449  -1.232   7.080  0.6941 -0.4617  1.0369
  240MOL0     H32371  10.589  -1.133   7.133 -1.5670  0.6594  0.1190
  240MOL0     H32372  10.685  -1.162   6.926  0.5333  0.6161 -0.5871
  240MOL0     H32373  10.537  -1.248   6.865 -1.8852 -1.1261  1.0411
  240MOL0     H32374  10.748  -1.337   7.093 -1.6910  1.2881  2.1836
  240MOL0     H32375  10.594  -1.412   7.067 -1.5020  3.9126  0.9507
  240MOL0     H32376  10.831  -1.366   6.881  0.3545 -0.2571 -1.0115
  240MOL0     H32377  10.679  -1.459   6.830  0.1609 -0.8642 -0.3834
  240MOL0     H32378  10.917  -1.562   6.879  0.5795  2.8606  0.1863
  240MOL0     H32379  10.863  -1.556   7.047 -0.3080 -0.3888 -0.5115
  240MOL0     H32380  10.136  -0.628   7.000 -2.1849  2.1158  0.1785
  240MOL0     H32381   9.953  -0.508   6.881  1.1275  0.0145  1.5711
  240MOL0     H32382   9.924  -0.334   6.382 -0.5258  0.5319  0.5318
  240MOL0     H32383   9.773  -0.240   6.209 -0.0052  1.1741  1.0001
  240MOL0     H32384   8.997   0.302   6.978  0.1206 -0.4899  0.3840
  240MOL0     H32385   8.801   0.323   6.822 -1.1879 -2.2535  0.4617
  240MOL0     H32386   8.532  -0.058   6.521  1.1346  0.7647  2.1949
  240MOL0     H32387   8.319  -0.060   6.394 -1.1522  1.0492 -2.5727
  240MOL0     H32388   8.195   0.327   6.200 -1.6475 -0.2036 -1.3045
  240MOL0     H32389   8.138   0.361   6.350  3.2699  0.6501 -1.7330
  240MOL0     H32390   7.953   0.338   6.187 -3.7928 -0.5434  0.7906
  240MOL0     H32391   7.913   0.238   6.322  0.6197  1.8324  0.3620
  240MOL0     H32392   8.006   0.034   6.196  1.6265 -0.4788 -1.0283
  240MOL0     H32393   8.044   0.148   6.073  1.1736 -1.8034  0.6579
  240MOL0     H32394   7.807   0.220   6.048 -0.4762 -0.3379  0.1276
  240MOL0     H32395   7.823   0.033   6.036 -2.2224 -1.9215  1.7173
  240MOL0     H32396   7.563   0.114   6.355 -0.1919  0.6338 -0.4969
  240MOL0     H32397   8.338   0.372   6.408  2.6097  1.2601 -1.4106
  240MOL0     H32398   8.632   0.427   6.548 -1.1185  2.1276 -1.2765
  240MOL0     H32399   8.477   0.481   6.559  3.7805  2.3873  0.2586
  240MOL0     H32400   8.535   0.378   6.696  3.0774 -2.6272  0.2621
  241MOL0     O32401  10.728   5.758  10.634  0.0791  0.2269 -0.3758
  241MOL0     C32402  10.686   5.849  10.702 -0.3073 -0.0588  0.0943
  241MOL0     O32403  10.713   5.981  10.687 -0.2707 -1.2774 -0.0220
  241MOL0     C32404  10.804   6.016  10.590 -0.1129  0.1589  0.5931
  241MOL0     C32405  10.933   6.023  10.645 -0.8809  0.6857  0.5997
  241MOL0     C32406  11.039   6.046  10.554  0.5340 -0.4836 -0.0405
  241MOL0     C32407  11.010   6.088  10.426  0.1504 -1.4480 -0.1109
  241MOL0     O32408  11.106   6.127  10.331 -0.0716 -0.0335 -0.1425
  241MOL0     C32409  11.216   6.043  10.330  0.3951  0.7736 -0.2884
  241MOL0     C32410  11.331   6.110  10.250  0.1928 -0.2822 -1.3362
  241MOL0     C32411  11.459   6.025  10.236 -0.7113  0.2247 -0.9486
  241MOL0     C32412  11.554   6.095  10.140  0.5074 -0.1942 -0.4638
  241MOL0     C32413  11.676   6.005  10.101 -0.1427  0.2870  0.3428
  241MOL0     C32414  11.783   6.093  10.028  0.0806 -0.7371  1.0771
  241MOL0     C32415  11.743   6.144   9.887  0.6148 -0.2251 -0.2465
  241MOL0     C32416  11.873   6.203   9.811 -0.4081 -0.7166  0.9615
  241MOL0     N32417  11.832   6.226   9.670 -0.0849 -0.0142  0.1839
  241MOL0     C32418  11.714   6.291   9.627  0.2117 -0.3108  0.2010
  241MOL0     C32419  11.728   6.275   9.497  0.3451  0.1018  0.9824
  241MOL0     C32420  11.621   6.299   9.384 -0.0570 -0.5664  0.1649
  241MOL0     C32421  11.643   6.428   9.303  0.3686 -0.0384  0.0407
  241MOL0     C32422  11.520   6.456   9.221  0.1406 -0.2411  0.1763
  241MOL0     C32423  11.535   6.592   9.153 -1.1737  0.3485 -0.1806
  241MOL0     O32424  11.549   6.688   9.257  0.5300 -0.2967 -0.1873
  241MOL0     C32425  11.602   6.810   9.231  0.4330  0.3218  0.1931
  241MOL0     C32426  11.577   6.875   9.107 -0.1353 -0.5198  0.3264
  241MOL0     C32427  11.615   7.013   9.105  0.5700  0.2074  0.2186
  241MOL0     C32428  11.675   7.084   9.211  0.2446  0.7014 -1.1897
  241MOL0     C32429  11.731   7.228   9.190  0.5371 -0.3298 -0.3068
  241MOL0     O32430  11.693   7.303   9.081 -0.1538  0.2949  0.9465
  241MOL0     C32431  11.746   7.429   9.063  0.4049 -1.3236  0.5893
  241MOL0     C32432  11.883   7.458   9.074 -0.1797 -0.6198 -0.6384
  241MOL0     C32433  11.930   7.587   9.054  0.8001  0.0157  0.2878
  241MOL0     C32434  11.840   7.698   9.022 -0.0391  0.3053  1.2364
  241MOL0     O32435  11.882   7.823   9.003 -0.1505  0.1693  0.2991
  241MOL0     C32436  11.985   7.838   8.903 -0.8905  0.3696 -0.0911
  241MOL0     C32437  12.012   7.984   8.871  0.0804  1.1734  0.5852
  241MOL0     C32438  11.888   8.049   8.805  0.0452  0.6302  0.4101
  241MOL0     C32439  11.918   8.198   8.786  0.0798 -0.5436  0.7212
  241MOL0     C32440  11.796   8.292   8.774 -0.6333  0.7850 -0.2546
  241MOL0     C32441  11.742   8.303   8.631  0.8601  0.2112  0.8951
  241MOL0     C32442  11.621   8.394   8.614  0.1861  0.4113 -0.5274
  241MOL0     C32443  11.614   8.470   8.484 -0.4022  0.4773  0.2120
  241MOL0    Cl32444  11.683   8.378   8.344 -0.0105  0.4922  0.1128
  241MOL0     C32445  11.703   7.667   9.022 -0.6778 -1.0709  1.1909
  241MOL0     C32446  11.661   7.535   9.029  0.2314 -0.2517  0.7984
  241MOL0     O32447  11.792   7.267   9.291 -0.6011 -0.3499  0.1452
  241MOL0     C32448  11.705   7.009   9.322 -0.2383 -0.8009 -1.4340
  241MOL0     C32449  11.669   6.874   9.330 -0.7131 -0.2157  1.0936
  241MOL0     N32450  11.833   6.189   9.459 -0.0163  0.4209 -0.4981
  241MOL0     N32451  11.897   6.171   9.566  0.1277 -0.2781  0.4288
  241MOL0     C32452  10.877   6.102  10.383 -0.2016 -0.7041 -0.6900
  241MOL0     C32453  10.765   6.069  10.458  0.3105 -0.5291 -0.1980
  241MOL0     C32454  10.600   5.812  10.813  0.3287 -0.5487 -0.2126
  241MOL0     C32455  10.570   5.909  10.911 -0.6036  1.1351  0.1135
  241MOL0     C32456  10.494   5.874  11.024 -0.3138 -0.6750  0.5560
  241MOL0     C32457  10.469   5.740  11.052 -0.1803 -0.2591 -0.0057
  241MOL0     O32458  10.425   5.704  11.175  0.6368 -1.0120  0.0805
  241MOL0     C32459  10.501   5.742  11.295 -0.6867 -0.5189 -0.2560
  241MOL0     C32460  10.571   5.636  11.371  0.1022 -0.4536 -0.3424
  241MOL0     C32461  10.482   5.513  11.389 -0.0880 -1.2173  0.2763
  241MOL0     C32462  10.537   5.391  11.454 -0.2195 -0.6932 -0.1992
  241MOL0     C32463  10.596   5.415  11.582 -0.6502 -0.5630 -1.6508
  241MOL0     C32464  10.675   5.444  11.670 -0.0445  0.2066 -0.0224
  241MOL0     C32465  10.501   5.645  10.963  0.2544  0.3930  0.3973
  241MOL0     C32466  10.560   5.678  10.833 -0.3200  1.2187 -0.0215
  241MOL0     C32467  10.559   5.569  10.730 -0.2173 -0.5817 -0.2281
  241MOL0     H32468  10.958   6.017  10.750 -2.4117 -0.8161  0.9278
  241MOL0     H32469  11.143   6.035  10.585  1.6104  2.2592 -2.2500
  241MOL0     H32470  11.261   5.999  10.420  1.6327  0.8919 -0.8265
  241MOL0     H32471  11.191   5.966  10.256  2.9179  1.3420 -1.8664
  241MOL0     H32472  11.360   6.196  10.309  0.6208 -0.6173 -1.0571
  241MOL0     H32473  11.293   6.140  10.151 -3.2531  0.8503  0.1878
  241MOL0     H32474  11.426   5.923  10.213  0.7782 -0.8755  1.3958
  241MOL0     H32475  11.508   6.019  10.333 -1.8808 -1.4492 -0.4138
  241MOL0     H32476  11.508   6.140  10.051  1.4726 -0.6187 -1.1990
  241MOL0     H32477  11.595   6.185  10.187 -2.5458  2.1201 -1.8518
  241MOL0     H32478  11.725   5.973  10.193 -0.0156  1.0682  0.5564
  241MOL0     H32479  11.648   5.922  10.036 -6.6189  1.1983  1.3275
  241MOL0     H32480  11.812   6.182  10.085 -0.3002  1.2939 -1.6993
  241MOL0     H32481  11.875   6.033  10.022 -1.1822 -2.7861  1.1460
  241MOL0     H32482  11.658   6.212   9.887 -0.6725 -1.7606 -1.3247
  241MOL0     H32483  11.703   6.061   9.828 -2.7968  0.1082  1.4170
  241MOL0     H32484  11.907   6.298   9.852  1.4924  0.2655 -2.4747
  241MOL0     H32485  11.957   6.133   9.812  0.7185  0.5704  0.1000
  241MOL0     H32486  11.631   6.329   9.686  0.0071 -1.2256  0.5386
  241MOL0     H32487  11.632   6.218   9.312 -6.1190 -1.2438 -0.4846
  241MOL0     H32488  11.524   6.305   9.435  0.1859 -0.1588  0.6005
  241MOL0     H32489  11.663   6.519   9.361  1.2122 -1.0617  1.4172
  241MOL0     H32490  11.730   6.430   9.238 -0.3262  1.9323 -0.9104
  241MOL0     H32491  11.432   6.465   9.284 -0.4642 -0.6052 -0.5891
  241MOL0     H32492  11.500   6.374   9.151 -2.0815  2.2797 -2.4238
  241MOL0     H32493  11.452   6.619   9.086 -1.1916  0.9880  0.0916
  241MOL0     H32494  11.630   6.595   9.099 -0.7662  2.0189  0.5740
  241MOL0     H32495  11.505   6.846   9.031  0.8336  4.2123 -2.8275
  241MOL0     H32496  11.590   7.060   9.010  0.7361 -1.1162 -0.5037
  241MOL0     H32497  11.958   7.385   9.102 -0.1713 -0.2049  0.5064
  241MOL0     H32498  12.036   7.602   9.069  0.8280  1.8911 -1.4407
  241MOL0     H32499  12.074   7.784   8.939 -0.6779 -0.3685 -1.6423
  241MOL0     H32500  11.954   7.780   8.816  0.6919  0.1735 -0.5519
  241MOL0     H32501  12.033   8.030   8.968 -1.1790  1.0780  0.9326
  241MOL0     H32502  12.098   7.992   8.804 -0.1673  1.5768  0.3095
  241MOL0     H32503  11.871   7.997   8.711  1.0365 -0.7980  0.9906
  241MOL0     H32504  11.803   8.036   8.873  0.6383 -0.5358  0.9491
  241MOL0     H32505  11.986   8.211   8.701  1.3805  2.0895  2.0460
  241MOL0     H32506  11.971   8.230   8.877  2.0845 -0.2241 -0.4973
  241MOL0     H32507  11.839   8.387   8.807  1.4246  0.0741 -0.7450
  241MOL0     H32508  11.717   8.262   8.843  0.6755  0.8458  1.3433
  241MOL0     H32509  11.827   8.330   8.567  0.4188 -1.1904 -0.3361
  241MOL0     H32510  11.726   8.201   8.594  1.1564 -0.4153  2.4165
  241MOL0     H32511  11.600   8.469   8.691  2.4150 -0.2429  0.7953
  241MOL0     H32512  11.535   8.326   8.617 -1.9903  3.0038  0.1843
  241MOL0     H32513  11.507   8.483   8.469  0.2942  5.8504 -2.2423
  241MOL0     H32514  11.664   8.565   8.503 -0.3336  0.4013  0.4168
  241MOL0     H32515  11.636   7.744   8.987 -0.5714 -1.3053  0.4643
  241MOL0     H32516  11.556   7.516   9.008  0.9110 -1.2122 -2.2620
  241MOL0     H32517  11.760   7.060   9.401 -1.6646  2.5039 -2.3991
  241MOL0     H32518  11.692   6.823   9.423 -2.1947  0.1558  1.7078
  241MOL0     H32519  10.853   6.134  10.282  0.3224  1.5653 -0.1527
  241MOL0     H32520  10.663   6.064  10.421  0.4533  2.0766 -1.1367
  241MOL0     H32521  10.587   6.016  10.899 -1.0190  1.2437  0.4770
  241MOL0     H32522  10.466   5.958  11.087  1.0394  2.3333 -2.5159
  241MOL0     H32523  10.447   5.800  11.371  2.7697 -0.6191  2.5532
  241MOL0     H32524  10.579   5.815  11.269  2.2167 -3.3938 -0.2966
  241MOL0     H32525  10.593   5.682  11.468 -2.5574  0.0642  0.0848
  241MOL0     H32526  10.669   5.613  11.327  1.2236  1.6892  0.8544
  241MOL0     H32527  10.445   5.488  11.289 -0.1305  2.0188 -0.6587
  241MOL0     H32528  10.391   5.549  11.437  0.7541  1.7303 -0.1143
  241MOL0     H32529  10.455   5.319  11.461  1.0752 -2.3104 -0.8396
  241MOL0     H32530  10.609   5.336  11.393 -1.0922 -1.5171 -0.5128
  241MOL0     H32531  10.757   5.465  11.735 -0.6439  0.1871  0.7526
  241MOL0     H32532  10.465   5.546  10.988 -0.8776 -0.1857 -2.9324
  241MOL0     H32533  10.513   5.613  10.640  1.8335  0.1905 -0.9668
  241MOL0     H32534  10.664   5.540  10.720 -0.1800 -2.0338  3.1144
  241MOL0     H32535  10.505   5.479  10.761  0.3193 -0.3468  1.4716
  242MOL0     O32536   9.298   4.914   7.433  0.3627 -0.4271  0.3320
  242MOL0     C32537   9.280   4.861   7.328  1.2030 -0.3389  0.2599
  242MOL0     O32538   9.368   4.805   7.244  0.1736  0.1777 -0.3325
  242MOL0     C32539   9.497   4.808   7.305  0.1163  0.8177 -0.3432
  242MOL0     C32540   9.590   4.902   7.271 -0.4066 -0.0332  0.0557
  242MOL0     C32541   9.719   4.896   7.327  0.6426 -0.6834  0.1723
  242MOL0     C32542   9.760   4.792   7.403 -0.2096  1.0368  0.1104
  242MOL0     O32543   9.880   4.776   7.457 -0.2780  0.5994  0.1023
  242MOL0     C32544   9.989   4.860   7.413 -0.3887  0.1026 -0.7298
  242MOL0     C32545  10.116   4.821   7.494  0.0628  0.1609 -0.6805
  242MOL0     C32546  10.250   4.873   7.441 -0.1542  0.6715 -0.2549
  242MOL0     C32547  10.282   4.849   7.288  0.0703  0.3216 -0.0493
  242MOL0     C32548  10.439   4.877   7.251 -0.0093  0.6237  0.0817
  242MOL0     C32549  10.513   4.748   7.287  0.4327  0.0943 -0.0156
  242MOL0     C32550  10.654   4.757   7.228 -0.8719 -0.1637  0.4181
  242MOL0     C32551  10.719   4.623   7.245 -0.6671 -0.6312 -0.5200
  242MOL0     N32552  10.862   4.649   7.227  0.2621 -0.2194  0.2112
  242MOL0     C32553  10.945   4.658   7.334  0.3731  0.2408  0.3446
  242MOL0     C32554  11.063   4.704   7.275  0.0977 -0.8811 -0.1162
  242MOL0     C32555  11.193   4.721   7.364  0.0703 -0.6911  0.4111
  242MOL0     C32556  11.278   4.596   7.358  0.1345 -0.1045  0.0598
  242MOL0     C32557  11.372   4.584   7.473 -0.1784 -0.5241 -0.3155
  242MOL0     C32558  11.459   4.704   7.500  0.3232  0.0658 -0.6767
  242MOL0     O32559  11.559   4.699   7.401 -0.4286  0.4757 -0.0833
  242MOL0     C32560  11.650   4.799   7.404  1.2316  0.6613  0.4410
  242MOL0     C32561  11.728   4.809   7.293 -0.6693 -1.1718  1.1610
  242MOL0     C32562  11.834   4.903   7.284 -1.0121  0.3976  0.3449
  242MOL0     C32563  11.864   4.982   7.395 -0.5472 -0.6043  0.1744
  242MOL0     C32564  11.973   5.077   7.396  0.1161  0.1540  0.0077
  242MOL0     O32565  12.034   5.088   7.272  0.1928 -0.5260 -0.0345
  242MOL0     C32566  12.110   5.201   7.246  0.2941 -0.9100 -0.4451
  242MOL0     C32567  12.059   5.334   7.259 -0.4303 -0.2829 -0.0144
  242MOL0     C32568  12.143   5.440   7.232 -0.4250  0.3792  0.6017
  242MOL0     C32569  12.261   5.425   7.162 -0.7308  0.9252 -0.0506
  242MOL0     O32570  12.338   5.543   7.148 -0.0445 -0.2277 -0.0690
  242MOL0     C32571  12.451   5.539   7.068 -0.6128 -1.2196  0.3808
  242MOL0     C32572  12.495   5.682   7.020 -0.0942  0.2547  0.1304
  242MOL0     C32573  12.636   5.689   6.959  0.2406  0.3306  0.3197
  242MOL0     C32574  12.633   5.651   6.815 -0.4496 -0.8340 -0.1230
  242MOL0     C32575  12.767   5.686   6.749 -0.2533 -0.0603 -0.1778
  242MOL0     C32576  12.760   5.684   6.595  0.2586  0.5743 -0.4385
  242MOL0     C32577  12.748   5.539   6.545 -0.6525 -0.6035 -0.0848
  242MOL0     C32578  12.794   5.532   6.395 -0.3742 -0.7772  0.6106
  242MOL0    Cl32579  12.969   5.560   6.382 -0.0772  0.0911 -0.1754
  242MOL0     C32580  12.304   5.289   7.140  0.3155  1.0073 -0.1867
  242MOL0     C32581  12.231   5.183   7.192  0.5654 -1.0922 -0.3542
  242MOL0     O32582  11.993   5.154   7.493  0.8310 -0.0540  0.1563
  242MOL0     C32583  11.788   4.968   7.514 -0.2194  0.8473 -1.2836
  242MOL0     C32584  11.681   4.870   7.518  0.1149 -1.4221  0.3801
  242MOL0     N32585  11.049   4.714   7.137 -0.4370 -0.5189 -0.0949
  242MOL0     N32586  10.923   4.670   7.104 -0.5029  0.2144 -0.1704
  242MOL0     C32587   9.664   4.684   7.428 -0.2466 -0.4410 -0.4553
  242MOL0     C32588   9.533   4.690   7.382  0.1774 -0.3737 -0.4362
  242MOL0     C32589   9.132   4.877   7.275 -0.2925  0.4885 -0.5032
  242MOL0     C32590   9.121   4.886   7.135 -1.3175  0.0398 -1.4162
  242MOL0     C32591   9.004   4.892   7.077 -0.1737 -0.2673 -0.0955
  242MOL0     C32592   8.886   4.910   7.152 -0.6312  0.5896 -0.0424
  242MOL0     O32593   8.757   4.917   7.098  0.0175  0.3492  0.2574
  242MOL0     C32594   8.716   4.859   6.968 -0.3749 -0.0355  0.3771
  242MOL0     C32595   8.560   4.853   6.948 -0.4740  0.3285  0.6266
  242MOL0     C32596   8.477   4.981   6.976 -0.7581 -0.5753  0.1012
  242MOL0     C32597   8.347   4.965   6.919 -0.8396 -0.8610  0.6822
  242MOL0     C32598   8.277   4.836   6.950 -0.3269  0.5840  0.1582
  242MOL0     C32599   8.238   4.729   6.991  0.1944 -0.8910 -0.3951
  242MOL0     C32600   8.897   4.897   7.292  0.9980 -0.2790 -0.0936
  242MOL0     C32601   9.014   4.873   7.355 -0.8631 -0.3540  0.2732
  242MOL0     C32602   9.011   4.866   7.498 -0.0550  0.3754  0.0793
  242MOL0     H32603   9.562   4.973   7.194  2.1385  1.0457  0.0294
  242MOL0     H32604   9.789   4.978   7.314  0.3075 -0.0060  2.3151
  242MOL0     H32605  10.001   4.844   7.306  1.9717 -0.8010 -0.3765
  242MOL0     H32606   9.960   4.964   7.429 -2.6343 -0.4367 -0.9046
  242MOL0     H32607  10.109   4.715   7.470 -4.5947  1.0065 -4.5743
  242MOL0     H32608  10.096   4.844   7.599 -1.5089 -0.1357 -0.9003
  242MOL0     H32609  10.332   4.817   7.487  0.5145 -0.8123 -3.0240
  242MOL0     H32610  10.268   4.976   7.471 -1.5583  0.4707  1.4401
  242MOL0     H32611  10.261   4.747   7.255  0.4816 -0.6950  2.5831
  242MOL0     H32612  10.219   4.918   7.230  0.2024  1.9925  1.6854
  242MOL0     H32613  10.459   4.892   7.144  0.6246 -0.0465  0.0962
  242MOL0     H32614  10.475   4.963   7.307 -0.8724  0.2595  1.2347
  242MOL0     H32615  10.529   4.732   7.394  1.2941  0.4609 -0.0845
  242MOL0     H32616  10.456   4.661   7.253  5.0381 -3.2199 -0.1966
  242MOL0     H32617  10.709   4.822   7.296  1.3288 -0.9854 -0.4962
  242MOL0     H32618  10.665   4.784   7.123  1.6919  0.8842  0.8841
  242MOL0     H32619  10.696   4.582   7.343 -1.1485  2.4071  0.7638
  242MOL0     H32620  10.677   4.555   7.170  0.5443 -0.1607 -1.6635
  242MOL0     H32621  10.922   4.641   7.439 -0.8248 -1.7522 -0.1804
  242MOL0     H32622  11.254   4.799   7.318 -1.6516  2.0023  2.4130
  242MOL0     H32623  11.163   4.748   7.466  1.1759  0.7087  0.3930
  242MOL0     H32624  11.206   4.515   7.356 -1.4134  1.2294 -0.3529
  242MOL0     H32625  11.343   4.599   7.269 -0.3279 -1.1446 -0.3266
  242MOL0     H32626  11.437   4.497   7.461 -1.9719 -2.3463  2.1441
  242MOL0     H32627  11.313   4.573   7.564 -1.9876 -1.7045 -1.5676
  242MOL0     H32628  11.498   4.702   7.603  0.2423 -1.6032 -0.6504
  242MOL0     H32629  11.413   4.803   7.508 -1.8894 -1.0408  1.4339
  242MOL0     H32630  11.725   4.743   7.207  2.1916 -1.3360  1.0945
  242MOL0     H32631  11.904   4.906   7.201  3.2455  2.2219  3.5674
  242MOL0     H32632  11.958   5.347   7.298  0.1758  2.7319  0.8567
  242MOL0     H32633  12.105   5.535   7.269  1.8689  0.9547  1.6501
  242MOL0     H32634  12.527   5.500   7.136  0.7112 -0.3747 -0.5484
  242MOL0     H32635  12.450   5.465   6.988  0.2716 -2.2852  1.3219
  242MOL0     H32636  12.424   5.711   6.942 -1.6763  2.6136  2.2813
  242MOL0     H32637  12.484   5.759   7.098  3.0133  1.0549 -0.0817
  242MOL0     H32638  12.674   5.791   6.949  1.1897 -0.1036 -0.7727
  242MOL0     H32639  12.707   5.621   7.009 -1.0529 -0.3168  1.3369
  242MOL0     H32640  12.555   5.710   6.767  0.9343 -0.0231 -1.4712
  242MOL0     H32641  12.595   5.550   6.797 -0.2934 -1.1547  1.2206
  242MOL0     H32642  12.846   5.616   6.779  0.5389 -0.1180 -2.2547
  242MOL0     H32643  12.797   5.789   6.766 -1.1259  0.3025 -0.7228
  242MOL0     H32644  12.672   5.739   6.561 -0.8581  0.2213  1.7263
  242MOL0     H32645  12.858   5.723   6.564 -0.9594  1.5976 -3.4242
  242MOL0     H32646  12.647   5.499   6.560 -0.8064  0.3013  1.4888
  242MOL0     H32647  12.803   5.468   6.607 -1.2398 -0.0141  1.1427
  242MOL0     H32648  12.775   5.430   6.360  0.9193 -0.6933 -0.3964
  242MOL0     H32649  12.740   5.607   6.336  2.1852  1.8903  1.4258
  242MOL0     H32650  12.395   5.272   7.084 -1.4813 -1.4242 -2.6270
  242MOL0     H32651  12.268   5.081   7.192  3.9515 -0.0387  1.8997
  242MOL0     H32652  11.796   5.031   7.602 -1.0287 -0.4769 -0.2313
  242MOL0     H32653  11.627   4.852   7.610 -2.3576  0.0712 -0.6858
  242MOL0     H32654   9.695   4.604   7.494 -1.4747 -0.7192 -0.1998
  242MOL0     H32655   9.467   4.612   7.418  0.6057  0.1777  1.7100
  242MOL0     H32656   9.211   4.874   7.076 -0.0016  0.7180  0.3582
  242MOL0     H32657   9.002   4.897   6.969  1.1958  0.4901 -0.0964
  242MOL0     H32658   8.753   4.757   6.951 -0.8100  0.0356 -1.2220
  242MOL0     H32659   8.760   4.915   6.884  3.5016 -0.0392  2.2011
  242MOL0     H32660   8.523   4.775   7.015  0.2472  2.0969  3.2442
  242MOL0     H32661   8.546   4.829   6.842 -0.0009  0.3162  0.5650
  242MOL0     H32662   8.528   5.068   6.934 -2.2744  0.4047  0.2069
  242MOL0     H32663   8.482   5.001   7.083 -0.5457  1.8948 -0.3141
  242MOL0     H32664   8.283   5.048   6.950  0.8110  1.5973 -1.9423
  242MOL0     H32665   8.347   4.973   6.810 -0.9190  0.8859  0.7937
  242MOL0     H32666   8.194   4.642   7.035  0.5179 -0.1764  1.4525
  242MOL0     H32667   8.801   4.884   7.342  1.1630  0.8812  0.5621
  242MOL0     H32668   8.946   4.781   7.518  3.9596 -2.7527  1.1251
  242MOL0     H32669   9.110   4.852   7.544  1.6957  1.5882 -2.9478
  242MOL0     H32670   8.969   4.954   7.547  3.9748  2.4375  0.2630
  243MOL0     O32671   4.038  11.166   1.985 -0.0572 -0.2212 -0.2382
  243MOL0     C32672   4.040  11.057   2.040  0.6372 -0.2933 -0.2571
  243MOL0     O32673   3.930  10.982   2.058  0.4229 -0.7069 -1.0178
  243MOL0     C32674   3.814  11.057   2.054 -0.3554 -0.5778  0.4645
  243MOL0     C32675   3.737  11.084   1.929  1.2062  0.3564 -0.2763
  243MOL0     C32676   3.614  11.152   1.929 -1.8350  0.1038  0.0661
  243MOL0     C32677   3.554  11.175   2.046  1.2080 -0.0569 -0.4831
  243MOL0     O32678   3.435  11.244   2.042  0.3048  0.3246  0.2410
  243MOL0     C32679   3.345  11.219   2.145 -0.3679  0.3630  0.0463
  243MOL0     C32680   3.212  11.288   2.100 -0.5960 -0.4739  0.1431
  243MOL0     C32681   3.231  11.449   2.076 -0.5111 -0.3678 -0.0817
  243MOL0     C32682   3.257  11.531   2.211 -0.2427 -0.0422 -0.1280
  243MOL0     C32683   3.127  11.522   2.299  0.2233  0.1385 -0.2980
  243MOL0     C32684   3.130  11.614   2.423  0.1849 -1.0818 -0.4629
  243MOL0     C32685   2.989  11.640   2.471 -0.0435  0.2841 -0.1942
  243MOL0     C32686   2.910  11.521   2.546  0.5533 -0.2890 -0.0082
  243MOL0     N32687   2.785  11.554   2.617 -0.3874 -0.1930 -0.2513
  243MOL0     C32688   2.693  11.642   2.566  0.2211 -0.8451  0.3889
  243MOL0     C32689   2.589  11.634   2.655  0.0469  1.0455 -0.1041
  243MOL0     C32690   2.447  11.693   2.636  0.2731 -0.3995  0.2825
  243MOL0     C32691   2.415  11.782   2.750  0.5944 -0.2240  0.1130
  243MOL0     C32692   2.259  11.823   2.773 -0.3287  0.0540  0.1810
  243MOL0     C32693   2.206  11.915   2.659  0.2864  0.2830  0.1241
  243MOL0     O32694   2.111  11.852   2.572  0.1792 -0.4680 -0.4460
  243MOL0     C32695   2.009  11.930   2.526 -0.8267 -0.7983  0.0573
  243MOL0     C32696   1.885  11.916   2.573  0.4556 -0.2575 -0.3973
  243MOL0     C32697   1.775  11.989   2.519 -0.4436 -1.6429 -0.0170
  243MOL0     C32698   1.800  12.077   2.413  0.3273  0.1832  0.2325
  243MOL0     C32699   1.687  12.163   2.358  0.3527  0.0217  0.2686
  243MOL0     O32700   1.699  12.206   2.231  0.1254 -0.0273  0.1567
  243MOL0     C32701   1.586  12.228   2.160  0.4189  0.5974  0.0071
  243MOL0     C32702   1.506  12.341   2.193 -0.4277 -0.8959  0.3931
  243MOL0     C32703   1.388  12.368   2.113  0.4932 -0.7971 -0.2178
  243MOL0     C32704   1.366  12.299   2.004 -0.8551  0.1294 -0.3440
  243MOL0     O32705   1.269  12.352   1.922  0.2887  0.0949  0.7977
  243MOL0     C32706   1.179  12.273   1.847  0.4685  0.0638  0.1707
  243MOL0     C32707   1.126  12.363   1.733 -0.0394 -0.1679 -0.1043
  243MOL0     C32708   1.002  12.452   1.774 -0.1119 -0.2731  0.7290
  243MOL0     C32709   0.944  12.525   1.648  0.0646  0.7351  0.3945
  243MOL0     C32710   0.841  12.625   1.698 -0.0444 -0.5941  0.2494
  243MOL0     C32711   0.780  12.681   1.570 -0.1142  0.8779 -0.4799
  243MOL0     C32712   0.686  12.796   1.611  0.2190  0.1815 -0.7853
  243MOL0     C32713   0.626  12.872   1.485  0.0448  1.3089 -0.1736
  243MOL0    Cl32714   0.525  12.765   1.388  0.1848  0.2608  0.1365
  243MOL0     C32715   1.455  12.193   1.966 -0.1241 -0.0934  0.4332
  243MOL0     C32716   1.560  12.151   2.049  0.2614  0.5163 -0.0454
  243MOL0     O32717   1.594  12.183   2.434 -0.0494  0.7559  0.3638
  243MOL0     C32718   1.934  12.098   2.362  0.4380 -0.2158  1.0520
  243MOL0     C32719   2.031  12.018   2.424 -0.4354 -0.0859  0.5280
  243MOL0     N32720   2.630  11.558   2.761 -0.1860 -0.5880 -0.0155
  243MOL0     N32721   2.746  11.512   2.744  0.0133 -1.0773 -0.0705
  243MOL0     C32722   3.630  11.156   2.169  0.2979  0.3461 -0.2117
  243MOL0     C32723   3.757  11.108   2.174  0.0806 -0.2663 -0.0728
  243MOL0     C32724   4.166  11.000   2.086 -0.7224  0.1406 -0.8621
  243MOL0     C32725   4.159  10.899   2.185  0.0821 -0.0685 -0.3724
  243MOL0     C32726   4.268  10.841   2.245 -0.2464  0.1690  0.7525
  243MOL0     C32727   4.394  10.861   2.195  0.2191  0.1192 -0.2409
  243MOL0     O32728   4.493  10.789   2.254 -0.3405  0.1224  0.8802
  243MOL0     C32729   4.639  10.804   2.203  0.3327  0.0347 -0.0274
  243MOL0     C32730   4.714  10.934   2.253 -0.2741  0.3129 -0.4173
  243MOL0     C32731   4.705  10.945   2.401  0.7371 -0.2210 -0.2230
  243MOL0     C32732   4.745  11.082   2.452 -0.7751  0.0556  0.0832
  243MOL0     C32733   4.707  11.116   2.591  0.3619 -0.3610 -0.2503
  243MOL0     C32734   4.688  11.127   2.714  1.0208  0.6229 -0.2898
  243MOL0     C32735   4.405  10.959   2.101 -0.2510 -0.5332  0.3878
  243MOL0     C32736   4.300  11.036   2.046  0.0370  0.5389  0.5694
  243MOL0     C32737   4.339  11.142   1.944  0.7002 -0.3726 -0.5368
  243MOL0     H32738   3.784  11.073   1.832  0.2629  1.9515 -0.9690
  243MOL0     H32739   3.559  11.194   1.845 -0.0754  1.9301 -0.2543
  243MOL0     H32740   3.324  11.113   2.160 -2.0129  0.7015  0.4014
  243MOL0     H32741   3.375  11.266   2.239  0.6944 -0.5683  0.1864
  243MOL0     H32742   3.126  11.273   2.166 -0.7291 -1.1915 -0.1898
  243MOL0     H32743   3.185  11.238   2.007 -1.2890 -0.1436  0.1623
  243MOL0     H32744   3.138  11.476   2.025 -0.1060  0.4513 -0.4021
  243MOL0     H32745   3.313  11.477   2.008 -1.1160  1.6112 -0.0351
  243MOL0     H32746   3.345  11.492   2.264 -1.2201 -0.3207  1.3645
  243MOL0     H32747   3.283  11.635   2.187 -1.4212  0.2143 -0.3583
  243MOL0     H32748   3.042  11.554   2.237 -0.9235 -0.3581  0.9521
  243MOL0     H32749   3.102  11.421   2.332  2.1402 -0.6058 -1.0151
  243MOL0     H32750   3.191  11.578   2.507  1.2637  1.7804  0.0858
  243MOL0     H32751   3.185  11.707   2.409  2.7349 -2.7893 -2.4976
  243MOL0     H32752   2.931  11.675   2.385 -0.0171  0.0319 -0.3175
  243MOL0     H32753   2.995  11.717   2.548  0.9663  0.4451 -0.4283
  243MOL0     H32754   2.878  11.447   2.472 -1.2800  1.5953 -1.2116
  243MOL0     H32755   2.976  11.472   2.618 -1.5216 -0.7235  1.6962
  243MOL0     H32756   2.672  11.696   2.475 -0.3795 -0.0859  0.9652
  243MOL0     H32757   2.445  11.759   2.549  0.1467  1.1013  1.3904
  243MOL0     H32758   2.378  11.608   2.627  1.5261 -1.8510  2.9186
  243MOL0     H32759   2.460  11.737   2.839  0.3833 -2.4275 -0.8226
  243MOL0     H32760   2.480  11.870   2.738  1.0195 -0.1116  2.6471
  243MOL0     H32761   2.242  11.882   2.864  0.6453  0.0787  0.3600
  243MOL0     H32762   2.190  11.738   2.778 -1.5457  1.0406  0.9930
  243MOL0     H32763   2.288  11.959   2.602 -0.3149  2.4844  0.8696
  243MOL0     H32764   2.155  11.994   2.716 -0.2693 -1.1117  1.6355
  243MOL0     H32765   1.880  11.835   2.646  1.4360  0.3295  0.3490
  243MOL0     H32766   1.674  11.974   2.556 -0.7049  2.2471  1.3568
  243MOL0     H32767   1.532  12.407   2.275  0.6861  1.1252 -1.4888
  243MOL0     H32768   1.329  12.451   2.152 -0.4956 -2.4016  1.9147
  243MOL0     H32769   1.233  12.191   1.799  2.0968  1.7679 -1.0657
  243MOL0     H32770   1.093  12.240   1.905 -0.1159  3.9303  1.8071
  243MOL0     H32771   1.210  12.417   1.690  0.0262 -1.1934 -1.3324
  243MOL0     H32772   1.086  12.301   1.652 -0.3064  0.6299 -0.5873
  243MOL0     H32773   0.921  12.401   1.828 -2.2672 -0.7500 -2.7142
  243MOL0     H32774   1.031  12.523   1.852 -2.1291  2.2158 -0.6410
  243MOL0     H32775   0.898  12.449   1.585  0.8122  0.9042 -0.3748
  243MOL0     H32776   1.026  12.575   1.596  1.9761 -0.6523  1.9178
  243MOL0     H32777   0.886  12.709   1.751  3.4411  0.4096 -3.7622
  243MOL0     H32778   0.768  12.560   1.747  0.0364 -1.1998 -0.4062
  243MOL0     H32779   0.857  12.718   1.502 -1.3094  1.3310 -1.6522
  243MOL0     H32780   0.729  12.596   1.523  1.0473 -0.6810  1.0137
  243MOL0     H32781   0.753  12.862   1.667  2.4742 -2.0712 -0.6094
  243MOL0     H32782   0.608  12.755   1.675  1.7285 -1.4266  0.1119
  243MOL0     H32783   0.558  12.951   1.517 -1.9495 -0.9591  1.5696
  243MOL0     H32784   0.705  12.905   1.418 -1.0068 -0.3720 -2.3874
  243MOL0     H32785   1.424  12.142   1.875  0.5495  0.4693 -0.1216
  243MOL0     H32786   1.621  12.062   2.038  2.0668  1.7118 -0.0752
  243MOL0     H32787   1.948  12.158   2.273  1.1985  1.3032  2.1578
  243MOL0     H32788   2.128  12.016   2.376 -0.8228 -1.3593 -0.2523
  243MOL0     H32789   3.587  11.186   2.264  2.1579  3.0900 -0.1200
  243MOL0     H32790   3.819  11.091   2.262  1.6957  0.1674 -1.0906
  243MOL0     H32791   4.060  10.879   2.223  0.3420 -0.6388  0.0298
  243MOL0     H32792   4.256  10.755   2.310 -2.3774  0.3641  0.6675
  243MOL0     H32793   4.644  10.789   2.095 -0.2863  1.3400 -0.2459
  243MOL0     H32794   4.704  10.726   2.246  0.9507 -0.2977 -1.4956
  243MOL0     H32795   4.683  11.023   2.198  1.3743  0.2716 -1.4937
  243MOL0     H32796   4.818  10.939   2.218 -0.8003  2.1470 -1.8910
  243MOL0     H32797   4.773  10.881   2.458  0.5390  1.5069  2.0830
  243MOL0     H32798   4.601  10.932   2.434  1.0153  1.1299  1.2961
  243MOL0     H32799   4.854  11.092   2.449 -0.4692 -2.6782 -1.0492
  243MOL0     H32800   4.707  11.158   2.383  0.3483  0.4453 -0.1210
  243MOL0     H32801   4.706  11.134   2.819  2.4063 -1.5478 -0.3215
  243MOL0     H32802   4.500  10.968   2.049 -0.5133  1.0486  0.1319
  243MOL0     H32803   4.439  11.123   1.904  2.4102 -0.0046  3.1725
  243MOL0     H32804   4.274  11.143   1.856  1.2587  3.0761 -1.0497
  243MOL0     H32805   4.334  11.237   1.999 -2.3573  0.8439 -2.6395
  244MOL0     O32806   6.369   9.638  10.728  0.6209  0.3178  0.3803
  244MOL0     C32807   6.484   9.615  10.706 -0.9425 -1.3628  1.0411
  244MOL0     O32808   6.546   9.497  10.713 -0.5386  0.1376 -0.0725
  244MOL0     C32809   6.477   9.387  10.754 -0.2865  0.9470  1.3765
  244MOL0     C32810   6.404   9.386  10.869 -0.1883 -0.2625 -0.0689
  244MOL0     C32811   6.327   9.272  10.905 -0.4223 -0.6066 -0.2071
  244MOL0     C32812   6.341   9.153  10.835 -0.0847  0.1363 -0.2066
  244MOL0     O32813   6.298   9.039  10.885  0.6451 -0.5801 -0.4292
  244MOL0     C32814   6.189   8.992  10.802  0.2191 -0.0175  0.0775
  244MOL0     C32815   6.138   8.861  10.842  0.9352 -0.3165 -0.1657
  244MOL0     C32816   6.086   8.858  10.991  0.5925 -0.3603 -0.6301
  244MOL0     C32817   6.049   8.721  11.059 -0.0444  0.0618 -0.1681
  244MOL0     C32818   6.014   8.717  11.213 -0.7122  1.4345 -0.0012
  244MOL0     C32819   5.924   8.843  11.239 -0.0495  0.0579  0.2202
  244MOL0     C32820   5.869   8.842  11.379 -0.4877  0.2855  0.6161
  244MOL0     C32821   5.992   8.807  11.475 -0.0920  0.0332  0.1328
  244MOL0     N32822   5.954   8.838  11.610 -0.2181  0.1850  0.1597
  244MOL0     C32823   5.955   8.961  11.657 -0.1374  0.1811 -0.0749
  244MOL0     C32824   5.906   8.953  11.782  0.8247 -0.5668  0.2105
  244MOL0     C32825   5.886   9.061  11.887  0.8961  0.4477  0.2366
  244MOL0     C32826   5.967   9.040  12.015 -0.7160 -1.1376 -1.2038
  244MOL0     C32827   5.971   9.170  12.098  0.5790 -0.8915  0.2866
  244MOL0     C32828   5.832   9.214  12.143  0.6648 -0.2569  0.4549
  244MOL0     O32829   5.797   9.117  12.242 -0.4088 -0.5796  0.8276
  244MOL0     C32830   5.684   9.146  12.323 -0.3419 -0.0620  0.2902
  244MOL0     C32831   5.577   9.053  12.311  0.0321 -0.3156 -0.5363
  244MOL0     C32832   5.461   9.076  12.380  0.7087 -0.8553 -0.5621
  244MOL0     C32833   5.452   9.178  12.474 -0.4179 -0.0391 -0.0425
  244MOL0     C32834   5.338   9.171  12.576  0.4713 -0.9144 -0.6375
  244MOL0     O32835   5.232   9.080  12.554 -0.4238 -0.1234 -0.8255
  244MOL0     C32836   5.115   9.082  12.628  0.5328  0.9950  1.1086
  244MOL0     C32837   5.003   9.039  12.551  0.3994  1.2504  0.5349
  244MOL0     C32838   4.886   9.044  12.612 -0.3794 -0.4643 -0.8882
  244MOL0     C32839   4.863   9.079  12.749  0.1462  0.5861  0.1171
  244MOL0     O32840   4.740   9.063  12.815 -0.2409  0.1309 -0.5307
  244MOL0     C32841   4.673   8.950  12.775 -0.1549 -0.5287  0.2443
  244MOL0     C32842   4.534   8.973  12.820  0.0419  0.6392  0.7954
  244MOL0     C32843   4.536   8.970  12.977 -0.3479  0.1648  1.2955
  244MOL0     C32844   4.389   8.985  13.030 -0.1633  0.6071  0.1825
  244MOL0     C32845   4.410   9.003  13.175 -0.0883 -0.0371  0.1258
  244MOL0     C32846   4.261   8.995  13.235 -0.1500  0.5543 -0.2009
  244MOL0     C32847   4.241   9.099  13.346 -0.1325 -0.5756 -0.0195
  244MOL0     C32848   4.204   9.239  13.290  0.0469  0.4687  0.4066
  244MOL0    Cl32849   4.109   9.330  13.410 -0.2520  0.1301  0.4887
  244MOL0     C32850   4.973   9.122  12.822 -0.4560 -0.9639 -0.4503
  244MOL0     C32851   5.105   9.122  12.763  0.4661 -0.2480  0.5248
  244MOL0     O32852   5.342   9.254  12.661 -1.0667  0.9968  0.4551
  244MOL0     C32853   5.558   9.270  12.488  0.2826  0.0035 -0.2291
  244MOL0     C32854   5.674   9.254  12.406  0.2229 -0.1161 -0.2740
  244MOL0     N32855   5.859   8.825  11.798  0.6525  0.7499  0.7137
  244MOL0     N32856   5.887   8.754  11.693  0.0017  0.9469  0.2680
  244MOL0     C32857   6.431   9.148  10.725  0.5902  0.2160  0.0743
  244MOL0     C32858   6.493   9.259  10.692  0.0359  0.0842  0.7819
  244MOL0     C32859   6.563   9.732  10.657 -0.2513 -0.0446 -0.1711
  244MOL0     C32860   6.700   9.706  10.617 -0.2118 -0.0259  0.5128
  244MOL0     C32861   6.790   9.807  10.575  0.5748  0.7466 -0.6629
  244MOL0     C32862   6.736   9.937  10.551  0.7865  0.7651  0.2113
  244MOL0     O32863   6.823  10.018  10.488 -0.2885 -0.2699  0.4125
  244MOL0     C32864   6.839   9.984  10.349  0.3576 -0.1720 -0.5496
  244MOL0     C32865   6.907  10.089  10.277  0.2752 -0.5602  1.1334
  244MOL0     C32866   6.879  10.233  10.351 -1.1157 -0.6865  0.0451
  244MOL0     C32867   6.920  10.334  10.240 -0.3251 -0.4364  0.5268
  244MOL0     C32868   7.065  10.321  10.200  0.7601  0.0687  0.9478
  244MOL0     C32869   7.160  10.295  10.146  0.3290  0.1388 -0.1196
  244MOL0     C32870   6.603   9.959  10.568  0.4734  0.5355  0.5582
  244MOL0     C32871   6.515   9.874  10.633 -0.3752  0.3103 -0.3685
  244MOL0     C32872   6.381   9.925  10.674  0.1978 -0.6064 -0.0726
  244MOL0     H32873   6.397   9.481  10.922 -1.9957 -0.0873 -0.5483
  244MOL0     H32874   6.265   9.266  10.994 -1.0832 -0.2059 -0.6313
  244MOL0     H32875   6.100   9.056  10.806  1.3673  1.8619 -2.0136
  244MOL0     H32876   6.219   8.987  10.697 -0.5598  0.7423 -0.1912
  244MOL0     H32877   6.208   8.777  10.832 -0.1424 -1.3896  0.9217
  244MOL0     H32878   6.049   8.848  10.780  1.9756  1.4313 -2.1418
  244MOL0     H32879   6.003   8.928  11.007  0.6476 -0.6036  0.9612
  244MOL0     H32880   6.174   8.889  11.049 -0.1927  0.0523  0.3889
  244MOL0     H32881   5.971   8.678  10.996  0.6121 -1.0476 -0.2536
  244MOL0     H32882   6.143   8.665  11.048 -0.1177 -0.2913  0.9114
  244MOL0     H32883   5.966   8.622  11.238  1.5978  1.0413  3.7291
  244MOL0     H32884   6.109   8.708  11.267 -0.2974  0.5080 -0.8523
  244MOL0     H32885   5.989   8.931  11.231  0.3062  0.0977  2.6674
  244MOL0     H32886   5.841   8.856  11.169 -0.6054  1.0276  1.0200
  244MOL0     H32887   5.794   8.762  11.384  0.2495 -0.4312  0.3531
  244MOL0     H32888   5.830   8.943  11.399  2.7422  1.8341 -0.2683
  244MOL0     H32889   6.032   8.706  11.462  1.1837  0.4175  0.8345
  244MOL0     H32890   6.080   8.868  11.450 -0.2033  0.3942  0.6061
  244MOL0     H32891   6.003   9.050  11.617  1.8337 -1.6371 -1.9946
  244MOL0     H32892   5.914   9.160  11.850  1.7681  1.0852  2.4471
  244MOL0     H32893   5.778   9.059  11.900  1.1766 -2.1896  3.4175
  244MOL0     H32894   5.926   8.957  12.073  0.7665 -1.4495 -0.5514
  244MOL0     H32895   6.070   9.007  11.999 -0.2586 -0.3204 -0.0643
  244MOL0     H32896   6.010   9.254  12.041 -3.0415  2.8559  2.7087
  244MOL0     H32897   6.039   9.163  12.184  0.4636 -2.3789  0.2861
  244MOL0     H32898   5.762   9.214  12.059  2.2348 -0.0662 -0.9139
  244MOL0     H32899   5.822   9.317  12.177 -1.3490  0.2136 -1.3652
  244MOL0     H32900   5.583   8.966  12.248 -0.7514 -0.9625  0.2595
  244MOL0     H32901   5.370   9.023  12.355 -0.8402  2.3743 -2.4688
  244MOL0     H32902   5.018   9.003  12.449  2.3965 -3.8453  2.3110
  244MOL0     H32903   4.803   9.015  12.549  0.3676  0.7655 -2.4940
  244MOL0     H32904   4.671   8.934  12.667  1.2712 -0.6963  0.2350
  244MOL0     H32905   4.710   8.859  12.823  1.4545 -0.1705 -0.2589
  244MOL0     H32906   4.493   9.068  12.784  0.4946  1.2206  1.7618
  244MOL0     H32907   4.459   8.899  12.792 -0.2252  1.4123 -0.6734
  244MOL0     H32908   4.577   8.874  13.010  1.0288  0.8540  1.6378
  244MOL0     H32909   4.606   9.044  13.017  0.2105 -0.2663  1.1291
  244MOL0     H32910   4.329   8.897  13.008 -1.0822  0.6913  2.1639
  244MOL0     H32911   4.349   9.079  12.990  0.9098  0.3133 -1.6855
  244MOL0     H32912   4.461   9.099  13.183  0.2113 -0.1913  0.1170
  244MOL0     H32913   4.479   8.923  13.205 -0.5187  0.0068  1.2826
  244MOL0     H32914   4.194   9.012  13.150 -1.1203  2.2252  0.8494
  244MOL0     H32915   4.250   8.895  13.277  1.1003  0.1402 -0.7789
  244MOL0     H32916   4.325   9.104  13.416  1.1684  0.3017 -1.5565
  244MOL0     H32917   4.147   9.065  13.389 -1.2308 -4.2228 -4.5254
  244MOL0     H32918   4.292   9.294  13.256  0.0764  1.0377  1.3576
  244MOL0     H32919   4.155   9.217  13.195  1.2540  4.6252 -1.4017
  244MOL0     H32920   4.957   9.144  12.927 -2.0558 -1.6169 -0.5221
  244MOL0     H32921   5.189   9.164  12.817 -0.1309  0.4842  0.9020
  244MOL0     H32922   5.554   9.356  12.553  2.4620  1.7208 -2.2052
  244MOL0     H32923   5.752   9.329  12.420  0.2198 -0.4791  1.9873
  244MOL0     H32924   6.451   9.052  10.678  2.6620  0.0927  1.1033
  244MOL0     H32925   6.566   9.257  10.611  0.0967  1.6033  0.7663
  244MOL0     H32926   6.735   9.604  10.623  1.2087  0.4371  0.4809
  244MOL0     H32927   6.896   9.802  10.554  0.6767  4.0005 -1.4094
  244MOL0     H32928   6.743   9.965  10.300  0.1701 -2.1816  0.4867
  244MOL0     H32929   6.901   9.894  10.347 -1.2409 -1.3417  0.2443
  244MOL0     H32930   6.848  10.085  10.185 -0.2987  1.1338  1.3932
  244MOL0     H32931   7.012  10.072  10.253  0.6137  2.1816  0.3509
  244MOL0     H32932   6.933  10.258  10.443 -0.9484 -1.8411  0.2850
  244MOL0     H32933   6.777  10.262  10.374 -0.8897 -0.7676  1.2139
  244MOL0     H32934   6.855  10.318  10.153  1.9956 -1.4843 -1.1058
  244MOL0     H32935   6.908  10.432  10.287  2.9298  0.4752 -0.3215
  244MOL0     H32936   7.260  10.274  10.112  0.2238 -1.6920  0.5680
  244MOL0     H32937   6.554  10.051  10.537 -1.2017  0.1114  1.7847
  244MOL0     H32938   6.322   9.943  10.583 -0.4277 -0.6800  0.3142
  244MOL0     H32939   6.324   9.860  10.741  0.9653 -3.9914 -2.4622
  244MOL0     H32940   6.395  10.020  10.727 -1.6136 -0.0097 -0.5744
  245MOL0     O32941   4.289   4.839   4.236 -0.2182 -0.6069 -0.2569
  245MOL0     C32942   4.197   4.890   4.177 -0.3899 -0.1233  0.1088
  245MOL0     O32943   4.191   5.017   4.121  0.0117  0.1353  1.1236
  245MOL0     C32944   4.280   5.126   4.140 -0.1392 -0.5355 -0.8096
  245MOL0     C32945   4.363   5.148   4.246 -0.4247  0.5214  0.0497
  245MOL0     C32946   4.434   5.270   4.254 -0.6459 -0.2294  0.4292
  245MOL0     C32947   4.401   5.369   4.159  0.4263 -0.5210 -0.8601
  245MOL0     O32948   4.456   5.491   4.187 -0.3673  0.0415 -0.1567
  245MOL0     C32949   4.488   5.574   4.074  0.5381  0.2615  0.5721
  245MOL0     C32950   4.607   5.512   4.001  1.1883 -0.3137  0.0457
  245MOL0     C32951   4.679   5.606   3.905  0.0722  0.1385  0.2014
  245MOL0     C32952   4.771   5.699   3.984  0.1568  0.6081  0.1148
  245MOL0     C32953   4.859   5.773   3.888 -0.8898 -0.7204  0.1843
  245MOL0     C32954   4.976   5.857   3.958  0.4078  0.1633  0.0086
  245MOL0     C32955   5.062   5.923   3.857 -0.2094  0.4125 -0.2423
  245MOL0     C32956   5.143   5.824   3.768  0.2450  0.6116  0.7055
  245MOL0     N32957   5.290   5.852   3.765  0.2699 -0.2467  1.0592
  245MOL0     C32958   5.344   5.955   3.691  0.1506  0.7993  0.2492
  245MOL0     C32959   5.474   5.915   3.674 -0.1665 -0.7196  0.6065
  245MOL0     C32960   5.570   5.980   3.569  0.2603  0.5896 -1.0654
  245MOL0     C32961   5.541   6.130   3.551  0.6130 -0.6029 -0.0535
  245MOL0     C32962   5.644   6.205   3.466  0.5147 -0.2635  0.1153
  245MOL0     C32963   5.785   6.207   3.514 -0.0498  0.2688  0.0546
  245MOL0     O32964   5.840   6.075   3.520 -0.1237  0.2302  0.5346
  245MOL0     C32965   5.958   6.074   3.597  0.2273 -0.0870 -0.1051
  245MOL0     C32966   6.044   6.189   3.615 -0.3345 -0.2821  0.4665
  245MOL0     C32967   6.156   6.174   3.696  0.1940 -0.1532  0.4026
  245MOL0     C32968   6.191   6.048   3.751  0.0507 -0.5167  0.5885
  245MOL0     C32969   6.316   6.027   3.825  0.4158 -0.2309 -0.3196
  245MOL0     O32970   6.398   6.133   3.830 -0.2195  0.0675  0.6909
  245MOL0     C32971   6.528   6.121   3.863 -0.2024  0.2269  0.5624
  245MOL0     C32972   6.573   6.147   3.997  0.2501 -0.3929  0.4743
  245MOL0     C32973   6.706   6.142   4.037  0.9818 -0.5705  0.2025
  245MOL0     C32974   6.794   6.097   3.946  0.1104 -0.7426  0.1876
  245MOL0     O32975   6.919   6.089   4.003 -0.3717  0.0271  0.0706
  245MOL0     C32976   7.015   6.007   3.937  0.6929  0.2171  0.2454
  245MOL0     C32977   7.130   5.985   4.038  0.0511  0.2715  1.0500
  245MOL0     C32978   7.208   5.862   3.981  0.2324 -0.6453  0.0788
  245MOL0     C32979   7.331   5.829   4.073  0.0093  0.6614 -0.1489
  245MOL0     C32980   7.409   5.712   4.013  0.4340 -1.2783  0.2777
  245MOL0     C32981   7.512   5.654   4.109  0.2844 -0.3159  0.2408
  245MOL0     C32982   7.604   5.549   4.044 -1.5613  0.1539  0.3047
  245MOL0     C32983   7.676   5.471   4.151 -0.7714 -0.1692 -1.4470
  245MOL0    Cl32984   7.830   5.568   4.190  0.1201  0.6034  0.0322
  245MOL0     C32985   6.756   6.065   3.805 -0.2558 -0.0215 -0.1650
  245MOL0     C32986   6.624   6.094   3.767 -1.0311  0.6437 -0.3425
  245MOL0     O32987   6.343   5.913   3.856 -0.1045 -0.3005  0.0544
  245MOL0     C32988   6.102   5.948   3.728 -0.6507  0.9255 -0.0124
  245MOL0     C32989   5.983   5.952   3.660 -0.7578  1.1928  0.1565
  245MOL0     N32990   5.497   5.786   3.736 -0.2191 -0.3020 -0.3239
  245MOL0     N32991   5.388   5.758   3.795  0.3466  0.0501  0.1881
  245MOL0     C32992   4.308   5.354   4.057  0.9673  0.5319  0.8108
  245MOL0     C32993   4.257   5.224   4.048 -0.4435  0.1097 -0.2233
  245MOL0     C32994   4.087   4.792   4.167 -0.4607 -0.6019  1.2817
  245MOL0     C32995   3.972   4.842   4.094 -0.5807  0.3832  0.0031
  245MOL0     C32996   3.855   4.764   4.074 -0.8066  0.6954 -0.6180
  245MOL0     C32997   3.851   4.636   4.116 -0.1717  0.3426  0.2247
  245MOL0     O32998   3.731   4.564   4.085 -0.2725  0.1216  0.1202
  245MOL0     C32999   3.693   4.443   4.155  0.5282  0.0359  0.2059
  245MOL0     C33000   3.544   4.427   4.147 -0.0753  0.3467 -0.4813
  245MOL0     C33001   3.482   4.468   4.017  0.2445 -0.0608  0.3114
  245MOL0     C33002   3.349   4.392   3.997  0.5622 -0.4909  0.4286
  245MOL0     C33003   3.286   4.442   3.878  0.0187  0.0511 -0.1216
  245MOL0     C33004   3.220   4.479   3.784 -0.1614  1.2869  0.4520
  245MOL0     C33005   3.959   4.592   4.194  1.2026 -0.0226  0.3996
  245MOL0     C33006   4.074   4.667   4.223 -1.6527  0.5277 -0.0332
  245MOL0     C33007   4.176   4.601   4.311 -0.4078 -0.0966  0.1004
  245MOL0     H33008   4.390   5.078   4.325  0.9498 -0.2556 -1.0571
  245MOL0     H33009   4.501   5.293   4.336  1.6107 -1.3418 -0.9585
  245MOL0     H33010   4.408   5.587   4.001  2.0306 -0.9391 -1.3687
  245MOL0     H33011   4.505   5.676   4.108 -1.4945  0.3864  1.3637
  245MOL0     H33012   4.567   5.425   3.948 -0.4727 -1.6064  3.2040
  245MOL0     H33013   4.684   5.469   4.065  1.4379 -1.4628 -0.9945
  245MOL0     H33014   4.612   5.666   3.843  0.3398  0.9344  0.6674
  245MOL0     H33015   4.744   5.548   3.839  1.8242  1.3516  0.7851
  245MOL0     H33016   4.710   5.772   4.038 -0.5843  0.7832 -0.9231
  245MOL0     H33017   4.832   5.642   4.055 -0.4715  1.1436  1.1205
  245MOL0     H33018   4.903   5.699   3.820  2.7067  1.3891 -0.0461
  245MOL0     H33019   4.796   5.828   3.817  1.5507  2.4829  0.2296
  245MOL0     H33020   4.941   5.939   4.021  1.7172  0.8589 -0.1361
  245MOL0     H33021   5.035   5.791   4.024 -2.7339 -3.6262 -0.5669
  245MOL0     H33022   5.129   5.988   3.914  0.5194 -1.5912  1.2887
  245MOL0     H33023   4.999   5.987   3.794  1.4800  0.3658 -2.0774
  245MOL0     H33024   5.130   5.718   3.790 -0.9710  0.4222 -0.7312
  245MOL0     H33025   5.106   5.837   3.666  2.5864  0.9007 -0.1828
  245MOL0     H33026   5.300   6.045   3.649  0.5628  0.1760 -1.5959
  245MOL0     H33027   5.665   5.959   3.620 -0.9529 -1.3562  0.5756
  245MOL0     H33028   5.575   5.924   3.475 -0.5837 -2.4119  0.5353
  245MOL0     H33029   5.445   6.137   3.501  0.0235  0.6174  1.1816
  245MOL0     H33030   5.543   6.168   3.654 -2.7199  0.6283 -0.3267
  245MOL0     H33031   5.602   6.306   3.465 -1.3226 -0.9962 -0.6520
  245MOL0     H33032   5.631   6.168   3.364  0.3820  1.8604 -0.7017
  245MOL0     H33033   5.782   6.258   3.611  1.0811  0.5016 -0.0179
  245MOL0     H33034   5.849   6.268   3.450 -1.6606  0.7349 -1.1415
  245MOL0     H33035   6.029   6.274   3.549  0.4660  0.3164  1.0347
  245MOL0     H33036   6.214   6.264   3.718  0.2196 -0.7222  3.0073
  245MOL0     H33037   6.507   6.177   4.077 -3.8945 -0.9168 -2.3898
  245MOL0     H33038   6.749   6.161   4.135  2.5127  0.2617 -0.5910
  245MOL0     H33039   6.967   5.912   3.911  0.0544  0.3992  0.7378
  245MOL0     H33040   7.048   6.060   3.847  3.1624 -1.7561 -0.1107
  245MOL0     H33041   7.189   6.077   4.036 -0.6971  0.7499  0.6806
  245MOL0     H33042   7.098   5.964   4.140 -0.9024 -0.9534  0.5258
  245MOL0     H33043   7.140   5.777   3.989 -0.9178  0.1833 -0.7425
  245MOL0     H33044   7.235   5.887   3.878 -3.2899 -0.1659 -0.8432
  245MOL0     H33045   7.283   5.798   4.166 -0.0166 -0.0591 -0.3986
  245MOL0     H33046   7.401   5.910   4.093  0.2679 -0.3893  3.9612
  245MOL0     H33047   7.466   5.748   3.927 -3.4715  0.2028 -1.9529
  245MOL0     H33048   7.339   5.644   3.963 -0.0810  1.6786 -3.4365
  245MOL0     H33049   7.580   5.735   4.137 -0.6719  0.1714  1.2297
  245MOL0     H33050   7.465   5.609   4.197  0.8773 -0.0881  0.6828
  245MOL0     H33051   7.684   5.599   3.987 -0.8083  0.7842  1.8490
  245MOL0     H33052   7.548   5.481   3.980  0.4337 -1.7890  0.5033
  245MOL0     H33053   7.623   5.447   4.244 -1.9382  0.7938 -1.8396
  245MOL0     H33054   7.701   5.373   4.109 -2.0218 -0.4013 -1.6965
  245MOL0     H33055   6.839   6.031   3.745  1.6630  0.3704  2.1053
  245MOL0     H33056   6.598   6.078   3.663 -0.9089 -1.0139 -0.1491
  245MOL0     H33057   6.128   5.850   3.767 -0.0566  0.3633 -1.6877
  245MOL0     H33058   5.937   5.854   3.653  1.2554  0.0542  1.5877
  245MOL0     H33059   4.274   5.433   3.991  1.4458  1.8916  2.1502
  245MOL0     H33060   4.215   5.202   3.950  1.9077 -3.0154 -0.6793
  245MOL0     H33061   3.969   4.941   4.050  1.1320 -0.7556 -2.9608
  245MOL0     H33062   3.765   4.796   4.023 -0.0826 -0.6413 -2.9042
  245MOL0     H33063   3.720   4.447   4.261 -0.7767  1.5899  0.5150
  245MOL0     H33064   3.733   4.346   4.123  2.5226  1.2663 -1.2681
  245MOL0     H33065   3.499   4.468   4.238  1.7265  0.0790  0.5759
  245MOL0     H33066   3.536   4.319   4.158 -2.6523  0.4999 -0.1434
  245MOL0     H33067   3.549   4.432   3.938  0.7042 -1.4477  1.2831
  245MOL0     H33068   3.465   4.575   4.000  1.8183  0.4126  1.4567
  245MOL0     H33069   3.367   4.286   3.982  2.3852 -0.2074  0.3862
  245MOL0     H33070   3.277   4.410   4.078 -0.0438  1.7871 -0.5234
  245MOL0     H33071   3.163   4.524   3.706  2.7648  3.7315 -0.4601
  245MOL0     H33072   3.936   4.495   4.237 -1.1360  1.2935  2.3844
  245MOL0     H33073   4.261   4.549   4.265  0.3769 -1.3479  2.7869
  245MOL0     H33074   4.208   4.672   4.387 -3.9964  2.5016 -0.5387
  245MOL0     H33075   4.124   4.523   4.367 -3.1188  1.2315 -0.3808
  246MOL0     O33076   0.911   3.674   9.642 -0.6311  0.3564 -0.5316
  246MOL0     C33077   0.905   3.554   9.637 -0.3193  0.7445 -0.0772
  246MOL0     O33078   1.015   3.466   9.640 -0.0218 -0.2978  0.1556
  246MOL0     C33079   1.139   3.512   9.681  0.5004  0.0993  0.8583
  246MOL0     C33080   1.205   3.636   9.647  0.0771  0.3219 -0.7048
  246MOL0     C33081   1.326   3.672   9.701 -0.0556 -1.5945 -0.3451
  246MOL0     C33082   1.393   3.590   9.788 -0.7558 -0.7344 -0.0238
  246MOL0     O33083   1.523   3.633   9.828  0.2423  0.4188  0.1211
  246MOL0     C33084   1.630   3.542   9.812  0.4415 -1.0711 -0.5401
  246MOL0     C33085   1.762   3.612   9.852  0.2666 -0.7554  0.6984
  246MOL0     C33086   1.878   3.530   9.812 -0.1916  0.0466  0.4281
  246MOL0     C33087   2.003   3.606   9.831  0.0593  0.1017 -0.6455
  246MOL0     C33088   2.137   3.535   9.779  0.7599 -0.5861 -1.5878
  246MOL0     C33089   2.165   3.484   9.630 -0.0099 -0.4819  1.1236
  246MOL0     C33090   2.294   3.401   9.622  0.3104  1.6186  0.3941
  246MOL0     C33091   2.290   3.263   9.693 -0.2484  0.0355  0.6167
  246MOL0     N33092   2.417   3.193   9.668  0.1193  0.1962  0.7788
  246MOL0     C33093   2.504   3.165   9.763 -0.6551  1.1215  0.4185
  246MOL0     C33094   2.595   3.085   9.709 -0.5894  0.4202  1.3689
  246MOL0     C33095   2.721   3.039   9.768 -0.4745 -0.0344  0.4897
  246MOL0     C33096   2.837   3.143   9.743  0.8404  0.0899 -0.4344
  246MOL0     C33097   2.975   3.094   9.806  0.5945 -0.2708  1.4468
  246MOL0     C33098   3.095   3.186   9.777 -0.1879 -0.0987 -0.5349
  246MOL0     O33099   3.098   3.300   9.867  0.3573  0.4178  0.0224
  246MOL0     C33100   3.214   3.378   9.864  0.3094  1.3257  0.3837
  246MOL0     C33101   3.216   3.474   9.964 -0.9954  0.1408 -0.0809
  246MOL0     C33102   3.325   3.561   9.981 -0.7659 -0.0075 -0.0219
  246MOL0     C33103   3.435   3.552   9.889  0.5424 -0.4052  0.0513
  246MOL0     C33104   3.558   3.624   9.907  0.5918 -0.2823  0.4209
  246MOL0     O33105   3.630   3.654   9.789  0.8574 -0.9182 -0.6319
  246MOL0     C33106   3.765   3.701   9.788  0.1056  0.0079 -0.4233
  246MOL0     C33107   3.845   3.687   9.675 -0.5247 -0.4039  0.5043
  246MOL0     C33108   3.979   3.723   9.671 -0.1282 -0.4783 -0.0570
  246MOL0     C33109   4.043   3.771   9.785  0.3058 -0.9568 -0.7969
  246MOL0     O33110   4.170   3.803   9.795 -0.4008 -0.1096  0.5037
  246MOL0     C33111   4.259   3.762   9.698 -0.7785 -0.1914 -0.0475
  246MOL0     C33112   4.389   3.839   9.729  0.3601 -0.0612 -0.2045
  246MOL0     C33113   4.512   3.811   9.646 -0.2444  0.0861  0.1860
  246MOL0     C33114   4.489   3.819   9.500 -0.2148  0.3451 -0.2521
  246MOL0     C33115   4.611   3.792   9.404 -0.0616  0.3159 -0.1767
  246MOL0     C33116   4.744   3.850   9.450 -0.9509  0.0868 -1.0031
  246MOL0     C33117   4.855   3.816   9.351  0.0868 -0.0744  0.8982
  246MOL0     C33118   4.989   3.831   9.431  0.0613  0.0113  0.1392
  246MOL0    Cl33119   5.122   3.762   9.327 -0.2491  0.1748 -0.0924
  246MOL0     C33120   3.974   3.784   9.907 -0.2170  0.3841 -0.0072
  246MOL0     C33121   3.835   3.755   9.899 -0.5526  0.4360 -0.2241
  246MOL0     O33122   3.598   3.639  10.024 -0.0989  0.2604  0.0678
  246MOL0     C33123   3.428   3.471   9.777  0.2381  1.6583 -1.2364
  246MOL0     C33124   3.323   3.374   9.761 -0.6142  0.1665 -0.5001
  246MOL0     N33125   2.558   3.059   9.579 -1.6876 -0.2365  0.0711
  246MOL0     N33126   2.446   3.111   9.557 -0.6846 -0.5953 -0.4896
  246MOL0     C33127   1.328   3.467   9.821 -0.3465 -0.4253 -0.4265
  246MOL0     C33128   1.201   3.435   9.773 -0.6377 -0.7331 -0.9373
  246MOL0     C33129   0.767   3.497   9.648 -0.1976 -0.4026 -0.2709
  246MOL0     C33130   0.759   3.357   9.683 -0.7282  0.0692 -0.1395
  246MOL0     C33131   0.642   3.294   9.693 -0.4064 -0.2628 -0.2018
  246MOL0     C33132   0.519   3.359   9.676 -0.0213  0.1948  0.1047
  246MOL0     O33133   0.393   3.297   9.700  0.3295  0.6883 -0.3826
  246MOL0     C33134   0.382   3.152   9.728  0.2519  0.7155  0.0768
  246MOL0     C33135   0.238   3.127   9.677  0.4551  1.1060  0.2328
  246MOL0     C33136   0.130   3.206   9.742  1.2261 -1.0655  0.3139
  246MOL0     C33137   0.005   3.127   9.745  0.1542  0.5146  0.1239
  246MOL0     C33138  -0.099   3.223   9.777  0.6529 -0.2176 -0.6027
  246MOL0     C33139  -0.186   3.293   9.817 -0.6996 -0.6579 -0.6518
  246MOL0     C33140   0.522   3.491   9.640 -0.1982 -0.8138  0.4482
  246MOL0     C33141   0.646   3.560   9.621 -0.2623  0.0647  0.0603
  246MOL0     C33142   0.646   3.709   9.597  0.9358 -0.8851  0.3380
  246MOL0     H33143   1.165   3.702   9.571  2.2505  1.6203 -0.8093
  246MOL0     H33144   1.377   3.766   9.682 -0.2575 -0.7935  2.6717
  246MOL0     H33145   1.597   3.464   9.881 -1.2239  0.6989  0.7953
  246MOL0     H33146   1.629   3.507   9.709 -4.2760 -1.9460 -0.4030
  246MOL0     H33147   1.764   3.651   9.954  0.5443  2.4745 -0.4177
  246MOL0     H33148   1.765   3.699   9.785 -1.5275 -3.1213 -2.7966
  246MOL0     H33149   1.869   3.505   9.706 -0.8123 -3.6871  1.2001
  246MOL0     H33150   1.877   3.434   9.864 -0.5225 -0.3169 -0.2305
  246MOL0     H33151   1.986   3.691   9.765  0.1794 -2.1667 -3.8362
  246MOL0     H33152   2.030   3.637   9.932  0.5326  1.9168 -1.2946
  246MOL0     H33153   2.215   3.608   9.804 -0.6384  1.2891 -2.4576
  246MOL0     H33154   2.150   3.436   9.825  2.5115  0.0648 -0.5650
  246MOL0     H33155   2.082   3.437   9.577 -2.4326  3.4220  1.0910
  246MOL0     H33156   2.190   3.577   9.578  3.1984 -2.0259 -0.3530
  246MOL0     H33157   2.379   3.459   9.660  1.5821  0.4240 -0.5240
  246MOL0     H33158   2.315   3.382   9.516  3.0027 -0.7256  1.2051
  246MOL0     H33159   2.269   3.277   9.799 -0.2101 -1.6045  0.8671
  246MOL0     H33160   2.210   3.198   9.656  0.3270 -1.7570  2.3322
  246MOL0     H33161   2.490   3.191   9.867 -0.1161 -1.1155  1.0867
  246MOL0     H33162   2.714   3.026   9.876  0.1172 -4.2728  0.1782
  246MOL0     H33163   2.745   2.941   9.725 -1.7710 -0.5930  1.0114
  246MOL0     H33164   2.858   3.163   9.637  2.5361  0.6771 -0.0253
  246MOL0     H33165   2.802   3.234   9.793  1.7383  0.6546 -0.7866
  246MOL0     H33166   2.993   2.991   9.773 -1.1874  0.1381 -1.1929
  246MOL0     H33167   2.970   3.078   9.914  1.7983 -0.8620  1.4387
  246MOL0     H33168   3.095   3.205   9.669 -2.9311  0.7822 -0.4514
  246MOL0     H33169   3.184   3.124   9.795  1.2567  1.3615 -2.2578
  246MOL0     H33170   3.124   3.477  10.021 -1.6632 -0.6153 -1.0686
  246MOL0     H33171   3.322   3.636  10.060  3.0825 -0.6097  0.8984
  246MOL0     H33172   3.797   3.639   9.590 -3.8146  2.1253  0.7478
  246MOL0     H33173   4.040   3.701   9.584  1.0050 -0.8763  0.8074
  246MOL0     H33174   4.271   3.655   9.718 -2.0331 -0.1363  1.1441
  246MOL0     H33175   4.228   3.775   9.594  0.3786 -2.2557 -0.7110
  246MOL0     H33176   4.373   3.947   9.732  0.8346 -0.0083  1.5730
  246MOL0     H33177   4.415   3.819   9.834  2.2039  0.0313 -0.6062
  246MOL0     H33178   4.578   3.891   9.680  0.1005 -1.1073  2.5576
  246MOL0     H33179   4.549   3.715   9.684 -2.2399 -1.4289 -1.4604
  246MOL0     H33180   4.452   3.920   9.481 -0.8321  0.5068  1.5769
  246MOL0     H33181   4.415   3.743   9.473  1.2040 -0.4077 -2.3101
  246MOL0     H33182   4.589   3.828   9.303 -1.6086  1.6904  0.5905
  246MOL0     H33183   4.621   3.685   9.385  1.8372  0.1625  1.4204
  246MOL0     H33184   4.731   3.958   9.462 -1.8619 -0.2580  2.0863
  246MOL0     H33185   4.781   3.806   9.543  4.7249 -0.9842 -3.3881
  246MOL0     H33186   4.846   3.890   9.271  0.9021 -1.6180 -0.6829
  246MOL0     H33187   4.853   3.709   9.325  1.8275  0.5559 -2.4059
  246MOL0     H33188   5.017   3.934   9.454  0.3752  0.5181 -2.2201
  246MOL0     H33189   4.989   3.798   9.535  0.6198 -2.0076 -0.4524
  246MOL0     H33190   4.028   3.829   9.990 -1.4026 -0.5068  1.2928
  246MOL0     H33191   3.795   3.758  10.000  1.9103 -1.2749  0.9115
  246MOL0     H33192   3.512   3.455   9.710 -0.2225  0.5980 -1.5848
  246MOL0     H33193   3.333   3.295   9.688  1.9318  0.0483 -0.1233
  246MOL0     H33194   1.372   3.406   9.900  1.1857  3.4656  2.0149
  246MOL0     H33195   1.130   3.361   9.808 -0.8385  1.6622  5.0479
  246MOL0     H33196   0.850   3.298   9.692 -1.3621 -0.8165  0.7589
  246MOL0     H33197   0.650   3.186   9.701  0.7968 -0.1337  0.4289
  246MOL0     H33198   0.400   3.129   9.833  0.6048 -0.7265 -0.2902
  246MOL0     H33199   0.445   3.094   9.660 -1.4014 -1.0170 -0.0631
  246MOL0     H33200   0.221   3.019   9.681  1.7792  0.8480 -0.7069
  246MOL0     H33201   0.230   3.152   9.571  1.0330  0.9634  0.1528
  246MOL0     H33202   0.108   3.299   9.690  1.6435 -0.6509  0.8588
  246MOL0     H33203   0.142   3.228   9.849 -1.5931  1.1367  0.3056
  246MOL0     H33204  -0.018   3.079   9.649 -0.1734  0.7242  0.0960
  246MOL0     H33205   0.014   3.049   9.820  1.8514  0.2014 -0.3573
  246MOL0     H33206  -0.275   3.341   9.852  0.7837 -0.1209  2.7855
  246MOL0     H33207   0.424   3.538   9.641  1.0601  1.9535  0.8077
  246MOL0     H33208   0.716   3.736   9.517  0.0794  0.8473  0.1242
  246MOL0     H33209   0.551   3.746   9.559  2.4250  3.3306  0.2135
  246MOL0     H33210   0.674   3.765   9.687 -1.5418  2.0962 -0.5735
  247MOL0     O33211   5.188  11.372   3.415 -0.8139  0.7935 -0.1344
  247MOL0     C33212   5.231  11.348   3.531 -0.5493  0.9514  0.4036
  247MOL0     O33213   5.358  11.372   3.581 -0.2317 -0.0577 -0.3029
  247MOL0     C33214   5.444  11.434   3.500 -0.7237 -0.9247  0.1776
  247MOL0     C33215   5.442  11.572   3.485 -0.5102 -0.2334  0.5785
  247MOL0     C33216   5.538  11.639   3.410  0.0519  0.7165  0.0963
  247MOL0     C33217   5.656  11.574   3.360 -0.1858 -0.0897 -0.1104
  247MOL0     O33218   5.771  11.646   3.332  0.9721 -0.2120 -0.1838
  247MOL0     C33219   5.766  11.783   3.285  0.0188  0.5946 -0.9272
  247MOL0     C33220   5.892  11.858   3.337  0.2387  0.6473 -0.3063
  247MOL0     C33221   5.875  12.012   3.317 -0.1395  0.1107  0.7295
  247MOL0     C33222   6.007  12.071   3.359 -0.6945 -0.2108  0.5320
  247MOL0     C33223   6.015  12.222   3.319  1.1365  0.3460  0.0133
  247MOL0     C33224   6.158  12.264   3.336 -0.6787 -0.9027  0.0455
  247MOL0     C33225   6.161  12.415   3.315 -0.3216  0.0536  0.0956
  247MOL0     C33226   6.309  12.439   3.345  0.0531  0.0615  0.0224
  247MOL0     N33227   6.343  12.573   3.300  1.1909 -0.5435 -0.1840
  247MOL0     C33228   6.421  12.603   3.195  0.2616  0.5708 -0.0122
  247MOL0     C33229   6.437  12.740   3.206 -1.0725 -0.5353 -0.0143
  247MOL0     C33230   6.531  12.825   3.133  0.2534 -0.8988 -0.9193
  247MOL0     C33231   6.669  12.819   3.200 -0.5564 -0.3473  0.7247
  247MOL0     C33232   6.780  12.847   3.108 -0.4384 -0.3847  0.4753
  247MOL0     C33233   6.914  12.868   3.174 -0.7192  0.0356 -0.0497
  247MOL0     O33234   6.947  12.774   3.278 -0.2849  0.1178 -0.0059
  247MOL0     C33235   7.057  12.791   3.355 -1.1569 -0.4587  0.0398
  247MOL0     C33236   7.084  12.687   3.443  0.0449  0.0099  0.3731
  247MOL0     C33237   7.193  12.697   3.531 -0.7011 -0.0597  0.2937
  247MOL0     C33238   7.278  12.808   3.535 -0.9863 -0.6498  0.4733
  247MOL0     C33239   7.398  12.815   3.626  0.5515  0.9156  0.0272
  247MOL0     O33240   7.485  12.914   3.608 -0.3159 -0.0163 -0.1381
  247MOL0     C33241   7.587  12.960   3.691  0.2806  0.0271  0.0892
  247MOL0     C33242   7.679  13.061   3.644  0.8791 -0.3097 -0.3000
  247MOL0     C33243   7.784  13.102   3.724 -0.0782 -0.0733 -0.3333
  247MOL0     C33244   7.813  13.050   3.851 -0.6817  0.5828  0.3598
  247MOL0     O33245   7.922  13.091   3.921 -0.6522 -0.1237  0.2140
  247MOL0     C33246   8.011  12.989   3.974 -0.3519 -0.3733  0.7106
  247MOL0     C33247   8.156  13.052   4.005 -0.0419  0.6551 -0.0529
  247MOL0     C33248   8.257  12.936   4.033 -0.2601  0.3121  0.4808
  247MOL0     C33249   8.241  12.858   4.160  0.7398 -0.2512  0.5938
  247MOL0     C33250   8.359  12.775   4.198 -0.2479  0.5115 -0.0157
  247MOL0     C33251   8.371  12.655   4.091  0.2929 -0.1680  1.0437
  247MOL0     C33252   8.481  12.565   4.155  0.7327 -0.4897 -0.2645
  247MOL0     C33253   8.515  12.459   4.047  0.2304 -0.0145 -0.3051
  247MOL0    Cl33254   8.612  12.317   4.107 -0.2303 -0.1653 -0.2676
  247MOL0     C33255   7.716  12.964   3.909  0.3089 -0.2345 -0.0686
  247MOL0     C33256   7.604  12.923   3.835 -0.5362 -0.3440 -0.2124
  247MOL0     O33257   7.404  12.733   3.714  0.1239  1.0620 -0.3767
  247MOL0     C33258   7.263  12.913   3.444  0.1895 -0.3499  0.4538
  247MOL0     C33259   7.152  12.899   3.354  0.2410 -0.5407  0.0862
  247MOL0     N33260   6.360  12.787   3.307 -1.2693 -0.6056  0.1759
  247MOL0     N33261   6.305  12.687   3.367  0.6563  0.1879  0.0962
  247MOL0     C33262   5.653  11.429   3.366 -0.8581 -0.2850 -0.7456
  247MOL0     C33263   5.554  11.362   3.443  0.0579 -0.6752 -0.5343
  247MOL0     C33264   5.137  11.266   3.611 -0.6542 -0.3783 -0.7310
  247MOL0     C33265   5.199  11.163   3.688  0.5718 -0.1616  0.2473
  247MOL0     C33266   5.114  11.076   3.764  0.3038 -0.7919 -0.7716
  247MOL0     C33267   4.972  11.107   3.774 -0.6774  0.1880  0.2088
  247MOL0     O33268   4.900  11.029   3.857 -0.3893  0.2970 -0.2280
  247MOL0     C33269   4.821  11.106   3.950 -0.9611 -0.4214  0.0739
  247MOL0     C33270   4.714  11.010   4.007  0.2858  0.1440 -0.3629
  247MOL0     C33271   4.596  11.082   4.073  0.1742  0.7147  0.5724
  247MOL0     C33272   4.482  10.988   4.125 -0.2952 -0.1002  0.3964
  247MOL0     C33273   4.527  10.898   4.231  0.7171 -0.0906 -0.7467
  247MOL0     C33274   4.562  10.825   4.325  0.3711  0.5881  0.6799
  247MOL0     C33275   4.924  11.212   3.694  0.2109  0.4056  0.1973
  247MOL0     C33276   4.999  11.289   3.616 -0.3315 -0.0332  0.2287
  247MOL0     C33277   4.924  11.392   3.534  0.1126  0.3024  0.5404
  247MOL0     H33278   5.364  11.627   3.536  1.2318  0.0576  3.0878
  247MOL0     H33279   5.516  11.745   3.409 -0.1698  0.6762 -1.1539
  247MOL0     H33280   5.748  11.791   3.178 -2.1177 -2.1035 -0.8855
  247MOL0     H33281   5.684  11.839   3.330  1.0133  2.5162 -1.4055
  247MOL0     H33282   5.967  11.821   3.266 -0.7536  0.5203 -1.3206
  247MOL0     H33283   5.916  11.826   3.439 -2.3652 -1.1882 -0.1583
  247MOL0     H33284   5.790  12.051   3.374 -0.8401 -2.1525  1.3634
  247MOL0     H33285   5.863  12.032   3.210  1.7327 -0.9870  0.2608
  247MOL0     H33286   6.024  12.056   3.465  0.0533 -0.2167  0.4132
  247MOL0     H33287   6.093  12.026   3.308 -0.9094  0.7065 -0.7058
  247MOL0     H33288   5.992  12.226   3.212  1.0329 -2.3092 -0.1253
  247MOL0     H33289   5.956  12.290   3.383 -0.4018 -0.8836 -0.0512
  247MOL0     H33290   6.197  12.240   3.435 -0.5083 -1.0997 -0.0699
  247MOL0     H33291   6.218  12.217   3.258 -1.0370 -0.6340 -0.4022
  247MOL0     H33292   6.095  12.472   3.381  1.9232  3.5354 -0.3993
  247MOL0     H33293   6.138  12.454   3.215  0.2296  2.0316  0.6996
  247MOL0     H33294   6.323  12.431   3.453  3.9364  2.5126 -0.0996
  247MOL0     H33295   6.378  12.375   3.291  2.3295  1.9499  0.5231
  247MOL0     H33296   6.480  12.531   3.138  1.6951  0.1124  1.9513
  247MOL0     H33297   6.532  12.808   3.025 -1.3404  1.5818 -1.4082
  247MOL0     H33298   6.499  12.929   3.147 -0.5025 -1.2309 -0.0819
  247MOL0     H33299   6.678  12.881   3.290  2.5671  1.4025 -0.6246
  247MOL0     H33300   6.694  12.717   3.232 -0.2881 -0.3548  0.4958
  247MOL0     H33301   6.762  12.932   3.042  1.8929 -0.8037 -0.8247
  247MOL0     H33302   6.808  12.763   3.043 -0.0931  0.1212 -0.0324
  247MOL0     H33303   6.905  12.964   3.226 -0.9016 -0.0701  0.1164
  247MOL0     H33304   6.995  12.866   3.101  1.0669  2.2212  1.7563
  247MOL0     H33305   7.028  12.595   3.426 -0.5132  0.8220 -2.9357
  247MOL0     H33306   7.203  12.631   3.616  0.2908 -0.1274  0.1367
  247MOL0     H33307   7.664  13.103   3.545 -1.8230 -1.2492 -0.3663
  247MOL0     H33308   7.851  13.173   3.677  2.2937 -2.5455 -0.9308
  247MOL0     H33309   7.980  12.942   4.068  1.2887 -3.3161 -0.0980
  247MOL0     H33310   8.034  12.913   3.899  1.9673 -1.2325  2.1906
  247MOL0     H33311   8.199  13.110   3.923 -0.4684 -1.0358 -1.5188
  247MOL0     H33312   8.145  13.113   4.095 -1.0148 -0.4922  0.6396
  247MOL0     H33313   8.257  12.861   3.953  2.2517 -0.0228  0.7322
  247MOL0     H33314   8.349  12.994   4.027  0.2830 -0.5473  0.3111
  247MOL0     H33315   8.160  12.785   4.165  0.9656 -0.6840 -1.3068
  247MOL0     H33316   8.223  12.936   4.235 -3.9066  0.1071 -0.6276
  247MOL0     H33317   8.358  12.746   4.303  2.8025 -0.3153 -0.1105
  247MOL0     H33318   8.452  12.831   4.181  1.2030 -1.7588  0.0496
  247MOL0     H33319   8.278  12.600   4.074 -0.4799  0.8871  1.7606
  247MOL0     H33320   8.417  12.689   3.998  0.3535 -1.2974  0.6360
  247MOL0     H33321   8.450  12.513   4.246  0.8698 -1.4903 -0.7772
  247MOL0     H33322   8.574  12.616   4.183 -1.2558  3.2893  0.0660
  247MOL0     H33323   8.426  12.405   4.013  1.5835 -1.1619 -2.1704
  247MOL0     H33324   8.551  12.509   3.957  1.2176 -3.4723 -2.0000
  247MOL0     H33325   7.725  12.915   4.005 -0.6163 -1.5137 -0.6009
  247MOL0     H33326   7.523  12.861   3.873 -0.8665  0.0139 -0.3169
  247MOL0     H33327   7.325  13.000   3.429 -2.9905  2.1757  0.8331
  247MOL0     H33328   7.138  12.980   3.283  1.3474 -0.8005 -0.4504
  247MOL0     H33329   5.738  11.371   3.332 -1.2247  0.2401 -2.6961
  247MOL0     H33330   5.559  11.255   3.465  3.9596 -0.1735  2.1382
  247MOL0     H33331   5.305  11.137   3.688  0.4109 -0.9437 -1.2659
  247MOL0     H33332   5.154  10.991   3.818  1.3438 -1.2674 -2.2213
  247MOL0     H33333   4.780  11.203   3.921  4.8543  3.4888  3.0498
  247MOL0     H33334   4.884  11.129   4.036  1.6741 -2.9056 -1.0531
  247MOL0     H33335   4.765  10.946   4.079 -0.1839 -0.8894 -0.9247
  247MOL0     H33336   4.667  10.953   3.926 -0.4155 -0.4867  0.4648
  247MOL0     H33337   4.563  11.160   4.003 -3.9343 -1.7704 -0.6445
  247MOL0     H33338   4.631  11.136   4.161  1.7357 -0.0397  0.4472
  247MOL0     H33339   4.396  11.051   4.150 -2.2167 -1.8895 -1.3243
  247MOL0     H33340   4.458  10.913   4.049 -0.8656 -0.1254  0.5975
  247MOL0     H33341   4.595  10.791   4.421  0.1743  4.1584  2.1814
  247MOL0     H33342   4.820  11.242   3.707 -0.2474 -1.6258  1.7553
  247MOL0     H33343   4.975  11.480   3.495 -0.7795  0.8850  0.6743
  247MOL0     H33344   4.881  11.338   3.449  0.0303 -0.3664  0.9987
  247MOL0     H33345   4.845  11.424   3.602 -1.5980  0.2287 -1.3217
  248MOL0     O33346   8.781  10.112  11.071  0.1672  0.0196  0.5995
  248MOL0     C33347   8.686  10.065  11.005 -0.8799  0.1475  0.3328
  248MOL0     O33348   8.694  10.046  10.869  0.2476 -0.2505  0.4440
  248MOL0     C33349   8.824  10.041  10.818  0.0752  0.4840  0.5075
  248MOL0     C33350   8.892   9.917  10.806  0.2878  0.0632 -0.0090
  248MOL0     C33351   9.026   9.918  10.761 -0.4367 -0.0539  1.3469
  248MOL0     C33352   9.082  10.038  10.714 -0.7353 -0.2967 -0.0525
  248MOL0     O33353   9.217  10.019  10.683  0.4637  1.1715  1.2214
  248MOL0     C33354   9.292  10.119  10.603  0.3847  0.0445 -0.6231
  248MOL0     C33355   9.245  10.100  10.458 -0.1960 -0.0063  0.8610
  248MOL0     C33356   9.323  10.200  10.370  0.2604  0.2575  0.9166
  248MOL0     C33357   9.262  10.194  10.233  0.6285  0.0043 -0.1474
  248MOL0     C33358   9.325  10.288  10.135 -0.0724  0.0547  0.3114
  248MOL0     C33359   9.485  10.277  10.137 -0.5013  0.1764 -0.0141
  248MOL0     C33360   9.563  10.376  10.235 -0.1653  0.2103 -0.0620
  248MOL0     C33361   9.716  10.369  10.198 -0.4957 -0.0401  0.0490
  248MOL0     N33362   9.780  10.482  10.253 -0.0478 -0.1405  0.4109
  248MOL0     C33363   9.828  10.591  10.190 -0.2453  0.1473  0.1416
  248MOL0     C33364   9.891  10.674  10.277 -0.3371 -0.2572  0.1699
  248MOL0     C33365   9.940  10.816  10.257 -0.2059  0.0365  0.5365
  248MOL0     C33366  10.092  10.811  10.247 -0.1632  0.8086 -0.2094
  248MOL0     C33367  10.169  10.941  10.260  0.1388 -0.6048 -0.6872
  248MOL0     C33368  10.175  11.005  10.124 -0.0469 -0.4867 -0.5577
  248MOL0     O33369  10.229  11.136  10.158 -0.2306 -0.4707  0.4134
  248MOL0     C33370  10.343  11.173  10.099 -0.0651  0.4980  0.5454
  248MOL0     C33371  10.455  11.084  10.078 -0.6539 -0.6780 -0.3802
  248MOL0     C33372  10.572  11.135  10.019 -0.1001  0.1772  1.4020
  248MOL0     C33373  10.590  11.266   9.979  0.2857 -0.5020 -0.3569
  248MOL0     C33374  10.709  11.313   9.913  0.0149 -0.6743 -0.2187
  248MOL0     O33375  10.818  11.241   9.907 -0.0636  0.0532 -0.1280
  248MOL0     C33376  10.929  11.313   9.866 -0.8901 -0.4375 -0.4460
  248MOL0     C33377  11.008  11.387   9.961 -0.0841 -0.5289  0.8588
  248MOL0     C33378  11.131  11.447   9.928 -1.1536  0.2186  0.0436
  248MOL0     C33379  11.178  11.452   9.792 -0.5137  0.7050 -0.3339
  248MOL0     O33380  11.296  11.498   9.744  0.0666 -0.5862 -0.4090
  248MOL0     C33381  11.344  11.626   9.791  0.1666  0.6977 -0.8573
  248MOL0     C33382  11.497  11.631   9.784  0.4042  0.1956 -0.4055
  248MOL0     C33383  11.547  11.605   9.644 -0.9469 -1.2164  0.4730
  248MOL0     C33384  11.538  11.727   9.552  0.0005 -0.7546 -0.4847
  248MOL0     C33385  11.569  11.692   9.404  0.0828  1.0286 -0.7144
  248MOL0     C33386  11.435  11.625   9.331 -0.3985  0.6813  0.8057
  248MOL0     C33387  11.448  11.538   9.203 -0.5722  0.5021 -1.2078
  248MOL0     C33388  11.448  11.390   9.242  0.4118  0.8472 -0.4102
  248MOL0    Cl33389  11.486  11.297   9.092  0.8439  0.1086 -0.1616
  248MOL0     C33390  11.095  11.362   9.707 -0.5829  0.5087 -0.3368
  248MOL0     C33391  10.981  11.296   9.741 -0.1024  0.6576 -0.8223
  248MOL0     O33392  10.701  11.428   9.875 -0.3811  0.4182  0.1087
  248MOL0     C33393  10.476  11.348  10.004  0.0308 -0.9226 -0.4055
  248MOL0     C33394  10.362  11.303  10.061  0.4016  0.0710  0.5166
  248MOL0     N33395   9.895  10.602  10.399 -0.0872 -0.0176  0.1374
  248MOL0     N33396   9.840  10.483  10.382 -0.6772  0.4807  0.0970
  248MOL0     C33397   9.013  10.160  10.726 -0.1344  0.6621 -0.5241
  248MOL0     C33398   8.882  10.162  10.783 -0.7095 -0.4828  0.0594
  248MOL0     C33399   8.549  10.060  11.075 -0.0037 -0.8650 -0.6477
  248MOL0     C33400   8.530  10.128  11.199 -0.4880 -0.0388  0.0406
  248MOL0     C33401   8.417  10.110  11.274 -0.2028  0.3383 -0.5327
  248MOL0     C33402   8.306  10.026  11.239 -0.2950  0.2874 -0.4375
  248MOL0     O33403   8.209  10.008  11.337 -0.4254 -0.4907 -0.0272
  248MOL0     C33404   8.101   9.927  11.302  0.1494 -0.2492  1.0620
  248MOL0     C33405   7.989   9.911  11.402 -0.9005 -0.6297 -0.3550
  248MOL0     C33406   7.897  10.038  11.393 -0.5307 -0.0707  0.2895
  248MOL0     C33407   7.763  10.014  11.465 -0.5247  0.4953  0.2199
  248MOL0     C33408   7.665  10.117  11.421  0.3452  0.8499  0.3310
  248MOL0     C33409   7.586  10.202  11.390 -0.2274  0.1476 -0.0215
  248MOL0     C33410   8.315   9.963  11.109 -0.5114  0.2123 -0.5867
  248MOL0     C33411   8.435   9.986  11.030  0.1436  0.5899 -0.6008
  248MOL0     C33412   8.441   9.906  10.899 -0.2076  0.1197 -0.4960
  248MOL0     H33413   8.843   9.828  10.843 -0.9870  0.9367  0.4751
  248MOL0     H33414   9.088   9.828  10.759  2.9630  2.0958  0.0212
  248MOL0     H33415   9.271  10.223  10.631  1.7049 -0.2454  1.7090
  248MOL0     H33416   9.401  10.113  10.610  0.2367 -2.1224  0.9541
  248MOL0     H33417   9.141  10.134  10.458  0.5151  2.3500  1.1560
  248MOL0     H33418   9.256  10.002  10.411 -2.5750  0.5950 -1.1722
  248MOL0     H33419   9.428  10.171  10.370 -0.3289 -2.1462  0.6034
  248MOL0     H33420   9.316  10.294  10.425 -1.5232 -1.4401  3.9070
  248MOL0     H33421   9.251  10.092  10.195 -0.5810  0.5173 -1.2609
  248MOL0     H33422   9.156  10.222  10.240  1.0311  1.4681  0.5560
  248MOL0     H33423   9.282  10.273  10.035  0.7841 -0.9139  0.0756
  248MOL0     H33424   9.304  10.393  10.158 -1.4022 -0.5053  1.8549
  248MOL0     H33425   9.496  10.171  10.164 -2.9606 -0.3621 -0.7850
  248MOL0     H33426   9.509  10.286  10.031 -0.5811 -2.1465 -0.2834
  248MOL0     H33427   9.538  10.359  10.340 -1.5319  1.8633 -0.0679
  248MOL0     H33428   9.522  10.475  10.213  1.2199  0.2358 -3.0392
  248MOL0     H33429   9.765  10.285  10.248 -1.8227  1.3070  3.9477
  248MOL0     H33430   9.733  10.354  10.091 -0.3096  2.9932 -0.4155
  248MOL0     H33431   9.810  10.617  10.086 -3.2009 -0.5622  0.3806
  248MOL0     H33432   9.888  10.870  10.177 -0.7184  1.6306  1.8860
  248MOL0     H33433   9.914  10.873  10.346  1.1073 -1.6371  2.0653
  248MOL0     H33434  10.130  10.737  10.319  1.7278  1.1157 -0.8201
  248MOL0     H33435  10.118  10.765  10.151  2.2199  0.3333  0.5767
  248MOL0     H33436  10.270  10.929  10.299  0.4768 -0.2401 -1.4388
  248MOL0     H33437  10.118  11.008  10.329 -0.4483 -1.8637  0.1277
  248MOL0     H33438  10.076  11.016  10.079  0.4961  2.2419 -1.2884
  248MOL0     H33439  10.239  10.948  10.056 -0.1032 -0.2135 -0.8421
  248MOL0     H33440  10.462  10.985  10.122 -1.8044  0.7741  3.5304
  248MOL0     H33441  10.649  11.066   9.985 -1.4480 -0.2302 -1.0736
  248MOL0     H33442  10.978  11.397  10.065  0.0878 -0.4818  0.9053
  248MOL0     H33443  11.188  11.497  10.005  1.7879 -1.7191 -0.7082
  248MOL0     H33444  11.309  11.715   9.737  0.4221  2.8527  2.2540
  248MOL0     H33445  11.320  11.641   9.896 -0.6303 -0.7009 -0.8133
  248MOL0     H33446  11.528  11.732   9.813 -2.0853  1.0916 -0.6206
  248MOL0     H33447  11.545  11.552   9.842  1.1023  0.3057 -0.8207
  248MOL0     H33448  11.655  11.589   9.654 -0.4315  0.6349 -1.3926
  248MOL0     H33449  11.506  11.511   9.605  2.2433 -2.7451  0.4362
  248MOL0     H33450  11.601  11.805   9.595  0.1676 -1.7526  1.1574
  248MOL0     H33451  11.436  11.768   9.550 -0.1468 -1.1433 -1.6864
  248MOL0     H33452  11.658  11.629   9.415 -0.3010  0.2426 -1.9198
  248MOL0     H33453  11.597  11.783   9.351  0.0597  0.3089 -2.0014
  248MOL0     H33454  11.387  11.556   9.400  1.2017  0.6036  1.9098
  248MOL0     H33455  11.369  11.710   9.313 -0.8993 -0.0133 -0.8035
  248MOL0     H33456  11.541  11.569   9.155 -1.2879  2.0401 -1.6661
  248MOL0     H33457  11.355  11.550   9.148 -2.1369  0.4327  1.2628
  248MOL0     H33458  11.531  11.377   9.311 -1.8307  0.0480  2.3254
  248MOL0     H33459  11.361  11.353   9.297  1.1205  0.0862  0.2366
  248MOL0     H33460  11.142  11.349   9.609  0.1495  2.6751 -0.3149
  248MOL0     H33461  10.921  11.241   9.669 -2.7244  0.8073  1.0976
  248MOL0     H33462  10.470  11.455   9.984 -2.5234 -0.7876  0.6042
  248MOL0     H33463  10.280  11.374  10.072 -0.4043 -0.9665  1.4928
  248MOL0     H33464   9.065  10.254  10.708  1.0034  0.7111  2.3162
  248MOL0     H33465   8.821  10.252  10.787  0.2854  0.1764  1.0502
  248MOL0     H33466   8.604  10.185  11.254  0.9299 -0.3500 -1.4962
  248MOL0     H33467   8.410  10.177  11.359  0.6916  0.2689 -0.4015
  248MOL0     H33468   8.141   9.826  11.298 -0.2130 -0.3931  1.0269
  248MOL0     H33469   8.053   9.957  11.208  1.7320  0.9006  0.5775
  248MOL0     H33470   8.020   9.901  11.506 -1.6201  0.0076 -0.0735
  248MOL0     H33471   7.936   9.819  11.376  0.2166 -0.9567 -1.6334
  248MOL0     H33472   7.870  10.050  11.288  1.0667  0.8081 -0.0575
  248MOL0     H33473   7.962  10.123  11.420 -2.0762  1.1394  0.3500
  248MOL0     H33474   7.720   9.921  11.428  0.6134 -0.0461  0.2248
  248MOL0     H33475   7.779  10.013  11.573  0.5435 -0.4476  0.0640
  248MOL0     H33476   7.528  10.288  11.363 -1.3542 -0.5667  0.0639
  248MOL0     H33477   8.235   9.899  11.075  0.2869  0.0397 -2.1944
  248MOL0     H33478   8.532   9.845  10.898 -0.4173 -0.3644  2.1627
  248MOL0     H33479   8.348   9.851  10.887 -0.8712  0.6244  1.8190
  248MOL0     H33480   8.428   9.977  10.817 -2.1626  1.0117  0.5247
  249MOL0     O33481   5.742   8.312   9.755 -0.1103  0.7480 -0.2293
  249MOL0     C33482   5.800   8.375   9.842  0.1643  0.9503  0.1320
  249MOL0     O33483   5.746   8.461   9.942 -0.3640  0.3167  0.3059
  249MOL0     C33484   5.612   8.468   9.963 -0.1910 -0.2010 -0.3208
  249MOL0     C33485   5.504   8.455   9.880 -0.5079 -0.6127 -0.1007
  249MOL0     C33486   5.375   8.444   9.921  0.1393 -0.2107 -1.0759
  249MOL0     C33487   5.340   8.453  10.059 -0.0802 -0.4771  0.3806
  249MOL0     O33488   5.218   8.460  10.116  0.2302  0.6440  0.4885
  249MOL0     C33489   5.105   8.462  10.030 -0.8402 -0.1834 -0.1944
  249MOL0     C33490   4.976   8.468  10.110  0.7892  0.4017 -0.1862
  249MOL0     C33491   4.969   8.561  10.236 -0.2121  0.4063  0.6674
  249MOL0     C33492   4.845   8.646  10.226 -0.2523 -0.0934  0.7875
  249MOL0     C33493   4.720   8.566  10.257 -0.7994  0.3869 -0.7757
  249MOL0     C33494   4.604   8.661  10.296 -0.0553 -1.0643 -0.0788
  249MOL0     C33495   4.475   8.571  10.286 -0.2268 -0.3576 -0.1550
  249MOL0     C33496   4.465   8.472  10.401  0.4741  0.6280 -0.5509
  249MOL0     N33497   4.395   8.526  10.526 -0.5078 -0.8240  0.1685
  249MOL0     C33498   4.344   8.653  10.548 -0.0575  0.1665  0.1240
  249MOL0     C33499   4.274   8.642  10.666 -0.0404  0.3745  0.0975
  249MOL0     C33500   4.196   8.739  10.744  0.4627  0.0692 -0.2131
  249MOL0     C33501   4.281   8.846  10.809  0.3527  0.0056 -0.2485
  249MOL0     C33502   4.200   8.937  10.911 -0.3558 -0.8123 -0.1127
  249MOL0     C33503   4.060   8.992  10.859 -0.4080  0.8610 -0.0974
  249MOL0     O33504   4.013   9.069  10.970 -0.7315  0.1399  0.2432
  249MOL0     C33505   3.947   9.185  10.953 -0.1626 -0.0657 -0.1077
  249MOL0     C33506   3.927   9.244  10.822 -0.3631 -0.7449 -0.0242
  249MOL0     C33507   3.866   9.368  10.809  0.4062  0.1750  0.3756
  249MOL0     C33508   3.810   9.429  10.923  0.2239 -0.3814  0.1646
  249MOL0     C33509   3.737   9.560  10.908 -0.0306 -0.4623  0.6512
  249MOL0     O33510   3.693   9.618  11.028  0.1294 -0.7633 -0.0732
  249MOL0     C33511   3.641   9.752  11.007  0.5261  0.5962  0.6592
  249MOL0     C33512   3.724   9.852  11.039 -0.5153 -1.5888  0.0925
  249MOL0     C33513   3.670   9.981  11.023  0.3555 -0.1723 -0.0836
  249MOL0     C33514   3.529  10.010  11.002  0.0530  0.1667  0.6822
  249MOL0     O33515   3.469  10.134  10.982 -0.2942  0.3029 -0.0416
  249MOL0     C33516   3.509  10.234  11.084  0.4159 -0.2172 -0.0772
  249MOL0     C33517   3.423  10.205  11.208 -0.3893 -0.3400 -0.5296
  249MOL0     C33518   3.437  10.321  11.307 -0.4663 -0.0589  0.3027
  249MOL0     C33519   3.327  10.427  11.281 -0.3216 -0.1787  0.4237
  249MOL0     C33520   3.331  10.526  11.396  0.2477 -0.1412  0.1801
  249MOL0     C33521   3.206  10.616  11.359  0.7179 -0.3297 -0.6545
  249MOL0     C33522   3.180  10.722  11.464 -0.0147  0.5432 -0.1215
  249MOL0     C33523   3.145  10.659  11.604 -0.1547 -0.5937  0.5622
  249MOL0    Cl33524   3.300  10.646  11.704  0.3939  0.0280 -0.0763
  249MOL0     C33525   3.451   9.894  10.970  0.9177 -0.8886 -0.2060
  249MOL0     C33526   3.506   9.766  10.976  0.1271 -0.6258  0.6544
  249MOL0     O33527   3.726   9.612  10.797  0.8373  0.7701  0.9763
  249MOL0     C33528   3.817   9.368  11.044 -0.6863  0.1637  0.4553
  249MOL0     C33529   3.897   9.254  11.068  0.2665  0.3050 -0.2803
  249MOL0     N33530   4.277   8.508  10.708 -0.3348  0.3639  0.2685
  249MOL0     N33531   4.349   8.445  10.624 -0.0056  0.4671  0.7760
  249MOL0     C33532   5.447   8.455  10.152  0.2989 -0.2488 -1.2385
  249MOL0     C33533   5.583   8.460  10.100 -0.4297 -0.6366 -0.2908
  249MOL0     C33534   5.949   8.375   9.844 -1.3497  0.0596 -0.2389
  249MOL0     C33535   6.023   8.451   9.940  0.3096  0.4953 -0.7629
  249MOL0     C33536   6.165   8.449   9.959  0.4449 -0.2343 -0.6070
  249MOL0     C33537   6.246   8.371   9.880  0.8627  0.2321  0.1351
  249MOL0     O33538   6.383   8.351   9.898 -0.3467 -0.9232 -0.4510
  249MOL0     C33539   6.473   8.368   9.786 -0.4864 -0.1315  0.6587
  249MOL0     C33540   6.495   8.516   9.743  0.0112  0.1443  0.1940
  249MOL0     C33541   6.489   8.604   9.871 -0.7285  0.1884  1.1911
  249MOL0     C33542   6.539   8.753   9.857  0.1166  0.3609  0.2912
  249MOL0     C33543   6.676   8.760   9.812 -0.0553 -0.5630  0.2344
  249MOL0     C33544   6.775   8.763   9.751 -0.0764 -0.9861 -1.0675
  249MOL0     C33545   6.176   8.302   9.785 -0.4263  0.0097  0.1637
  249MOL0     C33546   6.040   8.309   9.762  0.6755  0.6582 -0.3597
  249MOL0     C33547   6.003   8.232   9.641  0.7829  0.3840  0.4769
  249MOL0     H33548   5.509   8.447   9.772  3.3331 -0.0560 -0.1127
  249MOL0     H33549   5.301   8.429   9.844  0.4461 -0.2118 -1.3726
  249MOL0     H33550   5.109   8.550   9.965 -2.2061 -0.0864 -0.1697
  249MOL0     H33551   5.100   8.374   9.965  0.4210 -0.9187  0.6560
  249MOL0     H33552   4.953   8.368  10.149 -0.0258  0.0559 -1.5017
  249MOL0     H33553   4.896   8.490  10.038 -1.3152  1.4927  2.3190
  249MOL0     H33554   5.060   8.622  10.240  0.1973 -0.1771  0.4335
  249MOL0     H33555   4.965   8.493  10.322  0.1704 -1.8917 -1.0198
  249MOL0     H33556   4.853   8.733  10.292 -0.0387  0.6415 -0.1867
  249MOL0     H33557   4.845   8.677  10.121  1.3368  0.4780  0.9218
  249MOL0     H33558   4.689   8.504  10.173 -0.5863  0.4042 -0.8694
  249MOL0     H33559   4.740   8.502  10.343 -0.5798 -1.8009 -2.3551
  249MOL0     H33560   4.616   8.710  10.394 -2.2468  2.4829 -1.3889
  249MOL0     H33561   4.607   8.745  10.226 -1.0094  0.0647  1.1698
  249MOL0     H33562   4.477   8.512  10.194 -1.4842  0.7311 -0.9116
  249MOL0     H33563   4.382   8.628  10.298  0.6253  0.9425  0.4528
  249MOL0     H33564   4.395   8.397  10.362 -0.7125  1.4983 -0.1476
  249MOL0     H33565   4.553   8.411  10.419 -0.5488 -0.0768  2.8018
  249MOL0     H33566   4.348   8.737  10.479 -0.6378  0.5366  0.5294
  249MOL0     H33567   4.118   8.763  10.672 -0.0165  0.4352  0.4225
  249MOL0     H33568   4.145   8.683  10.824 -3.1751  0.7020 -1.8914
  249MOL0     H33569   4.366   8.800  10.861 -0.5637 -1.2731  0.1782
  249MOL0     H33570   4.315   8.906  10.725  0.0933 -0.8791 -1.0019
  249MOL0     H33571   4.270   9.016  10.938  0.8041 -2.0331  0.5652
  249MOL0     H33572   4.190   8.875  11.001  2.0381  0.1177  0.8668
  249MOL0     H33573   3.987   8.911  10.845  2.0205 -1.8287  1.6380
  249MOL0     H33574   4.077   9.042  10.763 -3.7295 -0.0963 -1.3477
  249MOL0     H33575   3.965   9.204  10.729 -3.0506 -3.0322 -0.2402
  249MOL0     H33576   3.855   9.420  10.714 -3.0727  0.6445  0.9138
  249MOL0     H33577   3.829   9.830  11.052 -0.3059 -2.7708 -2.7786
  249MOL0     H33578   3.746  10.058  11.035  0.6033 -0.3816 -0.2804
  249MOL0     H33579   3.613  10.220  11.112 -0.0830 -1.8847  1.1158
  249MOL0     H33580   3.491  10.336  11.049 -0.6328 -0.6939 -0.9849
  249MOL0     H33581   3.316  10.195  11.188 -0.1553  0.6400 -2.5740
  249MOL0     H33582   3.469  10.121  11.259 -0.5633  0.7859  1.5876
  249MOL0     H33583   3.428  10.275  11.405 -1.9019 -1.8258 -0.5972
  249MOL0     H33584   3.531  10.374  11.289 -1.7797  1.7258 -1.8975
  249MOL0     H33585   3.235  10.370  11.269 -1.0107  0.8579  0.6615
  249MOL0     H33586   3.341  10.476  11.184 -0.1723 -0.3568  0.3543
  249MOL0     H33587   3.417  10.591  11.414 -1.5033  1.7322  2.4758
  249MOL0     H33588   3.308  10.472  11.488 -0.9007  2.6547  1.6424
  249MOL0     H33589   3.225  10.672  11.268 -2.3518  1.1984 -0.4638
  249MOL0     H33590   3.118  10.552  11.347  0.8710 -1.1021  1.8018
  249MOL0     H33591   3.098  10.789  11.433  0.1223 -0.1151 -2.0194
  249MOL0     H33592   3.265  10.791  11.463 -1.0028  1.8865  1.4967
  249MOL0     H33593   3.076  10.723  11.658  2.8507  3.3361  0.1624
  249MOL0     H33594   3.082  10.569  11.598  2.9509 -3.1412  2.4213
  249MOL0     H33595   3.349   9.896  10.932  0.4065 -0.4587  1.1391
  249MOL0     H33596   3.445   9.678  10.956 -0.7690 -0.4273  2.2813
  249MOL0     H33597   3.788   9.412  11.139  2.0488  1.4424  0.8124
  249MOL0     H33598   3.912   9.208  11.165 -0.8268  0.7332  0.1080
  249MOL0     H33599   5.429   8.450  10.258  0.6799  1.0368 -1.0990
  249MOL0     H33600   5.665   8.453  10.170  0.3855  1.4250 -0.9713
  249MOL0     H33601   5.977   8.516  10.013 -0.9357 -4.1570  3.1112
  249MOL0     H33602   6.213   8.497  10.044  0.4076 -1.7336  0.3002
  249MOL0     H33603   6.429   8.328   9.694 -0.7519 -0.8697  1.1029
  249MOL0     H33604   6.570   8.320   9.795  0.6401  1.3791 -2.0376
  249MOL0     H33605   6.409   8.541   9.681 -0.2393  0.2538  0.5784
  249MOL0     H33606   6.592   8.521   9.694 -0.6896 -2.3566 -1.6924
  249MOL0     H33607   6.543   8.559   9.955  0.8874 -1.6283 -0.7066
  249MOL0     H33608   6.384   8.617   9.898 -0.6930  1.3568  0.8422
  249MOL0     H33609   6.467   8.794   9.786  1.0068 -2.6202 -2.5814
  249MOL0     H33610   6.532   8.806   9.952 -4.2279 -0.0340  0.3921
  249MOL0     H33611   6.869   8.771   9.700  0.2755  0.7306 -0.2177
  249MOL0     H33612   6.242   8.236   9.729 -2.0364 -2.7887  1.3191
  249MOL0     H33613   6.087   8.223   9.572 -0.1934  1.6600 -0.9453
  249MOL0     H33614   5.973   8.129   9.662  3.3374 -0.9102 -1.5612
  249MOL0     H33615   5.931   8.288   9.580  2.2577 -0.3453 -2.0946
  250MOL0     O33616   0.329   2.000  11.261 -0.2449  0.0240 -0.2116
  250MOL0     C33617   0.259   1.932  11.188  0.6430  0.2697  0.0288
  250MOL0     O33618   0.301   1.812  11.128 -0.0406  0.1929 -0.2376
  250MOL0     C33619   0.436   1.801  11.097 -0.3079 -0.4195 -0.1386
  250MOL0     C33620   0.486   1.671  11.111 -0.2690  0.6837 -0.1603
  250MOL0     C33621   0.624   1.649  11.091  1.1849 -0.0925  0.3041
  250MOL0     C33622   0.709   1.749  11.048 -0.5278 -1.0556 -0.0652
  250MOL0     O33623   0.834   1.713  11.058  0.6169  0.8053 -0.5141
  250MOL0     C33624   0.931   1.766  10.967  0.3410  0.2823 -0.0004
  250MOL0     C33625   1.064   1.683  10.984  0.7176 -0.4961  0.7749
  250MOL0     C33626   1.157   1.744  10.885 -0.0607  0.3001 -0.5977
  250MOL0     C33627   1.298   1.696  10.911 -0.3518 -0.1837 -0.7207
  250MOL0     C33628   1.401   1.793  10.832  0.7736  0.0754  0.0417
  250MOL0     C33629   1.399   1.777  10.677 -0.0902 -0.7331  0.2055
  250MOL0     C33630   1.472   1.651  10.630  0.2160 -1.7294 -0.3807
  250MOL0     C33631   1.629   1.669  10.633 -0.0443  0.2242  0.8118
  250MOL0     N33632   1.680   1.794  10.580 -0.5377  0.2814  0.4223
  250MOL0     C33633   1.709   1.827  10.442  0.0463 -0.0153 -0.5807
  250MOL0     C33634   1.744   1.954  10.450 -0.1202 -0.3679  0.2692
  250MOL0     C33635   1.771   2.052  10.336  0.6674 -0.5595  0.1935
  250MOL0     C33636   1.919   2.059  10.320  0.1865  0.0788  0.0946
  250MOL0     C33637   1.970   1.940  10.230  0.9087  0.4604  0.5841
  250MOL0     C33638   2.120   1.933  10.233  0.3207  0.3322 -0.6336
  250MOL0     O33639   2.158   2.013  10.126  0.0236 -0.2136  0.1969
  250MOL0     C33640   2.284   2.026  10.076  0.5320  0.2051  0.0652
  250MOL0     C33641   2.374   1.921  10.067  1.1084 -0.0047  0.3169
  250MOL0     C33642   2.491   1.942  10.003 -1.0621  0.5036  0.9057
  250MOL0     C33643   2.528   2.075   9.945  0.2975  0.8015 -0.3112
  250MOL0     C33644   2.654   2.095   9.860 -0.3300 -0.6571 -0.8551
  250MOL0     O33645   2.715   1.979   9.806 -0.2660  0.5094  0.0344
  250MOL0     C33646   2.837   1.995   9.744 -0.0199 -0.0242  0.7566
  250MOL0     C33647   2.840   2.059   9.617  0.3598 -0.7316  0.4442
  250MOL0     C33648   2.961   2.061   9.540 -0.2223  0.6533  1.0466
  250MOL0     C33649   3.076   2.002   9.590  0.5877 -0.1023 -0.3314
  250MOL0     O33650   3.191   1.990   9.516  0.0689 -0.0481  0.2087
  250MOL0     C33651   3.321   1.980   9.568  0.7081  0.1310  0.0631
  250MOL0     C33652   3.415   2.015   9.456 -0.1089  0.8007 -0.2260
  250MOL0     C33653   3.561   2.018   9.498 -0.1486  0.3275  0.0004
  250MOL0     C33654   3.620   1.871   9.508  0.4751 -0.3771 -0.2595
  250MOL0     C33655   3.770   1.883   9.546  1.1521 -0.1512 -0.2015
  250MOL0     C33656   3.858   1.935   9.434  0.2905  0.2597  0.3430
  250MOL0     C33657   3.994   1.963   9.497 -0.0305  0.0445  0.9521
  250MOL0     C33658   4.072   2.041   9.390  0.2159 -0.4399 -0.4298
  250MOL0    Cl33659   4.228   2.100   9.440  0.0725  0.1417 -0.3239
  250MOL0     C33660   3.069   1.946   9.719 -0.4264  0.3890 -0.0516
  250MOL0     C33661   2.949   1.942   9.793  0.0008  0.3891  0.0658
  250MOL0     O33662   2.696   2.208   9.841 -0.3236  0.4879  0.5125
  250MOL0     C33663   2.437   2.181   9.963  0.1913 -0.1642  1.2263
  250MOL0     C33664   2.313   2.145  10.021 -0.7014 -0.7820 -0.0701
  250MOL0     N33665   1.753   2.003  10.580 -0.3549 -0.7308 -0.1685
  250MOL0     N33666   1.711   1.903  10.665 -0.7419 -0.1754  0.6081
  250MOL0     C33667   0.655   1.880  11.019  0.0685  0.5398  0.4160
  250MOL0     C33668   0.519   1.903  11.047 -0.3722 -0.5363 -0.4198
  250MOL0     C33669   0.120   1.982  11.148 -0.0154  0.4722 -0.4451
  250MOL0     C33670   0.046   1.910  11.046 -0.9232  0.6499 -0.0406
  250MOL0     C33671  -0.073   1.957  10.989 -0.3756 -0.0205  0.0865
  250MOL0     C33672  -0.121   2.082  11.031 -0.0726  0.6241 -0.1390
  250MOL0     O33673  -0.242   2.128  10.967  0.3774 -0.5075  0.4561
  250MOL0     C33674  -0.300   2.245  11.022  0.3176 -0.1409 -1.3592
  250MOL0     C33675  -0.427   2.262  10.942 -0.5557 -0.9549  0.2779
  250MOL0     C33676  -0.495   2.388  10.989 -0.0813  1.0664  0.0135
  250MOL0     C33677  -0.650   2.360  10.965  0.3727  0.1122  0.3251
  250MOL0     C33678  -0.738   2.444  11.047  0.1103 -0.7284  0.2627
  250MOL0     C33679  -0.801   2.514  11.120 -0.2360  0.4466 -0.0926
  250MOL0     C33680  -0.057   2.152  11.140  0.1661  0.8717  0.1144
  250MOL0     C33681   0.068   2.104  11.197  0.1002 -0.2077  0.5750
  250MOL0     C33682   0.138   2.198  11.295  0.0783  0.3543  0.2303
  250MOL0     H33683   0.424   1.588  11.143  1.8824 -0.7069  0.6207
  250MOL0     H33684   0.657   1.546  11.101  1.1428 -0.1200  0.1646
  250MOL0     H33685   0.887   1.765  10.867  0.7748 -0.2958 -0.1957
  250MOL0     H33686   0.946   1.874  10.978 -0.4898  0.6020 -1.6773
  250MOL0     H33687   1.040   1.580  10.953  1.3003  0.4209 -3.2974
  250MOL0     H33688   1.091   1.683  11.090 -0.8146 -0.1386  1.2040
  250MOL0     H33689   1.151   1.853  10.891 -3.3350  0.2475 -1.4845
  250MOL0     H33690   1.128   1.720  10.783 -1.7032  3.0841 -0.8843
  250MOL0     H33691   1.321   1.708  11.017 -2.1243 -1.5227 -0.1338
  250MOL0     H33692   1.317   1.590  10.892  2.1846 -0.4435  2.3717
  250MOL0     H33693   1.378   1.899  10.851  1.8080  1.0831 -3.4648
  250MOL0     H33694   1.497   1.772  10.880  0.7507 -1.0848 -0.3926
  250MOL0     H33695   1.291   1.771  10.660 -0.3741 -1.5102  1.9638
  250MOL0     H33696   1.440   1.868  10.633 -0.4031 -0.8363 -0.3019
  250MOL0     H33697   1.442   1.648  10.525  0.7201  1.5420 -0.6978
  250MOL0     H33698   1.433   1.560  10.679  0.6001 -1.5467  0.2758
  250MOL0     H33699   1.664   1.647  10.734  2.0101  0.7106  0.2429
  250MOL0     H33700   1.678   1.592  10.572  0.7557  2.0113 -0.9163
  250MOL0     H33701   1.708   1.771  10.349  1.5195  4.2582 -3.5029
  250MOL0     H33702   1.721   2.032  10.240  2.0607 -0.5170 -0.5752
  250MOL0     H33703   1.729   2.152  10.350  0.0184 -0.5953 -1.2612
  250MOL0     H33704   1.950   2.153  10.273  0.1452  0.8192  1.4949
  250MOL0     H33705   1.975   2.063  10.414 -0.8320  0.4619  0.6979
  250MOL0     H33706   1.938   1.937  10.126  1.5504 -3.1628  0.3805
  250MOL0     H33707   1.930   1.844  10.262  1.3517 -0.4109 -1.3700
  250MOL0     H33708   2.166   1.835  10.221  0.0333  0.1888 -0.5632
  250MOL0     H33709   2.154   1.977  10.328 -0.0088  1.4772 -1.0255
  250MOL0     H33710   2.355   1.827  10.118  1.7535 -1.4814 -2.0240
  250MOL0     H33711   2.552   1.853  10.005 -1.4285 -0.0403 -3.1122
  250MOL0     H33712   2.754   2.105   9.569  0.2138 -2.1428 -0.7303
  250MOL0     H33713   2.964   2.116   9.446  2.1550  2.7374  2.2152
  250MOL0     H33714   3.340   2.056   9.644 -0.4219 -0.1696  0.6615
  250MOL0     H33715   3.338   1.881   9.611  2.6013  0.3939  0.0084
  250MOL0     H33716   3.401   1.933   9.385 -2.1739 -0.2612  1.2942
  250MOL0     H33717   3.394   2.114   9.414 -1.5016  0.6453  0.0611
  250MOL0     H33718   3.614   2.072   9.419 -0.9856  3.4576  1.3939
  250MOL0     H33719   3.576   2.082   9.586 -0.8855  1.3042 -0.5561
  250MOL0     H33720   3.595   1.822   9.414 -4.5653  0.4329  0.3346
  250MOL0     H33721   3.569   1.797   9.571 -1.4358  1.4603  0.4931
  250MOL0     H33722   3.824   1.793   9.575 -1.6197 -1.2819  1.9616
  250MOL0     H33723   3.770   1.944   9.637 -1.8636  2.2650 -1.6304
  250MOL0     H33724   3.860   1.861   9.353 -1.5432  0.0609  0.4405
  250MOL0     H33725   3.819   2.025   9.387  0.7206  0.6761  0.7722
  250MOL0     H33726   4.043   1.869   9.525  3.0770  1.4923  0.7640
  250MOL0     H33727   3.973   2.024   9.586 -2.5112  1.7564 -0.6744
  250MOL0     H33728   4.080   1.986   9.295  4.2993  0.3880 -0.7441
  250MOL0     H33729   4.006   2.124   9.363 -1.2883 -2.0462 -2.0159
  250MOL0     H33730   3.154   1.891   9.759  1.2217  2.2843 -0.7349
  250MOL0     H33731   2.952   1.878   9.880  2.3508  0.7011  0.2751
  250MOL0     H33732   2.464   2.281   9.930  0.9655 -0.3033  1.4108
  250MOL0     H33733   2.238   2.221  10.041  2.8600  3.1195 -0.1447
  250MOL0     H33734   0.708   1.961  10.971 -0.7209 -1.1653 -3.6940
  250MOL0     H33735   0.477   2.000  11.021  2.5163  0.3321 -2.2940
  250MOL0     H33736   0.086   1.813  11.019 -2.6063 -0.4607  1.2368
  250MOL0     H33737  -0.123   1.896  10.914  1.8194 -2.7368  0.6670
  250MOL0     H33738  -0.244   2.339  11.017 -2.9301  2.0549 -0.2362
  250MOL0     H33739  -0.315   2.229  11.130 -0.6092 -0.3783 -1.5135
  250MOL0     H33740  -0.486   2.171  10.948  1.6567 -2.3736  2.2122
  250MOL0     H33741  -0.404   2.278  10.836  1.1032  1.6530  0.9196
  250MOL0     H33742  -0.464   2.476  10.932 -1.1558  0.9357 -0.7977
  250MOL0     H33743  -0.470   2.412  11.093  1.4842  3.4397 -0.8457
  250MOL0     H33744  -0.659   2.368  10.856  0.7711 -1.9806  0.1026
  250MOL0     H33745  -0.679   2.256  10.981 -1.4665 -0.1240 -3.5266
  250MOL0     H33746  -0.856   2.579  11.185  1.6398  1.3520  0.6646
  250MOL0     H33747  -0.093   2.253  11.153 -0.0468  1.0091 -1.3934
  250MOL0     H33748   0.236   2.234  11.262 -0.3538  1.7529  0.4269
  250MOL0     H33749   0.075   2.287  11.304 -0.2436  0.6135 -3.3287
  250MOL0     H33750   0.151   2.156  11.396  0.1538  0.2794  0.1884
  251MOL0     O33751   6.882   5.180  11.009  0.2063  0.1485  0.5472
  251MOL0     C33752   6.791   5.246  10.948  0.0802 -0.9145  0.3100
  251MOL0     O33753   6.816   5.340  10.851  0.3331  0.4051 -0.6220
  251MOL0     C33754   6.940   5.336  10.786  0.6191  0.7993  0.9021
  251MOL0     C33755   7.029   5.223  10.777  0.1661  0.4549  0.0796
  251MOL0     C33756   7.149   5.242  10.702 -0.0716  0.9562  0.0153
  251MOL0     C33757   7.198   5.369  10.650 -0.0558 -0.6024 -0.7385
  251MOL0     O33758   7.327   5.391  10.604 -0.7417  0.4890  0.8781
  251MOL0     C33759   7.399   5.269  10.568  0.6738 -0.7358 -0.2132
  251MOL0     C33760   7.527   5.324  10.509  1.0206 -0.4226  0.0223
  251MOL0     C33761   7.531   5.394  10.371  0.5037 -0.8250 -0.5398
  251MOL0     C33762   7.547   5.296  10.256  0.1301  0.3501  0.5325
  251MOL0     C33763   7.521   5.351  10.118  0.0698  0.2086 -0.4671
  251MOL0     C33764   7.633   5.454  10.083  0.1794  0.3898 -0.4877
  251MOL0     C33765   7.634   5.503   9.940 -0.4536 -0.1477  0.0526
  251MOL0     C33766   7.494   5.548   9.887  0.2081 -1.1756  0.0461
  251MOL0     N33767   7.466   5.693   9.886  0.2198  0.3910 -0.1230
  251MOL0     C33768   7.555   5.790   9.855  0.0746 -0.7407  0.3261
  251MOL0     C33769   7.503   5.912   9.894  0.3083  0.0450  0.1357
  251MOL0     C33770   7.591   6.032   9.862  0.5506  0.0254  0.3464
  251MOL0     C33771   7.650   6.028   9.721 -0.3028  0.7208 -0.6880
  251MOL0     C33772   7.719   6.169   9.701 -0.2681 -0.0246 -0.2859
  251MOL0     C33773   7.862   6.170   9.761 -0.0064 -0.4130  0.3518
  251MOL0     O33774   7.946   6.102   9.670 -0.3899  0.4111 -0.1012
  251MOL0     C33775   8.073   6.065   9.717  0.0109  0.6448 -0.0555
  251MOL0     C33776   8.123   6.067   9.844  2.1322 -0.3930 -0.5911
  251MOL0     C33777   8.243   6.008   9.868  1.4513  0.8068 -0.5900
  251MOL0     C33778   8.309   5.930   9.772  0.2889 -0.8380  0.4938
  251MOL0     C33779   8.436   5.871   9.802  0.3791  0.1363  0.3685
  251MOL0     O33780   8.517   5.844   9.696 -0.1554  0.0415 -0.0206
  251MOL0     C33781   8.624   5.774   9.737  0.6121  1.2964  0.5322
  251MOL0     C33782   8.606   5.638   9.773  0.6805 -0.3299  0.3559
  251MOL0     C33783   8.705   5.561   9.811 -0.6760  0.7663  0.1976
  251MOL0     C33784   8.840   5.609   9.814  0.4433  0.0137 -0.6140
  251MOL0     O33785   8.950   5.531   9.823 -0.1587 -0.0986 -0.5249
  251MOL0     C33786   8.936   5.387   9.830  0.5910 -0.0060 -0.1224
  251MOL0     C33787   9.068   5.332   9.831 -0.8833 -0.6201  0.1774
  251MOL0     C33788   9.078   5.174   9.834  0.9490  0.3922 -0.4003
  251MOL0     C33789   9.223   5.140   9.779 -0.1623  0.4741 -0.4323
  251MOL0     C33790   9.246   4.994   9.745  1.4786  0.0388 -0.4935
  251MOL0     C33791   9.381   4.975   9.669 -0.3093  0.1952  0.3098
  251MOL0     C33792   9.379   4.838   9.618  1.1252  0.8139  0.8876
  251MOL0     C33793   9.508   4.777   9.589 -0.4826 -0.0302  0.3023
  251MOL0    Cl33794   9.482   4.596   9.590 -0.0566  0.4933 -0.7143
  251MOL0     C33795   8.862   5.741   9.777  0.6168  0.1969 -0.5456
  251MOL0     C33796   8.758   5.825   9.736 -0.8016  0.4400  0.4826
  251MOL0     O33797   8.459   5.859   9.923 -0.0582 -0.2670 -0.0713
  251MOL0     C33798   8.261   5.937   9.650 -0.5461 -0.3592  0.2122
  251MOL0     C33799   8.138   5.994   9.614 -0.4717  0.2315 -0.8968
  251MOL0     N33800   7.385   5.892   9.961 -0.0909  0.7595  0.2119
  251MOL0     N33801   7.375   5.758   9.962 -1.0797  0.3541 -0.6649
  251MOL0     C33802   7.111   5.475  10.650  0.3478  0.5957 -0.5728
  251MOL0     C33803   6.985   5.451  10.719  0.1260 -1.0601 -0.2744
  251MOL0     C33804   6.643   5.230  10.978  0.1003 -0.4854  0.0980
  251MOL0     C33805   6.546   5.320  10.932  0.3644 -0.3266 -0.2201
  251MOL0     C33806   6.410   5.309  10.958  0.0040  0.0577  0.8994
  251MOL0     C33807   6.364   5.203  11.031 -0.4624 -0.1987 -0.6010
  251MOL0     O33808   6.236   5.203  11.082  0.2749 -0.2472  0.1378
  251MOL0     C33809   6.150   5.108  11.016  1.0548 -0.1115 -0.0644
  251MOL0     C33810   6.136   5.125  10.869  0.5364  0.4014 -0.8470
  251MOL0     C33811   6.076   5.015  10.785 -0.7457 -0.6449 -0.1309
  251MOL0     C33812   5.924   4.981  10.807  0.3345 -0.0905  0.3685
  251MOL0     C33813   5.891   4.860  10.739 -0.5519  0.5719 -0.4790
  251MOL0     C33814   5.866   4.741  10.704 -0.2789 -0.3020 -0.6907
  251MOL0     C33815   6.461   5.116  11.088 -0.6187  0.1178  0.0056
  251MOL0     C33816   6.595   5.116  11.058  1.0321 -0.7556 -0.0444
  251MOL0     C33817   6.671   5.017  11.131  0.3849 -0.0406 -0.4096
  251MOL0     H33818   7.010   5.125  10.819  1.3184  1.1573  2.4150
  251MOL0     H33819   7.217   5.157  10.695 -0.8506  0.4574 -3.1958
  251MOL0     H33820   7.420   5.203  10.652  0.1988  0.9869  1.3225
  251MOL0     H33821   7.350   5.208  10.491  2.0840 -2.8230  0.4463
  251MOL0     H33822   7.586   5.232  10.499  1.1428 -0.1667 -2.3559
  251MOL0     H33823   7.580   5.387  10.580  1.8522 -0.6008 -0.4187
  251MOL0     H33824   7.619   5.459  10.376  0.3595 -0.7526  2.7365
  251MOL0     H33825   7.440   5.450  10.348 -0.9016 -2.1451  1.4560
  251MOL0     H33826   7.641   5.238  10.254  0.4051  0.6459  2.4109
  251MOL0     H33827   7.478   5.213  10.275  1.1582 -0.3155  1.5239
  251MOL0     H33828   7.515   5.267  10.049 -2.9694 -0.0882  0.0137
  251MOL0     H33829   7.424   5.402  10.115 -0.4422 -0.7719 -0.9634
  251MOL0     H33830   7.606   5.537  10.149  2.5829  1.5496 -0.8547
  251MOL0     H33831   7.732   5.416  10.109 -0.2541 -0.2060  0.3109
  251MOL0     H33832   7.662   5.416   9.879  1.1132  1.6199 -1.8938
  251MOL0     H33833   7.714   5.576   9.932  0.1204 -0.2847  3.0993
  251MOL0     H33834   7.488   5.522   9.781 -1.4262 -0.0720 -0.1724
  251MOL0     H33835   7.414   5.498   9.942  1.4921 -2.3746  0.9046
  251MOL0     H33836   7.645   5.769   9.799  0.3288 -2.6545  1.3563
  251MOL0     H33837   7.523   6.116   9.877  3.1118  2.2929 -0.0465
  251MOL0     H33838   7.659   6.059   9.944  2.1567  0.4305 -1.0554
  251MOL0     H33839   7.729   5.952   9.720 -1.2023 -0.2483 -2.1935
  251MOL0     H33840   7.572   6.005   9.648  1.0156 -2.1157 -1.3666
  251MOL0     H33841   7.654   6.237   9.756 -1.4605  0.6070 -2.3980
  251MOL0     H33842   7.710   6.195   9.596 -1.2613 -1.9987 -0.7490
  251MOL0     H33843   7.843   6.118   9.855 -3.8463 -0.8760 -0.5179
  251MOL0     H33844   7.900   6.269   9.791  1.1959 -0.6349 -0.3558
  251MOL0     H33845   8.074   6.124   9.922 -1.2601  1.4239 -3.7171
  251MOL0     H33846   8.277   6.019   9.970 -0.4302 -0.1725  0.1694
  251MOL0     H33847   8.503   5.604   9.777 -0.1202  1.9840  0.9221
  251MOL0     H33848   8.684   5.465   9.857  0.5018  0.8391  0.9330
  251MOL0     H33849   8.889   5.352   9.922  1.9816  1.4438  1.1873
  251MOL0     H33850   8.877   5.356   9.743 -0.9347 -1.3224  1.3144
  251MOL0     H33851   9.110   5.376   9.740 -4.2166  0.3342 -1.0531
  251MOL0     H33852   9.119   5.373   9.917  2.1018 -0.6324 -1.4653
  251MOL0     H33853   9.071   5.136   9.936  0.9583 -1.4510 -1.0534
  251MOL0     H33854   9.007   5.133   9.762  0.1451 -3.9437  2.4527
  251MOL0     H33855   9.313   5.164   9.836 -0.1401 -1.0324  0.2150
  251MOL0     H33856   9.237   5.184   9.680  2.1996 -2.5478 -1.5821
  251MOL0     H33857   9.158   4.964   9.689  2.7391 -0.4767 -2.2777
  251MOL0     H33858   9.251   4.931   9.835 -1.3530  0.9829  0.4186
  251MOL0     H33859   9.404   5.031   9.578  2.1726 -0.3506  0.5414
  251MOL0     H33860   9.468   4.979   9.735 -1.5180 -0.4960  2.0105
  251MOL0     H33861   9.323   4.810   9.528  3.4166  0.2671 -0.4527
  251MOL0     H33862   9.342   4.766   9.691 -0.2618  0.6094  0.0312
  251MOL0     H33863   9.556   4.805   9.495 -1.3929 -0.0046 -0.1671
  251MOL0     H33864   9.569   4.816   9.671 -1.5372  1.2859  0.4881
  251MOL0     H33865   8.960   5.783   9.756  1.4715 -2.0455 -1.2482
  251MOL0     H33866   8.773   5.926   9.700  0.3157 -0.2906 -1.2519
  251MOL0     H33867   8.322   5.903   9.567 -1.2847  1.4191 -1.1207
  251MOL0     H33868   8.092   6.010   9.517  2.1758  3.1089 -1.8788
  251MOL0     H33869   7.114   5.564  10.589 -1.3581  0.8673 -0.3389
  251MOL0     H33870   6.917   5.535  10.714  1.1724 -0.0322  1.6033
  251MOL0     H33871   6.580   5.402  10.870 -0.7939 -0.0948 -0.5783
  251MOL0     H33872   6.347   5.378  10.904 -1.2691 -1.6309  0.1081
  251MOL0     H33873   6.049   5.106  11.057  1.2364 -0.7548  0.3691
  251MOL0     H33874   6.187   5.008  11.039  0.0593 -0.5675 -0.4186
  251MOL0     H33875   6.239   5.131  10.832  1.5556  0.9933  1.8142
  251MOL0     H33876   6.081   5.219  10.857 -0.5995  0.1203  1.5710
  251MOL0     H33877   6.137   4.925  10.776  2.1470  1.1614  0.0425
  251MOL0     H33878   6.080   5.063  10.687 -1.6237 -2.1241 -0.9108
  251MOL0     H33879   5.891   4.967  10.911 -1.4931 -2.8843 -0.4647
  251MOL0     H33880   5.853   5.058  10.776 -2.6536 -2.2941  1.2548
  251MOL0     H33881   5.842   4.643  10.667  0.3063  0.7854 -4.3458
  251MOL0     H33882   6.418   5.039  11.152 -1.7802 -0.4958 -1.4507
  251MOL0     H33883   6.710   5.065  11.221  3.1891 -1.1862 -0.8825
  251MOL0     H33884   6.615   4.931  11.166 -2.6020  1.2864 -1.6287
  251MOL0     H33885   6.743   4.973  11.061  0.7235 -1.1467  0.5959
  252MOL0     O33886   3.424   1.744   6.525 -0.7940 -0.4492  0.2761
  252MOL0     C33887   3.464   1.857   6.525 -0.0184 -0.0926 -0.2206
  252MOL0     O33888   3.591   1.908   6.566  0.0786 -0.2415 -0.7706
  252MOL0     C33889   3.674   1.819   6.627  0.1488 -0.0808 -0.3654
  252MOL0     C33890   3.630   1.738   6.737  0.1463  0.2477 -0.2500
  252MOL0     C33891   3.715   1.650   6.805 -0.2898  0.1256  0.5012
  252MOL0     C33892   3.852   1.651   6.767 -0.7906 -0.2796 -0.2427
  252MOL0     O33893   3.952   1.578   6.831  0.2158 -0.1044 -0.8830
  252MOL0     C33894   3.932   1.562   6.975  0.2699 -0.7991 -0.0885
  252MOL0     C33895   4.061   1.501   7.027  0.0315  0.1164  0.1758
  252MOL0     C33896   4.183   1.592   7.044  0.6357 -0.7336  0.5148
  252MOL0     C33897   4.149   1.705   7.135 -0.5733  0.2202 -0.5937
  252MOL0     C33898   4.287   1.755   7.190  0.5461 -0.2418  0.0671
  252MOL0     C33899   4.283   1.894   7.256 -0.5410  0.5048 -0.3868
  252MOL0     C33900   4.169   1.923   7.361  0.5788  0.3461  0.2972
  252MOL0     C33901   4.186   1.862   7.506  0.5449 -0.0807  0.3367
  252MOL0     N33902   4.321   1.859   7.569  0.2090 -0.8404 -0.0778
  252MOL0     C33903   4.368   1.979   7.622 -0.3379  0.6300 -0.3382
  252MOL0     C33904   4.493   1.940   7.665 -0.0147 -0.2683 -0.4906
  252MOL0     C33905   4.563   2.008   7.777 -0.4001  0.2112  0.3271
  252MOL0     C33906   4.717   1.999   7.757 -0.0761 -0.2156 -0.1494
  252MOL0     C33907   4.791   2.057   7.881 -0.0364  0.0446 -0.3346
  252MOL0     C33908   4.939   2.048   7.887 -0.6489  0.2577 -0.2715
  252MOL0     O33909   4.996   1.921   7.918  0.3310  0.3557 -0.5943
  252MOL0     C33910   5.128   1.938   7.956 -1.2389  0.0114  0.4024
  252MOL0     C33911   5.221   1.995   7.876 -0.4333  0.8919  0.4828
  252MOL0     C33912   5.355   2.006   7.915 -0.6029 -0.4204  0.0018
  252MOL0     C33913   5.408   1.952   8.032  0.2784 -0.2926 -0.1461
  252MOL0     C33914   5.540   1.974   8.089 -0.4103 -0.3726  0.3640
  252MOL0     O33915   5.617   2.069   8.022 -0.4874  0.1437  0.4062
  252MOL0     C33916   5.749   2.079   8.072  0.7434 -0.1062 -0.0816
  252MOL0     C33917   5.783   2.108   8.204 -0.5397 -1.0813  0.1103
  252MOL0     C33918   5.918   2.106   8.251 -0.2982 -0.7814 -0.2044
  252MOL0     C33919   6.017   2.088   8.161  0.2602  0.4408 -0.2039
  252MOL0     O33920   6.153   2.101   8.195  0.1422 -0.0170  0.0315
  252MOL0     C33921   6.204   2.170   8.315 -0.4622  0.5911 -0.0122
  252MOL0     C33922   6.151   2.314   8.306 -0.6981  0.5878 -0.4785
  252MOL0     C33923   6.238   2.411   8.380  0.1696 -0.6560 -0.4461
  252MOL0     C33924   6.174   2.551   8.402  0.6070  1.1351 -1.0267
  252MOL0     C33925   6.093   2.602   8.280 -0.3869 -0.1598 -0.6736
  252MOL0     C33926   6.017   2.734   8.296  0.5612  0.4504  0.7765
  252MOL0     C33927   5.884   2.718   8.382  0.8108  0.1748  0.2010
  252MOL0     C33928   5.819   2.851   8.382 -0.0604  0.1103  0.0423
  252MOL0    Cl33929   5.689   2.841   8.503 -0.2125  0.3106  0.2956
  252MOL0     C33930   5.988   2.050   8.030 -0.6044  0.4271 -0.3481
  252MOL0     C33931   5.855   2.056   7.984 -0.0297  0.5683 -0.0329
  252MOL0     O33932   5.569   1.913   8.198  0.2182 -0.0447 -0.0232
  252MOL0     C33933   5.308   1.893   8.121  0.3094  0.6628  0.6931
  252MOL0     C33934   5.174   1.890   8.078 -0.1596  0.1775  0.2225
  252MOL0     N33935   4.516   1.804   7.619  0.1190 -0.3978  0.3248
  252MOL0     N33936   4.419   1.766   7.540 -0.5164  0.0573  0.2887
  252MOL0     C33937   3.893   1.735   6.665 -0.2163  0.7147  1.4235
  252MOL0     C33938   3.803   1.817   6.591  0.1237  0.4199  0.4422
  252MOL0     C33939   3.365   1.959   6.471 -0.2855 -0.2534  0.2439
  252MOL0     C33940   3.404   2.090   6.481  0.6519 -0.1654 -0.9592
  252MOL0     C33941   3.308   2.194   6.452 -0.6754  0.0074  0.3305
  252MOL0     C33942   3.183   2.164   6.391 -1.2089 -0.0310  0.9806
  252MOL0     O33943   3.098   2.263   6.363 -0.2856 -0.7933 -0.5412
  252MOL0     C33944   2.961   2.225   6.404 -0.1974 -0.4926  0.1768
  252MOL0     C33945   2.894   2.355   6.438 -0.8861  0.0163 -0.1636
  252MOL0     C33946   2.884   2.461   6.320  0.2792 -0.2308 -0.6576
  252MOL0     C33947   2.782   2.407   6.216 -0.2776 -0.6507  0.5622
  252MOL0     C33948   2.705   2.520   6.163 -0.2451  0.1790 -0.4525
  252MOL0     C33949   2.645   2.611   6.112 -0.1031  0.1532 -0.4091
  252MOL0     C33950   3.151   2.028   6.376 -0.5020 -0.5232 -0.6121
  252MOL0     C33951   3.243   1.927   6.410  0.1697 -0.5351 -0.0537
  252MOL0     C33952   3.187   1.793   6.379 -0.4361 -0.6908  0.0642
  252MOL0     H33953   3.529   1.747   6.774 -1.6924  0.1089 -4.6805
  252MOL0     H33954   3.673   1.591   6.886 -4.7894  0.3320 -1.3957
  252MOL0     H33955   3.922   1.664   7.012  2.8377 -0.6473  0.4104
  252MOL0     H33956   3.844   1.500   6.997  1.1025 -1.5839  1.1807
  252MOL0     H33957   4.097   1.421   6.961  1.0569  2.0276 -1.6861
  252MOL0     H33958   4.029   1.462   7.124 -0.9649 -1.5538 -0.7635
  252MOL0     H33959   4.221   1.633   6.951 -2.7557 -0.4469 -0.8975
  252MOL0     H33960   4.269   1.547   7.094  1.0245  1.5971  2.1147
  252MOL0     H33961   4.091   1.776   7.075 -0.3348  3.1064  2.2856
  252MOL0     H33962   4.086   1.674   7.218  0.2635  0.0785  0.0051
  252MOL0     H33963   4.331   1.686   7.263 -0.2817  1.6949  2.5548
  252MOL0     H33964   4.358   1.757   7.106 -1.7954  2.4381 -2.0574
  252MOL0     H33965   4.381   1.921   7.295  0.0061 -1.0863 -0.6094
  252MOL0     H33966   4.261   1.969   7.178 -3.0895  0.7276  0.4568
  252MOL0     H33967   4.079   1.867   7.334  0.6778 -0.3801  1.3930
  252MOL0     H33968   4.149   2.031   7.364  0.8710  0.4822 -1.5113
  252MOL0     H33969   4.115   1.911   7.574 -1.2855  2.9302 -3.3655
  252MOL0     H33970   4.157   1.757   7.495 -0.2688  0.2662 -1.0806
  252MOL0     H33971   4.313   2.069   7.644 -0.4348  0.9712 -1.8256
  252MOL0     H33972   4.544   2.116   7.778  0.7679  0.4489  1.7176
  252MOL0     H33973   4.535   1.952   7.867  3.3122 -2.0014  0.3070
  252MOL0     H33974   4.750   1.895   7.747 -1.7859 -0.9062  1.0157
  252MOL0     H33975   4.744   2.058   7.669 -1.4788  0.9459  0.1628
  252MOL0     H33976   4.757   2.020   7.978  2.7635 -0.1191  0.6635
  252MOL0     H33977   4.768   2.164   7.886  1.1344  0.3138 -0.3519
  252MOL0     H33978   4.974   2.125   7.956 -1.1138  1.9572 -1.8594
  252MOL0     H33979   4.975   2.062   7.785  1.0354 -2.0749 -0.0890
  252MOL0     H33980   5.195   2.012   7.772  0.4123 -2.4592 -0.3868
  252MOL0     H33981   5.420   2.058   7.845  0.2639 -0.8409  0.4752
  252MOL0     H33982   5.705   2.121   8.278  0.2468 -1.8466  1.0917
  252MOL0     H33983   5.941   2.117   8.357 -1.3268 -0.9544  0.0486
  252MOL0     H33984   6.175   2.101   8.394  2.4044 -0.0796  0.5438
  252MOL0     H33985   6.313   2.174   8.309 -0.4674  0.8277  0.0262
  252MOL0     H33986   6.133   2.342   8.201  0.3217  1.2360 -0.4950
  252MOL0     H33987   6.050   2.322   8.347 -0.9322  4.6907 -1.4382
  252MOL0     H33988   6.263   2.377   8.481  1.6989 -0.7785 -0.8476
  252MOL0     H33989   6.328   2.430   8.321 -0.8881  3.0656 -1.1099
  252MOL0     H33990   6.255   2.620   8.431  2.8949 -2.3288  1.7447
  252MOL0     H33991   6.108   2.554   8.489  2.9526  1.0797  0.8834
  252MOL0     H33992   6.029   2.528   8.231  2.8574 -3.8163  0.0552
  252MOL0     H33993   6.169   2.630   8.206  0.4541  1.3654  0.7091
  252MOL0     H33994   6.081   2.810   8.341  0.5454 -0.7961  3.0188
  252MOL0     H33995   5.983   2.760   8.195  2.6173  0.2078 -0.0281
  252MOL0     H33996   5.915   2.683   8.481  2.2869  0.1328 -0.2410
  252MOL0     H33997   5.823   2.637   8.340 -0.7271  1.0766  0.6519
  252MOL0     H33998   5.886   2.936   8.400 -0.4943  1.1609 -2.7809
  252MOL0     H33999   5.772   2.858   8.284  3.2870 -0.5268 -1.7649
  252MOL0     H34000   6.065   2.016   7.960 -0.7224 -1.7047  0.4870
  252MOL0     H34001   5.845   2.033   7.878 -0.9197  0.7477  0.0076
  252MOL0     H34002   5.335   1.841   8.212 -2.3940 -4.6549 -1.1719
  252MOL0     H34003   5.100   1.838   8.138 -0.9674  1.0867  0.0357
  252MOL0     H34004   3.996   1.740   6.631 -0.5276  1.0066  0.4824
  252MOL0     H34005   3.833   1.887   6.514 -1.3123  1.4030  0.7247
  252MOL0     H34006   3.497   2.121   6.529 -0.2327 -1.0519  1.4661
  252MOL0     H34007   3.344   2.296   6.465 -0.5139 -0.0732  0.5212
  252MOL0     H34008   2.955   2.156   6.488  0.2356 -2.9248 -1.6530
  252MOL0     H34009   2.915   2.177   6.317  3.7876 -0.0741 -2.4306
  252MOL0     H34010   2.953   2.396   6.521 -1.4651  0.9538 -0.2136
  252MOL0     H34011   2.797   2.331   6.483 -0.8908  0.5344  0.1074
  252MOL0     H34012   2.975   2.479   6.262  0.1842 -0.0257 -0.7418
  252MOL0     H34013   2.838   2.554   6.352 -0.6376 -0.4334 -1.3362
  252MOL0     H34014   2.828   2.363   6.126  0.5856  1.1460  0.0744
  252MOL0     H34015   2.715   2.340   6.270  0.6599 -2.3031 -0.2236
  252MOL0     H34016   2.586   2.691   6.073 -0.5660  0.0679  0.1172
  252MOL0     H34017   3.048   2.008   6.346  0.1669 -2.0632 -2.0658
  252MOL0     H34018   3.093   1.812   6.327 -0.3211  0.5902  0.2709
  252MOL0     H34019   3.256   1.740   6.313  0.9299  0.9416  0.1056
  252MOL0     H34020   3.164   1.733   6.467 -2.2643 -0.4144 -0.1984
  253MOL0     O34021   4.719   4.207   5.533 -0.0570  0.1108  0.6852
  253MOL0     C34022   4.608   4.189   5.587 -0.1284  0.5435  0.5542
  253MOL0     O34023   4.505   4.111   5.534 -1.3800 -0.4498 -0.3760
  253MOL0     C34024   4.537   3.995   5.462  0.8441 -1.3643 -1.0021
  253MOL0     C34025   4.421   3.933   5.417  0.2520  0.5092 -0.3201
  253MOL0     C34026   4.421   3.799   5.363  0.9382  0.2004 -0.2254
  253MOL0     C34027   4.541   3.728   5.349 -0.7324  0.5818  0.1107
  253MOL0     O34028   4.536   3.601   5.303  0.0296  0.3390  0.3589
  253MOL0     C34029   4.662   3.540   5.262 -0.2766  0.3962 -0.4701
  253MOL0     C34030   4.628   3.397   5.208  1.0142  0.4100 -0.6120
  253MOL0     C34031   4.605   3.291   5.313 -0.3352 -0.1929  0.2117
  253MOL0     C34032   4.737   3.270   5.392 -0.6610  0.4129  0.0502
  253MOL0     C34033   4.814   3.151   5.341 -0.2757  0.0919  0.0307
  253MOL0     C34034   4.914   3.114   5.449  0.3180  0.1349  0.2261
  253MOL0     C34035   5.018   3.218   5.472  0.2761  0.1635 -0.2323
  253MOL0     C34036   5.115   3.219   5.356 -0.5036 -0.8910 -0.8766
  253MOL0     N34037   5.240   3.280   5.404 -0.1484  0.3920  0.3376
  253MOL0     C34038   5.264   3.413   5.409  0.0078 -0.5368 -0.0305
  253MOL0     C34039   5.385   3.434   5.471 -0.0709  1.3640 -0.3668
  253MOL0     C34040   5.447   3.561   5.486  0.7081  0.2648  0.5123
  253MOL0     C34041   5.599   3.556   5.522 -0.2232  0.1125 -0.3917
  253MOL0     C34042   5.665   3.695   5.548  0.3731  1.1196  0.5404
  253MOL0     C34043   5.811   3.693   5.544 -0.3289 -0.4455  0.2866
  253MOL0     O34044   5.852   3.831   5.550  0.4897  0.4360 -0.1355
  253MOL0     C34045   5.985   3.861   5.549  0.8423 -0.4532 -0.1016
  253MOL0     C34046   6.018   3.998   5.581 -0.1928 -0.2171  0.1105
  253MOL0     C34047   6.152   4.042   5.588  0.1025  0.4021 -0.9662
  253MOL0     C34048   6.249   3.946   5.562 -0.3300  0.0250 -0.0496
  253MOL0     C34049   6.388   3.988   5.561  0.6859  0.2750  0.2525
  253MOL0     O34050   6.473   3.902   5.521 -0.5944 -0.1815 -0.3584
  253MOL0     C34051   6.604   3.942   5.499 -0.3711 -0.8118  0.4501
  253MOL0     C34052   6.696   3.871   5.574 -1.6224 -0.3609 -1.3624
  253MOL0     C34053   6.834   3.887   5.562 -0.0900  0.7749  0.5046
  253MOL0     C34054   6.883   3.975   5.455  0.1397 -0.1833 -0.1762
  253MOL0     O34055   7.019   3.990   5.454 -0.1011 -0.2059  0.3251
  253MOL0     C34056   7.089   4.110   5.401 -0.0659  0.6317  0.3672
  253MOL0     C34057   7.044   4.235   5.486  0.1687 -0.4331 -0.1823
  253MOL0     C34058   7.153   4.347   5.485  0.4588  0.5220  0.2545
  253MOL0     C34059   7.136   4.451   5.587  0.5693  0.3007 -0.4152
  253MOL0     C34060   7.252   4.553   5.587  0.4332  0.7271 -0.3829
  253MOL0     C34061   7.230   4.665   5.701 -0.4677  0.3477  0.2899
  253MOL0     C34062   7.348   4.759   5.691 -0.4030  0.2104  0.9698
  253MOL0     C34063   7.326   4.884   5.753  0.0737  0.5144 -0.0895
  253MOL0    Cl34064   7.294   4.865   5.926  0.2856  0.3953  0.2458
  253MOL0     C34065   6.787   4.041   5.369 -0.7311 -0.1777 -0.1299
  253MOL0     C34066   6.645   4.018   5.386  0.4576  0.8481 -0.1954
  253MOL0     O34067   6.414   4.105   5.588 -0.0608  0.1528  0.1137
  253MOL0     C34068   6.217   3.812   5.541 -0.3585 -0.2863 -0.2434
  253MOL0     C34069   6.086   3.775   5.520 -0.4470  0.8103  0.4660
  253MOL0     N34070   5.439   3.310   5.504  0.7820 -0.3030 -0.5004
  253MOL0     N34071   5.348   3.222   5.467 -0.0392 -0.7099  0.2171
  253MOL0     C34072   4.655   3.797   5.397 -0.0404 -0.4861 -0.3170
  253MOL0     C34073   4.656   3.924   5.458 -0.2956 -0.4990  0.3920
  253MOL0     C34074   4.565   4.285   5.694  0.1172 -0.5410 -0.8158
  253MOL0     C34075   4.662   4.372   5.738 -0.2226 -0.1660  0.5523
  253MOL0     C34076   4.631   4.469   5.835  0.0595 -0.5980  0.3365
  253MOL0     C34077   4.504   4.486   5.881  0.9386 -0.2752  0.1810
  253MOL0     O34078   4.478   4.580   5.979 -0.4388 -0.4724 -0.1744
  253MOL0     C34079   4.341   4.612   6.008 -0.1576 -0.1538  0.3319
  253MOL0     C34080   4.274   4.703   5.905 -0.3046 -0.6695  0.0980
  253MOL0     C34081   4.363   4.822   5.875 -0.0350 -0.4738  0.5340
  253MOL0     C34082   4.336   4.906   5.750  0.9143  0.9554  0.6431
  253MOL0     C34083   4.333   4.840   5.618 -0.3584  0.2716 -0.9384
  253MOL0     C34084   4.357   4.798   5.507 -1.2103  0.7848 -0.5213
  253MOL0     C34085   4.402   4.398   5.826  0.3396 -0.6077  0.2482
  253MOL0     C34086   4.426   4.298   5.741  0.1267 -0.8991  0.1477
  253MOL0     C34087   4.311   4.202   5.711 -0.1156  0.1672  0.0496
  253MOL0     H34088   4.325   3.984   5.426  0.8688  1.2832  4.1229
  253MOL0     H34089   4.326   3.755   5.333  0.0338  1.8401  0.1267
  253MOL0     H34090   4.708   3.594   5.179 -2.7626  1.4841 -1.2402
  253MOL0     H34091   4.729   3.533   5.348  0.5757 -0.5743 -1.1930
  253MOL0     H34092   4.707   3.355   5.145 -1.6184 -1.6592 -2.7560
  253MOL0     H34093   4.534   3.403   5.153  0.8038 -2.1320 -0.6184
  253MOL0     H34094   4.557   3.197   5.285 -1.6152  0.7556 -0.8998
  253MOL0     H34095   4.541   3.337   5.389  1.5462  0.5555  1.4064
  253MOL0     H34096   4.804   3.355   5.383 -1.1541  0.7189 -0.8854
  253MOL0     H34097   4.721   3.262   5.500  2.1354  1.5255  0.6312
  253MOL0     H34098   4.741   3.072   5.324 -1.2143  1.1955 -1.3034
  253MOL0     H34099   4.863   3.166   5.245  0.0434 -2.0142 -0.1901
  253MOL0     H34100   4.863   3.097   5.544 -1.2555  1.4625 -0.3410
  253MOL0     H34101   4.968   3.021   5.430 -0.7871  0.0089 -2.9788
  253MOL0     H34102   5.074   3.180   5.558  1.4020 -1.2159 -1.5201
  253MOL0     H34103   4.977   3.315   5.502 -0.3107  0.3209 -1.4960
  253MOL0     H34104   5.136   3.119   5.317 -0.3250 -1.9484  1.7483
  253MOL0     H34105   5.070   3.284   5.280 -0.7901 -1.1283 -0.9103
  253MOL0     H34106   5.218   3.497   5.357  0.5091  1.0857  2.0323
  253MOL0     H34107   5.439   3.625   5.397  2.5159  4.9362  3.3308
  253MOL0     H34108   5.399   3.618   5.566  1.2323  0.2753  0.8247
  253MOL0     H34109   5.601   3.499   5.615 -1.5327 -2.7702 -1.9834
  253MOL0     H34110   5.659   3.488   5.460  0.6149 -1.5340  2.0521
  253MOL0     H34111   5.632   3.733   5.645  1.3961 -1.9612  2.2591
  253MOL0     H34112   5.622   3.761   5.472 -0.2298 -0.4029 -0.4829
  253MOL0     H34113   5.839   3.657   5.445 -0.3142 -1.8729  0.7890
  253MOL0     H34114   5.852   3.632   5.625  0.6116  0.6220  0.6351
  253MOL0     H34115   5.933   4.060   5.609  2.1411  2.7321  1.2116
  253MOL0     H34116   6.173   4.142   5.625 -3.4702  0.3160  1.8409
  253MOL0     H34117   6.656   3.802   5.647 -0.9663 -0.4001 -1.0425
  253MOL0     H34118   6.901   3.849   5.638  0.2607  0.1343 -0.1042
  253MOL0     H34119   7.197   4.095   5.395  0.0847  1.7600  0.0409
  253MOL0     H34120   7.058   4.130   5.298 -2.5801  0.7061  1.0733
  253MOL0     H34121   6.957   4.286   5.444 -0.7254  0.7362  2.8195
  253MOL0     H34122   7.021   4.199   5.587  0.3604 -0.6376 -0.2105
  253MOL0     H34123   7.254   4.309   5.502  0.2388  0.7244  2.2382
  253MOL0     H34124   7.138   4.389   5.384 -0.3913  0.1083  0.1978
  253MOL0     H34125   7.127   4.396   5.681 -1.9498  3.1693  1.2128
  253MOL0     H34126   7.043   4.507   5.570 -0.1845 -1.5953 -3.0241
  253MOL0     H34127   7.255   4.597   5.487 -1.6003 -0.3872 -1.0073
  253MOL0     H34128   7.345   4.498   5.605  2.0414  3.2087 -0.7228
  253MOL0     H34129   7.138   4.723   5.689 -0.4586  0.0320 -1.5286
  253MOL0     H34130   7.229   4.609   5.795 -2.6898 -2.3258 -1.1783
  253MOL0     H34131   7.369   4.786   5.587 -0.2907 -1.1371  0.6190
  253MOL0     H34132   7.439   4.711   5.729  0.4300  0.6834 -0.3203
  253MOL0     H34133   7.416   4.943   5.733 -0.4967  1.6827  0.6490
  253MOL0     H34134   7.248   4.940   5.699  0.7338 -0.0924 -1.7280
  253MOL0     H34135   6.819   4.112   5.293 -1.4938 -1.5303 -1.7603
  253MOL0     H34136   6.570   4.058   5.319 -0.6364  0.5699  0.8339
  253MOL0     H34137   6.293   3.735   5.540 -1.3388 -1.4921  3.2465
  253MOL0     H34138   6.069   3.672   5.490  2.6197  0.1563  0.6630
  253MOL0     H34139   4.756   3.758   5.394  0.5397  0.9959 -2.2275
  253MOL0     H34140   4.745   3.969   5.500 -1.9179  1.9202  1.5084
  253MOL0     H34141   4.766   4.371   5.707 -0.7347 -1.0758 -1.3038
  253MOL0     H34142   4.714   4.533   5.862 -0.5290  1.1247 -1.6691
  253MOL0     H34143   4.329   4.659   6.106 -0.1218 -0.9303  0.7193
  253MOL0     H34144   4.279   4.522   6.020 -1.7606  1.1378  2.4996
  253MOL0     H34145   4.177   4.741   5.937 -0.7106  0.8535 -2.6523
  253MOL0     H34146   4.246   4.653   5.811 -2.4333  3.5487 -1.7730
  253MOL0     H34147   4.465   4.786   5.860 -0.0014 -0.5984  1.0586
  253MOL0     H34148   4.367   4.889   5.962  2.6436 -2.0397  1.7189
  253MOL0     H34149   4.248   4.971   5.758 -0.1133 -0.3827  0.6481
  253MOL0     H34150   4.419   4.975   5.732  0.5891  1.0046 -0.7767
  253MOL0     H34151   4.387   4.757   5.413  0.2723 -1.3398  0.8117
  253MOL0     H34152   4.299   4.410   5.858  0.8907  2.6462  1.1587
  253MOL0     H34153   4.341   4.097   5.705 -0.4454 -0.0209  1.4588
  253MOL0     H34154   4.236   4.210   5.789  0.5507  1.5231  0.5820
  253MOL0     H34155   4.271   4.233   5.614 -1.5083 -0.7652  0.3076
  254MOL0     O34156   5.759   5.754   9.479  0.2999 -0.0951 -0.0885
  254MOL0     C34157   5.766   5.678   9.385  1.0079  0.6627  0.4835
  254MOL0     O34158   5.879   5.622   9.334 -0.6167 -0.3510 -0.9153
  254MOL0     C34159   6.000   5.689   9.361  0.2072  0.5525  0.8090
  254MOL0     C34160   6.068   5.732   9.251 -0.3844  0.7527  0.2851
  254MOL0     C34161   6.190   5.806   9.258  0.3086 -0.3800  0.3021
  254MOL0     C34162   6.241   5.838   9.387 -0.2314  0.3160 -0.2853
  254MOL0     O34163   6.338   5.927   9.400  0.0868 -0.1454 -0.3525
  254MOL0     C34164   6.287   6.061   9.367 -1.0012 -0.3120 -0.1889
  254MOL0     C34165   6.365   6.160   9.464  0.5126  0.1014 -0.0665
  254MOL0     C34166   6.477   6.229   9.382  0.2200 -0.7674  0.0585
  254MOL0     C34167   6.424   6.326   9.278  0.3977 -0.1356 -1.0977
  254MOL0     C34168   6.543   6.378   9.192  0.8702 -0.3662  0.4383
  254MOL0     C34169   6.603   6.288   9.086 -0.7483  0.7045 -0.9175
  254MOL0     C34170   6.682   6.362   8.978 -0.5436 -0.0569 -0.0773
  254MOL0     C34171   6.718   6.273   8.863 -0.2576 -0.8951  0.5480
  254MOL0     N34172   6.812   6.352   8.789  0.5950 -0.1761 -0.5205
  254MOL0     C34173   6.927   6.291   8.748 -0.1506  0.1805 -0.1739
  254MOL0     C34174   6.982   6.378   8.656  0.7000  0.2827 -0.1386
  254MOL0     C34175   7.104   6.357   8.570 -0.1286 -0.6374  0.0656
  254MOL0     C34176   7.239   6.355   8.658  0.0675 -0.3584  0.1441
  254MOL0     C34177   7.350   6.308   8.568 -0.6762 -0.1762  0.5450
  254MOL0     C34178   7.491   6.332   8.628 -0.2232 -0.5112 -0.3709
  254MOL0     O34179   7.507   6.269   8.757 -0.1403  0.5496  0.1672
  254MOL0     C34180   7.634   6.247   8.798 -0.3344  0.3664  0.5736
  254MOL0     C34181   7.654   6.151   8.905 -0.1608 -0.8149 -0.4996
  254MOL0     C34182   7.782   6.124   8.952  0.0054 -0.0681  0.2651
  254MOL0     C34183   7.893   6.196   8.902  0.2273 -0.6222  0.6938
  254MOL0     C34184   8.033   6.152   8.929 -0.1111  0.3255 -0.2461
  254MOL0     O34185   8.037   6.020   8.973  0.0732  0.7925  0.1926
  254MOL0     C34186   8.160   5.961   9.015 -0.8449  0.3233  0.7427
  254MOL0     C34187   8.269   5.952   8.928  0.1962 -0.9999  0.8828
  254MOL0     C34188   8.388   5.892   8.956  0.3355  0.5346  0.5349
  254MOL0     C34189   8.400   5.819   9.074  0.2218 -0.0227  0.4450
  254MOL0     O34190   8.526   5.759   9.099  0.5502 -0.3611 -0.9539
  254MOL0     C34191   8.534   5.676   9.215 -0.1937  0.1563 -0.4715
  254MOL0     C34192   8.671   5.621   9.238  0.1513  0.0898  0.6869
  254MOL0     C34193   8.686   5.544   9.371 -0.6666 -0.5334  0.0888
  254MOL0     C34194   8.828   5.513   9.417  0.4298  0.6221  0.2774
  254MOL0     C34195   8.904   5.410   9.341  0.3792 -0.5993 -0.3349
  254MOL0     C34196   8.844   5.274   9.333  0.5523  0.3907 -0.0602
  254MOL0     C34197   8.834   5.210   9.470 -0.4541  0.0306  0.6864
  254MOL0     C34198   8.798   5.064   9.463 -0.4749 -0.1819  0.0646
  254MOL0    Cl34199   8.929   4.960   9.533  0.2461  0.0818  0.5218
  254MOL0     C34200   8.291   5.830   9.158  0.3302  0.4325 -0.6032
  254MOL0     C34201   8.170   5.903   9.140  0.3800  0.4997  0.6244
  254MOL0     O34202   8.132   6.226   8.919 -0.6223 -0.0719  0.0685
  254MOL0     C34203   7.876   6.299   8.812  0.7206  0.0533  0.4336
  254MOL0     C34204   7.744   6.333   8.764  0.7332  0.1056 -1.0591
  254MOL0     N34205   6.898   6.487   8.646  0.8241 -1.2086  0.1337
  254MOL0     N34206   6.794   6.467   8.727 -0.5480  0.1837  1.0035
  254MOL0     C34207   6.175   5.788   9.501 -0.6532  0.2724 -0.2679
  254MOL0     C34208   6.054   5.715   9.487  0.7015  0.4961 -0.1337
  254MOL0     C34209   5.639   5.615   9.333 -0.4281 -0.3152  0.0754
  254MOL0     C34210   5.644   5.481   9.281 -0.6961 -0.4455  0.1939
  254MOL0     C34211   5.544   5.416   9.218 -0.2794 -0.0641  0.0548
  254MOL0     C34212   5.425   5.486   9.214 -0.2344  0.2506  1.0588
  254MOL0     O34213   5.311   5.436   9.159 -0.2842 -0.0653  0.7696
  254MOL0     C34214   5.287   5.295   9.160  0.0310  0.3614 -0.5083
  254MOL0     C34215   5.299   5.247   9.016 -0.0833 -0.6449  0.5089
  254MOL0     C34216   5.192   5.302   8.921  0.3697 -0.3006 -0.4182
  254MOL0     C34217   5.181   5.229   8.797  0.0339 -0.3635  0.3009
  254MOL0     C34218   5.120   5.101   8.809  0.5176 -0.5146  0.2849
  254MOL0     C34219   5.056   4.999   8.804  0.0412  0.1501  0.0989
  254MOL0     C34220   5.421   5.615   9.265  0.5387  0.4375 -0.2520
  254MOL0     C34221   5.528   5.684   9.324  0.7754  0.3448 -0.6754
  254MOL0     C34222   5.497   5.827   9.363 -0.3829 -0.0790  0.3616
  254MOL0     H34223   6.023   5.723   9.153  3.0620  0.1553 -1.4075
  254MOL0     H34224   6.233   5.849   9.168 -4.0958  0.1619 -1.7915
  254MOL0     H34225   6.289   6.085   9.260  3.4252 -1.7040 -0.6133
  254MOL0     H34226   6.183   6.073   9.398 -0.9330 -0.6564  0.1815
  254MOL0     H34227   6.419   6.103   9.540  0.2061 -0.3756 -0.2063
  254MOL0     H34228   6.289   6.231   9.499  1.2953 -0.5447  3.2548
  254MOL0     H34229   6.518   6.151   9.317 -1.6454 -0.7336 -1.2649
  254MOL0     H34230   6.556   6.271   9.443 -0.8540  1.4060  0.0604
  254MOL0     H34231   6.362   6.272   9.206  0.6591  0.8708 -2.1148
  254MOL0     H34232   6.377   6.416   9.319  1.1003  0.2914 -1.2176
  254MOL0     H34233   6.513   6.462   9.128 -1.7165 -0.0024  1.9632
  254MOL0     H34234   6.612   6.426   9.262 -0.0213 -0.0094  1.0978
  254MOL0     H34235   6.680   6.226   9.134 -0.9305  1.1101 -0.1005
  254MOL0     H34236   6.526   6.219   9.049 -1.7750  1.9275 -1.1113
  254MOL0     H34237   6.774   6.405   9.017 -0.3009 -0.2692 -0.4043
  254MOL0     H34238   6.633   6.450   8.934 -0.5854  0.6417  1.3095
  254MOL0     H34239   6.772   6.187   8.906  1.8329  0.8023  1.4884
  254MOL0     H34240   6.633   6.252   8.798 -0.0256 -1.9214  0.5510
  254MOL0     H34241   6.954   6.195   8.791 -1.4171 -1.0186 -1.9267
  254MOL0     H34242   7.115   6.263   8.514  0.2792  0.9495 -2.6914
  254MOL0     H34243   7.101   6.435   8.494  1.3948  1.6269  2.1842
  254MOL0     H34244   7.258   6.452   8.704  0.8771 -0.4795  0.0813
  254MOL0     H34245   7.224   6.281   8.737 -2.9126 -0.3452 -0.3047
  254MOL0     H34246   7.339   6.378   8.485 -0.3352  0.9128  1.3726
  254MOL0     H34247   7.347   6.202   8.544 -0.9510  0.1496 -0.9195
  254MOL0     H34248   7.525   6.436   8.619 -3.4115  0.7454  0.7891
  254MOL0     H34249   7.552   6.272   8.560 -2.8557  0.5231 -3.9184
  254MOL0     H34250   7.560   6.107   8.937 -0.9682  0.4843 -1.0048
  254MOL0     H34251   7.799   6.052   9.032 -1.3022 -1.2948 -0.5161
  254MOL0     H34252   8.251   5.992   8.829  0.2800 -3.1520 -0.0749
  254MOL0     H34253   8.467   5.914   8.885 -0.3880  0.8031 -0.1980
  254MOL0     H34254   8.503   5.736   9.301  2.6275 -0.4609  1.1097
  254MOL0     H34255   8.466   5.595   9.186 -1.3170  0.1482  1.9364
  254MOL0     H34256   8.704   5.576   9.144  0.2480 -0.7664  1.1201
  254MOL0     H34257   8.734   5.709   9.253  1.9079 -1.2458  1.5539
  254MOL0     H34258   8.652   5.611   9.450 -0.6292 -1.3944  0.8601
  254MOL0     H34259   8.622   5.455   9.363 -0.2398 -0.8098 -0.3451
  254MOL0     H34260   8.822   5.486   9.523 -0.0437 -0.4061  0.0005
  254MOL0     H34261   8.882   5.608   9.419 -0.1544  1.1883 -3.3270
  254MOL0     H34262   9.007   5.402   9.377  1.3295  2.6004 -1.9026
  254MOL0     H34263   8.907   5.443   9.237  0.8122  1.6806  0.3329
  254MOL0     H34264   8.745   5.281   9.287  0.2529  0.8985  0.6489
  254MOL0     H34265   8.912   5.214   9.272 -0.3166  1.5645 -2.2693
  254MOL0     H34266   8.748   5.260   9.516 -1.7567 -1.5539  0.1027
  254MOL0     H34267   8.920   5.238   9.531  1.1637 -0.6905 -1.1896
  254MOL0     H34268   8.707   5.039   9.519  1.7595 -0.5406  3.8360
  254MOL0     H34269   8.784   5.037   9.358  0.1515 -0.6864  0.1068
  254MOL0     H34270   8.297   5.766   9.246  2.8357 -0.4906 -1.3599
  254MOL0     H34271   8.092   5.915   9.215  0.4326 -0.9557  0.9423
  254MOL0     H34272   7.958   6.363   8.779  2.1669 -1.8066  0.2652
  254MOL0     H34273   7.741   6.405   8.683  1.6741 -0.7094 -1.8390
  254MOL0     H34274   6.204   5.820   9.600 -0.4563  1.8184 -0.7934
  254MOL0     H34275   5.998   5.675   9.570  0.4530  0.5530 -0.2731
  254MOL0     H34276   5.736   5.427   9.297  0.6957  1.4738 -0.8651
  254MOL0     H34277   5.561   5.318   9.173 -1.6265  0.3331 -1.3920
  254MOL0     H34278   5.185   5.276   9.194  0.2591  0.4234  0.2447
  254MOL0     H34279   5.360   5.236   9.218  1.0167 -0.6659 -2.6564
  254MOL0     H34280   5.293   5.139   9.028 -0.3869 -0.8144 -1.0593
  254MOL0     H34281   5.395   5.275   8.970 -0.1429  0.2875  0.9283
  254MOL0     H34282   5.220   5.408   8.915  2.2983 -0.6633  1.3476
  254MOL0     H34283   5.095   5.297   8.971  0.0246  1.8971 -0.7549
  254MOL0     H34284   5.114   5.294   8.738  0.6908 -1.7605 -2.1210
  254MOL0     H34285   5.277   5.229   8.744 -0.8409 -2.0943 -1.4014
  254MOL0     H34286   4.989   4.917   8.794 -2.5624  1.8640  2.2354
  254MOL0     H34287   5.328   5.671   9.252  0.5444  0.2029 -1.4011
  254MOL0     H34288   5.579   5.888   9.324 -0.6726  0.9516  1.3042
  254MOL0     H34289   5.399   5.868   9.337  0.2032  1.8492  1.0078
  254MOL0     H34290   5.509   5.845   9.470  3.1674  1.4874 -0.1457
  255MOL0     O34291   7.883   7.197   1.227  0.0418  1.0156  0.3770
  255MOL0     C34292   7.894   7.311   1.184  0.5813  0.1384 -0.0327
  255MOL0     O34293   7.792   7.387   1.139 -0.1811  0.7688 -0.2186
  255MOL0     C34294   7.666   7.325   1.109 -0.7498  0.6674 -0.1577
  255MOL0     C34295   7.549   7.336   1.190  0.2371  0.2044  1.1117
  255MOL0     C34296   7.434   7.266   1.165  0.3279  0.4680  0.2941
  255MOL0     C34297   7.420   7.193   1.045  0.4214 -0.0591 -0.6971
  255MOL0     O34298   7.294   7.147   1.026 -0.4052 -0.4469 -1.0674
  255MOL0     C34299   7.268   7.057   0.917  0.2462 -0.1548  0.4138
  255MOL0     C34300   7.130   7.024   0.895  0.1058  0.0181  0.2900
  255MOL0     C34301   7.038   7.149   0.878 -0.1466 -0.7075  0.4265
  255MOL0     C34302   6.900   7.120   0.815  0.0465 -0.4430 -0.1340
  255MOL0     C34303   6.806   7.237   0.773  0.2157  0.4575  0.0418
  255MOL0     C34304   6.680   7.188   0.720  0.2513  0.1469  0.3694
  255MOL0     C34305   6.684   7.099   0.591  0.5079 -0.7484 -0.9050
  255MOL0     C34306   6.546   7.094   0.520  0.1166  0.3071 -0.7263
  255MOL0     N34307   6.449   7.019   0.597  0.9879  0.1554 -0.3901
  255MOL0     C34308   6.454   6.883   0.617 -0.8074 -0.0839 -0.1972
  255MOL0     C34309   6.346   6.850   0.699 -0.9661 -0.5074  0.1588
  255MOL0     C34310   6.286   6.711   0.737  0.0984  0.3776 -0.7747
  255MOL0     C34311   6.369   6.613   0.824 -0.1659  0.6935 -0.6798
  255MOL0     C34312   6.426   6.670   0.965 -0.0242 -0.2254 -0.5566
  255MOL0     C34313   6.481   6.566   1.062 -0.6470  0.1405  0.3447
  255MOL0     O34314   6.582   6.620   1.153 -0.8759  0.0938 -0.8896
  255MOL0     C34315   6.712   6.633   1.117  0.1611  0.6242  0.3688
  255MOL0     C34316   6.753   6.614   0.983  0.4940 -0.3045 -0.2678
  255MOL0     C34317   6.894   6.626   0.948  0.2112  0.9258 -0.0246
  255MOL0     C34318   6.996   6.649   1.043  0.7416 -0.3507 -0.5653
  255MOL0     C34319   7.132   6.672   1.002  0.0800  1.0895 -0.6647
  255MOL0     O34320   7.225   6.685   1.102  0.6422  0.1614 -0.1163
  255MOL0     C34321   7.350   6.717   1.087 -1.1784 -1.0950 -0.2765
  255MOL0     C34322   7.404   6.793   1.198  0.8783  0.4371 -0.0316
  255MOL0     C34323   7.529   6.836   1.191 -0.7357 -0.0271 -0.0307
  255MOL0     C34324   7.618   6.803   1.087  0.2117  0.3867  0.4041
  255MOL0     O34325   7.760   6.824   1.088 -0.2095 -0.3999  0.1370
  255MOL0     C34326   7.839   6.850   1.206 -0.1319  0.5528  0.0449
  255MOL0     C34327   7.972   6.788   1.201 -0.7485 -0.1887  0.5623
  255MOL0     C34328   8.094   6.868   1.247 -0.9677 -0.0132 -0.4777
  255MOL0     C34329   8.214   6.771   1.242  0.5183 -0.2471 -0.0166
  255MOL0     C34330   8.341   6.837   1.303  0.9463  0.5191 -0.3405
  255MOL0     C34331   8.461   6.753   1.255  0.9718  0.6657  0.2245
  255MOL0     C34332   8.446   6.610   1.293 -0.2693 -0.5757  0.2585
  255MOL0     C34333   8.564   6.531   1.248  0.0676  0.4323 -0.7189
  255MOL0    Cl34334   8.517   6.359   1.284  0.1957  0.5056  0.2175
  255MOL0     C34335   7.577   6.727   0.981  0.3958  0.6718 -0.5604
  255MOL0     C34336   7.440   6.691   0.975  0.0290 -0.2975 -0.0340
  255MOL0     O34337   7.147   6.685   0.880  0.5811  0.7722 -0.3645
  255MOL0     C34338   6.949   6.680   1.172 -0.9532 -0.9470  0.1811
  255MOL0     C34339   6.812   6.656   1.203 -0.3505 -0.5862 -0.1141
  255MOL0     N34340   6.281   6.968   0.730 -0.3697 -1.3633  0.7898
  255MOL0     N34341   6.335   7.063   0.665 -0.9105 -0.3357  0.3415
  255MOL0     C34342   7.530   7.175   0.972 -0.4138  0.0947  0.5077
  255MOL0     C34343   7.653   7.243   0.994  0.1215  0.0967 -1.3294
  255MOL0     C34344   8.023   7.376   1.182 -1.3183  0.2339 -0.6081
  255MOL0     C34345   8.132   7.306   1.133 -0.1207 -0.1487 -0.4331
  255MOL0     C34346   8.262   7.365   1.136  0.1265  0.2211 -0.1619
  255MOL0     C34347   8.280   7.495   1.173  0.0550 -0.1423 -0.1220
  255MOL0     O34348   8.408   7.538   1.186  0.6278  0.0722  0.2794
  255MOL0     C34349   8.432   7.642   1.288 -0.8539 -0.6693  0.5767
  255MOL0     C34350   8.581   7.636   1.340 -1.1905  1.0005  0.4354
  255MOL0     C34351   8.686   7.671   1.232 -0.0468 -0.3152  0.4771
  255MOL0     C34352   8.825   7.614   1.266 -0.5155  0.3776 -0.0972
  255MOL0     C34353   8.831   7.462   1.282  0.1770 -0.6497 -0.9925
  255MOL0     C34354   8.844   7.343   1.295 -0.2342  0.5567  0.4207
  255MOL0     C34355   8.170   7.566   1.226  0.8211 -0.7571  0.0379
  255MOL0     C34356   8.040   7.509   1.231 -0.0441 -0.3062  0.7036
  255MOL0     C34357   7.938   7.593   1.298  0.2470 -0.8730  0.2535
  255MOL0     H34358   7.564   7.397   1.278  1.3234 -2.2082  2.6733
  255MOL0     H34359   7.356   7.268   1.240 -1.4130 -0.7614 -1.3811
  255MOL0     H34360   7.306   7.108   0.828 -2.8073  0.6011 -0.5639
  255MOL0     H34361   7.322   6.963   0.931  0.9425  0.2205  0.2593
  255MOL0     H34362   7.088   6.989   0.990  0.8015 -0.1961  0.5304
  255MOL0     H34363   7.120   6.950   0.815 -1.2944 -1.7788  2.0419
  255MOL0     H34364   7.083   7.219   0.807 -2.0218 -0.7209 -0.8685
  255MOL0     H34365   7.022   7.204   0.971 -0.6284 -1.2792  0.6875
  255MOL0     H34366   6.928   7.062   0.726  1.9110  0.8810 -0.4760
  255MOL0     H34367   6.842   7.060   0.885 -0.1082  1.5273  1.4978
  255MOL0     H34368   6.788   7.304   0.858  1.9329  2.0254 -0.7690
  255MOL0     H34369   6.848   7.303   0.696 -0.6729 -0.6655 -1.4644
  255MOL0     H34370   6.626   7.139   0.802 -0.6395  2.3045  1.1392
  255MOL0     H34371   6.633   7.281   0.686 -0.6427 -0.6202 -0.5662
  255MOL0     H34372   6.704   6.994   0.614 -2.0817 -0.8523  1.2829
  255MOL0     H34373   6.760   7.139   0.523  1.5906  0.8294  1.1297
  255MOL0     H34374   6.510   7.197   0.506 -0.4673  0.5649  2.0941
  255MOL0     H34375   6.566   7.055   0.420  0.1251  0.0246 -0.6135
  255MOL0     H34376   6.520   6.816   0.563 -1.9757 -2.7760  1.4945
  255MOL0     H34377   6.194   6.733   0.791  1.8375  2.3051  1.6315
  255MOL0     H34378   6.262   6.662   0.643 -3.0795  0.7627 -0.2860
  255MOL0     H34379   6.302   6.528   0.844 -1.5183  0.5734 -4.7507
  255MOL0     H34380   6.450   6.571   0.764  0.1617 -1.9368  1.4271
  255MOL0     H34381   6.343   6.715   1.021 -0.3914 -1.6860  0.1280
  255MOL0     H34382   6.499   6.750   0.949 -2.3390  2.6508  2.1106
  255MOL0     H34383   6.519   6.483   1.003  1.9266  2.3143 -1.3024
  255MOL0     H34384   6.394   6.520   1.110  0.4573 -5.0417 -2.0226
  255MOL0     H34385   6.684   6.599   0.900 -0.5698  3.2818 -0.1896
  255MOL0     H34386   6.919   6.604   0.844  1.7182 -1.5762  0.7654
  255MOL0     H34387   7.338   6.828   1.277  2.0887  2.3730  0.1790
  255MOL0     H34388   7.557   6.912   1.264  1.5760 -0.2825 -0.5679
  255MOL0     H34389   7.855   6.958   1.207  0.1395  0.5429 -1.3685
  255MOL0     H34390   7.796   6.831   1.305  0.9409  3.6866  1.2580
  255MOL0     H34391   7.967   6.693   1.255  1.2405 -0.3928  0.4964
  255MOL0     H34392   7.992   6.756   1.098 -0.2888 -0.7476  0.8164
  255MOL0     H34393   8.105   6.952   1.177  0.2877  1.0662  0.9337
  255MOL0     H34394   8.105   6.909   1.348 -1.4732 -1.1455  0.0591
  255MOL0     H34395   8.229   6.734   1.140  1.2468 -0.9999  0.3446
  255MOL0     H34396   8.182   6.687   1.305 -3.3619  2.8416  2.5820
  255MOL0     H34397   8.321   6.833   1.410 -0.3961 -0.5425 -0.6063
  255MOL0     H34398   8.351   6.943   1.276  1.5814  1.7267  3.9865
  255MOL0     H34399   8.465   6.763   1.146 -0.6799 -0.0855  0.0704
  255MOL0     H34400   8.552   6.796   1.298  0.7920  1.4032 -0.1095
  255MOL0     H34401   8.360   6.568   1.240 -1.9935  1.4570  1.3392
  255MOL0     H34402   8.445   6.599   1.401 -0.1033  0.7819  0.4079
  255MOL0     H34403   8.590   6.551   1.144 -1.6278  3.0105 -0.7396
  255MOL0     H34404   8.651   6.546   1.312  0.6882 -1.3619 -1.0825
  255MOL0     H34405   7.644   6.697   0.901 -3.0557 -0.1425 -3.4354
  255MOL0     H34406   7.409   6.642   0.883 -0.4070  2.9264 -1.7535
  255MOL0     H34407   7.021   6.714   1.246 -0.3695  4.1792 -2.2206
  255MOL0     H34408   6.790   6.648   1.309  0.0044  3.3923  0.3924
  255MOL0     H34409   7.517   7.133   0.873 -0.1777 -1.2135  1.0122
  255MOL0     H34410   7.745   7.217   0.942  1.9009 -1.7788  2.4184
  255MOL0     H34411   8.117   7.203   1.105  1.1518 -0.7829  1.0695
  255MOL0     H34412   8.358   7.322   1.110  1.4709  3.1638 -0.5326
  255MOL0     H34413   8.369   7.630   1.377 -0.2513 -1.0066  0.9648
  255MOL0     H34414   8.411   7.743   1.250  1.2447 -0.8761 -1.3582
  255MOL0     H34415   8.606   7.542   1.390  0.3943  0.7664 -0.7135
  255MOL0     H34416   8.588   7.707   1.423  4.9283 -2.2508  3.3612
  255MOL0     H34417   8.687   7.780   1.233 -1.1210 -0.2820 -0.7225
  255MOL0     H34418   8.655   7.631   1.135 -0.2477 -1.3011  0.9391
  255MOL0     H34419   8.898   7.647   1.191 -2.1987  1.9886 -1.0941
  255MOL0     H34420   8.862   7.655   1.361  0.4084 -1.9470  0.6242
  255MOL0     H34421   8.852   7.236   1.299  0.9295  0.6697  2.6310
  255MOL0     H34422   8.169   7.670   1.257 -1.6595 -0.9008  0.6701
  255MOL0     H34423   7.902   7.673   1.231 -0.3612  1.9735  3.6873
  255MOL0     H34424   7.852   7.533   1.328  1.5961 -2.5922  0.8482
  255MOL0     H34425   7.972   7.656   1.380  0.1391 -1.7851  1.0105
  256MOL0     O34426   2.438   3.701   0.637  0.5145 -0.2230  0.5593
  256MOL0     C34427   2.420   3.679   0.519  0.1885 -0.0334  0.6551
  256MOL0     O34428   2.355   3.561   0.480  0.0785 -0.1972  0.4420
  256MOL0     C34429   2.291   3.569   0.349 -0.6637  1.3237  0.0592
  256MOL0     C34430   2.339   3.465   0.265 -0.6841  0.8077 -1.2970
  256MOL0     C34431   2.289   3.450   0.136 -0.6748 -0.2927  0.2459
  256MOL0     C34432   2.188   3.530   0.091  0.3380  1.6954  0.3654
  256MOL0     O34433   2.132   3.493  -0.029 -0.7056  0.6728  0.4234
  256MOL0     C34434   1.991   3.495  -0.040 -0.2785 -0.2400 -0.4824
  256MOL0     C34435   1.948   3.454  -0.185  1.0646  0.2441  0.5380
  256MOL0     C34436   1.991   3.318  -0.223 -0.9272  0.8346 -0.7787
  256MOL0     C34437   2.006   3.317  -0.374 -0.4758 -0.5785  0.1846
  256MOL0     C34438   2.060   3.194  -0.433  0.2383 -0.4392 -0.1894
  256MOL0     C34439   2.213   3.200  -0.432 -0.3594  0.5697 -0.1452
  256MOL0     C34440   2.267   3.061  -0.486  1.4608  0.2227 -0.9122
  256MOL0     C34441   2.272   2.946  -0.393  0.0382  0.5018  0.0307
  256MOL0     N34442   2.362   2.834  -0.432 -0.0515 -0.8526  0.0764
  256MOL0     C34443   2.329   2.751  -0.532  0.1133 -0.4335 -0.1381
  256MOL0     C34444   2.441   2.678  -0.557 -0.0647  0.4459  0.8168
  256MOL0     C34445   2.424   2.579  -0.676  0.3225 -0.1220 -0.5485
  256MOL0     C34446   2.545   2.493  -0.697  0.0900 -0.3289  0.5249
  256MOL0     C34447   2.661   2.582  -0.743  0.5005  0.3408 -0.3296
  256MOL0     C34448   2.782   2.510  -0.703 -0.5318  0.8391 -0.1153
  256MOL0     O34449   2.887   2.594  -0.745 -0.0682  0.2917  0.1661
  256MOL0     C34450   3.016   2.548  -0.766  0.8597  0.3688  0.2948
  256MOL0     C34451   3.104   2.636  -0.840 -0.5360  0.7068  0.6323
  256MOL0     C34452   3.241   2.592  -0.874  1.0633  0.7241 -0.2293
  256MOL0     C34453   3.291   2.481  -0.816  1.0319 -0.9289 -0.6912
  256MOL0     C34454   3.431   2.437  -0.831  0.9349 -0.2022 -0.0683
  256MOL0     O34455   3.448   2.300  -0.830  0.1261  0.5881  0.0567
  256MOL0     C34456   3.574   2.242  -0.824 -0.4916 -0.7426 -0.0670
  256MOL0     C34457   3.667   2.276  -0.915 -1.1216  1.0824  0.5163
  256MOL0     C34458   3.788   2.210  -0.927  0.4490  0.0603 -0.5385
  256MOL0     C34459   3.817   2.117  -0.822 -0.1062 -0.3150  0.8461
  256MOL0     O34460   3.939   2.064  -0.808  0.0786  0.5610 -0.0504
  256MOL0     C34461   4.021   2.033  -0.917  1.0023  0.2204 -0.6844
  256MOL0     C34462   4.114   2.149  -0.954  0.1521 -0.8947  0.3833
  256MOL0     C34463   4.164   2.142  -1.104 -0.1200  0.2584 -0.4078
  256MOL0     C34464   4.246   2.018  -1.151 -0.4498  0.4733 -0.2412
  256MOL0     C34465   4.389   2.034  -1.111 -0.1785 -0.1644  0.1795
  256MOL0     C34466   4.462   1.911  -1.144 -0.1812 -0.5091  0.1321
  256MOL0     C34467   4.613   1.917  -1.097  0.7257  0.0878  0.4509
  256MOL0     C34468   4.681   1.794  -1.163 -0.0124  0.2386  0.1582
  256MOL0    Cl34469   4.853   1.808  -1.152  0.0891  0.2083 -0.3775
  256MOL0     C34470   3.727   2.084  -0.734  0.0220  0.0194  0.1795
  256MOL0     C34471   3.598   2.136  -0.733  0.5000 -0.1410  0.6685
  256MOL0     O34472   3.513   2.525  -0.851  0.6169  0.0115 -0.3231
  256MOL0     C34473   3.207   2.405  -0.730 -0.0458  0.5101 -0.0467
  256MOL0     C34474   3.075   2.428  -0.706 -0.1990  0.1875  0.6716
  256MOL0     N34475   2.531   2.701  -0.455 -0.2334  0.6897 -0.0540
  256MOL0     N34476   2.488   2.799  -0.386  0.8355  1.0178 -0.9788
  256MOL0     C34477   2.135   3.632   0.168 -0.1742  0.2970  0.1549
  256MOL0     C34478   2.193   3.654   0.299  0.2019 -0.2903 -0.1462
  256MOL0     C34479   2.473   3.773   0.416  0.6735  0.4970 -0.1671
  256MOL0     C34480   2.432   3.905   0.407 -0.7118  0.4974 -0.3346
  256MOL0     C34481   2.469   3.994   0.307  0.0590 -0.4209 -0.1349
  256MOL0     C34482   2.555   3.958   0.205  0.3011  1.0430  0.2291
  256MOL0     O34483   2.588   4.051   0.113  0.0930 -0.9361  0.9108
  256MOL0     C34484   2.636   4.012  -0.018 -0.0124  0.8224  0.1761
  256MOL0     C34485   2.605   4.115  -0.130  0.3090 -0.5528 -0.1302
  256MOL0     C34486   2.644   4.044  -0.255 -0.2450 -0.5578  0.4438
  256MOL0     C34487   2.637   4.147  -0.372  0.5954 -1.5414  0.8100
  256MOL0     C34488   2.501   4.183  -0.410  0.7005  0.2900  0.9800
  256MOL0     C34489   2.377   4.183  -0.436  0.9374 -0.4095 -0.5214
  256MOL0     C34490   2.615   3.829   0.216 -0.1584 -0.7193 -0.1834
  256MOL0     C34491   2.575   3.734   0.318  0.1495 -0.5242 -0.6301
  256MOL0     C34492   2.643   3.603   0.334 -0.4924  0.4779  0.4772
  256MOL0     H34493   2.419   3.406   0.309 -0.0637  3.9093  2.2487
  256MOL0     H34494   2.321   3.372   0.068 -1.9146 -0.4320 -0.2126
  256MOL0     H34495   1.932   3.429   0.025  1.9458 -1.8364  0.0548
  256MOL0     H34496   1.941   3.591  -0.021 -1.2412 -1.1537  2.1250
  256MOL0     H34497   1.994   3.531  -0.247 -0.5545  2.4675  1.9403
  256MOL0     H34498   1.839   3.458  -0.198  0.8004 -0.3727  2.2576
  256MOL0     H34499   1.925   3.238  -0.188 -0.7642  1.4506  1.0138
  256MOL0     H34500   2.087   3.298  -0.176 -1.7971  0.1960  0.7882
  256MOL0     H34501   1.904   3.325  -0.411 -0.0934  2.7973 -0.4763
  256MOL0     H34502   2.062   3.404  -0.411  0.2174 -0.7241  0.8548
  256MOL0     H34503   2.031   3.111  -0.368  0.5658  1.0513  1.9451
  256MOL0     H34504   2.021   3.174  -0.533  0.2834  0.6882 -0.4442
  256MOL0     H34505   2.243   3.291  -0.484  1.0858  0.1427 -0.1016
  256MOL0     H34506   2.250   3.210  -0.329  0.2046  0.0422 -0.2928
  256MOL0     H34507   2.369   3.081  -0.522  1.1566  1.3218 -1.1826
  256MOL0     H34508   2.209   3.031  -0.573  1.9659 -2.6193 -0.3831
  256MOL0     H34509   2.295   2.994  -0.297 -0.4385 -0.6844  0.7554
  256MOL0     H34510   2.172   2.903  -0.387  0.0067  0.7539  1.9607
  256MOL0     H34511   2.235   2.748  -0.587 -0.8793 -1.2231  1.5155
  256MOL0     H34512   2.344   2.508  -0.657  1.6360 -1.5184 -0.0854
  256MOL0     H34513   2.392   2.632  -0.766 -0.4523  1.2295  0.4757
  256MOL0     H34514   2.554   2.433  -0.606 -1.4252 -0.1266  0.8336
  256MOL0     H34515   2.527   2.414  -0.771  0.4187 -3.0603  3.1451
  256MOL0     H34516   2.661   2.676  -0.687 -3.8215 -1.1040  2.6173
  256MOL0     H34517   2.657   2.597  -0.851 -0.5973  0.7402 -0.2484
  256MOL0     H34518   2.804   2.414  -0.750  0.3830  2.4478 -3.2415
  256MOL0     H34519   2.778   2.501  -0.594 -0.3230 -0.0946 -0.1745
  256MOL0     H34520   3.065   2.726  -0.885 -3.2359 -0.1459  1.0514
  256MOL0     H34521   3.295   2.651  -0.948  0.3654  0.5080 -0.9360
  256MOL0     H34522   3.657   2.344  -0.999 -0.8122 -0.0068 -0.4305
  256MOL0     H34523   3.855   2.248  -1.004  1.1601  0.4505  0.2509
  256MOL0     H34524   4.088   1.950  -0.893 -0.7573 -0.6944  1.4688
  256MOL0     H34525   3.962   1.996  -1.001  0.0805  0.0605  0.0140
  256MOL0     H34526   4.061   2.244  -0.952  1.5773 -0.0457 -0.6671
  256MOL0     H34527   4.192   2.172  -0.880 -2.8076  3.7203  2.5568
  256MOL0     H34528   4.071   2.151  -1.160 -0.4052 -0.2823 -0.0313
  256MOL0     H34529   4.214   2.238  -1.121  0.5979  0.1816  1.1026
  256MOL0     H34530   4.247   1.998  -1.259 -0.2489 -0.7031 -0.0297
  256MOL0     H34531   4.204   1.927  -1.108 -2.5843  1.8359  0.7537
  256MOL0     H34532   4.390   2.051  -1.003  0.1787  2.0873 -0.1255
  256MOL0     H34533   4.433   2.118  -1.164  2.1020  0.4866  2.8504
  256MOL0     H34534   4.416   1.824  -1.097 -2.0483 -0.9687 -2.3562
  256MOL0     H34535   4.456   1.885  -1.250  2.4871 -3.1843  0.5067
  256MOL0     H34536   4.610   1.924  -0.988  0.2144  0.0999  0.4369
  256MOL0     H34537   4.670   2.002  -1.135  2.7415 -2.7964 -3.6898
  256MOL0     H34538   4.648   1.707  -1.105  0.6021  0.0749  0.2664
  256MOL0     H34539   4.648   1.787  -1.267  0.8971  3.9064 -0.4931
  256MOL0     H34540   3.739   1.995  -0.673 -0.8498 -0.2139  0.0159
  256MOL0     H34541   3.514   2.092  -0.681  0.2945 -0.1868  0.2960
  256MOL0     H34542   3.253   2.325  -0.673  0.3894  1.1380  0.4909
  256MOL0     H34543   3.016   2.371  -0.636  0.0440  0.6603  1.2731
  256MOL0     H34544   2.057   3.700   0.136 -1.2543 -1.0695 -0.2357
  256MOL0     H34545   2.145   3.722   0.368 -0.6241 -2.1218  1.1697
  256MOL0     H34546   2.359   3.940   0.479 -0.8287 -3.9352  2.0774
  256MOL0     H34547   2.423   4.092   0.316 -0.9370 -0.8739 -0.1493
  256MOL0     H34548   2.596   3.915  -0.048 -0.4671  1.3412 -0.9435
  256MOL0     H34549   2.744   3.997  -0.015 -0.0293  0.8521  1.6998
  256MOL0     H34550   2.669   4.204  -0.123  2.4093 -2.0799  0.9097
  256MOL0     H34551   2.496   4.131  -0.127 -0.1352 -3.1737  0.2444
  256MOL0     H34552   2.589   3.950  -0.270  3.3250 -2.7640 -0.0543
  256MOL0     H34553   2.748   4.012  -0.244  0.5852  2.1360  0.9897
  256MOL0     H34554   2.691   4.239  -0.347 -2.3117  0.2135  1.1350
  256MOL0     H34555   2.686   4.100  -0.458 -0.3862  0.5932 -1.0183
  256MOL0     H34556   2.270   4.183  -0.439  0.7242 -0.7977  2.9819
  256MOL0     H34557   2.701   3.821   0.150 -0.4910  2.9293 -1.3184
  256MOL0     H34558   2.751   3.618   0.337 -0.1984  0.3008 -3.7805
  256MOL0     H34559   2.620   3.546   0.425  0.4828 -1.5284 -0.4869
  256MOL0     H34560   2.631   3.541   0.245  2.5324  0.7783 -0.2184
  257MOL0     O34561  10.457   7.925   1.923 -0.0811 -0.2091  0.2888
  257MOL0     C34562  10.458   7.804   1.948  0.1983 -0.0243  0.0076
  257MOL0     O34563  10.360   7.720   1.917 -0.6275  0.7308  0.8542
  257MOL0     C34564  10.235   7.769   1.876  0.2001 -0.0001 -0.1902
  257MOL0     C34565  10.205   7.801   1.745  0.2224 -1.1049  0.6679
  257MOL0     C34566  10.084   7.864   1.714 -0.7074 -0.5138 -0.7732
  257MOL0     C34567   9.985   7.881   1.814 -0.3690 -0.1344 -0.6457
  257MOL0     O34568   9.871   7.947   1.797  0.3680  0.3662  0.4101
  257MOL0     C34569   9.820   7.970   1.659  0.0033 -0.6499 -0.2389
  257MOL0     C34570   9.674   8.009   1.658  0.4903  0.0829  0.4352
  257MOL0     C34571   9.653   8.155   1.721 -0.0441  1.6546  0.4040
  257MOL0     C34572   9.504   8.179   1.755  0.1906 -0.5718  0.0411
  257MOL0     C34573   9.411   8.200   1.640 -0.6044  0.3834  1.0140
  257MOL0     C34574   9.377   8.342   1.600 -0.0539 -0.0661 -0.0982
  257MOL0     C34575   9.247   8.388   1.673  0.3735 -0.0299  0.2754
  257MOL0     C34576   9.121   8.357   1.572  0.1761  0.1556  0.3814
  257MOL0     N34577   9.004   8.422   1.616  0.0111 -0.0940  0.0298
  257MOL0     C34578   8.900   8.364   1.680 -0.0990  0.6112 -0.0594
  257MOL0     C34579   8.800   8.456   1.678 -0.5609 -0.7222  0.2111
  257MOL0     C34580   8.665   8.458   1.751 -0.0435 -0.3768 -0.5807
  257MOL0     C34581   8.682   8.489   1.895  0.0087 -0.8304  0.3470
  257MOL0     C34582   8.566   8.567   1.946 -0.6906  0.3056  0.0333
  257MOL0     C34583   8.595   8.613   2.084 -0.3326  0.5524 -0.3420
  257MOL0     O34584   8.474   8.622   2.163  0.7331  0.1955  0.1393
  257MOL0     C34585   8.479   8.717   2.262  0.8475  0.4143  0.7532
  257MOL0     C34586   8.381   8.814   2.267 -0.4210  0.6163 -1.0117
  257MOL0     C34587   8.374   8.911   2.367  0.2844  0.3599  0.0823
  257MOL0     C34588   8.477   8.917   2.465 -0.8322  0.3934 -0.2296
  257MOL0     C34589   8.486   9.011   2.584  0.5180 -0.1911  1.2231
  257MOL0     O34590   8.371   9.057   2.630  0.0677 -0.6381 -0.0871
  257MOL0     C34591   8.387   9.133   2.738  0.8633 -0.3075  0.0225
  257MOL0     C34592   8.428   9.260   2.722  0.7314 -0.5357  0.4964
  257MOL0     C34593   8.436   9.345   2.831 -0.2577 -0.1881  0.2546
  257MOL0     C34594   8.415   9.304   2.966 -0.3068 -0.4211 -0.1896
  257MOL0     O34595   8.429   9.393   3.075  0.7627  0.3291  0.0395
  257MOL0     C34596   8.501   9.331   3.188  1.0405  0.3133 -0.7074
  257MOL0     C34597   8.493   9.424   3.306 -0.3139  0.5927  0.1806
  257MOL0     C34598   8.346   9.438   3.350 -0.0179 -0.4135 -0.6615
  257MOL0     C34599   8.355   9.516   3.483 -0.6381  0.8308 -0.4747
  257MOL0     C34600   8.228   9.491   3.562 -0.0962  0.2272  0.0297
  257MOL0     C34601   8.109   9.575   3.509 -0.0989  0.9220  0.4081
  257MOL0     C34602   7.968   9.550   3.571  0.8968  0.1383 -0.4006
  257MOL0     C34603   7.924   9.659   3.679  0.0610  0.2411  0.0886
  257MOL0    Cl34604   7.867   9.803   3.592 -0.0856 -0.2822  0.0244
  257MOL0     C34605   8.383   9.166   2.982 -0.0046 -0.3330  0.5505
  257MOL0     C34606   8.366   9.083   2.867  0.0510  0.2888  0.2960
  257MOL0     O34607   8.595   9.028   2.635 -0.1569 -0.5512  0.4745
  257MOL0     C34608   8.581   8.815   2.462 -0.0128 -0.3090  0.2629
  257MOL0     C34609   8.587   8.714   2.361 -0.0802 -0.7285  1.1528
  257MOL0     N34610   8.849   8.564   1.605 -0.3473  0.0815 -0.4803
  257MOL0     N34611   8.971   8.539   1.564  0.5398 -0.8286  0.9121
  257MOL0     C34612  10.013   7.844   1.948 -0.2236  0.9040 -0.1973
  257MOL0     C34613  10.142   7.790   1.983 -0.6877 -0.2459 -0.1839
  257MOL0     C34614  10.574   7.746   2.036  1.1051  0.6885 -1.3215
  257MOL0     C34615  10.548   7.634   2.120  0.2883  0.6290 -0.0915
  257MOL0     C34616  10.640   7.600   2.216  1.0617 -1.2119 -0.2515
  257MOL0     C34617  10.768   7.662   2.225  1.3727 -0.3330  0.7868
  257MOL0     O34618  10.864   7.630   2.323 -0.4984 -0.2239  1.1451
  257MOL0     C34619  10.809   7.561   2.433 -0.5214 -0.0990 -0.1393
  257MOL0     C34620  10.907   7.578   2.551  0.7016  0.7172 -0.4750
  257MOL0     C34621  11.056   7.569   2.512 -0.3799  0.5293  0.0608
  257MOL0     C34622  11.150   7.562   2.632 -0.3187  0.2868  0.2719
  257MOL0     C34623  11.278   7.563   2.574 -0.2255  0.1821  0.6325
  257MOL0     C34624  11.387   7.587   2.518  0.4582 -0.5511  0.4955
  257MOL0     C34625  10.795   7.761   2.133  0.6681  0.2500  0.0044
  257MOL0     C34626  10.703   7.798   2.038 -0.5144 -0.1208 -0.2790
  257MOL0     C34627  10.765   7.892   1.932  0.2302 -0.0092 -0.5471
  257MOL0     H34628  10.273   7.771   1.666 -0.8634 -2.3914  0.1740
  257MOL0     H34629  10.069   7.888   1.609  0.2841 -1.5255 -1.1645
  257MOL0     H34630   9.874   8.052   1.612 -1.7796 -1.2909 -3.7218
  257MOL0     H34631   9.828   7.877   1.602  1.1566 -3.4330  3.9773
  257MOL0     H34632   9.606   7.938   1.707 -0.4542  0.9071  0.3401
  257MOL0     H34633   9.647   8.004   1.552  2.0421  0.9653 -0.0384
  257MOL0     H34634   9.699   8.230   1.657  3.0103 -1.0876 -0.8923
  257MOL0     H34635   9.707   8.164   1.816 -0.8723  1.2354  0.9366
  257MOL0     H34636   9.464   8.095   1.812 -1.4876 -0.6168 -1.1352
  257MOL0     H34637   9.502   8.270   1.815 -0.2848  0.3047 -1.2497
  257MOL0     H34638   9.450   8.141   1.557  1.5552  1.1089  1.4514
  257MOL0     H34639   9.315   8.149   1.656 -1.4862  1.4048 -0.7678
  257MOL0     H34640   9.465   8.400   1.631 -0.6109  0.1461  1.1400
  257MOL0     H34641   9.373   8.340   1.491  0.7219  0.2589 -0.1416
  257MOL0     H34642   9.261   8.494   1.695  1.8450 -0.2512  0.4796
  257MOL0     H34643   9.219   8.354   1.773 -1.0443  0.8177  0.2038
  257MOL0     H34644   9.133   8.405   1.474 -2.6874 -4.7349 -2.8256
  257MOL0     H34645   9.107   8.251   1.551 -3.6725  0.8104 -1.3271
  257MOL0     H34646   8.905   8.271   1.734 -0.4886 -0.5131 -1.8751
  257MOL0     H34647   8.589   8.521   1.705 -2.0314  0.6015  3.5193
  257MOL0     H34648   8.615   8.361   1.753  1.6180 -1.2679  1.2843
  257MOL0     H34649   8.677   8.396   1.952 -2.5278 -0.2047  1.2622
  257MOL0     H34650   8.775   8.544   1.913  0.4098 -0.5487 -2.2288
  257MOL0     H34651   8.471   8.512   1.949 -0.8324  0.5984  1.9593
  257MOL0     H34652   8.540   8.651   1.880 -3.1672 -0.0631  0.4427
  257MOL0     H34653   8.641   8.713   2.082 -0.0155  0.3980 -0.9203
  257MOL0     H34654   8.665   8.545   2.134 -0.0437  0.8334 -0.3562
  257MOL0     H34655   8.302   8.810   2.193 -1.0099  1.0212 -0.4226
  257MOL0     H34656   8.287   8.976   2.369 -1.1168 -1.4529  0.3951
  257MOL0     H34657   8.451   9.302   2.625 -0.6272  1.4498  0.9739
  257MOL0     H34658   8.467   9.446   2.806 -1.3407  0.7266  2.3608
  257MOL0     H34659   8.463   9.234   3.220  1.3315  0.3922 -0.1206
  257MOL0     H34660   8.600   9.302   3.154  0.7112 -3.7989  1.2958
  257MOL0     H34661   8.545   9.375   3.389  0.2034 -2.5939 -1.8166
  257MOL0     H34662   8.533   9.521   3.279  0.7540  0.3692  0.9360
  257MOL0     H34663   8.288   9.507   3.288  1.2806  0.5576 -0.8363
  257MOL0     H34664   8.292   9.343   3.350 -0.5993 -0.1597  2.2487
  257MOL0     H34665   8.357   9.624   3.468  1.1162  1.0478  0.9727
  257MOL0     H34666   8.436   9.475   3.543 -2.1539 -2.0498 -0.2075
  257MOL0     H34667   8.248   9.529   3.663 -3.2085  1.0578  0.4595
  257MOL0     H34668   8.197   9.386   3.564 -1.6902  0.6276 -1.3609
  257MOL0     H34669   8.136   9.681   3.511 -0.4945  1.0929 -1.4770
  257MOL0     H34670   8.097   9.541   3.406  0.2254  1.8254  0.0578
  257MOL0     H34671   7.958   9.451   3.617 -0.3146  1.1688  1.7241
  257MOL0     H34672   7.896   9.556   3.489 -0.6586 -0.8603  0.8220
  257MOL0     H34673   7.844   9.618   3.741  0.1076  1.7206  1.1605
  257MOL0     H34674   8.002   9.686   3.751 -0.0937  0.5033  0.1566
  257MOL0     H34675   8.382   9.119   3.080  0.0022 -1.7884 -0.1186
  257MOL0     H34676   8.345   8.977   2.882  2.4618 -0.1351  0.9992
  257MOL0     H34677   8.656   8.819   2.541  1.5549  4.9186 -1.0980
  257MOL0     H34678   8.670   8.644   2.359  0.3745 -0.1911 -0.1750
  257MOL0     H34679   9.936   7.858   2.023  0.4013  2.0804  0.2503
  257MOL0     H34680  10.165   7.779   2.088 -0.9624  0.9722  0.0213
  257MOL0     H34681  10.457   7.577   2.123  1.2070 -0.8612  2.1329
  257MOL0     H34682  10.612   7.521   2.285 -2.9942 -1.9598 -2.3985
  257MOL0     H34683  10.809   7.459   2.396 -0.3080 -0.6168  1.2192
  257MOL0     H34684  10.711   7.597   2.465 -1.3645 -1.3452 -1.2254
  257MOL0     H34685  10.887   7.500   2.624 -1.0357  0.5744 -1.0497
  257MOL0     H34686  10.888   7.681   2.583  0.9669  0.6175  0.0110
  257MOL0     H34687  11.081   7.665   2.467  1.0211  0.6542  1.0270
  257MOL0     H34688  11.072   7.487   2.441 -2.0790  0.4055 -0.2068
  257MOL0     H34689  11.139   7.647   2.700  0.1170 -0.2231  0.9967
  257MOL0     H34690  11.122   7.471   2.687  0.5656 -1.0612 -1.3915
  257MOL0     H34691  11.480   7.605   2.468 -0.0967 -2.3771 -1.3365
  257MOL0     H34692  10.894   7.803   2.148 -0.8340  4.1239  0.0470
  257MOL0     H34693  10.780   7.841   1.836  0.7159 -0.7488 -0.0948
  257MOL0     H34694  10.687   7.968   1.924 -1.4072 -1.5432  0.0594
  257MOL0     H34695  10.860   7.940   1.957 -0.0229 -0.0058  0.4375
  258MOL0     O34696   6.831   4.166   6.982  0.4518 -0.3072  0.2280
  258MOL0     C34697   6.804   4.285   6.974 -1.1621 -0.2593  0.2233
  258MOL0     O34698   6.683   4.347   6.947  0.1275  0.0316  0.0782
  258MOL0     C34699   6.573   4.261   6.935 -0.0780 -0.0854  0.9882
  258MOL0     C34700   6.545   4.188   6.815 -0.1529  0.4141  0.2154
  258MOL0     C34701   6.421   4.136   6.789  0.9361  0.1323  0.3714
  258MOL0     C34702   6.318   4.143   6.884 -0.6596 -0.4362  0.4900
  258MOL0     O34703   6.194   4.090   6.876  0.1119 -0.1434  0.3662
  258MOL0     C34704   6.184   4.003   6.776  0.3967  0.7516  0.2566
  258MOL0     C34705   6.041   3.956   6.764 -0.1924 -0.3252 -0.0114
  258MOL0     C34706   5.935   4.067   6.737  0.0167  0.4978 -0.5727
  258MOL0     C34707   5.798   4.004   6.716  0.5716 -0.2867  0.0707
  258MOL0     C34708   5.701   4.102   6.673  0.2478 -0.2278  0.3178
  258MOL0     C34709   5.567   4.033   6.642 -1.6054 -0.1334 -0.4019
  258MOL0     C34710   5.464   4.131   6.576  0.6595 -0.2861 -0.3724
  258MOL0     C34711   5.483   4.197   6.441  0.0654  0.3024 -0.1906
  258MOL0     N34712   5.466   4.123   6.323 -0.2906 -0.1090  0.4539
  258MOL0     C34713   5.553   4.024   6.264  0.3986 -0.8755 -0.6695
  258MOL0     C34714   5.512   3.990   6.145  0.5026 -0.1923  0.5334
  258MOL0     C34715   5.581   3.900   6.037 -0.7057  0.4443 -0.4221
  258MOL0     C34716   5.734   3.917   6.026 -0.5655  0.3797  0.4249
  258MOL0     C34717   5.782   3.826   5.910 -0.0294  0.5826 -0.3468
  258MOL0     C34718   5.930   3.814   5.898 -0.0096  0.1600  0.4736
  258MOL0     O34719   5.996   3.944   5.909 -0.3823  0.3150  0.0516
  258MOL0     C34720   6.132   3.947   5.915  0.7171 -0.5851 -0.2671
  258MOL0     C34721   6.171   4.079   5.941 -1.2172  0.7300  0.1574
  258MOL0     C34722   6.301   4.116   5.956  0.9189  0.1318 -0.0386
  258MOL0     C34723   6.401   4.028   5.917 -0.8990 -0.4354 -0.0076
  258MOL0     C34724   6.546   4.048   5.925  0.6235 -0.2456 -0.0122
  258MOL0     O34725   6.633   3.958   5.873 -0.4787  0.6022 -0.3630
  258MOL0     C34726   6.768   3.980   5.897 -0.4184  0.7219  0.2149
  258MOL0     C34727   6.845   3.868   5.936 -0.3131 -1.2428  1.3869
  258MOL0     C34728   6.978   3.889   5.964 -0.2088  0.4866 -0.5088
  258MOL0     C34729   7.048   4.012   5.963  0.2269  0.5750  0.7456
  258MOL0     O34730   7.174   4.027   6.006  0.0302 -0.7833  0.1814
  258MOL0     C34731   7.255   3.911   6.040 -0.1773 -1.1443 -0.6522
  258MOL0     C34732   7.387   3.968   6.093  0.8973  0.2083 -0.7287
  258MOL0     C34733   7.354   4.069   6.208 -0.2680 -0.4126 -0.1744
  258MOL0     C34734   7.486   4.089   6.286  0.5359 -0.5864 -0.3141
  258MOL0     C34735   7.480   4.223   6.354 -0.1006  0.0215 -0.4748
  258MOL0     C34736   7.597   4.246   6.446  0.1689 -0.5483  1.0788
  258MOL0     C34737   7.578   4.354   6.543 -0.1225 -0.1219  0.3455
  258MOL0     C34738   7.664   4.350   6.666 -0.0450  0.7935 -0.2484
  258MOL0    Cl34739   7.610   4.227   6.780  0.0324  0.1588  0.0900
  258MOL0     C34740   6.966   4.119   5.919 -0.3858 -0.4031  0.5429
  258MOL0     C34741   6.834   4.101   5.881  0.8583  0.2367  0.6002
  258MOL0     O34742   6.572   4.160   5.958 -0.4009  0.2506 -0.6856
  258MOL0     C34743   6.360   3.896   5.883 -0.3886  0.0285  0.2384
  258MOL0     C34744   6.228   3.854   5.880 -0.0160 -0.1801  0.2941
  258MOL0     N34745   5.410   4.081   6.113  1.0472  0.4102 -0.6199
  258MOL0     N34746   5.378   4.148   6.223  0.1632 -0.0054 -0.4601
  258MOL0     C34747   6.349   4.202   7.003 -0.4553  0.5017  0.4175
  258MOL0     C34748   6.476   4.261   7.036 -0.3239 -0.0075  0.0201
  258MOL0     C34749   6.913   4.380   6.995  0.0510  0.1831 -0.2655
  258MOL0     C34750   6.875   4.498   7.070  0.6017  0.3834 -0.5415
  258MOL0     C34751   6.973   4.598   7.081  0.4988 -0.4895  0.0515
  258MOL0     C34752   7.099   4.585   7.027 -0.6714 -0.2290 -0.7324
  258MOL0     O34753   7.198   4.678   7.028 -0.6688 -0.2674  1.1643
  258MOL0     C34754   7.285   4.686   7.136  0.3180  0.1025  0.7186
  258MOL0     C34755   7.379   4.807   7.122  0.3914 -0.4337 -1.1162
  258MOL0     C34756   7.427   4.847   7.258  0.1680 -0.0403  0.2030
  258MOL0     C34757   7.508   4.981   7.227 -0.0922  0.0731  0.3261
  258MOL0     C34758   7.535   5.032   7.364  0.8562  0.1872  0.1750
  258MOL0     C34759   7.578   5.061   7.476  0.6919  0.3150  0.0427
  258MOL0     C34760   7.136   4.463   6.972  0.5124 -0.4875 -0.8003
  258MOL0     C34761   7.047   4.364   6.941  0.0799 -0.1073 -0.1848
  258MOL0     C34762   7.094   4.255   6.847  0.4270  0.5532 -0.0041
  258MOL0     H34763   6.629   4.190   6.746 -0.3322 -0.0029 -0.0155
  258MOL0     H34764   6.392   4.115   6.686 -0.5913  2.7107  0.1649
  258MOL0     H34765   6.209   4.054   6.682 -0.4591  1.8468  0.6024
  258MOL0     H34766   6.244   3.913   6.791  1.4943  1.6693  1.5366
  258MOL0     H34767   6.014   3.903   6.856  0.3296  0.6640  0.7322
  258MOL0     H34768   6.022   3.899   6.672 -1.4996  1.7474 -1.1266
  258MOL0     H34769   5.964   4.131   6.654 -1.9273  1.2405 -0.7298
  258MOL0     H34770   5.932   4.140   6.819 -1.4589  2.5965 -2.3669
  258MOL0     H34771   5.811   3.925   6.642 -1.9653 -0.0060 -0.7590
  258MOL0     H34772   5.752   3.958   6.804 -2.0974 -0.4760 -1.3350
  258MOL0     H34773   5.697   4.185   6.745  0.9953 -0.3490  0.4996
  258MOL0     H34774   5.741   4.139   6.578  2.0331 -2.0945  0.2807
  258MOL0     H34775   5.579   3.957   6.565 -0.0808 -0.8053  0.4612
  258MOL0     H34776   5.523   3.976   6.724 -0.4348  0.4706  0.6722
  258MOL0     H34777   5.437   4.212   6.645  3.4732  1.4296 -1.1236
  258MOL0     H34778   5.367   4.080   6.569  0.7685 -0.7720  1.1131
  258MOL0     H34779   5.422   4.288   6.432  0.6996  0.6976 -0.5965
  258MOL0     H34780   5.589   4.224   6.436 -0.1137  1.5929  1.8490
  258MOL0     H34781   5.640   3.994   6.323  0.5580  0.7858 -0.0203
  258MOL0     H34782   5.562   3.794   6.055 -1.2923  0.7944  1.1306
  258MOL0     H34783   5.542   3.928   5.939  0.3666 -0.9590 -1.2934
  258MOL0     H34784   5.762   4.022   6.016  0.7846  0.2638  2.4031
  258MOL0     H34785   5.775   3.887   6.123  0.4883  1.1362  0.2316
  258MOL0     H34786   5.743   3.862   5.815  0.7983  0.7292 -0.6385
  258MOL0     H34787   5.746   3.726   5.936  4.6383 -1.6481 -1.4878
  258MOL0     H34788   5.952   3.761   5.805 -1.1410  2.3542 -1.1316
  258MOL0     H34789   5.971   3.758   5.983  1.7280  1.4230  0.5123
  258MOL0     H34790   6.101   4.160   5.959 -2.6367  0.0247 -1.8759
  258MOL0     H34791   6.330   4.211   6.000  0.7241  0.2360 -0.1327
  258MOL0     H34792   6.801   3.769   5.937 -2.6526 -0.2842  3.3334
  258MOL0     H34793   7.029   3.795   5.984  0.5680  1.1445  0.7169
  258MOL0     H34794   7.219   3.862   6.131  2.6905  0.2721  1.4180
  258MOL0     H34795   7.282   3.842   5.960  3.3358 -1.7991  0.9148
  258MOL0     H34796   7.458   3.890   6.121  0.4804 -0.7966 -2.3226
  258MOL0     H34797   7.438   4.034   6.023  1.2586  0.6245 -0.0792
  258MOL0     H34798   7.323   4.164   6.163 -2.2237 -0.9469 -0.0306
  258MOL0     H34799   7.272   4.041   6.274 -0.1053  1.4327  0.8666
  258MOL0     H34800   7.573   4.082   6.220 -0.7339  1.2124 -2.2893
  258MOL0     H34801   7.494   4.010   6.361  0.4032 -1.2790 -1.0218
  258MOL0     H34802   7.388   4.245   6.409  1.0407  3.4484  0.3222
  258MOL0     H34803   7.496   4.298   6.275  0.3335 -0.7218 -1.1046
  258MOL0     H34804   7.595   4.155   6.507 -0.7814  0.2566  2.2900
  258MOL0     H34805   7.695   4.256   6.398 -1.3493 -1.2718 -2.4456
  258MOL0     H34806   7.476   4.366   6.579 -0.2866  1.0730 -0.4554
  258MOL0     H34807   7.609   4.453   6.508 -0.4817 -0.4108 -0.8192
  258MOL0     H34808   7.767   4.325   6.636 -0.3153  1.2155 -1.5930
  258MOL0     H34809   7.661   4.445   6.719  0.9748  1.1258 -0.7478
  258MOL0     H34810   7.018   4.210   5.891 -1.1753 -1.2028 -4.5925
  258MOL0     H34811   6.771   4.187   5.857 -1.1592 -1.2230  0.3766
  258MOL0     H34812   6.434   3.818   5.865  1.7777  2.1967 -0.9435
  258MOL0     H34813   6.196   3.751   5.866  2.4971 -0.9530 -0.1918
  258MOL0     H34814   6.269   4.201   7.077  1.1662  1.4834  2.2837
  258MOL0     H34815   6.482   4.310   7.133 -0.2521 -1.0441  0.5553
  258MOL0     H34816   6.779   4.509   7.120  0.0260 -1.9636 -1.0138
  258MOL0     H34817   6.955   4.697   7.121 -0.0032 -0.0951 -1.0888
  258MOL0     H34818   7.345   4.595   7.146  1.0098  0.2161 -1.7819
  258MOL0     H34819   7.230   4.689   7.230 -0.1905 -1.9216  0.5454
  258MOL0     H34820   7.317   4.888   7.084 -1.9325  0.4791  3.7976
  258MOL0     H34821   7.457   4.780   7.050  1.0512 -0.4873 -0.4038
  258MOL0     H34822   7.482   4.767   7.308  0.7710 -0.8956 -1.7341
  258MOL0     H34823   7.343   4.884   7.318  1.6036  0.3487  2.0728
  258MOL0     H34824   7.600   4.966   7.170 -0.9820  0.5608 -1.2774
  258MOL0     H34825   7.442   5.050   7.174  0.0207 -0.8863 -1.1303
  258MOL0     H34826   7.599   5.067   7.581  0.8028 -0.8083  0.0974
  258MOL0     H34827   7.236   4.446   6.932  1.1026 -1.9184  1.1204
  258MOL0     H34828   7.165   4.295   6.775  0.9017 -2.9580 -1.7004
  258MOL0     H34829   7.142   4.172   6.900  1.4600  2.2557  1.8857
  258MOL0     H34830   7.010   4.209   6.793  0.0330 -1.5488  2.2146
  259MOL0     O34831   6.096   0.905   3.695  0.3913 -0.6045  0.2120
  259MOL0     C34832   6.111   1.026   3.670  0.2636 -0.3342 -0.2062
  259MOL0     O34833   6.232   1.099   3.665  0.0879  0.9487  0.0157
  259MOL0     C34834   6.338   1.048   3.734  0.0043  0.6666  0.1111
  259MOL0     C34835   6.462   1.089   3.677 -0.4970  0.0047  0.4900
  259MOL0     C34836   6.582   1.058   3.739 -0.6721  0.8748 -0.1888
  259MOL0     C34837   6.589   0.970   3.853 -0.1388  0.6741  0.1138
  259MOL0     O34838   6.705   0.922   3.921  0.5487  0.0388 -0.1954
  259MOL0     C34839   6.837   0.947   3.864 -0.2446 -0.5959  0.4467
  259MOL0     C34840   6.953   0.888   3.931  0.1117 -0.2741  0.2784
  259MOL0     C34841   7.078   0.944   3.870  0.0226  0.6289 -0.5221
  259MOL0     C34842   7.119   1.073   3.945  0.5934 -0.0208 -0.3786
  259MOL0     C34843   7.176   1.058   4.092  0.1940 -0.3474  1.3491
  259MOL0     C34844   7.258   1.175   4.149 -0.9931 -0.6643  0.8220
  259MOL0     C34845   7.390   1.216   4.071 -0.0349  0.6996 -0.0652
  259MOL0     C34846   7.484   1.093   4.046 -0.1928  0.1187  0.2155
  259MOL0     N34847   7.617   1.129   3.982  0.0460  0.4298 -0.2982
  259MOL0     C34848   7.642   1.156   3.843 -0.3820  0.1494 -0.1958
  259MOL0     C34849   7.767   1.196   3.854 -0.1963 -0.6309  0.2827
  259MOL0     C34850   7.858   1.232   3.732 -0.3613 -0.4335  0.4950
  259MOL0     C34851   7.990   1.151   3.714  0.1277 -0.2708 -0.1672
  259MOL0     C34852   8.113   1.234   3.739  0.0868  0.2439  0.2035
  259MOL0     C34853   8.245   1.159   3.684  0.5979 -0.5662 -0.0150
  259MOL0     O34854   8.240   1.021   3.704 -0.0489 -0.0912  0.3214
  259MOL0     C34855   8.355   0.954   3.683 -0.1765 -0.9049  0.0064
  259MOL0     C34856   8.470   1.013   3.640  0.4556 -0.0859  0.2229
  259MOL0     C34857   8.585   0.941   3.626 -0.0576 -0.1798  0.2421
  259MOL0     C34858   8.590   0.804   3.653 -0.4557  0.2321 -0.1650
  259MOL0     C34859   8.701   0.723   3.619  0.9388  0.3888  0.1497
  259MOL0     O34860   8.727   0.613   3.696 -0.1895 -0.1091 -0.5984
  259MOL0     C34861   8.851   0.564   3.712 -0.2449  0.3791  0.0866
  259MOL0     C34862   8.962   0.639   3.757  0.2220 -0.2190  1.1283
  259MOL0     C34863   9.088   0.584   3.787  0.4139  0.6248  0.2258
  259MOL0     C34864   9.110   0.449   3.760  0.1847  0.5752 -0.0800
  259MOL0     O34865   9.228   0.388   3.771  0.0204 -0.4733 -0.1739
  259MOL0     C34866   9.329   0.437   3.859 -0.8236 -1.0587  0.4541
  259MOL0     C34867   9.430   0.325   3.889 -0.2806  0.6520  0.4243
  259MOL0     C34868   9.509   0.372   4.010  0.3088 -0.0944  0.1051
  259MOL0     C34869   9.611   0.263   4.055 -0.5266  0.0634  0.4446
  259MOL0     C34870   9.675   0.299   4.194  0.0279  0.6433 -0.4286
  259MOL0     C34871   9.801   0.215   4.223 -1.0011  0.2950 -0.1221
  259MOL0     C34872   9.918   0.236   4.132  0.3467 -0.0275  0.5270
  259MOL0     C34873  10.048   0.170   4.171  0.1313  0.7700  0.4597
  259MOL0    Cl34874  10.139   0.091   4.033  0.0877  0.0685 -0.3228
  259MOL0     C34875   9.009   0.367   3.731  0.0850 -0.3500  0.8911
  259MOL0     C34876   8.880   0.426   3.701 -0.0032 -0.7496 -0.5735
  259MOL0     O34877   8.751   0.745   3.508 -0.0584 -0.3714  0.1263
  259MOL0     C34878   8.478   0.741   3.694 -0.4267  0.2400  0.1058
  259MOL0     C34879   8.356   0.815   3.717 -0.1132 -0.3421 -0.0364
  259MOL0     N34880   7.816   1.189   3.980  0.3323 -0.0338 -0.0692
  259MOL0     N34881   7.728   1.151   4.054 -0.0607  0.5485 -0.2222
  259MOL0     C34882   6.464   0.931   3.913  0.5055  0.2743  0.3521
  259MOL0     C34883   6.345   0.965   3.851 -0.5816  0.0932 -0.6570
  259MOL0     C34884   5.991   1.111   3.640  0.0778 -0.2504 -0.2083
  259MOL0     C34885   6.007   1.249   3.627  0.6990 -0.3822  1.0239
  259MOL0     C34886   5.897   1.331   3.576  0.7175  0.6330 -0.0341
  259MOL0     C34887   5.772   1.272   3.554  0.5596 -0.2902  0.9543
  259MOL0     O34888   5.671   1.350   3.520 -0.0290  0.3127  0.5029
  259MOL0     C34889   5.604   1.327   3.390 -0.1105  0.1954  0.2332
  259MOL0     C34890   5.475   1.399   3.388 -0.3309 -0.3424 -0.5066
  259MOL0     C34891   5.361   1.320   3.456  0.3136 -0.4433  0.3995
  259MOL0     C34892   5.274   1.253   3.351 -0.3529 -0.5049 -0.0524
  259MOL0     C34893   5.162   1.169   3.397  0.2997 -0.0911 -0.1554
  259MOL0     C34894   5.063   1.118   3.442 -0.4095  0.3096 -0.6573
  259MOL0     C34895   5.758   1.139   3.574  0.0668 -0.0427 -0.2512
  259MOL0     C34896   5.859   1.056   3.624  0.8971  0.1536  0.4275
  259MOL0     C34897   5.812   0.913   3.661  0.5550 -0.0026  0.7775
  259MOL0     H34898   6.458   1.158   3.594 -1.0250 -0.7050 -0.0835
  259MOL0     H34899   6.675   1.103   3.706  0.8049 -0.6721  1.6501
  259MOL0     H34900   6.839   0.908   3.762  0.0840  2.5706 -0.8627
  259MOL0     H34901   6.846   1.056   3.865 -3.7069 -0.1860 -0.7247
  259MOL0     H34902   6.956   0.779   3.922 -0.8651 -0.4147  1.3931
  259MOL0     H34903   6.943   0.913   4.037 -0.6523  0.8341 -0.0427
  259MOL0     H34904   7.072   0.960   3.762 -1.3817 -2.9715 -1.1130
  259MOL0     H34905   7.165   0.878   3.879  1.5718  2.5207 -0.8872
  259MOL0     H34906   7.188   1.126   3.879 -2.1708 -0.2359 -3.7751
  259MOL0     H34907   7.034   1.143   3.941  2.2094  1.9779 -1.5769
  259MOL0     H34908   7.099   1.032   4.166  3.4125  0.0046  5.1636
  259MOL0     H34909   7.240   0.970   4.087  0.6992  0.0846 -1.5324
  259MOL0     H34910   7.191   1.260   4.168 -1.7545 -1.5038  2.0200
  259MOL0     H34911   7.293   1.140   4.246 -0.3073  0.1740  0.8970
  259MOL0     H34912   7.427   1.294   4.138 -2.5665  2.3220 -0.4252
  259MOL0     H34913   7.363   1.260   3.975 -0.6378 -0.5280 -0.4838
  259MOL0     H34914   7.506   1.049   4.143  1.0668 -0.8496 -0.4661
  259MOL0     H34915   7.435   1.015   3.986  0.0918  0.4452 -0.4571
  259MOL0     H34916   7.579   1.156   3.755 -0.7502  4.3160 -0.1125
  259MOL0     H34917   7.796   1.205   3.646  0.6178 -2.1292  0.2719
  259MOL0     H34918   7.868   1.340   3.718 -1.9913 -0.4288 -1.1143
  259MOL0     H34919   7.987   1.061   3.775 -0.6469  0.4542  0.8927
  259MOL0     H34920   7.996   1.128   3.607 -0.1511  1.0140 -0.4833
  259MOL0     H34921   8.113   1.279   3.838 -2.1513 -1.5713  1.1214
  259MOL0     H34922   8.121   1.317   3.668  0.5547 -0.6039 -0.7747
  259MOL0     H34923   8.336   1.195   3.733 -0.2961 -0.1966  1.4352
  259MOL0     H34924   8.261   1.175   3.577  0.6572 -0.1124  0.0622
  259MOL0     H34925   8.469   1.116   3.604 -1.1339 -0.1901 -0.1172
  259MOL0     H34926   8.675   0.985   3.583 -0.2021 -0.1286 -0.0129
  259MOL0     H34927   8.965   0.748   3.766  1.2810 -0.0170 -0.9495
  259MOL0     H34928   9.177   0.638   3.819 -0.4102  1.2511  1.5347
  259MOL0     H34929   9.376   0.526   3.817  1.0226 -1.3226  1.8314
  259MOL0     H34930   9.285   0.469   3.954  0.5537  2.4048  0.0635
  259MOL0     H34931   9.393   0.225   3.910  0.9623 -0.2148 -1.2234
  259MOL0     H34932   9.498   0.308   3.804  0.8763  1.6489  1.1061
  259MOL0     H34933   9.563   0.466   3.994 -1.0715  1.4654  3.5690
  259MOL0     H34934   9.442   0.393   4.094  1.1436  0.8409  0.5626
  259MOL0     H34935   9.681   0.243   3.974 -1.3355 -0.5652 -0.1196
  259MOL0     H34936   9.551   0.173   4.069 -1.8903  0.7386 -0.8041
  259MOL0     H34937   9.597   0.286   4.270 -0.6300  1.0481 -1.0235
  259MOL0     H34938   9.712   0.402   4.190  0.6452  0.5658  1.6779
  259MOL0     H34939   9.836   0.233   4.325  3.4547  1.3045 -1.5973
  259MOL0     H34940   9.770   0.110   4.221  0.6977 -0.2209 -0.6234
  259MOL0     H34941   9.935   0.344   4.136  0.7739 -0.0528 -0.2900
  259MOL0     H34942   9.894   0.206   4.030 -0.7185  2.0171  0.1150
  259MOL0     H34943  10.121   0.238   4.217 -1.2729  1.6738  1.4104
  259MOL0     H34944  10.012   0.099   4.247 -1.9430 -0.0677 -1.2282
  259MOL0     H34945   9.029   0.261   3.725 -0.8234 -0.4680 -0.0617
  259MOL0     H34946   8.802   0.359   3.667  0.7418 -0.0498 -4.0835
  259MOL0     H34947   8.477   0.634   3.710 -2.6150  0.3006  0.7693
  259MOL0     H34948   8.263   0.768   3.749 -0.5151 -0.1249 -0.8626
  259MOL0     H34949   6.451   0.884   4.009 -0.9255  1.1076  0.6026
  259MOL0     H34950   6.266   0.933   3.918  0.2430 -0.5963  0.0142
  259MOL0     H34951   6.100   1.306   3.633 -0.4558  1.8080 -0.3937
  259MOL0     H34952   5.920   1.437   3.568 -0.1011  1.0395  2.2614
  259MOL0     H34953   5.597   1.220   3.366  0.6782  0.2050 -0.0616
  259MOL0     H34954   5.661   1.381   3.314  0.3379  2.2361  1.9279
  259MOL0     H34955   5.455   1.432   3.285  0.2332 -1.3292 -0.9504
  259MOL0     H34956   5.487   1.490   3.447  2.0150  0.2559 -1.7622
  259MOL0     H34957   5.305   1.389   3.520 -0.0779 -1.6603  1.4114
  259MOL0     H34958   5.409   1.242   3.516  0.6583 -0.2390  0.3978
  259MOL0     H34959   5.238   1.333   3.287  0.7737  0.1803  0.1533
  259MOL0     H34960   5.331   1.187   3.284 -0.3261 -1.2440  0.6760
  259MOL0     H34961   4.977   1.068   3.482  1.1919 -2.9626 -1.0039
  259MOL0     H34962   5.654   1.107   3.571 -0.1930  0.4417  1.8931
  259MOL0     H34963   5.715   0.894   3.614  1.3667 -0.7003 -0.7001
  259MOL0     H34964   5.882   0.843   3.614  1.5124  2.0062 -0.9213
  259MOL0     H34965   5.813   0.899   3.770  2.4402  0.1107  0.8108
  260MOL0     O34966  11.319   6.195   6.297 -0.0319  0.6823 -0.1948
  260MOL0     C34967  11.332   6.228   6.417  0.1529 -0.6950 -0.3300
  260MOL0     O34968  11.446   6.226   6.495  0.1640  0.6344 -1.0015
  260MOL0     C34969  11.567   6.208   6.445 -0.5742  0.1596  0.1656
  260MOL0     C34970  11.622   6.316   6.373 -0.4723  0.2611  0.4411
  260MOL0     C34971  11.749   6.322   6.316 -0.6038  0.8406  0.2089
  260MOL0     C34972  11.825   6.203   6.316  0.2994  0.2391  0.2239
  260MOL0     O34973  11.953   6.216   6.249 -0.7297 -0.3004 -0.4339
  260MOL0     C34974  12.039   6.104   6.258 -0.8370 -0.2788  0.6617
  260MOL0     C34975  12.148   6.121   6.158  0.1299 -0.1281  0.2662
  260MOL0     C34976  12.090   6.109   6.010  0.2553  1.7498  0.3257
  260MOL0     C34977  12.205   6.130   5.907 -0.2332 -0.7240  0.2414
  260MOL0     C34978  12.158   6.092   5.772 -0.5665 -0.0336  1.6733
  260MOL0     C34979  12.274   6.106   5.668 -0.3732 -0.2938  1.0895
  260MOL0     C34980  12.242   6.021   5.540  0.1621  0.0091 -0.4792
  260MOL0     C34981  12.161   6.116   5.446 -0.0161  0.0411 -0.2340
  260MOL0     N34982  12.138   6.064   5.315 -0.1365 -0.5346 -0.5991
  260MOL0     C34983  12.040   5.966   5.276 -0.4279 -0.2937 -0.2294
  260MOL0     C34984  12.057   5.961   5.143 -0.2404 -0.7273  0.2137
  260MOL0     C34985  11.983   5.876   5.048  0.7165  0.1784 -0.1554
  260MOL0     C34986  11.831   5.879   5.055  0.2666  0.3139 -0.5396
  260MOL0     C34987  11.789   6.020   5.013  1.1858 -0.0281 -0.7728
  260MOL0     C34988  11.639   6.039   5.019 -0.6997 -0.4931  0.0728
  260MOL0     O34989  11.586   5.966   4.904 -0.2548  0.5504 -0.3459
  260MOL0     C34990  11.452   5.941   4.894 -0.5613  0.1140 -0.5290
  260MOL0     C34991  11.358   5.956   4.991  0.2261  0.4567  0.6093
  260MOL0     C34992  11.219   5.932   4.966  0.0071 -0.0574 -0.4547
  260MOL0     C34993  11.168   5.888   4.848 -0.2772 -0.8625  0.1753
  260MOL0     C34994  11.034   5.847   4.828  0.3301  0.0365 -0.7778
  260MOL0     O34995  10.954   5.831   4.938 -0.5173  0.4830  0.0301
  260MOL0     C34996  10.837   5.770   4.906  0.0200 -0.5091 -0.4801
  260MOL0     C34997  10.815   5.638   4.876 -0.3452 -0.1496  0.1372
  260MOL0     C34998  10.677   5.593   4.854 -1.0557  0.3432  0.1328
  260MOL0     C34999  10.570   5.690   4.858  0.2469  0.2674 -0.1559
  260MOL0     O35000  10.446   5.652   4.819 -0.5733 -0.2736 -0.2583
  260MOL0     C35001  10.395   5.531   4.883 -0.1815  0.3301  0.0991
  260MOL0     C35002  10.335   5.574   5.019  0.1160 -0.0764 -0.0155
  260MOL0     C35003  10.220   5.671   5.005  0.3073  0.6814 -0.9955
  260MOL0     C35004  10.161   5.703   5.146 -1.2393 -0.3571 -0.4353
  260MOL0     C35005  10.054   5.806   5.144  1.0688  0.1956  0.1626
  260MOL0     C35006   9.941   5.767   5.057  0.1521  0.3853 -0.4239
  260MOL0     C35007   9.818   5.853   5.090 -0.1140 -0.1685 -0.4169
  260MOL0     C35008   9.738   5.784   5.204 -0.3843  0.0580  0.0582
  260MOL0    Cl35009   9.641   5.653   5.124  0.1509 -0.2769 -0.1806
  260MOL0     C35010  10.598   5.822   4.899 -0.7085  0.7481 -0.2766
  260MOL0     C35011  10.726   5.865   4.919 -0.6838 -0.5514  0.8929
  260MOL0     O35012  10.992   5.814   4.715 -0.1651 -0.1724 -0.9379
  260MOL0     C35013  11.269   5.867   4.754 -0.8030 -0.2395  0.7999
  260MOL0     C35014  11.404   5.895   4.779 -0.0413  0.3679  0.6631
  260MOL0     N35015  12.167   6.038   5.105 -0.5755 -1.1094 -1.0107
  260MOL0     N35016  12.206   6.109   5.205 -0.5040  1.3909 -0.1709
  260MOL0     C35017  11.766   6.090   6.384 -0.2286  0.4361  0.3692
  260MOL0     C35018  11.644   6.093   6.451 -0.7959 -1.0904  0.1895
  260MOL0     C35019  11.218   6.297   6.487 -0.5533  0.5309  0.1315
  260MOL0     C35020  11.175   6.261   6.614  0.7019  1.0114 -0.2925
  260MOL0     C35021  11.052   6.295   6.674  0.0281  0.3974 -0.6948
  260MOL0     C35022  10.976   6.389   6.604 -0.0490 -0.2585  0.1686
  260MOL0     O35023  10.849   6.431   6.645 -0.2338 -0.7523  0.2177
  260MOL0     C35024  10.817   6.405   6.785  0.4782  0.6916  0.0313
  260MOL0     C35025  10.699   6.499   6.834 -0.0389 -0.4044  0.1506
  260MOL0     C35026  10.593   6.408   6.897 -0.7522  0.4308 -0.9595
  260MOL0     C35027  10.486   6.487   6.979 -0.3086 -0.3005 -0.4807
  260MOL0     C35028  10.534   6.536   7.106  0.4935 -0.3124 -0.0983
  260MOL0     C35029  10.571   6.577   7.211 -0.3432 -0.3188  0.3658
  260MOL0     C35030  11.024   6.448   6.478  0.6878  0.7059  0.1911
  260MOL0     C35031  11.148   6.403   6.426  1.3284  0.9209  0.2003
  260MOL0     C35032  11.192   6.464   6.300 -0.4746 -0.3119  0.4577
  260MOL0     H35033  11.581   6.417   6.372  0.4553  0.6784  1.5301
  260MOL0     H35034  11.769   6.419   6.272 -0.8544  1.2858  1.0358
  260MOL0     H35035  12.082   6.090   6.357 -0.0485 -1.2090  0.2110
  260MOL0     H35036  11.985   6.012   6.233  3.0725 -2.0487 -2.5405
  260MOL0     H35037  12.231   6.051   6.174  2.6346  2.0575 -2.1395
  260MOL0     H35038  12.202   6.214   6.174  2.7406 -1.1452 -1.8712
  260MOL0     H35039  12.028   6.198   5.995  0.2566  1.5118 -1.2374
  260MOL0     H35040  12.030   6.019   5.994 -1.7034  2.8581  1.1245
  260MOL0     H35041  12.235   6.236   5.903  0.8828 -1.0470 -0.4373
  260MOL0     H35042  12.288   6.059   5.918 -1.6269 -2.4463 -0.0841
  260MOL0     H35043  12.142   5.984   5.777 -2.0666 -0.4254 -3.9029
  260MOL0     H35044  12.064   6.140   5.741 -0.8133 -2.1369 -1.3040
  260MOL0     H35045  12.305   6.207   5.639  0.9008 -0.6642  1.1268
  260MOL0     H35046  12.370   6.069   5.707  0.0701 -0.1129  0.1846
  260MOL0     H35047  12.177   5.942   5.579  0.8486 -1.3080 -1.8826
  260MOL0     H35048  12.331   5.983   5.488 -0.9808 -2.0913 -0.9954
  260MOL0     H35049  12.064   6.129   5.496 -0.3180 -0.2389 -0.7351
  260MOL0     H35050  12.205   6.215   5.434 -0.5623  0.4340  0.8355
  260MOL0     H35051  11.962   5.917   5.333 -1.2564  2.8367  1.5912
  260MOL0     H35052  12.020   5.914   4.952  1.7709  2.3895  1.0649
  260MOL0     H35053  12.026   5.776   5.053 -2.4674 -1.3741 -0.6989
  260MOL0     H35054  11.785   5.805   4.989 -0.6101  1.0852 -0.8146
  260MOL0     H35055  11.801   5.851   5.156  3.6949 -1.0360  0.2351
  260MOL0     H35056  11.820   6.041   4.910 -1.1080  2.5501 -1.0718
  260MOL0     H35057  11.840   6.098   5.070  2.4767 -0.0671 -1.8223
  260MOL0     H35058  11.591   6.136   5.007 -1.3415 -0.9544 -1.3554
  260MOL0     H35059  11.606   5.989   5.111 -0.9866  0.2908  0.4078
  260MOL0     H35060  11.389   5.979   5.092  3.8606  0.9499 -0.4770
  260MOL0     H35061  11.144   5.958   5.040 -1.4340  1.5726 -2.3612
  260MOL0     H35062  10.899   5.571   4.876  1.2827  1.6447 -3.2290
  260MOL0     H35063  10.649   5.491   4.830 -1.7601  0.6138 -0.2080
  260MOL0     H35064  10.321   5.476   4.823 -1.1641  0.2422  1.3461
  260MOL0     H35065  10.474   5.457   4.900  0.7262  1.2138 -0.2297
  260MOL0     H35066  10.288   5.495   5.077  2.5435 -1.4946  0.1382
  260MOL0     H35067  10.415   5.612   5.083  1.1841 -0.9194 -0.7959
  260MOL0     H35068  10.241   5.766   4.956 -0.7869  1.5323  0.1255
  260MOL0     H35069  10.136   5.634   4.946  0.8402  1.2117 -2.1199
  260MOL0     H35070  10.239   5.726   5.220 -0.4907 -2.9857 -0.3136
  260MOL0     H35071  10.126   5.610   5.192  2.6009 -2.1834 -0.8196
  260MOL0     H35072  10.101   5.895   5.101 -0.6633  0.9167 -0.3479
  260MOL0     H35073  10.027   5.820   5.249 -0.7123  0.3391 -0.2794
  260MOL0     H35074   9.968   5.779   4.952 -1.5887 -1.1842 -1.1138
  260MOL0     H35075   9.909   5.663   5.067 -1.4993  1.0153  1.8841
  260MOL0     H35076   9.754   5.864   5.002  0.7990  0.3779 -1.0437
  260MOL0     H35077   9.854   5.948   5.132 -0.2558 -0.4708  0.4014
  260MOL0     H35078   9.813   5.757   5.279  0.2422  0.6319 -0.3413
  260MOL0     H35079   9.670   5.853   5.254  1.3332  0.4942  1.8844
  260MOL0     H35080  10.508   5.882   4.907 -1.7494 -0.9170  2.0179
  260MOL0     H35081  10.740   5.967   4.954 -2.7581 -0.8443  2.8149
  260MOL0     H35082  11.258   5.836   4.651  1.4459 -1.5323  0.8801
  260MOL0     H35083  11.470   5.858   4.701  0.4404 -1.2022  1.7704
  260MOL0     H35084  11.810   5.991   6.390 -2.6058 -0.6448  1.0181
  260MOL0     H35085  11.604   6.004   6.498 -0.5510 -1.7902 -0.8754
  260MOL0     H35086  11.232   6.183   6.663 -0.4932  0.6004  0.4942
  260MOL0     H35087  11.015   6.244   6.762 -0.1745  0.5697 -0.6808
  260MOL0     H35088  10.900   6.413   6.855  2.0698 -0.2900 -1.6529
  260MOL0     H35089  10.777   6.303   6.787 -1.7384  1.2042 -4.4464
  260MOL0     H35090  10.653   6.548   6.748  0.8915 -2.8261 -1.8693
  260MOL0     H35091  10.737   6.580   6.897 -2.4968  0.1271  1.0807
  260MOL0     H35092  10.640   6.326   6.953  1.3963  1.7570 -0.7107
  260MOL0     H35093  10.547   6.366   6.807  1.1913  0.3409 -1.9498
  260MOL0     H35094  10.439   6.568   6.923 -1.8413 -0.4601  0.5063
  260MOL0     H35095  10.396   6.426   6.989 -1.9141  1.7335 -1.7918
  260MOL0     H35096  10.595   6.610   7.310  5.5047 -1.6399 -0.2183
  260MOL0     H35097  10.954   6.509   6.422 -2.4456 -1.4907  1.3881
  260MOL0     H35098  11.188   6.394   6.216  0.9518 -0.5204  0.5441
  260MOL0     H35099  11.139   6.556   6.272 -2.4765 -1.3679  0.6068
  260MOL0     H35100  11.298   6.490   6.289 -0.0518 -2.7104 -3.2645
  261MOL0     O35101  10.310  10.335   6.553  0.8736  0.2391 -0.3887
  261MOL0     C35102  10.192  10.315   6.516  0.3872  0.2426  0.3663
  261MOL0     O35103  10.112  10.218   6.565 -0.1864  0.6207  0.6888
  261MOL0     C35104  10.150  10.139   6.674 -0.7859  0.1683 -0.6358
  261MOL0     C35105  10.190  10.016   6.634  0.5515  0.9329  0.7163
  261MOL0     C35106  10.233   9.924   6.719 -0.5147 -0.0693 -0.5654
  261MOL0     C35107  10.245   9.947   6.867 -0.7593  0.0089 -0.1726
  261MOL0     O35108  10.290   9.862   6.971 -0.2010  0.3618 -0.5034
  261MOL0     C35109  10.361   9.748   6.922  0.0020  0.6868 -0.2314
  261MOL0     C35110  10.409   9.677   7.046 -0.8287  1.0069 -0.7787
  261MOL0     C35111  10.472   9.529   7.038  0.5574  0.1304  0.2831
  261MOL0     C35112  10.374   9.424   7.103 -0.4455 -0.5758 -1.0936
  261MOL0     C35113  10.407   9.295   7.031  0.2377  0.5943 -0.2886
  261MOL0     C35114  10.349   9.177   7.113  0.2407 -0.4274  0.4451
  261MOL0     C35115  10.351   9.051   7.036 -0.1090  0.4611  0.1914
  261MOL0     C35116  10.306   8.930   7.121  0.6268  0.3289  0.1190
  261MOL0     N35117  10.310   8.809   7.042  0.7649  0.3273  0.9191
  261MOL0     C35118  10.206   8.748   6.980  0.6922  1.4557 -0.0993
  261MOL0     C35119  10.265   8.632   6.937 -0.3358 -0.6555  0.1719
  261MOL0     C35120  10.184   8.540   6.855  0.6348 -0.3260  0.2778
  261MOL0     C35121  10.192   8.390   6.884 -0.2525 -0.0443 -0.2837
  261MOL0     C35122  10.328   8.326   6.848  0.0218 -0.3085 -0.0149
  261MOL0     C35123  10.366   8.332   6.695 -0.2350  0.1449 -0.1877
  261MOL0     O35124  10.420   8.459   6.666  0.4269  0.0090 -0.7117
  261MOL0     C35125  10.472   8.480   6.548 -0.2707  0.0201  0.5976
  261MOL0     C35126  10.528   8.602   6.530 -0.5317 -0.0472 -0.5600
  261MOL0     C35127  10.592   8.628   6.410  1.3733 -0.8263  0.4078
  261MOL0     C35128  10.594   8.539   6.304  0.6764 -0.7256 -0.0107
  261MOL0     C35129  10.652   8.586   6.175  0.6460 -0.3730 -0.3935
  261MOL0     O35130  10.683   8.485   6.091  0.5657  0.0843 -0.4262
  261MOL0     C35131  10.741   8.508   5.973  0.5665  1.4661  0.6325
  261MOL0     C35132  10.853   8.424   5.934 -0.2073  0.2536 -0.6088
  261MOL0     C35133  10.909   8.447   5.812 -0.3866  0.3549  0.0381
  261MOL0     C35134  10.868   8.544   5.717 -0.3389 -0.7711  0.6318
  261MOL0     O35135  10.928   8.555   5.590 -0.4575 -0.0284 -0.3875
  261MOL0     C35136  11.043   8.480   5.553  0.1646  0.6631 -0.4752
  261MOL0     C35137  11.045   8.514   5.409  0.5304  0.6451 -0.0289
  261MOL0     C35138  10.927   8.450   5.332 -0.0030 -0.2072  0.1170
  261MOL0     C35139  10.954   8.299   5.304  0.4426 -0.6135 -0.2448
  261MOL0     C35140  10.850   8.237   5.218  0.1339 -0.3770  0.7242
  261MOL0     C35141  10.710   8.245   5.272  0.3440  0.2102  0.1950
  261MOL0     C35142  10.628   8.139   5.207  0.7383  0.3090  0.8963
  261MOL0     C35143  10.471   8.160   5.224 -0.1581 -0.4595  0.5515
  261MOL0    Cl35144  10.418   8.025   5.115 -0.2882 -0.0747  0.2763
  261MOL0     C35145  10.758   8.621   5.755  1.0795 -0.2874 -0.0387
  261MOL0     C35146  10.694   8.601   5.883  0.3504  0.6674  0.9597
  261MOL0     O35147  10.695   8.702   6.163 -0.5302  0.9088 -0.1557
  261MOL0     C35148  10.530   8.413   6.322  0.2742 -0.4962  0.4748
  261MOL0     C35149  10.473   8.386   6.443  0.1713 -1.2501  0.0543
  261MOL0     N35150  10.402   8.629   6.966  0.3267  0.3301 -0.3883
  261MOL0     N35151  10.428   8.743   7.020 -0.7049  0.0983 -0.3930
  261MOL0     C35152  10.199  10.078   6.904 -0.1410  0.5617 -0.0673
  261MOL0     C35153  10.158  10.175   6.803  1.1027 -0.0717 -0.3223
  261MOL0     C35154  10.139  10.419   6.420  0.5759  0.8317  0.1729
  261MOL0     C35155  10.225  10.521   6.376 -0.3862 -0.3204 -0.0844
  261MOL0     C35156  10.180  10.628   6.293 -0.4993  0.1890 -0.3753
  261MOL0     C35157  10.039  10.644   6.276  0.5865  0.5712 -0.2503
  261MOL0     O35158   9.975  10.748   6.232 -0.0966 -0.4228 -1.4080
  261MOL0     C35159  10.056  10.848   6.183  0.2831  0.3713  0.6989
  261MOL0     C35160  10.108  10.816   6.043 -0.3992 -0.1774  0.2071
  261MOL0     C35161  10.011  10.856   5.930 -0.4284  0.4440 -0.5871
  261MOL0     C35162  10.058  10.821   5.790 -0.4577  0.4189 -0.2262
  261MOL0     C35163  10.157  10.906   5.741 -0.0784  0.1847 -0.3926
  261MOL0     C35164  10.249  10.974   5.708 -0.0909 -0.0375  0.0726
  261MOL0     C35165   9.951  10.549   6.322 -0.2008  0.4597  0.6011
  261MOL0     C35166   9.989  10.435   6.395  0.6476 -0.1108  0.9225
  261MOL0     C35167   9.886  10.331   6.436 -0.5342 -0.7362  0.3965
  261MOL0     H35168  10.188  10.000   6.527 -0.9973 -1.2432  1.0203
  261MOL0     H35169  10.262   9.829   6.676 -0.5747 -0.4499  0.2182
  261MOL0     H35170  10.296   9.686   6.861  1.3417 -1.8366  0.7389
  261MOL0     H35171  10.452   9.772   6.866  0.5980  0.5176  0.6451
  261MOL0     H35172  10.321   9.669   7.111 -1.1051  0.9997 -1.1520
  261MOL0     H35173  10.478   9.733   7.109 -1.9910 -0.4882  2.0203
  261MOL0     H35174  10.569   9.526   7.089  0.2477  1.0963  0.9673
  261MOL0     H35175  10.498   9.496   6.937  0.7660 -0.9668  0.6896
  261MOL0     H35176  10.398   9.409   7.209  1.5008 -0.6276 -1.5153
  261MOL0     H35177  10.271   9.453   7.078 -0.2508  0.2389 -0.9650
  261MOL0     H35178  10.366   9.276   6.932  0.2833 -2.7196  0.2117
  261MOL0     H35179  10.515   9.273   7.026 -0.2415 -2.1081 -0.6234
  261MOL0     H35180  10.397   9.168   7.211 -2.3208  0.3090  1.8599
  261MOL0     H35181  10.250   9.202   7.154 -0.1214 -4.7950  2.8444
  261MOL0     H35182  10.455   9.037   7.005 -0.7976 -1.7848 -1.3915
  261MOL0     H35183  10.281   9.050   6.952  0.0795 -3.0449 -0.0676
  261MOL0     H35184  10.366   8.913   7.212  1.4086  1.5926 -0.1312
  261MOL0     H35185  10.200   8.935   7.146  0.0923 -5.1301  0.2422
  261MOL0     H35186  10.103   8.782   6.971 -0.5618 -1.8976  0.0790
  261MOL0     H35187  10.082   8.560   6.891  0.8322 -2.1759  2.0799
  261MOL0     H35188  10.199   8.572   6.752 -0.1672  1.3992  0.6656
  261MOL0     H35189  10.177   8.372   6.990 -1.5577 -2.2725 -0.7964
  261MOL0     H35190  10.111   8.340   6.830 -1.3839  0.3896  0.9575
  261MOL0     H35191  10.316   8.220   6.867  0.7544 -0.3722  0.1437
  261MOL0     H35192  10.406   8.380   6.904 -1.8416  3.3800 -0.6350
  261MOL0     H35193  10.282   8.304   6.631 -1.9799  1.5846  1.3644
  261MOL0     H35194  10.444   8.260   6.669  0.7160 -0.0226  2.7150
  261MOL0     H35195  10.543   8.674   6.610 -1.8596 -0.9965  0.5883
  261MOL0     H35196  10.642   8.724   6.399 -1.5807  0.7777  0.1064
  261MOL0     H35197  10.889   8.348   6.002 -1.0436  1.1561  0.8762
  261MOL0     H35198  10.992   8.380   5.789 -2.3075 -2.0026 -0.4683
  261MOL0     H35199  11.139   8.509   5.597  2.5122 -3.2820 -2.4324
  261MOL0     H35200  11.027   8.373   5.566  1.7900  0.1565 -2.2345
  261MOL0     H35201  11.050   8.623   5.401  2.5937  0.4451 -3.8985
  261MOL0     H35202  11.135   8.475   5.361  0.5889  3.4857 -2.4893
  261MOL0     H35203  10.831   8.465   5.382 -0.4394  1.1627 -1.0784
  261MOL0     H35204  10.922   8.499   5.234  4.0238 -3.0698 -1.7945
  261MOL0     H35205  10.967   8.243   5.397  0.6374  0.0556  0.1403
  261MOL0     H35206  11.049   8.295   5.252  0.6387  2.9159 -0.4134
  261MOL0     H35207  10.885   8.134   5.201  2.4848  0.4383  0.1868
  261MOL0     H35208  10.851   8.287   5.121 -5.0558 -2.9635 -1.0576
  261MOL0     H35209  10.701   8.228   5.379 -2.9429 -1.3008 -0.2197
  261MOL0     H35210  10.652   8.337   5.264 -0.5484 -0.3568  0.0660
  261MOL0     H35211  10.656   8.039   5.242 -1.4094  0.0370  1.9821
  261MOL0     H35212  10.647   8.136   5.099 -0.9844 -0.4459  0.5702
  261MOL0     H35213  10.449   8.146   5.330  0.8588  0.6405  0.9312
  261MOL0     H35214  10.444   8.264   5.209  0.1372 -0.2211  1.6031
  261MOL0     H35215  10.723   8.702   5.691 -1.1650 -1.3140 -0.1901
  261MOL0     H35216  10.609   8.667   5.897  1.9324  3.1951 -0.4850
  261MOL0     H35217  10.532   8.331   6.251 -0.1379 -1.5315  1.6238
  261MOL0     H35218  10.433   8.286   6.451 -0.7637 -0.9184 -0.3744
  261MOL0     H35219  10.209  10.114   7.006  1.0717  1.2554 -0.4102
  261MOL0     H35220  10.116  10.270   6.835 -1.8986 -1.7894  1.3869
  261MOL0     H35221  10.330  10.522   6.404 -0.9168  3.8588  2.4349
  261MOL0     H35222  10.253  10.705   6.269  1.0401 -0.3237  2.2587
  261MOL0     H35223  10.139  10.868   6.253  0.0719 -1.5392  1.5667
  261MOL0     H35224   9.993  10.938   6.185 -2.6854 -1.5936  1.1523
  261MOL0     H35225  10.138  10.711   6.034  3.0512  0.4028  2.6271
  261MOL0     H35226  10.205  10.867   6.042 -0.0015 -0.8580  1.3359
  261MOL0     H35227   9.996  10.964   5.939 -0.2796  0.3075  1.9329
  261MOL0     H35228   9.915  10.808   5.947  0.0533 -1.1882 -2.1677
  261MOL0     H35229  10.094  10.718   5.789  0.5638  0.7664  0.0086
  261MOL0     H35230   9.979  10.815   5.714 -0.7926 -4.4170  0.1537
  261MOL0     H35231  10.327  11.038   5.669 -0.1887  0.8972  1.3568
  261MOL0     H35232   9.846  10.573   6.314 -0.7120 -2.0042 -1.2245
  261MOL0     H35233   9.879  10.326   6.545 -0.2980  2.1738  0.6176
  261MOL0     H35234   9.785  10.361   6.408  0.0476  2.6737  1.5259
  261MOL0     H35235   9.910  10.227   6.410  0.9464 -1.1680  3.1677
  262MOL0     O35236   8.635   5.111   1.746 -0.5573 -0.4473  0.1114
  262MOL0     C35237   8.619   5.027   1.838  0.0880  0.2240 -0.5352
  262MOL0     O35238   8.717   4.959   1.893 -0.0615 -0.1267  0.3896
  262MOL0     C35239   8.847   4.955   1.852  0.0174 -0.0012  0.0231
  262MOL0     C35240   8.912   5.023   1.743  0.0527 -0.3979  0.0380
  262MOL0     C35241   9.042   5.006   1.722  0.2531  0.4855 -0.1194
  262MOL0     C35242   9.120   4.919   1.796  0.1589  0.8201 -0.2450
  262MOL0     O35243   9.246   4.904   1.742  0.5302  0.3907  0.0203
  262MOL0     C35244   9.335   4.840   1.826 -0.5959 -0.3334  0.2813
  262MOL0     C35245   9.478   4.829   1.777 -0.1990 -0.4509 -0.1920
  262MOL0     C35246   9.526   4.964   1.733  0.6466  0.0770  0.0541
  262MOL0     C35247   9.654   4.949   1.662  0.0833  0.1032  1.2269
  262MOL0     C35248   9.733   5.077   1.617 -0.3394 -0.2525 -0.9704
  262MOL0     C35249   9.877   5.045   1.567  0.2316  0.4872 -0.7643
  262MOL0     C35250   9.951   5.178   1.527 -0.3821  1.2546  0.2449
  262MOL0     C35251  10.067   5.165   1.434  0.2813  0.2944  0.0926
  262MOL0     N35252  10.024   5.109   1.305 -0.2675  0.1247  0.6697
  262MOL0     C35253   9.895   5.115   1.237  0.7733  0.0649  0.4258
  262MOL0     C35254   9.910   5.020   1.137 -0.3786 -0.1706 -0.7714
  262MOL0     C35255   9.810   4.989   1.036 -0.5385 -0.1162  0.4735
  262MOL0     C35256   9.741   4.858   1.078 -1.4801  0.3136 -0.2130
  262MOL0     C35257   9.641   4.868   1.196 -0.6812  0.5059 -0.3452
  262MOL0     C35258   9.519   4.949   1.171 -0.2898 -0.3482 -1.0287
  262MOL0     O35259   9.438   4.902   1.277  0.1786 -0.6239  0.2405
  262MOL0     C35260   9.304   4.928   1.260 -0.1027 -0.4912  0.0955
  262MOL0     C35261   9.251   4.985   1.146 -0.1593  0.8608 -0.5259
  262MOL0     C35262   9.117   5.010   1.131 -0.3009 -0.0938 -0.1161
  262MOL0     C35263   9.028   4.994   1.236  0.4794  0.0320 -0.6563
  262MOL0     C35264   8.884   5.021   1.218 -0.0778 -0.3120  0.6091
  262MOL0     O35265   8.808   5.042   1.325  0.0361  0.0854  0.4845
  262MOL0     C35266   8.675   5.065   1.314 -0.3267  0.3511  0.0593
  262MOL0     C35267   8.612   5.150   1.222  0.0969 -0.6166  0.0327
  262MOL0     C35268   8.471   5.162   1.221  0.8295  1.2804  0.4290
  262MOL0     C35269   8.396   5.092   1.322  0.3809  0.1969  0.2220
  262MOL0     O35270   8.262   5.085   1.306 -0.1548 -0.7680  0.1630
  262MOL0     C35271   8.181   5.134   1.410 -1.0807  0.0376  0.6127
  262MOL0     C35272   8.029   5.141   1.359 -0.9197  0.0670 -0.0424
  262MOL0     C35273   7.921   5.177   1.461  0.8889 -0.0778  1.0804
  262MOL0     C35274   7.909   5.094   1.591 -0.5436  0.2084  0.0913
  262MOL0     C35275   7.781   5.120   1.678  0.7104  0.5916 -0.0848
  262MOL0     C35276   7.665   5.050   1.616 -0.0693 -0.2254  0.0578
  262MOL0     C35277   7.524   5.053   1.694 -0.1639  0.4736 -0.1022
  262MOL0     C35278   7.424   4.972   1.618  0.2870 -0.1621  1.9152
  262MOL0    Cl35279   7.482   4.815   1.549 -0.1634 -0.1849  0.0701
  262MOL0     C35280   8.464   5.026   1.420  0.3592  0.1082  0.2675
  262MOL0     C35281   8.601   5.007   1.419  1.0844 -0.1698  0.7135
  262MOL0     O35282   8.841   5.035   1.105  0.5431 -0.2737  0.3464
  262MOL0     C35283   9.072   4.942   1.357 -0.2849  0.2782 -0.9606
  262MOL0     C35284   9.211   4.905   1.366  0.0798  1.3284  0.9907
  262MOL0     N35285  10.039   4.967   1.147 -0.1509 -0.1685  0.8118
  262MOL0     N35286  10.101   5.024   1.240 -0.6905 -0.3202  0.4311
  262MOL0     C35287   9.060   4.847   1.903  0.6237 -0.0098 -1.1810
  262MOL0     C35288   8.928   4.867   1.942 -0.0506 -0.4002  0.2564
  262MOL0     C35289   8.483   5.001   1.880 -0.1558 -0.2109 -0.1375
  262MOL0     C35290   8.390   5.106   1.874  0.3079  0.4540 -0.3862
  262MOL0     C35291   8.263   5.089   1.931  0.6442 -0.1394 -1.0810
  262MOL0     C35292   8.219   4.978   2.004  0.0560  0.2060  0.1901
  262MOL0     O35293   8.096   4.950   2.061 -0.3967 -0.0757  0.7597
  262MOL0     C35294   7.985   5.024   2.014  0.0347  0.7127  0.8178
  262MOL0     C35295   7.865   4.965   2.091 -0.7659 -0.4342 -0.0949
  262MOL0     C35296   7.737   5.037   2.041  0.0404  0.6721 -0.1963
  262MOL0     C35297   7.615   5.022   2.131 -0.0167  0.2359 -0.3914
  262MOL0     C35298   7.631   5.068   2.271 -0.1998 -0.0997  0.4614
  262MOL0     C35299   7.647   5.112   2.373  1.1226  0.3924 -0.0317
  262MOL0     C35300   8.313   4.876   2.014 -0.7515 -0.5841 -0.2308
  262MOL0     C35301   8.433   4.873   1.942  0.0754 -0.3854  0.5969
  262MOL0     C35302   8.520   4.747   1.958  0.8768 -0.1893  0.3030
  262MOL0     H35303   8.855   5.093   1.683 -1.6413 -0.8016  1.1105
  262MOL0     H35304   9.082   5.057   1.635  2.1735  0.4051  0.6751
  262MOL0     H35305   9.337   4.881   1.927  3.0856 -2.0463  1.0613
  262MOL0     H35306   9.300   4.737   1.839  0.9214 -0.4707  4.7417
  262MOL0     H35307   9.472   4.749   1.702 -1.2203  0.5960 -1.2593
  262MOL0     H35308   9.551   4.793   1.851  1.2868  0.2750 -1.2458
  262MOL0     H35309   9.549   5.021   1.823  1.9855 -1.5817  0.8074
  262MOL0     H35310   9.462   5.019   1.663  2.1702  0.7368 -0.8864
  262MOL0     H35311   9.715   4.887   1.728 -3.3609 -2.3687  2.3420
  262MOL0     H35312   9.634   4.888   1.573  0.5459 -1.1826  1.9773
  262MOL0     H35313   9.685   5.120   1.529  0.6850  0.2686 -1.2855
  262MOL0     H35314   9.729   5.149   1.699 -3.1508  2.1796 -3.0370
  262MOL0     H35315   9.922   5.009   1.660 -0.8524 -0.3594 -0.5422
  262MOL0     H35316   9.898   4.979   1.482  1.6973  0.9341 -0.7708
  262MOL0     H35317   9.981   5.224   1.622 -0.1707  2.8920 -0.5699
  262MOL0     H35318   9.874   5.240   1.481 -0.4829  1.1416  0.2635
  262MOL0     H35319  10.116   5.262   1.417  0.4893 -0.0522 -1.4749
  262MOL0     H35320  10.136   5.088   1.467 -0.4302 -0.4277 -0.0803
  262MOL0     H35321   9.821   5.189   1.265  1.9708  1.0803  0.9794
  262MOL0     H35322   9.736   5.065   1.010 -1.5261 -0.7996  1.2068
  262MOL0     H35323   9.855   4.953   0.943 -1.7961  0.2097 -0.2782
  262MOL0     H35324   9.690   4.824   0.988  1.3255 -0.5344 -1.5846
  262MOL0     H35325   9.815   4.781   1.099 -1.9397 -0.7729 -2.3938
  262MOL0     H35326   9.697   4.906   1.281 -1.5583  0.8030  0.1092
  262MOL0     H35327   9.611   4.763   1.209  1.2682 -0.2304 -1.2515
  262MOL0     H35328   9.481   4.907   1.077  1.9305 -1.0918 -1.6567
  262MOL0     H35329   9.524   5.058   1.174 -1.4473 -0.2913 -0.6858
  262MOL0     H35330   9.301   5.002   1.051 -0.3227 -0.9547 -0.9664
  262MOL0     H35331   9.098   5.051   1.032  1.8291  0.9657 -0.1502
  262MOL0     H35332   8.675   5.196   1.147  2.3039 -3.0271  0.2657
  262MOL0     H35333   8.407   5.205   1.145 -0.4074  2.8527  2.2335
  262MOL0     H35334   8.191   5.074   1.501 -3.2582  1.1888  1.7024
  262MOL0     H35335   8.206   5.237   1.436 -1.4157 -0.2582  2.2386
  262MOL0     H35336   8.020   5.212   1.276 -1.0995 -1.0368 -0.9966
  262MOL0     H35337   7.999   5.045   1.316  0.2813 -0.5444  0.4211
  262MOL0     H35338   7.928   5.283   1.488 -1.2092 -0.0174  1.5426
  262MOL0     H35339   7.828   5.156   1.407 -0.3231  2.0418  2.2112
  262MOL0     H35340   7.993   5.124   1.655 -0.7258 -2.3473  1.6724
  262MOL0     H35341   7.919   4.989   1.563  0.5432  0.4549 -0.4827
  262MOL0     H35342   7.761   5.227   1.685 -1.4735  0.1713  0.9822
  262MOL0     H35343   7.797   5.067   1.772 -1.4442 -2.9471 -1.4840
  262MOL0     H35344   7.649   5.107   1.524  0.8006 -0.1621 -0.0558
  262MOL0     H35345   7.688   4.944   1.605  1.9401 -0.0960  2.2836
  262MOL0     H35346   7.493   5.156   1.717  1.1945  0.8286  0.2237
  262MOL0     H35347   7.536   4.997   1.787  2.9921  0.0665 -0.6408
  262MOL0     H35348   7.330   4.963   1.675  0.4873  0.7713  2.4247
  262MOL0     H35349   7.404   5.037   1.533 -0.0253 -3.4999 -0.7551
  262MOL0     H35350   8.412   4.979   1.502 -1.2714 -2.8363 -2.2521
  262MOL0     H35351   8.646   4.947   1.497 -0.1240  0.3717  1.8670
  262MOL0     H35352   9.003   4.905   1.432  2.6614 -2.0850  0.8350
  262MOL0     H35353   9.244   4.853   1.455  1.4958 -1.7425 -1.1373
  262MOL0     H35354   9.115   4.781   1.969 -0.9155  0.3565  0.5102
  262MOL0     H35355   8.885   4.833   2.035  1.1899  1.6513  1.6732
  262MOL0     H35356   8.432   5.202   1.845  2.1427  0.3963  1.8702
  262MOL0     H35357   8.201   5.178   1.942  2.0811  0.6606  1.2732
  262MOL0     H35358   7.958   5.009   1.909 -0.7652  1.2062  0.9371
  262MOL0     H35359   7.988   5.130   2.041  1.0885  1.4316 -1.8468
  262MOL0     H35360   7.876   4.982   2.198 -0.7748 -0.3373 -0.1093
  262MOL0     H35361   7.859   4.858   2.072  0.7289 -0.6574  0.5471
  262MOL0     H35362   7.711   4.993   1.944 -0.9393 -4.0132  1.8943
  262MOL0     H35363   7.756   5.144   2.032 -0.4533  0.8925  1.1545
  262MOL0     H35364   7.529   5.078   2.092 -2.2615 -1.0447  2.2947
  262MOL0     H35365   7.587   4.916   2.133 -1.7290  0.6642 -0.2573
  262MOL0     H35366   7.667   5.147   2.472  3.7064  3.4749 -1.4727
  262MOL0     H35367   8.285   4.796   2.082 -0.2098 -2.5859 -2.2518
  262MOL0     H35368   8.601   4.763   2.030  2.0041  0.5485 -1.0751
  262MOL0     H35369   8.451   4.671   1.995  0.5326 -0.6576 -1.2211
  262MOL0     H35370   8.569   4.697   1.874 -0.0121 -3.3156  1.5227
  263MOL0     O35371   3.140   8.521  10.534  0.2946 -0.0507 -0.0209
  263MOL0     C35372   3.215   8.599  10.474  0.6734 -0.3948  0.2089
  263MOL0     O35373   3.350   8.568  10.464 -0.2220 -0.5727  0.0090
  263MOL0     C35374   3.410   8.476  10.548 -0.2592 -0.2534  0.0023
  263MOL0     C35375   3.513   8.395  10.484  0.8654  1.0191 -0.7693
  263MOL0     C35376   3.570   8.306  10.570 -0.0658  1.0378  0.3134
  263MOL0     C35377   3.543   8.298  10.709  0.2592  0.4994  0.1924
  263MOL0     O35378   3.610   8.199  10.777 -0.2210 -0.5885  0.3419
  263MOL0     C35379   3.602   8.191  10.923 -0.1821 -0.3874  0.6580
  263MOL0     C35380   3.738   8.250  10.955  0.6565 -0.1402 -0.5026
  263MOL0     C35381   3.800   8.189  11.089 -0.4749 -0.3521 -0.1591
  263MOL0     C35382   3.716   8.248  11.213 -0.4935  0.7324  0.7989
  263MOL0     C35383   3.773   8.187  11.344 -0.3587 -0.3826 -0.1406
  263MOL0     C35384   3.755   8.265  11.477  0.8995 -0.1425 -0.4901
  263MOL0     C35385   3.608   8.287  11.494  0.0802  0.1735  0.1572
  263MOL0     C35386   3.565   8.437  11.486  0.0868  0.4002  0.6328
  263MOL0     N35387   3.622   8.506  11.599 -0.0381  0.4977 -0.0944
  263MOL0     C35388   3.724   8.594  11.590 -0.4264 -0.1979 -0.2455
  263MOL0     C35389   3.754   8.621  11.722 -0.0195  0.5997  0.0060
  263MOL0     C35390   3.850   8.732  11.767 -0.1618 -0.8130  0.1158
  263MOL0     C35391   3.979   8.669  11.830 -0.2659 -0.4135 -0.4429
  263MOL0     C35392   4.055   8.572  11.732 -0.5235 -0.0552  0.6474
  263MOL0     C35393   4.188   8.533  11.792  0.5240 -0.6145 -0.6938
  263MOL0     O35394   4.242   8.435  11.709  0.1083  0.3211 -0.3739
  263MOL0     C35395   4.355   8.370  11.753  0.0268  0.5434  0.3854
  263MOL0     C35396   4.475   8.438  11.769  0.6198 -0.1902  0.0733
  263MOL0     C35397   4.582   8.371  11.815 -0.5442  0.4432  0.3137
  263MOL0     C35398   4.581   8.233  11.854  0.4831 -0.3426 -1.0356
  263MOL0     C35399   4.700   8.166  11.901  0.1226  0.6468  0.1953
  263MOL0     O35400   4.808   8.240  11.944  0.3520  0.8325 -0.3028
  263MOL0     C35401   4.927   8.182  11.972  0.1140 -0.6735 -0.6314
  263MOL0     C35402   4.985   8.076  11.904  0.1063  0.7584  0.2665
  263MOL0     C35403   5.113   8.039  11.942  0.2021  0.7473 -0.2103
  263MOL0     C35404   5.187   8.100  12.045 -0.6305 -0.7428  0.0906
  263MOL0     O35405   5.307   8.057  12.069 -0.1937 -0.8922  0.2846
  263MOL0     C35406   5.351   8.023  12.200  0.8593 -0.0794 -0.9765
  263MOL0     C35407   5.417   7.880  12.191 -0.0835  0.4491 -0.0862
  263MOL0     C35408   5.567   7.882  12.145 -0.9142 -0.0939  0.1668
  263MOL0     C35409   5.662   7.963  12.246 -0.0747  0.1015 -0.1732
  263MOL0     C35410   5.803   7.983  12.195  0.1200  0.2917  0.3962
  263MOL0     C35411   5.885   7.855  12.140  0.3699  0.0416 -0.7682
  263MOL0     C35412   5.868   7.739  12.227 -0.8431 -0.7399 -0.6658
  263MOL0     C35413   5.950   7.613  12.168  0.7633 -0.3679 -0.0081
  263MOL0    Cl35414   6.122   7.621  12.214 -0.1365  0.4002  0.5064
  263MOL0     C35415   5.118   8.198  12.130 -0.2310  0.2693  0.1764
  263MOL0     C35416   4.992   8.238  12.083  0.2189  0.9222  0.4463
  263MOL0     O35417   4.695   8.044  11.909 -0.2932  0.5387  0.1968
  263MOL0     C35418   4.454   8.169  11.833 -0.8896  0.3441 -0.5149
  263MOL0     C35419   4.349   8.234  11.791  0.1048 -0.1305 -0.1390
  263MOL0     N35420   3.661   8.545  11.800 -0.0825 -0.2411  0.0629
  263MOL0     N35421   3.582   8.477  11.724  0.6867 -0.1855  0.1753
  263MOL0     C35422   3.459   8.388  10.771  0.7939 -0.1494 -0.1693
  263MOL0     C35423   3.387   8.477  10.683 -0.1876  0.2623 -0.5335
  263MOL0     C35424   3.151   8.717  10.411 -0.4263 -0.3428  0.0773
  263MOL0     C35425   3.030   8.692  10.355 -0.6022  0.9890 -0.5306
  263MOL0     C35426   2.963   8.797  10.291  0.9934  0.1046  0.5854
  263MOL0     C35427   2.998   8.930  10.288 -0.7680 -0.4024  0.5431
  263MOL0     O35428   2.908   9.020  10.238 -0.5774 -0.6525  0.4736
  263MOL0     C35429   2.936   9.159  10.259  0.2603 -0.1422  0.4407
  263MOL0     C35430   2.817   9.244  10.231  0.2974  0.3372 -0.6584
  263MOL0     C35431   2.690   9.198  10.304 -0.2908  0.0317  0.2476
  263MOL0     C35432   2.710   9.151  10.451 -0.0735  0.2591 -0.0331
  263MOL0     C35433   2.596   9.174  10.527 -0.5732 -0.2135  0.8682
  263MOL0     C35434   2.503   9.185  10.610 -0.0576 -0.8079 -0.0612
  263MOL0     C35435   3.125   8.959  10.353 -0.9627 -0.2113 -0.1125
  263MOL0     C35436   3.205   8.851  10.395  0.1169  0.7881  0.6351
  263MOL0     C35437   3.339   8.883  10.457  0.5174  0.3755  0.5797
  263MOL0     H35438   3.536   8.402  10.378 -1.4628  1.4448 -1.3091
  263MOL0     H35439   3.641   8.242  10.518  1.4436  3.0650 -0.2275
  263MOL0     H35440   3.526   8.241  10.985  0.7414  1.5000  0.3393
  263MOL0     H35441   3.599   8.087  10.955 -1.7002 -0.2158  1.1787
  263MOL0     H35442   3.730   8.359  10.967  1.2340  0.2861 -3.2862
  263MOL0     H35443   3.806   8.238  10.871 -0.2090 -1.2109 -1.0608
  263MOL0     H35444   3.909   8.203  11.088 -0.3186 -1.4864 -0.5136
  263MOL0     H35445   3.788   8.081  11.099 -2.1856 -0.2392 -0.7628
  263MOL0     H35446   3.733   8.356  11.205  1.1645  0.5099  0.8846
  263MOL0     H35447   3.608   8.231  11.202 -0.5389  1.4662  0.0522
  263MOL0     H35448   3.717   8.094  11.350 -0.6568 -0.2313 -0.5325
  263MOL0     H35449   3.880   8.163  11.339  0.3181  2.3658 -0.9098
  263MOL0     H35450   3.773   8.200  11.564 -2.4332 -1.7698 -0.8360
  263MOL0     H35451   3.817   8.354  11.470 -0.2057  0.6573 -0.4233
  263MOL0     H35452   3.568   8.242  11.585 -1.9640  3.6851  1.2119
  263MOL0     H35453   3.547   8.231  11.423 -1.8180  0.1711  1.6763
  263MOL0     H35454   3.602   8.483  11.394 -2.1186  1.3072  0.1474
  263MOL0     H35455   3.458   8.459  11.476  0.0237 -0.5816 -1.3520
  263MOL0     H35456   3.761   8.642  11.500 -1.3488  1.9763  0.4636
  263MOL0     H35457   3.890   8.794  11.686  0.9013 -1.0324  0.4573
  263MOL0     H35458   3.806   8.797  11.844  5.3306  1.9715  1.3930
  263MOL0     H35459   4.039   8.748  11.876 -4.2322  1.9964  1.0992
  263MOL0     H35460   3.948   8.598  11.908 -0.6700 -2.2537 -2.1816
  263MOL0     H35461   4.067   8.622  11.635 -1.4379  1.5754  1.3185
  263MOL0     H35462   3.986   8.488  11.722  0.2632 -0.5366 -1.3059
  263MOL0     H35463   4.174   8.499  11.895  0.1693  0.3455 -0.4154
  263MOL0     H35464   4.264   8.612  11.786 -0.5019  0.4218 -0.3502
  263MOL0     H35465   4.496   8.544  11.756 -0.3940  0.4493  3.0191
  263MOL0     H35466   4.672   8.430  11.831  0.1781 -0.6279  0.2590
  263MOL0     H35467   4.919   8.024  11.836 -0.4958  1.4375  0.3253
  263MOL0     H35468   5.151   7.951  11.891  1.0312  1.1288 -0.2571
  263MOL0     H35469   5.416   8.102  12.239  1.2105  1.0299 -3.5660
  263MOL0     H35470   5.267   8.011  12.268  0.7423 -1.0014 -1.2687
  263MOL0     H35471   5.405   7.838  12.291  0.9564 -1.1987 -0.6268
  263MOL0     H35472   5.367   7.817  12.117 -1.0606  1.0778  0.0197
  263MOL0     H35473   5.596   7.780  12.120  0.5285  0.8687 -2.5936
  263MOL0     H35474   5.571   7.934  12.049 -0.1512 -0.4570 -0.0039
  263MOL0     H35475   5.670   7.921  12.346  1.0220  0.3132 -0.1618
  263MOL0     H35476   5.616   8.061  12.265  1.8082  0.7199  1.4419
  263MOL0     H35477   5.863   8.039  12.267 -1.5563  3.3391 -0.4081
  263MOL0     H35478   5.795   8.040  12.102 -3.9654 -0.6690 -0.0445
  263MOL0     H35479   5.847   7.825  12.042 -0.0751 -2.4337  0.0713
  263MOL0     H35480   5.987   7.893  12.134  0.7992 -1.1244 -1.1727
  263MOL0     H35481   5.761   7.718  12.236 -0.6984 -1.5081 -0.7153
  263MOL0     H35482   5.908   7.765  12.326 -0.3911 -1.6728 -0.5885
  263MOL0     H35483   5.901   7.531  12.221  1.9387 -1.6388 -0.8142
  263MOL0     H35484   5.944   7.602  12.059  1.5437  1.5179 -0.2896
  263MOL0     H35485   5.163   8.228  12.224  0.3810  0.2220 -0.0999
  263MOL0     H35486   4.950   8.322  12.137  1.8762  3.4293 -1.9039
  263MOL0     H35487   4.452   8.065  11.866  1.7413  0.3153 -0.2282
  263MOL0     H35488   4.255   8.182  11.775  0.6436 -0.6245 -1.9377
  263MOL0     H35489   3.424   8.395  10.874 -1.9540 -0.7811 -0.9860
  263MOL0     H35490   3.314   8.546  10.724 -0.5707 -0.1897 -0.4431
  263MOL0     H35491   2.978   8.598  10.367  1.3410  0.0353  1.1285
  263MOL0     H35492   2.867   8.777  10.244  0.4862  0.1276  1.5840
  263MOL0     H35493   3.015   9.179  10.186 -0.5262 -4.4117 -1.9324
  263MOL0     H35494   2.976   9.188  10.356  1.9168  2.9006 -0.9939
  263MOL0     H35495   2.804   9.252  10.123  1.8907 -0.9102 -0.9910
  263MOL0     H35496   2.828   9.344  10.272  0.3764  0.0018  0.1690
  263MOL0     H35497   2.652   9.117  10.240 -0.6948 -0.0382  0.5751
  263MOL0     H35498   2.615   9.278  10.312  0.1280  0.7616 -2.1182
  263MOL0     H35499   2.733   9.044  10.454  0.4035  0.3680  0.2101
  263MOL0     H35500   2.789   9.212  10.496 -1.5005  1.8762  0.3838
  263MOL0     H35501   2.431   9.210  10.686 -0.5578 -0.3082 -0.6858
  263MOL0     H35502   3.172   9.057  10.338 -0.6081 -0.4348 -0.4906
  263MOL0     H35503   3.336   8.958  10.538  4.7505  0.8999  0.4973
  263MOL0     H35504   3.389   8.797  10.502 -0.7087 -1.0148 -0.6535
  263MOL0     H35505   3.403   8.931  10.382  0.2569 -1.6204 -0.9892
  264MOL0     O35506   5.709   3.833   7.575  0.4471 -0.4429  0.2979
  264MOL0     C35507   5.701   3.956   7.543  0.2732  0.1071 -0.8781
  264MOL0     O35508   5.809   4.042   7.535 -0.1462 -0.7990  0.6079
  264MOL0     C35509   5.934   3.998   7.565  0.8016  0.0292  0.3414
  264MOL0     C35510   5.985   3.887   7.502  0.5359 -0.4744  1.1808
  264MOL0     C35511   6.123   3.856   7.518  0.5653  0.2078 -0.3286
  264MOL0     C35512   6.192   3.914   7.623  1.2556  0.3631  0.1749
  264MOL0     O35513   6.322   3.870   7.652 -0.6724  0.0227  0.1471
  264MOL0     C35514   6.406   3.954   7.733  0.0491  0.1301 -0.2560
  264MOL0     C35515   6.557   3.921   7.716  0.8018  0.4310  0.0581
  264MOL0     C35516   6.646   3.995   7.819 -0.0047  0.4044  0.7831
  264MOL0     C35517   6.790   3.997   7.771  0.6626  0.5903  0.3067
  264MOL0     C35518   6.868   4.095   7.867 -0.4393 -0.5247 -0.1632
  264MOL0     C35519   7.009   4.135   7.816 -0.3924  0.2296  0.4853
  264MOL0     C35520   7.103   4.013   7.823  0.4659  0.2580  0.5680
  264MOL0     C35521   7.232   4.028   7.750 -0.3991  0.9371  0.4845
  264MOL0     N35522   7.329   4.123   7.811  0.3987  1.1089 -1.1186
  264MOL0     C35523   7.325   4.263   7.836  0.5561 -0.0362  1.0746
  264MOL0     C35524   7.443   4.290   7.898  0.8734  0.8072  0.6387
  264MOL0     C35525   7.500   4.423   7.932 -0.1797  0.2196 -0.4012
  264MOL0     C35526   7.465   4.536   7.826 -0.3824  0.4582 -0.0667
  264MOL0     C35527   7.510   4.680   7.858  0.3105 -0.9757  0.0499
  264MOL0     C35528   7.658   4.692   7.868  0.3545  0.0152  0.2847
  264MOL0     O35529   7.722   4.682   7.742 -0.0988 -0.5391 -0.3054
  264MOL0     C35530   7.859   4.679   7.733 -0.4650  0.0943  0.3083
  264MOL0     C35531   7.919   4.583   7.666  1.8576 -0.0665  0.8032
  264MOL0     C35532   8.055   4.580   7.655 -0.5022  0.1175 -0.4601
  264MOL0     C35533   8.141   4.668   7.723 -0.7117 -0.7169 -0.7540
  264MOL0     C35534   8.287   4.670   7.701 -0.3276  0.2303 -0.0168
  264MOL0     O35535   8.350   4.789   7.735  0.2377  0.2999 -0.5892
  264MOL0     C35536   8.487   4.785   7.753  0.3988 -0.3241  0.7152
  264MOL0     C35537   8.550   4.696   7.839 -0.2406 -0.4992  0.4054
  264MOL0     C35538   8.690   4.703   7.853  0.2612  0.5334  0.4647
  264MOL0     C35539   8.762   4.810   7.794 -0.4957 -0.3213 -0.1361
  264MOL0     O35540   8.898   4.826   7.798 -0.6143 -0.2603  0.1149
  264MOL0     C35541   8.975   4.783   7.910 -0.0402  0.5766  0.4597
  264MOL0     C35542   9.075   4.888   7.950  0.0439 -0.0824 -0.0592
  264MOL0     C35543   9.028   5.026   7.973  0.1553 -1.2089 -0.4777
  264MOL0     C35544   9.126   5.115   8.058  0.2230  0.1245  0.9250
  264MOL0     C35545   9.255   5.143   7.980  0.1840 -0.4774 -0.1671
  264MOL0     C35546   9.348   5.244   8.053  0.1179  0.7466  1.4179
  264MOL0     C35547   9.393   5.206   8.189  0.4843  0.2221 -0.2248
  264MOL0     C35548   9.495   5.314   8.244  0.2342  0.6074  0.1696
  264MOL0    Cl35549   9.643   5.336   8.141  0.0552  0.1168  0.2768
  264MOL0     C35550   8.697   4.896   7.706 -0.1744  0.7680  0.2942
  264MOL0     C35551   8.562   4.881   7.685  0.1724 -0.6416 -0.1787
  264MOL0     O35552   8.345   4.585   7.634 -0.4744 -0.2293  0.1778
  264MOL0     C35553   8.083   4.765   7.796  0.3415  0.6825  0.1615
  264MOL0     C35554   7.938   4.769   7.803 -0.4885 -0.4724  0.6483
  264MOL0     N35555   7.505   4.171   7.911 -0.1683 -0.4209 -0.2557
  264MOL0     N35556   7.442   4.070   7.858 -0.4456 -0.0929 -0.3283
  264MOL0     C35557   6.135   4.022   7.697  0.1820 -0.2140 -0.3254
  264MOL0     C35558   6.007   4.062   7.663  0.1244  0.6777  0.0741
  264MOL0     C35559   5.564   4.012   7.538  0.4472 -0.2813 -0.5987
  264MOL0     C35560   5.543   4.151   7.563  0.5491  0.6585 -0.3843
  264MOL0     C35561   5.407   4.195   7.567  0.2209 -0.2359 -0.2471
  264MOL0     C35562   5.301   4.111   7.539  0.8473 -0.6535  0.2843
  264MOL0     O35563   5.176   4.166   7.526 -0.3964  0.1880  1.2003
  264MOL0     C35564   5.074   4.130   7.616 -0.0703 -0.1088 -1.0004
  264MOL0     C35565   5.109   4.164   7.765  0.4819 -0.7666 -0.6726
  264MOL0     C35566   5.197   4.064   7.841  0.4653 -0.1914 -0.5553
  264MOL0     C35567   5.272   4.122   7.959 -0.4159 -1.7103  0.7796
  264MOL0     C35568   5.406   4.162   7.912  0.7873  0.4676 -0.5130
  264MOL0     C35569   5.513   4.215   7.891 -0.0270  1.1193 -0.4215
  264MOL0     C35570   5.329   3.980   7.506  0.3649  0.3252 -0.9422
  264MOL0     C35571   5.457   3.926   7.511  0.3727 -0.4585  0.2774
  264MOL0     C35572   5.464   3.775   7.480 -0.9425  0.7801 -0.6991
  264MOL0     H35573   5.915   3.834   7.439 -1.0694  1.8033  0.8923
  264MOL0     H35574   6.165   3.780   7.453 -0.3389 -0.4076 -0.2089
  264MOL0     H35575   6.392   4.058   7.700  3.9314 -0.0176 -3.1245
  264MOL0     H35576   6.380   3.946   7.838 -1.3784  0.7522 -0.5402
  264MOL0     H35577   6.585   3.941   7.612  2.7146 -0.1147  0.4213
  264MOL0     H35578   6.571   3.812   7.709  0.5665  0.4888 -2.8160
  264MOL0     H35579   6.645   3.944   7.915 -1.9088 -0.6668  0.2318
  264MOL0     H35580   6.610   4.098   7.817 -0.4527  0.2538  1.1752
  264MOL0     H35581   6.830   3.896   7.786  0.1474  0.4332  0.6227
  264MOL0     H35582   6.806   4.026   7.666 -0.6945 -0.6219 -0.2694
  264MOL0     H35583   6.815   4.189   7.883  2.6552  1.5700 -1.2935
  264MOL0     H35584   6.880   4.048   7.965 -0.1358 -0.9892 -0.4187
  264MOL0     H35585   7.000   4.165   7.711  0.0653  1.2540  0.7299
  264MOL0     H35586   7.057   4.216   7.871  2.5604 -1.4819  0.6748
  264MOL0     H35587   7.049   3.925   7.786 -1.2741  1.5022  0.0570
  264MOL0     H35588   7.127   3.993   7.928  0.4955  0.5699  0.6196
  264MOL0     H35589   7.276   3.929   7.758  2.1831  1.7346 -2.0266
  264MOL0     H35590   7.219   4.054   7.644  0.2698  2.7873  0.8243
  264MOL0     H35591   7.252   4.333   7.797 -2.4667 -2.6766  1.5041
  264MOL0     H35592   7.468   4.458   8.030 -0.5515 -0.9926 -0.0818
  264MOL0     H35593   7.607   4.410   7.948 -0.6688 -6.2818  0.0641
  264MOL0     H35594   7.504   4.500   7.731 -1.4146 -1.6136  0.2262
  264MOL0     H35595   7.362   4.539   7.789  0.9834  1.5047 -4.3257
  264MOL0     H35596   7.453   4.720   7.943 -2.7825  2.8522 -3.3966
  264MOL0     H35597   7.468   4.745   7.781  0.3990 -1.0030 -0.0215
  264MOL0     H35598   7.699   4.620   7.940  1.4713  2.1684  1.9349
  264MOL0     H35599   7.677   4.792   7.907 -0.6294 -0.5486  2.3638
  264MOL0     H35600   7.853   4.514   7.615 -0.9074  1.3966  2.1378
  264MOL0     H35601   8.108   4.502   7.601 -0.0193 -0.9514  1.4929
  264MOL0     H35602   8.484   4.632   7.897  1.3019 -1.1163  1.5487
  264MOL0     H35603   8.752   4.636   7.911  3.0449  2.2849 -0.2901
  264MOL0     H35604   8.902   4.777   7.991 -2.0430 -0.0503 -1.3033
  264MOL0     H35605   9.035   4.695   7.886  2.2728  1.8615  1.2220
  264MOL0     H35606   9.123   4.852   8.041  0.8469  0.8851 -0.0844
  264MOL0     H35607   9.151   4.902   7.873  1.2795 -0.0738  1.1288
  264MOL0     H35608   9.004   5.073   7.878  0.8257  1.3290  0.5190
  264MOL0     H35609   8.930   5.028   8.022  1.9244  0.4112  3.4963
  264MOL0     H35610   9.135   5.074   8.159  1.2972 -0.0963  0.7531
  264MOL0     H35611   9.080   5.212   8.081  0.0302  0.5386 -1.0224
  264MOL0     H35612   9.243   5.197   7.885  0.4822 -1.5717 -0.8510
  264MOL0     H35613   9.304   5.047   7.959  1.6110  0.6511 -2.3835
  264MOL0     H35614   9.432   5.245   7.983 -1.4737 -1.1205 -0.6673
  264MOL0     H35615   9.298   5.342   8.054 -2.6174 -0.2204 -3.7193
  264MOL0     H35616   9.430   5.104   8.201  0.9036  0.4037  0.0596
  264MOL0     H35617   9.307   5.215   8.255  1.7201  0.1828  1.4629
  264MOL0     H35618   9.430   5.401   8.258 -2.9720 -1.8539  1.7432
  264MOL0     H35619   9.530   5.284   8.343 -0.9896  3.5245  1.6164
  264MOL0     H35620   8.763   4.967   7.658  2.3698 -1.2659  0.5217
  264MOL0     H35621   8.524   4.964   7.627  2.5467  2.7620  2.7171
  264MOL0     H35622   8.139   4.834   7.859 -1.1526  1.8828  0.2260
  264MOL0     H35623   7.885   4.852   7.848 -0.5236 -1.3182  2.2667
  264MOL0     H35624   6.179   4.080   7.778 -1.5590 -0.8006  1.0914
  264MOL0     H35625   5.950   4.134   7.720  1.1231  2.1295 -0.7134
  264MOL0     H35626   5.629   4.216   7.570  2.2080 -0.8896 -3.8361
  264MOL0     H35627   5.386   4.300   7.581  1.3293 -0.2628  2.1990
  264MOL0     H35628   5.039   4.026   7.616  0.3700 -0.3731  2.1875
  264MOL0     H35629   4.992   4.200   7.595  0.8494  1.2972 -0.0685
  264MOL0     H35630   5.015   4.172   7.820  2.1716 -0.2270  2.3477
  264MOL0     H35631   5.156   4.262   7.768 -0.3129 -0.3864  1.6854
  264MOL0     H35632   5.260   4.009   7.771 -0.4808 -0.8075 -0.9476
  264MOL0     H35633   5.126   3.995   7.888  0.8391  0.0403  0.3887
  264MOL0     H35634   5.225   4.212   8.000  1.0834  0.0630 -1.1210
  264MOL0     H35635   5.282   4.053   8.043  0.4485 -1.4518  0.8978
  264MOL0     H35636   5.604   4.260   7.858  2.7389 -3.2615  0.4818
  264MOL0     H35637   5.248   3.916   7.472 -2.3206  1.5216  2.5202
  264MOL0     H35638   5.378   3.746   7.419 -2.8623  0.4929  2.0110
  264MOL0     H35639   5.549   3.740   7.420 -1.1548 -4.1528  1.3584
  264MOL0     H35640   5.462   3.717   7.572 -0.9433  0.9043 -0.6215
  265MOL0     O35641   3.582   4.407   5.762 -1.3388  0.0722  0.4969
  265MOL0     C35642   3.592   4.512   5.819  0.1211 -0.4635  0.4504
  265MOL0     O35643   3.698   4.596   5.827 -0.0446  0.3474  0.1938
  265MOL0     C35644   3.800   4.565   5.746  0.3805 -0.2157 -0.0775
  265MOL0     C35645   3.892   4.468   5.785  0.4173 -0.2646 -0.0376
  265MOL0     C35646   4.005   4.444   5.706 -0.0903  0.5358 -0.2138
  265MOL0     C35647   4.025   4.494   5.580  0.2163 -0.1544  0.0922
  265MOL0     O35648   4.141   4.456   5.507  0.3296  0.6523  0.0438
  265MOL0     C35649   4.150   4.491   5.363 -0.0983  0.4810 -0.5687
  265MOL0     C35650   4.269   4.402   5.319  0.3830  0.9780 -0.7357
  265MOL0     C35651   4.350   4.457   5.196  0.5187 -0.4384 -0.1962
  265MOL0     C35652   4.482   4.388   5.168 -0.4704 -0.2773 -0.5902
  265MOL0     C35653   4.468   4.246   5.122 -0.0372  0.0212  0.2663
  265MOL0     C35654   4.589   4.176   5.051 -0.3718 -0.5248  0.1792
  265MOL0     C35655   4.709   4.162   5.154 -0.0754  1.0162 -0.1350
  265MOL0     C35656   4.820   4.082   5.080  0.3397  0.0698  0.2524
  265MOL0     N35657   4.903   4.022   5.182 -0.5324  0.2470  0.0044
  265MOL0     C35658   4.975   4.094   5.272 -0.1107 -0.2294 -0.5380
  265MOL0     C35659   5.012   3.992   5.358  0.8192  0.2292 -0.3392
  265MOL0     C35660   5.062   4.017   5.491  0.2093  0.4576 -0.4399
  265MOL0     C35661   5.201   3.956   5.518 -0.8689  0.7441  0.3624
  265MOL0     C35662   5.310   4.026   5.422  0.8203  0.3388 -0.0962
  265MOL0     C35663   5.315   4.178   5.450  0.6770 -0.2155 -0.3142
  265MOL0     O35664   5.356   4.202   5.587 -0.0170 -0.0922 -0.4840
  265MOL0     C35665   5.478   4.255   5.610 -0.0153  0.7463  0.3332
  265MOL0     C35666   5.514   4.373   5.544 -0.3038 -0.6447 -0.3823
  265MOL0     C35667   5.646   4.425   5.557 -0.1795  1.0210 -0.4657
  265MOL0     C35668   5.729   4.353   5.650  0.7902 -0.1401  0.0114
  265MOL0     C35669   5.863   4.411   5.683  0.0799  0.4453 -0.3569
  265MOL0     O35670   5.928   4.355   5.787  0.1611 -0.0085  0.7933
  265MOL0     C35671   6.048   4.415   5.820  0.7508  0.0690 -0.2766
  265MOL0     C35672   6.162   4.427   5.730 -0.3498 -0.7688 -0.6215
  265MOL0     C35673   6.287   4.458   5.782  1.1294 -0.1123 -0.0708
  265MOL0     C35674   6.300   4.510   5.911  0.1997  0.1278 -0.3172
  265MOL0     O35675   6.413   4.556   5.976 -0.6231  0.0366  0.4674
  265MOL0     C35676   6.514   4.605   5.892 -0.9967 -0.9974  0.5850
  265MOL0     C35677   6.625   4.494   5.889 -0.0938  0.7884 -0.3504
  265MOL0     C35678   6.768   4.536   5.895  0.7261 -0.0650  0.0836
  265MOL0     C35679   6.815   4.559   6.030 -0.3062  0.7613  0.4254
  265MOL0     C35680   6.969   4.588   6.032  0.5920 -0.1253  0.2507
  265MOL0     C35681   7.014   4.622   6.173  0.0921  0.4130 -0.2303
  265MOL0     C35682   7.158   4.675   6.167 -0.8918  0.4042  0.1259
  265MOL0     C35683   7.231   4.661   6.300 -0.3299  0.7690 -0.0030
  265MOL0    Cl35684   7.241   4.482   6.365  0.0376  0.2749 -0.2460
  265MOL0     C35685   6.182   4.521   5.997 -0.0772  0.4831  0.0325
  265MOL0     C35686   6.066   4.467   5.955  0.3868  0.6730 -0.5234
  265MOL0     O35687   5.912   4.483   5.594 -0.5978  0.1530  0.1646
  265MOL0     C35688   5.691   4.239   5.718  0.2508 -0.2279  0.3935
  265MOL0     C35689   5.568   4.184   5.690 -0.3312  0.2079  0.5662
  265MOL0     N35690   4.978   3.870   5.317 -0.1090 -0.2021 -0.5749
  265MOL0     N35691   4.907   3.889   5.216 -0.6831 -0.3605  1.0501
  265MOL0     C35692   3.936   4.604   5.551 -1.0587 -0.2252 -0.0590
  265MOL0     C35693   3.825   4.641   5.628 -0.5307  0.6824 -0.3908
  265MOL0     C35694   3.470   4.566   5.896 -1.0691 -0.4964  0.2511
  265MOL0     C35695   3.477   4.695   5.940 -0.0718  0.3313 -0.3115
  265MOL0     C35696   3.376   4.762   6.015 -0.9345 -0.5914  0.1429
  265MOL0     C35697   3.272   4.682   6.059 -0.5578  0.1111 -0.1243
  265MOL0     O35698   3.173   4.727   6.147  0.3534 -0.4676  0.4447
  265MOL0     C35699   3.206   4.847   6.217  0.2535 -0.9637 -0.4340
  265MOL0     C35700   3.116   4.855   6.344 -0.4912  0.0802 -0.0345
  265MOL0     C35701   2.971   4.858   6.306  0.4693  0.8314  0.4362
  265MOL0     C35702   2.916   4.988   6.263 -1.6529 -0.4059  0.5498
  265MOL0     C35703   2.781   4.982   6.212 -0.1654 -0.0008 -0.3431
  265MOL0     C35704   2.659   4.965   6.202  0.2151 -0.4791  0.5908
  265MOL0     C35705   3.259   4.551   6.007 -0.4411 -0.7912 -0.1242
  265MOL0     C35706   3.353   4.486   5.928 -0.7651 -1.0773 -0.4708
  265MOL0     C35707   3.344   4.336   5.898 -0.2972  0.5532  0.2181
  265MOL0     H35708   3.878   4.414   5.878  1.6833 -0.5474  0.0134
  265MOL0     H35709   4.077   4.369   5.738  0.4004  1.0891 -0.0037
  265MOL0     H35710   4.065   4.471   5.296 -1.0672 -0.4286  0.8744
  265MOL0     H35711   4.177   4.596   5.378  1.2928  0.1068 -0.3157
  265MOL0     H35712   4.231   4.302   5.298  4.0615 -0.9063  0.5899
  265MOL0     H35713   4.347   4.382   5.394 -1.1384  1.2377  0.9674
  265MOL0     H35714   4.358   4.566   5.207 -3.8289  0.0338  0.3084
  265MOL0     H35715   4.281   4.441   5.112 -1.9772  0.3780  1.5702
  265MOL0     H35716   4.543   4.447   5.098 -1.4766  0.0638 -1.1969
  265MOL0     H35717   4.542   4.393   5.259 -0.5156 -0.0923 -0.5708
  265MOL0     H35718   4.439   4.174   5.200 -2.4951 -0.5059 -1.0074
  265MOL0     H35719   4.394   4.246   5.041  0.5209 -1.3801 -0.2733
  265MOL0     H35720   4.565   4.078   5.010  2.2096 -1.3417  0.4999
  265MOL0     H35721   4.626   4.243   4.973 -1.2876 -0.3789 -0.1502
  265MOL0     H35722   4.673   4.107   5.241 -1.2346  2.4397  0.3276
  265MOL0     H35723   4.757   4.255   5.184 -0.8567  1.9170 -1.5886
  265MOL0     H35724   4.777   3.997   5.026 -0.3612  1.8121 -2.1136
  265MOL0     H35725   4.874   4.152   5.015 -0.9908  1.7668  0.8735
  265MOL0     H35726   4.969   4.202   5.280 -1.9640 -0.2321 -1.4836
  265MOL0     H35727   5.057   4.125   5.507 -1.9699  0.0912  2.0142
  265MOL0     H35728   5.000   3.971   5.569  0.7571  0.8267  0.2222
  265MOL0     H35729   5.240   3.972   5.619  1.0478 -2.4966  0.2685
  265MOL0     H35730   5.198   3.848   5.500 -2.4477  0.9551 -0.8025
  265MOL0     H35731   5.282   4.008   5.317  0.9113  0.6254 -0.1706
  265MOL0     H35732   5.410   3.985   5.436  0.0078 -2.1379 -0.9737
  265MOL0     H35733   5.222   4.232   5.433  1.3035  0.9240 -0.2352
  265MOL0     H35734   5.393   4.219   5.385  0.9572 -1.0345 -0.5000
  265MOL0     H35735   5.453   4.434   5.478  0.4345  1.3645  0.7315
  265MOL0     H35736   5.684   4.515   5.510 -0.4103  1.0013 -0.6893
  265MOL0     H35737   6.154   4.388   5.629 -0.3010 -2.3817 -0.0323
  265MOL0     H35738   6.382   4.440   5.732  1.1681  1.5185 -0.6524
  265MOL0     H35739   6.475   4.631   5.794  1.5439  0.0384 -0.2491
  265MOL0     H35740   6.555   4.693   5.943 -0.2495 -0.2158 -1.2787
  265MOL0     H35741   6.599   4.417   5.963  1.5378  0.3357 -0.2093
  265MOL0     H35742   6.612   4.447   5.791  0.8422 -0.2313 -0.0125
  265MOL0     H35743   6.823   4.448   5.860 -1.6569 -2.3510  1.6827
  265MOL0     H35744   6.787   4.623   5.831  1.5836 -1.3751 -1.5120
  265MOL0     H35745   6.797   4.470   6.091  0.0656 -0.3003 -0.9635
  265MOL0     H35746   6.751   4.640   6.068 -1.2286  1.2881 -2.0381
  265MOL0     H35747   6.991   4.675   5.969  0.7265 -1.0883 -1.0790
  265MOL0     H35748   7.029   4.500   6.007 -2.1849 -2.1641  0.3703
  265MOL0     H35749   6.949   4.689   6.230 -2.5788 -1.4505 -0.8932
  265MOL0     H35750   7.011   4.524   6.221  1.4431  0.1508 -0.6215
  265MOL0     H35751   7.156   4.776   6.126  0.1174  0.3349 -0.1312
  265MOL0     H35752   7.217   4.610   6.100  2.0526  1.1376  1.8227
  265MOL0     H35753   7.332   4.700   6.282 -0.2098 -0.3045 -1.9572
  265MOL0     H35754   7.183   4.726   6.374  2.7610  2.9142  0.3063
  265MOL0     H35755   6.205   4.572   6.090 -0.7961  0.4615  0.2253
  265MOL0     H35756   5.984   4.486   6.024  0.5111  0.3917 -0.2958
  265MOL0     H35757   5.755   4.187   5.788 -0.4569  1.7287  2.6016
  265MOL0     H35758   5.524   4.107   5.752  2.2878  0.1842  2.5364
  265MOL0     H35759   3.952   4.659   5.459  2.6579 -1.9691 -0.6183
  265MOL0     H35760   3.752   4.720   5.618 -0.1979  1.4900  2.6611
  265MOL0     H35761   3.568   4.752   5.920  0.6956 -1.4374 -2.1837
  265MOL0     H35762   3.398   4.864   6.043  1.8719 -1.4916  1.6672
  265MOL0     H35763   3.205   4.937   6.155 -2.1509  0.3834  1.4013
  265MOL0     H35764   3.303   4.851   6.269 -0.4535  2.8944  0.8833
  265MOL0     H35765   3.159   4.935   6.405  0.5742  1.2272 -2.1704
  265MOL0     H35766   3.124   4.757   6.392  0.0401 -0.0576 -0.3952
  265MOL0     H35767   2.916   4.815   6.390  0.4057 -2.0703 -0.9683
  265MOL0     H35768   2.954   4.788   6.225  4.1712  0.1039  0.1232
  265MOL0     H35769   2.922   5.041   6.359 -1.5631 -0.7661  0.7438
  265MOL0     H35770   2.990   5.026   6.192 -2.1324  0.6411  0.5878
  265MOL0     H35771   2.553   4.956   6.190  0.0513  2.1520 -0.6032
  265MOL0     H35772   3.175   4.490   6.040  0.0233  0.2273  3.3629
  265MOL0     H35773   3.260   4.298   5.957  0.7492  0.5788  1.7980
  265MOL0     H35774   3.315   4.321   5.794 -1.8310 -1.0019  0.8309
  265MOL0     H35775   3.429   4.273   5.926 -0.0927  0.2830 -0.9586
  266MOL0     O35776   4.684   9.457   7.882  0.8355 -0.5442 -0.2354
  266MOL0     C35777   4.614   9.425   7.975  0.6758 -0.7999 -0.1976
  266MOL0     O35778   4.662   9.404   8.100 -0.5828  0.2500 -0.0327
  266MOL0     C35779   4.792   9.394   8.124 -0.2733  0.1357 -0.6371
  266MOL0     C35780   4.883   9.490   8.065 -0.9761  0.9047 -0.2705
  266MOL0     C35781   5.023   9.476   8.095  0.0319  0.2784  0.2497
  266MOL0     C35782   5.067   9.368   8.177  0.1992 -0.1968 -0.3574
  266MOL0     O35783   5.194   9.345   8.219 -0.2207  0.5303 -1.1134
  266MOL0     C35784   5.304   9.433   8.217  0.2111 -0.8817  0.8303
  266MOL0     C35785   5.434   9.380   8.273 -0.2048 -0.6921 -0.2972
  266MOL0     C35786   5.534   9.326   8.165 -0.0451  0.3580  0.1442
  266MOL0     C35787   5.676   9.303   8.208  1.1085 -0.8986  0.2812
  266MOL0     C35788   5.774   9.419   8.181 -0.3195  0.5484 -0.7270
  266MOL0     C35789   5.911   9.378   8.104 -0.0021 -1.1550 -0.1323
  266MOL0     C35790   6.020   9.325   8.197  0.1767  1.2173  0.1873
  266MOL0     C35791   6.147   9.294   8.116  0.6893 -0.3347  0.0609
  266MOL0     N35792   6.217   9.426   8.088 -0.0147 -0.2414  0.7242
  266MOL0     C35793   6.189   9.526   7.999 -0.3033 -0.6675  0.3521
  266MOL0     C35794   6.285   9.619   8.017  0.5564 -1.4076  0.3345
  266MOL0     C35795   6.289   9.756   7.943  0.3840  0.0705  0.2059
  266MOL0     C35796   6.390   9.737   7.826  0.8560  0.6442  0.2729
  266MOL0     C35797   6.317   9.682   7.694 -0.5453  0.8412 -0.6039
  266MOL0     C35798   6.393   9.719   7.567  0.6479 -0.3161  0.3699
  266MOL0     O35799   6.511   9.646   7.556  0.3853 -0.1222  0.1775
  266MOL0     C35800   6.639   9.695   7.529 -0.4315 -0.6609  0.1372
  266MOL0     C35801   6.665   9.828   7.511  0.3408 -0.6596  0.7144
  266MOL0     C35802   6.798   9.872   7.481  0.0125  0.6670 -0.4338
  266MOL0     C35803   6.905   9.783   7.489  0.1402  0.7289 -0.2462
  266MOL0     C35804   7.042   9.835   7.474  0.2062  1.0437 -0.4938
  266MOL0     O35805   7.142   9.747   7.494  0.3399  0.0780  0.0142
  266MOL0     C35806   7.277   9.783   7.504  0.4500  1.2396  0.4268
  266MOL0     C35807   7.349   9.863   7.415 -0.0378  0.5223 -0.1833
  266MOL0     C35808   7.486   9.896   7.434  0.2915 -0.0459  0.7231
  266MOL0     C35809   7.551   9.852   7.546 -0.0340 -0.1844  0.7055
  266MOL0     O35810   7.682   9.887   7.551 -0.4797  0.3866 -0.0001
  266MOL0     C35811   7.771   9.811   7.631 -0.2803  0.2073  0.5235
  266MOL0     C35812   7.799   9.855   7.776  0.6174  0.2664  0.1442
  266MOL0     C35813   7.858   9.992   7.792  0.3195 -0.5766 -0.6775
  266MOL0     C35814   8.003  10.019   7.746 -0.4395  0.3856  0.2145
  266MOL0     C35815   8.105   9.914   7.807  0.2173 -0.1495 -0.4808
  266MOL0     C35816   8.224   9.987   7.869 -0.4809 -0.2465  1.2421
  266MOL0     C35817   8.196  10.065   7.994 -0.5944 -0.8049  0.2816
  266MOL0     C35818   8.320  10.147   8.037 -0.1710  0.0512 -0.6254
  266MOL0    Cl35819   8.480  10.060   8.028  0.3801 -0.1824 -0.2421
  266MOL0     C35820   7.479   9.781   7.641 -0.5688 -0.4344  0.2777
  266MOL0     C35821   7.342   9.749   7.621  0.2679 -0.1273  0.6446
  266MOL0     O35822   7.053   9.954   7.451  0.0144 -0.2195 -0.0092
  266MOL0     C35823   6.876   9.641   7.510 -0.5754  0.3513  0.6942
  266MOL0     C35824   6.741   9.604   7.533  0.7085 -0.1943  0.0613
  266MOL0     N35825   6.361   9.589   8.125  0.2332 -0.3634  0.9040
  266MOL0     N35826   6.323   9.463   8.163 -0.3056 -0.3856  0.0367
  266MOL0     C35827   4.978   9.283   8.234 -0.1060 -0.1389 -0.4843
  266MOL0     C35828   4.844   9.287   8.204 -0.3494  0.5640  0.0951
  266MOL0     C35829   4.469   9.416   7.948  0.2004 -0.1121  0.9551
  266MOL0     C35830   4.388   9.387   8.058  0.4528  0.4397 -0.4838
  266MOL0     C35831   4.253   9.403   8.055 -1.0345  1.2485  0.3691
  266MOL0     C35832   4.189   9.454   7.948  0.9620  0.3615  0.2630
  266MOL0     O35833   4.051   9.476   7.967  0.9869  0.7292 -0.3207
  266MOL0     C35834   3.981   9.563   7.879  1.3381 -0.5339 -0.0817
  266MOL0     C35835   3.898   9.668   7.959  0.9851 -0.7319 -0.9481
  266MOL0     C35836   3.971   9.756   8.060 -0.6178  0.5891  0.5863
  266MOL0     C35837   3.962   9.703   8.203 -0.0039 -0.1863  0.4081
  266MOL0     C35838   4.069   9.771   8.278 -0.2202  0.9849  0.5911
  266MOL0     C35839   4.150   9.826   8.338  0.2710  0.6348  0.3212
  266MOL0     C35840   4.264   9.469   7.833  0.1451  0.8411  0.2877
  266MOL0     C35841   4.402   9.442   7.837  0.3743 -0.0971  0.7063
  266MOL0     C35842   4.477   9.456   7.709  0.4222  0.0288  0.5127
  266MOL0     H35843   4.862   9.574   8.000 -0.5489  0.4816 -0.9660
  266MOL0     H35844   5.101   9.528   8.041  1.6684 -0.8031  1.4511
  266MOL0     H35845   5.310   9.464   8.112  0.8478  0.4479  1.2327
  266MOL0     H35846   5.278   9.521   8.277 -1.5015 -1.1046  0.4694
  266MOL0     H35847   5.432   9.313   8.359  2.7017  0.4087  0.7267
  266MOL0     H35848   5.479   9.472   8.311 -1.6743 -0.2367  0.4154
  266MOL0     H35849   5.536   9.391   8.077 -1.0240 -0.7931 -0.7627
  266MOL0     H35850   5.472   9.240   8.138 -1.1997  0.7239  1.5248
  266MOL0     H35851   5.661   9.287   8.315 -2.4397  0.5052  0.1363
  266MOL0     H35852   5.704   9.211   8.155 -1.8837  0.4176 -4.2307
  266MOL0     H35853   5.725   9.494   8.118 -0.5784  0.8885 -0.1354
  266MOL0     H35854   5.795   9.465   8.278  1.2546 -1.3214 -0.1207
  266MOL0     H35855   5.891   9.307   8.023  1.7387  0.5592 -2.1796
  266MOL0     H35856   5.950   9.469   8.057 -1.5407  1.7766  3.7073
  266MOL0     H35857   5.989   9.227   8.233 -3.0849  2.4972  1.2616
  266MOL0     H35858   6.050   9.395   8.276 -0.2195 -0.1136  1.5807
  266MOL0     H35859   6.229   9.243   8.167  3.3677  1.2792 -2.3201
  266MOL0     H35860   6.125   9.241   8.023  0.3472 -1.0508  0.5497
  266MOL0     H35861   6.106   9.523   7.929  1.9799 -0.4782 -2.5326
  266MOL0     H35862   6.187   9.786   7.919  0.3918  1.8979  2.1738
  266MOL0     H35863   6.316   9.830   8.019  0.5981 -1.9103  2.1524
  266MOL0     H35864   6.434   9.835   7.806 -0.9056  0.9970 -2.3538
  266MOL0     H35865   6.462   9.661   7.861  0.2651  0.3152  0.7943
  266MOL0     H35866   6.215   9.722   7.695 -1.3532 -1.1163  0.9711
  266MOL0     H35867   6.297   9.575   7.700  0.8209  0.5441 -1.0313
  266MOL0     H35868   6.405   9.828   7.567 -2.3641  0.2243  4.0463
  266MOL0     H35869   6.334   9.691   7.480 -2.7053  1.1867  1.9839
  266MOL0     H35870   6.594   9.910   7.511  1.4434  0.3433  1.7124
  266MOL0     H35871   6.815   9.974   7.450 -0.6189  0.5816 -1.0866
  266MOL0     H35872   7.307   9.890   7.318 -0.1048  0.0234 -0.2990
  266MOL0     H35873   7.543   9.945   7.356  0.0583 -1.1611 -0.1762
  266MOL0     H35874   7.744   9.706   7.624 -0.4008  0.2725 -0.0031
  266MOL0     H35875   7.870   9.833   7.592  0.4503 -1.9043  1.0667
  266MOL0     H35876   7.706   9.839   7.832  0.5762  1.4848  0.4528
  266MOL0     H35877   7.869   9.783   7.819 -1.4444 -0.7489  2.0293
  266MOL0     H35878   7.788  10.063   7.749  1.1232  0.7204  0.0891
  266MOL0     H35879   7.860  10.021   7.898  1.5131  2.2604 -1.3815
  266MOL0     H35880   8.037  10.122   7.756  1.4750  0.1120 -2.3955
  266MOL0     H35881   8.003   9.999   7.638 -1.2313  1.9444 -0.1078
  266MOL0     H35882   8.128   9.846   7.725 -1.9425 -1.0493 -0.4044
  266MOL0     H35883   8.057   9.852   7.883 -2.2110  0.6993 -1.2140
  266MOL0     H35884   8.289   9.904   7.899 -0.9532 -0.8917  0.5273
  266MOL0     H35885   8.274  10.044   7.790  0.9537 -1.1911  1.4259
  266MOL0     H35886   8.156   9.995   8.068  1.6243 -0.1470  2.2213
  266MOL0     H35887   8.110  10.130   7.981 -1.0671 -1.3807  0.4618
  266MOL0     H35888   8.327  10.229   7.965 -2.0607  0.3331 -0.5437
  266MOL0     H35889   8.302  10.184   8.138  1.9097 -1.1315  0.2397
  266MOL0     H35890   7.518   9.732   7.730 -1.7630 -2.5347 -0.2670
  266MOL0     H35891   7.286   9.702   7.701 -1.2928  3.8861  2.1932
  266MOL0     H35892   6.958   9.570   7.514  0.7574  1.9173  2.1093
  266MOL0     H35893   6.718   9.501   7.559 -0.0454 -0.2771 -0.8985
  266MOL0     H35894   5.003   9.195   8.291 -1.0543 -0.1371 -0.0404
  266MOL0     H35895   4.796   9.197   8.244  2.3725 -0.1546  1.9993
  266MOL0     H35896   4.425   9.367   8.158  1.4437 -0.6090 -1.0307
  266MOL0     H35897   4.193   9.363   8.136  2.3615 -2.9366  1.2148
  266MOL0     H35898   3.915   9.506   7.813  2.0293 -0.7381 -0.6101
  266MOL0     H35899   4.050   9.628   7.825  0.4429  0.8362  0.3624
  266MOL0     H35900   3.827   9.608   8.017  0.8180 -0.4421 -0.8548
  266MOL0     H35901   3.841   9.725   7.886 -1.2210 -0.2093  1.0405
  266MOL0     H35902   3.939   9.861   8.065 -0.9824  0.4682  0.8356
  266MOL0     H35903   4.077   9.746   8.034 -0.2959 -0.7433  2.2123
  266MOL0     H35904   3.870   9.739   8.251  1.3755  2.9091  1.0097
  266MOL0     H35905   3.976   9.595   8.216 -2.1938 -0.2246  3.6568
  266MOL0     H35906   4.232   9.866   8.393 -1.6006 -0.0096  3.9106
  266MOL0     H35907   4.206   9.496   7.746 -0.1162  1.1402  0.5496
  266MOL0     H35908   4.535   9.548   7.694 -0.6140  0.4826 -0.9879
  266MOL0     H35909   4.544   9.370   7.699 -2.6142 -2.2214 -3.6400
  266MOL0     H35910   4.415   9.447   7.619  0.7140 -2.2272  0.4901
  267MOL0     O35911   6.118   8.114  10.165  0.8733 -0.4056 -0.3756
  267MOL0     C35912   6.228   8.112  10.107  0.4069  0.0873  0.4044
  267MOL0     O35913   6.352   8.146  10.165  0.0401  0.6025  0.1467
  267MOL0     C35914   6.349   8.205  10.289 -0.4301 -1.2980  0.7080
  267MOL0     C35915   6.302   8.124  10.393  0.2563 -0.1953 -0.0911
  267MOL0     C35916   6.309   8.178  10.525 -0.3289  0.1627 -0.7779
  267MOL0     C35917   6.369   8.306  10.556  0.2187 -0.3241 -0.0278
  267MOL0     O35918   6.366   8.366  10.680  0.4419 -0.0018  0.4445
  267MOL0     C35919   6.240   8.338  10.749  0.3283 -0.0743  0.1681
  267MOL0     C35920   6.205   8.434  10.871 -0.4832  0.1766 -0.1085
  267MOL0     C35921   6.098   8.371  10.958 -0.3380 -0.5505  0.1826
  267MOL0     C35922   6.162   8.283  11.061 -1.0800  0.3216 -0.2213
  267MOL0     C35923   6.076   8.233  11.187  0.3352 -0.2749 -0.0037
  267MOL0     C35924   6.162   8.177  11.300 -0.5449 -0.4258  0.2738
  267MOL0     C35925   6.269   8.276  11.367  0.5443 -0.3945 -0.2112
  267MOL0     C35926   6.220   8.417  11.419 -0.3097  0.0859 -0.4390
  267MOL0     N35927   6.336   8.506  11.405  0.2908  0.3469 -0.1992
  267MOL0     C35928   6.428   8.540  11.500 -0.3359  0.5792 -0.6453
  267MOL0     C35929   6.530   8.607  11.448  0.3935  0.3551  0.5830
  267MOL0     C35930   6.669   8.631  11.513 -1.2823  0.3815 -1.3417
  267MOL0     C35931   6.785   8.667  11.420  0.4657  0.6883 -0.5383
  267MOL0     C35932   6.794   8.814  11.371 -0.0643  0.6523 -0.1040
  267MOL0     C35933   6.917   8.821  11.272  0.8412 -0.5401  0.3546
  267MOL0     O35934   6.899   8.944  11.201 -0.1055  0.0738 -0.5728
  267MOL0     C35935   6.988   8.971  11.102 -0.5304  0.1682  0.7128
  267MOL0     C35936   6.938   9.047  10.997  0.7749  0.2624 -0.4990
  267MOL0     C35937   7.015   9.078  10.891 -0.3022 -0.6101  0.1061
  267MOL0     C35938   7.152   9.042  10.884 -0.3742  0.1023 -1.1047
  267MOL0     C35939   7.227   9.082  10.766 -0.0226 -0.2063 -0.2847
  267MOL0     O35940   7.361   9.061  10.759 -0.1155  0.5486  0.4299
  267MOL0     C35941   7.433   9.123  10.654 -0.3348 -0.1816  0.4119
  267MOL0     C35942   7.458   9.258  10.646  0.4711 -0.0262 -0.3132
  267MOL0     C35943   7.516   9.313  10.532 -0.6914  0.5818  0.4271
  267MOL0     C35944   7.556   9.230  10.422  0.0848 -0.3475  0.3469
  267MOL0     O35945   7.638   9.270  10.316  0.0732  0.6320  1.0632
  267MOL0     C35946   7.746   9.356  10.342  0.8644 -0.6394 -0.5139
  267MOL0     C35947   7.802   9.432  10.222 -0.4203 -0.4231 -0.2684
  267MOL0     C35948   7.703   9.516  10.152 -0.1782 -0.5495  0.2051
  267MOL0     C35949   7.673   9.645  10.229  0.4746  0.3449  0.2629
  267MOL0     C35950   7.562   9.745  10.167  0.0069 -0.3295  0.2847
  267MOL0     C35951   7.576   9.885  10.231 -0.5686  0.2403 -0.0417
  267MOL0     C35952   7.583  10.004  10.136 -0.0603 -0.8811  0.5811
  267MOL0     C35953   7.462  10.008  10.049 -0.2092 -0.4704 -0.6484
  267MOL0    Cl35954   7.484  10.137   9.937  0.1541 -0.3131 -0.1884
  267MOL0     C35955   7.524   9.090  10.426 -0.1977 -0.4092 -0.1748
  267MOL0     C35956   7.459   9.040  10.539 -0.8507  0.1491  0.1866
  267MOL0     O35957   7.166   9.139  10.676 -0.4659  0.1543 -0.0804
  267MOL0     C35958   7.202   8.968  10.994 -0.5452  0.1066 -0.4268
  267MOL0     C35959   7.130   8.939  11.110 -0.6791 -0.2846 -0.2729
  267MOL0     N35960   6.499   8.605  11.309 -0.0106 -0.5754  0.7593
  267MOL0     N35961   6.377   8.557  11.279 -0.7899 -0.0399  0.2239
  267MOL0     C35962   6.415   8.377  10.444  0.6422  0.6387 -0.3932
  267MOL0     C35963   6.410   8.330  10.309  0.0390 -0.0620  0.6163
  267MOL0     C35964   6.235   8.043   9.974 -0.1648 -0.0274 -0.1085
  267MOL0     C35965   6.364   8.018   9.917  0.3874 -0.0815  1.0187
  267MOL0     C35966   6.370   7.939   9.801 -0.4870 -0.5672  1.1805
  267MOL0     C35967   6.264   7.886   9.738  0.5846 -0.2504 -0.4612
  267MOL0     O35968   6.252   7.812   9.623  0.0296  0.1875  0.0563
  267MOL0     C35969   6.354   7.819   9.514  0.6672  0.6125 -0.5725
  267MOL0     C35970   6.362   7.949   9.436 -0.1261  0.7835  1.1938
  267MOL0     C35971   6.231   8.021   9.397  0.6360 -0.7046  0.0299
  267MOL0     C35972   6.163   7.947   9.280 -0.3065  0.2533 -0.8275
  267MOL0     C35973   6.053   8.000   9.210 -0.0758  0.1852  0.4555
  267MOL0     C35974   5.955   8.059   9.156 -1.1202  0.7446 -0.3050
  267MOL0     C35975   6.139   7.916   9.795  0.1936  0.6180 -0.4569
  267MOL0     C35976   6.113   7.987   9.916 -0.8963 -0.2931 -0.5768
  267MOL0     C35977   5.966   7.993   9.952  0.0752 -0.0316 -0.7819
  267MOL0     H35978   6.264   8.024  10.372 -0.3213 -0.5163  2.2809
  267MOL0     H35979   6.273   8.120  10.609  1.9629  1.6201  1.3280
  267MOL0     H35980   6.150   8.354  10.689 -0.1448  1.4556  1.2063
  267MOL0     H35981   6.243   8.234  10.781 -0.3861  0.2824  1.4436
  267MOL0     H35982   6.183   8.527  10.817  0.7208 -0.4825 -1.7843
  267MOL0     H35983   6.287   8.459  10.939  0.7014 -2.4411 -0.4582
  267MOL0     H35984   6.006   8.334  10.913 -0.5957  2.8368 -2.5426
  267MOL0     H35985   6.065   8.451  11.024  0.5175  1.0341 -1.2010
  267MOL0     H35986   6.207   8.196  11.011  1.1554 -0.2452  2.4979
  267MOL0     H35987   6.255   8.323  11.104  1.0151 -2.8537 -1.3679
  267MOL0     H35988   6.012   8.306  11.237 -0.7367 -0.9298 -0.4040
  267MOL0     H35989   6.008   8.159  11.144  2.9086 -1.8229 -1.6838
  267MOL0     H35990   6.100   8.141  11.383  0.6813  0.8780  1.8140
  267MOL0     H35991   6.224   8.093  11.267 -0.0789  0.3236 -0.8196
  267MOL0     H35992   6.354   8.286  11.299  0.0162  1.5527 -0.6571
  267MOL0     H35993   6.315   8.218  11.447  1.6968 -0.6725 -1.0452
  267MOL0     H35994   6.139   8.446  11.352 -0.3227  1.9034  0.3275
  267MOL0     H35995   6.182   8.408  11.521  1.6025  1.6839  0.4711
  267MOL0     H35996   6.424   8.507  11.604 -1.5861  2.2134 -0.1189
  267MOL0     H35997   6.658   8.715  11.582 -1.3984 -1.1939  0.6507
  267MOL0     H35998   6.689   8.542  11.575 -1.3470  1.6840  0.6344
  267MOL0     H35999   6.877   8.657  11.479 -0.9274 -2.7728  1.3524
  267MOL0     H36000   6.805   8.597  11.338  1.8288  0.5891 -0.1422
  267MOL0     H36001   6.813   8.870  11.463 -2.0409 -0.7663  1.2641
  267MOL0     H36002   6.694   8.846  11.340 -1.1168 -3.8851 -2.3013
  267MOL0     H36003   6.899   8.741  11.200 -0.5563  2.6397 -3.1894
  267MOL0     H36004   7.014   8.822  11.322  0.3128  2.4650  1.5610
  267MOL0     H36005   6.834   9.077  11.006  0.7104 -0.6314  3.2255
  267MOL0     H36006   6.974   9.152  10.823  1.7515  0.2855 -0.2296
  267MOL0     H36007   7.426   9.337  10.714 -2.9215  0.7912 -2.5892
  267MOL0     H36008   7.529   9.421  10.530  0.9206  0.5054  2.7292
  267MOL0     H36009   7.720   9.434  10.414 -1.5747 -0.3647 -1.6174
  267MOL0     H36010   7.829   9.299  10.386  2.0504  1.0336 -0.4917
  267MOL0     H36011   7.880   9.499  10.258 -0.9315 -0.8308  1.7151
  267MOL0     H36012   7.847   9.353  10.160 -0.8501 -2.9233  2.3890
  267MOL0     H36013   7.736   9.552  10.054 -1.4934 -0.2185 -0.1415
  267MOL0     H36014   7.611   9.461  10.132 -0.5090 -0.2702  0.9205
  267MOL0     H36015   7.766   9.701  10.242  0.9139  0.1123 -1.5631
  267MOL0     H36016   7.622   9.616  10.321 -3.8741  3.3087 -0.8637
  267MOL0     H36017   7.464   9.699  10.183  0.4095 -1.4597 -0.3569
  267MOL0     H36018   7.582   9.750  10.060 -0.5079  0.6164  0.2212
  267MOL0     H36019   7.498   9.905  10.306 -1.5086  0.7134 -1.1208
  267MOL0     H36020   7.668   9.881  10.290 -2.4779  0.8685  3.2189
  267MOL0     H36021   7.672   9.995  10.074 -0.1004  1.1035  0.1668
  267MOL0     H36022   7.593  10.102  10.183 -0.4079  0.2007 -1.5045
  267MOL0     H36023   7.448   9.914   9.995  0.1959  0.0739 -1.7453
  267MOL0     H36024   7.374  10.030  10.110 -1.0415  2.0322 -2.5846
  267MOL0     H36025   7.556   9.028  10.344  1.8626  1.2590 -0.7141
  267MOL0     H36026   7.440   8.934  10.549 -0.5677  0.2331  2.0150
  267MOL0     H36027   7.301   8.923  10.983 -1.5068 -1.9756 -1.0042
  267MOL0     H36028   7.181   8.887  11.191  1.0889  0.1832 -1.0478
  267MOL0     H36029   6.458   8.476  10.453  2.4235 -0.1419  0.1878
  267MOL0     H36030   6.430   8.381  10.215 -1.7712 -0.1245  0.1466
  267MOL0     H36031   6.450   8.063   9.966  1.1695  2.2096 -2.1798
  267MOL0     H36032   6.468   7.922   9.757 -1.1043  0.6147 -0.7699
  267MOL0     H36033   6.310   7.740   9.452  1.8895  0.1909 -0.9242
  267MOL0     H36034   6.447   7.773   9.549  1.1423  0.8733 -1.4624
  267MOL0     H36035   6.420   7.926   9.346 -2.9546 -1.5323 -0.1817
  267MOL0     H36036   6.421   8.022   9.494 -0.4501  0.1046  2.4130
  267MOL0     H36037   6.247   8.123   9.361 -0.3105 -0.2276  0.9143
  267MOL0     H36038   6.170   8.021   9.488  3.0329 -0.8856  1.7401
  267MOL0     H36039   6.239   7.950   9.201 -0.0890 -1.2765 -0.7220
  267MOL0     H36040   6.135   7.844   9.306 -1.5913  0.4351 -1.3869
  267MOL0     H36041   5.879   8.112   9.103 -0.6284  1.7015 -0.0963
  267MOL0     H36042   6.058   7.865   9.744  0.2044 -0.1867  0.2992
  267MOL0     H36043   5.911   7.976   9.859 -0.3741  1.1719 -0.7622
  267MOL0     H36044   5.930   7.923  10.027 -1.7727  0.7026 -0.9416
  267MOL0     H36045   5.942   8.091   9.994 -1.1144  0.1680 -1.8673
  268MOL0     O36046   5.597   3.654  10.710  0.3365  0.6066  0.0814
  268MOL0     C36047   5.646   3.563  10.647  0.5581 -0.2736  0.7074
  268MOL0     O36048   5.776   3.541  10.648  0.0082  0.1703 -0.5179
  268MOL0     C36049   5.851   3.638  10.712 -0.4359 -0.2079 -0.2501
  268MOL0     C36050   5.922   3.610  10.825  0.2141  0.7251  0.4159
  268MOL0     C36051   6.019   3.690  10.878 -0.3408  0.5595  0.3065
  268MOL0     C36052   6.044   3.814  10.817 -0.2603 -0.3201  0.2145
  268MOL0     O36053   6.136   3.907  10.854 -0.5259 -0.4552  0.5033
  268MOL0     C36054   6.274   3.876  10.893  0.2626 -0.0611 -0.1107
  268MOL0     C36055   6.332   3.997  10.960 -0.0037  0.0628 -0.2015
  268MOL0     C36056   6.326   4.130  10.894 -0.4435  0.3940 -0.0887
  268MOL0     C36057   6.377   4.244  10.986  1.0076 -0.1213  0.6777
  268MOL0     C36058   6.365   4.374  10.916 -0.3837  0.0754 -0.3196
  268MOL0     C36059   6.372   4.492  11.014  0.2639 -0.1871  0.2734
  268MOL0     C36060   6.349   4.611  10.929 -0.0025  0.0057 -0.1125
  268MOL0     C36061   6.358   4.743  11.012 -0.3733  1.7896 -0.0277
  268MOL0     N36062   6.244   4.747  11.105 -0.6646  0.5289 -0.4887
  268MOL0     C36063   6.111   4.744  11.075  0.1380 -0.0815 -0.8348
  268MOL0     C36064   6.053   4.708  11.194 -0.3853 -0.1831 -0.3062
  268MOL0     C36065   5.909   4.694  11.233 -0.0565 -0.1622  0.4959
  268MOL0     C36066   5.861   4.819  11.307 -0.6975  0.1291  0.5322
  268MOL0     C36067   5.714   4.822  11.347 -0.2692 -0.2347 -0.5372
  268MOL0     C36068   5.674   4.742  11.476  0.0417 -1.0797  0.4921
  268MOL0     O36069   5.743   4.798  11.585 -0.3377  0.7554 -0.3113
  268MOL0     C36070   5.826   4.717  11.669 -0.9906  0.0698 -0.1136
  268MOL0     C36071   5.896   4.600  11.624  0.6390  0.3144 -0.0794
  268MOL0     C36072   5.993   4.536  11.701 -0.5154 -0.2516 -0.2217
  268MOL0     C36073   6.018   4.588  11.826  0.9496  0.1466  0.4485
  268MOL0     C36074   6.116   4.519  11.914  0.3160 -0.1491  0.9862
  268MOL0     O36075   6.166   4.392  11.873 -0.8950  1.1401 -0.3640
  268MOL0     C36076   6.248   4.339  11.971 -0.3255 -0.6376 -1.0823
  268MOL0     C36077   6.385   4.377  11.981 -0.4241 -0.0662 -0.1171
  268MOL0     C36078   6.458   4.328  12.080 -0.9476 -0.1655  0.2620
  268MOL0     C36079   6.415   4.223  12.165 -0.2920 -1.4365 -0.2635
  268MOL0     O36080   6.500   4.163  12.250  0.1836 -0.2172 -1.3338
  268MOL0     C36081   6.544   4.036  12.197  0.5732 -0.2095 -0.4239
  268MOL0     C36082   6.550   3.939  12.318  0.2136 -0.1138  0.2424
  268MOL0     C36083   6.671   3.984  12.409 -1.3721 -0.2436  0.9768
  268MOL0     C36084   6.747   3.868  12.473  0.6112 -0.9347 -0.0088
  268MOL0     C36085   6.864   3.919  12.550 -0.3542  0.3919  0.1041
  268MOL0     C36086   6.953   3.817  12.622 -0.7044 -0.6951  0.3971
  268MOL0     C36087   7.079   3.889  12.679 -0.1383 -0.5474  0.1639
  268MOL0     C36088   7.147   3.788  12.775  0.2202  0.3564 -0.5649
  268MOL0    Cl36089   7.316   3.848  12.774  0.4036 -0.0324 -0.0685
  268MOL0     C36090   6.280   4.178  12.149 -0.6868  0.2223 -0.1799
  268MOL0     C36091   6.196   4.239  12.056  0.2162  0.7804  0.6237
  268MOL0     O36092   6.147   4.589  12.010 -0.3111  0.2091 -0.0162
  268MOL0     C36093   5.943   4.693  11.872 -0.4291 -0.4762 -0.8155
  268MOL0     C36094   5.858   4.766  11.794 -0.0461  0.2308  0.3856
  268MOL0     N36095   6.146   4.705  11.296  0.1189  0.8956  0.3297
  268MOL0     N36096   6.257   4.710  11.236 -0.6196  0.3825 -0.5808
  268MOL0     C36097   5.969   3.845  10.699 -1.0897  1.1089  0.3921
  268MOL0     C36098   5.879   3.757  10.645  0.1075  0.1408 -0.3096
  268MOL0     C36099   5.555   3.453  10.578  0.2605 -0.4076  0.4397
  268MOL0     C36100   5.617   3.361  10.490 -0.6027 -0.1569 -0.0937
  268MOL0     C36101   5.549   3.285  10.394  0.0368 -0.7676  0.0698
  268MOL0     C36102   5.414   3.277  10.404 -0.5163 -1.1072 -0.0178
  268MOL0     O36103   5.354   3.188  10.319  0.1128  0.2021  0.2244
  268MOL0     C36104   5.208   3.154  10.323 -1.7094  0.1159 -0.1440
  268MOL0     C36105   5.192   3.012  10.263 -0.9086 -0.0736  0.0260
  268MOL0     C36106   5.045   2.977  10.259  0.8296  0.4304  0.4527
  268MOL0     C36107   5.023   2.841  10.185  0.0627 -0.4526  0.2775
  268MOL0     C36108   5.100   2.729  10.242 -0.1739  0.5246  0.1596
  268MOL0     C36109   5.176   2.639  10.288  0.3530 -0.2306  0.7894
  268MOL0     C36110   5.342   3.368  10.486  0.6083  0.9073  0.2676
  268MOL0     C36111   5.406   3.452  10.577  0.0621  0.2714 -0.4731
  268MOL0     C36112   5.320   3.532  10.668 -0.0419  0.1948 -0.5331
  268MOL0     H36113   5.899   3.514  10.873  0.4167  1.1125  1.3176
  268MOL0     H36114   6.071   3.655  10.966  2.7639 -2.1454 -2.3109
  268MOL0     H36115   6.273   3.790  10.961  3.6659 -0.3679 -0.2764
  268MOL0     H36116   6.324   3.852  10.799  1.6297  3.0628 -0.3130
  268MOL0     H36117   6.435   3.984  10.993  1.7622  1.7678 -4.3177
  268MOL0     H36118   6.265   4.010  11.045 -0.5357 -1.4798 -0.3478
  268MOL0     H36119   6.224   4.161  10.870  0.0800  0.3104 -2.6614
  268MOL0     H36120   6.382   4.120  10.801  0.9461 -2.3345  0.9126
  268MOL0     H36121   6.313   4.250  11.075  1.6710  1.6956  1.0660
  268MOL0     H36122   6.482   4.219  11.005  1.1602 -3.4658 -3.1213
  268MOL0     H36123   6.449   4.391  10.847  0.8194  0.1691  1.1211
  268MOL0     H36124   6.261   4.375  10.882 -1.3331  4.1098  2.0722
  268MOL0     H36125   6.295   4.493  11.091  2.8893  2.6666  3.1321
  268MOL0     H36126   6.468   4.496  11.065  0.0382  1.8460  0.6231
  268MOL0     H36127   6.245   4.606  10.898 -1.0083 -0.3580  3.0158
  268MOL0     H36128   6.418   4.615  10.843 -0.5410 -0.2462 -0.5572
  268MOL0     H36129   6.455   4.755  11.062 -0.2246 -0.8550  0.4892
  268MOL0     H36130   6.351   4.836  10.955  1.3480  2.2255  0.3992
  268MOL0     H36131   6.073   4.754  10.974 -0.1805 -5.0423 -1.4636
  268MOL0     H36132   5.847   4.678  11.145 -1.1491  2.4080  0.7171
  268MOL0     H36133   5.900   4.611  11.304 -2.4911 -2.1382 -1.9060
  268MOL0     H36134   5.922   4.833  11.397 -0.9101  1.3679  0.4973
  268MOL0     H36135   5.886   4.908  11.249  2.7153 -0.5470  0.6994
  268MOL0     H36136   5.658   4.772  11.268  0.5494 -3.2763  0.6617
  268MOL0     H36137   5.684   4.926  11.363  2.0542  0.0521  3.7273
  268MOL0     H36138   5.691   4.635  11.463  2.5106 -0.5937 -1.0732
  268MOL0     H36139   5.567   4.765  11.482  0.6427  2.1993  0.7284
  268MOL0     H36140   5.884   4.571  11.520 -1.0291  1.5025 -0.2619
  268MOL0     H36141   6.047   4.447  11.669 -0.2010  0.7751 -2.7956
  268MOL0     H36142   6.420   4.462  11.923  0.0346  0.0755  0.3577
  268MOL0     H36143   6.556   4.372  12.090 -1.1049  1.2321 -2.9877
  268MOL0     H36144   6.478   3.994  12.121 -0.1935  0.6910 -0.2714
  268MOL0     H36145   6.641   4.047  12.148  0.1130  2.4523 -0.8572
  268MOL0     H36146   6.467   3.947  12.389  3.2772  1.8419  3.9344
  268MOL0     H36147   6.555   3.840  12.271 -1.8192 -0.1439  0.0076
  268MOL0     H36148   6.739   4.049  12.354 -0.9951  0.4634  2.2374
  268MOL0     H36149   6.627   4.038  12.494 -1.0490  0.0935  0.9312
  268MOL0     H36150   6.769   3.798  12.391  1.4020 -0.3977 -0.2604
  268MOL0     H36151   6.667   3.822  12.532 -1.1311 -0.7790 -2.1056
  268MOL0     H36152   6.838   3.995  12.623 -0.3768 -0.1369  0.6552
  268MOL0     H36153   6.934   3.959  12.476  1.1639 -0.0485  1.2618
  268MOL0     H36154   6.881   3.788  12.700 -4.3094 -0.1681 -2.4324
  268MOL0     H36155   6.990   3.733  12.563  1.2570 -0.2392  0.9103
  268MOL0     H36156   7.046   3.970  12.744  1.4969  0.7407 -0.5393
  268MOL0     H36157   7.138   3.938  12.601  0.4660  0.3369  1.1516
  268MOL0     H36158   7.112   3.783  12.878  1.9449  0.9396  0.0883
  268MOL0     H36159   7.142   3.691  12.725  2.9115  1.3907 -3.1996
  268MOL0     H36160   6.258   4.087  12.205 -0.3253  1.2223  1.6542
  268MOL0     H36161   6.097   4.196  12.045 -0.2799  2.4481 -2.4300
  268MOL0     H36162   5.964   4.737  11.970 -0.2685 -1.2228 -0.5102
  268MOL0     H36163   5.824   4.863  11.828  2.4416  1.2158  0.3065
  268MOL0     H36164   6.006   3.925  10.635 -3.5979  0.9323 -1.4153
  268MOL0     H36165   5.837   3.768  10.546 -0.0234  1.9819 -0.0973
  268MOL0     H36166   5.725   3.361  10.485 -0.5451 -2.6085 -0.4144
  268MOL0     H36167   5.604   3.223  10.324 -2.5679 -0.8740 -2.0532
  268MOL0     H36168   5.145   3.226  10.270 -2.0643  0.4148  0.6617
  268MOL0     H36169   5.173   3.150  10.427  0.1034  1.1378  0.5488
  268MOL0     H36170   5.257   2.947  10.322  0.5857  2.1893  1.0314
  268MOL0     H36171   5.239   3.017  10.164 -0.6202 -1.7413  0.0574
  268MOL0     H36172   4.982   3.054  10.212 -0.2209 -0.2950  0.6378
  268MOL0     H36173   5.010   2.955  10.361 -2.1098 -2.4794 -0.9866
  268MOL0     H36174   4.920   2.806  10.169 -0.3481  1.1304 -0.8211
  268MOL0     H36175   5.060   2.866  10.085  1.5676  0.2240  0.9729
  268MOL0     H36176   5.247   2.561  10.305 -0.3102 -1.3967 -1.3683
  268MOL0     H36177   5.233   3.362  10.489  0.5921  1.5241  1.0262
  268MOL0     H36178   5.305   3.625  10.612  0.0758  0.8065  0.4136
  268MOL0     H36179   5.224   3.484  10.684 -0.1807  0.3646 -0.8667
  268MOL0     H36180   5.367   3.560  10.763  0.0546  0.0173 -0.5282
  269MOL0     O36181   0.381   9.245   6.300  0.6031  0.8149 -0.3844
  269MOL0     C36182   0.482   9.302   6.259 -0.1480  0.6572  0.4892
  269MOL0     O36183   0.535   9.421   6.304  0.3480 -0.1242 -0.1122
  269MOL0     C36184   0.483   9.457   6.428 -0.5735  1.3851 -0.1201
  269MOL0     C36185   0.482   9.369   6.541 -0.6563 -0.6827 -0.6001
  269MOL0     C36186   0.438   9.403   6.664 -0.8289 -0.3439  0.0470
  269MOL0     C36187   0.385   9.524   6.681  0.3494 -0.7940  0.8194
  269MOL0     O36188   0.321   9.563   6.800 -0.1945 -0.2055  0.1999
  269MOL0     C36189   0.221   9.470   6.850  0.7458 -0.0804  0.3502
  269MOL0     C36190   0.085   9.521   6.806  0.4446 -0.2213 -0.6998
  269MOL0     C36191  -0.034   9.442   6.847 -0.1083 -0.3128 -0.9545
  269MOL0     C36192  -0.044   9.306   6.780  0.6266 -0.3535 -0.2020
  269MOL0     C36193  -0.194   9.285   6.742  0.0055 -0.6698 -0.6234
  269MOL0     C36194  -0.291   9.282   6.860 -0.6650 -0.3068 -0.4141
  269MOL0     C36195  -0.424   9.296   6.782 -0.4673  0.1385  0.9099
  269MOL0     C36196  -0.542   9.294   6.872 -0.1440  0.9749  0.3877
  269MOL0     N36197  -0.561   9.184   6.969  0.0857 -0.0186 -0.2287
  269MOL0     C36198  -0.629   9.063   6.959 -0.0667 -0.1294 -0.5554
  269MOL0     C36199  -0.629   9.014   7.085 -0.1881 -0.0783  0.1224
  269MOL0     C36200  -0.680   8.881   7.129 -0.0863 -0.4688  0.1587
  269MOL0     C36201  -0.601   8.815   7.241  0.3577  0.7425  1.2999
  269MOL0     C36202  -0.624   8.662   7.259 -0.1857 -0.7217  0.9493
  269MOL0     C36203  -0.553   8.621   7.381  0.8473 -0.2886 -0.4704
  269MOL0     O36204  -0.586   8.489   7.413  0.2268  0.1280  0.4386
  269MOL0     C36205  -0.516   8.411   7.499  0.1609  0.5669  0.3425
  269MOL0     C36206  -0.427   8.463   7.593  0.1972 -0.2686 -0.1856
  269MOL0     C36207  -0.359   8.381   7.684  0.9186  0.4218 -0.1979
  269MOL0     C36208  -0.376   8.238   7.683 -0.1281  0.0963  0.4164
  269MOL0     C36209  -0.304   8.159   7.781 -0.3993  0.4260 -0.8346
  269MOL0     O36210  -0.359   8.027   7.800  0.2442 -0.2835 -0.5370
  269MOL0     C36211  -0.295   7.952   7.898  1.4708  0.4203  0.1174
  269MOL0     C36212  -0.371   7.879   7.987  0.4539  0.6883 -0.9254
  269MOL0     C36213  -0.308   7.786   8.074  0.3269  0.3813 -0.5589
  269MOL0     C36214  -0.171   7.770   8.080  0.8878  0.5914  0.1680
  269MOL0     O36215  -0.113   7.680   8.166  0.1761 -0.1793  0.3769
  269MOL0     C36216  -0.163   7.659   8.303 -0.1074  0.5556  0.7065
  269MOL0     C36217  -0.059   7.560   8.368 -0.3679 -0.3610 -0.3327
  269MOL0     C36218  -0.097   7.535   8.515 -0.2787  0.6696  0.3186
  269MOL0     C36219  -0.060   7.663   8.591 -0.5241  0.2105 -0.3109
  269MOL0     C36220  -0.099   7.658   8.740  0.0140 -0.2736 -0.6835
  269MOL0     C36221  -0.254   7.634   8.757  0.1438  0.0469 -0.0614
  269MOL0     C36222  -0.305   7.692   8.886  0.8577 -0.3781 -0.1855
  269MOL0     C36223  -0.435   7.635   8.928  0.6813  0.5584  0.1887
  269MOL0    Cl36224  -0.414   7.463   8.983 -0.3506  0.3834 -0.1729
  269MOL0     C36225  -0.099   7.844   7.988  1.1543  0.2759  1.3418
  269MOL0     C36226  -0.158   7.935   7.904 -0.5214 -0.2016  0.1251
  269MOL0     O36227  -0.198   8.212   7.822  0.6022  0.6481 -0.1683
  269MOL0     C36228  -0.464   8.187   7.590  0.7858  0.4839 -0.0813
  269MOL0     C36229  -0.517   8.266   7.487  0.4393 -0.4692  0.3142
  269MOL0     N36230  -0.568   9.096   7.170 -0.7652 -0.5318 -0.4244
  269MOL0     N36231  -0.524   9.194   7.102  0.4715 -0.4775 -0.0538
  269MOL0     C36232   0.384   9.612   6.571 -0.0382 -0.7419  0.2798
  269MOL0     C36233   0.426   9.581   6.441  0.0501 -0.7845 -0.7462
  269MOL0     C36234   0.569   9.229   6.165  1.2669 -0.4558 -0.4271
  269MOL0     C36235   0.711   9.256   6.148  0.7126 -0.0064 -1.2664
  269MOL0     C36236   0.786   9.190   6.051 -0.4093 -0.1690  0.9471
  269MOL0     C36237   0.737   9.087   5.970 -0.1018 -0.4194  0.3377
  269MOL0     O36238   0.819   9.017   5.887  0.2467 -0.2420  0.2166
  269MOL0     C36239   0.794   8.876   5.870  0.1870  0.4996 -0.0632
  269MOL0     C36240   0.932   8.802   5.868  0.5641  0.2143  0.6730
  269MOL0     C36241   0.916   8.645   5.824 -0.6517 -0.6020  0.3322
  269MOL0     C36242   1.045   8.568   5.858 -0.4084 -0.5608 -0.3363
  269MOL0     C36243   1.014   8.431   5.904 -0.9420 -0.4864 -0.5011
  269MOL0     C36244   0.993   8.317   5.939  0.2156 -0.1133  0.2380
  269MOL0     C36245   0.600   9.057   5.990  0.1167  0.2806 -0.2136
  269MOL0     C36246   0.516   9.131   6.072  0.2392  0.2932  0.5239
  269MOL0     C36247   0.375   9.094   6.075 -0.1830 -0.2384  0.7061
  269MOL0     H36248   0.522   9.269   6.530 -1.3215 -1.3043  2.0229
  269MOL0     H36249   0.444   9.321   6.735 -1.6404 -1.0626 -0.6941
  269MOL0     H36250   0.238   9.369   6.814 -1.8999 -0.1171 -0.9770
  269MOL0     H36251   0.213   9.468   6.959  4.1424  1.6146  0.7756
  269MOL0     H36252   0.098   9.530   6.698 -0.5024  2.5961 -0.6452
  269MOL0     H36253   0.074   9.624   6.841  1.1737  0.5487 -2.6050
  269MOL0     H36254  -0.126   9.499   6.829 -1.2262 -1.0407  1.8090
  269MOL0     H36255  -0.031   9.425   6.955 -3.4215  0.2273 -0.6690
  269MOL0     H36256   0.016   9.297   6.689  0.3860 -2.1357 -0.2208
  269MOL0     H36257  -0.017   9.226   6.850 -1.4061 -0.9332 -0.0133
  269MOL0     H36258  -0.219   9.366   6.673 -1.9136 -0.6331  0.0564
  269MOL0     H36259  -0.214   9.189   6.694 -1.8693 -1.2142  1.0973
  269MOL0     H36260  -0.285   9.185   6.909 -0.3471 -0.6040 -1.0407
  269MOL0     H36261  -0.277   9.364   6.932 -1.9794  0.5311 -1.0891
  269MOL0     H36262  -0.447   9.212   6.716  0.8325 -1.5558  2.4953
  269MOL0     H36263  -0.434   9.391   6.727  0.9429  0.3687  1.0178
  269MOL0     H36264  -0.531   9.387   6.928  1.2937  1.4874 -0.6601
  269MOL0     H36265  -0.630   9.290   6.807  1.0489 -0.5445 -1.2593
  269MOL0     H36266  -0.672   9.014   6.872 -1.4995  0.1522 -0.0344
  269MOL0     H36267  -0.788   8.882   7.149  0.2457  0.7011  2.0380
  269MOL0     H36268  -0.671   8.819   7.039 -0.8276  1.6514 -1.4674
  269MOL0     H36269  -0.495   8.834   7.220 -0.7931  2.9109 -3.9865
  269MOL0     H36270  -0.633   8.868   7.331  0.4757  0.8293  1.2910
  269MOL0     H36271  -0.594   8.602   7.173  0.7907 -0.0521  0.8115
  269MOL0     H36272  -0.732   8.646   7.270 -0.7983  2.4250  0.4518
  269MOL0     H36273  -0.581   8.690   7.462  0.5658  0.8933 -1.5443
  269MOL0     H36274  -0.446   8.639   7.367  0.6120  2.7221  0.7023
  269MOL0     H36275  -0.427   8.571   7.605 -2.2197  0.0566 -2.2559
  269MOL0     H36276  -0.311   8.439   7.762  1.2448  2.5554 -1.8632
  269MOL0     H36277  -0.479   7.873   7.974  0.2206 -3.2762  1.3750
  269MOL0     H36278  -0.371   7.716   8.128  1.6147 -1.5744 -1.4614
  269MOL0     H36279  -0.181   7.757   8.349 -0.6160  0.9344 -0.2568
  269MOL0     H36280  -0.259   7.606   8.299 -0.0593  0.3847  1.5804
  269MOL0     H36281  -0.049   7.465   8.315 -0.5969 -1.4408  1.4473
  269MOL0     H36282   0.041   7.601   8.384  0.3502 -2.8535  2.5149
  269MOL0     H36283  -0.203   7.510   8.526 -0.2188  0.0289 -0.4658
  269MOL0     H36284  -0.030   7.462   8.561  2.1603  3.0240  0.7665
  269MOL0     H36285  -0.105   7.751   8.544 -0.2551 -1.6921 -4.6001
  269MOL0     H36286   0.046   7.688   8.575 -0.4832  0.8108  0.7768
  269MOL0     H36287  -0.068   7.742   8.804  1.4546 -4.3336  4.7180
  269MOL0     H36288  -0.039   7.578   8.784  1.5895  1.4864  0.5309
  269MOL0     H36289  -0.314   7.673   8.675  0.0241 -1.3640 -0.6714
  269MOL0     H36290  -0.264   7.525   8.757  3.0673 -0.3143 -0.4198
  269MOL0     H36291  -0.315   7.801   8.878  0.6265 -0.3499  0.4297
  269MOL0     H36292  -0.227   7.680   8.962  0.2430  1.4342  0.7835
  269MOL0     H36293  -0.484   7.703   8.998 -0.3044  0.5343 -0.4581
  269MOL0     H36294  -0.504   7.629   8.844  0.7930 -3.4173  0.1653
  269MOL0     H36295   0.009   7.843   7.987  1.1551  0.7371  0.3516
  269MOL0     H36296  -0.104   7.998   7.834 -0.5173  1.8576  1.8884
  269MOL0     H36297  -0.474   8.079   7.590 -3.4614  0.6664  1.6712
  269MOL0     H36298  -0.583   8.224   7.412 -1.7736 -0.1589  1.9892
  269MOL0     H36299   0.332   9.702   6.599  2.0357  0.3780  0.7061
  269MOL0     H36300   0.404   9.656   6.366  0.4255  2.5668  2.2442
  269MOL0     H36301   0.766   9.321   6.215  1.9706 -0.8255 -1.4570
  269MOL0     H36302   0.893   9.202   6.041 -0.6415  2.5786  0.9810
  269MOL0     H36303   0.721   8.852   5.793 -0.5130  2.1151  0.0600
  269MOL0     H36304   0.748   8.832   5.959 -0.4152 -2.3423 -1.6615
  269MOL0     H36305   0.980   8.805   5.967  0.3979  1.1833  0.7314
  269MOL0     H36306   0.989   8.859   5.794  0.6250  1.7483  1.8598
  269MOL0     H36307   0.899   8.648   5.716 -2.6793  2.4098  0.6095
  269MOL0     H36308   0.830   8.590   5.862 -3.5884  1.8442 -2.2810
  269MOL0     H36309   1.111   8.554   5.772  2.1103  1.1175  1.2080
  269MOL0     H36310   1.114   8.618   5.926 -0.7341 -1.7026  0.8632
  269MOL0     H36311   0.975   8.214   5.963  2.5655 -1.3581 -2.6156
  269MOL0     H36312   0.540   8.986   5.934 -1.6097  2.6260 -1.4812
  269MOL0     H36313   0.305   9.171   6.108 -1.0870  0.5324 -2.6506
  269MOL0     H36314   0.343   9.071   5.973 -1.2609  1.2481  0.6903
  269MOL0     H36315   0.368   9.009   6.144  4.0449 -1.5569 -0.2202
  270MOL0     O36316   4.646   8.724   8.856  0.1386  0.8369 -0.6327
  270MOL0     C36317   4.572   8.678   8.765 -0.3357  0.3302 -0.7909
  270MOL0     O36318   4.616   8.666   8.632  0.5018  1.3697  0.0535
  270MOL0     C36319   4.738   8.721   8.605 -1.1215 -0.3012  0.3058
  270MOL0     C36320   4.846   8.643   8.568 -0.5366  1.0967  0.2185
  270MOL0     C36321   4.966   8.700   8.516  0.6179  0.2674  0.9851
  270MOL0     C36322   4.987   8.841   8.524  0.6623 -0.7800 -0.4839
  270MOL0     O36323   5.110   8.884   8.493  0.1633  0.4858  0.1975
  270MOL0     C36324   5.138   9.011   8.435  0.5915  0.1891 -0.2678
  270MOL0     C36325   5.273   9.058   8.446 -0.2046  0.5447  0.1236
  270MOL0     C36326   5.383   8.948   8.439  0.9373  0.5873  0.9614
  270MOL0     C36327   5.449   8.936   8.299 -0.0384  0.0385  0.1413
  270MOL0     C36328   5.345   8.946   8.178 -0.2827 -1.0026 -0.0902
  270MOL0     C36329   5.410   8.909   8.046  0.3796  0.1394  1.0938
  270MOL0     C36330   5.503   9.006   7.979 -0.4775  0.2494  0.5774
  270MOL0     C36331   5.567   8.922   7.857 -1.4121  0.1798 -0.6813
  270MOL0     N36332   5.643   9.000   7.761  0.9701  0.2683 -0.5663
  270MOL0     C36333   5.759   9.071   7.788 -0.3003 -0.8874 -0.1154
  270MOL0     C36334   5.791   9.143   7.678 -0.5140  0.0931 -0.3446
  270MOL0     C36335   5.907   9.244   7.649  0.6110 -0.1462  0.2693
  270MOL0     C36336   6.033   9.182   7.697 -0.3328 -0.3922  0.4554
  270MOL0     C36337   6.147   9.289   7.693 -0.2422 -0.6985 -0.6597
  270MOL0     C36338   6.288   9.233   7.728 -0.2355  0.3022 -0.8516
  270MOL0     O36339   6.325   9.148   7.617  0.7667 -0.0258 -0.3673
  270MOL0     C36340   6.429   9.173   7.540  0.1030  0.8500 -0.1149
  270MOL0     C36341   6.437   9.295   7.477 -0.6574 -0.3245 -0.3226
  270MOL0     C36342   6.545   9.322   7.389 -0.7642  0.2199 -0.0338
  270MOL0     C36343   6.644   9.225   7.361  0.5332  0.1312  0.9381
  270MOL0     C36344   6.758   9.267   7.275  1.0272 -0.5820  0.3545
  270MOL0     O36345   6.767   9.396   7.223  0.7447  0.2095  0.9158
  270MOL0     C36346   6.856   9.408   7.118  0.2100  1.1460  0.2345
  270MOL0     C36347   6.802   9.406   6.992 -0.2170 -0.5863  0.5449
  270MOL0     C36348   6.893   9.411   6.888 -0.4427 -0.0388 -0.1423
  270MOL0     C36349   7.029   9.412   6.895  0.7183  0.0051  0.0160
  270MOL0     O36350   7.100   9.413   6.778 -0.5611 -1.0171 -0.0252
  270MOL0     C36351   7.231   9.365   6.783  0.1739 -0.7836  0.3085
  270MOL0     C36352   7.290   9.385   6.646 -0.3527  0.2558  0.3012
  270MOL0     C36353   7.430   9.316   6.646 -0.1660 -0.2450 -0.2794
  270MOL0     C36354   7.502   9.325   6.508 -0.0536  0.1603 -0.5130
  270MOL0     C36355   7.630   9.244   6.493 -0.2324  0.2744  0.3857
  270MOL0     C36356   7.685   9.246   6.359 -0.0667 -0.5312 -0.3070
  270MOL0     C36357   7.763   9.116   6.340 -0.3651  0.8091 -1.1040
  270MOL0     C36358   7.829   9.101   6.208 -0.1184  0.3515 -0.1202
  270MOL0    Cl36359   7.928   8.953   6.185  0.0305 -0.3019 -0.0788
  270MOL0     C36360   7.080   9.414   7.022  0.2339 -0.5129 -0.8888
  270MOL0     C36361   6.995   9.412   7.136  0.2988 -0.0308 -0.3975
  270MOL0     O36362   6.820   9.173   7.245  0.7221 -0.0953  0.1795
  270MOL0     C36363   6.630   9.101   7.416 -1.3634 -0.6294  0.0882
  270MOL0     C36364   6.523   9.070   7.500 -0.1766 -0.8191  0.3515
  270MOL0     N36365   5.695   9.104   7.589 -1.0422  0.3485  0.7552
  270MOL0     N36366   5.613   9.016   7.631  0.1328  0.0162 -0.1483
  270MOL0     C36367   4.875   8.916   8.575  0.1465  0.1857  0.2331
  270MOL0     C36368   4.754   8.863   8.608  0.7446  0.6142  0.0673
  270MOL0     C36369   4.430   8.652   8.799  0.5477 -0.2024 -0.9217
  270MOL0     C36370   4.409   8.616   8.933 -0.5533 -0.2386 -0.4289
  270MOL0     C36371   4.283   8.569   8.982 -0.2711 -0.8548 -0.4630
  270MOL0     C36372   4.176   8.577   8.904  0.1087  0.0227  0.3868
  270MOL0     O36373   4.050   8.541   8.961  0.0862  0.1426  0.2092
  270MOL0     C36374   3.941   8.523   8.872  1.2498 -0.3045 -0.3382
  270MOL0     C36375   3.833   8.463   8.954 -0.1346  0.1512 -0.1504
  270MOL0     C36376   3.818   8.507   9.098 -0.2976  0.2515 -0.2963
  270MOL0     C36377   3.674   8.534   9.141  0.8548  0.0952  0.1996
  270MOL0     C36378   3.607   8.632   9.055 -1.3835 -0.4494 -0.7786
  270MOL0     C36379   3.578   8.728   8.985  0.7584  0.2849 -0.1969
  270MOL0     C36380   4.200   8.603   8.768  0.1190  0.3254  0.0527
  270MOL0     C36381   4.320   8.647   8.716 -0.4000  0.0077 -0.1406
  270MOL0     C36382   4.325   8.687   8.571  0.3241  0.7228 -0.0364
  270MOL0     H36383   4.844   8.535   8.565  0.4502  1.0892 -0.7232
  270MOL0     H36384   5.038   8.641   8.461  2.9367  4.5927 -1.1538
  270MOL0     H36385   5.118   9.007   8.328  2.2355 -0.1050 -0.5989
  270MOL0     H36386   5.084   9.090   8.488 -1.7826 -1.5490  0.0788
  270MOL0     H36387   5.281   9.116   8.538  0.7432 -0.5174  0.7402
  270MOL0     H36388   5.296   9.137   8.374  2.3869  0.4093  0.7052
  270MOL0     H36389   5.347   8.848   8.464  0.7699  0.9718  2.3450
  270MOL0     H36390   5.455   8.960   8.521  1.0988  0.1101  0.8921
  270MOL0     H36391   5.526   9.013   8.282 -0.0767  0.4561  1.6932
  270MOL0     H36392   5.504   8.842   8.305  0.8860  0.6510  3.7196
  270MOL0     H36393   5.265   8.877   8.206 -0.5087  0.2091  2.5057
  270MOL0     H36394   5.298   9.045   8.181  1.6436  0.1836 -3.4091
  270MOL0     H36395   5.466   8.816   8.064 -0.3479 -0.2536  1.3690
  270MOL0     H36396   5.325   8.886   7.981  0.3668  1.3405  0.6607
  270MOL0     H36397   5.574   9.039   8.056  0.5271 -1.1094  0.2554
  270MOL0     H36398   5.463   9.101   7.942  1.1698  0.3605 -1.0778
  270MOL0     H36399   5.642   8.862   7.910 -2.6297 -0.5932  0.2308
  270MOL0     H36400   5.497   8.851   7.812 -1.2917 -1.6791  1.8311
  270MOL0     H36401   5.815   9.087   7.880 -3.8248  0.1510  2.0594
  270MOL0     H36402   5.910   9.265   7.541  1.7967 -2.1732 -0.1609
  270MOL0     H36403   5.877   9.335   7.700  0.3852 -0.9774  1.6807
  270MOL0     H36404   6.016   9.137   7.795 -3.7995 -1.0688 -0.3196
  270MOL0     H36405   6.063   9.102   7.629 -2.0547 -0.6566 -0.0298
  270MOL0     H36406   6.122   9.372   7.760 -2.6504 -0.9423 -1.1595
  270MOL0     H36407   6.146   9.346   7.600  0.9545 -0.3688 -0.4929
  270MOL0     H36408   6.278   9.177   7.821 -0.3623  2.9057  0.7696
  270MOL0     H36409   6.361   9.311   7.751 -0.2984  0.1781 -0.2267
  270MOL0     H36410   6.365   9.375   7.490 -0.6275 -0.3820  0.2096
  270MOL0     H36411   6.540   9.418   7.337  0.2275  0.0740 -0.4217
  270MOL0     H36412   6.696   9.410   6.969  0.2924 -0.6764 -2.1872
  270MOL0     H36413   6.845   9.427   6.792  1.5815 -3.3838 -1.9118
  270MOL0     H36414   7.295   9.420   6.852  1.1749 -2.0976  0.4519
  270MOL0     H36415   7.223   9.260   6.810 -0.9568 -0.6305  0.6509
  270MOL0     H36416   7.230   9.330   6.573 -1.1165  0.1793  0.9670
  270MOL0     H36417   7.296   9.489   6.613  1.9959  0.4852  1.2449
  270MOL0     H36418   7.494   9.350   6.728 -0.1291 -1.0412  0.0338
  270MOL0     H36419   7.416   9.208   6.659 -0.2668 -0.2125 -0.1261
  270MOL0     H36420   7.522   9.429   6.482 -0.5865 -0.6023 -4.6027
  270MOL0     H36421   7.437   9.295   6.425 -0.7965  2.6433 -0.9074
  270MOL0     H36422   7.606   9.141   6.521  1.5858  0.0186  1.1232
  270MOL0     H36423   7.704   9.272   6.568 -2.0758  3.6908  1.1331
  270MOL0     H36424   7.611   9.255   6.279 -0.0949  1.4652 -0.1002
  270MOL0     H36425   7.758   9.327   6.350  1.8042 -1.2484  5.0224
  270MOL0     H36426   7.703   9.025   6.346  1.2059 -0.2490 -0.8310
  270MOL0     H36427   7.838   9.122   6.419  0.3772 -3.0297 -1.3265
  270MOL0     H36428   7.748   9.090   6.136 -1.2837 -0.3229  1.2371
  270MOL0     H36429   7.894   9.187   6.193 -0.7209  0.2989 -3.9382
  270MOL0     H36430   7.187   9.428   7.036 -0.0243  1.5286 -0.7138
  270MOL0     H36431   7.030   9.443   7.234  0.2173  0.6310 -0.5733
  270MOL0     H36432   6.704   9.025   7.393 -3.2319 -2.3397 -0.5479
  270MOL0     H36433   6.506   8.968   7.534 -3.9660 -0.7590 -0.8880
  270MOL0     H36434   4.882   9.024   8.580  2.3984  0.2756 -2.2751
  270MOL0     H36435   4.671   8.914   8.656 -1.4824 -2.0671 -0.6797
  270MOL0     H36436   4.486   8.611   9.009 -1.7713  0.0520  0.8752
  270MOL0     H36437   4.273   8.540   9.086  1.3748 -0.7201 -0.2461
  270MOL0     H36438   3.970   8.459   8.788 -2.0452 -0.0165 -1.8439
  270MOL0     H36439   3.899   8.616   8.833  0.5976 -0.3064  0.3354
  270MOL0     H36440   3.845   8.355   8.943  2.3828  0.5744 -2.6976
  270MOL0     H36441   3.746   8.492   8.894  0.0391  1.1103  0.0500
  270MOL0     H36442   3.881   8.594   9.117 -2.5771  1.9552 -0.1488
  270MOL0     H36443   3.852   8.419   9.153  0.9361  0.5848 -0.4999
  270MOL0     H36444   3.622   8.439   9.133  0.8711  0.1466 -0.6135
  270MOL0     H36445   3.664   8.566   9.245  1.0156  1.4805 -0.1838
  270MOL0     H36446   3.528   8.811   8.940  2.3248  1.0013 -0.7115
  270MOL0     H36447   4.114   8.614   8.702  0.1733 -1.2616 -0.3255
  270MOL0     H36448   4.358   8.591   8.531  0.9376  1.1630 -0.6239
  270MOL0     H36449   4.226   8.711   8.533 -0.7418 -2.2223  0.6491
  270MOL0     H36450   4.394   8.772   8.566 -2.0961  2.9217  1.2963
  271MOL0     O36451   7.278   8.903   6.699  0.4891 -0.3605  0.1182
  271MOL0     C36452   7.372   8.897   6.780 -0.0833 -1.1584 -0.4199
  271MOL0     O36453   7.366   8.924   6.916  0.2317 -0.4638 -0.3861
  271MOL0     C36454   7.246   8.900   6.978  1.9906 -0.8140 -0.8802
  271MOL0     C36455   7.248   8.808   7.084  0.4040  1.3818 -0.3004
  271MOL0     C36456   7.129   8.785   7.158 -0.7943  1.0984  0.1399
  271MOL0     C36457   7.016   8.859   7.143 -0.3015 -0.6027  1.0010
  271MOL0     O36458   6.908   8.852   7.222 -0.1104  0.2503  0.1707
  271MOL0     C36459   6.824   8.744   7.180 -0.5770 -1.1196  0.5357
  271MOL0     C36460   6.678   8.818   7.176 -0.0173 -0.2461  0.6092
  271MOL0     C36461   6.575   8.725   7.122  0.0430 -0.1243  0.0529
  271MOL0     C36462   6.593   8.580   7.167  0.1128 -0.5838 -0.5277
  271MOL0     C36463   6.558   8.569   7.315 -0.4541  0.3042 -0.0244
  271MOL0     C36464   6.573   8.430   7.383  0.2567  0.1293 -0.3945
  271MOL0     C36465   6.538   8.304   7.299 -0.5203 -0.4388 -0.5727
  271MOL0     C36466   6.498   8.177   7.389  0.3742 -0.6308 -0.3021
  271MOL0     N36467   6.600   8.121   7.482 -0.7357  0.8452  0.3456
  271MOL0     C36468   6.664   8.186   7.588  0.5548 -0.2554  0.2513
  271MOL0     C36469   6.760   8.106   7.626  0.4216  0.3085  0.1935
  271MOL0     C36470   6.833   8.129   7.759  0.0325  0.5230  0.3475
  271MOL0     C36471   6.939   8.236   7.750  0.1482  0.1437  0.0659
  271MOL0     C36472   7.060   8.192   7.680  0.0111  1.2864  0.2233
  271MOL0     C36473   7.176   8.282   7.699  0.6298  0.6986  0.3701
  271MOL0     O36474   7.288   8.222   7.644  0.3230  0.4486 -0.0216
  271MOL0     C36475   7.404   8.287   7.639 -0.2695  0.5155 -0.2529
  271MOL0     C36476   7.518   8.214   7.595  0.0187 -0.2045 -0.6823
  271MOL0     C36477   7.656   8.267   7.584  0.1818 -0.2517  0.7190
  271MOL0     C36478   7.674   8.392   7.638  0.9666  0.2784 -0.1388
  271MOL0     C36479   7.807   8.463   7.616  0.0397  0.6477  0.5023
  271MOL0     O36480   7.823   8.589   7.657  0.4100 -0.9069 -0.4316
  271MOL0     C36481   7.950   8.643   7.648  0.1391  0.4745  0.4672
  271MOL0     C36482   7.988   8.743   7.552 -0.0451  0.2334  0.2342
  271MOL0     C36483   8.124   8.783   7.541 -0.8437 -0.0588 -0.1792
  271MOL0     C36484   8.212   8.742   7.642 -0.0213 -0.0777  0.9271
  271MOL0     O36485   8.341   8.797   7.652 -0.3613  0.7535 -0.0824
  271MOL0     C36486   8.445   8.702   7.627  0.3171  0.2147  0.2264
  271MOL0     C36487   8.452   8.681   7.471 -0.6196  0.2000  0.3690
  271MOL0     C36488   8.478   8.812   7.402 -0.4126  0.5447 -0.1324
  271MOL0     C36489   8.482   8.794   7.243 -0.1401  0.1764  0.9840
  271MOL0     C36490   8.481   8.923   7.173 -0.0310 -1.2446 -1.0305
  271MOL0     C36491   8.491   8.909   7.015 -0.1797 -0.2016 -0.4864
  271MOL0     C36492   8.524   9.049   6.949 -0.2339  0.6804  0.9198
  271MOL0     C36493   8.507   9.050   6.795 -0.1966  0.5368 -1.1086
  271MOL0    Cl36494   8.648   8.953   6.732 -0.0679  0.1360  0.1864
  271MOL0     C36495   8.174   8.650   7.739  0.4901 -0.7583 -0.0550
  271MOL0     C36496   8.046   8.596   7.744  0.0456 -0.3730  0.8595
  271MOL0     O36497   7.907   8.389   7.589  0.0395 -0.1753 -0.0632
  271MOL0     C36498   7.558   8.464   7.687 -0.3785 -0.6468  0.5279
  271MOL0     C36499   7.426   8.418   7.685 -0.6556  0.0140  0.7114
  271MOL0     N36500   6.762   7.993   7.551  0.3821 -0.3659  0.3405
  271MOL0     N36501   6.670   7.999   7.457  0.3257 -0.2855 -0.9905
  271MOL0     C36502   7.023   8.962   7.047  0.0898  0.2262 -0.7721
  271MOL0     C36503   7.130   8.984   6.961 -1.0405  0.2600  0.3353
  271MOL0     C36504   7.516   8.880   6.741 -0.7442  0.4857  1.0029
  271MOL0     C36505   7.604   8.847   6.838  0.1944  0.3912 -0.6360
  271MOL0     C36506   7.742   8.829   6.802 -0.8349  0.0013  0.0748
  271MOL0     C36507   7.784   8.828   6.666 -1.3753  0.3169 -0.2993
  271MOL0     O36508   7.921   8.805   6.645 -0.0610 -0.0983 -0.1089
  271MOL0     C36509   7.978   8.905   6.561  0.2442  0.2862 -1.2217
  271MOL0     C36510   8.126   8.909   6.586  0.2485  1.3165 -0.1208
  271MOL0     C36511   8.210   9.000   6.481 -0.6707  0.1362 -0.1362
  271MOL0     C36512   8.190   9.148   6.481  0.4362  0.6918  0.0786
  271MOL0     C36513   8.182   9.233   6.596  0.3670 -0.1215  1.1577
  271MOL0     C36514   8.169   9.291   6.706 -0.4608 -0.1856  0.0187
  271MOL0     C36515   7.695   8.857   6.569  0.7143 -0.5101 -0.2996
  271MOL0     C36516   7.559   8.880   6.604  0.0420 -1.0228  0.0695
  271MOL0     C36517   7.470   8.890   6.478 -0.6253 -0.3943  0.5624
  271MOL0     H36518   7.343   8.764   7.115 -0.4528  1.4534  2.7195
  271MOL0     H36519   7.126   8.700   7.226 -0.0906  0.8283 -0.1599
  271MOL0     H36520   6.847   8.720   7.076 -1.1882  2.7031 -0.6335
  271MOL0     H36521   6.829   8.658   7.248  0.7677 -3.1092 -1.8866
  271MOL0     H36522   6.685   8.906   7.111  1.7480 -0.1535  0.8702
  271MOL0     H36523   6.642   8.858   7.271 -0.1202 -2.0800  1.3946
  271MOL0     H36524   6.592   8.737   7.014  1.2060  0.1297  0.2489
  271MOL0     H36525   6.479   8.765   7.153  0.1563 -0.2762  0.6119
  271MOL0     H36526   6.515   8.520   7.120  1.4515 -1.5061 -1.6660
  271MOL0     H36527   6.691   8.538   7.140  0.1895 -0.1958 -0.8645
  271MOL0     H36528   6.626   8.632   7.374  1.6261 -2.2178  0.4681
  271MOL0     H36529   6.455   8.599   7.337 -0.6267 -0.1187 -0.2525
  271MOL0     H36530   6.673   8.417   7.425 -0.7260  1.1339  2.4872
  271MOL0     H36531   6.503   8.440   7.467  0.7160  1.3779 -0.1384
  271MOL0     H36532   6.621   8.269   7.238 -1.5429 -2.6793 -0.7543
  271MOL0     H36533   6.452   8.337   7.240 -0.5117  1.0576  0.1810
  271MOL0     H36534   6.417   8.208   7.454  1.8723  0.3635  1.1715
  271MOL0     H36535   6.476   8.102   7.313  0.5023  0.5282 -1.5297
  271MOL0     H36536   6.637   8.273   7.648 -0.3883 -0.5789  0.3132
  271MOL0     H36537   6.758   8.157   7.834  2.2586  1.1055  2.4698
  271MOL0     H36538   6.884   8.037   7.789  0.9107  0.5026 -1.1228
  271MOL0     H36539   6.902   8.321   7.692  2.8291  2.1146  1.0352
  271MOL0     H36540   6.969   8.277   7.847 -1.6252  0.6331  0.4458
  271MOL0     H36541   7.035   8.178   7.574  2.3587  0.5491 -0.2808
  271MOL0     H36542   7.095   8.094   7.713 -0.4656  0.7990 -0.6765
  271MOL0     H36543   7.203   8.300   7.803  0.0370  0.4795  0.5601
  271MOL0     H36544   7.168   8.378   7.647  2.6680  0.2560 -0.8754
  271MOL0     H36545   7.529   8.108   7.576  2.8349 -0.0350 -0.5138
  271MOL0     H36546   7.740   8.213   7.541  2.2410  3.7325 -0.7536
  271MOL0     H36547   7.914   8.796   7.493 -0.3820 -0.3292  0.1468
  271MOL0     H36548   8.162   8.857   7.471  0.4141  0.3338  0.8860
  271MOL0     H36549   8.534   8.744   7.675 -1.0551  0.6226  2.5854
  271MOL0     H36550   8.416   8.613   7.683 -3.6694  1.3175  0.2350
  271MOL0     H36551   8.527   8.602   7.456 -1.3124 -0.6124  1.0600
  271MOL0     H36552   8.354   8.646   7.436 -0.2171 -0.5042 -0.0739
  271MOL0     H36553   8.392   8.878   7.413 -0.2371  0.6769  0.4971
  271MOL0     H36554   8.562   8.860   7.453 -0.3148 -0.9609  1.2337
  271MOL0     H36555   8.405   8.730   7.199  1.2658 -2.6637  2.3744
  271MOL0     H36556   8.578   8.747   7.216 -1.2542 -2.4034  1.2041
  271MOL0     H36557   8.569   8.977   7.209  0.3751 -2.7636  0.3610
  271MOL0     H36558   8.390   8.979   7.195 -0.7990 -2.5784 -0.6996
  271MOL0     H36559   8.574   8.840   6.999  2.8873  2.9390  0.4710
  271MOL0     H36560   8.396   8.873   6.976 -0.6499 -2.1666  2.1694
  271MOL0     H36561   8.630   9.065   6.972  0.1575 -0.0151 -0.3096
  271MOL0     H36562   8.459   9.133   6.973 -1.8474 -0.2781  0.0703
  271MOL0     H36563   8.420   8.992   6.761  0.7962 -0.4964 -1.9426
  271MOL0     H36564   8.511   9.149   6.748 -0.5660 -0.2023 -2.7762
  271MOL0     H36565   8.249   8.619   7.812  2.4890 -1.0270 -2.1147
  271MOL0     H36566   8.024   8.511   7.809 -0.0556 -0.5696  0.5690
  271MOL0     H36567   7.566   8.565   7.726 -0.4992 -1.1904  2.0449
  271MOL0     H36568   7.340   8.477   7.717 -0.7584 -0.6028  1.6172
  271MOL0     H36569   6.929   9.014   7.027 -0.2775 -0.3063 -0.4690
  271MOL0     H36570   7.120   9.063   6.888 -1.9337  1.2204  1.4709
  271MOL0     H36571   7.572   8.855   6.941 -3.6982  1.6517 -1.7857
  271MOL0     H36572   7.816   8.815   6.881  1.1333  1.6122 -1.3669
  271MOL0     H36573   7.933   9.001   6.589 -1.4566 -0.7353 -0.2894
  271MOL0     H36574   7.957   8.876   6.458  2.5868 -1.4559 -1.3000
  271MOL0     H36575   8.155   8.804   6.582  0.2977  1.1953  2.1260
  271MOL0     H36576   8.146   8.930   6.691  2.0102 -0.8176  0.0548
  271MOL0     H36577   8.190   8.969   6.378 -0.1646  1.0050 -0.5108
  271MOL0     H36578   8.315   8.983   6.504 -0.8346  1.5275  1.8473
  271MOL0     H36579   8.270   9.191   6.419  2.2565  0.0080  1.8425
  271MOL0     H36580   8.096   9.156   6.427 -1.3362  1.2732  3.0205
  271MOL0     H36581   8.159   9.330   6.805  0.1112 -0.0565  0.0274
  271MOL0     H36582   7.724   8.864   6.465  0.8587 -1.3688 -0.3252
  271MOL0     H36583   7.532   8.863   6.391 -0.5600 -1.3253  0.8876
  271MOL0     H36584   7.378   8.831   6.480 -1.3981  0.7391 -0.3615
  271MOL0     H36585   7.449   8.997   6.465 -0.9595 -0.7162 -2.2169
  272MOL0     O36586   3.429   4.424   6.411  0.2126 -0.2346  0.5585
  272MOL0     C36587   3.466   4.541   6.443 -0.0815  0.3049  0.1351
  272MOL0     O36588   3.596   4.596   6.419  0.3796  1.0226  0.4574
  272MOL0     C36589   3.679   4.513   6.355 -0.3028 -0.0467 -0.0744
  272MOL0     C36590   3.812   4.507   6.402  0.2585  0.0733 -0.0279
  272MOL0     C36591   3.906   4.444   6.323 -0.9706 -0.4839 -0.9277
  272MOL0     C36592   3.879   4.382   6.201 -0.3037  0.5758  0.3450
  272MOL0     O36593   3.983   4.332   6.130 -0.5057  0.3652 -0.4391
  272MOL0     C36594   3.974   4.188   6.125  0.8578 -0.0043  0.4325
  272MOL0     C36595   4.102   4.123   6.063 -0.3527 -0.1444 -0.0006
  272MOL0     C36596   4.234   4.165   6.133  0.6634  0.8779 -0.2482
  272MOL0     C36597   4.336   4.051   6.118  0.0852 -0.4371  0.2853
  272MOL0     C36598   4.479   4.085   6.151 -0.1782 -0.5171 -0.6701
  272MOL0     C36599   4.495   4.129   6.299  0.0761 -0.6320 -0.5466
  272MOL0     C36600   4.633   4.189   6.349 -0.5515  0.7714  0.2971
  272MOL0     C36601   4.730   4.075   6.394  0.7309  0.8960 -0.2508
  272MOL0     N36602   4.773   3.985   6.286 -0.2091 -0.5149 -0.6668
  272MOL0     C36603   4.885   4.020   6.219 -0.0639  0.5306 -0.5532
  272MOL0     C36604   4.893   3.915   6.135 -0.4245  0.7982  0.9264
  272MOL0     C36605   4.985   3.910   6.015 -0.6923 -0.8833 -0.1491
  272MOL0     C36606   4.996   4.042   5.929  0.6350 -0.5751 -0.2971
  272MOL0     C36607   5.102   4.143   5.973  0.2961  0.5205 -0.3103
  272MOL0     C36608   5.048   4.283   6.009  0.8992 -0.2573 -0.3956
  272MOL0     O36609   4.992   4.345   5.893 -0.8136 -0.3771  0.9538
  272MOL0     C36610   5.044   4.467   5.856  0.4626  0.4983  0.2845
  272MOL0     C36611   5.022   4.588   5.911  0.5913 -0.0558 -0.7858
  272MOL0     C36612   5.069   4.708   5.858  0.0952 -0.1730  0.4274
  272MOL0     C36613   5.160   4.706   5.745 -0.4025 -0.4798 -0.5017
  272MOL0     C36614   5.218   4.825   5.684 -0.2825  0.1932  0.8625
  272MOL0     O36615   5.241   4.940   5.751 -0.0002 -0.0414 -0.7547
  272MOL0     C36616   5.279   5.056   5.684  0.0142  0.7998 -0.6112
  272MOL0     C36617   5.203   5.110   5.575 -0.6471 -0.6943 -0.5668
  272MOL0     C36618   5.262   5.214   5.510  0.0642  0.8784  0.2529
  272MOL0     C36619   5.379   5.286   5.555 -0.2833  0.9225  0.5096
  272MOL0     O36620   5.441   5.378   5.474 -0.3074  0.2007  0.4526
  272MOL0     C36621   5.503   5.326   5.351  0.1114 -0.8848  0.0253
  272MOL0     C36622   5.645   5.292   5.374 -0.2866 -0.1314  0.7670
  272MOL0     C36623   5.707   5.232   5.246  0.7378 -0.1668  0.1701
  272MOL0     C36624   5.850   5.194   5.268  0.4496  0.0054 -0.4078
  272MOL0     C36625   5.905   5.125   5.145  1.5168  1.3080  0.2967
  272MOL0     C36626   6.035   5.046   5.160 -0.4720  0.1726  0.4082
  272MOL0     C36627   6.160   5.141   5.186 -0.4463 -0.2048  0.7197
  272MOL0     C36628   6.269   5.061   5.259  0.2264  0.1190 -0.5121
  272MOL0    Cl36629   6.437   5.133   5.243  0.1104  0.0447 -0.2296
  272MOL0     C36630   5.436   5.240   5.673  0.0581 -0.6065  0.9055
  272MOL0     C36631   5.391   5.125   5.729 -0.7056  0.5118  0.0207
  272MOL0     O36632   5.249   4.812   5.561  0.7942  0.2491  0.3691
  272MOL0     C36633   5.185   4.582   5.688  0.4371  0.1269  0.4046
  272MOL0     C36634   5.137   4.464   5.745 -0.1568  0.2651 -0.1605
  272MOL0     N36635   4.796   3.816   6.155 -0.3371 -0.2718 -0.3085
  272MOL0     N36636   4.736   3.854   6.264  0.4586 -0.3727  0.5318
  272MOL0     C36637   3.753   4.385   6.145  1.7385  0.0307 -0.2993
  272MOL0     C36638   3.647   4.455   6.220  0.3947  0.0068 -0.5010
  272MOL0     C36639   3.380   4.620   6.538 -0.2180  0.7665  0.1290
  272MOL0     C36640   3.441   4.719   6.608 -0.2874 -0.6046  0.7266
  272MOL0     C36641   3.370   4.807   6.696 -0.4475 -0.4924  1.2820
  272MOL0     C36642   3.231   4.794   6.722 -0.5243  0.5375  0.7261
  272MOL0     O36643   3.154   4.876   6.799  0.0698 -1.0325 -0.5940
  272MOL0     C36644   3.194   5.019   6.788  0.8377  0.3974  0.4117
  272MOL0     C36645   3.086   5.111   6.833  0.3500  0.8218  0.3742
  272MOL0     C36646   2.935   5.073   6.793 -0.3528 -0.2996 -0.4229
  272MOL0     C36647   2.900   5.119   6.645 -0.6074  0.3644  0.5469
  272MOL0     C36648   2.759   5.155   6.615 -0.6971 -0.0877  0.1553
  272MOL0     C36649   2.644   5.184   6.580  0.0390 -0.2634 -1.0761
  272MOL0     C36650   3.165   4.692   6.645  0.6617  0.6097 -0.4669
  272MOL0     C36651   3.243   4.600   6.568  0.3991 -0.8565  0.0680
  272MOL0     C36652   3.170   4.500   6.486  0.1606 -0.3549 -0.5001
  272MOL0     H36653   3.853   4.560   6.487  2.8888 -2.1858  0.2595
  272MOL0     H36654   4.008   4.444   6.362 -1.5294  0.8105  0.6597
  272MOL0     H36655   3.956   4.144   6.223  2.4397 -0.5828  0.4964
  272MOL0     H36656   3.882   4.173   6.067  1.2362  1.5714 -0.6561
  272MOL0     H36657   4.113   4.153   5.959 -0.2472 -0.9217 -0.2180
  272MOL0     H36658   4.087   4.015   6.061 -1.4545 -0.2071  3.6526
  272MOL0     H36659   4.212   4.189   6.238  1.0838  0.8409 -0.1473
  272MOL0     H36660   4.277   4.255   6.086  1.3920  0.0342 -1.2343
  272MOL0     H36661   4.303   3.976   6.191 -1.1229  1.3878  1.7112
  272MOL0     H36662   4.344   4.004   6.020 -1.9921 -2.4368  0.9720
  272MOL0     H36663   4.541   3.996   6.140  0.7857  0.3241 -2.3637
  272MOL0     H36664   4.518   4.164   6.086  1.2669 -1.1111 -0.5533
  272MOL0     H36665   4.417   4.205   6.311  0.2295 -0.6463  0.6959
  272MOL0     H36666   4.474   4.049   6.371  1.5721 -0.4691  0.1040
  272MOL0     H36667   4.623   4.255   6.435 -2.1571  0.2590  0.5508
  272MOL0     H36668   4.671   4.254   6.269 -0.0101  2.4068  1.8203
  272MOL0     H36669   4.816   4.117   6.447 -1.7174  0.6467  4.4483
  272MOL0     H36670   4.675   4.012   6.464 -1.0997 -0.5910 -2.8748
  272MOL0     H36671   4.944   4.111   6.225 -0.5580  0.7306  2.2924
  272MOL0     H36672   5.082   3.866   6.039 -1.1318 -3.1792 -2.1117
  272MOL0     H36673   4.938   3.839   5.945 -3.2713  1.8150 -1.3838
  272MOL0     H36674   5.023   4.011   5.827  0.8317 -0.9240 -0.1395
  272MOL0     H36675   4.898   4.089   5.913  2.2902  2.3404 -3.2370
  272MOL0     H36676   5.179   4.146   5.895 -0.0793  0.1363 -0.6959
  272MOL0     H36677   5.150   4.105   6.064  1.1937 -0.4995 -1.1825
  272MOL0     H36678   5.124   4.352   6.047 -1.2561  3.3661 -2.1040
  272MOL0     H36679   4.969   4.281   6.085 -2.6139 -1.6135 -3.7716
  272MOL0     H36680   4.958   4.607   5.997  0.8406  0.1638 -0.6474
  272MOL0     H36681   5.032   4.801   5.901 -0.6413  0.6959 -1.9452
  272MOL0     H36682   5.107   5.062   5.559 -1.0666 -0.3196  0.7108
  272MOL0     H36683   5.209   5.248   5.421 -1.6573 -1.3287  0.3549
  272MOL0     H36684   5.444   5.242   5.312  0.8791 -1.0130 -0.8778
  272MOL0     H36685   5.507   5.403   5.274 -0.2345  1.5127  2.2404
  272MOL0     H36686   5.696   5.385   5.400  0.6754 -1.1989  2.9115
  272MOL0     H36687   5.656   5.213   5.448 -1.0976 -0.1958  0.8189
  272MOL0     H36688   5.663   5.135   5.220 -0.8166  0.2451  1.1219
  272MOL0     H36689   5.705   5.297   5.159  0.2826  1.8160  1.5978
  272MOL0     H36690   5.852   5.122   5.351 -3.3861  0.6086  0.3879
  272MOL0     H36691   5.898   5.290   5.289  0.5078  0.3616 -2.0642
  272MOL0     H36692   5.904   5.211   5.077 -2.5816  1.1544 -0.0987
  272MOL0     H36693   5.829   5.053   5.114  1.8884  1.2180 -0.4179
  272MOL0     H36694   6.022   4.978   5.245 -2.8261 -1.1135 -0.9025
  272MOL0     H36695   6.055   4.993   5.067  1.4072 -2.1191  1.9992
  272MOL0     H36696   6.121   5.237   5.223 -1.2393  1.6878 -4.2819
  272MOL0     H36697   6.202   5.177   5.092 -0.3763  0.4134  0.9845
  272MOL0     H36698   6.239   5.044   5.363 -2.8509  0.8912 -1.1646
  272MOL0     H36699   6.268   4.962   5.213 -0.3971  1.2880 -3.2225
  272MOL0     H36700   5.526   5.290   5.709 -0.1923  0.9925 -0.5594
  272MOL0     H36701   5.435   5.078   5.817 -0.5466 -3.8712 -2.1277
  272MOL0     H36702   5.255   4.577   5.605 -2.6123  3.3398 -2.6768
  272MOL0     H36703   5.174   4.376   5.693  3.4044  1.3344  0.2822
  272MOL0     H36704   3.716   4.328   6.060  3.4909 -1.1596 -0.3163
  272MOL0     H36705   3.546   4.460   6.182 -0.2792  0.8365  1.3034
  272MOL0     H36706   3.549   4.729   6.604 -0.1816 -1.7726 -2.3057
  272MOL0     H36707   3.426   4.881   6.752 -2.2099  2.2441 -0.3074
  272MOL0     H36708   3.219   5.049   6.686  0.7728 -1.0068 -0.0431
  272MOL0     H36709   3.278   5.028   6.857  0.4972  4.6649  0.5031
  272MOL0     H36710   3.108   5.213   6.800  0.9862  1.2953  2.1449
  272MOL0     H36711   3.072   5.109   6.941 -0.6978  1.2012  0.2618
  272MOL0     H36712   2.880   5.138   6.862  0.7167  0.8076 -0.5726
  272MOL0     H36713   2.912   4.966   6.800  0.2218 -0.6832 -3.2053
  272MOL0     H36714   2.976   5.193   6.618  3.0863 -3.0772  0.6512
  272MOL0     H36715   2.930   5.038   6.578  1.3492  1.1789  0.3749
  272MOL0     H36716   2.539   5.194   6.562  0.2863  1.9978 -1.5324
  272MOL0     H36717   3.059   4.682   6.666  0.8122  0.9920  0.5415
  272MOL0     H36718   3.182   4.538   6.384 -1.8915 -0.8519 -0.9648
  272MOL0     H36719   3.187   4.394   6.506  0.9479 -0.5881 -2.2150
  272MOL0     H36720   3.064   4.504   6.511  0.7315 -0.1897  2.2550
  273MOL0     O36721   6.000   7.537   8.232  0.7289  0.8636 -0.1799
  273MOL0     C36722   6.113   7.583   8.218  0.1419  0.7566  0.1198
  273MOL0     O36723   6.225   7.569   8.307 -0.8797 -0.0270 -0.3846
  273MOL0     C36724   6.199   7.493   8.416  0.3035  0.4774 -0.5880
  273MOL0     C36725   6.208   7.349   8.427 -0.8830 -0.9882  0.4244
  273MOL0     C36726   6.183   7.285   8.550 -0.5277 -0.2719  0.0590
  273MOL0     C36727   6.171   7.352   8.669  0.4013  0.1805  0.0102
  273MOL0     O36728   6.164   7.270   8.779 -1.1071 -0.6567  0.0856
  273MOL0     C36729   6.182   7.343   8.901  0.6693 -0.1167 -0.5411
  273MOL0     C36730   6.217   7.239   9.005 -0.4136 -0.0500  1.0370
  273MOL0     C36731   6.342   7.160   8.952 -0.2732 -0.1234  0.8425
  273MOL0     C36732   6.468   7.256   8.935  0.2447 -1.0277  0.5674
  273MOL0     C36733   6.591   7.196   8.858  0.4240  0.0323 -0.3871
  273MOL0     C36734   6.719   7.280   8.856  0.1550  0.6206  0.0430
  273MOL0     C36735   6.799   7.253   8.723 -0.3524  0.2450 -0.0010
  273MOL0     C36736   6.916   7.351   8.702 -0.3666 -0.1197 -0.7316
  273MOL0     N36737   7.034   7.333   8.788  1.1552  0.0914  0.5941
  273MOL0     C36738   7.134   7.247   8.774 -0.0608  0.1425 -0.6757
  273MOL0     C36739   7.227   7.292   8.858  0.2475 -0.3398 -0.3687
  273MOL0     C36740   7.365   7.242   8.880  0.2305 -0.1841  1.3358
  273MOL0     C36741   7.367   7.102   8.944  0.8398 -0.2565 -0.2510
  273MOL0     C36742   7.401   7.107   9.094 -0.4020 -0.0540 -0.8290
  273MOL0     C36743   7.291   7.168   9.189 -0.4918  0.3721  0.3343
  273MOL0     O36744   7.172   7.089   9.180  0.7055  0.0589 -0.3069
  273MOL0     C36745   7.065   7.132   9.258 -0.4215  0.0520  0.0586
  273MOL0     C36746   6.983   7.226   9.204  0.0257  0.7124  0.3554
  273MOL0     C36747   6.907   7.296   9.284  0.8031  0.3453 -0.5308
  273MOL0     C36748   6.906   7.272   9.428 -0.2149 -1.5940  0.3151
  273MOL0     C36749   6.821   7.357   9.520  1.0529 -1.0897  0.1452
  273MOL0     O36750   6.842   7.344   9.655 -0.0447 -0.1724 -0.0211
  273MOL0     C36751   6.761   7.389   9.756  0.5425  0.5636  0.1735
  273MOL0     C36752   6.826   7.392   9.877  0.5006 -0.7991  0.2822
  273MOL0     C36753   6.769   7.456   9.990  0.0855  0.4534 -0.5232
  273MOL0     C36754   6.646   7.528   9.976 -0.0506 -1.0923 -0.1533
  273MOL0     O36755   6.601   7.590  10.091  0.2068 -0.1481  0.1440
  273MOL0     C36756   6.482   7.675  10.078  0.2984 -0.4269  0.1540
  273MOL0     C36757   6.449   7.757  10.206 -0.6974 -0.3661  0.0257
  273MOL0     C36758   6.418   7.674  10.327  0.6333 -0.1462 -0.1831
  273MOL0     C36759   6.372   7.774  10.442 -0.6387 -0.6638  0.0824
  273MOL0     C36760   6.352   7.696  10.575 -0.2789  0.4225 -0.2864
  273MOL0     C36761   6.286   7.785  10.689  0.4111 -0.4747  0.5949
  273MOL0     C36762   6.153   7.847  10.649  0.1174  0.3584  0.5245
  273MOL0     C36763   6.082   7.916  10.769  0.0104 -0.4737  0.7336
  273MOL0    Cl36764   5.947   8.006  10.704  0.4589  0.3260  0.2806
  273MOL0     C36765   6.576   7.501   9.863  0.4422 -1.3326 -0.3871
  273MOL0     C36766   6.634   7.440   9.754 -0.4255 -0.2132  0.5627
  273MOL0     O36767   6.752   7.447   9.477  0.9407  0.0912  0.5038
  273MOL0     C36768   6.976   7.159   9.475 -0.0524  0.1706  0.5026
  273MOL0     C36769   7.064   7.087   9.387 -0.3076 -0.1960  0.2755
  273MOL0     N36770   7.175   7.399   8.940  0.1945  0.4667  0.4355
  273MOL0     N36771   7.058   7.418   8.892 -0.3396  0.1016  0.1806
  273MOL0     C36772   6.162   7.490   8.659  0.4388  0.3373  0.3347
  273MOL0     C36773   6.184   7.560   8.537 -0.3172  0.1717  0.8988
  273MOL0     C36774   6.140   7.653   8.094 -0.2104 -0.2679 -0.1215
  273MOL0     C36775   6.236   7.753   8.095 -0.3615  0.8885  0.5440
  273MOL0     C36776   6.276   7.829   7.990 -0.1234  0.1223  0.6085
  273MOL0     C36777   6.212   7.803   7.864  1.2690  0.0981 -0.5044
  273MOL0     O36778   6.229   7.874   7.746  0.3179 -1.0503 -0.5114
  273MOL0     C36779   6.358   7.905   7.699 -0.1767  0.5478 -0.2939
  273MOL0     C36780   6.413   7.796   7.596 -0.5649 -0.2178  0.0518
  273MOL0     C36781   6.307   7.782   7.483 -0.0880 -0.9760 -0.0063
  273MOL0     C36782   6.321   7.891   7.379 -0.6881  0.6744  0.7950
  273MOL0     C36783   6.209   7.875   7.280  0.1484 -0.2416 -0.2765
  273MOL0     C36784   6.111   7.854   7.215  1.1700  0.8552 -0.7145
  273MOL0     C36785   6.113   7.698   7.860 -0.4918  1.1815 -0.0209
  273MOL0     C36786   6.082   7.620   7.973 -0.7006 -0.5535 -0.2090
  273MOL0     C36787   5.987   7.508   7.967 -0.2112 -0.5204  0.5731
  273MOL0     H36788   6.236   7.285   8.343 -2.5932 -1.5466  0.2527
  273MOL0     H36789   6.205   7.180   8.538  2.4688 -0.1979  3.2568
  273MOL0     H36790   6.251   7.427   8.894  0.1759  0.2628 -0.9681
  273MOL0     H36791   6.090   7.386   8.941  0.0051 -0.2108 -1.9256
  273MOL0     H36792   6.128   7.179   9.025 -0.9743  1.0248  1.8561
  273MOL0     H36793   6.248   7.291   9.096  0.9139  0.3250  0.3971
  273MOL0     H36794   6.324   7.113   8.855 -2.6620 -2.6836  2.3840
  273MOL0     H36795   6.375   7.079   9.017 -1.5266 -0.3799  1.1751
  273MOL0     H36796   6.433   7.338   8.871 -0.9224 -0.4572  1.9015
  273MOL0     H36797   6.494   7.301   9.031  0.2847  0.2081 -0.0084
  273MOL0     H36798   6.616   7.102   8.906 -2.7600 -0.9468 -0.4221
  273MOL0     H36799   6.559   7.168   8.757  2.0096 -0.7646 -0.6889
  273MOL0     H36800   6.686   7.383   8.874  0.1999  0.4712  1.0911
  273MOL0     H36801   6.784   7.263   8.943 -1.9290 -0.6528  1.4621
  273MOL0     H36802   6.724   7.275   8.646 -0.5327  1.3605  0.4767
  273MOL0     H36803   6.834   7.150   8.717 -1.3650 -0.0642 -0.9858
  273MOL0     H36804   6.956   7.341   8.601 -1.9745 -0.2120 -1.3893
  273MOL0     H36805   6.879   7.453   8.709 -0.2495 -0.0450 -1.1925
  273MOL0     H36806   7.146   7.171   8.698 -1.9133  1.9569 -2.9571
  273MOL0     H36807   7.411   7.231   8.782  0.7395 -2.6997  1.7961
  273MOL0     H36808   7.425   7.313   8.938  1.5501  0.8066 -1.1075
  273MOL0     H36809   7.274   7.050   8.919 -1.7389  3.9824 -0.5230
  273MOL0     H36810   7.449   7.057   8.888  0.6850  1.2140 -1.7576
  273MOL0     H36811   7.500   7.153   9.098 -1.7844  3.1175  0.4037
  273MOL0     H36812   7.393   7.000   9.112  3.5332 -0.3044  0.2301
  273MOL0     H36813   7.264   7.270   9.159  1.2494  0.0525 -2.7538
  273MOL0     H36814   7.323   7.166   9.293  1.3554 -0.5526 -0.1973
  273MOL0     H36815   6.993   7.271   9.106  2.7918  0.7083  0.5498
  273MOL0     H36816   6.853   7.375   9.233  1.6641  1.3876  0.1327
  273MOL0     H36817   6.925   7.348   9.875  0.0375 -1.8542 -0.7370
  273MOL0     H36818   6.832   7.465  10.078 -0.9715 -0.4257  0.3544
  273MOL0     H36819   6.510   7.740   9.994  1.4413  1.6055  1.9837
  273MOL0     H36820   6.393   7.620  10.044 -0.0824  0.5893 -0.5685
  273MOL0     H36821   6.530   7.823  10.238  2.4910 -3.7722 -0.3278
  273MOL0     H36822   6.369   7.825  10.178  2.3486  2.9084 -1.5247
  273MOL0     H36823   6.338   7.604  10.302  0.4580  0.2566 -0.7830
  273MOL0     H36824   6.511   7.631  10.363  0.3791 -1.3385 -0.8653
  273MOL0     H36825   6.271   7.805  10.415  0.3745  0.6424 -2.5758
  273MOL0     H36826   6.439   7.860  10.451 -0.5623 -0.8863  1.8079
  273MOL0     H36827   6.447   7.659  10.614  0.3465  2.0668 -0.1626
  273MOL0     H36828   6.303   7.601  10.554 -1.1326  0.8471 -0.2366
  273MOL0     H36829   6.272   7.717  10.774  0.0705  0.3239  1.1780
  273MOL0     H36830   6.351   7.863  10.731  2.2617 -0.4028 -2.1582
  273MOL0     H36831   6.083   7.775  10.603 -0.4525  0.1835  1.6423
  273MOL0     H36832   6.196   7.912  10.572  0.9660  0.3466  0.9897
  273MOL0     H36833   6.049   7.842  10.843  5.3657 -3.3276  0.7831
  273MOL0     H36834   6.136   7.989  10.830 -1.8378  0.9399  0.7887
  273MOL0     H36835   6.477   7.544   9.850  1.4601  1.5477  0.6465
  273MOL0     H36836   6.589   7.443   9.655 -0.8245  2.2716  0.7418
  273MOL0     H36837   6.991   7.127   9.578  0.1512 -0.5637  0.2516
  273MOL0     H36838   7.128   7.010   9.427 -0.4238 -1.2681 -1.5294
  273MOL0     H36839   6.154   7.547   8.751  0.1393  1.4817 -0.3859
  273MOL0     H36840   6.199   7.668   8.542  1.2716 -0.0097  0.5950
  273MOL0     H36841   6.305   7.770   8.177 -0.7486  3.7381  0.3839
  273MOL0     H36842   6.351   7.903   8.015 -1.0509  1.4699 -0.4817
  273MOL0     H36843   6.431   7.913   7.779 -0.0403 -0.1736 -0.3386
  273MOL0     H36844   6.350   8.004   7.652 -3.7107  1.0165  0.9834
  273MOL0     H36845   6.432   7.698   7.640  2.6045 -0.2628 -1.1213
  273MOL0     H36846   6.518   7.814   7.568 -1.0883 -1.4149 -3.1364
  273MOL0     H36847   6.208   7.787   7.530 -0.6419  0.6643 -1.2186
  273MOL0     H36848   6.315   7.687   7.430  1.6222 -0.9043  0.0537
  273MOL0     H36849   6.321   7.987   7.433  1.8438 -0.0820  2.2988
  273MOL0     H36850   6.417   7.887   7.328 -0.2239 -0.0338  1.6883
  273MOL0     H36851   6.017   7.839   7.166  0.0731 -0.1528  1.5642
  273MOL0     H36852   6.069   7.667   7.766 -2.0290 -1.1502  1.3571
  273MOL0     H36853   6.030   7.420   8.016 -2.8875 -1.0377  2.1946
  273MOL0     H36854   5.898   7.520   8.030 -0.2077  0.8139  0.3685
  273MOL0     H36855   5.961   7.483   7.863  0.0788 -0.6784  0.5373
  274MOL0     O36856   6.795   9.231   1.769  0.6712 -0.7641 -0.4175
  274MOL0     C36857   6.909   9.261   1.803  0.7763 -0.5249 -0.5289
  274MOL0     O36858   6.943   9.397   1.815 -0.7079  0.1552 -1.0236
  274MOL0     C36859   6.865   9.498   1.775  0.1914 -0.7546 -0.7592
  274MOL0     C36860   6.907   9.603   1.698 -0.5519  0.1044  0.4141
  274MOL0     C36861   6.821   9.691   1.633 -0.3709  0.1068  0.3016
  274MOL0     C36862   6.681   9.675   1.651 -0.4292  0.0849  0.3547
  274MOL0     O36863   6.597   9.765   1.595 -0.2586  0.0377 -0.6755
  274MOL0     C36864   6.579   9.878   1.678  0.0445  0.1653  0.0998
  274MOL0     C36865   6.429   9.881   1.692  0.0400  0.1568 -0.1277
  274MOL0     C36866   6.387   9.973   1.804  1.2509  0.5417 -0.1741
  274MOL0     C36867   6.231   9.958   1.819 -0.6722 -0.7871  0.0417
  274MOL0     C36868   6.195   9.829   1.886 -0.7394  0.1584 -0.7755
  274MOL0     C36869   6.044   9.812   1.881 -0.3677 -0.0621  1.2250
  274MOL0     C36870   5.991   9.705   1.962  0.2595 -0.6453 -0.6341
  274MOL0     C36871   5.843   9.727   1.990  0.5000 -0.2040 -0.4046
  274MOL0     N36872   5.784   9.616   2.072 -0.2075 -0.3373 -0.2002
  274MOL0     C36873   5.659   9.558   2.056  0.5993  0.2914 -0.4711
  274MOL0     C36874   5.648   9.495   2.180  0.4812 -0.2717 -0.6557
  274MOL0     C36875   5.525   9.417   2.222  0.3547 -0.3014  0.5967
  274MOL0     C36876   5.532   9.267   2.190  0.3048  0.6294  0.2510
  274MOL0     C36877   5.628   9.191   2.287  0.4300 -0.5436  0.2622
  274MOL0     C36878   5.679   9.057   2.227 -0.4269  0.9427 -0.3630
  274MOL0     O36879   5.757   9.087   2.108  0.3147 -0.2197  0.1866
  274MOL0     C36880   5.840   8.982   2.069 -0.3051  0.3367  0.3526
  274MOL0     C36881   5.837   8.854   2.121  0.6283  0.4229 -0.3157
  274MOL0     C36882   5.927   8.752   2.075 -0.7561 -0.4196 -0.3852
  274MOL0     C36883   6.018   8.786   1.979 -0.0164  0.6525  0.9308
  274MOL0     C36884   6.115   8.684   1.934 -0.6084 -0.5555  0.2503
  274MOL0     O36885   6.104   8.565   1.992  0.3776  0.5708 -0.4935
  274MOL0     C36886   6.188   8.460   1.952  0.0162  0.3451  0.5494
  274MOL0     C36887   6.280   8.409   2.041 -0.0293  0.3146 -0.4076
  274MOL0     C36888   6.367   8.302   2.001 -0.2315  0.7602  0.2647
  274MOL0     C36889   6.339   8.233   1.886  0.0770 -1.0653 -0.0044
  274MOL0     O36890   6.377   8.114   1.850 -0.5915 -0.3273 -0.0295
  274MOL0     C36891   6.519   8.081   1.863  1.0237  0.6292 -0.5874
  274MOL0     C36892   6.610   8.190   1.802  0.1938 -0.3083  0.3158
  274MOL0     C36893   6.752   8.146   1.757  0.4649  0.2339  0.0973
  274MOL0     C36894   6.843   8.119   1.871 -0.2985  0.3746  0.3168
  274MOL0     C36895   6.974   8.063   1.822  0.0800  0.3136 -0.0930
  274MOL0     C36896   7.080   8.038   1.930 -0.1410  0.1446 -0.2515
  274MOL0     C36897   7.187   7.947   1.868  0.8129  0.2481  0.3337
  274MOL0     C36898   7.318   7.977   1.937  0.4839 -0.8130  0.5235
  274MOL0    Cl36899   7.452   7.911   1.836  0.5625 -0.0199 -0.1661
  274MOL0     C36900   6.252   8.281   1.793 -0.1761 -0.5645 -0.2064
  274MOL0     C36901   6.176   8.397   1.825 -0.2519  0.0296 -0.3289
  274MOL0     O36902   6.189   8.712   1.838 -0.0180  0.6270  0.0783
  274MOL0     C36903   6.016   8.908   1.917 -0.5376 -0.3737  0.2826
  274MOL0     C36904   5.935   9.000   1.968  0.7015  0.6209 -0.5359
  274MOL0     N36905   5.755   9.513   2.266 -0.6283  0.3441 -0.3312
  274MOL0     N36906   5.833   9.587   2.197 -0.6351  0.1045  0.5075
  274MOL0     C36907   6.629   9.577   1.738 -0.9787  0.0107 -0.6318
  274MOL0     C36908   6.723   9.498   1.807  0.4856  0.3842  0.2648
  274MOL0     C36909   7.014   9.148   1.828 -0.5951  0.5448  0.2171
  274MOL0     C36910   7.125   9.199   1.896  0.1570  0.0385  0.5958
  274MOL0     C36911   7.241   9.122   1.911 -0.6288 -0.9346 -0.0819
  274MOL0     C36912   7.243   8.985   1.880 -0.5168 -0.0075 -0.5144
  274MOL0     O36913   7.349   8.904   1.909  0.1145  0.6754 -0.6766
  274MOL0     C36914   7.352   8.784   1.828 -0.8406  0.9581 -0.6847
  274MOL0     C36915   7.495   8.726   1.831 -0.0849  0.3625 -0.0402
  274MOL0     C36916   7.595   8.820   1.764  0.2981  0.3539  0.0578
  274MOL0     C36917   7.715   8.849   1.853 -0.3718  0.1042 -0.7520
  274MOL0     C36918   7.806   8.917   1.764 -0.7332 -0.0785  0.5446
  274MOL0     C36919   7.889   8.987   1.703  0.5059  0.4988  0.2004
  274MOL0     C36920   7.127   8.936   1.815 -0.5285 -0.0844 -0.3879
  274MOL0     C36921   7.017   9.015   1.793  1.3431 -0.0439 -0.4899
  274MOL0     C36922   6.897   8.947   1.729  0.4810  0.0266 -0.3926
  274MOL0     H36923   7.009   9.614   1.661 -1.4353  4.5935 -1.4146
  274MOL0     H36924   6.862   9.733   1.542  1.0863 -2.1345 -0.1664
  274MOL0     H36925   6.639   9.866   1.768  2.3327  0.4275 -1.3122
  274MOL0     H36926   6.617   9.969   1.630  2.4511  0.1591  1.8343
  274MOL0     H36927   6.390   9.779   1.688  1.2777 -0.5303  3.0667
  274MOL0     H36928   6.398   9.929   1.598  2.9662  1.4713 -0.5454
  274MOL0     H36929   6.415  10.072   1.770 -1.8872  1.5038 -0.2806
  274MOL0     H36930   6.438   9.957   1.899  0.5642 -1.6960 -0.0981
  274MOL0     H36931   6.198  10.037   1.888 -1.9313 -2.1162  1.0270
  274MOL0     H36932   6.181   9.957   1.721 -1.9316 -3.2808  0.6242
  274MOL0     H36933   6.253   9.747   1.843  1.7016  2.3822 -2.0484
  274MOL0     H36934   6.226   9.826   1.991 -0.8115  0.8530 -0.7312
  274MOL0     H36935   5.996   9.909   1.893  1.1067  0.7762  0.6786
  274MOL0     H36936   6.019   9.788   1.778  0.7669  1.5378  0.5399
  274MOL0     H36937   6.052   9.703   2.053  2.3115  2.8865 -1.7165
  274MOL0     H36938   6.007   9.611   1.908  2.0489 -1.2196  0.8000
  274MOL0     H36939   5.817   9.821   2.039 -2.0088 -0.4145 -1.1867
  274MOL0     H36940   5.801   9.735   1.889 -0.9883 -0.0382  0.2029
  274MOL0     H36941   5.586   9.564   1.977  0.4538 -2.2539 -0.6225
  274MOL0     H36942   5.493   9.433   2.325 -2.5318 -3.4399  0.3758
  274MOL0     H36943   5.445   9.454   2.157  0.9178  0.5938  0.3921
  274MOL0     H36944   5.432   9.225   2.206  0.5440  0.6535  2.1238
  274MOL0     H36945   5.571   9.247   2.090  1.8473  0.8255  0.7916
  274MOL0     H36946   5.597   9.172   2.390 -1.6139  0.2006 -0.1531
  274MOL0     H36947   5.716   9.253   2.305  1.1704 -0.8618 -1.9513
  274MOL0     H36948   5.603   8.982   2.204 -2.2160  1.9775  1.8268
  274MOL0     H36949   5.739   9.016   2.308 -2.2422 -0.4390  0.3427
  274MOL0     H36950   5.756   8.821   2.185  0.9743  1.6212  0.7843
  274MOL0     H36951   5.913   8.649   2.105  0.2665 -1.1741 -2.2910
  274MOL0     H36952   6.288   8.448   2.142  1.0756 -1.5287  0.2567
  274MOL0     H36953   6.437   8.258   2.072 -2.9535 -0.8477  2.1582
  274MOL0     H36954   6.540   8.070   1.970 -2.0939 -0.8837  0.0135
  274MOL0     H36955   6.542   7.981   1.824 -0.4026  0.2475 -0.5406
  274MOL0     H36956   6.555   8.237   1.719  1.3947 -2.0760 -1.5885
  274MOL0     H36957   6.631   8.269   1.875 -2.4256 -0.5146  1.4025
  274MOL0     H36958   6.740   8.051   1.705  2.1417  0.8701 -1.5591
  274MOL0     H36959   6.800   8.215   1.687  1.2839 -1.1897 -0.7710
  274MOL0     H36960   6.798   8.044   1.938 -0.0593  1.4040  1.6886
  274MOL0     H36961   6.870   8.206   1.932  1.4308  1.2872 -1.6603
  274MOL0     H36962   7.020   8.139   1.758 -0.9259 -0.1255 -1.3858
  274MOL0     H36963   6.943   7.975   1.765  0.3318  0.1918 -0.0420
  274MOL0     H36964   7.118   8.137   1.954 -1.8615  0.4949  1.2748
  274MOL0     H36965   7.050   7.997   2.027  0.3737  0.5578  0.0913
  274MOL0     H36966   7.206   7.966   1.762  0.9788  1.8705  0.6376
  274MOL0     H36967   7.150   7.844   1.876 -1.4902  0.9505 -0.6309
  274MOL0     H36968   7.351   8.081   1.944  1.7880 -1.0887 -0.9638
  274MOL0     H36969   7.317   7.937   2.038 -2.2896  1.5227  1.5603
  274MOL0     H36970   6.246   8.220   1.703  0.3709 -0.7973 -0.0882
  274MOL0     H36971   6.105   8.436   1.753  0.2567  1.3751 -0.1368
  274MOL0     H36972   6.082   8.917   1.831 -2.2885  0.4689 -1.0641
  274MOL0     H36973   5.943   9.088   1.905  1.6252  1.1876  0.3561
  274MOL0     H36974   6.522   9.558   1.745 -0.9074 -0.8963 -1.7102
  274MOL0     H36975   6.687   9.418   1.872  2.4514  0.6102  1.7465
  274MOL0     H36976   7.125   9.300   1.935  0.8995 -0.9844  3.5156
  274MOL0     H36977   7.328   9.179   1.944  0.6667 -2.6276 -0.4818
  274MOL0     H36978   7.325   8.797   1.723  0.5021  3.3599 -0.8054
  274MOL0     H36979   7.290   8.708   1.876 -0.8746  0.2238 -1.8585
  274MOL0     H36980   7.487   8.629   1.781  0.7319 -0.2849  1.0256
  274MOL0     H36981   7.527   8.694   1.931 -2.0159 -0.1384  0.4640
  274MOL0     H36982   7.558   8.912   1.717  0.0185  0.0725 -0.2802
  274MOL0     H36983   7.626   8.763   1.676 -2.5940  0.0854 -0.9072
  274MOL0     H36984   7.684   8.907   1.940 -0.7690 -3.7875  1.9422
  274MOL0     H36985   7.759   8.754   1.882  0.5261  0.5404 -0.6431
  274MOL0     H36986   7.965   9.046   1.657  1.0990 -0.3376  0.0939
  274MOL0     H36987   7.114   8.832   1.789 -3.5365  0.1884 -0.2701
  274MOL0     H36988   6.816   8.947   1.803 -1.7397  4.7156 -2.4205
  274MOL0     H36989   6.863   8.994   1.636  0.2055 -0.6850 -0.6549
  274MOL0     H36990   6.918   8.842   1.707  2.9945  0.5021 -0.5673
  275MOL0     O36991   5.640   4.947   4.014 -0.0873 -0.0950  0.1188
  275MOL0     C36992   5.650   4.959   4.135 -0.1442 -0.2646 -0.1644
  275MOL0     O36993   5.771   4.981   4.206 -0.2387  0.3156 -0.3092
  275MOL0     C36994   5.881   5.027   4.131 -0.0390 -0.2850 -0.3059
  275MOL0     C36995   5.925   5.156   4.142  0.0484  0.2195  0.1723
  275MOL0     C36996   6.041   5.202   4.079 -0.1462 -1.2455  0.4420
  275MOL0     C36997   6.105   5.110   3.999 -0.2393  0.1548 -0.7673
  275MOL0     O36998   6.216   5.160   3.932 -0.1031 -0.1094 -0.2663
  275MOL0     C36999   6.315   5.067   3.893 -0.2266 -0.3082 -0.0343
  275MOL0     C37000   6.388   4.985   4.001  0.1328 -0.0442 -1.0126
  275MOL0     C37001   6.525   4.939   3.958  0.1387 -0.1290  0.2343
  275MOL0     C37002   6.624   5.052   3.965 -0.0425 -1.3145  0.4686
  275MOL0     C37003   6.761   4.993   3.920 -0.1449  0.1146  0.0050
  275MOL0     C37004   6.880   5.084   3.932 -0.6135 -0.0885 -0.2202
  275MOL0     C37005   7.015   5.014   3.934 -0.3628  0.0984  0.0576
  275MOL0     C37006   7.048   4.955   3.794  0.7211  0.4370  0.4892
  275MOL0     N37007   7.190   4.946   3.767  0.0044 -0.4299 -0.3267
  275MOL0     C37008   7.292   4.961   3.862  0.7718 -0.3085 -0.1473
  275MOL0     C37009   7.404   4.985   3.791 -0.6535  0.5363 -0.5978
  275MOL0     C37010   7.539   5.000   3.853 -0.1908  0.2544  0.4340
  275MOL0     C37011   7.643   5.034   3.748  0.5005 -0.1130  1.0576
  275MOL0     C37012   7.644   5.159   3.670  0.4207 -0.1367 -0.4118
  275MOL0     C37013   7.758   5.152   3.577 -0.4047 -0.2137 -0.3335
  275MOL0     O37014   7.889   5.154   3.655  1.2882  0.5812 -0.4473
  275MOL0     C37015   7.989   5.062   3.624  0.0793 -0.3068 -0.2070
  275MOL0     C37016   7.966   4.930   3.579  0.4035 -0.1789 -0.3791
  275MOL0     C37017   8.069   4.850   3.543 -0.4294 -0.9319 -0.7265
  275MOL0     C37018   8.200   4.888   3.553  0.2646 -0.8668  0.5295
  275MOL0     C37019   8.312   4.814   3.502 -0.0632  0.6203 -0.5900
  275MOL0     O37020   8.434   4.852   3.545 -0.4793  0.3823  0.4275
  275MOL0     C37021   8.536   4.774   3.496  0.5889 -0.6236  0.7237
  275MOL0     C37022   8.548   4.649   3.556 -0.1916  0.2189 -0.3568
  275MOL0     C37023   8.648   4.558   3.525  0.0585  0.4866  0.3325
  275MOL0     C37024   8.745   4.591   3.423 -0.1898 -0.4417 -0.3039
  275MOL0     O37025   8.848   4.501   3.385 -0.0022 -0.2195  0.2744
  275MOL0     C37026   8.857   4.375   3.449  0.7486 -0.4123 -0.5979
  275MOL0     C37027   9.000   4.326   3.422 -0.4127  0.6472  0.2163
  275MOL0     C37028   9.017   4.195   3.493 -0.5235 -0.1549  0.8236
  275MOL0     C37029   9.152   4.128   3.473 -0.1137  0.1378 -0.3552
  275MOL0     C37030   9.171   4.012   3.569  0.3651 -0.1149 -0.1043
  275MOL0     C37031   9.291   3.926   3.515  0.6794 -0.6459  0.7861
  275MOL0     C37032   9.346   3.836   3.615  0.1667  0.3687  0.4232
  275MOL0     C37033   9.430   3.899   3.721 -0.5926  0.6273 -0.2767
  275MOL0    Cl37034   9.593   3.955   3.656 -0.2011  0.1085  0.3199
  275MOL0     C37035   8.732   4.722   3.355  0.2198  0.4957  0.4622
  275MOL0     C37036   8.625   4.806   3.393 -0.5437 -0.4407  0.4309
  275MOL0     O37037   8.292   4.730   3.412 -0.0691  0.6163  0.1738
  275MOL0     C37038   8.226   5.014   3.613 -0.0150 -0.3091  0.2017
  275MOL0     C37039   8.114   5.099   3.645 -0.5014  0.3708 -0.2727
  275MOL0     N37040   7.375   4.986   3.657 -0.4446  0.2504 -0.2223
  275MOL0     N37041   7.251   4.976   3.648  0.5115  0.7524 -0.2805
  275MOL0     C37042   6.063   4.979   3.994 -0.2924 -0.1858 -0.2369
  275MOL0     C37043   5.944   4.941   4.048 -0.5704 -0.1465  0.2892
  275MOL0     C37044   5.538   4.935   4.226  0.3723 -0.5819 -0.7943
  275MOL0     C37045   5.547   4.883   4.351  0.0658  0.8968  0.5471
  275MOL0     C37046   5.428   4.855   4.426 -0.1278 -0.1000 -0.3705
  275MOL0     C37047   5.300   4.877   4.378 -0.2520 -0.5982  0.1663
  275MOL0     O37048   5.192   4.858   4.466  0.1523 -0.2029  0.3304
  275MOL0     C37049   5.192   4.910   4.599 -0.2815 -0.7639  0.1466
  275MOL0     C37050   5.186   5.061   4.603 -0.6942  0.5610  0.6686
  275MOL0     C37051   5.060   5.109   4.524  0.2392 -0.7533  0.6596
  275MOL0     C37052   4.938   5.110   4.611 -0.6369 -0.1575  0.0341
  275MOL0     C37053   4.841   5.209   4.556 -0.3703 -0.6684  0.4753
  275MOL0     C37054   4.760   5.286   4.517  0.7914  0.5352  0.8395
  275MOL0     C37055   5.286   4.939   4.257 -0.1795  0.2368 -0.2772
  275MOL0     C37056   5.401   4.970   4.181 -0.0436 -0.2926  0.3762
  275MOL0     C37057   5.370   5.033   4.047  1.1997 -0.3493  0.9623
  275MOL0     H37058   5.883   5.228   4.211  1.9992 -1.2825  3.1307
  275MOL0     H37059   6.075   5.302   4.105 -4.5685  0.2027  1.4768
  275MOL0     H37060   6.271   4.996   3.824 -0.9140 -0.4393  0.5226
  275MOL0     H37061   6.386   5.127   3.836 -3.5095  3.6880 -0.3982
  275MOL0     H37062   6.338   4.892   4.030 -0.1280  0.8952  1.9392
  275MOL0     H37063   6.401   5.040   4.096 -2.3199 -1.0120 -0.0241
  275MOL0     H37064   6.520   4.901   3.855  0.9992 -3.9810  1.4834
  275MOL0     H37065   6.551   4.852   4.018 -2.0731 -0.9412  0.1088
  275MOL0     H37066   6.603   5.141   3.905  2.5364  0.3474  1.8662
  275MOL0     H37067   6.633   5.089   4.067 -4.0001 -2.0607  1.2444
  275MOL0     H37068   6.770   4.897   3.972 -2.5208 -2.0980 -3.2044
  275MOL0     H37069   6.759   4.971   3.812 -2.4726 -0.0538  0.0313
  275MOL0     H37070   6.883   5.148   3.843  0.4976 -1.8846 -1.5326
  275MOL0     H37071   6.880   5.135   4.029 -0.5884 -2.8107  1.3152
  275MOL0     H37072   7.006   4.936   4.010 -3.0059 -1.3482 -1.5706
  275MOL0     H37073   7.087   5.093   3.958  1.3054 -0.7440 -1.8903
  275MOL0     H37074   7.000   4.858   3.782 -1.0325  1.3918 -0.6464
  275MOL0     H37075   7.003   5.028   3.726  0.7379  1.4921  1.5718
  275MOL0     H37076   7.282   4.966   3.970 -3.0859 -0.9206 -0.3139
  275MOL0     H37077   7.542   5.080   3.929  0.1339 -1.5447  2.4097
  275MOL0     H37078   7.567   4.908   3.905 -1.7723 -0.4035  0.1673
  275MOL0     H37079   7.742   5.035   3.796  1.6252  1.4574 -1.1472
  275MOL0     H37080   7.634   4.946   3.683  1.3070  1.3961 -1.1955
  275MOL0     H37081   7.663   5.239   3.741  3.2637  1.4811 -2.7790
  275MOL0     H37082   7.552   5.168   3.612  1.5189  1.1460 -2.0568
  275MOL0     H37083   7.756   5.245   3.520  0.9929  0.6394  0.9437
  275MOL0     H37084   7.750   5.063   3.514  2.3547 -2.0130  1.6343
  275MOL0     H37085   7.866   4.892   3.559  0.6538 -0.8213 -0.4344
  275MOL0     H37086   8.056   4.753   3.496 -0.4793 -1.2334 -0.1061
  275MOL0     H37087   8.467   4.631   3.626 -1.1829  3.0163 -0.6974
  275MOL0     H37088   8.655   4.470   3.587 -1.8526 -0.1923 -0.3577
  275MOL0     H37089   8.844   4.391   3.556  3.0572  1.7824 -0.5403
  275MOL0     H37090   8.784   4.305   3.407  1.4315  0.3946 -3.3690
  275MOL0     H37091   9.007   4.297   3.317  0.9682  1.1080  0.1626
  275MOL0     H37092   9.079   4.391   3.460  1.2157 -2.0166  1.5924
  275MOL0     H37093   9.004   4.198   3.602 -0.1649 -2.6698  0.9901
  275MOL0     H37094   8.941   4.133   3.445 -0.9257  0.1003  1.1233
  275MOL0     H37095   9.232   4.201   3.487 -1.4571  2.0238 -1.9016
  275MOL0     H37096   9.153   4.103   3.366 -0.0540  2.3356 -0.9167
  275MOL0     H37097   9.088   3.942   3.580  0.6557 -0.7267 -1.6238
  275MOL0     H37098   9.195   4.050   3.669  1.4375 -0.6451 -0.1481
  275MOL0     H37099   9.264   3.876   3.422  0.5104  1.5123 -0.3901
  275MOL0     H37100   9.365   3.995   3.474  0.9877 -0.9530  0.8210
  275MOL0     H37101   9.415   3.774   3.557  0.0284  0.8385 -0.2661
  275MOL0     H37102   9.266   3.776   3.658  0.7862 -2.3844 -1.9349
  275MOL0     H37103   9.372   3.985   3.756 -2.7699  1.9307 -5.9643
  275MOL0     H37104   9.470   3.827   3.793  0.7150  0.5688 -1.0188
  275MOL0     H37105   8.804   4.732   3.276  1.9191 -0.8821  1.7634
  275MOL0     H37106   8.604   4.894   3.333  0.4697 -0.6290 -0.2088
  275MOL0     H37107   8.330   5.040   3.631  0.3596 -1.6519  0.1182
  275MOL0     H37108   8.135   5.199   3.683  3.7605 -0.4786  0.1808
  275MOL0     H37109   6.112   4.907   3.929  0.5832  1.4532 -1.4804
  275MOL0     H37110   5.912   4.841   4.021  0.9350 -0.0520 -2.1420
  275MOL0     H37111   5.647   4.853   4.382  0.5165  1.1602 -0.6189
  275MOL0     H37112   5.444   4.807   4.523 -2.6472 -1.2741 -0.4508
  275MOL0     H37113   5.285   4.880   4.649  1.0090  1.3175 -0.9025
  275MOL0     H37114   5.102   4.879   4.654 -0.4305 -1.6975 -0.5908
  275MOL0     H37115   5.281   5.092   4.559 -1.4955  0.0102 -1.5392
  275MOL0     H37116   5.188   5.107   4.703 -0.2573  3.5116 -0.5984
  275MOL0     H37117   5.033   5.053   4.434 -0.5849  0.9379 -0.1791
  275MOL0     H37118   5.081   5.211   4.493 -1.8097 -0.6400 -0.5586
  275MOL0     H37119   4.889   5.012   4.620 -1.7154 -0.0229 -3.1895
  275MOL0     H37120   4.966   5.142   4.712 -1.8305  1.0685 -0.0013
  275MOL0     H37121   4.694   5.352   4.464  0.3468 -2.1953 -2.3488
  275MOL0     H37122   5.185   4.965   4.226 -2.0126 -3.6380  1.6225
  275MOL0     H37123   5.448   5.099   4.010 -0.6804  1.5849  0.2570
  275MOL0     H37124   5.353   4.952   3.975  1.2159  0.1565  0.3819
  275MOL0     H37125   5.277   5.089   4.062 -0.9958 -3.2639 -0.7085
  276MOL0     O37126   2.457   7.970   3.333 -0.4754 -0.6636 -0.3908
  276MOL0     C37127   2.469   8.052   3.240 -0.7701 -0.3969 -0.3422
  276MOL0     O37128   2.554   8.168   3.240 -0.2365  0.7632  1.2387
  276MOL0     C37129   2.619   8.219   3.348 -0.2118  0.4395  0.2346
  276MOL0     C37130   2.675   8.340   3.334 -1.1329 -0.2083  0.0386
  276MOL0     C37131   2.746   8.399   3.436  0.4861 -0.3336  0.1549
  276MOL0     C37132   2.757   8.348   3.561  0.0720  0.7710  0.4402
  276MOL0     O37133   2.824   8.407   3.658  0.0129  0.5590  0.4950
  276MOL0     C37134   2.953   8.458   3.618  0.1374 -0.6851  0.2464
  276MOL0     C37135   3.048   8.353   3.555  0.2540  0.5951  0.6283
  276MOL0     C37136   3.117   8.262   3.656 -0.4014  0.3370  0.6779
  276MOL0     C37137   3.248   8.202   3.592 -0.5355  0.4155 -0.0391
  276MOL0     C37138   3.312   8.094   3.682  0.6930 -0.5479 -0.0533
  276MOL0     C37139   3.409   8.009   3.596  0.4687 -0.7993 -0.2360
  276MOL0     C37140   3.451   7.889   3.684 -0.1090  0.1341  0.6339
  276MOL0     C37141   3.559   7.804   3.610 -0.0234 -0.3558 -0.3093
  276MOL0     N37142   3.556   7.670   3.675  0.0741 -0.8251  0.1591
  276MOL0     C37143   3.608   7.654   3.803  0.9092  0.4352  0.2417
  276MOL0     C37144   3.659   7.535   3.801 -0.7517 -0.0022 -1.0088
  276MOL0     C37145   3.724   7.477   3.917 -0.6802 -0.7502 -0.6961
  276MOL0     C37146   3.866   7.536   3.956 -0.5031  0.3514  0.6855
  276MOL0     C37147   3.985   7.474   3.875 -0.0527 -0.6189  0.5635
  276MOL0     C37148   4.043   7.336   3.923 -0.1266  0.1567  0.1468
  276MOL0     O37149   4.174   7.295   3.862  0.3945 -0.0522  0.7193
  276MOL0     C37150   4.283   7.365   3.917 -0.1088  0.2252 -0.0147
  276MOL0     C37151   4.370   7.304   4.009 -0.1510 -0.3896  0.7319
  276MOL0     C37152   4.475   7.369   4.068  0.7679 -0.3663 -0.0078
  276MOL0     C37153   4.513   7.498   4.019 -0.7060  0.0404 -0.4982
  276MOL0     C37154   4.631   7.569   4.083  0.0627  0.4411  0.6589
  276MOL0     O37155   4.663   7.536   4.211  0.5714 -0.0073  0.2991
  276MOL0     C37156   4.776   7.590   4.275  0.7775  0.1939  0.2652
  276MOL0     C37157   4.900   7.583   4.223  0.1076 -0.1260 -0.4269
  276MOL0     C37158   5.015   7.623   4.294 -0.1200  0.2187  0.2445
  276MOL0     C37159   5.000   7.660   4.433 -0.6325  0.1305 -0.2752
  276MOL0     O37160   5.103   7.707   4.516  0.4437 -0.3731  0.4092
  276MOL0     C37161   5.239   7.713   4.468 -0.8366  0.4070  0.2515
  276MOL0     C37162   5.327   7.799   4.559 -0.8037  0.2398  0.1400
  276MOL0     C37163   5.372   7.733   4.684 -0.9687  0.1642 -0.0960
  276MOL0     C37164   5.479   7.613   4.669  0.5771 -1.0528  0.3749
  276MOL0     C37165   5.610   7.660   4.607 -0.3349  0.3683  1.4239
  276MOL0     C37166   5.725   7.559   4.627  1.0300  0.1820 -0.8407
  276MOL0     C37167   5.824   7.592   4.745  0.5705 -0.4745  0.3072
  276MOL0     C37168   5.942   7.508   4.751  0.4061 -0.3175  0.1881
  276MOL0    Cl37169   6.071   7.557   4.647  0.1508 -0.0697 -0.0350
  276MOL0     C37170   4.869   7.669   4.490  1.0427 -0.5167 -0.1618
  276MOL0     C37171   4.761   7.634   4.408  0.4330 -0.9207 -0.5275
  276MOL0     O37172   4.693   7.654   4.017  0.6085 -0.5491 -0.0493
  276MOL0     C37173   4.439   7.556   3.916 -0.7303  1.4436 -0.3765
  276MOL0     C37174   4.328   7.487   3.868  0.3288  0.4303  0.1920
  276MOL0     N37175   3.649   7.481   3.678 -0.1910 -1.1265  0.0326
  276MOL0     N37176   3.582   7.558   3.598 -0.2350 -0.5362  0.4916
  276MOL0     C37177   2.700   8.225   3.578  0.6749 -0.9024  0.4245
  276MOL0     C37178   2.638   8.159   3.474  0.3651 -0.5061 -0.3139
  276MOL0     C37179   2.392   8.020   3.127  0.6406  0.4278  0.0630
  276MOL0     C37180   2.459   8.036   3.007 -0.1045 -0.7851 -0.7377
  276MOL0     C37181   2.408   7.975   2.891 -0.0447  0.4391 -1.2306
  276MOL0     C37182   2.278   7.920   2.885 -0.0048  0.3407  0.6944
  276MOL0     O37183   2.244   7.860   2.764 -0.3182  1.0746 -0.5013
  276MOL0     C37184   2.113   7.818   2.741  0.3850  0.3719  0.5753
  276MOL0     C37185   2.059   7.894   2.611 -0.4072 -1.0890 -1.0758
  276MOL0     C37186   1.915   7.870   2.587  0.2289  0.3766 -0.1245
  276MOL0     C37187   1.861   7.969   2.476  0.0629 -0.3642 -0.7438
  276MOL0     C37188   1.711   7.980   2.479 -0.1618  0.4232 -0.2051
  276MOL0     C37189   1.595   8.005   2.475  1.1262  0.1665  0.3241
  276MOL0     C37190   2.206   7.913   3.005  0.1584  0.3722 -0.0421
  276MOL0     C37191   2.262   7.951   3.129  0.3616 -0.3877 -0.5256
  276MOL0     C37192   2.197   7.913   3.257 -0.3510  0.1344  0.5002
  276MOL0     H37193   2.676   8.394   3.240 -0.7325 -1.0321 -0.4435
  276MOL0     H37194   2.786   8.495   3.404 -0.8702 -0.6585 -2.8150
  276MOL0     H37195   2.941   8.528   3.535  2.3034 -1.8651 -1.1626
  276MOL0     H37196   2.999   8.505   3.705  1.5942  0.1718 -0.9304
  276MOL0     H37197   3.128   8.405   3.502  0.3045  0.4938  0.6041
  276MOL0     H37198   2.990   8.293   3.484  0.3413  1.0427  0.1753
  276MOL0     H37199   3.046   8.182   3.675 -0.1394  0.3138  1.6095
  276MOL0     H37200   3.139   8.303   3.755  0.7854 -4.6428  2.7689
  276MOL0     H37201   3.219   8.164   3.494  2.1177  3.7442 -2.3992
  276MOL0     H37202   3.317   8.286   3.575 -0.8782  0.2931 -2.1815
  276MOL0     H37203   3.363   8.150   3.760  2.2941 -0.7688 -0.9018
  276MOL0     H37204   3.236   8.038   3.737 -0.6774  1.3523  0.0912
  276MOL0     H37205   3.356   7.972   3.508 -0.1692  0.0207 -0.2036
  276MOL0     H37206   3.489   8.079   3.569  2.2613 -2.8194 -0.4449
  276MOL0     H37207   3.363   7.833   3.714  0.3753 -0.9776  0.0329
  276MOL0     H37208   3.501   7.928   3.773  1.1779  1.1159 -0.4623
  276MOL0     H37209   3.526   7.800   3.505  0.2290  1.3290 -0.4825
  276MOL0     H37210   3.649   7.865   3.616  0.1503 -0.7168  0.8991
  276MOL0     H37211   3.613   7.728   3.882  0.4434 -1.4008  2.0830
  276MOL0     H37212   3.664   7.492   4.007  1.0308 -3.1413  0.9804
  276MOL0     H37213   3.731   7.367   3.914 -1.0796 -0.7760 -0.6874
  276MOL0     H37214   3.857   7.644   3.943 -0.5781  0.3571  0.7806
  276MOL0     H37215   3.887   7.518   4.062 -1.0645  1.0820  0.9311
  276MOL0     H37216   4.064   7.549   3.880 -0.1530 -0.5759  2.6454
  276MOL0     H37217   3.946   7.470   3.773  1.8087  1.7988 -0.3325
  276MOL0     H37218   3.965   7.265   3.895 -0.4327  1.6289 -3.3173
  276MOL0     H37219   4.056   7.327   4.031 -1.6741  0.3113  0.3556
  276MOL0     H37220   4.338   7.214   4.060 -2.0895 -0.8332 -1.1198
  276MOL0     H37221   4.524   7.310   4.145  2.2815 -0.3874 -0.9263
  276MOL0     H37222   4.905   7.565   4.116 -2.0967  0.1175 -0.6243
  276MOL0     H37223   5.113   7.626   4.248 -0.0686  0.9054  0.3950
  276MOL0     H37224   5.273   7.610   4.457 -2.7992 -0.0780 -2.2809
  276MOL0     H37225   5.246   7.762   4.370  0.6601  0.1676  0.2155
  276MOL0     H37226   5.418   7.821   4.503 -2.5644  0.7958 -2.6760
  276MOL0     H37227   5.270   7.879   4.607 -3.5109 -0.6025 -1.4724
  276MOL0     H37228   5.410   7.800   4.762  3.1328 -2.1482  0.2129
  276MOL0     H37229   5.280   7.698   4.732 -1.9475  1.8416 -0.6733
  276MOL0     H37230   5.426   7.532   4.620  1.8530 -1.4773 -0.3499
  276MOL0     H37231   5.509   7.568   4.764  1.4334 -3.4871 -0.9803
  276MOL0     H37232   5.636   7.757   4.650 -0.6412  1.7910 -1.3609
  276MOL0     H37233   5.590   7.673   4.500  1.9581  1.4536  1.0698
  276MOL0     H37234   5.692   7.456   4.639 -1.3192  1.2517  5.1639
  276MOL0     H37235   5.779   7.568   4.532 -1.8970 -0.4588 -2.6853
  276MOL0     H37236   5.773   7.577   4.840  0.4494  1.9097  0.6942
  276MOL0     H37237   5.850   7.698   4.738 -0.5011 -0.3143 -2.4265
  276MOL0     H37238   5.981   7.489   4.851  2.5290  1.3840 -0.2575
  276MOL0     H37239   5.914   7.411   4.708  3.0334 -0.0728 -2.2932
  276MOL0     H37240   4.861   7.691   4.596  1.1503  1.4414 -0.5231
  276MOL0     H37241   4.661   7.618   4.446  0.5312 -1.2321 -0.3958
  276MOL0     H37242   4.465   7.653   3.876 -1.6321  2.2719  0.9711
  276MOL0     H37243   4.268   7.531   3.789 -1.1699  3.3594  2.7322
  276MOL0     H37244   2.713   8.182   3.676  0.1553  0.5531  1.1712
  276MOL0     H37245   2.603   8.058   3.491 -0.9959  0.2012  1.4723
  276MOL0     H37246   2.560   8.075   3.011 -0.2401 -0.5291  0.4668
  276MOL0     H37247   2.458   7.978   2.795  0.8955  0.5004 -0.7523
  276MOL0     H37248   2.057   7.854   2.828 -0.0534 -2.4821  1.5983
  276MOL0     H37249   2.098   7.713   2.716 -0.7444  0.3989  1.0699
  276MOL0     H37250   2.122   7.861   2.528  1.2511 -2.8035  0.7676
  276MOL0     H37251   2.069   8.003   2.616  0.7721 -1.2147 -0.1313
  276MOL0     H37252   1.855   7.880   2.678 -2.4802 -4.9590 -0.8880
  276MOL0     H37253   1.890   7.771   2.548 -3.3516  0.4897  1.4600
  276MOL0     H37254   1.897   8.069   2.498 -2.2852 -0.0321  2.1676
  276MOL0     H37255   1.880   7.937   2.373  0.8029  5.1301 -2.6108
  276MOL0     H37256   1.489   8.020   2.472  1.3207  1.6328 -0.6691
  276MOL0     H37257   2.111   7.862   3.021  0.5171 -0.2754  0.0481
  276MOL0     H37258   2.163   8.008   3.298  0.3131  0.3400  0.5853
  276MOL0     H37259   2.103   7.860   3.237 -0.1584  0.7588 -2.4662
  276MOL0     H37260   2.251   7.857   3.334 -0.5992  0.3102  0.8030
  277MOL0     O37261   0.550   3.780   6.204 -0.1611 -0.3035 -0.1011
  277MOL0     C37262   0.457   3.851   6.172 -0.4064 -0.0158 -0.8861
  277MOL0     O37263   0.462   3.950   6.082 -0.2153  0.5096  0.1836
  277MOL0     C37264   0.594   3.985   6.055 -0.6341 -0.0444 -1.2565
  277MOL0     C37265   0.634   3.994   5.920 -0.0796 -0.1718  0.0661
  277MOL0     C37266   0.767   4.028   5.884 -0.1762  0.9899 -0.4892
  277MOL0     C37267   0.868   4.057   5.979 -0.5892 -0.1516 -0.6004
  277MOL0     O37268   0.994   4.099   5.931 -1.1056  0.2421  0.5640
  277MOL0     C37269   1.089   4.145   6.028 -0.5999 -0.0526  0.3632
  277MOL0     C37270   1.222   4.183   5.964 -0.1004 -0.4060 -0.0596
  277MOL0     C37271   1.320   4.240   6.072 -0.6262  0.0898 -0.3133
  277MOL0     C37272   1.463   4.215   6.022  0.1667  0.8372  0.2398
  277MOL0     C37273   1.571   4.280   6.118 -0.4288  0.0465  0.0500
  277MOL0     C37274   1.720   4.255   6.068  0.3094 -0.3839 -0.7490
  277MOL0     C37275   1.821   4.313   6.163  0.2429  0.6088  0.3917
  277MOL0     C37276   1.833   4.225   6.279 -0.5008 -0.7886 -0.3373
  277MOL0     N37277   1.926   4.290   6.379  0.4876  0.6783 -0.2016
  277MOL0     C37278   2.062   4.287   6.366 -0.1277 -0.5711  0.2689
  277MOL0     C37279   2.101   4.370   6.463 -0.2076  0.1154  0.5145
  277MOL0     C37280   2.247   4.392   6.487  0.2229  0.0292  0.6007
  277MOL0     C37281   2.279   4.329   6.622 -0.9547 -0.3329  0.9178
  277MOL0     C37282   2.278   4.174   6.637  0.1571 -0.3117  0.5164
  277MOL0     C37283   2.384   4.090   6.565  0.1352  0.2391 -0.2833
  277MOL0     O37284   2.382   4.124   6.427 -0.3567  0.9175 -0.0127
  277MOL0     C37285   2.478   4.078   6.333  0.7369 -0.1672  0.1456
  277MOL0     C37286   2.586   3.995   6.355  0.1661  0.6028  0.0865
  277MOL0     C37287   2.670   3.964   6.248 -0.1668 -0.2456 -0.0475
  277MOL0     C37288   2.649   4.001   6.111 -0.0883 -0.5243  0.0910
  277MOL0     C37289   2.746   3.975   6.002  0.4297 -0.0465 -0.5051
  277MOL0     O37290   2.729   4.039   5.874 -0.2482 -0.1592  0.1878
  277MOL0     C37291   2.829   4.030   5.777  0.5062  0.4355 -0.4554
  277MOL0     C37292   2.911   4.143   5.761 -0.0623 -0.8093  0.1017
  277MOL0     C37293   3.035   4.134   5.704  0.5145 -0.0003  0.4503
  277MOL0     C37294   3.070   4.013   5.637  1.0301 -0.4924 -0.2031
  277MOL0     O37295   3.188   3.998   5.573 -0.5210 -0.7571 -0.8937
  277MOL0     C37296   3.259   4.108   5.509 -0.7047  0.1119  0.1052
  277MOL0     C37297   3.362   4.056   5.414 -0.5512 -0.0467  0.1370
  277MOL0     C37298   3.471   3.970   5.493 -0.1232  0.2117 -0.9061
  277MOL0     C37299   3.578   3.895   5.422 -0.2889 -0.0380  0.3505
  277MOL0     C37300   3.538   3.795   5.314 -0.0085  0.5460  0.0153
  277MOL0     C37301   3.657   3.772   5.214  0.1158  0.2197 -0.7647
  277MOL0     C37302   3.634   3.649   5.119 -0.6030  0.0799  0.0780
  277MOL0     C37303   3.533   3.683   5.005 -0.1699 -0.7042 -0.5591
  277MOL0    Cl37304   3.558   3.558   4.879  0.1500 -0.2178  0.3400
  277MOL0     C37305   2.989   3.901   5.653 -0.1308 -0.6227  0.6207
  277MOL0     C37306   2.870   3.907   5.720  0.7224  0.5024  0.3826
  277MOL0     O37307   2.838   3.899   6.038  0.2627 -0.4087 -0.3499
  277MOL0     C37308   2.529   4.073   6.091 -0.0625  0.2753 -0.5268
  277MOL0     C37309   2.445   4.123   6.197 -0.9729 -0.3753  0.1475
  277MOL0     N37310   2.000   4.414   6.536  0.6381 -0.7759  0.0999
  277MOL0     N37311   1.892   4.367   6.488  0.1674 -0.2551 -0.2099
  277MOL0     C37312   0.826   4.060   6.121 -0.1074  0.2371  0.1256
  277MOL0     C37313   0.687   4.021   6.150  1.1118  0.1786  0.2045
  277MOL0     C37314   0.333   3.826   6.236  0.3036 -0.1680 -0.1673
  277MOL0     C37315   0.223   3.828   6.149  0.9017  1.2452 -0.0628
  277MOL0     C37316   0.091   3.777   6.192 -0.3227 -1.0734 -0.4853
  277MOL0     C37317   0.071   3.752   6.325 -0.5135 -0.7159 -0.1451
  277MOL0     O37318  -0.042   3.714   6.382  0.1963  0.8782  0.2714
  277MOL0     C37319  -0.162   3.777   6.338  0.3356  0.7572  0.0429
  277MOL0     C37320  -0.277   3.755   6.432 -0.2700  0.8414 -0.8000
  277MOL0     C37321  -0.413   3.826   6.393 -0.3402 -0.5573  0.1942
  277MOL0     C37322  -0.529   3.841   6.497  0.0031  0.5216 -0.8690
  277MOL0     C37323  -0.640   3.928   6.459 -0.0985  0.3457 -0.2693
  277MOL0     C37324  -0.739   3.995   6.435  0.4521  0.3380  0.3095
  277MOL0     C37325   0.181   3.759   6.411  0.2660 -0.7016 -0.0999
  277MOL0     C37326   0.312   3.785   6.370 -0.4952 -0.8167  0.2463
  277MOL0     C37327   0.422   3.776   6.471  0.3109 -0.1287 -0.8565
  277MOL0     H37328   0.566   3.972   5.839  1.8297 -1.0399 -1.3929
  277MOL0     H37329   0.796   4.035   5.779  2.6510 -1.5803 -0.0006
  277MOL0     H37330   1.051   4.244   6.057  1.9115  0.4451  2.2544
  277MOL0     H37331   1.101   4.066   6.102  1.3553  0.3610  0.5407
  277MOL0     H37332   1.207   4.266   5.895  0.5946 -1.0610 -1.0234
  277MOL0     H37333   1.272   4.099   5.914  0.4999 -0.5629  0.7894
  277MOL0     H37334   1.303   4.200   6.172  0.5454 -4.4541 -1.7160
  277MOL0     H37335   1.314   4.350   6.071  2.9288  0.4323  1.7378
  277MOL0     H37336   1.478   4.108   6.007 -4.3644  0.4043 -3.2638
  277MOL0     H37337   1.456   4.257   5.921 -1.5593 -0.6583 -0.3173
  277MOL0     H37338   1.564   4.389   6.110  1.0531  0.0821 -5.7121
  277MOL0     H37339   1.562   4.255   6.224  0.8693  2.9116  0.9353
  277MOL0     H37340   1.725   4.146   6.062  1.2269 -0.4653  0.7611
  277MOL0     H37341   1.731   4.305   5.972 -0.3506  0.0423 -0.6066
  277MOL0     H37342   1.781   4.412   6.183 -0.3305  0.2375  1.0972
  277MOL0     H37343   1.920   4.337   6.122 -0.0570  0.7467 -0.2743
  277MOL0     H37344   1.737   4.215   6.330  2.1253  0.3054  5.8133
  277MOL0     H37345   1.875   4.127   6.256  1.9677  0.0070  0.4115
  277MOL0     H37346   2.121   4.237   6.289  1.8564 -0.1738  1.4732
  277MOL0     H37347   2.311   4.353   6.408  2.1159  1.6431  1.2512
  277MOL0     H37348   2.265   4.499   6.497 -2.8702  0.8062 -0.9340
  277MOL0     H37349   2.382   4.357   6.647 -0.3466 -1.2375 -0.4393
  277MOL0     H37350   2.212   4.357   6.704  0.0230  1.6622  1.1153
  277MOL0     H37351   2.178   4.145   6.603  0.0055  0.6658  0.0989
  277MOL0     H37352   2.282   4.153   6.744 -1.6483 -2.3641  0.2548
  277MOL0     H37353   2.361   3.983   6.570 -3.8832  0.9763 -0.1543
  277MOL0     H37354   2.487   4.115   6.592  0.7369  1.2030 -3.1565
  277MOL0     H37355   2.605   3.947   6.451 -0.6312  0.0089 -0.0490
  277MOL0     H37356   2.752   3.901   6.283 -0.1324  0.8042  1.8344
  277MOL0     H37357   2.874   4.232   5.811 -1.9730 -0.7158 -1.3644
  277MOL0     H37358   3.100   4.221   5.710 -1.8706  2.2745 -3.1053
  277MOL0     H37359   3.191   4.176   5.457 -0.0120  1.3788  0.8197
  277MOL0     H37360   3.309   4.168   5.585  2.6201 -0.5546 -1.3741
  277MOL0     H37361   3.317   3.994   5.336 -1.0559  1.7328 -1.0375
  277MOL0     H37362   3.397   4.149   5.369 -1.7987  0.7857  0.8363
  277MOL0     H37363   3.516   4.031   5.571 -1.0554  0.9320 -0.9134
  277MOL0     H37364   3.410   3.892   5.542  0.3222  0.1657 -0.4226
  277MOL0     H37365   3.636   3.836   5.493  2.7294 -1.1533 -2.7817
  277MOL0     H37366   3.644   3.970   5.378 -2.1059  1.9196  0.7336
  277MOL0     H37367   3.446   3.825   5.263 -0.2087  0.7632  0.4996
  277MOL0     H37368   3.520   3.701   5.366  4.3261 -1.2238 -1.1791
  277MOL0     H37369   3.681   3.859   5.152  0.1888  0.7175 -0.0543
  277MOL0     H37370   3.750   3.760   5.270 -0.4173  1.1625  0.3653
  277MOL0     H37371   3.621   3.555   5.172  1.6486  0.0898  0.7427
  277MOL0     H37372   3.726   3.641   5.061 -0.6646 -0.4293  0.0467
  277MOL0     H37373   3.428   3.678   5.037  0.5910 -3.4554  2.0149
  277MOL0     H37374   3.555   3.784   4.969 -2.8431  0.2170  0.1162
  277MOL0     H37375   3.023   3.804   5.620  1.3591 -0.9181  2.7875
  277MOL0     H37376   2.823   3.810   5.734  0.9673 -0.0310 -1.9959
  277MOL0     H37377   2.515   4.104   5.988  0.4907  0.4034 -0.5705
  277MOL0     H37378   2.368   4.194   6.173  1.1808  1.7399 -0.9489
  277MOL0     H37379   0.893   4.093   6.199  3.1299 -1.1591 -1.8496
  277MOL0     H37380   0.658   4.024   6.254  2.2653 -1.2379  0.6077
  277MOL0     H37381   0.240   3.858   6.046 -1.1116  2.9823  0.0565
  277MOL0     H37382   0.014   3.779   6.116 -1.4998  1.6845  0.6417
  277MOL0     H37383  -0.185   3.734   6.241 -1.8948  0.2155  0.7476
  277MOL0     H37384  -0.152   3.881   6.306  1.6440 -0.0522 -2.4306
  277MOL0     H37385  -0.239   3.787   6.530 -3.0125 -2.2871  1.5396
  277MOL0     H37386  -0.305   3.650   6.446 -0.8841  1.2839  1.8650
  277MOL0     H37387  -0.454   3.786   6.299  0.6962  2.4347 -1.6851
  277MOL0     H37388  -0.371   3.924   6.366  1.3025 -1.0474  0.8925
  277MOL0     H37389  -0.573   3.747   6.528 -4.0686  3.0158  1.8100
  277MOL0     H37390  -0.485   3.869   6.593  1.1410 -1.2486 -0.8408
  277MOL0     H37391  -0.828   4.047   6.403 -0.1452  0.1743  1.6037
  277MOL0     H37392   0.159   3.715   6.508  0.8733  2.3052  1.5216
  277MOL0     H37393   0.375   3.781   6.570  1.8735  1.6238 -0.1298
  277MOL0     H37394   0.481   3.685   6.462  1.1599 -0.1806  3.0996
  277MOL0     H37395   0.496   3.856   6.464  2.5031 -1.7867  1.6092
  278MOL0     O37396   6.076   0.885   0.044 -0.0095  0.2209 -0.4273
  278MOL0     C37397   6.137   0.800   0.112 -0.2863  0.4748 -0.3791
  278MOL0     O37398   6.278   0.772   0.117  0.3400  0.0252  0.4716
  278MOL0     C37399   6.375   0.842   0.052  0.2655  0.3185  0.0201
  278MOL0     C37400   6.365   0.959  -0.018 -0.0936 -0.1007 -0.4981
  278MOL0     C37401   6.474   1.005  -0.086 -0.8522  0.6133  0.4293
  278MOL0     C37402   6.581   0.928  -0.121 -0.3934  0.9534  0.5362
  278MOL0     O37403   6.680   0.947  -0.215 -0.0913 -0.0594  0.6986
  278MOL0     C37404   6.645   1.042  -0.323 -0.2382 -0.1211  0.4344
  278MOL0     C37405   6.751   1.052  -0.439 -0.0973 -1.2785 -0.4503
  278MOL0     C37406   6.831   1.184  -0.415 -0.2632 -0.1030  0.6959
  278MOL0     C37407   6.925   1.161  -0.298  0.6087 -0.2302 -0.6672
  278MOL0     C37408   7.037   1.277  -0.276  0.5725 -0.6577 -0.4879
  278MOL0     C37409   7.117   1.268  -0.408  0.5504  0.2902 -0.1558
  278MOL0     C37410   7.244   1.344  -0.391  0.3105 -0.1065 -0.3069
  278MOL0     C37411   7.338   1.331  -0.522 -0.8911  0.0966  0.1227
  278MOL0     N37412   7.437   1.443  -0.538  1.1400 -0.5938  0.1993
  278MOL0     C37413   7.513   1.496  -0.434 -0.3058 -0.1539  0.1215
  278MOL0     C37414   7.557   1.616  -0.484 -0.3769 -0.6495  0.7282
  278MOL0     C37415   7.622   1.729  -0.416 -0.0652  0.0476 -0.9073
  278MOL0     C37416   7.680   1.681  -0.280  0.0620 -0.5301  0.4570
  278MOL0     C37417   7.825   1.629  -0.293 -0.0705 -0.4614 -0.5264
  278MOL0     C37418   7.912   1.622  -0.160  0.5263  0.3807  0.2360
  278MOL0     O37419   7.875   1.528  -0.060  0.1494  0.4780 -0.2063
  278MOL0     C37420   7.950   1.535   0.050  0.2568  0.6107 -0.6146
  278MOL0     C37421   8.089   1.510   0.059 -0.3817  0.6756  0.2434
  278MOL0     C37422   8.161   1.530   0.174 -0.7102  0.4446 -0.3931
  278MOL0     C37423   8.092   1.561   0.292 -0.8335 -0.9100 -1.9391
  278MOL0     C37424   8.161   1.578   0.428  0.2059  0.8803  0.2765
  278MOL0     O37425   8.101   1.641   0.533 -0.2866  0.7009 -0.0782
  278MOL0     C37426   8.160   1.622   0.648  0.5285  0.2064 -0.7159
  278MOL0     C37427   8.132   1.504   0.719  0.5108 -0.8828 -0.1939
  278MOL0     C37428   8.182   1.492   0.845  0.4165 -0.7846  0.2872
  278MOL0     C37429   8.285   1.577   0.888 -0.3756 -0.3144  0.6457
  278MOL0     O37430   8.355   1.564   1.006 -1.2275 -0.8890  0.0990
  278MOL0     C37431   8.331   1.454   1.088 -0.3221  0.4313 -0.2310
  278MOL0     C37432   8.436   1.443   1.199  0.3002 -0.4104  0.3524
  278MOL0     C37433   8.411   1.544   1.317  0.7436 -0.3169  0.5396
  278MOL0     C37434   8.529   1.603   1.390 -0.2945 -0.7147 -0.7034
  278MOL0     C37435   8.484   1.699   1.509  0.1447  0.1253  0.8916
  278MOL0     C37436   8.362   1.646   1.597 -1.0271  0.6174 -0.5072
  278MOL0     C37437   8.325   1.752   1.690 -0.6793 -0.5191  0.2635
  278MOL0     C37438   8.231   1.700   1.796 -0.1442 -0.4407 -0.1700
  278MOL0    Cl37439   8.127   1.834   1.853 -0.3334  0.0194 -0.1967
  278MOL0     C37440   8.322   1.689   0.815  0.3988  0.1732  0.9224
  278MOL0     C37441   8.265   1.705   0.690  0.9795  0.7421  1.0126
  278MOL0     O37442   8.277   1.532   0.436  0.1519  0.2845  0.3338
  278MOL0     C37443   7.955   1.586   0.283  0.2389  0.2337  0.1369
  278MOL0     C37444   7.885   1.572   0.168  0.6974  0.2514  1.4747
  278MOL0     N37445   7.506   1.626  -0.618  0.0191  0.2176  0.5662
  278MOL0     N37446   7.430   1.528  -0.645 -0.1597 -0.2659 -0.8885
  278MOL0     C37447   6.594   0.801  -0.059 -0.1033 -0.5298  0.2853
  278MOL0     C37448   6.485   0.764   0.038 -0.0875 -0.1351 -0.3417
  278MOL0     C37449   6.051   0.706   0.189  0.9557  0.3762  0.2617
  278MOL0     C37450   6.103   0.577   0.229  0.5836  0.0416 -0.0640
  278MOL0     C37451   6.038   0.487   0.317  0.6314 -0.4959  0.8155
  278MOL0     C37452   5.924   0.531   0.385 -0.6065 -0.3972  0.0787
  278MOL0     O37453   5.861   0.452   0.476 -0.4015  0.0104 -0.4447
  278MOL0     C37454   5.890   0.311   0.473  0.3664 -0.3968 -0.5753
  278MOL0     C37455   5.783   0.267   0.568  1.3089 -0.1932 -1.0928
  278MOL0     C37456   5.788   0.117   0.606  0.2103 -0.4193 -0.1586
  278MOL0     C37457   5.669   0.058   0.687 -0.8125 -0.8249 -0.0076
  278MOL0     C37458   5.536   0.085   0.620  0.0950 -0.3455 -0.7196
  278MOL0     C37459   5.444   0.085   0.542  0.8287 -0.4571  0.1818
  278MOL0     C37460   5.869   0.653   0.344 -0.3653 -0.4124  0.3062
  278MOL0     C37461   5.924   0.735   0.245 -1.0682 -0.0975 -0.4916
  278MOL0     C37462   5.844   0.862   0.203 -0.0283 -0.0805 -0.0924
  278MOL0     H37463   6.282   1.028  -0.016  2.8357  3.7955 -1.3353
  278MOL0     H37464   6.461   1.102  -0.134 -1.2206 -0.2586 -1.3063
  278MOL0     H37465   6.557   1.005  -0.376  0.0848 -0.2951  0.0177
  278MOL0     H37466   6.634   1.142  -0.282  1.9937  0.6757 -0.7730
  278MOL0     H37467   6.704   1.074  -0.535  1.6083  3.1738 -0.4630
  278MOL0     H37468   6.815   0.964  -0.448  1.1180 -0.3823 -0.7626
  278MOL0     H37469   6.767   1.267  -0.385 -0.4759 -0.8390  2.3476
  278MOL0     H37470   6.882   1.199  -0.511  2.7313 -3.6461  1.5164
  278MOL0     H37471   6.868   1.169  -0.204 -0.5333  0.8875 -1.4288
  278MOL0     H37472   6.973   1.063  -0.309  3.3461  1.0808 -1.1856
  278MOL0     H37473   7.007   1.382  -0.270  0.1111 -0.7988 -0.2384
  278MOL0     H37474   7.096   1.257  -0.186  0.2267 -1.9038 -0.5174
  278MOL0     H37475   7.142   1.162  -0.421 -0.1657  0.3129 -2.0214
  278MOL0     H37476   7.056   1.303  -0.492  1.2601 -1.8270 -1.6497
  278MOL0     H37477   7.293   1.319  -0.296  2.9431  1.0768 -1.2405
  278MOL0     H37478   7.218   1.449  -0.376 -0.9172 -0.7733  3.0884
  278MOL0     H37479   7.387   1.233  -0.511 -2.0343 -0.3149  1.9898
  278MOL0     H37480   7.282   1.315  -0.615 -2.0827  0.1023  0.8208
  278MOL0     H37481   7.534   1.447  -0.340  1.2510 -4.3208 -2.1170
  278MOL0     H37482   7.699   1.771  -0.482 -0.5134  1.6186 -0.4725
  278MOL0     H37483   7.551   1.809  -0.396  0.2181  0.2022 -0.4978
  278MOL0     H37484   7.671   1.763  -0.207 -0.4571 -0.0953 -0.0917
  278MOL0     H37485   7.614   1.607  -0.235 -0.6263 -1.7948 -2.4627
  278MOL0     H37486   7.883   1.701  -0.351  0.4687  0.0420  0.5973
  278MOL0     H37487   7.832   1.540  -0.356  1.1712 -0.1959 -0.7882
  278MOL0     H37488   7.914   1.722  -0.116 -0.9017 -0.0073  1.2541
  278MOL0     H37489   8.011   1.586  -0.192  0.0465 -0.2706 -0.5756
  278MOL0     H37490   8.150   1.470  -0.021  2.5862  0.3015  2.5264
  278MOL0     H37491   8.269   1.541   0.174 -0.7217  0.5546 -0.5307
  278MOL0     H37492   8.060   1.431   0.684  2.1092 -1.6342 -2.0650
  278MOL0     H37493   8.145   1.413   0.910 -3.3192  0.4686 -0.0442
  278MOL0     H37494   8.229   1.447   1.126 -0.4720 -3.1077 -0.9214
  278MOL0     H37495   8.336   1.369   1.019 -0.5760 -1.3311  1.8215
  278MOL0     H37496   8.419   1.339   1.230 -0.1834 -0.8374 -1.2257
  278MOL0     H37497   8.534   1.453   1.150  0.4740 -1.1515  0.5347
  278MOL0     H37498   8.347   1.622   1.275 -0.3596 -0.6926  1.4688
  278MOL0     H37499   8.339   1.495   1.383 -0.8328  2.8683  1.3927
  278MOL0     H37500   8.599   1.657   1.326 -2.5001  2.1765 -0.9101
  278MOL0     H37501   8.589   1.520   1.429 -3.1303 -1.7020  1.9916
  278MOL0     H37502   8.453   1.792   1.461 -2.7012 -1.0414  0.2480
  278MOL0     H37503   8.567   1.712   1.578  0.5610  2.8243 -0.0293
  278MOL0     H37504   8.277   1.629   1.530  2.4295 -1.2453 -4.9307
  278MOL0     H37505   8.396   1.553   1.643  0.1560 -0.1149 -2.7141
  278MOL0     H37506   8.280   1.841   1.646  0.8649  0.4928  0.6278
  278MOL0     H37507   8.412   1.781   1.750 -2.7369  2.5887  2.0281
  278MOL0     H37508   8.163   1.627   1.750 -0.8011 -0.2843  0.5240
  278MOL0     H37509   8.284   1.654   1.879  0.8860  1.8599  0.5174
  278MOL0     H37510   8.409   1.746   0.847  1.0818 -1.0844  1.3793
  278MOL0     H37511   8.304   1.784   0.627  1.6149 -0.0114  0.4479
  278MOL0     H37512   7.908   1.635   0.368 -1.9056 -2.2508  0.5323
  278MOL0     H37513   7.778   1.585   0.161  0.8541  0.6453 -1.2550
  278MOL0     H37514   6.676   0.731  -0.070  1.0001  0.7040  0.4102
  278MOL0     H37515   6.483   0.666   0.085 -0.4022 -0.1803 -0.4470
  278MOL0     H37516   6.192   0.545   0.177 -0.6786 -3.6154 -0.2364
  278MOL0     H37517   6.084   0.395   0.352  2.2826 -0.4176 -0.9943
  278MOL0     H37518   5.991   0.292   0.510  1.0697  2.9211 -0.4169
  278MOL0     H37519   5.882   0.277   0.370 -2.1226 -2.4758  0.1915
  278MOL0     H37520   5.691   0.281   0.511  1.7939 -0.9069 -2.0772
  278MOL0     H37521   5.790   0.314   0.666 -0.3161  1.5679 -1.7636
  278MOL0     H37522   5.878   0.113   0.668  0.2839 -2.7553 -0.3404
  278MOL0     H37523   5.819   0.056   0.521 -1.4823  0.3718 -1.4098
  278MOL0     H37524   5.687  -0.050   0.689 -0.8272 -0.8685 -1.2710
  278MOL0     H37525   5.657   0.101   0.787 -1.4629 -1.8281  0.3643
  278MOL0     H37526   5.372   0.083   0.463 -0.4716  1.3863  1.2205
  278MOL0     H37527   5.782   0.697   0.393 -0.9899  1.4588 -2.2923
  278MOL0     H37528   5.844   0.868   0.093  3.6125 -0.0252 -0.2044
  278MOL0     H37529   5.745   0.858   0.249 -0.3310 -2.0074 -0.8213
  278MOL0     H37530   5.904   0.948   0.234  0.4093 -0.2956 -0.3407
  279MOL0     O37531   1.300   9.364   3.162  0.4659  0.0126 -0.2137
  279MOL0     C37532   1.181   9.374   3.196  0.1063 -0.4145  0.1423
  279MOL0     O37533   1.081   9.312   3.132 -0.7694  0.1706  0.3424
  279MOL0     C37534   1.106   9.205   3.053 -0.1504 -0.1739 -0.2388
  279MOL0     C37535   1.057   9.202   2.922  0.5596 -0.8448  0.6491
  279MOL0     C37536   1.066   9.091   2.837  0.0124  0.6142 -0.4490
  279MOL0     C37537   1.106   8.969   2.897 -1.2510  0.3511 -0.4124
  279MOL0     O37538   1.102   8.850   2.833  0.1687 -0.0142  0.1540
  279MOL0     C37539   1.018   8.830   2.716  0.1127  0.0596 -0.4114
  279MOL0     C37540   1.099   8.829   2.589 -0.4460  0.5618  0.2134
  279MOL0     C37541   1.007   8.838   2.464 -1.2799 -0.3317 -0.0935
  279MOL0     C37542   1.101   8.837   2.341  0.4228  0.3185 -0.7079
  279MOL0     C37543   1.014   8.808   2.223 -0.3792  0.3751 -0.3805
  279MOL0     C37544   0.907   8.920   2.202  0.2317  1.0158 -0.3535
  279MOL0     C37545   0.954   9.062   2.169 -0.3053 -0.1111  0.1491
  279MOL0     C37546   1.021   9.074   2.033  0.1593 -0.2687  0.9889
  279MOL0     N37547   0.950   9.000   1.927  0.2294 -0.8418 -0.0990
  279MOL0     C37548   0.854   9.051   1.857  0.3231  0.2487  0.3630
  279MOL0     C37549   0.817   8.957   1.765  0.3687  0.1751  0.2029
  279MOL0     C37550   0.702   8.968   1.661 -0.7854  0.5805 -0.1799
  279MOL0     C37551   0.574   8.964   1.736 -0.2963  0.6287 -0.1947
  279MOL0     C37552   0.465   9.035   1.659  0.5919  0.1411  0.7010
  279MOL0     C37553   0.316   9.029   1.704  0.2184  1.1056 -0.5622
  279MOL0     O37554   0.292   9.121   1.816 -1.0551  0.3630 -0.3286
  279MOL0     C37555   0.250   9.076   1.936  0.8979 -0.1778 -0.4593
  279MOL0     C37556   0.120   9.048   1.943  1.0155  0.6018  0.0369
  279MOL0     C37557   0.061   8.998   2.060  0.3575 -0.3542  0.8610
  279MOL0     C37558   0.139   8.990   2.177  0.7239  0.7225 -0.3285
  279MOL0     C37559   0.075   8.963   2.309  0.1050 -0.4189  0.1440
  279MOL0     O37560  -0.063   8.951   2.303  0.2662 -0.6344  0.1877
  279MOL0     C37561  -0.148   8.942   2.417  0.0592 -0.4129  0.4017
  279MOL0     C37562  -0.105   8.939   2.553 -0.2282  0.0503 -0.0431
  279MOL0     C37563  -0.204   8.945   2.655  0.3500 -0.7788 -0.8646
  279MOL0     C37564  -0.345   8.945   2.621  0.4106  0.2463 -0.0550
  279MOL0     O37565  -0.441   8.936   2.721  0.2384  0.3816 -0.0743
  279MOL0     C37566  -0.412   8.965   2.860  0.3811 -0.7053  1.2798
  279MOL0     C37567  -0.532   9.024   2.926 -0.3119  0.4977 -0.3756
  279MOL0     C37568  -0.653   8.944   2.913 -0.0097  0.5451 -0.0864
  279MOL0     C37569  -0.763   9.001   3.008  0.1721 -0.3153  0.1675
  279MOL0     C37570  -0.901   8.937   2.994  0.7551 -0.6471  0.7684
  279MOL0     C37571  -1.004   8.991   3.099  0.0009  0.1720 -0.3398
  279MOL0     C37572  -1.143   8.951   3.062 -0.1270 -0.6241 -0.4004
  279MOL0     C37573  -1.234   9.071   3.044  0.1427  0.0019 -0.3956
  279MOL0    Cl37574  -1.259   9.187   3.184  0.0075  0.6249 -0.0522
  279MOL0     C37575  -0.382   8.946   2.489  0.9324 -0.7183 -1.1499
  279MOL0     C37576  -0.283   8.953   2.389  1.1022 -0.7105  0.8036
  279MOL0     O37577   0.148   8.969   2.407 -1.1085 -0.0336  0.2587
  279MOL0     C37578   0.276   9.018   2.165  0.1574  0.3494 -0.1647
  279MOL0     C37579   0.336   9.063   2.049 -0.7278 -0.0982  0.6601
  279MOL0     N37580   0.896   8.848   1.780  0.2401  0.0745  0.0388
  279MOL0     N37581   0.981   8.882   1.869 -0.3644 -0.2575  0.1577
  279MOL0     C37582   1.155   8.968   3.031  0.1526  0.0449 -0.5863
  279MOL0     C37583   1.151   9.082   3.109  0.5308 -1.0795  0.2685
  279MOL0     C37584   1.142   9.470   3.309 -0.4658 -0.3782  0.0135
  279MOL0     C37585   1.020   9.515   3.313  0.9661  0.0198  0.1486
  279MOL0     C37586   0.980   9.631   3.379  0.4793  0.6626  0.1271
  279MOL0     C37587   1.067   9.684   3.482 -0.3219  0.6382 -0.4710
  279MOL0     O37588   1.048   9.798   3.558  0.5389  0.6701  0.1157
  279MOL0     C37589   0.930   9.873   3.539  0.7673  0.0045  0.1962
  279MOL0     C37590   0.959  10.004   3.612 -0.6734  1.0086 -0.1027
  279MOL0     C37591   0.836  10.092   3.582 -0.0792  0.2893 -0.1777
  279MOL0     C37592   0.846  10.222   3.654  0.0463 -0.3902  0.6321
  279MOL0     C37593   0.945  10.312   3.586 -0.9129  0.7304 -0.7095
  279MOL0     C37594   1.033  10.384   3.544 -0.4296 -0.1369 -0.3953
  279MOL0     C37595   1.194   9.627   3.487 -0.7158 -0.8258  0.1520
  279MOL0     C37596   1.237   9.530   3.411  0.1870 -0.7546  0.9476
  279MOL0     C37597   1.380   9.475   3.428 -0.1545 -0.8904  0.3822
  279MOL0     H37598   1.010   9.288   2.875  1.8553  0.1658  1.1461
  279MOL0     H37599   1.032   9.094   2.733 -1.3887 -0.1451 -0.0381
  279MOL0     H37600   0.964   8.736   2.726  0.5699 -0.1060  0.7160
  279MOL0     H37601   0.945   8.910   2.724  0.4165  0.3119 -0.0837
  279MOL0     H37602   1.160   8.739   2.577 -0.2786  0.4489  1.6779
  279MOL0     H37603   1.158   8.921   2.581  0.5492  0.0827  1.6007
  279MOL0     H37604   0.955   8.935   2.465 -0.5303  0.0785 -0.6145
  279MOL0     H37605   0.941   8.751   2.454  0.0975 -1.4114  0.0060
  279MOL0     H37606   1.143   8.937   2.330 -0.1035  0.9261  2.0057
  279MOL0     H37607   1.177   8.766   2.376 -2.2103 -2.2372  0.3129
  279MOL0     H37608   1.075   8.800   2.132 -0.0817 -2.0590 -0.0505
  279MOL0     H37609   0.966   8.710   2.238  1.9461 -0.5488  1.8315
  279MOL0     H37610   0.841   8.873   2.128 -0.9940 -0.7649  1.7493
  279MOL0     H37611   0.833   8.935   2.282 -1.7188  0.0244 -1.8666
  279MOL0     H37612   1.017   9.099   2.250  2.9529 -1.5752 -1.5084
  279MOL0     H37613   0.857   9.110   2.157 -0.9361 -1.4625 -0.3536
  279MOL0     H37614   1.024   9.180   2.006  1.4106 -0.8655 -1.5916
  279MOL0     H37615   1.126   9.043   2.035  0.5002  0.5904 -0.8295
  279MOL0     H37616   0.806   9.145   1.882 -1.7066 -1.4376  3.4632
  279MOL0     H37617   0.716   9.066   1.612  1.7287 -0.6595 -2.2286
  279MOL0     H37618   0.705   8.901   1.574 -1.7399 -0.0748  0.2913
  279MOL0     H37619   0.554   8.857   1.745  1.2196  0.4484  1.4400
  279MOL0     H37620   0.567   9.004   1.837 -2.6394 -3.9846  1.7921
  279MOL0     H37621   0.469   8.990   1.559  1.7341  3.5339 -0.9243
  279MOL0     H37622   0.483   9.141   1.640 -2.0569  0.5247 -0.1659
  279MOL0     H37623   0.279   8.927   1.717  0.0023  1.2454 -0.0530
  279MOL0     H37624   0.261   9.064   1.616  0.9303  0.2253 -1.3882
  279MOL0     H37625   0.062   9.044   1.851  1.3883  1.2406 -0.2280
  279MOL0     H37626  -0.041   8.964   2.070 -0.5076  2.3987  2.4670
  279MOL0     H37627  -0.001   8.935   2.587  0.5203 -0.4788 -2.2499
  279MOL0     H37628  -0.170   8.935   2.758 -0.4913 -2.2313 -0.7033
  279MOL0     H37629  -0.372   8.876   2.910  1.2319  0.0133  1.9234
  279MOL0     H37630  -0.336   9.043   2.869  0.3698 -0.2620 -1.5660
  279MOL0     H37631  -0.502   9.029   3.031 -1.1283 -0.2734 -0.0957
  279MOL0     H37632  -0.555   9.126   2.894 -0.3896  0.8733  0.8358
  279MOL0     H37633  -0.688   8.944   2.810 -1.2812 -0.4728  0.3095
  279MOL0     H37634  -0.633   8.839   2.938 -0.0281  0.4325 -0.5343
  279MOL0     H37635  -0.776   9.105   2.977 -1.7273 -0.4359  0.4037
  279MOL0     H37636  -0.739   8.988   3.114 -1.8996  1.5433  0.9397
  279MOL0     H37637  -0.895   8.829   3.002 -0.9362 -0.8253  0.0387
  279MOL0     H37638  -0.945   8.964   2.897 -2.5973  2.7260  2.9393
  279MOL0     H37639  -0.956   8.967   3.195  2.7121 -0.6037 -1.7823
  279MOL0     H37640  -1.008   9.099   3.110 -3.6212 -0.1019  3.6217
  279MOL0     H37641  -1.190   8.883   3.134 -2.0748  0.6221 -0.4288
  279MOL0     H37642  -1.144   8.886   2.973  1.3975 -1.2144 -0.0269
  279MOL0     H37643  -1.207   9.130   2.956  1.2055 -0.3241 -0.3036
  279MOL0     H37644  -1.335   9.044   3.013  0.3444 -2.3085  0.7518
  279MOL0     H37645  -0.480   8.955   2.443  1.6428  1.4932 -2.3367
  279MOL0     H37646  -0.321   8.978   2.290 -2.1239 -1.2952  1.8148
  279MOL0     H37647   0.337   8.999   2.253  0.4942  1.3812 -0.1715
  279MOL0     H37648   0.438   9.098   2.041 -0.3602 -1.2508 -0.0571
  279MOL0     H37649   1.201   8.876   3.067 -2.4516 -0.0867  2.9159
  279MOL0     H37650   1.186   9.066   3.211  1.3207 -0.0838  0.1756
  279MOL0     H37651   0.947   9.470   3.247 -0.7751  2.5468  0.1820
  279MOL0     H37652   0.880   9.666   3.354  0.1526 -0.1372  0.2509
  279MOL0     H37653   0.844   9.818   3.579  0.8478 -1.3654 -1.4095
  279MOL0     H37654   0.921   9.886   3.430 -0.8906 -1.2757  0.1348
  279MOL0     H37655   1.059  10.040   3.582  0.2901 -0.2963  1.3891
  279MOL0     H37656   0.985   9.979   3.715  3.4049  0.3834 -1.0711
  279MOL0     H37657   0.738  10.049   3.603 -1.2939  1.8862 -2.1837
  279MOL0     H37658   0.838  10.123   3.477  0.6271  0.5356 -0.1011
  279MOL0     H37659   0.749  10.273   3.654  0.1760 -0.0854  1.8697
  279MOL0     H37660   0.872  10.207   3.760  0.3494 -0.4111  0.5534
  279MOL0     H37661   1.102  10.453   3.500  0.0858 -0.3612  0.0514
  279MOL0     H37662   1.263   9.672   3.558 -0.3106  0.3635 -0.9541
  279MOL0     H37663   1.386   9.366   3.417  0.3703 -1.0104  1.7056
  279MOL0     H37664   1.444   9.530   3.358 -2.4461  0.7664 -0.5287
  279MOL0     H37665   1.417   9.498   3.528  3.5636 -0.5189 -0.9269
  280MOL0     O37666   8.240  10.692  10.594  0.3753 -0.3831  0.0491
  280MOL0     C37667   8.225  10.665  10.472  0.1060 -0.5654  0.4051
  280MOL0     O37668   8.198  10.755  10.372  0.7988 -0.3632 -0.2170
  280MOL0     C37669   8.163  10.889  10.419 -0.6233  0.7318  0.0019
  280MOL0     C37670   8.070  10.925  10.517  0.4817  0.1877 -0.5218
  280MOL0     C37671   8.045  11.061  10.538  0.2205 -0.5342 -0.3500
  280MOL0     C37672   8.138  11.150  10.485  0.2930 -0.0200 -0.0059
  280MOL0     O37673   8.148  11.284  10.530  0.2191 -0.0580 -0.9947
  280MOL0     C37674   8.034  11.345  10.603 -0.7907 -0.5497  0.1969
  280MOL0     C37675   8.067  11.492  10.611 -0.0698  0.9690 -0.3641
  280MOL0     C37676   7.967  11.550  10.711  0.1843 -0.2615 -0.0679
  280MOL0     C37677   8.004  11.684  10.762 -0.1042  0.4799 -0.4068
  280MOL0     C37678   7.893  11.747  10.844  0.1283  0.4722 -0.1845
  280MOL0     C37679   7.901  11.690  10.985 -0.6864 -0.0155 -0.0776
  280MOL0     C37680   7.789  11.748  11.072 -0.3638  0.7111  0.0059
  280MOL0     C37681   7.657  11.683  11.046 -0.1633  0.3002  0.3835
  280MOL0     N37682   7.559  11.742  11.132  0.1508 -0.1707 -0.6219
  280MOL0     C37683   7.575  11.763  11.271  0.2795 -0.6580 -0.7681
  280MOL0     C37684   7.457  11.813  11.316  1.0145  1.0211  0.6700
  280MOL0     C37685   7.413  11.804  11.456 -0.2242  0.3828  0.1311
  280MOL0     C37686   7.290  11.888  11.489  0.4195 -0.1236 -0.5675
  280MOL0     C37687   7.323  12.037  11.519  0.0409  0.7241  0.6798
  280MOL0     C37688   7.197  12.100  11.559 -1.0290  0.0396  0.3228
  280MOL0     O37689   7.211  12.243  11.540  0.5467 -0.3403 -0.3995
  280MOL0     C37690   7.105  12.325  11.528  1.2801 -0.2765  0.4183
  280MOL0     C37691   7.137  12.462  11.528 -0.1672  0.2758  0.1813
  280MOL0     C37692   7.045  12.568  11.520 -0.5290 -1.1274 -0.3478
  280MOL0     C37693   6.915  12.530  11.535  0.1387 -1.0685  0.3703
  280MOL0     C37694   6.811  12.640  11.524 -0.4097 -0.5770  0.2960
  280MOL0     O37695   6.691  12.612  11.556 -0.0285 -0.1300  0.3434
  280MOL0     C37696   6.576  12.689  11.535  0.3174 -0.6209 -0.5572
  280MOL0     C37697   6.566  12.797  11.445 -1.0754 -0.3115 -0.0227
  280MOL0     C37698   6.440  12.864  11.417  0.4912 -0.2542  0.0818
  280MOL0     C37699   6.323  12.824  11.502 -0.1475 -0.0210 -0.5582
  280MOL0     O37700   6.211  12.893  11.472  0.0070 -0.1006 -0.3730
  280MOL0     C37701   6.100  12.877  11.561 -0.0858 -1.3241 -0.4560
  280MOL0     C37702   5.982  12.964  11.504  0.9023  0.8082 -0.7619
  280MOL0     C37703   5.930  12.906  11.376  0.4552  0.1399 -0.1783
  280MOL0     C37704   5.838  12.785  11.406  0.2672  0.3471  1.4830
  280MOL0     C37705   5.795  12.708  11.281 -0.6153  0.2380 -0.3414
  280MOL0     C37706   5.669  12.612  11.296  0.0691 -0.5878 -0.3102
  280MOL0     C37707   5.673  12.497  11.191 -0.5572 -1.3137  0.1116
  280MOL0     C37708   5.573  12.498  11.084 -0.0628  0.8194 -0.3498
  280MOL0    Cl37709   5.584  12.647  10.996 -0.4368  0.3368  0.2472
  280MOL0     C37710   6.335  12.717  11.586 -0.2714  0.8718  0.0666
  280MOL0     C37711   6.454  12.644  11.599 -0.2059 -0.2552 -0.0786
  280MOL0     O37712   6.849  12.744  11.465 -0.3819  0.5293  0.0282
  280MOL0     C37713   6.871  12.401  11.541  0.3933  1.4633 -0.7599
  280MOL0     C37714   6.970  12.295  11.539 -0.7616 -0.5533 -0.2893
  280MOL0     N37715   7.368  11.816  11.204  0.3610 -0.8685 -0.3065
  280MOL0     N37716   7.427  11.769  11.107 -0.1558 -0.4612 -0.3272
  280MOL0     C37717   8.240  11.109  10.400 -0.0512  0.4618  1.1865
  280MOL0     C37718   8.245  10.976  10.358  0.4819 -0.4695 -0.2002
  280MOL0     C37719   8.259  10.527  10.425 -0.2670 -0.5974  0.4279
  280MOL0     C37720   8.262  10.421  10.518 -0.8512 -0.4764  0.5646
  280MOL0     C37721   8.301  10.295  10.490  0.0199 -0.2881 -0.1470
  280MOL0     C37722   8.317  10.251  10.367 -0.4824  0.8638 -0.7306
  280MOL0     O37723   8.359  10.126  10.340  0.2757 -0.6652  0.6968
  280MOL0     C37724   8.282  10.017  10.385 -0.6542  0.0118 -0.8486
  280MOL0     C37725   8.366   9.960  10.500 -0.6428 -1.0178  0.5402
  280MOL0     C37726   8.515   9.930  10.456  0.2277  0.3688 -0.0470
  280MOL0     C37727   8.627  10.004  10.537  0.7819  0.1446 -0.5988
  280MOL0     C37728   8.748  10.009  10.459 -1.0681 -0.5232 -0.0429
  280MOL0     C37729   8.854  10.005  10.395 -0.3178 -0.2855 -0.4527
  280MOL0     C37730   8.309  10.346  10.264  0.3905  0.1550  0.1935
  280MOL0     C37731   8.278  10.484  10.289 -0.3900  0.2092  0.3859
  280MOL0     C37732   8.276  10.577  10.162  0.3135  0.3308  0.4098
  280MOL0     H37733   8.017  10.849  10.574  1.0171 -1.6725 -2.3738
  280MOL0     H37734   7.972  11.099  10.607  1.3006  0.1523  0.4509
  280MOL0     H37735   7.935  11.328  10.561 -0.8431  0.4110 -0.0862
  280MOL0     H37736   8.027  11.309  10.706 -2.8368  2.5467  1.2905
  280MOL0     H37737   8.071  11.543  10.514 -0.7105 -1.9956 -2.0526
  280MOL0     H37738   8.164  11.519  10.656 -2.4069  2.4872  4.3944
  280MOL0     H37739   7.973  11.485  10.798 -5.5354 -2.1062 -0.6178
  280MOL0     H37740   7.865  11.544  10.670 -0.7119  0.6187  1.8976
  280MOL0     H37741   8.102  11.678  10.809 -0.1802 -2.0322 -0.4080
  280MOL0     H37742   8.017  11.738  10.668  0.0131 -0.2752 -0.8295
  280MOL0     H37743   7.900  11.857  10.842  1.9897  0.4590  1.9355
  280MOL0     H37744   7.802  11.709  10.797  0.2537 -0.2413  0.1375
  280MOL0     H37745   7.881  11.583  10.985  0.8939 -0.3643 -1.5191
  280MOL0     H37746   8.005  11.707  11.014 -0.1506  1.3072 -2.4737
  280MOL0     H37747   7.786  11.857  11.064 -0.0182  0.8217  1.1797
  280MOL0     H37748   7.808  11.726  11.178 -4.9747  3.3200  1.6589
  280MOL0     H37749   7.630  11.694  10.940 -0.7036 -1.0572  0.3591
  280MOL0     H37750   7.652  11.577  11.071  0.1423  0.2752  0.3428
  280MOL0     H37751   7.660  11.747  11.336  0.6565 -0.6424 -1.2450
  280MOL0     H37752   7.384  11.700  11.475 -1.6816  0.4010 -1.6674
  280MOL0     H37753   7.489  11.832  11.529 -0.0278  0.3630 -0.0650
  280MOL0     H37754   7.216  11.890  11.408  1.9412  1.6546 -2.0220
  280MOL0     H37755   7.245  11.846  11.579  1.6011 -1.0214 -0.3785
  280MOL0     H37756   7.363  12.070  11.423 -2.6615 -2.0413 -1.5747
  280MOL0     H37757   7.400  12.051  11.596  0.4576  1.5483  0.1255
  280MOL0     H37758   7.159  12.082  11.660 -0.2344 -0.5864  0.5151
  280MOL0     H37759   7.126  12.065  11.483 -1.6824 -0.0267  0.9533
  280MOL0     H37760   7.243  12.484  11.520  0.1976 -0.8271  1.5726
  280MOL0     H37761   7.086  12.667  11.508 -1.8625 -0.0127  3.0684
  280MOL0     H37762   6.648  12.834  11.383 -0.7336 -1.2616 -0.1548
  280MOL0     H37763   6.417  12.930  11.334 -2.8860 -1.0266  0.2410
  280MOL0     H37764   6.067  12.773  11.571 -0.4181 -1.4633 -2.6714
  280MOL0     H37765   6.125  12.902  11.665 -1.8179 -3.4025  0.5361
  280MOL0     H37766   5.902  12.975  11.578 -0.3095 -2.6260 -1.4104
  280MOL0     H37767   6.025  13.059  11.470 -1.6229  2.2763 -0.1533
  280MOL0     H37768   5.888  12.987  11.318  2.5716  0.3153 -1.5908
  280MOL0     H37769   6.016  12.870  11.319 -0.6921 -1.5605 -0.9106
  280MOL0     H37770   5.746  12.825  11.449  0.5048 -0.3306  2.7062
  280MOL0     H37771   5.880  12.721  11.485  0.9608  3.2401  3.6162
  280MOL0     H37772   5.883  12.649  11.255  0.4035  0.3143  2.5599
  280MOL0     H37773   5.783  12.784  11.203  2.5493  0.6117 -0.5713
  280MOL0     H37774   5.696  12.566  11.391 -0.8531 -0.6504 -0.0671
  280MOL0     H37775   5.571  12.659  11.307  0.0609 -0.4311 -0.9522
  280MOL0     H37776   5.663  12.411  11.259 -2.3953  0.8033  2.7492
  280MOL0     H37777   5.772  12.501  11.145 -2.0619 -0.0307 -3.3385
  280MOL0     H37778   5.603  12.408  11.030  3.3543  0.3429  2.0001
  280MOL0     H37779   5.473  12.484  11.124  1.6187 -1.7638  3.5431
  280MOL0     H37780   6.254  12.683  11.649 -0.6489 -1.2627 -1.4524
  280MOL0     H37781   6.458  12.566  11.675  1.0793  0.5542  0.7284
  280MOL0     H37782   6.767  12.388  11.567  0.2387  1.6665 -1.2683
  280MOL0     H37783   6.947  12.191  11.563 -2.1176  0.6618  5.0619
  280MOL0     H37784   8.306  11.187  10.363  1.6142 -0.6304  1.7882
  280MOL0     H37785   8.321  10.949  10.285  1.7651  2.1050  0.0716
  280MOL0     H37786   8.239  10.437  10.622  0.2785 -1.1150  0.9297
  280MOL0     H37787   8.314  10.228  10.575 -0.0552  0.6510  0.6325
  280MOL0     H37788   8.267   9.945  10.304 -0.8875 -2.2941  1.1464
  280MOL0     H37789   8.190  10.049  10.434  1.0493  2.4925  0.9706
  280MOL0     H37790   8.320   9.867  10.532  2.0261 -1.1332  4.7513
  280MOL0     H37791   8.351  10.014  10.594 -1.3239 -2.7298  1.4535
  280MOL0     H37792   8.520   9.944  10.347 -2.3170 -1.4915 -0.5030
  280MOL0     H37793   8.540   9.826  10.477  2.4279  1.2825  2.5152
  280MOL0     H37794   8.603  10.109  10.556 -0.6784 -0.5534  1.8570
  280MOL0     H37795   8.637   9.954  10.634  0.3492 -1.9655 -1.5752
  280MOL0     H37796   8.936   9.984  10.329 -0.8346  1.2822 -1.6586
  280MOL0     H37797   8.319  10.309  10.162 -3.3280 -3.9588  0.9758
  280MOL0     H37798   8.175  10.613  10.142  0.5811 -0.5297 -3.1978
  280MOL0     H37799   8.342  10.663  10.176 -1.8791  2.0666  0.5627
  280MOL0     H37800   8.305  10.513  10.078  1.2860  0.7307  0.4237
  281MOL0     O37801   7.992  10.291   3.174  0.4049 -0.1962  0.0428
  281MOL0     C37802   7.907  10.197   3.168 -0.0591  0.5320 -0.2185
  281MOL0     O37803   7.926  10.073   3.105  0.2977 -0.2551  0.6718
  281MOL0     C37804   8.046  10.021   3.108  0.4050  0.6900  0.6737
  281MOL0     C37805   8.114  10.010   2.983 -0.7852  0.0715  0.2481
  281MOL0     C37806   8.252   9.976   2.975 -0.4591  0.3254  0.1709
  281MOL0     C37807   8.324   9.954   3.090  0.4755  0.1474 -0.6127
  281MOL0     O37808   8.452   9.929   3.082 -0.2257 -0.1166  0.7084
  281MOL0     C37809   8.527   9.907   3.205  0.0468 -0.2124 -0.1063
  281MOL0     C37810   8.672   9.898   3.176 -0.1078  0.1686  0.4742
  281MOL0     C37811   8.711   9.779   3.083 -0.5996 -0.3643  0.4829
  281MOL0     C37812   8.857   9.738   3.082 -0.2252  0.3585 -0.3521
  281MOL0     C37813   8.897   9.632   2.992 -0.2444 -1.2741 -0.6862
  281MOL0     C37814   8.827   9.502   3.031  0.4027  0.3683  0.6887
  281MOL0     C37815   8.876   9.386   2.942 -0.1756  0.1478  0.1277
  281MOL0     C37816   8.810   9.375   2.806  0.3580 -0.2617  0.9482
  281MOL0     N37817   8.884   9.283   2.709 -0.0026 -0.1521 -0.0682
  281MOL0     C37818   8.908   9.152   2.734 -0.6620  0.4827 -0.1259
  281MOL0     C37819   8.948   9.098   2.617  0.1865  0.5951  0.2845
  281MOL0     C37820   9.010   8.965   2.613 -0.0125 -0.2853 -0.0900
  281MOL0     C37821   9.165   8.953   2.615  0.2229  0.4013 -0.1599
  281MOL0     C37822   9.228   8.863   2.507  0.4113  0.3081 -0.9095
  281MOL0     C37823   9.378   8.863   2.515 -1.8387 -0.6368 -0.2894
  281MOL0     O37824   9.406   8.804   2.648  0.1904 -0.3232 -0.0898
  281MOL0     C37825   9.536   8.810   2.678 -1.0139 -0.3041 -0.3797
  281MOL0     C37826   9.616   8.699   2.649  0.1376 -0.5229 -0.9776
  281MOL0     C37827   9.759   8.703   2.684  0.5423 -0.6642 -0.3172
  281MOL0     C37828   9.817   8.819   2.742 -1.3139  0.4078  0.5127
  281MOL0     C37829   9.967   8.810   2.773 -0.1903  0.0592 -0.4464
  281MOL0     O37830  10.040   8.719   2.705 -0.7844  0.1622 -0.2283
  281MOL0     C37831  10.171   8.727   2.727 -0.2313  0.7434  0.3269
  281MOL0     C37832  10.247   8.827   2.666 -0.3309  0.7825 -0.1761
  281MOL0     C37833  10.382   8.822   2.676 -0.0512 -0.1043 -0.3693
  281MOL0     C37834  10.454   8.707   2.712 -0.6058  0.4251  0.7453
  281MOL0     O37835  10.589   8.709   2.699  0.7480 -0.2527  0.1091
  281MOL0     C37836  10.659   8.599   2.726  0.0433 -0.4184  0.1722
  281MOL0     C37837  10.804   8.618   2.685 -0.8665  0.6270  0.9105
  281MOL0     C37838  10.884   8.486   2.706 -0.5934 -1.4199  1.2157
  281MOL0     C37839  11.033   8.528   2.700 -0.0779  0.9364  1.0226
  281MOL0     C37840  11.123   8.413   2.647 -0.4054 -0.6363 -0.0146
  281MOL0     C37841  11.277   8.454   2.665  0.4115  0.6725 -0.4033
  281MOL0     C37842  11.307   8.589   2.600  0.9827  0.4613  1.0947
  281MOL0     C37843  11.456   8.618   2.602  0.3123  0.3355  0.7534
  281MOL0    Cl37844  11.517   8.643   2.773 -0.4189 -0.0610 -0.5552
  281MOL0     C37845  10.369   8.606   2.768 -1.3578  0.2330 -1.1461
  281MOL0     C37846  10.229   8.614   2.775 -0.8666  0.7745  0.2609
  281MOL0     O37847  10.000   8.906   2.843  0.0553  0.1539  1.0493
  281MOL0     C37848   9.727   8.926   2.771 -0.0714  0.0260  0.6029
  281MOL0     C37849   9.597   8.919   2.726 -0.5682  0.2372 -0.7931
  281MOL0     N37850   8.942   9.196   2.526  0.0914  0.3338 -0.1612
  281MOL0     N37851   8.903   9.304   2.575  0.4136  0.3502 -0.0247
  281MOL0     C37852   8.253   9.964   3.218 -0.0555  0.4497 -0.3052
  281MOL0     C37853   8.113   9.994   3.222 -0.1598 -0.3360 -0.3314
  281MOL0     C37854   7.768  10.230   3.204  0.5736  0.2472 -0.5491
  281MOL0     C37855   7.662  10.146   3.153  0.1172  0.0890  0.1887
  281MOL0     C37856   7.525  10.163   3.195 -0.2628 -0.5633  0.1498
  281MOL0     C37857   7.490  10.267   3.283  0.9655  0.4268 -0.8718
  281MOL0     O37858   7.357  10.279   3.316 -0.0258  0.1021  0.6087
  281MOL0     C37859   7.301  10.390   3.384 -1.3755 -0.7465 -0.5113
  281MOL0     C37860   7.162  10.406   3.337  0.4578  0.7849 -0.6040
  281MOL0     C37861   7.075  10.302   3.404  0.1223  0.5979  0.1628
  281MOL0     C37862   7.058  10.180   3.309 -0.0424 -0.0326 -0.1097
  281MOL0     C37863   7.006  10.076   3.394  0.3340  0.1073 -0.7135
  281MOL0     C37864   6.949   9.995   3.466 -0.4288  0.3716 -0.3700
  281MOL0     C37865   7.591  10.357   3.329  0.0215 -0.4650 -0.3078
  281MOL0     C37866   7.725  10.330   3.295 -0.2517 -0.2274 -0.4565
  281MOL0     C37867   7.825  10.426   3.371 -0.2808 -0.1686  0.6434
  281MOL0     H37868   8.061  10.044   2.894  0.0858  0.4002 -0.1612
  281MOL0     H37869   8.306   9.955   2.884  1.1821  0.4334  1.0795
  281MOL0     H37870   8.512   9.995   3.269  3.4378  0.2893  0.1739
  281MOL0     H37871   8.499   9.818   3.260  1.6183 -0.0197  1.0697
  281MOL0     H37872   8.727   9.892   3.270 -1.9191 -0.3076  1.5386
  281MOL0     H37873   8.699   9.996   3.136 -1.0697 -0.1834 -1.1053
  281MOL0     H37874   8.698   9.808   2.978 -0.1149 -0.0786  0.4986
  281MOL0     H37875   8.640   9.699   3.107 -0.9857 -0.9184 -2.1843
  281MOL0     H37876   8.924   9.821   3.057 -0.9909  1.4809  1.1596
  281MOL0     H37877   8.888   9.716   3.185 -0.0102 -1.3930 -0.7631
  281MOL0     H37878   8.879   9.651   2.886  3.1348 -2.6617 -1.6160
  281MOL0     H37879   9.004   9.613   3.003  0.0070 -0.2583 -1.3115
  281MOL0     H37880   8.845   9.489   3.138 -2.0792  2.1941  1.4306
  281MOL0     H37881   8.718   9.511   3.020  0.3854 -0.5764 -0.0475
  281MOL0     H37882   8.857   9.291   2.993  2.9259 -0.6172  0.0553
  281MOL0     H37883   8.985   9.395   2.935 -0.1558  2.2737  2.1844
  281MOL0     H37884   8.715   9.323   2.818  0.0258  0.1606  0.2192
  281MOL0     H37885   8.785   9.467   2.752 -1.3318 -1.9287 -1.3296
  281MOL0     H37886   8.893   9.107   2.831 -2.6032  1.3072  0.0050
  281MOL0     H37887   8.957   8.903   2.686 -0.5814 -1.4318 -1.4386
  281MOL0     H37888   8.964   8.933   2.519 -1.2200  2.1521 -0.4057
  281MOL0     H37889   9.195   9.056   2.596 -2.6229  1.0595 -1.6344
  281MOL0     H37890   9.198   8.921   2.714 -0.6847  0.4900  0.1809
  281MOL0     H37891   9.196   8.891   2.406  1.3579  0.3100 -1.2188
  281MOL0     H37892   9.197   8.760   2.525 -0.0595  0.7766  1.2946
  281MOL0     H37893   9.415   8.965   2.503 -0.4975 -1.3969 -3.8783
  281MOL0     H37894   9.424   8.807   2.433 -0.6026  0.7741 -0.6195
  281MOL0     H37895   9.573   8.603   2.622 -0.2009 -0.4588 -0.6704
  281MOL0     H37896   9.819   8.621   2.647 -0.3026 -1.4328 -0.0006
  281MOL0     H37897  10.184   8.899   2.617  2.8554  1.0876 -4.4095
  281MOL0     H37898  10.434   8.914   2.651  1.3564 -1.3884 -2.4357
  281MOL0     H37899  10.662   8.579   2.833 -0.2406 -2.6589 -0.1734
  281MOL0     H37900  10.608   8.516   2.675 -1.4936  0.7388 -0.2412
  281MOL0     H37901  10.802   8.643   2.578  0.1850  0.2980  0.7996
  281MOL0     H37902  10.846   8.693   2.752  0.2070  1.4012 -0.5645
  281MOL0     H37903  10.864   8.445   2.805  4.2472 -2.5898  1.9870
  281MOL0     H37904  10.855   8.410   2.633 -1.6029  0.8098 -0.8490
  281MOL0     H37905  11.052   8.555   2.804 -1.8751  3.4148  0.8046
  281MOL0     H37906  11.045   8.625   2.650 -0.1766 -0.3082 -1.6190
  281MOL0     H37907  11.113   8.391   2.540  1.5457  0.9744 -0.5816
  281MOL0     H37908  11.122   8.319   2.703  1.2821  0.6158  2.2495
  281MOL0     H37909  11.294   8.458   2.773 -0.5818  2.9945 -0.2896
  281MOL0     H37910  11.348   8.392   2.609 -0.7065  0.8883 -2.1419
  281MOL0     H37911  11.248   8.666   2.651 -0.2285 -1.6360  3.0740
  281MOL0     H37912  11.270   8.589   2.497  0.2704 -0.4074  1.3373
  281MOL0     H37913  11.520   8.551   2.544  1.4359  1.9533  0.0456
  281MOL0     H37914  11.462   8.711   2.545 -2.7701  1.4277  1.9653
  281MOL0     H37915  10.405   8.511   2.805 -2.1212  0.4729  0.2529
  281MOL0     H37916  10.164   8.529   2.795  2.5878 -2.8364 -2.4130
  281MOL0     H37917   9.762   9.011   2.830  2.0674 -1.1402  1.1253
  281MOL0     H37918   9.529   8.999   2.756  3.1308  3.2194  0.4331
  281MOL0     H37919   8.290   9.935   3.316 -0.2129  0.9567 -0.0944
  281MOL0     H37920   8.064   9.989   3.319 -2.8249  0.1408 -1.5482
  281MOL0     H37921   7.689  10.060   3.092 -0.3570  1.5161 -2.1324
  281MOL0     H37922   7.461  10.082   3.163  1.9996 -1.4675 -2.5265
  281MOL0     H37923   7.343  10.486   3.354 -3.3086  0.3747  0.1664
  281MOL0     H37924   7.304  10.383   3.493 -1.2504 -1.8479 -0.5699
  281MOL0     H37925   7.164  10.402   3.228 -1.0699 -0.4326 -0.6214
  281MOL0     H37926   7.123  10.505   3.363 -0.2753  0.5426 -0.7358
  281MOL0     H37927   6.976  10.337   3.435  0.7549 -1.0279  4.8700
  281MOL0     H37928   7.114  10.288   3.506  3.7388  3.1504 -0.6414
  281MOL0     H37929   6.992  10.208   3.226  1.9914  0.7921 -1.5298
  281MOL0     H37930   7.150  10.134   3.271  0.8214  0.7206  0.9902
  281MOL0     H37931   6.907   9.911   3.518  2.6581 -1.2854 -0.2782
  281MOL0     H37932   7.563  10.437   3.398  3.8232  0.3995  0.4255
  281MOL0     H37933   7.870  10.502   3.306  1.8971 -2.6137 -0.8623
  281MOL0     H37934   7.775  10.478   3.453  0.1775  0.2795  0.6461
  281MOL0     H37935   7.905  10.359   3.402  1.1871  0.5754 -1.3537
  282MOL0     O37936   3.891  11.271   9.742 -0.3891  0.0136 -0.3133
  282MOL0     C37937   3.848  11.162   9.765 -0.5574  0.9928  0.0884
  282MOL0     O37938   3.931  11.056   9.753  0.7735 -0.2038 -0.2771
  282MOL0     C37939   4.064  11.062   9.711  0.2372 -0.2263 -0.3581
  282MOL0     C37940   4.153  11.177   9.735 -0.0973  0.1898 -0.1924
  282MOL0     C37941   4.290  11.175   9.704  0.9444  0.3960  0.3648
  282MOL0     C37942   4.344  11.051   9.651 -0.0070  0.2007  0.3214
  282MOL0     O37943   4.473  11.042   9.609  0.4510  0.1657  0.1853
  282MOL0     C37944   4.535  11.161   9.566  0.1275 -0.0254 -0.4892
  282MOL0     C37945   4.674  11.130   9.506  0.2732 -0.2882 -0.6181
  282MOL0     C37946   4.762  11.259   9.510 -0.8322  0.1064 -0.3330
  282MOL0     C37947   4.895  11.214   9.477  0.3740  0.0690 -0.6632
  282MOL0     C37948   4.996  11.330   9.475  0.4456 -0.6814  0.2879
  282MOL0     C37949   5.140  11.261   9.464  1.2187 -0.7701 -0.1605
  282MOL0     C37950   5.258  11.361   9.456  0.0360  0.7513  0.5289
  282MOL0     C37951   5.266  11.424   9.316  0.8050 -0.2723  1.2387
  282MOL0     N37952   5.351  11.549   9.304  0.2567  0.3888 -0.0080
  282MOL0     C37953   5.486  11.549   9.278  0.2274 -0.3156  0.0407
  282MOL0     C37954   5.519  11.679   9.282  0.8392 -0.1847  0.5226
  282MOL0     C37955   5.650  11.733   9.243  0.0429 -0.7898  0.6860
  282MOL0     C37956   5.759  11.692   9.344 -0.4246 -0.3877  0.3279
  282MOL0     C37957   5.850  11.813   9.350 -1.1076 -0.3311 -0.6618
  282MOL0     C37958   5.973  11.784   9.438  0.7640 -0.3788  0.3343
  282MOL0     O37959   6.048  11.903   9.463 -0.3014  0.3093 -0.3644
  282MOL0     C37960   6.150  11.896   9.555 -0.0768 -0.1718 -0.9450
  282MOL0     C37961   6.217  11.775   9.595  0.0263  0.7185 -1.0081
  282MOL0     C37962   6.319  11.780   9.681 -0.2337  0.1155 -0.6137
  282MOL0     C37963   6.371  11.902   9.731  0.6193  0.0265  0.3365
  282MOL0     C37964   6.495  11.905   9.816  0.0078  0.0091  0.1314
  282MOL0     O37965   6.517  12.020   9.877  0.6146  0.4798 -0.5083
  282MOL0     C37966   6.619  12.039   9.965  0.1966  0.5289 -0.6089
  282MOL0     C37967   6.719  12.138   9.935 -0.0153  0.3071 -0.1899
  282MOL0     C37968   6.831  12.161  10.014 -0.0661  0.2771  0.0860
  282MOL0     C37969   6.844  12.083  10.128  0.7094 -0.2341 -0.6644
  282MOL0     O37970   6.966  12.089  10.193 -0.7897 -0.2400  0.1761
  282MOL0     C37971   6.986  11.996  10.302 -0.6175  0.1919 -0.3343
  282MOL0     C37972   7.132  12.026  10.365  1.0576  0.8526  0.6472
  282MOL0     C37973   7.133  11.953  10.502  0.3356  0.0986  0.2441
  282MOL0     C37974   7.280  11.962  10.541 -0.5449 -0.3437 -0.0287
  282MOL0     C37975   7.306  11.948  10.696 -0.2254  0.3138  0.3293
  282MOL0     C37976   7.411  11.842  10.722 -0.2552 -1.2917  0.1210
  282MOL0     C37977   7.541  11.883  10.663 -0.2152  0.6188  0.7123
  282MOL0     C37978   7.596  11.777  10.572 -0.2411  0.4958  0.1255
  282MOL0    Cl37979   7.765  11.834  10.520  0.1988  0.1062  0.1424
  282MOL0     C37980   6.742  11.992  10.173 -0.0524  0.1667  0.6303
  282MOL0     C37981   6.629  11.971  10.087 -0.0687 -0.2511 -0.2414
  282MOL0     O37982   6.550  11.801   9.840 -0.0380  0.3587 -0.2456
  282MOL0     C37983   6.297  12.022   9.699  0.3110  0.5351 -0.2881
  282MOL0     C37984   6.185  12.020   9.618 -0.3000  0.0057  0.0676
  282MOL0     N37985   5.412  11.757   9.319  0.9970 -0.6893 -0.3580
  282MOL0     N37986   5.314  11.674   9.337 -0.9082  0.6218  0.7837
  282MOL0     C37987   4.265  10.939   9.648 -0.0479 -0.1191 -0.2842
  282MOL0     C37988   4.127  10.947   9.672 -0.1387 -0.2346  0.2770
  282MOL0     C37989   3.712  11.149   9.814 -0.2835  0.9348  1.0510
  282MOL0     C37990   3.673  11.024   9.877 -1.0918  1.2423 -0.0785
  282MOL0     C37991   3.538  10.998   9.910  0.4096 -0.0540 -0.7423
  282MOL0     C37992   3.441  11.092   9.890  0.8276  1.0925  0.7003
  282MOL0     O37993   3.309  11.067   9.930 -0.1942 -0.8254 -0.1597
  282MOL0     C37994   3.288  10.961  10.021  0.8958  0.4890  0.1350
  282MOL0     C37995   3.136  10.947  10.064 -0.8061 -0.1146  0.6088
  282MOL0     C37996   3.098  11.068  10.148 -0.4434  0.7943 -0.4754
  282MOL0     C37997   2.955  11.105  10.142 -0.3150  0.6691  0.6649
  282MOL0     C37998   2.928  11.168  10.016 -0.6872  0.6093 -0.1675
  282MOL0     C37999   2.902  11.229   9.911 -0.5150 -0.0790 -0.3440
  282MOL0     C38000   3.476  11.213   9.831 -0.4174 -0.1726 -0.1055
  282MOL0     C38001   3.608  11.242   9.791 -0.6770  0.1806 -1.4228
  282MOL0     C38002   3.632  11.382   9.740 -0.2098  0.3023 -0.5660
  282MOL0     H38003   4.115  11.274   9.765 -1.4373 -1.3302  3.5456
  282MOL0     H38004   4.341  11.269   9.689  0.6315  0.6730  0.9805
  282MOL0     H38005   4.473  11.211   9.491  0.2701  1.7845  0.5406
  282MOL0     H38006   4.552  11.217   9.658  3.6739 -2.7053  0.7329
  282MOL0     H38007   4.662  11.097   9.403  0.4257 -1.4185 -0.2958
  282MOL0     H38008   4.736  11.057   9.559  1.7006  1.8485  0.8039
  282MOL0     H38009   4.761  11.297   9.613  0.3244 -1.5076  0.3212
  282MOL0     H38010   4.714  11.327   9.439 -0.1518 -1.1132 -2.0148
  282MOL0     H38011   4.931  11.137   9.546  0.4074 -0.6269 -1.4413
  282MOL0     H38012   4.892  11.155   9.384  2.3517 -0.0232 -0.7193
  282MOL0     H38013   4.983  11.384   9.381  2.3499 -1.2021 -0.3220
  282MOL0     H38014   4.984  11.407   9.552  1.2121  1.0871 -1.2827
  282MOL0     H38015   5.148  11.201   9.555 -0.2645 -1.3815 -0.4096
  282MOL0     H38016   5.129  11.206   9.370  0.5191  1.3035 -1.3503
  282MOL0     H38017   5.354  11.314   9.480 -0.0644  0.9588  1.3504
  282MOL0     H38018   5.237  11.431   9.537 -0.8131 -3.3892  4.3476
  282MOL0     H38019   5.305  11.347   9.248  0.5365  1.4473 -0.9768
  282MOL0     H38020   5.169  11.448   9.273  1.3367  2.8724  1.5591
  282MOL0     H38021   5.546  11.464   9.248  0.6429  0.4886 -1.4793
  282MOL0     H38022   5.688  11.700   9.146  1.0358 -0.0864  0.8248
  282MOL0     H38023   5.640  11.841   9.231  0.2881 -0.8762 -0.4379
  282MOL0     H38024   5.719  11.673   9.444  1.3330  0.0650  1.1475
  282MOL0     H38025   5.804  11.601   9.304 -0.3052 -1.9108  3.6198
  282MOL0     H38026   5.799  11.895   9.401  3.5182  1.3149  2.0038
  282MOL0     H38027   5.878  11.841   9.248 -1.0117  0.9999 -0.2921
  282MOL0     H38028   6.040  11.717   9.382  1.7007  0.4360  0.4399
  282MOL0     H38029   5.954  11.741   9.536  0.7073 -0.0911  0.4505
  282MOL0     H38030   6.191  11.683   9.545 -0.1067  1.3608 -2.1421
  282MOL0     H38031   6.379  11.695   9.713  1.2760  1.2300 -0.3753
  282MOL0     H38032   6.710  12.205   9.851  1.0178 -0.1956 -0.7169
  282MOL0     H38033   6.894  12.244   9.986 -0.7397  1.5705  2.2093
  282MOL0     H38034   6.908  12.008  10.378 -1.3091 -2.1643 -0.5703
  282MOL0     H38035   6.990  11.888  10.283  0.5524  0.2434 -0.3975
  282MOL0     H38036   7.209  11.985  10.298 -0.3762 -1.3271  0.2428
  282MOL0     H38037   7.147  12.132  10.390 -0.0890  0.7937  1.6377
  282MOL0     H38038   7.071  11.995  10.581  0.0966  0.8076 -0.3047
  282MOL0     H38039   7.095  11.852  10.486  0.0871  0.2101  0.1189
  282MOL0     H38040   7.315  12.063  10.520  0.3811 -0.4051  1.1313
  282MOL0     H38041   7.341  11.904  10.471 -1.0687  0.6383 -1.3321
  282MOL0     H38042   7.215  11.917  10.749  1.0195 -1.2205  1.6915
  282MOL0     H38043   7.332  12.044  10.742 -2.2504  1.1695 -0.1603
  282MOL0     H38044   7.424  11.846  10.831 -0.6684  1.0870  0.1399
  282MOL0     H38045   7.383  11.740  10.696 -3.5813 -0.7478  1.0953
  282MOL0     H38046   7.614  11.912  10.738  2.8145  2.5219 -2.6683
  282MOL0     H38047   7.534  11.974  10.602  0.7093  0.7802  0.8420
  282MOL0     H38048   7.607  11.678  10.617 -1.9968 -0.1173 -0.7175
  282MOL0     H38049   7.528  11.764  10.487 -2.8543 -0.3341  2.2007
  282MOL0     H38050   6.742  11.928  10.261 -1.7622 -3.4383 -1.7563
  282MOL0     H38051   6.555  11.895  10.107  0.2570 -0.1954  1.2519
  282MOL0     H38052   6.328  12.118   9.737  2.3261 -0.4247  0.6374
  282MOL0     H38053   6.144  12.120   9.603  1.7422  1.1609  1.5825
  282MOL0     H38054   4.319  10.847   9.632  0.4101  0.1781 -0.4822
  282MOL0     H38055   4.068  10.856   9.671 -0.5393  0.0199 -1.0700
  282MOL0     H38056   3.742  10.946   9.906 -4.3890 -2.1914 -0.6570
  282MOL0     H38057   3.531  10.898   9.950  2.9035  0.3053  0.7600
  282MOL0     H38058   3.341  10.964  10.117  1.4130  1.3905 -0.1639
  282MOL0     H38059   3.304  10.866   9.969 -0.5794  0.6620 -0.6954
  282MOL0     H38060   3.122  10.858  10.125  1.0465 -1.2746 -0.5513
  282MOL0     H38061   3.079  10.932   9.971  2.0339 -1.0390 -1.1290
  282MOL0     H38062   3.159  11.147  10.103  2.1254 -1.9870 -2.2622
  282MOL0     H38063   3.116  11.039  10.252 -0.9406  1.5657 -0.1693
  282MOL0     H38064   2.887  11.020  10.154 -1.8474  1.7560  0.0359
  282MOL0     H38065   2.944  11.176  10.224 -0.5185  2.9281 -1.2241
  282MOL0     H38066   2.885  11.278   9.817 -3.0040 -0.5604 -0.2128
  282MOL0     H38067   3.399  11.289   9.837 -0.3367 -0.1604  0.9664
  282MOL0     H38068   3.696  11.424   9.818  1.1357 -2.8016  0.1345
  282MOL0     H38069   3.685  11.385   9.645  0.3727  1.3271 -0.2262
  282MOL0     H38070   3.548  11.449   9.716  0.3092  1.0850 -0.2577
  283MOL0     O38071   8.401   5.826   3.115  0.0930  0.3755 -0.5631
  283MOL0     C38072   8.365   5.945   3.104  0.6939  0.6527 -0.5483
  283MOL0     O38073   8.422   6.044   3.177 -0.4569  0.0011  0.3932
  283MOL0     C38074   8.532   6.006   3.258 -0.0323 -0.4528  0.7256
  283MOL0     C38075   8.656   6.011   3.201  0.3709 -0.4603 -0.2073
  283MOL0     C38076   8.764   6.002   3.287  0.2880  0.3720 -0.1338
  283MOL0     C38077   8.754   5.971   3.421  0.0884  0.0565 -0.1067
  283MOL0     O38078   8.856   5.959   3.505 -0.6257 -0.1508 -0.2260
  283MOL0     C38079   8.970   6.042   3.498  0.3963  0.3889 -0.1494
  283MOL0     C38080   9.046   6.020   3.629 -0.0272  0.0185 -0.4366
  283MOL0     C38081   8.958   6.073   3.744  0.0414 -0.4875 -0.3379
  283MOL0     C38082   9.040   6.102   3.880  0.1333  0.8891  0.3325
  283MOL0     C38083   8.953   6.176   3.972 -0.0116 -0.0308  0.0929
  283MOL0     C38084   8.994   6.331   3.973  0.6547  1.1203 -0.3770
  283MOL0     C38085   8.904   6.411   4.066  0.7250  0.1837  0.0890
  283MOL0     C38086   8.754   6.413   4.019  0.0917 -0.4136 -1.4291
  283MOL0     N38087   8.749   6.460   3.878 -0.1646 -0.3909 -0.7516
  283MOL0     C38088   8.714   6.385   3.773  0.0556  0.9023  0.1039
  283MOL0     C38089   8.701   6.483   3.682 -0.3082  0.0038  0.5594
  283MOL0     C38090   8.651   6.453   3.544  0.1669 -0.7209 -0.0714
  283MOL0     C38091   8.505   6.402   3.549  0.1197  0.1669  0.1640
  283MOL0     C38092   8.480   6.338   3.411  0.4108  0.0417 -0.3196
  283MOL0     C38093   8.335   6.320   3.391  0.1541 -0.2301  0.4419
  283MOL0     O38094   8.296   6.451   3.349  0.3427 -0.5233 -0.0244
  283MOL0     C38095   8.192   6.453   3.257  0.6950  0.0729 -0.3814
  283MOL0     C38096   8.090   6.354   3.244 -0.3594 -0.4220 -0.5618
  283MOL0     C38097   7.986   6.370   3.153  0.1609  0.9198 -0.8171
  283MOL0     C38098   7.982   6.494   3.081  0.1208 -0.1182  0.3646
  283MOL0     C38099   7.875   6.511   2.988  0.0831 -0.4940  0.4806
  283MOL0     O38100   7.840   6.404   2.915  0.5694  0.0051  0.0066
  283MOL0     C38101   7.747   6.421   2.807  0.0782  0.2563 -0.7423
  283MOL0     C38102   7.611   6.452   2.833 -0.6110  1.1851 -0.2977
  283MOL0     C38103   7.522   6.468   2.724  1.1439  0.4258  0.9709
  283MOL0     C38104   7.562   6.477   2.591 -0.5669 -0.4485  0.0313
  283MOL0     O38105   7.480   6.505   2.486 -0.8076  0.0224 -0.7195
  283MOL0     C38106   7.345   6.547   2.514 -0.2213 -0.8045  0.6247
  283MOL0     C38107   7.275   6.570   2.375 -1.1645 -0.3281 -0.2727
  283MOL0     C38108   7.129   6.556   2.389  0.1326 -0.7733 -0.3548
  283MOL0     C38109   7.072   6.564   2.243  0.1798 -0.8335 -0.5859
  283MOL0     C38110   6.925   6.508   2.243 -0.1436  1.0839 -0.9062
  283MOL0     C38111   6.839   6.559   2.140  0.5061  1.1437 -0.1954
  283MOL0     C38112   6.694   6.524   2.155  0.1714  0.5967  0.3146
  283MOL0     C38113   6.613   6.556   2.030  0.3322 -0.3810 -0.2384
  283MOL0    Cl38114   6.448   6.518   2.078  0.0509 -0.1812  0.1487
  283MOL0     C38115   7.698   6.456   2.573  0.3036 -0.5088  0.0878
  283MOL0     C38116   7.789   6.422   2.680  0.4601  0.7842  0.3642
  283MOL0     O38117   7.835   6.623   2.965  0.1016 -0.0535 -0.1632
  283MOL0     C38118   8.069   6.598   3.115  0.3342  0.9652  0.0672
  283MOL0     C38119   8.177   6.572   3.191 -0.6506  0.1984  0.0538
  283MOL0     N38120   8.719   6.609   3.727 -0.0213  0.1756 -0.2695
  283MOL0     N38121   8.752   6.595   3.848  0.1899 -0.4284 -1.4232
  283MOL0     C38122   8.627   5.962   3.487 -0.6817 -0.1581  0.0555
  283MOL0     C38123   8.515   5.979   3.395 -0.0204  1.2236  0.0119
  283MOL0     C38124   8.243   5.968   3.032 -0.1513 -0.0215 -0.7217
  283MOL0     C38125   8.143   5.877   3.041  0.3537 -0.2946 -0.7305
  283MOL0     C38126   8.021   5.909   2.979  0.3189  0.3216 -0.3071
  283MOL0     C38127   8.005   6.029   2.899  0.3220 -0.4751  0.6250
  283MOL0     O38128   7.892   6.056   2.816  0.2882  0.4823  0.4895
  283MOL0     C38129   7.785   5.957   2.794 -0.6888 -0.3991  0.3339
  283MOL0     C38130   7.698   5.986   2.668  0.4690  0.3848  0.9539
  283MOL0     C38131   7.578   6.066   2.707  0.7576 -0.6304  0.5461
  283MOL0     C38132   7.470   5.977   2.762  0.8874 -0.6755 -0.3515
  283MOL0     C38133   7.346   6.054   2.752  0.1639  0.4145  0.2484
  283MOL0     C38134   7.237   6.093   2.761  0.9618  0.4904  0.1176
  283MOL0     C38135   8.111   6.125   2.893 -0.0605  0.4261  0.1562
  283MOL0     C38136   8.227   6.088   2.958 -0.2811 -0.1494  1.0778
  283MOL0     C38137   8.339   6.197   2.929 -0.2941  0.6631  0.4410
  283MOL0     H38138   8.656   6.038   3.096  3.7531 -1.3988 -0.5555
  283MOL0     H38139   8.863   6.016   3.245 -0.3740 -2.0292 -2.8696
  283MOL0     H38140   9.033   6.023   3.410 -1.1041  3.2382 -2.0080
  283MOL0     H38141   8.940   6.146   3.479  2.1813  1.1583  0.8959
  283MOL0     H38142   9.138   6.079   3.633 -0.6941  1.0267  2.4933
  283MOL0     H38143   9.069   5.914   3.637 -0.1620  0.0556  0.5308
  283MOL0     H38144   8.884   5.997   3.772  1.1505 -0.8189  1.8791
  283MOL0     H38145   8.917   6.169   3.711 -3.4872 -1.8241 -0.2777
  283MOL0     H38146   9.090   6.014   3.922 -2.1227  0.4644  2.3479
  283MOL0     H38147   9.118   6.175   3.857 -1.4971  2.7522  0.4669
  283MOL0     H38148   8.848   6.169   3.942 -0.5377  0.5391  1.6669
  283MOL0     H38149   8.947   6.152   4.079  0.3175  2.0166  0.6336
  283MOL0     H38150   9.094   6.358   4.009  0.6461 -0.7076  1.1915
  283MOL0     H38151   8.993   6.376   3.874  2.1212 -0.9708 -1.4170
  283MOL0     H38152   8.926   6.518   4.065 -2.6311  0.9595  0.1190
  283MOL0     H38153   8.922   6.377   4.168  0.3377 -0.4142 -0.0390
  283MOL0     H38154   8.725   6.308   4.032  1.1733 -0.8006 -1.9548
  283MOL0     H38155   8.700   6.488   4.077 -0.4525 -0.7816 -1.4525
  283MOL0     H38156   8.678   6.283   3.762  2.3231  0.2114 -1.5289
  283MOL0     H38157   8.656   6.544   3.484 -0.2316 -0.7124 -0.0939
  283MOL0     H38158   8.714   6.374   3.501  1.3532  0.0570  0.1629
  283MOL0     H38159   8.491   6.321   3.622 -0.8640  0.7833  0.6773
  283MOL0     H38160   8.433   6.481   3.571 -2.7709 -2.6050  1.4433
  283MOL0     H38161   8.535   6.244   3.407 -0.8300 -0.6774 -2.7264
  283MOL0     H38162   8.509   6.400   3.325 -4.7229 -0.1971 -2.5779
  283MOL0     H38163   8.280   6.281   3.478  2.8689  0.8243  2.8062
  283MOL0     H38164   8.317   6.253   3.306  1.9516 -1.5619  1.0420
  283MOL0     H38165   8.084   6.264   3.304 -3.0398  0.8061  1.1655
  283MOL0     H38166   7.924   6.282   3.149 -0.4639  1.2590  0.7379
  283MOL0     H38167   7.580   6.458   2.937  2.9429 -0.9722  1.0646
  283MOL0     H38168   7.419   6.492   2.745 -0.3827 -0.4851 -4.1582
  283MOL0     H38169   7.288   6.470   2.566 -2.4275  1.8290  2.4646
  283MOL0     H38170   7.347   6.643   2.566  1.2061 -0.2078 -0.4660
  283MOL0     H38171   7.304   6.663   2.324 -1.7646 -1.5707 -3.1013
  283MOL0     H38172   7.310   6.486   2.314  0.5179 -2.1205  2.9183
  283MOL0     H38173   7.103   6.461   2.437  0.1326 -1.0255 -0.8468
  283MOL0     H38174   7.097   6.632   2.461  1.3408  0.7973 -1.4049
  283MOL0     H38175   7.132   6.508   2.171  0.2396 -2.6680  0.8220
  283MOL0     H38176   7.081   6.668   2.209  1.9187 -0.4362  0.9121
  283MOL0     H38177   6.880   6.543   2.337  2.9664  3.5785 -0.1935
  283MOL0     H38178   6.935   6.400   2.230 -2.5496  0.2388  2.6979
  283MOL0     H38179   6.847   6.668   2.150  0.9261  0.9510  2.1110
  283MOL0     H38180   6.871   6.526   2.040 -3.3115 -0.5576 -1.0165
  283MOL0     H38181   6.645   6.570   2.241 -1.9370  0.6318 -0.8157
  283MOL0     H38182   6.690   6.417   2.172  1.5325  0.5106  0.1964
  283MOL0     H38183   6.615   6.664   2.015 -1.1034 -0.5330 -1.8699
  283MOL0     H38184   6.645   6.493   1.946  1.1899  2.2242 -2.0008
  283MOL0     H38185   7.746   6.463   2.475  1.9464  2.3604  0.9623
  283MOL0     H38186   7.894   6.399   2.664  0.7986  0.3954  2.8005
  283MOL0     H38187   8.053   6.699   3.077  1.4750  1.4112  0.7309
  283MOL0     H38188   8.253   6.647   3.213 -3.1248  2.4672  1.4087
  283MOL0     H38189   8.617   5.939   3.592  1.4521 -1.0375  0.1119
  283MOL0     H38190   8.417   5.966   3.440  0.8848 -2.1799  1.2913
  283MOL0     H38191   8.148   5.789   3.105  0.1011  1.1971  1.4796
  283MOL0     H38192   7.935   5.843   2.979 -1.3732  2.4079 -1.9858
  283MOL0     H38193   7.718   5.948   2.879  0.9907 -4.0469  1.4668
  283MOL0     H38194   7.827   5.859   2.772 -0.5815 -0.6365  1.5632
  283MOL0     H38195   7.660   5.896   2.618 -2.6699  2.9525 -1.7059
  283MOL0     H38196   7.759   6.040   2.596  0.2430 -0.3252  0.2154
  283MOL0     H38197   7.536   6.129   2.628 -4.3001 -1.5670  2.1419
  283MOL0     H38198   7.614   6.138   2.780 -1.0109 -1.4116  2.2959
  283MOL0     H38199   7.458   5.884   2.705  2.9683  0.0552 -2.1285
  283MOL0     H38200   7.491   5.951   2.866 -1.6122 -2.5873 -0.2153
  283MOL0     H38201   7.140   6.124   2.795 -0.2579 -2.6539 -0.2102
  283MOL0     H38202   8.091   6.218   2.841 -4.5159 -0.7710 -0.6251
  283MOL0     H38203   8.383   6.221   3.026 -0.4725  0.2829  0.6161
  283MOL0     H38204   8.405   6.136   2.865 -4.6123 -5.3509  0.8294
  283MOL0     H38205   8.304   6.283   2.871  1.0149 -0.9944 -3.1677
  284MOL0     O38206   1.300   4.749   7.311 -0.1912  0.0626 -0.2156
  284MOL0     C38207   1.292   4.642   7.373 -0.1427 -1.4053 -0.3237
  284MOL0     O38208   1.373   4.610   7.478 -0.2304  0.7355 -0.4267
  284MOL0     C38209   1.480   4.693   7.508 -0.2498  0.8280  0.1517
  284MOL0     C38210   1.605   4.670   7.445 -0.7161  0.5961  0.3658
  284MOL0     C38211   1.719   4.748   7.475  0.4506  0.5998 -0.4261
  284MOL0     C38212   1.717   4.827   7.591  0.1866  0.1811 -0.2506
  284MOL0     O38213   1.829   4.891   7.624 -0.3477  0.2260 -0.5318
  284MOL0     C38214   1.829   4.981   7.738 -0.3569 -0.2668 -0.5711
  284MOL0     C38215   1.952   5.071   7.730  0.0298  0.2370  0.4147
  284MOL0     C38216   1.967   5.180   7.834 -0.1306 -0.2088 -0.1823
  284MOL0     C38217   2.078   5.283   7.798 -1.5973 -0.1457  0.0250
  284MOL0     C38218   2.123   5.363   7.931  1.0049  0.3518 -0.0722
  284MOL0     C38219   2.015   5.443   7.998  0.0150 -0.8846 -1.1837
  284MOL0     C38220   2.064   5.481   8.142 -0.7126 -0.4415  0.2870
  284MOL0     C38221   2.193   5.557   8.137 -0.8068 -0.5154  0.3975
  284MOL0     N38222   2.229   5.613   8.265  0.0166 -0.3055 -0.1681
  284MOL0     C38223   2.249   5.522   8.365  0.5658  0.2365  0.6864
  284MOL0     C38224   2.239   5.596   8.479 -0.1773  0.3925 -0.1283
  284MOL0     C38225   2.250   5.536   8.617 -0.3765  0.1953 -0.2292
  284MOL0     C38226   2.357   5.622   8.702  0.4774  0.8883  0.0657
  284MOL0     C38227   2.377   5.545   8.840 -0.6543 -0.4591 -0.5076
  284MOL0     C38228   2.474   5.626   8.936  1.3200  0.2371  0.0140
  284MOL0     O38229   2.603   5.661   8.880 -0.1319  0.5448 -0.0114
  284MOL0     C38230   2.680   5.554   8.832 -0.0926  0.7973  0.4259
  284MOL0     C38231   2.734   5.564   8.701 -0.2482 -0.2351  1.1536
  284MOL0     C38232   2.826   5.470   8.655  0.7978 -0.1750 -0.0927
  284MOL0     C38233   2.861   5.361   8.740  0.4449  0.6351 -0.5328
  284MOL0     C38234   2.976   5.276   8.712 -0.6538  0.0667  0.4865
  284MOL0     O38235   3.044   5.225   8.814 -0.0810  0.0984 -0.6504
  284MOL0     C38236   3.166   5.173   8.808 -0.9258 -0.5344  1.4298
  284MOL0     C38237   3.183   5.040   8.814  0.7468  0.5595  0.5003
  284MOL0     C38238   3.307   4.979   8.805 -0.4400 -0.9528 -0.5078
  284MOL0     C38239   3.423   5.055   8.789  0.6042  0.3952  0.4032
  284MOL0     O38240   3.549   4.994   8.790  0.4656 -0.3048  0.0554
  284MOL0     C38241   3.601   4.957   8.662 -0.1541 -0.8910  0.7650
  284MOL0     C38242   3.686   4.827   8.654 -0.3733 -0.3074 -0.1147
  284MOL0     C38243   3.825   4.852   8.725 -1.0350  0.0644  0.4390
  284MOL0     C38244   3.921   4.913   8.617 -0.5782  0.1184 -0.9175
  284MOL0     C38245   4.072   4.884   8.648 -0.0058  0.6234 -0.4019
  284MOL0     C38246   4.152   4.947   8.533  0.2850 -0.3912 -0.0380
  284MOL0     C38247   4.303   4.915   8.546  0.3929  0.1673  0.5621
  284MOL0     C38248   4.388   4.946   8.418  0.7983 -0.4100  0.0801
  284MOL0    Cl38249   4.369   5.121   8.367  0.2609 -0.1893 -0.1006
  284MOL0     C38250   3.401   5.194   8.773 -0.0591  0.0163 -0.6050
  284MOL0     C38251   3.278   5.253   8.771  1.1995  0.1997 -0.3909
  284MOL0     O38252   3.007   5.261   8.595  0.0593  0.1993  0.4322
  284MOL0     C38253   2.790   5.349   8.860 -0.6922 -0.5644 -0.4754
  284MOL0     C38254   2.704   5.444   8.909 -0.6242  0.2912 -0.9972
  284MOL0     N38255   2.217   5.728   8.444 -0.3965  0.3323 -0.6106
  284MOL0     N38256   2.197   5.731   8.313 -0.5066 -0.5972 -0.1691
  284MOL0     C38257   1.592   4.846   7.659  1.2091  0.0246  1.0030
  284MOL0     C38258   1.481   4.784   7.616 -0.1291  0.4267 -0.6738
  284MOL0     C38259   1.180   4.540   7.348  0.1500  0.2398 -0.1191
  284MOL0     C38260   1.159   4.499   7.220 -0.2452  0.1415 -1.6280
  284MOL0     C38261   1.054   4.420   7.178  0.3821 -0.1802 -0.4410
  284MOL0     C38262   0.965   4.363   7.277  0.2934  0.0286  0.6484
  284MOL0     O38263   0.871   4.277   7.244  0.1099  0.7908  0.7593
  284MOL0     C38264   0.802   4.201   7.339 -1.0606 -0.5866 -0.0900
  284MOL0     C38265   0.714   4.079   7.293 -0.8733 -0.8889 -1.1534
  284MOL0     C38266   0.661   4.088   7.146 -0.6994  0.1565 -0.5618
  284MOL0     C38267   0.529   4.168   7.130 -0.2272 -0.2173 -0.7696
  284MOL0     C38268   0.431   4.118   7.225  0.2246  0.3140 -0.2444
  284MOL0     C38269   0.346   4.053   7.283 -0.1807 -0.2172 -0.5187
  284MOL0     C38270   1.000   4.393   7.412  0.8797  0.4705 -0.2534
  284MOL0     C38271   1.096   4.480   7.446  0.6667 -0.1936  0.0973
  284MOL0     C38272   1.121   4.511   7.594  0.1180  0.3306 -0.4869
  284MOL0     H38273   1.620   4.601   7.364  0.2977  0.6532  0.4893
  284MOL0     H38274   1.821   4.732   7.440  0.2542 -3.6416  0.4149
  284MOL0     H38275   1.741   5.045   7.736  1.1839  1.9671 -1.0288
  284MOL0     H38276   1.848   4.918   7.825  0.9189  1.3454  0.3708
  284MOL0     H38277   1.943   5.123   7.635  0.8120  1.6643  1.0835
  284MOL0     H38278   2.043   5.012   7.726  0.0347  0.2967 -2.9845
  284MOL0     H38279   1.983   5.125   7.927  1.3665 -1.3004 -1.0394
  284MOL0     H38280   1.874   5.237   7.845 -0.4513 -1.1512  2.8604
  284MOL0     H38281   2.171   5.236   7.766 -2.7785 -0.6107 -2.9902
  284MOL0     H38282   2.043   5.344   7.715  0.3828 -0.6569 -1.2513
  284MOL0     H38283   2.168   5.293   8.003  0.1371 -1.9627 -1.6726
  284MOL0     H38284   2.198   5.438   7.903 -0.6636  2.2826  0.4233
  284MOL0     H38285   1.990   5.530   7.936  0.0888  0.2448  0.3216
  284MOL0     H38286   1.928   5.377   8.009  1.0392 -2.1833 -0.7143
  284MOL0     H38287   2.093   5.390   8.196  2.2544  0.4211  0.3169
  284MOL0     H38288   1.987   5.531   8.200  2.5206  3.5959  1.5710
  284MOL0     H38289   2.276   5.493   8.105 -0.2668  1.0898 -1.6982
  284MOL0     H38290   2.194   5.636   8.061 -0.9015 -0.0323  0.8906
  284MOL0     H38291   2.275   5.421   8.336 -0.0063  0.5609 -1.0232
  284MOL0     H38292   2.156   5.530   8.673 -0.5270  0.1115 -0.4870
  284MOL0     H38293   2.284   5.432   8.610 -1.0175 -0.3148  2.7211
  284MOL0     H38294   2.455   5.635   8.654  1.9981  0.9185  2.9372
  284MOL0     H38295   2.313   5.720   8.719 -0.4564  0.5590 -0.3458
  284MOL0     H38296   2.420   5.445   8.829 -2.9548 -1.6702  0.6527
  284MOL0     H38297   2.288   5.522   8.899 -0.9811  0.7544 -0.4980
  284MOL0     H38298   2.489   5.579   9.034  0.9061  0.8214  0.3679
  284MOL0     H38299   2.414   5.713   8.963 -0.1513 -0.6380 -0.3223
  284MOL0     H38300   2.719   5.654   8.642 -0.3701  1.3214  3.4116
  284MOL0     H38301   2.870   5.488   8.557  0.5588 -0.4573 -0.2534
  284MOL0     H38302   3.094   4.982   8.835 -1.5349  3.6867  0.2279
  284MOL0     H38303   3.315   4.872   8.823 -0.0374 -0.7197  0.8235
  284MOL0     H38304   3.519   4.932   8.593  1.0609  0.6993 -1.4008
  284MOL0     H38305   3.646   5.043   8.612  1.3939 -1.0840  1.7797
  284MOL0     H38306   3.636   4.743   8.702  0.8093 -1.5792 -1.0403
  284MOL0     H38307   3.710   4.807   8.549  1.2220  1.4957 -0.1449
  284MOL0     H38308   3.824   4.917   8.814  1.1080  1.1098 -0.2282
  284MOL0     H38309   3.855   4.752   8.757  0.0747  0.0500 -0.5872
  284MOL0     H38310   3.903   5.019   8.595  2.4953  1.1511  0.8054
  284MOL0     H38311   3.895   4.865   8.522 -3.2593 -2.0520  0.8012
  284MOL0     H38312   4.088   4.776   8.653  1.5077  0.8676  1.8878
  284MOL0     H38313   4.107   4.921   8.745 -0.1309 -2.7757  1.0924
  284MOL0     H38314   4.122   4.917   8.433  2.2248 -1.9405 -0.2250
  284MOL0     H38315   4.139   5.054   8.552  0.5379 -0.5349  1.0767
  284MOL0     H38316   4.319   4.811   8.576  0.3838  0.3618  1.2703
  284MOL0     H38317   4.329   4.970   8.637  0.1028  0.1964  0.6284
  284MOL0     H38318   4.495   4.931   8.434  0.6069  0.5114  2.6769
  284MOL0     H38319   4.361   4.867   8.347  3.0703 -1.8048  0.6426
  284MOL0     H38320   3.487   5.258   8.756 -1.0170  1.9907  1.3919
  284MOL0     H38321   3.262   5.361   8.775 -3.9956 -0.3804  1.7935
  284MOL0     H38322   2.810   5.262   8.921  0.1850 -2.9941 -3.8974
  284MOL0     H38323   2.666   5.425   9.009 -2.7844 -0.4815 -1.9024
  284MOL0     H38324   1.581   4.906   7.749  2.8878  0.7756  0.7346
  284MOL0     H38325   1.380   4.793   7.653 -0.5438  2.1044 -2.1010
  284MOL0     H38326   1.231   4.540   7.151  1.3291  0.4595  0.1354
  284MOL0     H38327   1.037   4.402   7.072  1.3706  0.0793 -0.6581
  284MOL0     H38328   0.737   4.272   7.392  1.7813  2.5475 -0.4289
  284MOL0     H38329   0.879   4.162   7.406  1.2406  2.7511 -0.5237
  284MOL0     H38330   0.634   4.088   7.367 -1.0171 -1.0950 -1.2836
  284MOL0     H38331   0.765   3.983   7.307  0.9717  0.4362  2.3914
  284MOL0     H38332   0.630   3.996   7.096 -2.3491  1.1557 -1.4600
  284MOL0     H38333   0.741   4.128   7.084  0.2423 -0.3255  0.3114
  284MOL0     H38334   0.547   4.271   7.159 -3.6855 -0.2975  2.4088
  284MOL0     H38335   0.491   4.154   7.028 -2.3585  0.9831 -0.2032
  284MOL0     H38336   0.271   3.989   7.324 -0.8548 -0.6720 -2.3874
  284MOL0     H38337   0.944   4.346   7.492  1.1691 -3.3307 -2.0589
  284MOL0     H38338   1.224   4.484   7.620 -0.5638 -1.2339  0.7574
  284MOL0     H38339   1.124   4.620   7.604  0.7415  0.2382  0.5158
  284MOL0     H38340   1.039   4.465   7.650 -2.9703 -1.5668 -5.8079
  285MOL0     O38341   6.440  10.079   9.214  0.4117  0.5298 -0.6059
  285MOL0     C38342   6.398  10.128   9.319 -0.0517 -1.3877  0.6528
  285MOL0     O38343   6.483  10.181   9.421  0.3610 -0.1444  0.1095
  285MOL0     C38344   6.625  10.172   9.416  0.0070  0.4551  0.8381
  285MOL0     C38345   6.710  10.101   9.325  0.0307 -0.0238 -0.0717
  285MOL0     C38346   6.848  10.105   9.347  0.2522  0.1832 -0.2892
  285MOL0     C38347   6.908  10.166   9.456 -0.7481 -0.5785  0.3881
  285MOL0     O38348   7.045  10.166   9.464  0.1456 -0.4455  0.4016
  285MOL0     C38349   7.113  10.252   9.560 -0.1527 -0.3810 -0.4340
  285MOL0     C38350   7.259  10.229   9.544  0.2688  0.5070  1.1937
  285MOL0     C38351   7.309  10.087   9.532  0.7145  0.6587  0.1516
  285MOL0     C38352   7.455  10.072   9.572 -0.4691 -0.1149  0.6049
  285MOL0     C38353   7.516   9.932   9.526 -0.1926  0.0461  0.1959
  285MOL0     C38354   7.518   9.837   9.641  0.4781  0.7252 -0.2857
  285MOL0     C38355   7.644   9.875   9.722 -0.6131 -0.6852 -0.6137
  285MOL0     C38356   7.697   9.762   9.818 -0.0838  0.3675 -0.0996
  285MOL0     N38357   7.787   9.667   9.740 -0.2195 -0.0398 -0.3706
  285MOL0     C38358   7.827   9.680   9.604 -0.4367  0.9094 -0.0003
  285MOL0     C38359   7.888   9.559   9.596 -0.6432  0.4884 -0.2329
  285MOL0     C38360   7.964   9.515   9.480 -1.4640 -0.4432  0.5631
  285MOL0     C38361   8.119   9.543   9.520  0.6875 -0.5651 -1.0478
  285MOL0     C38362   8.214   9.529   9.401 -0.4864 -0.3906 -0.2617
  285MOL0     C38363   8.361   9.509   9.445 -0.5229 -0.3883  0.1273
  285MOL0     O38364   8.416   9.630   9.498  0.4657  0.2957  0.4105
  285MOL0     C38365   8.522   9.629   9.582  1.4410  0.8339 -0.8133
  285MOL0     C38366   8.568   9.524   9.659 -1.0425  0.5817 -0.3940
  285MOL0     C38367   8.685   9.543   9.738 -0.4828 -0.1763 -0.3496
  285MOL0     C38368   8.745   9.660   9.759 -0.5736  0.0772 -0.3090
  285MOL0     C38369   8.869   9.673   9.834  0.9274  0.3250  0.2666
  285MOL0     O38370   8.960   9.765   9.784 -0.2590 -0.0315 -0.3896
  285MOL0     C38371   9.069   9.800   9.856  0.5032 -0.2835 -0.3683
  285MOL0     C38372   9.097   9.938   9.856 -0.1454 -0.4156  0.7764
  285MOL0     C38373   9.219   9.971   9.926 -0.4262 -0.0719  0.6718
  285MOL0     C38374   9.305   9.886   9.991  0.0539 -0.5333  0.1013
  285MOL0     O38375   9.424   9.935  10.030 -0.0752  0.0079  0.4471
  285MOL0     C38376   9.499   9.837  10.104  0.6870 -0.8081 -0.2858
  285MOL0     C38377   9.623   9.901  10.160  0.2065 -0.2873 -0.7066
  285MOL0     C38378   9.709   9.967  10.055  0.4630 -0.5817  0.4029
  285MOL0     C38379   9.846  10.000  10.117 -0.1298  0.4739 -0.6460
  285MOL0     C38380   9.924  10.079  10.015 -0.9255  0.6741  0.4628
  285MOL0     C38381  10.076  10.095  10.033  0.5323 -0.4433 -0.0174
  285MOL0     C38382  10.144  10.182   9.928 -0.0189  0.7399  0.0682
  285MOL0     C38383  10.158  10.078   9.809  0.1790 -0.6151 -0.4360
  285MOL0    Cl38384  10.120  10.168   9.664 -0.1074 -0.2283  0.0048
  285MOL0     C38385   9.272   9.748   9.981 -0.2408 -0.3763  1.0139
  285MOL0     C38386   9.156   9.710   9.922  0.3390  0.3429  0.8554
  285MOL0     O38387   8.883   9.594   9.932  0.3973 -0.0585 -0.2856
  285MOL0     C38388   8.688   9.766   9.684 -0.1383 -0.1457 -0.5059
  285MOL0     C38389   8.588   9.743   9.601  0.3136  0.8662 -0.6159
  285MOL0     N38390   7.890   9.486   9.719  0.1872 -0.4127  0.8949
  285MOL0     N38391   7.830   9.556   9.807 -0.9406  1.0466  0.4819
  285MOL0     C38392   6.826  10.214   9.554  0.6375  0.2336  0.4271
  285MOL0     C38393   6.686  10.220   9.529 -0.9542 -0.3012  0.1833
  285MOL0     C38394   6.258  10.129   9.360  0.6037  0.6765  0.5183
  285MOL0     C38395   6.202  10.241   9.416  0.4455  0.9724  0.3294
  285MOL0     C38396   6.078  10.251   9.472  0.3543  0.1961 -0.3002
  285MOL0     C38397   5.993  10.138   9.463 -0.8192 -0.4035 -0.7272
  285MOL0     O38398   5.867  10.136   9.510  0.0584  0.6847 -0.5109
  285MOL0     C38399   5.822  10.245   9.589 -0.0204  1.3441  1.3466
  285MOL0     C38400   5.680  10.222   9.629  0.1606 -0.3012  0.5628
  285MOL0     C38401   5.593  10.349   9.655  0.2068  0.2149  0.7090
  285MOL0     C38402   5.451  10.328   9.696 -0.1415  0.0610  0.5848
  285MOL0     C38403   5.381  10.254   9.584 -0.4098 -0.4145  0.8471
  285MOL0     C38404   5.344  10.198   9.490 -0.8115 -0.2756 -1.0565
  285MOL0     C38405   6.044  10.019   9.401  0.7742 -0.2047  0.0913
  285MOL0     C38406   6.173  10.011   9.344 -0.6844 -0.2345 -0.5194
  285MOL0     C38407   6.220   9.889   9.273 -0.1417 -0.2149 -0.3419
  285MOL0     H38408   6.666  10.050   9.241  3.1381  0.3036 -2.0557
  285MOL0     H38409   6.916  10.069   9.270 -0.6647 -3.3798  0.3836
  285MOL0     H38410   7.099  10.354   9.523 -1.6934 -0.5263 -0.3126
  285MOL0     H38411   7.090  10.252   9.667 -1.8699 -0.0562 -0.7832
  285MOL0     H38412   7.310  10.279   9.627  1.0959 -1.0424  1.6673
  285MOL0     H38413   7.288  10.276   9.450 -0.1508 -0.8718  0.3389
  285MOL0     H38414   7.295  10.052   9.429 -0.1899  1.1955  0.0861
  285MOL0     H38415   7.248  10.023   9.596  0.8007 -0.5208 -0.8965
  285MOL0     H38416   7.497  10.152   9.510 -2.4132 -0.1519 -0.8709
  285MOL0     H38417   7.472  10.092   9.678 -0.4277 -1.4349  0.8585
  285MOL0     H38418   7.455   9.888   9.446  0.9970  1.3108 -1.4875
  285MOL0     H38419   7.614   9.960   9.486 -1.4717  2.2485 -1.6510
  285MOL0     H38420   7.420   9.845   9.689  1.4769 -3.6647  3.0800
  285MOL0     H38421   7.520   9.734   9.607 -0.9462  0.0005  1.6200
  285MOL0     H38422   7.610   9.961   9.782  0.5023  0.8925 -2.1242
  285MOL0     H38423   7.728   9.920   9.668  1.8148  0.8706  3.9169
  285MOL0     H38424   7.747   9.795   9.909  2.4406 -0.5547 -1.0447
  285MOL0     H38425   7.611   9.706   9.855 -0.3680 -0.6754 -2.1928
  285MOL0     H38426   7.821   9.746   9.518  0.4719  3.7909  2.0203
  285MOL0     H38427   7.933   9.413   9.454  1.7275 -0.8503 -2.3881
  285MOL0     H38428   7.939   9.575   9.392 -0.6077  0.6265  1.0352
  285MOL0     H38429   8.133   9.639   9.570  0.3901 -0.2918 -1.4740
  285MOL0     H38430   8.147   9.463   9.588 -5.2036 -1.0423  1.4304
  285MOL0     H38431   8.204   9.627   9.353 -1.1036 -0.4863 -0.3449
  285MOL0     H38432   8.189   9.456   9.324 -3.4786  0.2724 -0.0491
  285MOL0     H38433   8.427   9.478   9.364  0.5351  1.7056  0.1121
  285MOL0     H38434   8.363   9.425   9.515 -2.0995  0.9271  1.8677
  285MOL0     H38435   8.517   9.428   9.663 -2.8708  1.3748 -2.5579
  285MOL0     H38436   8.721   9.462   9.802  0.1861  1.2516  1.1491
  285MOL0     H38437   9.034  10.004   9.798  2.7030  0.6886 -1.2577
  285MOL0     H38438   9.255  10.072   9.906  0.5917 -0.1672  1.9420
  285MOL0     H38439   9.438   9.809  10.191  0.0528 -0.2157 -0.5283
  285MOL0     H38440   9.540   9.752  10.049  0.8243  0.2143 -1.8238
  285MOL0     H38441   9.608   9.976  10.238  1.3253 -0.2481 -0.5148
  285MOL0     H38442   9.683   9.823  10.207  1.2273 -0.2536 -1.8801
  285MOL0     H38443   9.725   9.890   9.979 -2.3953 -0.2087 -0.7096
  285MOL0     H38444   9.656  10.051  10.010  3.8980  1.6195  0.1583
  285MOL0     H38445   9.898   9.904  10.114 -1.0477 -0.0480 -0.1021
  285MOL0     H38446   9.850  10.052  10.214 -0.0070  0.8557 -0.8506
  285MOL0     H38447   9.882  10.178  10.033 -0.3191  0.8358  1.0045
  285MOL0     H38448   9.887  10.060   9.914 -0.6579  1.7564  0.1541
  285MOL0     H38449  10.110  10.131  10.131 -0.6489  0.4732  0.0828
  285MOL0     H38450  10.122   9.996  10.024  0.2349 -1.0086  3.4989
  285MOL0     H38451  10.237  10.223   9.969 -0.6342 -1.0529  3.6897
  285MOL0     H38452  10.081  10.270   9.911 -1.2851  0.2494  1.8818
  285MOL0     H38453  10.262  10.048   9.828 -0.5630 -1.4509  2.9634
  285MOL0     H38454  10.087   9.995   9.810 -2.9545  1.9238  0.0994
  285MOL0     H38455   9.328   9.665  10.024  1.8501 -0.2491 -1.2440
  285MOL0     H38456   9.118   9.608   9.918 -0.0969  0.4515 -3.8743
  285MOL0     H38457   8.745   9.858   9.677  2.4738 -1.7019 -1.2159
  285MOL0     H38458   8.562   9.836   9.551  0.4052 -0.0011 -2.3461
  285MOL0     H38459   6.862  10.253   9.649 -2.0267  0.9005  1.2363
  285MOL0     H38460   6.633  10.258   9.616 -1.1391 -0.7882  0.2899
  285MOL0     H38461   6.262  10.331   9.408 -0.4589  1.4454 -1.7024
  285MOL0     H38462   6.059  10.345   9.524 -0.3225  0.2445 -0.6210
  285MOL0     H38463   5.825  10.333   9.523  2.3858  0.8220  0.6461
  285MOL0     H38464   5.890  10.254   9.674  0.4183 -0.3777  1.2112
  285MOL0     H38465   5.678  10.167   9.724  1.6889 -2.4510 -0.5691
  285MOL0     H38466   5.630  10.164   9.551 -0.2269 -3.4487  2.9235
  285MOL0     H38467   5.596  10.408   9.563  2.8816 -1.0085 -0.1246
  285MOL0     H38468   5.639  10.414   9.731 -3.0207 -1.8151  4.8481
  285MOL0     H38469   5.450  10.280   9.794  1.3174  0.2850  0.7255
  285MOL0     H38470   5.405  10.422   9.727 -1.2622 -0.9458  2.1052
  285MOL0     H38471   5.311  10.142   9.405 -0.1687 -0.1897 -1.3630
  285MOL0     H38472   5.970   9.940   9.399  0.8488 -0.2551 -0.9219
  285MOL0     H38473   6.249   9.914   9.170  0.8284 -2.2478 -0.5932
  285MOL0     H38474   6.308   9.852   9.326 -1.1616 -1.7243  0.3463
  285MOL0     H38475   6.149   9.807   9.283 -0.1297  0.0649  3.5198
  286MOL0     O38476   8.514   5.205   0.702 -0.8572  0.0894  0.1083
  286MOL0     C38477   8.486   5.123   0.620 -0.5034 -0.6038  1.4868
  286MOL0     O38478   8.556   5.111   0.506  0.2222 -0.2552 -0.4687
  286MOL0     C38479   8.681   5.164   0.480 -0.2963  0.3256 -0.0164
  286MOL0     C38480   8.784   5.162   0.574  0.1384  0.8020 -0.0291
  286MOL0     C38481   8.915   5.205   0.549 -0.3765 -0.6849  0.5621
  286MOL0     C38482   8.946   5.251   0.417  0.1974 -0.5598  0.3049
  286MOL0     O38483   9.077   5.286   0.379  0.5806  0.6860 -0.1073
  286MOL0     C38484   9.175   5.267   0.477 -0.4123  0.1602 -0.1127
  286MOL0     C38485   9.314   5.323   0.434  0.5510 -0.0834  0.1536
  286MOL0     C38486   9.417   5.328   0.551  0.1246  0.8098  0.2027
  286MOL0     C38487   9.552   5.396   0.515  0.3394 -0.1652  0.2908
  286MOL0     C38488   9.652   5.362   0.628  0.0197  0.7869  0.4178
  286MOL0     C38489   9.793   5.424   0.593  0.1855 -0.3588  0.2712
  286MOL0     C38490   9.895   5.414   0.704 -0.9516  0.8085 -1.0426
  286MOL0     C38491   9.942   5.276   0.743  1.6902 -0.0399  0.0028
  286MOL0     N38492  10.078   5.276   0.788  0.5637  0.6837 -0.9198
  286MOL0     C38493  10.106   5.299   0.918 -0.0753  0.4406 -0.1315
  286MOL0     C38494  10.240   5.274   0.925  0.6007  0.9366 -0.2007
  286MOL0     C38495  10.319   5.260   1.059  0.0155 -0.6782 -0.0240
  286MOL0     C38496  10.357   5.397   1.113 -0.9574  0.2174 -0.7640
  286MOL0     C38497  10.496   5.441   1.067  0.4964 -0.3395 -0.6215
  286MOL0     C38498  10.605   5.345   1.114 -0.7806  0.4939  0.0985
  286MOL0     O38499  10.652   5.260   1.004  0.4380  0.1700 -0.5817
  286MOL0     C38500  10.717   5.333   0.910  0.4260  0.0560 -0.5114
  286MOL0     C38501  10.846   5.382   0.938  0.4620  0.4245  0.5510
  286MOL0     C38502  10.921   5.437   0.828 -0.0900 -0.2116 -0.2616
  286MOL0     C38503  10.862   5.445   0.703 -0.9899 -0.3046  0.6625
  286MOL0     C38504  10.928   5.506   0.586 -0.6847  0.7002 -0.5010
  286MOL0     O38505  11.064   5.521   0.597 -0.2870  1.6056 -0.2180
  286MOL0     C38506  11.135   5.599   0.511  0.1981 -0.1197 -0.4977
  286MOL0     C38507  11.135   5.741   0.524 -0.4631 -0.0956  0.2139
  286MOL0     C38508  11.197   5.818   0.432  0.2942 -0.5325  0.3598
  286MOL0     C38509  11.255   5.761   0.319 -0.1109  0.9915  0.2141
  286MOL0     O38510  11.343   5.830   0.229  0.0324  0.2796  0.1185
  286MOL0     C38511  11.338   5.974   0.235 -0.1840  0.3068 -0.1486
  286MOL0     C38512  11.462   6.016   0.146 -0.6593  0.4784 -0.8715
  286MOL0     C38513  11.492   6.163   0.175  0.0481 -0.1826  0.4515
  286MOL0     C38514  11.641   6.200   0.150 -0.6997 -0.3612 -0.0744
  286MOL0     C38515  11.647   6.234   0.003  0.3820  0.1451  1.6435
  286MOL0     C38516  11.788   6.259  -0.054  0.4012 -0.7266 -0.1910
  286MOL0     C38517  11.854   6.385   0.004 -0.1925 -0.0350 -0.0553
  286MOL0     C38518  11.963   6.344   0.104  0.0790  0.1493 -0.4433
  286MOL0    Cl38519  12.045   6.472   0.204 -0.1410 -0.0708 -0.3193
  286MOL0     C38520  11.239   5.621   0.299  0.2522  0.0835  0.0986
  286MOL0     C38521  11.186   5.543   0.394  0.1538  0.2116  0.4790
  286MOL0     O38522  10.857   5.552   0.498 -0.9544 -0.0019  0.3915
  286MOL0     C38523  10.728   5.406   0.690 -0.6199  1.4412 -0.5135
  286MOL0     C38524  10.663   5.342   0.786  0.4623  0.3099 -0.8943
  286MOL0     N38525  10.286   5.239   0.798 -0.0305 -0.0398  0.9580
  286MOL0     N38526  10.185   5.245   0.713 -0.5775  0.3527  0.8931
  286MOL0     C38527   8.842   5.255   0.324 -0.2814 -0.9765  0.1376
  286MOL0     C38528   8.713   5.224   0.354  0.2293  0.3283  0.2552
  286MOL0     C38529   8.365   5.038   0.630 -0.3085  0.3137  0.3316
  286MOL0     C38530   8.317   4.987   0.508  0.5116  0.4020 -0.0697
  286MOL0     C38531   8.206   4.901   0.498  0.1027 -0.7261  0.0080
  286MOL0     C38532   8.141   4.865   0.613  0.2156  0.6699 -0.6412
  286MOL0     O38533   8.035   4.790   0.580  0.1418  0.2001  0.1452
  286MOL0     C38534   7.938   4.766   0.684  0.5077  0.1839 -0.8341
  286MOL0     C38535   7.956   4.627   0.752 -0.2005 -0.6513 -0.0219
  286MOL0     C38536   7.909   4.510   0.669  0.4693  0.4819 -0.5146
  286MOL0     C38537   7.918   4.380   0.746 -0.0291  0.0329  0.0445
  286MOL0     C38538   7.804   4.294   0.741 -0.4173  0.8499  0.4132
  286MOL0     C38539   7.704   4.222   0.754 -0.2175 -0.6761  0.5975
  286MOL0     C38540   8.178   4.923   0.736  0.4104  0.1191 -0.0931
  286MOL0     C38541   8.291   5.004   0.753 -0.6043  0.3569  0.6378
  286MOL0     C38542   8.335   5.051   0.894  0.2200 -0.1622 -0.2540
  286MOL0     H38543   8.778   5.120   0.673  0.4988 -1.5852 -0.9631
  286MOL0     H38544   8.990   5.188   0.626  0.2110  0.6867  0.3222
  286MOL0     H38545   9.145   5.323   0.566  0.2065 -0.6324  0.6086
  286MOL0     H38546   9.191   5.161   0.499 -2.0157 -0.5787 -2.1887
  286MOL0     H38547   9.294   5.422   0.394 -1.9107 -1.7728 -3.2473
  286MOL0     H38548   9.368   5.260   0.363  0.1935  0.6958 -0.8239
  286MOL0     H38549   9.434   5.223   0.575 -1.0516  0.4358 -0.5301
  286MOL0     H38550   9.391   5.381   0.643  0.8108 -1.1620  1.6011
  286MOL0     H38551   9.595   5.358   0.422  0.0627  1.8386 -0.6960
  286MOL0     H38552   9.529   5.502   0.505 -1.1837 -0.1112  3.1308
  286MOL0     H38553   9.621   5.414   0.719 -0.9888  1.1565 -0.1335
  286MOL0     H38554   9.662   5.253   0.638 -1.6105  0.5188 -0.5361
  286MOL0     H38555   9.838   5.376   0.506 -1.8724 -0.9311 -0.5448
  286MOL0     H38556   9.783   5.530   0.566 -0.7381 -0.9006 -1.7675
  286MOL0     H38557   9.857   5.467   0.791  3.2380  0.2350  1.4219
  286MOL0     H38558   9.986   5.470   0.680 -1.3265  0.7902 -2.6035
  286MOL0     H38559   9.875   5.239   0.821 -0.6995  3.7338 -0.0292
  286MOL0     H38560   9.930   5.210   0.656  0.1067  2.0767 -1.5196
  286MOL0     H38561  10.048   5.331   1.003  2.7224  3.2085  0.9472
  286MOL0     H38562  10.267   5.210   1.141  0.6260 -1.1831  0.0630
  286MOL0     H38563  10.403   5.201   1.021 -0.7652 -1.5072 -0.4980
  286MOL0     H38564  10.288   5.476   1.081 -1.7697 -1.4348 -3.3702
  286MOL0     H38565  10.356   5.395   1.223  1.2050  0.4133 -0.7057
  286MOL0     H38566  10.523   5.540   1.104  0.3238 -0.0052 -1.3601
  286MOL0     H38567  10.496   5.454   0.958 -1.6759  0.9118 -0.5249
  286MOL0     H38568  10.564   5.273   1.185 -1.0999 -0.4422 -1.0074
  286MOL0     H38569  10.684   5.403   1.163 -0.5852 -0.4383  0.9141
  286MOL0     H38570  10.880   5.367   1.040  2.4939 -2.6637 -0.4222
  286MOL0     H38571  11.025   5.463   0.845  0.4734 -0.2895 -3.1752
  286MOL0     H38572  11.088   5.786   0.610 -1.7370 -1.5681  0.3317
  286MOL0     H38573  11.194   5.924   0.451 -2.1009 -0.1565 -1.6442
  286MOL0     H38574  11.243   6.015   0.199  0.2347 -0.5655 -2.3805
  286MOL0     H38575  11.359   6.010   0.336  0.7813  0.2213 -0.3113
  286MOL0     H38576  11.547   5.952   0.173 -1.9535 -1.5165 -1.3111
  286MOL0     H38577  11.444   5.990   0.041 -1.8091 -0.0817 -0.5551
  286MOL0     H38578  11.416   6.224   0.125  1.3238  1.3029  0.2533
  286MOL0     H38579  11.479   6.175   0.282  1.8013 -4.6203  1.3956
  286MOL0     H38580  11.698   6.108   0.166  1.4956  1.1371  1.1517
  286MOL0     H38581  11.679   6.283   0.209 -0.8970  0.2964 -0.8556
  286MOL0     H38582  11.588   6.326  -0.004 -0.2562 -0.2728  1.5490
  286MOL0     H38583  11.589   6.157  -0.049  1.5137  0.1756  0.2642
  286MOL0     H38584  11.856   6.173  -0.050  0.2845 -0.8031  0.1632
  286MOL0     H38585  11.777   6.277  -0.162  0.5902  1.8768  0.1855
  286MOL0     H38586  11.780   6.460   0.034 -1.3136 -1.0733 -0.0887
  286MOL0     H38587  11.897   6.441  -0.079  0.3734 -0.8886 -0.3567
  286MOL0     H38588  11.921   6.261   0.163  3.7956 -1.6874 -0.1112
  286MOL0     H38589  12.038   6.288   0.048 -0.8992 -1.1117 -0.5286
  286MOL0     H38590  11.263   5.566   0.208 -0.2877  1.2087 -0.7481
  286MOL0     H38591  11.171   5.436   0.401 -2.0622  0.4534  0.3192
  286MOL0     H38592  10.689   5.411   0.589  0.1028  2.6710 -0.7640
  286MOL0     H38593  10.559   5.315   0.768 -0.8611  1.1568  4.0354
  286MOL0     H38594   8.853   5.313   0.233  1.4004  1.2829  1.6791
  286MOL0     H38595   8.619   5.231   0.300  0.4863  1.3881 -0.0797
  286MOL0     H38596   8.361   5.017   0.413  1.9259  2.4789  1.1712
  286MOL0     H38597   8.168   4.859   0.406 -2.0539 -0.7545  0.8713
  286MOL0     H38598   7.842   4.782   0.634  0.5135  3.8702  0.0555
  286MOL0     H38599   7.947   4.851   0.751  0.7905 -0.2710 -0.2897
  286MOL0     H38600   7.895   4.617   0.842  0.9744  0.5870  0.9580
  286MOL0     H38601   8.060   4.621   0.787  0.7531 -4.5994 -2.8634
  286MOL0     H38602   7.974   4.516   0.582  1.2524  3.1978  0.1601
  286MOL0     H38603   7.810   4.528   0.626 -0.6536 -1.4322  1.0800
  286MOL0     H38604   8.002   4.327   0.700  0.7328  1.2832 -0.0489
  286MOL0     H38605   7.944   4.404   0.849  0.5037 -2.4713  0.5719
  286MOL0     H38606   7.610   4.171   0.760 -1.1140  0.8987  0.4103
  286MOL0     H38607   8.119   4.907   0.825 -3.4880  2.7111 -1.8916
  286MOL0     H38608   8.341   4.967   0.963  2.3193  0.1316 -0.0059
  286MOL0     H38609   8.438   5.087   0.890 -0.3616  1.7612  0.6787
  286MOL0     H38610   8.265   5.128   0.929  0.0821 -0.3783 -0.0564
  287MOL0     O38611   2.992   1.001   8.322  0.1416  0.1612 -0.0402
  287MOL0     C38612   2.910   1.047   8.405  0.3674  0.0659  0.0500
  287MOL0     O38613   2.923   1.056   8.532  0.6194  0.7569 -0.0276
  287MOL0     C38614   3.046   1.026   8.587 -0.2378  0.8030 -0.0550
  287MOL0     C38615   3.061   0.928   8.683 -0.6785  0.6890  0.6668
  287MOL0     C38616   3.189   0.906   8.743  0.0112  0.1069 -0.0012
  287MOL0     C38617   3.293   0.996   8.727 -0.0777  0.8110 -0.8335
  287MOL0     O38618   3.411   0.963   8.797 -0.5869 -0.6598  0.1217
  287MOL0     C38619   3.529   1.049   8.778  0.3552  0.0756  0.1687
  287MOL0     C38620   3.648   0.960   8.814  1.3281  0.5064  0.6349
  287MOL0     C38621   3.788   0.999   8.760  0.5293 -0.2825  0.6754
  287MOL0     C38622   3.856   1.094   8.853 -0.4604  0.3067 -1.1441
  287MOL0     C38623   3.975   1.167   8.793 -0.3002 -0.3552  0.4497
  287MOL0     C38624   4.064   1.245   8.898 -0.3590  0.1276 -0.6113
  287MOL0     C38625   4.181   1.324   8.846  0.8842  0.3737  1.3198
  287MOL0     C38626   4.262   1.248   8.741  0.3862 -0.1321  0.0952
  287MOL0     N38627   4.326   1.131   8.804 -0.3823 -0.0251 -0.3749
  287MOL0     C38628   4.432   1.142   8.895  0.0054  0.4676 -0.3631
  287MOL0     C38629   4.458   1.008   8.920 -1.3501  0.3049 -0.0497
  287MOL0     C38630   4.569   0.950   9.005 -0.7076  0.6447 -0.0659
  287MOL0     C38631   4.660   1.063   9.068 -0.4198 -0.1657 -0.3341
  287MOL0     C38632   4.736   0.998   9.175  0.7179 -0.2428 -0.4131
  287MOL0     C38633   4.785   1.102   9.280 -0.2610 -0.0226  0.3221
  287MOL0     O38634   4.907   1.165   9.236  0.1761 -0.0608 -0.0562
  287MOL0     C38635   4.966   1.253   9.327 -0.1714 -0.5434 -0.3864
  287MOL0     C38636   4.893   1.323   9.423  0.1056 -0.8612  0.3243
  287MOL0     C38637   4.948   1.423   9.501  0.0281 -0.5325 -0.2448
  287MOL0     C38638   5.085   1.460   9.480  0.0380 -0.3609  0.6022
  287MOL0     C38639   5.138   1.572   9.565 -0.5099 -0.0558  1.1124
  287MOL0     O38640   5.054   1.650   9.635  0.7424 -0.4516  0.0625
  287MOL0     C38641   5.095   1.781   9.656  0.4077  0.4808  0.1502
  287MOL0     C38642   5.045   1.851   9.765 -0.0758 -0.1625 -0.6478
  287MOL0     C38643   5.075   1.990   9.778  0.6423  0.1218 -0.5999
  287MOL0     C38644   5.172   2.056   9.701 -0.1427 -0.3476  0.6717
  287MOL0     O38645   5.225   2.179   9.745  0.3978  0.1085 -0.5302
  287MOL0     C38646   5.182   2.281   9.656  0.7405  0.3263 -0.2306
  287MOL0     C38647   5.136   2.403   9.728 -0.4990 -0.7767 -1.1097
  287MOL0     C38648   5.230   2.450   9.850  0.7707  0.2755  0.4020
  287MOL0     C38649   5.371   2.484   9.809 -0.0419  0.1392  0.0381
  287MOL0     C38650   5.442   2.582   9.904  0.1897 -0.5656  0.0307
  287MOL0     C38651   5.362   2.697   9.963 -0.1630  0.1182  0.0600
  287MOL0     C38652   5.455   2.790  10.040 -0.7445 -1.0637  0.1596
  287MOL0     C38653   5.563   2.728  10.123 -0.0988  0.3551 -0.0203
  287MOL0    Cl38654   5.666   2.862  10.206  0.4687  0.5798 -0.2791
  287MOL0     C38655   5.211   1.988   9.590 -0.0245  0.1472 -0.4434
  287MOL0     C38656   5.172   1.853   9.565  0.0882  0.8071  0.4441
  287MOL0     O38657   5.259   1.591   9.540  0.4947 -0.0355  0.3345
  287MOL0     C38658   5.165   1.385   9.395  0.4525 -0.2093 -0.1539
  287MOL0     C38659   5.102   1.293   9.309 -0.5362  0.2660 -0.2245
  287MOL0     N38660   4.374   0.925   8.847 -0.0283 -0.0310 -0.5967
  287MOL0     N38661   4.288   0.999   8.784 -0.7614 -0.3584  0.2757
  287MOL0     C38662   3.274   1.096   8.631 -0.3191 -0.6127  0.9041
  287MOL0     C38663   3.155   1.108   8.558  0.3273 -0.0607  0.4514
  287MOL0     C38664   2.764   1.061   8.364 -0.9352  0.2745  0.4409
  287MOL0     C38665   2.722   1.182   8.343 -0.0561 -1.0859 -0.6837
  287MOL0     C38666   2.588   1.208   8.317 -0.3900 -0.8015  0.2948
  287MOL0     C38667   2.496   1.107   8.290  0.0283 -0.0017 -0.4196
  287MOL0     O38668   2.373   1.143   8.250 -0.0277  0.1690 -0.3894
  287MOL0     C38669   2.259   1.052   8.255 -0.2228  0.2559  0.7218
  287MOL0     C38670   2.121   1.117   8.257 -0.4151 -0.6405  0.3985
  287MOL0     C38671   2.007   1.020   8.284  0.3914  0.0379 -0.1336
  287MOL0     C38672   1.997   0.897   8.191  0.1427 -0.2638 -0.1335
  287MOL0     C38673   1.927   0.929   8.062  0.0334 -0.7293 -0.6809
  287MOL0     C38674   1.857   0.933   7.962 -0.4398  0.3283 -0.5298
  287MOL0     C38675   2.549   0.974   8.296 -0.8226 -0.0862 -0.2448
  287MOL0     C38676   2.677   0.944   8.345 -0.0959 -0.8210  0.8406
  287MOL0     C38677   2.716   0.811   8.377 -0.7569  0.1857  0.3543
  287MOL0     H38678   2.976   0.862   8.697 -0.0518 -0.3108 -0.0860
  287MOL0     H38679   3.202   0.832   8.821 -4.1404  2.9245  3.9035
  287MOL0     H38680   3.539   1.081   8.674 -2.1761 -5.4736 -2.1857
  287MOL0     H38681   3.515   1.136   8.843  0.3747  0.6410 -0.5657
  287MOL0     H38682   3.630   0.862   8.770 -0.3271 -0.0874  2.4546
  287MOL0     H38683   3.647   0.948   8.923 -0.8403 -1.0250  0.5120
  287MOL0     H38684   3.775   1.051   8.664  0.1433  0.2775  1.0251
  287MOL0     H38685   3.851   0.918   8.724 -0.6135 -2.5830  3.5083
  287MOL0     H38686   3.787   1.160   8.906  2.6153  1.9418  1.1504
  287MOL0     H38687   3.900   1.033   8.933  1.3102  0.0538 -2.2408
  287MOL0     H38688   4.041   1.086   8.761  0.2543 -0.4101  1.6544
  287MOL0     H38689   3.940   1.231   8.711  2.1438 -0.1322 -0.5163
  287MOL0     H38690   4.000   1.315   8.953 -0.8346 -0.0784 -0.8902
  287MOL0     H38691   4.107   1.173   8.967  2.0372  0.4701 -1.6298
  287MOL0     H38692   4.243   1.357   8.930  1.8532 -1.0223  1.1848
  287MOL0     H38693   4.148   1.421   8.808  0.2328  0.8294  2.9752
  287MOL0     H38694   4.193   1.202   8.669 -1.2386 -0.7154  1.9509
  287MOL0     H38695   4.326   1.316   8.684 -2.0408  1.7613 -0.5266
  287MOL0     H38696   4.477   1.235   8.928  1.8923 -1.2315  2.2838
  287MOL0     H38697   4.532   0.886   9.085  2.0606  1.2538  1.8070
  287MOL0     H38698   4.638   0.891   8.944  0.8190  0.5790  1.6703
  287MOL0     H38699   4.724   1.111   8.994 -0.9051  0.2130 -0.5178
  287MOL0     H38700   4.598   1.139   9.118  1.4810 -0.3562  2.5367
  287MOL0     H38701   4.824   0.943   9.140  1.0750 -0.6762  1.1133
  287MOL0     H38702   4.675   0.929   9.234 -0.0773  0.5526 -0.2851
  287MOL0     H38703   4.801   1.049   9.375 -0.9682 -0.1118  0.3934
  287MOL0     H38704   4.699   1.169   9.284  0.6583  1.1715  0.5098
  287MOL0     H38705   4.787   1.305   9.435 -0.2036  0.2733 -0.5462
  287MOL0     H38706   4.893   1.471   9.581 -1.1506 -1.5093 -0.4401
  287MOL0     H38707   4.969   1.823   9.837  1.0095  2.6432  1.8026
  287MOL0     H38708   5.016   2.044   9.851  0.0695  0.1015 -1.0419
  287MOL0     H38709   5.266   2.303   9.590  1.2542 -4.1009 -1.3742
  287MOL0     H38710   5.104   2.244   9.589 -0.3595 -2.4499  2.3339
  287MOL0     H38711   5.123   2.491   9.663  1.7226  0.5258  0.0646
  287MOL0     H38712   5.041   2.370   9.770  0.2252 -1.2601  0.1617
  287MOL0     H38713   5.180   2.541   9.885 -0.5419 -0.5010  0.6051
  287MOL0     H38714   5.244   2.373   9.926  1.1724  1.2184  1.3024
  287MOL0     H38715   5.367   2.519   9.705  2.9513 -1.0886 -0.5971
  287MOL0     H38716   5.411   2.382   9.812 -0.3679  0.0244  0.5075
  287MOL0     H38717   5.519   2.630   9.843  0.2092 -0.1706  0.3635
  287MOL0     H38718   5.491   2.518   9.978  2.0165 -0.6292 -1.1706
  287MOL0     H38719   5.314   2.757   9.885 -2.7060 -0.4162  1.0967
  287MOL0     H38720   5.286   2.664  10.035  0.3382 -0.7589  0.2011
  287MOL0     H38721   5.390   2.839  10.113 -3.8195 -2.4377 -1.4708
  287MOL0     H38722   5.493   2.865   9.970 -1.7776 -1.6980 -1.1358
  287MOL0     H38723   5.515   2.672  10.203  0.7991  0.5620  0.6901
  287MOL0     H38724   5.628   2.666  10.061 -0.0625  0.0025  0.3678
  287MOL0     H38725   5.280   2.031   9.519  4.8924 -1.0972  3.0309
  287MOL0     H38726   5.198   1.801   9.474 -2.3350 -0.3631  0.3446
  287MOL0     H38727   5.270   1.400   9.375  0.9433 -3.9430 -1.2212
  287MOL0     H38728   5.161   1.251   9.228 -2.7506 -1.0622 -1.2616
  287MOL0     H38729   3.346   1.176   8.614  1.5337 -2.0731  1.4716
  287MOL0     H38730   3.135   1.196   8.498 -3.4418 -2.2141 -1.7905
  287MOL0     H38731   2.785   1.263   8.377 -0.6992 -0.1315 -1.6870
  287MOL0     H38732   2.540   1.305   8.329  0.6740 -0.4200  1.8104
  287MOL0     H38733   2.280   0.993   8.345  3.4897 -0.7762 -0.6602
  287MOL0     H38734   2.263   0.990   8.165 -3.3121  1.2732 -0.2615
  287MOL0     H38735   2.109   1.165   8.159 -1.5065 -1.8353 -0.1018
  287MOL0     H38736   2.115   1.196   8.332  0.1444 -0.1199 -0.0933
  287MOL0     H38737   1.909   1.069   8.284 -0.7241 -1.4095 -5.9387
  287MOL0     H38738   2.029   0.986   8.386  0.8675  3.7525  1.1694
  287MOL0     H38739   2.091   0.847   8.166 -0.0170  0.2790 -1.9982
  287MOL0     H38740   1.932   0.819   8.232 -1.0394  0.1776 -1.1129
  287MOL0     H38741   1.788   0.962   7.885 -0.8951  0.2943 -0.1399
  287MOL0     H38742   2.472   0.899   8.282 -0.5278 -0.6216  0.8488
  287MOL0     H38743   2.649   0.726   8.358 -0.4311 -0.2848  1.2754
  287MOL0     H38744   2.818   0.790   8.344  1.0144 -0.3535  5.3328
  287MOL0     H38745   2.720   0.826   8.485 -0.2509  0.6444  0.2741
  288MOL0     O38746   6.072   0.310   4.345  0.5573 -0.5041 -0.5049
  288MOL0     C38747   5.948   0.296   4.364  0.4625  0.8218 -0.3303
  288MOL0     O38748   5.897   0.314   4.488 -0.2468  0.5948 -0.1617
  288MOL0     C38749   5.807   0.229   4.548 -0.9292  0.0272 -0.2049
  288MOL0     C38750   5.805   0.095   4.519  0.0736  0.4458 -0.5591
  288MOL0     C38751   5.722   0.011   4.600 -0.2645  0.4327 -0.2538
  288MOL0     C38752   5.630   0.062   4.688 -0.0720 -0.6046  0.0359
  288MOL0     O38753   5.553  -0.033   4.755  0.4863  0.6783  0.1949
  288MOL0     C38754   5.487   0.014   4.873  0.3069 -0.5157 -0.3569
  288MOL0     C38755   5.398  -0.103   4.919 -0.1394 -1.3298  0.4942
  288MOL0     C38756   5.304  -0.153   4.807  0.2777 -0.0049  0.8009
  288MOL0     C38757   5.201  -0.258   4.862  0.3280 -0.3966 -0.5116
  288MOL0     C38758   5.276  -0.391   4.882 -0.0439 -0.1020 -0.6418
  288MOL0     C38759   5.190  -0.500   4.946  0.4159 -0.5748  0.3713
  288MOL0     C38760   5.162  -0.482   5.091  0.1153 -0.5452 -0.3200
  288MOL0     C38761   5.121  -0.622   5.162 -0.5795 -0.4668 -0.0763
  288MOL0     N38762   5.090  -0.592   5.307 -0.6862  0.6045 -0.6742
  288MOL0     C38763   5.040  -0.678   5.397  0.6276 -0.4098 -0.4892
  288MOL0     C38764   4.999  -0.608   5.505  0.8530  0.0668 -0.0702
  288MOL0     C38765   4.928  -0.671   5.629 -0.5620  0.2817  0.0073
  288MOL0     C38766   4.782  -0.659   5.616  0.3417 -0.9862 -0.3315
  288MOL0     C38767   4.753  -0.516   5.653  0.3905  0.6542 -0.4865
  288MOL0     C38768   4.612  -0.472   5.608  0.4619 -0.2594  0.1250
  288MOL0     O38769   4.526  -0.575   5.644 -0.4261  0.6705 -0.4348
  288MOL0     C38770   4.393  -0.567   5.595 -0.1966 -0.1256 -0.2667
  288MOL0     C38771   4.338  -0.465   5.504 -0.1906  0.6441 -0.0773
  288MOL0     C38772   4.198  -0.478   5.467 -0.0564 -0.1128  0.5821
  288MOL0     C38773   4.116  -0.573   5.526 -0.4386 -0.1009 -0.3249
  288MOL0     C38774   3.984  -0.604   5.472 -0.2106 -0.3948  0.0138
  288MOL0     O38775   3.919  -0.710   5.536 -0.0684 -0.4258  0.4879
  288MOL0     C38776   3.798  -0.759   5.504  0.2843 -0.8270  0.3735
  288MOL0     C38777   3.787  -0.887   5.540  0.7572 -0.7902  0.5548
  288MOL0     C38778   3.667  -0.958   5.496  0.0865 -0.3271  0.0307
  288MOL0     C38779   3.561  -0.892   5.429 -0.4963 -0.9225 -0.5305
  288MOL0     O38780   3.442  -0.960   5.406 -0.4359 -0.1235 -0.0484
  288MOL0     C38781   3.438  -1.111   5.392 -0.5797 -0.7351  1.0963
  288MOL0     C38782   3.292  -1.159   5.382  0.6132 -1.0407  0.0375
  288MOL0     C38783   3.287  -1.293   5.312  0.2129  0.1760 -0.5431
  288MOL0     C38784   3.177  -1.379   5.385 -0.4953 -0.4136  0.3620
  288MOL0     C38785   3.153  -1.515   5.315 -0.1709 -0.0661 -0.4708
  288MOL0     C38786   3.067  -1.622   5.389 -0.5380 -0.6875  0.3022
  288MOL0     C38787   3.047  -1.738   5.292  0.1986  0.6269 -0.1923
  288MOL0     C38788   2.973  -1.849   5.364  0.9434 -0.5090 -1.4482
  288MOL0    Cl38789   2.959  -1.984   5.259 -0.3674 -0.2115 -0.4344
  288MOL0     C38790   3.587  -0.763   5.393  0.0264  0.3664  0.0257
  288MOL0     C38791   3.706  -0.699   5.420  0.4353 -0.8571 -0.6037
  288MOL0     O38792   3.932  -0.527   5.399  0.4238 -0.4660 -0.1811
  288MOL0     C38793   4.175  -0.654   5.626 -0.0109  0.7136  0.2026
  288MOL0     C38794   4.311  -0.659   5.651 -0.1851 -0.3761 -0.2869
  288MOL0     N38795   5.031  -0.476   5.488 -0.5035 -0.4498  0.1562
  288MOL0     N38796   5.085  -0.466   5.365  0.8334 -0.7853  0.3009
  288MOL0     C38797   5.627   0.200   4.706  0.4757 -0.4075  0.1321
  288MOL0     C38798   5.716   0.280   4.639  0.0885 -0.6990 -0.6106
  288MOL0     C38799   5.843   0.291   4.247  0.4443 -0.1683  0.7365
  288MOL0     C38800   5.722   0.357   4.257  0.4972 -0.6747  0.0925
  288MOL0     C38801   5.627   0.348   4.151 -0.0412 -0.3546 -0.0152
  288MOL0     C38802   5.656   0.270   4.036 -0.3520 -0.4856 -0.5074
  288MOL0     O38803   5.572   0.240   3.931  0.3826 -0.3143 -0.2771
  288MOL0     C38804   5.452   0.321   3.902 -0.0425 -0.6176  0.5380
  288MOL0     C38805   5.326   0.283   3.974  0.6312 -0.7359  0.9242
  288MOL0     C38806   5.294   0.140   3.955  0.2553 -0.1084  0.5563
  288MOL0     C38807   5.156   0.076   3.984  0.0998 -0.8878  0.8066
  288MOL0     C38808   5.172  -0.067   4.007 -0.1937  0.4260 -0.0563
  288MOL0     C38809   5.189  -0.190   4.038 -0.0451 -0.5677  0.5207
  288MOL0     C38810   5.784   0.213   4.032 -0.4278 -0.3359  0.0257
  288MOL0     C38811   5.878   0.226   4.134  0.5245  0.0202  0.7248
  288MOL0     C38812   6.002   0.141   4.111 -0.7299  0.7097 -0.2514
  288MOL0     H38813   5.873   0.052   4.447  1.1740  3.5970 -1.5641
  288MOL0     H38814   5.720  -0.096   4.587  1.3290  0.6320 -2.6240
  288MOL0     H38815   5.561   0.034   4.951 -1.3705 -1.8468  1.6822
  288MOL0     H38816   5.419   0.093   4.842 -1.9455 -2.1818  0.0431
  288MOL0     H38817   5.330  -0.058   4.992 -0.6965 -0.4603 -0.5327
  288MOL0     H38818   5.454  -0.183   4.969 -0.2368 -2.9329 -1.7855
  288MOL0     H38819   5.348  -0.210   4.725 -0.0174 -1.9874  1.9465
  288MOL0     H38820   5.253  -0.068   4.761 -2.1522 -0.3373  2.6825
  288MOL0     H38821   5.159  -0.223   4.957  1.7051 -0.1448  0.0298
  288MOL0     H38822   5.121  -0.286   4.794  0.4602 -0.3001 -0.7066
  288MOL0     H38823   5.321  -0.423   4.788  0.2583 -1.2972 -0.1149
  288MOL0     H38824   5.361  -0.388   4.951  1.4681 -1.3508 -2.3826
  288MOL0     H38825   5.094  -0.502   4.894 -0.1452  3.2046  0.9966
  288MOL0     H38826   5.244  -0.593   4.923 -0.0678 -0.3566 -1.8245
  288MOL0     H38827   5.074  -0.418   5.092 -0.4303 -1.2817 -0.4121
  288MOL0     H38828   5.245  -0.446   5.152 -0.3658 -0.3850  0.2497
  288MOL0     H38829   5.038  -0.670   5.111 -0.2952 -0.7206 -0.3077
  288MOL0     H38830   5.208  -0.689   5.161 -1.5536 -1.7651 -0.4499
  288MOL0     H38831   5.032  -0.786   5.386 -2.9897 -0.5010  1.6442
  288MOL0     H38832   4.955  -0.777   5.633 -1.7088  0.0001  3.6967
  288MOL0     H38833   4.954  -0.619   5.721 -0.2997  1.7658 -0.8729
  288MOL0     H38834   4.756  -0.687   5.513 -1.8827 -1.5725  0.3293
  288MOL0     H38835   4.725  -0.733   5.673 -1.8267  0.1297 -0.8974
  288MOL0     H38836   4.820  -0.442   5.609 -0.1254  0.9873 -0.7222
  288MOL0     H38837   4.762  -0.512   5.762  1.6263  0.2690 -0.5567
  288MOL0     H38838   4.600  -0.469   5.499  2.2173  1.4011 -0.0615
  288MOL0     H38839   4.577  -0.376   5.645  1.9133  0.0057  0.8381
  288MOL0     H38840   4.394  -0.388   5.452 -0.6818 -0.0805 -1.7668
  288MOL0     H38841   4.150  -0.420   5.389  0.8223 -2.3326 -1.7294
  288MOL0     H38842   3.867  -0.942   5.587  1.0085 -2.0297 -1.2522
  288MOL0     H38843   3.668  -1.064   5.521  1.6766  0.6145  5.2760
  288MOL0     H38844   3.492  -1.139   5.301 -3.1484 -0.3264 -0.6538
  288MOL0     H38845   3.479  -1.170   5.475  1.8934 -3.1850 -1.6581
  288MOL0     H38846   3.243  -1.163   5.480  0.3350 -0.6536 -0.0811
  288MOL0     H38847   3.240  -1.090   5.315 -0.0410 -1.2353  0.3301
  288MOL0     H38848   3.281  -1.282   5.204 -0.7364  1.4480 -0.3783
  288MOL0     H38849   3.381  -1.346   5.334  0.2370  0.7932  1.0201
  288MOL0     H38850   3.083  -1.322   5.384  1.9397  4.1589  1.1599
  288MOL0     H38851   3.192  -1.399   5.492 -2.3286  0.0536  0.7529
  288MOL0     H38852   3.252  -1.559   5.300  0.2090  0.2242  1.0553
  288MOL0     H38853   3.114  -1.485   5.217 -0.1901  0.9857 -0.1577
  288MOL0     H38854   3.111  -1.645   5.486 -2.4877  0.5824  1.5501
  288MOL0     H38855   2.976  -1.565   5.410  0.6972  1.4500  0.1728
  288MOL0     H38856   3.146  -1.780   5.268 -1.0025 -2.2881 -0.4996
  288MOL0     H38857   2.987  -1.718   5.204 -1.1325  1.6048  0.9041
  288MOL0     H38858   3.024  -1.877   5.457  1.0304  1.7621 -0.7381
  288MOL0     H38859   2.870  -1.819   5.387  0.8321 -0.9068 -1.4297
  288MOL0     H38860   3.508  -0.713   5.337  0.1722  0.9362  0.3118
  288MOL0     H38861   3.698  -0.600   5.377 -1.3265 -0.9328 -0.5298
  288MOL0     H38862   4.125  -0.722   5.694  1.1875  0.6547  1.0509
  288MOL0     H38863   4.352  -0.731   5.721  2.7282 -0.1292 -1.6053
  288MOL0     H38864   5.559   0.246   4.777  0.0663  1.6335 -1.4942
  288MOL0     H38865   5.727   0.388   4.649  0.1007 -0.9263  3.0179
  288MOL0     H38866   5.681   0.415   4.339  0.0301  1.8807 -1.8094
  288MOL0     H38867   5.528   0.392   4.159 -0.3804 -0.9711 -0.7104
  288MOL0     H38868   5.443   0.312   3.793 -2.9215  1.0853  0.5548
  288MOL0     H38869   5.487   0.421   3.925  0.6446 -0.6814 -0.1586
  288MOL0     H38870   5.245   0.347   3.939  1.5021  2.2697  3.8769
  288MOL0     H38871   5.330   0.301   4.082  1.5885 -0.8488  0.9233
  288MOL0     H38872   5.361   0.091   4.026 -0.6055 -3.9071 -1.0072
  288MOL0     H38873   5.319   0.116   3.851 -0.6427  0.8924  0.0823
  288MOL0     H38874   5.120   0.128   4.073 -1.7431  0.8976 -0.8827
  288MOL0     H38875   5.082   0.087   3.904  1.3144  0.9865 -0.1434
  288MOL0     H38876   5.212  -0.288   4.074  1.5949 -0.2045  0.5683
  288MOL0     H38877   5.811   0.151   3.947 -1.7627  0.3078 -0.9000
  288MOL0     H38878   5.981   0.058   4.043  0.6996  1.5405 -1.7823
  288MOL0     H38879   6.080   0.200   4.061  1.2759 -1.1212  0.5839
  288MOL0     H38880   6.042   0.097   4.202 -0.1566  2.0819  0.1744
  289MOL0     O38881   3.270   7.943   4.020 -0.2850 -0.0108  1.1271
  289MOL0     C38882   3.160   7.958   3.964 -1.2679  0.0595 -0.5935
  289MOL0     O38883   3.078   7.860   3.923 -0.0422 -0.5889 -0.4217
  289MOL0     C38884   3.137   7.739   3.945 -0.4173  0.2896  0.6632
  289MOL0     C38885   3.181   7.660   3.832 -0.0865  0.7789  1.2467
  289MOL0     C38886   3.244   7.537   3.858 -0.5440  0.0024  0.3844
  289MOL0     C38887   3.264   7.494   3.992 -0.3423  0.3362 -0.4394
  289MOL0     O38888   3.333   7.376   4.022  0.2376 -0.1175  0.3520
  289MOL0     C38889   3.392   7.302   3.920  0.2922 -0.5893  0.0109
  289MOL0     C38890   3.451   7.191   4.000 -0.6107  0.7817 -0.1882
  289MOL0     C38891   3.527   7.094   3.912  0.9579  0.7929  0.3516
  289MOL0     C38892   3.625   7.010   3.991  1.1307 -0.3128 -0.5534
  289MOL0     C38893   3.695   6.905   3.900 -0.4195  0.0946  0.4929
  289MOL0     C38894   3.800   6.971   3.803 -0.0026 -0.3387 -0.2806
  289MOL0     C38895   3.896   6.870   3.730  0.0804  0.0528  0.2740
  289MOL0     C38896   3.966   6.952   3.631 -0.7487  0.8605 -0.0465
  289MOL0     N38897   4.069   6.869   3.560 -0.2669 -0.5201  0.0498
  289MOL0     C38898   4.189   6.819   3.606 -0.1602 -0.1165  0.6014
  289MOL0     C38899   4.253   6.765   3.497 -0.0138 -0.0310 -0.5698
  289MOL0     C38900   4.395   6.716   3.488  0.4389  0.3531  0.3627
  289MOL0     C38901   4.441   6.645   3.611  0.0082  0.1630 -1.0481
  289MOL0     C38902   4.574   6.561   3.589  1.2365 -0.3256 -0.2062
  289MOL0     C38903   4.693   6.637   3.527 -0.0882  0.5459  0.2142
  289MOL0     O38904   4.727   6.745   3.604  0.6011  0.0177  0.0120
  289MOL0     C38905   4.852   6.797   3.587 -0.3117  0.8161 -0.3754
  289MOL0     C38906   4.862   6.933   3.630 -0.1357  0.6005 -0.1685
  289MOL0     C38907   4.990   6.994   3.649 -0.2022 -0.3855  1.2714
  289MOL0     C38908   5.102   6.934   3.605 -0.1480  0.4686  0.7120
  289MOL0     C38909   5.230   6.999   3.610  0.4475 -0.2031  0.8166
  289MOL0     O38910   5.233   7.133   3.644  0.5310 -0.1462 -0.1285
  289MOL0     C38911   5.349   7.207   3.645  0.5657 -0.1577 -0.5839
  289MOL0     C38912   5.381   7.288   3.759 -0.5880  0.9436  0.2931
  289MOL0     C38913   5.488   7.377   3.753  0.1243 -0.0698  0.5252
  289MOL0     C38914   5.570   7.383   3.637  0.8794  0.5380  0.1520
  289MOL0     O38915   5.677   7.472   3.614  0.2406  0.2508  0.2869
  289MOL0     C38916   5.724   7.549   3.726 -0.2403 -0.4823  0.5253
  289MOL0     C38917   5.808   7.467   3.826  0.4441 -0.6909 -0.5810
  289MOL0     C38918   5.943   7.439   3.764 -0.5336 -0.6452  0.7512
  289MOL0     C38919   6.029   7.364   3.862 -0.3220  0.0732  0.4006
  289MOL0     C38920   6.165   7.333   3.793  0.1535  0.4746 -0.0086
  289MOL0     C38921   6.269   7.340   3.898  0.0448  0.9536  1.1576
  289MOL0     C38922   6.414   7.312   3.844  0.3100 -0.0689 -0.2336
  289MOL0     C38923   6.499   7.249   3.952  0.1010 -0.7376 -0.1827
  289MOL0    Cl38924   6.496   7.361   4.095 -0.3977  0.1161 -0.3117
  289MOL0     C38925   5.531   7.316   3.521  0.5411 -0.2735  0.4725
  289MOL0     C38926   5.435   7.221   3.529  0.2864  0.4589  0.0993
  289MOL0     O38927   5.325   6.929   3.577  0.0127 -0.2956  0.7347
  289MOL0     C38928   5.091   6.805   3.551  0.3454  0.3982  0.0781
  289MOL0     C38929   4.968   6.732   3.540 -0.5303 -0.0639  0.0890
  289MOL0     N38930   4.175   6.809   3.389 -0.1585  0.5298  0.6515
  289MOL0     N38931   4.064   6.855   3.427  0.4347  0.3015  0.5174
  289MOL0     C38932   3.217   7.580   4.096 -0.9721 -0.0448 -0.2101
  289MOL0     C38933   3.159   7.695   4.073 -0.1130 -0.2501 -0.0867
  289MOL0     C38934   3.103   8.102   3.972  0.9621  0.0657 -0.7732
  289MOL0     C38935   3.196   8.198   4.018  0.6972  0.3708  0.2546
  289MOL0     C38936   3.154   8.331   4.036  1.0739  0.1680 -0.1074
  289MOL0     C38937   3.018   8.367   4.018  0.0612 -0.7477 -0.9186
  289MOL0     O38938   2.978   8.503   4.025  0.0647 -0.0943  0.0674
  289MOL0     C38939   2.843   8.555   4.039 -0.9458  0.3964  0.1338
  289MOL0     C38940   2.847   8.692   4.110  0.1123  0.6280  0.0216
  289MOL0     C38941   2.952   8.779   4.043  0.1768 -0.6107 -0.5218
  289MOL0     C38942   2.941   8.920   4.085 -0.0145  0.2892  0.0182
  289MOL0     C38943   2.973   8.936   4.220 -0.0504  0.2639 -0.2648
  289MOL0     C38944   3.000   8.943   4.337 -0.1901  0.0269  0.2417
  289MOL0     C38945   2.923   8.269   3.975 -0.2564  0.0666  0.1490
  289MOL0     C38946   2.968   8.139   3.955  0.3506  0.2265  0.9541
  289MOL0     C38947   2.861   8.044   3.896 -0.4441 -0.5697  0.4773
  289MOL0     H38948   3.162   7.693   3.731 -0.6997 -2.1821  0.2955
  289MOL0     H38949   3.265   7.479   3.769 -1.2813  1.8425 -1.0385
  289MOL0     H38950   3.316   7.247   3.863 -0.2801  0.0902  0.1100
  289MOL0     H38951   3.470   7.354   3.865  1.3169 -1.0572  0.9845
  289MOL0     H38952   3.381   7.137   4.063  1.4309 -2.4240 -0.4175
  289MOL0     H38953   3.521   7.247   4.063 -0.4505 -0.7355  1.0241
  289MOL0     H38954   3.576   7.146   3.829  0.8003 -0.5566 -0.6248
  289MOL0     H38955   3.444   7.037   3.869 -0.2278  0.5993  2.7402
  289MOL0     H38956   3.698   7.070   4.046 -0.9885  1.0645  0.8969
  289MOL0     H38957   3.564   6.962   4.067 -1.3594  2.1294 -0.8266
  289MOL0     H38958   3.759   6.854   3.973  0.1569 -0.9685 -0.7112
  289MOL0     H38959   3.624   6.841   3.847 -1.7312  2.3027 -0.5397
  289MOL0     H38960   3.747   7.038   3.735 -1.0825  2.3595  2.9336
  289MOL0     H38961   3.861   7.041   3.860 -1.9637  0.3739  1.0392
  289MOL0     H38962   3.841   6.787   3.685 -0.5309  1.7855 -2.3665
  289MOL0     H38963   3.964   6.820   3.801  1.4570 -0.7262 -1.5150
  289MOL0     H38964   3.884   6.982   3.566 -0.4148 -1.7674 -1.8382
  289MOL0     H38965   4.020   7.037   3.673 -0.4438  0.4473  0.4166
  289MOL0     H38966   4.230   6.811   3.706 -0.2449  0.2177  0.6633
  289MOL0     H38967   4.418   6.647   3.406  1.2187  1.1827 -0.1362
  289MOL0     H38968   4.447   6.811   3.477  1.7901 -0.6059 -2.3571
  289MOL0     H38969   4.470   6.717   3.687  0.7895 -0.0379 -1.1483
  289MOL0     H38970   4.374   6.563   3.638  1.9293 -1.6993 -1.6345
  289MOL0     H38971   4.557   6.471   3.530  1.4050 -0.5941  0.1530
  289MOL0     H38972   4.599   6.519   3.687  3.4397  0.6510 -0.2816
  289MOL0     H38973   4.654   6.681   3.434 -1.0638  0.7888  0.7244
  289MOL0     H38974   4.770   6.572   3.486 -3.6659 -4.1269  0.0440
  289MOL0     H38975   4.769   6.984   3.655 -1.4526 -1.3391 -0.8512
  289MOL0     H38976   4.990   7.089   3.702 -0.4243  0.6503 -0.4849
  289MOL0     H38977   5.314   7.280   3.844  0.3153  1.9920  1.1360
  289MOL0     H38978   5.497   7.441   3.840 -1.8280  2.8300 -1.2376
  289MOL0     H38979   5.776   7.637   3.689 -2.0257  0.5584  0.3810
  289MOL0     H38980   5.641   7.589   3.786  0.0574  1.3980 -0.2570
  289MOL0     H38981   5.826   7.533   3.911 -3.4246 -0.1241 -0.0573
  289MOL0     H38982   5.752   7.381   3.863 -0.6021  0.1268 -0.2234
  289MOL0     H38983   5.921   7.385   3.671 -1.7331  3.1765 -1.4139
  289MOL0     H38984   5.987   7.538   3.751  1.1611 -1.4574 -0.0542
  289MOL0     H38985   5.979   7.271   3.891 -0.4297 -0.3474 -1.0604
  289MOL0     H38986   6.045   7.428   3.949 -0.3438  1.3421 -0.5040
  289MOL0     H38987   6.192   7.402   3.713  1.0222  1.6371  1.2440
  289MOL0     H38988   6.159   7.239   3.737  2.1584 -1.2003  2.3841
  289MOL0     H38989   6.269   7.441   3.939 -2.8695  1.8720 -0.7961
  289MOL0     H38990   6.239   7.276   3.982 -0.6085  0.3762  0.4917
  289MOL0     H38991   6.462   7.407   3.816  0.5762  0.0454  0.5921
  289MOL0     H38992   6.414   7.235   3.766 -3.3364 -0.0187 -0.4143
  289MOL0     H38993   6.460   7.152   3.983  0.6149 -1.0938 -0.6331
  289MOL0     H38994   6.600   7.228   3.917 -0.1399 -2.9686  0.3517
  289MOL0     H38995   5.586   7.326   3.428  0.1245  2.2948  0.4338
  289MOL0     H38996   5.404   7.166   3.441  0.6107 -0.4887  0.5608
  289MOL0     H38997   5.170   6.746   3.505 -0.4335 -0.5734 -0.0462
  289MOL0     H38998   4.962   6.625   3.524  0.5852 -0.5663  2.5075
  289MOL0     H38999   3.245   7.548   4.196  0.9109  1.8183 -0.0841
  289MOL0     H39000   3.138   7.759   4.158  1.0913 -0.6083  0.5024
  289MOL0     H39001   3.297   8.165   4.041  0.3659 -0.1729  0.9498
  289MOL0     H39002   3.219   8.410   4.071 -0.9153  0.9479  2.0843
  289MOL0     H39003   2.787   8.487   4.104  1.3423 -1.0366  0.7009
  289MOL0     H39004   2.786   8.561   3.946 -2.5802  1.3870  1.1449
  289MOL0     H39005   2.892   8.672   4.207 -1.2118  0.3347  0.5910
  289MOL0     H39006   2.746   8.732   4.121  0.3380  2.0559 -2.1908
  289MOL0     H39007   2.944   8.785   3.934  0.3799  2.7349 -0.4419
  289MOL0     H39008   3.049   8.741   4.078  0.0944  1.6864  2.5325
  289MOL0     H39009   3.008   8.976   4.019 -3.1946  1.6478 -2.2983
  289MOL0     H39010   2.835   8.939   4.064 -0.7806 -3.2731 -0.0489
  289MOL0     H39011   3.018   8.941   4.443 -2.2809  1.1628  0.6700
  289MOL0     H39012   2.835   8.312   3.928  0.6620  0.6096 -1.1448
  289MOL0     H39013   2.842   7.964   3.968 -0.4076 -1.0022  0.0111
  289MOL0     H39014   2.766   8.095   3.884 -0.0861 -0.0586 -0.2730
  289MOL0     H39015   2.897   8.005   3.800 -0.6983 -2.3716  1.0747
  290MOL0     O39016   5.099   6.057   9.022  0.1889 -0.4805  0.4072
  290MOL0     C39017   5.088   6.081   8.898  0.0804  0.8133  0.7721
  290MOL0     O39018   5.180   6.041   8.805  0.0240  0.5940  0.4736
  290MOL0     C39019   5.291   5.974   8.863 -0.1146  0.3970 -0.0955
  290MOL0     C39020   5.296   5.836   8.903 -0.8162 -0.3413 -0.5044
  290MOL0     C39021   5.406   5.774   8.956 -1.2626  0.6685  0.4278
  290MOL0     C39022   5.518   5.857   8.968 -0.5471  0.0360 -0.7735
  290MOL0     O39023   5.645   5.801   8.996  0.7124  0.5154 -0.0941
  290MOL0     C39024   5.676   5.685   8.906 -0.9448 -0.4657 -0.2849
  290MOL0     C39025   5.719   5.719   8.763 -0.5399 -0.8526 -0.2779
  290MOL0     C39026   5.857   5.776   8.746  0.3298  0.5648  0.0780
  290MOL0     C39027   5.875   5.845   8.605  0.1585  0.0823 -0.2515
  290MOL0     C39028   6.022   5.895   8.594  0.3659  0.7190  0.3655
  290MOL0     C39029   6.055   5.957   8.462 -0.0007 -0.0907  0.7956
  290MOL0     C39030   6.194   6.025   8.450 -0.0812  0.6639 -0.1709
  290MOL0     C39031   6.303   5.928   8.502 -0.7187 -0.4414  0.3055
  290MOL0     N39032   6.435   5.994   8.483 -0.4293  0.4887  0.5881
  290MOL0     C39033   6.508   5.980   8.363 -0.6795 -0.3608  0.8824
  290MOL0     C39034   6.613   6.075   8.386  0.3093  0.3660 -0.0235
  290MOL0     C39035   6.736   6.103   8.306  0.8963 -0.0925 -0.7295
  290MOL0     C39036   6.861   6.070   8.382 -0.4642 -0.0713 -0.1285
  290MOL0     C39037   6.900   5.920   8.393 -0.5818 -0.2211 -0.9603
  290MOL0     C39038   6.887   5.842   8.269 -0.8657 -1.5707  0.1647
  290MOL0     O39039   6.976   5.888   8.159  0.7389  1.2423  0.2276
  290MOL0     C39040   7.106   5.905   8.182 -0.0143  0.4880 -0.2367
  290MOL0     C39041   7.180   5.813   8.260 -0.8636  0.6900  0.3452
  290MOL0     C39042   7.315   5.841   8.284  0.2613  0.1183 -0.4298
  290MOL0     C39043   7.385   5.945   8.215 -0.6391  0.8805 -0.4262
  290MOL0     C39044   7.524   5.963   8.255 -1.0637  0.7067  0.1721
  290MOL0     O39045   7.590   5.871   8.342  0.2691 -0.2119 -0.6209
  290MOL0     C39046   7.719   5.903   8.369 -0.2682  0.1446  0.5051
  290MOL0     C39047   7.754   6.016   8.443  0.2259  0.6059 -0.2156
  290MOL0     C39048   7.889   6.039   8.476 -0.3730 -0.2063  0.4308
  290MOL0     C39049   7.992   5.956   8.428  0.5889  0.7019 -0.1959
  290MOL0     O39050   8.128   6.001   8.452  0.1627 -0.0049  0.1988
  290MOL0     C39051   8.235   5.901   8.424 -0.8428 -0.8181 -0.7241
  290MOL0     C39052   8.346   5.928   8.529  0.5227 -0.2315  0.7410
  290MOL0     C39053   8.469   5.835   8.506  0.2379 -0.1662 -0.2791
  290MOL0     C39054   8.521   5.849   8.363 -0.1286 -0.0640  0.1790
  290MOL0     C39055   8.660   5.793   8.341  0.2691 -0.4366  0.4580
  290MOL0     C39056   8.687   5.740   8.200 -0.2468 -0.0301  0.6579
  290MOL0     C39057   8.828   5.680   8.176 -0.0794  0.7269 -0.8563
  290MOL0     C39058   8.939   5.764   8.253 -0.0042 -0.2703  0.5353
  290MOL0    Cl39059   9.095   5.684   8.225  0.1122 -0.0600 -0.2699
  290MOL0     C39060   7.957   5.848   8.344  0.1430 -0.3468 -0.1299
  290MOL0     C39061   7.817   5.822   8.313  0.1878 -0.1572 -0.3186
  290MOL0     O39062   7.576   6.068   8.223 -0.4001  0.0820 -0.3713
  290MOL0     C39063   7.316   6.022   8.122 -0.0242 -0.3593  0.4988
  290MOL0     C39064   7.178   5.999   8.101 -1.6091  0.0272  0.3108
  290MOL0     N39065   6.594   6.123   8.511 -0.2550  0.1977 -0.0349
  290MOL0     N39066   6.485   6.099   8.561  0.1677  0.2045  0.4592
  290MOL0     C39067   5.518   5.994   8.957  0.3603  0.3619  0.8210
  290MOL0     C39068   5.406   6.053   8.897 -0.0087  0.1652  0.7208
  290MOL0     C39069   4.977   6.161   8.855  0.6872  0.3778 -0.0055
  290MOL0     C39070   4.973   6.229   8.733  0.2514 -0.1649  0.6180
  290MOL0     C39071   4.870   6.315   8.694  0.0172  0.6650  0.7171
  290MOL0     C39072   4.751   6.325   8.774 -0.0513 -0.7588  0.1236
  290MOL0     O39073   4.648   6.416   8.757  0.7435 -0.0698 -0.2198
  290MOL0     C39074   4.659   6.531   8.670 -0.0228 -0.2187 -0.0056
  290MOL0     C39075   4.533   6.611   8.694 -1.6828  0.5931 -0.1226
  290MOL0     C39076   4.402   6.566   8.617  0.2835  0.5115 -0.0003
  290MOL0     C39077   4.272   6.572   8.700 -0.2901  0.0697 -0.2765
  290MOL0     C39078   4.195   6.694   8.673 -0.5002  0.3553 -0.3588
  290MOL0     C39079   4.124   6.793   8.663  0.9299 -0.3219 -0.6800
  290MOL0     C39080   4.742   6.244   8.881  0.7637  0.3544 -0.7426
  290MOL0     C39081   4.848   6.163   8.927 -0.2814 -1.1125  0.0444
  290MOL0     C39082   4.821   6.075   9.046  0.4074  0.2474  0.7730
  290MOL0     H39083   5.210   5.777   8.872  1.0730 -3.0953 -0.8467
  290MOL0     H39084   5.416   5.667   8.975 -0.5821  0.5858 -0.3395
  290MOL0     H39085   5.759   5.633   8.955 -2.1894 -2.6094 -0.3048
  290MOL0     H39086   5.599   5.607   8.896  0.6039 -2.0787 -0.0046
  290MOL0     H39087   5.646   5.788   8.719  0.1165 -0.5228 -0.8727
  290MOL0     H39088   5.721   5.621   8.716  2.7474 -1.5696  1.0959
  290MOL0     H39089   5.936   5.701   8.758 -2.0485 -2.0039  0.8802
  290MOL0     H39090   5.868   5.858   8.818  0.5802 -0.0905  0.8025
  290MOL0     H39091   5.851   5.771   8.528 -0.6254 -1.6675  1.6068
  290MOL0     H39092   5.808   5.931   8.592 -1.0853 -1.0124 -1.4669
  290MOL0     H39093   6.032   5.981   8.661 -0.0543  4.6740 -4.1296
  290MOL0     H39094   6.085   5.807   8.610 -1.3358 -0.9942 -1.6669
  290MOL0     H39095   6.052   5.882   8.383  2.8756  0.9885 -0.5066
  290MOL0     H39096   5.982   6.034   8.434 -0.3383  0.4626  2.9898
  290MOL0     H39097   6.200   6.117   8.509  1.1832  1.7915 -1.9527
  290MOL0     H39098   6.217   6.062   8.350  3.8183  2.3486  1.1527
  290MOL0     H39099   6.287   5.911   8.609 -4.6263 -1.8336 -0.3365
  290MOL0     H39100   6.298   5.828   8.459 -0.9014 -0.4750  0.4007
  290MOL0     H39101   6.498   5.914   8.278  2.4903 -2.2822  1.8435
  290MOL0     H39102   6.732   6.055   8.208  2.1456  0.5387 -1.1181
  290MOL0     H39103   6.739   6.209   8.278  1.7098 -0.0046 -0.3485
  290MOL0     H39104   6.949   6.119   8.339 -1.6453  1.2942 -1.0751
  290MOL0     H39105   6.849   6.094   8.488  1.1414 -0.8649  0.2601
  290MOL0     H39106   6.841   5.879   8.475  0.8478  0.8219  0.6860
  290MOL0     H39107   7.003   5.922   8.429 -1.0477  3.1490  0.5081
  290MOL0     H39108   6.784   5.835   8.233 -0.3861 -1.6294 -1.2450
  290MOL0     H39109   6.905   5.734   8.283 -0.1954 -1.3362  1.3054
  290MOL0     H39110   7.136   5.723   8.302 -0.2357 -0.2835 -1.0530
  290MOL0     H39111   7.366   5.764   8.342  0.5172 -1.2555 -2.3676
  290MOL0     H39112   7.678   6.090   8.468  1.2605  1.0885  1.6438
  290MOL0     H39113   7.912   6.135   8.522 -0.3260 -1.5038  3.3468
  290MOL0     H39114   8.202   5.797   8.428 -0.2792 -0.9895 -0.3495
  290MOL0     H39115   8.268   5.921   8.322 -1.7205 -3.3341 -1.5695
  290MOL0     H39116   8.375   6.033   8.529  0.7904 -0.2951  1.6300
  290MOL0     H39117   8.291   5.907   8.622 -1.1798  0.3961 -0.0830
  290MOL0     H39118   8.550   5.856   8.576  0.0899 -0.5798  0.0216
  290MOL0     H39119   8.438   5.731   8.520 -3.4123  0.6291 -1.2377
  290MOL0     H39120   8.535   5.952   8.330 -0.4844 -0.1080 -0.1164
  290MOL0     H39121   8.449   5.813   8.290 -1.7072  0.3235  1.4779
  290MOL0     H39122   8.674   5.706   8.407 -3.2329 -2.7589 -1.5515
  290MOL0     H39123   8.726   5.872   8.377 -1.7096  1.7426 -0.4922
  290MOL0     H39124   8.610   5.670   8.167  1.2617 -1.5398  0.1402
  290MOL0     H39125   8.673   5.817   8.123 -0.4143 -1.7629 -1.1432
  290MOL0     H39126   8.846   5.677   8.068 -1.7119  0.7759 -1.1532
  290MOL0     H39127   8.822   5.576   8.210 -1.4072  1.2410  0.6136
  290MOL0     H39128   8.937   5.869   8.223 -1.9183 -0.1163  1.0436
  290MOL0     H39129   8.934   5.780   8.361  0.3674  3.8242  0.1026
  290MOL0     H39130   8.031   5.801   8.281  0.2941 -1.1894  0.6508
  290MOL0     H39131   7.797   5.734   8.252 -0.2398 -0.2037 -0.1190
  290MOL0     H39132   7.360   6.108   8.073 -1.3908 -0.9185 -1.8614
  290MOL0     H39133   7.123   6.059   8.029 -0.2899  0.2587 -0.5300
  290MOL0     H39134   5.598   6.061   8.985 -1.2273  1.1714  3.9121
  290MOL0     H39135   5.399   6.158   8.870  0.9589  0.3288  1.0566
  290MOL0     H39136   5.053   6.222   8.660 -1.3478 -4.5026 -1.1052
  290MOL0     H39137   4.881   6.374   8.603 -1.9915 -2.2917 -1.6551
  290MOL0     H39138   4.662   6.497   8.566 -0.3314 -0.9343  0.2120
  290MOL0     H39139   4.749   6.592   8.687  0.6130 -0.4670 -2.1027
  290MOL0     H39140   4.548   6.710   8.650  4.9167 -0.3810 -1.1081
  290MOL0     H39141   4.520   6.632   8.800 -1.2658  3.3820 -0.5523
  290MOL0     H39142   4.406   6.468   8.569 -1.1903  1.9833 -3.4292
  290MOL0     H39143   4.400   6.621   8.523 -0.4794 -0.3409 -0.5072
  290MOL0     H39144   4.211   6.484   8.676 -0.3084  0.4668 -1.7765
  290MOL0     H39145   4.306   6.553   8.802  0.7405  0.3753 -0.5451
  290MOL0     H39146   4.063   6.881   8.657  3.3052  1.6038  1.2810
  290MOL0     H39147   4.648   6.246   8.935  1.5590  2.9439  0.7647
  290MOL0     H39148   4.849   5.972   9.019 -1.9600  0.2586 -2.2756
  290MOL0     H39149   4.884   6.111   9.127  4.6223 -0.5025 -1.8308
  290MOL0     H39150   4.714   6.071   9.064  0.3449  0.2944  0.4293
  291MOL0     O39151   9.738   9.958   7.136 -0.0562  0.0223  0.1991
  291MOL0     C39152   9.808  10.057   7.105  0.7805 -0.3717 -0.4673
  291MOL0     O39153   9.929  10.094   7.150 -0.0725  0.5431  0.3226
  291MOL0     C39154  10.007  10.023   7.232 -0.6723  0.9249 -0.3780
  291MOL0     C39155  10.131  10.079   7.270  0.6459 -0.4509  0.3312
  291MOL0     C39156  10.238  10.010   7.321  0.2969  0.2304 -0.7060
  291MOL0     C39157  10.228   9.869   7.338 -0.2680 -0.1664 -0.2246
  291MOL0     O39158  10.332   9.801   7.387  0.6659 -0.4645 -0.1830
  291MOL0     C39159  10.305   9.715   7.498  0.6514  0.3739 -1.0125
  291MOL0     C39160  10.414   9.717   7.612 -0.2403  0.3233  0.8857
  291MOL0     C39161  10.554   9.751   7.556 -0.0496 -0.1444  0.0593
  291MOL0     C39162  10.615   9.647   7.458 -0.0309  0.0202 -0.0501
  291MOL0     C39163  10.735   9.687   7.371 -0.1523 -0.5079  0.0044
  291MOL0     C39164  10.799   9.574   7.298  0.2973  0.0894  0.6455
  291MOL0     C39165  10.936   9.641   7.267 -0.0716 -0.6628  0.4117
  291MOL0     C39166  11.005   9.561   7.163 -0.0436  0.2931 -0.1716
  291MOL0     N39167  11.081   9.635   7.074  0.4915  0.1209  0.3626
  291MOL0     C39168  11.168   9.734   7.098  0.2594 -0.4617 -0.0146
  291MOL0     C39169  11.213   9.788   6.979  0.0214  0.5506  0.6259
  291MOL0     C39170  11.321   9.883   6.933 -0.0084 -0.6890 -0.0086
  291MOL0     C39171  11.283  10.020   6.980 -0.3964  0.8326  0.1444
  291MOL0     C39172  11.322  10.044   7.129  0.1539  0.1185  0.2072
  291MOL0     C39173  11.462  10.003   7.172 -0.0789 -0.2358  0.4405
  291MOL0     O39174  11.473   9.863   7.204  0.7594  0.3506 -0.1168
  291MOL0     C39175  11.599   9.814   7.236 -0.6940  0.5499 -0.6485
  291MOL0     C39176  11.664   9.840   7.363  0.6800  0.1937  1.2419
  291MOL0     C39177  11.792   9.793   7.379 -0.4932 -0.3485  0.4787
  291MOL0     C39178  11.856   9.721   7.280 -0.9220 -0.5625 -0.4897
  291MOL0     C39179  11.999   9.688   7.298  0.1832  0.7867 -0.6395
  291MOL0     O39180  12.066   9.631   7.192 -0.0928  0.0073 -0.6918
  291MOL0     C39181  12.205   9.604   7.197  0.2980  0.2887 -0.5453
  291MOL0     C39182  12.310   9.691   7.238 -0.1433  0.1016  0.2076
  291MOL0     C39183  12.443   9.674   7.217  0.6713  0.5371  0.6596
  291MOL0     C39184  12.483   9.561   7.154  0.0421  0.3117 -0.0708
  291MOL0     O39185  12.616   9.528   7.136  0.1862 -0.3750 -0.4629
  291MOL0     C39186  12.648   9.517   6.995  0.5823 -0.0770  0.2529
  291MOL0     C39187  12.801   9.528   6.979  0.2181  0.0429 -0.2499
  291MOL0     C39188  12.833   9.680   6.983 -0.1265  0.4254  0.0050
  291MOL0     C39189  12.977   9.697   7.035 -0.3604  0.6619  0.3351
  291MOL0     C39190  13.034   9.829   6.971 -0.1248 -0.4612 -0.5410
  291MOL0     C39191  13.008   9.942   7.071 -0.2116 -0.0184 -0.8290
  291MOL0     C39192  13.046  10.075   7.014 -1.1113 -0.1500 -0.2317
  291MOL0     C39193  13.058  10.195   7.109  1.1145  0.9624  0.1528
  291MOL0    Cl39194  13.166  10.324   7.044  0.2181 -0.0487 -0.1562
  291MOL0     C39195  12.394   9.466   7.113  0.2106  0.8336 -1.1828
  291MOL0     C39196  12.255   9.489   7.136  0.1915  0.1957  0.5788
  291MOL0     O39197  12.047   9.711   7.412  0.1356  0.5653  0.7945
  291MOL0     C39198  11.793   9.703   7.154 -0.1273 -0.3794  0.4516
  291MOL0     C39199  11.669   9.748   7.134  0.2763 -0.0618 -0.0502
  291MOL0     N39200  11.150   9.706   6.889 -0.0482  0.1752  1.1236
  291MOL0     N39201  11.074   9.616   6.939  0.2509 -0.4126 -0.5311
  291MOL0     C39202  10.107   9.807   7.310  0.6719 -0.3379  0.5890
  291MOL0     C39203   9.997   9.880   7.258 -0.5812  0.1281  0.3749
  291MOL0     C39204   9.745  10.145   6.994 -0.2935  0.5681 -0.5305
  291MOL0     C39205   9.825  10.240   6.933 -0.4062  0.1662  0.5033
  291MOL0     C39206   9.778  10.318   6.828 -0.4517 -0.4004  0.4717
  291MOL0     C39207   9.644  10.313   6.796 -1.1259 -0.0731  0.5249
  291MOL0     O39208   9.596  10.397   6.692 -0.0128  0.3073  0.2007
  291MOL0     C39209   9.577  10.530   6.755 -0.2028 -0.7374  0.1532
  291MOL0     C39210   9.504  10.623   6.664  0.1018  0.1990 -0.1909
  291MOL0     C39211   9.569  10.638   6.523  0.9655  0.8679 -0.2532
  291MOL0     C39212   9.470  10.698   6.428 -0.0542 -0.5307 -0.1264
  291MOL0     C39213   9.539  10.702   6.294  0.2491 -0.2081 -0.2345
  291MOL0     C39214   9.601  10.699   6.186  0.3661 -0.4273  0.1540
  291MOL0     C39215   9.562  10.227   6.858  0.5513  1.1206 -0.1206
  291MOL0     C39216   9.610  10.140   6.958 -0.0390  0.2160  0.3637
  291MOL0     C39217   9.506  10.059   7.027 -0.6753 -0.0799  0.1648
  291MOL0     H39218  10.133  10.187   7.259 -4.2981 -0.1171  0.6417
  291MOL0     H39219  10.333  10.041   7.362  2.1689 -3.4062 -1.8894
  291MOL0     H39220  10.206   9.735   7.542  1.1148  1.1881 -0.3170
  291MOL0     H39221  10.313   9.609   7.469  2.0096  1.1381 -3.8418
  291MOL0     H39222  10.417   9.620   7.662  2.5514 -0.3043 -0.3147
  291MOL0     H39223  10.394   9.790   7.691 -1.2610  1.8960 -0.7624
  291MOL0     H39224  10.627   9.759   7.637  1.8730 -1.4582 -1.4454
  291MOL0     H39225  10.565   9.845   7.502 -0.2753  0.4888  1.1013
  291MOL0     H39226  10.657   9.570   7.524 -4.3123 -1.2932  1.4963
  291MOL0     H39227  10.544   9.591   7.396  1.8747  0.2251 -2.6215
  291MOL0     H39228  10.697   9.764   7.304 -0.0913  1.2792  1.9062
  291MOL0     H39229  10.805   9.742   7.435 -0.0124 -0.6683 -0.0108
  291MOL0     H39230  10.804   9.478   7.350  0.4092 -1.3956 -1.9543
  291MOL0     H39231  10.738   9.546   7.212  2.3186 -3.6729  0.1852
  291MOL0     H39232  10.997   9.647   7.357 -0.1543  0.2837  0.4141
  291MOL0     H39233  10.926   9.742   7.226  1.9783 -0.1349  1.1091
  291MOL0     H39234  11.074   9.486   7.204 -1.3320 -2.4681 -2.6716
  291MOL0     H39235  10.935   9.513   7.093 -0.2661  3.1116 -2.0466
  291MOL0     H39236  11.203   9.771   7.194  0.2548 -0.3548 -0.0531
  291MOL0     H39237  11.419   9.853   6.970 -0.3424 -1.6039  0.1762
  291MOL0     H39238  11.326   9.873   6.824 -1.4951  0.1643 -0.1776
  291MOL0     H39239  11.342  10.083   6.913  0.7786 -3.0977 -2.8388
  291MOL0     H39240  11.176  10.042   6.967 -0.4456  1.4120  1.3097
  291MOL0     H39241  11.247   9.994   7.192  0.3092 -1.6183 -0.9068
  291MOL0     H39242  11.322  10.151   7.149  0.3040  0.1119  0.2380
  291MOL0     H39243  11.490  10.063   7.259 -2.3184  1.9494 -0.2280
  291MOL0     H39244  11.537  10.028   7.096 -0.4563  0.6699  0.3544
  291MOL0     H39245  11.613   9.903   7.435 -1.9781  0.7604 -0.9762
  291MOL0     H39246  11.829   9.804   7.481 -1.6063  0.2196  0.8355
  291MOL0     H39247  12.288   9.780   7.295  2.2866 -0.0174  1.4903
  291MOL0     H39248  12.505   9.758   7.247 -1.4101  3.4495 -2.4915
  291MOL0     H39249  12.620   9.416   6.964  1.1916 -1.0104  2.5326
  291MOL0     H39250  12.601   9.600   6.942  0.4045 -0.7864 -0.7153
  291MOL0     H39251  12.851   9.465   7.053 -1.9039 -1.7257 -0.2235
  291MOL0     H39252  12.829   9.491   6.880 -0.3484 -1.1866  0.0368
  291MOL0     H39253  12.824   9.731   6.887 -0.1338  3.0254  1.3074
  291MOL0     H39254  12.765   9.732   7.051 -2.1561  1.1962 -2.4324
  291MOL0     H39255  13.030   9.613   6.990 -1.3955  1.2394 -2.1087
  291MOL0     H39256  12.989   9.690   7.143 -0.1778 -2.0708  0.2072
  291MOL0     H39257  12.993   9.846   6.870 -2.1288 -2.2782 -0.1171
  291MOL0     H39258  13.141   9.814   6.955  0.1266 -0.6030  1.1825
  291MOL0     H39259  12.905   9.945   7.106  0.2258 -3.4538  1.1890
  291MOL0     H39260  13.068   9.928   7.161  0.2159  1.4271 -0.8602
  291MOL0     H39261  12.982  10.110   6.933 -1.2433 -0.2934 -0.1882
  291MOL0     H39262  13.146  10.068   6.971 -0.6570  3.2219 -0.0099
  291MOL0     H39263  12.955  10.230   7.121 -1.0094 -3.0250 -3.5211
  291MOL0     H39264  13.105  10.161   7.201  1.9467 -0.1904 -0.6713
  291MOL0     H39265  12.426   9.370   7.074  4.1565 -0.0066  3.1583
  291MOL0     H39266  12.184   9.417   7.095  2.7663 -1.2248 -1.8198
  291MOL0     H39267  11.845   9.652   7.073  0.1651 -1.6913  1.4497
  291MOL0     H39268  11.625   9.763   7.035 -2.7254  1.7083  1.4015
  291MOL0     H39269  10.101   9.699   7.318  0.1793 -0.2597  1.3917
  291MOL0     H39270   9.913   9.825   7.219 -0.3092  1.4909 -2.4089
  291MOL0     H39271   9.927  10.249   6.971  0.8226 -4.8108 -0.8669
  291MOL0     H39272   9.843  10.388   6.777  0.3841  0.2612  2.3288
  291MOL0     H39273   9.676  10.574   6.771  0.2057 -1.1533 -1.0882
  291MOL0     H39274   9.526  10.520   6.851 -1.7495 -4.0310 -0.8470
  291MOL0     H39275   9.502  10.719   6.718 -2.1228 -0.5061  1.1020
  291MOL0     H39276   9.404  10.582   6.649  0.0852  0.3609 -0.5232
  291MOL0     H39277   9.601  10.539   6.489 -1.2289  0.2705 -0.7385
  291MOL0     H39278   9.659  10.697   6.543 -0.7451  3.0246  1.8040
  291MOL0     H39279   9.381  10.635   6.426  0.0445 -0.7064 -2.6951
  291MOL0     H39280   9.444  10.797   6.465  0.0772  1.1373 -4.0159
  291MOL0     H39281   9.664  10.704   6.099  0.9883  0.8441  0.6379
  291MOL0     H39282   9.468  10.212   6.807  0.4246  1.7147 -0.0684
  291MOL0     H39283   9.516  10.086   7.133 -2.2384 -0.7947  0.5227
  291MOL0     H39284   9.406  10.080   6.990  0.8229  3.5691 -2.3869
  291MOL0     H39285   9.523   9.951   7.019 -1.0867 -0.1021 -0.3926
  292MOL0     O39286   5.467  10.364   7.239 -0.4529  0.0449  0.4090
  292MOL0     C39287   5.369  10.399   7.168 -0.6743 -0.1853  0.8682
  292MOL0     O39288   5.371  10.487   7.069 -1.0023  0.5785  0.6058
  292MOL0     C39289   5.476  10.562   7.039 -1.0547 -0.2714  0.1121
  292MOL0     C39290   5.474  10.626   6.911 -0.0542  0.0604 -0.5883
  292MOL0     C39291   5.571  10.694   6.845 -0.1191 -0.4519 -0.0652
  292MOL0     C39292   5.687  10.716   6.924  0.2753 -0.9097  0.0298
  292MOL0     O39293   5.788  10.803   6.877  0.5875  0.3218 -0.2441
  292MOL0     C39294   5.806  10.820   6.738 -0.0245 -0.4143 -0.2324
  292MOL0     C39295   5.940  10.901   6.713  0.1595  0.3940  0.0070
  292MOL0     C39296   6.061  10.828   6.764 -0.0748 -0.2058 -1.0063
  292MOL0     C39297   6.185  10.915   6.803 -0.3129 -0.1387  0.5288
  292MOL0     C39298   6.275  10.947   6.682 -0.2141 -0.1072 -0.6558
  292MOL0     C39299   6.206  10.998   6.559  0.6103  0.0386 -0.2865
  292MOL0     C39300   6.303  11.048   6.455 -0.3823 -0.0132 -0.2489
  292MOL0     C39301   6.357  11.190   6.475  0.2035  0.9365  0.2242
  292MOL0     N39302   6.463  11.231   6.382  0.7183  0.4518 -1.0967
  292MOL0     C39303   6.443  11.286   6.254  1.0439 -0.3837 -0.2363
  292MOL0     C39304   6.572  11.302   6.211  0.1551  0.0982  0.2945
  292MOL0     C39305   6.601  11.356   6.081 -0.4583  0.7662 -0.0045
  292MOL0     C39306   6.650  11.251   5.990 -0.2109  0.1611  0.8282
  292MOL0     C39307   6.651  11.304   5.844  0.2973 -0.1945  0.3565
  292MOL0     C39308   6.768  11.404   5.807 -0.0841 -0.6334  1.3042
  292MOL0     O39309   6.769  11.441   5.665  0.4204 -0.2620 -0.3818
  292MOL0     C39310   6.868  11.532   5.626 -0.5960  0.6315 -0.3710
  292MOL0     C39311   6.976  11.557   5.708 -0.2562  0.4515  0.2965
  292MOL0     C39312   7.076  11.650   5.665  1.4465 -0.7222 -0.4386
  292MOL0     C39313   7.059  11.723   5.549  0.0330 -0.3743 -0.4838
  292MOL0     C39314   7.171  11.801   5.493  0.3331 -0.6527 -0.7702
  292MOL0     O39315   7.287  11.804   5.569 -0.6998  0.0323 -0.1750
  292MOL0     C39316   7.401  11.858   5.514 -0.2345 -0.0781 -0.0014
  292MOL0     C39317   7.504  11.766   5.475 -0.8238  0.6440 -1.1203
  292MOL0     C39318   7.625  11.806   5.414  0.4213  0.0669 -0.3388
  292MOL0     C39319   7.648  11.946   5.407  1.0691  0.6764 -0.2806
  292MOL0     O39320   7.756  12.016   5.367 -0.0837  0.0408  0.7932
  292MOL0     C39321   7.882  11.955   5.373  0.1054 -0.0130  0.9171
  292MOL0     C39322   7.972  12.050   5.296  0.6116 -0.3293 -0.4265
  292MOL0     C39323   8.122  12.022   5.291 -0.3020 -0.4589  0.4363
  292MOL0     C39324   8.203  12.082   5.402 -0.8716  0.3086 -0.7208
  292MOL0     C39325   8.350  12.046   5.404 -0.6817  0.3464  0.6791
  292MOL0     C39326   8.425  12.109   5.522 -0.9336 -0.6684 -0.3047
  292MOL0     C39327   8.571  12.139   5.473 -0.7040  1.0554 -0.5176
  292MOL0     C39328   8.654  12.183   5.594 -0.3321  0.0989  0.2414
  292MOL0    Cl39329   8.681  12.036   5.685 -0.4585 -0.2479 -0.5476
  292MOL0     C39330   7.549  12.038   5.451 -0.8459 -0.0685  0.0893
  292MOL0     C39331   7.426  11.997   5.502  0.2413  0.5031 -0.1493
  292MOL0     O39332   7.157  11.849   5.384 -0.3256 -0.2953 -0.0712
  292MOL0     C39333   6.955  11.692   5.465 -0.2538 -0.1668  0.3862
  292MOL0     C39334   6.853  11.599   5.506 -0.6999  0.1366 -0.1063
  292MOL0     N39335   6.662  11.250   6.307 -0.1652  0.7476 -0.9371
  292MOL0     N39336   6.591  11.199   6.404 -0.3090 -0.5276 -0.1634
  292MOL0     C39337   5.700  10.676   7.053 -1.0554 -0.1721  0.5535
  292MOL0     C39338   5.596  10.604   7.108  0.1779  0.4402 -0.6218
  292MOL0     C39339   5.240  10.331   7.197 -0.0840  0.1388 -0.4630
  292MOL0     C39340   5.244  10.250   7.314  0.3124  0.4530 -0.3531
  292MOL0     C39341   5.131  10.173   7.346 -0.7458 -0.2539 -0.0703
  292MOL0     C39342   5.008  10.183   7.281 -0.4919 -0.5555  0.5115
  292MOL0     O39343   4.903  10.109   7.328  0.1501  0.0347  0.2848
  292MOL0     C39344   4.820  10.021   7.245  0.3522 -0.1308  0.2425
  292MOL0     C39345   4.677  10.057   7.261 -0.3907  0.2825 -0.0830
  292MOL0     C39346   4.641  10.192   7.197  0.2483 -0.2923  0.3493
  292MOL0     C39347   4.595  10.165   7.055  0.7058 -0.2901 -0.0294
  292MOL0     C39348   4.571  10.291   6.979  0.2346 -0.3852  0.7306
  292MOL0     C39349   4.532  10.396   6.933 -0.1817 -1.4794 -0.6486
  292MOL0     C39350   5.003  10.262   7.163  1.3290 -0.7374  0.8196
  292MOL0     C39351   5.112  10.332   7.120 -0.3488 -0.4809  0.0106
  292MOL0     C39352   5.113  10.391   6.974  0.2256  0.7119  0.2056
  292MOL0     H39353   5.372  10.621   6.873 -0.3827  0.1843  0.2584
  292MOL0     H39354   5.561  10.730   6.743  4.2448 -3.0210 -1.6871
  292MOL0     H39355   5.806  10.725   6.683 -3.7401  0.7999 -2.7400
  292MOL0     H39356   5.734  10.890   6.694  0.1217  1.1155  1.8470
  292MOL0     H39357   5.929  10.998   6.763 -0.3905  0.6411 -0.5765
  292MOL0     H39358   5.963  10.925   6.609 -0.8319  1.1990 -0.0440
  292MOL0     H39359   6.093  10.763   6.682  1.1681 -1.4678  0.4088
  292MOL0     H39360   6.052  10.764   6.852  1.9506  2.6610  1.4718
  292MOL0     H39361   6.150  11.008   6.850 -0.7935 -1.2965  2.6057
  292MOL0     H39362   6.242  10.859   6.878  1.4549 -2.5120 -2.3913
  292MOL0     H39363   6.337  11.024   6.728  2.2232 -1.8232 -0.8745
  292MOL0     H39364   6.346  10.866   6.661  2.3343  1.1727  2.2456
  292MOL0     H39365   6.148  10.919   6.509 -1.6450 -0.0061  2.2014
  292MOL0     H39366   6.136  11.075   6.593  1.7012  0.8115  0.2712
  292MOL0     H39367   6.241  11.054   6.365  0.5322  1.9188 -0.7996
  292MOL0     H39368   6.384  10.975   6.448  0.8472  0.6941  3.8236
  292MOL0     H39369   6.287  11.274   6.463 -2.1823 -0.5099  2.7941
  292MOL0     H39370   6.395  11.210   6.576  2.1557  2.3961 -0.7369
  292MOL0     H39371   6.348  11.315   6.209  1.2073 -0.7481 -0.8203
  292MOL0     H39372   6.526  11.421   6.035  1.3968  2.6341 -0.5486
  292MOL0     H39373   6.684  11.420   6.112 -0.2684 -1.2020  4.1683
  292MOL0     H39374   6.750  11.209   6.007  0.0037  0.3425  0.0664
  292MOL0     H39375   6.574  11.173   5.996 -0.4753  0.5184  2.3092
  292MOL0     H39376   6.562  11.365   5.827  0.0056 -1.2984 -2.9022
  292MOL0     H39377   6.647  11.222   5.772  2.2654  0.7805 -0.9857
  292MOL0     H39378   6.866  11.361   5.827  1.0275  0.5034 -1.2095
  292MOL0     H39379   6.766  11.503   5.854 -0.9350 -0.3734  0.7426
  292MOL0     H39380   7.005  11.511   5.802  3.1588  0.8354 -0.4407
  292MOL0     H39381   7.160  11.662   5.733  0.8176  1.0116  0.0992
  292MOL0     H39382   7.473  11.663   5.490 -0.7707  0.7455 -0.2658
  292MOL0     H39383   7.699  11.731   5.386 -1.1816 -1.1637 -1.4908
  292MOL0     H39384   7.919  11.954   5.476  1.5568 -2.5371  0.4672
  292MOL0     H39385   7.884  11.851   5.339  0.6765 -0.4706  2.3006
  292MOL0     H39386   7.933  12.054   5.194 -0.7578 -1.0902  0.0406
  292MOL0     H39387   7.958  12.154   5.324  1.5539  0.0954 -1.4461
  292MOL0     H39388   8.137  11.914   5.297  3.7535 -0.0048  1.3328
  292MOL0     H39389   8.160  12.042   5.190 -1.7299 -1.6127 -0.3701
  292MOL0     H39390   8.162  12.040   5.495 -3.1962  1.9015 -0.9381
  292MOL0     H39391   8.178  12.186   5.424 -0.7970  0.6069 -1.9623
  292MOL0     H39392   8.391  12.071   5.306 -1.0122 -0.8870  0.2076
  292MOL0     H39393   8.362  11.937   5.406  1.9821  0.5262  3.8328
  292MOL0     H39394   8.393  12.212   5.542  1.4667  0.3004 -1.0581
  292MOL0     H39395   8.416  12.040   5.606 -1.7711 -0.3811 -0.1450
  292MOL0     H39396   8.582  12.217   5.397 -0.2480  2.2666  0.7712
  292MOL0     H39397   8.620  12.050   5.431  0.1631  0.2459  2.0610
  292MOL0     H39398   8.748  12.228   5.561  1.7699 -1.0909  4.0036
  292MOL0     H39399   8.594  12.252   5.654 -2.0627 -0.9479 -0.2094
  292MOL0     H39400   7.578  12.143   5.445  0.6465 -0.4160  0.9314
  292MOL0     H39401   7.345  12.060   5.537 -0.6217  1.2413 -3.1458
  292MOL0     H39402   6.951  11.736   5.366  2.7458 -0.5026  0.0306
  292MOL0     H39403   6.763  11.582   5.449  0.1327 -2.4987 -0.7580
  292MOL0     H39404   5.786  10.705   7.113 -1.4687 -1.1143  1.6359
  292MOL0     H39405   5.618  10.580   7.212  2.4001  2.4658 -0.5230
  292MOL0     H39406   5.328  10.247   7.383 -0.8307  2.3111  1.2331
  292MOL0     H39407   5.138  10.110   7.434  1.1218 -0.9720 -0.6808
  292MOL0     H39408   4.826   9.915   7.270 -2.8307 -0.2056  1.0876
  292MOL0     H39409   4.846  10.027   7.138  0.2231  0.3415  0.2342
  292MOL0     H39410   4.666  10.062   7.370  1.5015 -2.5235  0.3453
  292MOL0     H39411   4.631   9.966   7.220  4.6966 -2.6008 -0.2275
  292MOL0     H39412   4.722  10.266   7.198 -0.0261  0.0565 -1.2390
  292MOL0     H39413   4.562  10.243   7.253  1.0744  1.8585 -0.3350
  292MOL0     H39414   4.669  10.107   6.998  1.3807  0.9628 -0.4609
  292MOL0     H39415   4.497  10.116   7.050  1.1611 -1.4414  1.5890
  292MOL0     H39416   4.506  10.495   6.903 -1.2930 -0.8614  2.0987
  292MOL0     H39417   4.916  10.289   7.104  2.4261  0.4442 -0.3084
  292MOL0     H39418   5.137  10.498   6.979  0.2493  0.6869  0.6630
  292MOL0     H39419   5.201  10.348   6.926  1.2452 -2.1137  4.0801
  292MOL0     H39420   5.014  10.384   6.927  0.7777  0.2085 -0.9192
  293MOL0     O39421   2.048   7.477  10.061  0.2807 -0.7809 -0.3126
  293MOL0     C39422   2.052   7.561  10.153 -0.2603 -0.0729 -0.2287
  293MOL0     O39423   2.139   7.655  10.174  0.2130 -0.6021 -0.5020
  293MOL0     C39424   2.228   7.673  10.071 -0.0942  0.2568  0.4139
  293MOL0     C39425   2.359   7.632  10.089  0.3283 -0.2432 -0.5246
  293MOL0     C39426   2.459   7.687  10.019  0.3537  0.0223 -0.4953
  293MOL0     C39427   2.436   7.769   9.906 -0.0768  0.0870 -0.6738
  293MOL0     O39428   2.541   7.835   9.846  0.4013 -0.5334 -0.2477
  293MOL0     C39429   2.622   7.915   9.933 -0.3482 -0.5660  0.6169
  293MOL0     C39430   2.655   8.052   9.871 -0.7621  0.5118 -0.9426
  293MOL0     C39431   2.750   8.134   9.968 -0.4068  0.1311  0.2044
  293MOL0     C39432   2.799   8.253   9.894  0.4597 -0.0616 -0.0363
  293MOL0     C39433   2.859   8.354   9.982  0.0922  0.1904 -0.5091
  293MOL0     C39434   3.011   8.314   9.996 -0.9401  0.1587  0.2752
  293MOL0     C39435   3.073   8.410  10.088  0.2535 -1.2471 -0.2741
  293MOL0     C39436   3.220   8.382  10.108  0.3150 -0.6226  0.1826
  293MOL0     N39437   3.227   8.273  10.213 -0.2721  0.5151 -0.5814
  293MOL0     C39438   3.174   8.261  10.342  0.3455 -0.6924  0.2279
  293MOL0     C39439   3.201   8.135  10.389  0.3115  0.0567  0.0450
  293MOL0     C39440   3.150   8.085  10.520 -0.0186 -0.7451  0.8649
  293MOL0     C39441   3.270   8.048  10.607 -0.0819 -0.3840  0.4337
  293MOL0     C39442   3.222   7.969  10.729 -0.4957  0.6088 -0.4824
  293MOL0     C39443   3.337   7.937  10.822  0.7270 -0.5592  0.2802
  293MOL0     O39444   3.287   7.848  10.918  0.3068 -0.1981 -0.4298
  293MOL0     C39445   3.388   7.796  10.992 -0.3231  0.3518 -0.5467
  293MOL0     C39446   3.422   7.662  10.978 -0.0769 -0.3344 -1.0322
  293MOL0     C39447   3.514   7.600  11.062 -0.4098  0.0933 -0.4575
  293MOL0     C39448   3.567   7.671  11.167 -0.2330 -0.3737 -0.6069
  293MOL0     C39449   3.674   7.613  11.259  0.1467  0.2270 -0.7078
  293MOL0     O39450   3.710   7.696  11.372 -0.1397  0.8069 -0.0648
  293MOL0     C39451   3.782   7.646  11.467 -0.3230  1.0354  0.8412
  293MOL0     C39452   3.736   7.648  11.599  0.7200  0.4530  0.2274
  293MOL0     C39453   3.802   7.578  11.704  1.1317 -0.1382 -0.7365
  293MOL0     C39454   3.931   7.526  11.691  0.3298  0.4909  0.9196
  293MOL0     O39455   3.991   7.456  11.793  0.0079  0.1021  0.0548
  293MOL0     C39456   4.113   7.378  11.773 -0.1888 -0.5753 -0.0691
  293MOL0     C39457   4.144   7.314  11.910 -0.4712  0.6100  0.4966
  293MOL0     C39458   4.273   7.235  11.904 -0.3207 -0.8606 -0.4172
  293MOL0     C39459   4.291   7.168  12.041  0.5024  1.0425 -0.8913
  293MOL0     C39460   4.424   7.084  12.058 -0.0378 -0.7310  0.2272
  293MOL0     C39461   4.423   6.997  12.178  0.4705  1.1092  0.5256
  293MOL0     C39462   4.545   6.901  12.202  0.6885 -0.7549  0.2434
  293MOL0     C39463   4.588   6.838  12.075  0.3484 -0.3882  0.2069
  293MOL0    Cl39464   4.735   6.745  12.113 -0.1081  0.0977  0.3051
  293MOL0     C39465   3.983   7.524  11.557 -0.0645  0.3587 -0.6218
  293MOL0     C39466   3.910   7.589  11.454  0.1054  0.3025  0.4205
  293MOL0     O39467   3.705   7.496  11.244 -0.2000 -0.2918 -0.0818
  293MOL0     C39468   3.515   7.807  11.201 -0.6753 -0.3085 -0.4308
  293MOL0     C39469   3.429   7.870  11.107  0.0634 -1.0724  0.3799
  293MOL0     N39470   3.261   8.060  10.293 -1.0107 -0.0469  0.1947
  293MOL0     N39471   3.283   8.147  10.184 -0.3119 -0.2776  0.0553
  293MOL0     C39472   2.303   7.793   9.873 -0.0204  0.4499 -0.3632
  293MOL0     C39473   2.196   7.747   9.957  0.3864 -0.2407  0.5583
  293MOL0     C39474   1.926   7.573  10.232  0.0004 -0.2818 -1.1241
  293MOL0     C39475   1.910   7.692  10.306 -0.4641 -0.3277  0.7463
  293MOL0     C39476   1.797   7.707  10.393 -0.1154  0.0251  0.7389
  293MOL0     C39477   1.719   7.604  10.413  0.8336 -0.0418  0.2735
  293MOL0     O39478   1.614   7.623  10.502  0.1023 -0.1142  0.3111
  293MOL0     C39479   1.483   7.569  10.476 -0.1882  0.6960 -0.7544
  293MOL0     C39480   1.416   7.610  10.337  0.0304  0.1000 -0.6544
  293MOL0     C39481   1.275   7.561  10.323  0.5207  0.6925  0.4154
  293MOL0     C39482   1.196   7.631  10.211  0.0282 -0.0850 -0.0356
  293MOL0     C39483   1.066   7.566  10.203 -0.4758  0.2209  0.1635
  293MOL0     C39484   0.954   7.522  10.187  0.5495 -0.8113 -0.4345
  293MOL0     C39485   1.740   7.486  10.341 -0.0801 -0.0692  0.3831
  293MOL0     C39486   1.840   7.465  10.248 -0.0439 -0.5078 -0.1917
  293MOL0     C39487   1.852   7.325  10.190 -0.3913 -0.4073  0.4895
  293MOL0     H39488   2.376   7.568  10.176 -0.7045 -1.5415 -1.2340
  293MOL0     H39489   2.558   7.666  10.059  0.3251 -1.0910 -0.9620
  293MOL0     H39490   2.579   7.943  10.030  3.5425  3.5724  1.4492
  293MOL0     H39491   2.717   7.866   9.956  1.3075  1.9514 -0.4599
  293MOL0     H39492   2.567   8.111   9.843 -1.7385  1.2591  3.0078
  293MOL0     H39493   2.721   8.042   9.785  1.5982  0.7702  0.7285
  293MOL0     H39494   2.835   8.073   9.999  0.5684  1.8686  1.1286
  293MOL0     H39495   2.696   8.160  10.060 -0.6354 -0.0547  0.1243
  293MOL0     H39496   2.873   8.225   9.818  0.6199  2.0655 -0.7111
  293MOL0     H39497   2.701   8.286   9.860 -1.4180 -2.3962  2.6130
  293MOL0     H39498   2.842   8.452   9.937  0.9384  0.2542 -0.7078
  293MOL0     H39499   2.814   8.351  10.082 -1.3690  1.0056 -1.1177
  293MOL0     H39500   3.011   8.220  10.052  1.7336 -0.1629 -0.1079
  293MOL0     H39501   3.068   8.308   9.902 -4.5641  2.5858 -2.3388
  293MOL0     H39502   3.026   8.401  10.187  2.6238 -2.2835  0.8373
  293MOL0     H39503   3.065   8.508  10.039  2.8530 -1.4353 -1.1775
  293MOL0     H39504   3.268   8.348  10.017 -0.0922  0.0584 -0.3005
  293MOL0     H39505   3.252   8.482  10.140  0.2121  0.0472 -1.6768
  293MOL0     H39506   3.124   8.341  10.395  1.9364  0.5049 -0.0071
  293MOL0     H39507   3.102   8.161  10.582  0.2797 -2.5584  3.4760
  293MOL0     H39508   3.078   8.004  10.506  0.2665 -0.6552 -1.5130
  293MOL0     H39509   3.343   7.988  10.553 -0.4068 -0.9689  0.6342
  293MOL0     H39510   3.318   8.141  10.640 -1.3641  0.3922  0.2314
  293MOL0     H39511   3.174   7.876  10.701 -1.7462  0.3912  2.0525
  293MOL0     H39512   3.138   8.026  10.772 -0.4442 -0.9772  1.8928
  293MOL0     H39513   3.377   8.028  10.868 -0.6536  0.6072 -0.7205
  293MOL0     H39514   3.420   7.903  10.760  1.3521  1.1522  0.1099
  293MOL0     H39515   3.381   7.612  10.891  0.5127  0.2315 -1.6509
  293MOL0     H39516   3.545   7.496  11.052 -1.6811 -0.7660  3.0979
  293MOL0     H39517   3.636   7.689  11.607  1.2351  2.7417 -3.0190
  293MOL0     H39518   3.735   7.584  11.790 -0.2755  3.7110 -1.8876
  293MOL0     H39519   4.103   7.305  11.691 -0.1557  0.0536 -0.6410
  293MOL0     H39520   4.193   7.450  11.753  0.6383 -1.3985  0.1862
  293MOL0     H39521   4.156   7.390  11.988 -0.7801  0.8061  0.3509
  293MOL0     H39522   4.065   7.242  11.931  0.0973  0.4594  2.3263
  293MOL0     H39523   4.271   7.167  11.818 -1.3767 -1.2574 -0.0851
  293MOL0     H39524   4.361   7.297  11.882  1.1917 -3.4978 -2.3811
  293MOL0     H39525   4.208   7.097  12.053  1.3268  0.4408  2.1605
  293MOL0     H39526   4.287   7.250  12.114  1.9609  0.2481  0.1437
  293MOL0     H39527   4.502   7.159  12.075 -0.0915 -0.6827  0.2593
  293MOL0     H39528   4.444   7.036  11.961  0.7656  0.6415 -0.3192
  293MOL0     H39529   4.424   7.079  12.250  0.8687  1.9076 -0.3828
  293MOL0     H39530   4.331   6.941  12.197  0.3453  1.0719 -0.1640
  293MOL0     H39531   4.517   6.823  12.274 -2.6973  1.0071  1.0634
  293MOL0     H39532   4.631   6.964  12.228  0.6018  0.0136 -1.2536
  293MOL0     H39533   4.510   6.771  12.039 -0.8604  1.2341 -0.2742
  293MOL0     H39534   4.601   6.918  12.002 -3.2953 -0.7995 -1.0883
  293MOL0     H39535   4.077   7.471  11.543  1.3069  2.3170  0.7469
  293MOL0     H39536   3.947   7.582  11.352  0.6225 -0.4670  0.6553
  293MOL0     H39537   3.541   7.869  11.285 -0.9036  2.8812 -2.5243
  293MOL0     H39538   3.397   7.974  11.108 -0.3027 -0.9651 -4.1841
  293MOL0     H39539   2.271   7.861   9.794 -1.5114  1.2664  0.8932
  293MOL0     H39540   2.093   7.779   9.949 -0.5946 -2.1333  3.7730
  293MOL0     H39541   1.972   7.781  10.306 -0.6105 -0.2197  1.5431
  293MOL0     H39542   1.777   7.800  10.446 -0.3169  0.8491 -0.7390
  293MOL0     H39543   1.431   7.612  10.562 -1.4757 -0.2379 -1.0432
  293MOL0     H39544   1.481   7.462  10.498  0.7344  0.3732 -2.1222
  293MOL0     H39545   1.483   7.579  10.257  0.7662 -1.6315  0.5729
  293MOL0     H39546   1.418   7.720  10.336  1.1028  0.2626  3.0527
  293MOL0     H39547   1.211   7.581  10.410  0.7248  2.2187  0.2449
  293MOL0     H39548   1.258   7.453  10.322 -2.2679  0.9925  2.3921
  293MOL0     H39549   1.178   7.727  10.260 -0.8266  0.6582 -1.7425
  293MOL0     H39550   1.254   7.636  10.119  1.2222  2.2342  0.7640
  293MOL0     H39551   0.861   7.469  10.178  1.2432 -1.8926 -1.5443
  293MOL0     H39552   1.667   7.408  10.356 -1.0728  0.7206 -0.2488
  293MOL0     H39553   1.770   7.259  10.220 -1.6554  1.5703  1.6035
  293MOL0     H39554   1.847   7.339  10.082 -0.9110 -2.3013  0.2374
  293MOL0     H39555   1.947   7.281  10.222 -0.1285 -1.6256 -1.7681
  294MOL0     O39556   3.779   6.259   1.598  0.7282 -0.2038 -0.9014
  294MOL0     C39557   3.807   6.158   1.657 -0.2422 -0.0557 -0.1136
  294MOL0     O39558   3.915   6.154   1.749  0.0981  1.0912 -0.4641
  294MOL0     C39559   4.012   6.250   1.738 -0.8816 -0.5332  0.0554
  294MOL0     C39560   4.144   6.202   1.744  0.3678 -0.0100  0.4097
  294MOL0     C39561   4.247   6.297   1.730  0.2763  0.1522  0.6920
  294MOL0     C39562   4.228   6.436   1.727  0.6969  0.8845  0.2517
  294MOL0     O39563   4.338   6.516   1.710  0.3596 -0.5845 -0.4179
  294MOL0     C39564   4.419   6.503   1.595  0.1873  0.0262 -0.0605
  294MOL0     C39565   4.553   6.580   1.603  1.3807  0.0416  0.6184
  294MOL0     C39566   4.631   6.563   1.731 -0.2906 -0.0510 -0.4197
  294MOL0     C39567   4.765   6.628   1.723  0.1985 -0.8097 -0.1572
  294MOL0     C39568   4.758   6.780   1.715 -0.5337  0.4612  0.2925
  294MOL0     C39569   4.891   6.855   1.711  0.5481  0.0300  0.2939
  294MOL0     C39570   4.993   6.832   1.830 -0.2376  0.4601 -0.8064
  294MOL0     C39571   4.943   6.891   1.956  0.1301  0.1995 -0.2256
  294MOL0     N39572   4.876   6.794   2.041 -0.4694  0.1465 -0.0110
  294MOL0     C39573   4.927   6.677   2.085 -0.5291  0.4014 -0.0301
  294MOL0     C39574   4.840   6.614   2.155  0.1246  0.4490  0.4104
  294MOL0     C39575   4.875   6.478   2.210 -0.3335  0.0188  0.3658
  294MOL0     C39576   4.739   6.414   2.261 -0.3217  0.1844  0.5068
  294MOL0     C39577   4.776   6.316   2.360 -0.3066  0.2521 -0.7241
  294MOL0     C39578   4.857   6.191   2.314  0.8501  0.1329 -0.8585
  294MOL0     O39579   4.982   6.212   2.257 -0.2860  0.2425 -0.2327
  294MOL0     C39580   5.093   6.217   2.335  0.0238 -0.4814  0.5622
  294MOL0     C39581   5.083   6.244   2.471  1.0697  0.1303  0.2308
  294MOL0     C39582   5.197   6.272   2.536 -0.8428  0.1206 -0.4111
  294MOL0     C39583   5.323   6.284   2.473 -0.7846  0.6881  0.0102
  294MOL0     C39584   5.443   6.315   2.544  0.2193  0.4759 -0.4325
  294MOL0     O39585   5.433   6.313   2.678  0.2440 -0.3004 -0.0057
  294MOL0     C39586   5.540   6.344   2.765  0.5304  1.0585 -0.1729
  294MOL0     C39587   5.674   6.306   2.738 -0.0520 -0.0240  0.3422
  294MOL0     C39588   5.778   6.338   2.830  0.4400  0.1615  0.6733
  294MOL0     C39589   5.746   6.386   2.953  0.0654 -1.2250 -0.6981
  294MOL0     O39590   5.850   6.427   3.029  0.0402  0.1581  0.0421
  294MOL0     C39591   5.842   6.418   3.174  0.0574  0.1298 -0.5729
  294MOL0     C39592   5.979   6.431   3.241 -0.6218 -0.0475 -0.3825
  294MOL0     C39593   6.052   6.570   3.220 -0.9513 -0.0655 -0.4387
  294MOL0     C39594   6.162   6.555   3.116 -0.0412  0.7712 -0.2009
  294MOL0     C39595   6.240   6.682   3.090  0.1046 -0.8865  0.0648
  294MOL0     C39596   6.359   6.663   2.991 -0.3991  0.2213  0.0004
  294MOL0     C39597   6.477   6.574   3.046  1.1684 -0.4378 -0.0901
  294MOL0     C39598   6.447   6.425   3.014 -0.1493  1.0058 -1.0970
  294MOL0    Cl39599   6.589   6.326   3.019  0.1370 -0.2555  0.5057
  294MOL0     C39600   5.612   6.420   2.976 -0.0383 -0.1132 -0.2204
  294MOL0     C39601   5.510   6.394   2.885 -0.5756 -0.1041 -0.2657
  294MOL0     O39602   5.535   6.362   2.481 -0.5965 -0.2708  0.1040
  294MOL0     C39603   5.324   6.265   2.332 -0.4881  0.5066 -0.1443
  294MOL0     C39604   5.207   6.227   2.266  0.4514 -0.8563 -0.1679
  294MOL0     N39605   4.727   6.682   2.147  0.2784 -0.7270 -0.4838
  294MOL0     N39606   4.748   6.789   2.074  0.3900 -0.3865  0.2586
  294MOL0     C39607   4.097   6.482   1.722 -0.8120 -0.1959  0.3269
  294MOL0     C39608   3.995   6.386   1.722  0.1702 -0.1052  0.5319
  294MOL0     C39609   3.719   6.036   1.628 -0.5401 -0.0920 -0.3139
  294MOL0     C39610   3.602   6.048   1.554  0.5799  0.2334  0.0916
  294MOL0     C39611   3.518   5.935   1.527  0.2582 -0.3831 -0.3278
  294MOL0     C39612   3.539   5.818   1.589 -0.0299 -0.6896 -0.8079
  294MOL0     O39613   3.436   5.723   1.581 -0.1863 -0.2199  0.3525
  294MOL0     C39614   3.443   5.602   1.659  0.8957  0.5812  0.2958
  294MOL0     C39615   3.329   5.503   1.638  0.1451 -0.3527 -0.2301
  294MOL0     C39616   3.249   5.478   1.761  0.4953 -0.3315  0.8512
  294MOL0     C39617   3.160   5.353   1.735 -0.5581 -0.3048 -0.1521
  294MOL0     C39618   3.116   5.297   1.863  0.1871  0.8685  0.3632
  294MOL0     C39619   3.056   5.242   1.953  0.2648 -0.1470 -0.4791
  294MOL0     C39620   3.655   5.806   1.667 -0.7523 -0.0022 -0.3390
  294MOL0     C39621   3.753   5.908   1.682  0.4632  0.7609  0.8602
  294MOL0     C39622   3.890   5.877   1.739 -0.2255 -0.2883 -0.2651
  294MOL0     H39623   4.174   6.098   1.735  2.2796  0.5780 -0.3952
  294MOL0     H39624   4.350   6.263   1.725  0.3149  0.2080  1.0684
  294MOL0     H39625   4.438   6.399   1.566 -0.0434  0.1134 -0.5370
  294MOL0     H39626   4.375   6.544   1.504  3.1585  1.5718 -0.9457
  294MOL0     H39627   4.534   6.687   1.591  0.2128 -0.3997 -2.0777
  294MOL0     H39628   4.607   6.536   1.519 -0.5469  1.8065 -1.7179
  294MOL0     H39629   4.658   6.458   1.748 -1.8920 -0.8261 -2.3287
  294MOL0     H39630   4.581   6.598   1.822  2.5600 -1.1703  1.7359
  294MOL0     H39631   4.810   6.611   1.822 -3.6342  0.5223  2.0284
  294MOL0     H39632   4.832   6.589   1.645 -0.0110 -0.1163 -0.6917
  294MOL0     H39633   4.707   6.800   1.620 -0.6977 -0.9182  0.0629
  294MOL0     H39634   4.702   6.825   1.797 -0.0201  1.4143  0.1263
  294MOL0     H39635   4.952   6.825   1.624  1.0939 -0.8307  0.9563
  294MOL0     H39636   4.866   6.959   1.688  2.5089 -0.1842 -3.8716
  294MOL0     H39637   5.092   6.867   1.800 -0.0821  1.9712  1.2633
  294MOL0     H39638   5.005   6.724   1.845  3.3212  0.7699 -0.5241
  294MOL0     H39639   5.032   6.923   2.011 -0.3300 -1.1118  1.3729
  294MOL0     H39640   4.871   6.971   1.938 -0.1078 -0.0539 -0.4171
  294MOL0     H39641   5.031   6.653   2.065 -0.8282  1.2168 -2.9563
  294MOL0     H39642   4.903   6.418   2.123 -2.3472  0.7964 -0.8784
  294MOL0     H39643   4.953   6.481   2.287 -0.7233  1.0968  0.7376
  294MOL0     H39644   4.674   6.488   2.308 -1.0418 -0.7114  0.9722
  294MOL0     H39645   4.685   6.372   2.175  1.4544  0.8173 -0.9850
  294MOL0     H39646   4.690   6.268   2.408  1.5924 -0.1991  2.4764
  294MOL0     H39647   4.831   6.360   2.443 -0.7194  1.6178 -1.1455
  294MOL0     H39648   4.794   6.140   2.239  1.2607 -4.8735  1.7964
  294MOL0     H39649   4.866   6.133   2.406  0.9283  2.4954  0.7050
  294MOL0     H39650   4.996   6.243   2.536  2.1671  0.0218  1.7645
  294MOL0     H39651   5.196   6.295   2.642  1.7700  1.0151 -0.5248
  294MOL0     H39652   5.696   6.262   2.641 -2.4599  0.8907 -0.7292
  294MOL0     H39653   5.885   6.321   2.817  0.3356 -1.9239  2.1040
  294MOL0     H39654   5.781   6.506   3.198  1.3109  1.3229 -1.5769
  294MOL0     H39655   5.800   6.321   3.200 -1.2789  0.8584  0.1506
  294MOL0     H39656   5.972   6.424   3.350 -0.5593  1.1545 -0.2872
  294MOL0     H39657   6.038   6.345   3.208  0.0733  1.0723 -2.2423
  294MOL0     H39658   5.985   6.654   3.199 -2.1912 -0.9884 -0.2948
  294MOL0     H39659   6.104   6.588   3.315  1.9024 -3.1278 -1.2437
  294MOL0     H39660   6.122   6.515   3.022 -0.3493  3.2902 -1.2317
  294MOL0     H39661   6.235   6.482   3.153 -1.2452 -1.8302 -2.5378
  294MOL0     H39662   6.283   6.716   3.185 -3.5919  2.1793  0.9056
  294MOL0     H39663   6.176   6.764   3.057  0.6108 -0.4024  0.2781
  294MOL0     H39664   6.320   6.612   2.902  1.1149 -1.6079  0.3216
  294MOL0     H39665   6.410   6.757   2.965  2.6264 -0.6995  2.0434
  294MOL0     H39666   6.483   6.591   3.154 -0.4931  0.6784 -0.1275
  294MOL0     H39667   6.568   6.601   2.993  0.5138  1.1441 -0.4676
  294MOL0     H39668   6.385   6.375   3.089  0.0236  1.1814 -0.8370
  294MOL0     H39669   6.393   6.408   2.920 -0.7153 -0.3468 -0.5510
  294MOL0     H39670   5.589   6.472   3.069  1.8968 -1.3474  1.0052
  294MOL0     H39671   5.410   6.433   2.896  0.7792  3.9854 -0.4754
  294MOL0     H39672   5.413   6.282   2.272 -0.9978  1.4691 -0.6459
  294MOL0     H39673   5.209   6.222   2.158  2.5579 -0.6422 -0.1712
  294MOL0     H39674   4.080   6.588   1.709  0.6058  0.1793  1.2942
  294MOL0     H39675   3.893   6.420   1.736  0.4153  1.2066 -0.6392
  294MOL0     H39676   3.580   6.138   1.499  5.1355  1.0109 -0.8204
  294MOL0     H39677   3.431   5.944   1.464 -0.4547 -0.6303  0.5961
  294MOL0     H39678   3.456   5.619   1.766  0.7562  2.8038 -0.0074
  294MOL0     H39679   3.534   5.545   1.639 -0.1590 -1.8143  1.8461
  294MOL0     H39680   3.362   5.404   1.605 -2.2767 -0.5834 -2.2328
  294MOL0     H39681   3.261   5.537   1.559 -1.4722 -4.3149 -0.7776
  294MOL0     H39682   3.181   5.561   1.784  0.1652 -0.8908  1.9313
  294MOL0     H39683   3.306   5.457   1.852 -0.2233 -0.7074  1.2224
  294MOL0     H39684   3.067   5.380   1.684  0.0460  0.9124 -0.6677
  294MOL0     H39685   3.211   5.276   1.678  1.8218  2.2969 -1.7971
  294MOL0     H39686   3.002   5.188   2.028  2.7648 -1.7735  0.2611
  294MOL0     H39687   3.670   5.713   1.722 -1.3362 -2.5843 -4.1437
  294MOL0     H39688   3.908   5.772   1.764  2.2987  0.3162  0.7696
  294MOL0     H39689   3.975   5.897   1.673 -0.7297 -1.3784 -1.2831
  294MOL0     H39690   3.903   5.932   1.832  2.3808 -1.7363  0.3215
  295MOL0     O39691   7.739   2.982   6.932 -0.1973 -0.4947 -0.3395
  295MOL0     C39692   7.772   2.903   6.846  0.8277  1.1136  0.4820
  295MOL0     O39693   7.898   2.847   6.825  0.3806 -0.3597 -0.0809
  295MOL0     C39694   7.991   2.878   6.924 -0.4260  0.1411  0.1604
  295MOL0     C39695   7.970   2.858   7.060  0.2969 -0.8758  0.1622
  295MOL0     C39696   8.065   2.882   7.162  0.3621 -0.3856  0.2610
  295MOL0     C39697   8.194   2.935   7.118  0.4963  0.2012 -0.0576
  295MOL0     O39698   8.288   2.952   7.212 -0.4669 -0.6583 -0.4242
  295MOL0     C39699   8.251   3.046   7.312 -0.3142 -0.8074 -1.1578
  295MOL0     C39700   8.369   3.068   7.403 -0.4799 -0.3398 -0.0820
  295MOL0     C39701   8.348   3.201   7.484 -0.4813  0.6939  0.9086
  295MOL0     C39702   8.461   3.213   7.588 -0.3535  0.5755 -0.6032
  295MOL0     C39703   8.595   3.226   7.522  0.1616 -0.0815 -0.1197
  295MOL0     C39704   8.722   3.227   7.627 -0.0054 -0.0488  0.4586
  295MOL0     C39705   8.853   3.195   7.544 -0.2404 -0.4165  0.1516
  295MOL0     C39706   8.973   3.218   7.634 -0.2894 -0.6329  0.6248
  295MOL0     N39707   9.102   3.221   7.562  0.1709 -0.4743 -1.1813
  295MOL0     C39708   9.132   3.160   7.438 -0.2341  0.3224  0.1195
  295MOL0     C39709   9.265   3.171   7.428 -0.2225 -0.0602 -0.4659
  295MOL0     C39710   9.353   3.111   7.319 -0.1106 -0.1847 -0.4299
  295MOL0     C39711   9.438   3.222   7.248  0.0425 -0.3201 -0.5351
  295MOL0     C39712   9.377   3.358   7.217  0.5884 -0.3615 -0.6583
  295MOL0     C39713   9.256   3.337   7.133  0.1556 -0.4154  0.5089
  295MOL0     O39714   9.269   3.248   7.015  0.5639  0.6611 -0.1703
  295MOL0     C39715   9.163   3.175   6.961 -0.4608  0.7176 -0.2997
  295MOL0     C39716   9.203   3.068   6.884 -0.1434  0.4547 -0.1075
  295MOL0     C39717   9.098   2.987   6.829 -0.3109 -0.4978  0.2031
  295MOL0     C39718   8.959   3.002   6.863  0.2865  0.2942  1.2096
  295MOL0     C39719   8.856   2.920   6.800 -0.4931 -0.0307  0.4979
  295MOL0     O39720   8.732   2.921   6.865  0.2686 -0.2093 -0.6310
  295MOL0     C39721   8.633   2.839   6.835 -0.7061  0.2615 -0.2463
  295MOL0     C39722   8.615   2.717   6.903  0.5439 -0.2896  0.2703
  295MOL0     C39723   8.508   2.638   6.861 -0.1794 -0.1420 -0.4415
  295MOL0     C39724   8.422   2.661   6.755  0.1025  0.1753  0.6699
  295MOL0     O39725   8.316   2.574   6.739  0.1237  0.6239  0.0912
  295MOL0     C39726   8.222   2.595   6.633  0.5040 -0.1412  0.8642
  295MOL0     C39727   8.128   2.477   6.623  0.5169 -0.3740  0.7078
  295MOL0     C39728   8.012   2.505   6.535  0.3972 -0.3186 -0.0311
  295MOL0     C39729   7.914   2.381   6.535  0.0246 -0.9094  0.0428
  295MOL0     C39730   7.790   2.399   6.455 -0.1608 -1.3131  0.2524
  295MOL0     C39731   7.669   2.308   6.506 -0.1850 -0.3624 -0.1042
  295MOL0     C39732   7.550   2.322   6.410  0.3238 -0.3042 -0.2053
  295MOL0     C39733   7.425   2.236   6.450  0.3567 -0.3186 -0.2139
  295MOL0    Cl39734   7.306   2.320   6.546 -0.1119 -0.2559 -0.0721
  295MOL0     C39735   8.445   2.785   6.696 -0.0728  0.4585  0.7137
  295MOL0     C39736   8.548   2.871   6.731  0.5866  0.4029 -0.2268
  295MOL0     O39737   8.884   2.861   6.691 -0.2441  0.9754 -1.0589
  295MOL0     C39738   8.924   3.119   6.939 -0.6668  0.7196  0.2642
  295MOL0     C39739   9.023   3.194   6.994 -0.7211 -0.1186 -0.8685
  295MOL0     N39740   9.314   3.246   7.533  0.4903 -0.0858  1.4590
  295MOL0     N39741   9.220   3.271   7.616  0.1503 -0.0770  0.8526
  295MOL0     C39742   8.222   2.947   6.976  0.0584  0.3134  0.6249
  295MOL0     C39743   8.126   2.901   6.887  0.3544 -0.1221  0.2421
  295MOL0     C39744   7.684   2.893   6.734  0.8126 -0.3360  0.4646
  295MOL0     C39745   7.637   3.014   6.659  0.8234  0.0854 -1.5737
  295MOL0     C39746   7.530   2.999   6.566 -0.0310  0.0086 -0.6744
  295MOL0     C39747   7.478   2.876   6.536  0.7159  0.0781 -0.1397
  295MOL0     O39748   7.372   2.885   6.454 -0.3872  0.4110 -0.1182
  295MOL0     C39749   7.303   2.754   6.437 -1.3101  0.1025 -0.6643
  295MOL0     C39750   7.185   2.775   6.348 -0.0515 -0.3483  1.0376
  295MOL0     C39751   7.138   2.642   6.287  0.4627  0.2549  0.2548
  295MOL0     C39752   7.045   2.671   6.168  0.2382 -0.0741  0.6377
  295MOL0     C39753   7.033   2.551   6.092 -0.0183  0.8522 -0.6798
  295MOL0     C39754   7.028   2.447   6.033  0.0047  1.1226  0.3088
  295MOL0     C39755   7.530   2.773   6.604  0.3229  1.6303 -0.7760
  295MOL0     C39756   7.616   2.772   6.708 -0.3696  0.2592  0.5296
  295MOL0     C39757   7.660   2.640   6.769 -0.1626  0.0463 -0.6284
  295MOL0     H39758   7.876   2.816   7.093 -0.5129  0.1050 -0.8294
  295MOL0     H39759   8.046   2.844   7.262  0.4679 -0.9211  0.0773
  295MOL0     H39760   8.236   3.148   7.276  1.0345 -0.7640 -1.6281
  295MOL0     H39761   8.171   3.010   7.378 -1.3196 -0.5959 -2.2266
  295MOL0     H39762   8.455   3.066   7.335 -2.8233 -0.0690 -3.3028
  295MOL0     H39763   8.374   2.981   7.469 -3.6999  1.3432  2.7321
  295MOL0     H39764   8.246   3.201   7.525 -1.9106 -0.3764 -2.3428
  295MOL0     H39765   8.360   3.292   7.425  1.0607 -0.6588 -1.0253
  295MOL0     H39766   8.442   3.303   7.648 -3.6135  1.1942 -2.3420
  295MOL0     H39767   8.469   3.124   7.652  0.0967 -0.8611 -2.5646
  295MOL0     H39768   8.625   3.135   7.470  3.5854 -0.3021  1.8889
  295MOL0     H39769   8.603   3.312   7.455 -1.8496  1.0672  1.0212
  295MOL0     H39770   8.738   3.311   7.695  1.8537  0.3030 -0.3502
  295MOL0     H39771   8.717   3.144   7.698  1.7221  0.8987  1.7740
  295MOL0     H39772   8.854   3.261   7.456 -1.7737 -1.7487 -0.9270
  295MOL0     H39773   8.846   3.096   7.499 -1.4973 -0.9419  1.4196
  295MOL0     H39774   8.956   3.309   7.692 -2.0848 -0.0004 -0.7776
  295MOL0     H39775   8.976   3.135   7.705  1.0181  0.2477  1.6440
  295MOL0     H39776   9.062   3.104   7.377 -2.2184  2.4560  0.3173
  295MOL0     H39777   9.423   3.034   7.354 -0.1714  0.4170  1.0556
  295MOL0     H39778   9.278   3.074   7.248 -1.6939 -1.4885  1.7798
  295MOL0     H39779   9.524   3.247   7.311  0.0265  1.8343 -1.2952
  295MOL0     H39780   9.492   3.183   7.161  0.5805 -2.5546  0.7301
  295MOL0     H39781   9.450   3.421   7.166  0.1604  0.5889 -0.1160
  295MOL0     H39782   9.348   3.392   7.316 -0.9757 -2.7143 -0.2256
  295MOL0     H39783   9.209   3.429   7.097  0.4901 -0.4285  0.0201
  295MOL0     H39784   9.181   3.305   7.206  0.4801  1.5000  1.7499
  295MOL0     H39785   9.309   3.046   6.878  0.6321  3.1798  1.5971
  295MOL0     H39786   9.123   2.898   6.772  3.1568 -0.1634  0.9543
  295MOL0     H39787   8.680   2.681   6.982 -0.8481  0.7562  1.9647
  295MOL0     H39788   8.482   2.550   6.919  0.2561  0.4585  0.6938
  295MOL0     H39789   8.155   2.672   6.674  1.3380 -0.0530  2.1320
  295MOL0     H39790   8.274   2.620   6.541  0.3098  1.4843  1.1667
  295MOL0     H39791   8.188   2.393   6.587  0.2949 -1.7586  3.3202
  295MOL0     H39792   8.088   2.440   6.718  3.0035 -0.9905  1.5881
  295MOL0     H39793   7.959   2.592   6.573  1.2883  0.6146 -0.8493
  295MOL0     H39794   8.035   2.527   6.430  0.6756  2.2810  0.5181
  295MOL0     H39795   7.879   2.362   6.637  0.5836  1.0036  0.6391
  295MOL0     H39796   7.965   2.291   6.501  3.4933  1.3356 -1.1805
  295MOL0     H39797   7.793   2.381   6.347 -2.6635 -0.1234 -0.0810
  295MOL0     H39798   7.772   2.506   6.468  1.7403 -0.7343 -1.3443
  295MOL0     H39799   7.698   2.203   6.518  0.1241 -0.3909 -1.0888
  295MOL0     H39800   7.639   2.350   6.603  0.0946  0.1236 -0.2273
  295MOL0     H39801   7.576   2.295   6.308  1.9434  0.3885 -0.0101
  295MOL0     H39802   7.521   2.427   6.411  2.0332  0.2738  3.0815
  295MOL0     H39803   7.379   2.182   6.367 -2.4102  0.0074  0.9844
  295MOL0     H39804   7.471   2.150   6.499  3.2311  0.4280 -1.4354
  295MOL0     H39805   8.379   2.806   6.613  0.8565 -0.7256 -0.3680
  295MOL0     H39806   8.560   2.971   6.691  0.0665  0.2568 -0.7721
  295MOL0     H39807   8.824   3.157   6.959 -1.0629  1.0346 -2.1156
  295MOL0     H39808   8.995   3.276   7.059  1.5601 -0.0196  0.0719
  295MOL0     H39809   8.325   2.944   6.941 -0.3774  0.1513 -0.6826
  295MOL0     H39810   8.141   2.888   6.781 -0.6153 -1.1219  0.2085
  295MOL0     H39811   7.686   3.110   6.673  2.2085 -0.2873 -3.4517
  295MOL0     H39812   7.484   3.079   6.509 -0.3985  0.8611  0.7609
  295MOL0     H39813   7.257   2.734   6.534  1.8082  2.6703  1.5814
  295MOL0     H39814   7.371   2.679   6.395 -1.5924 -2.3107  2.7851
  295MOL0     H39815   7.217   2.833   6.261  0.2980 -3.0803 -0.7622
  295MOL0     H39816   7.108   2.838   6.394 -0.8674  0.3641 -1.1727
  295MOL0     H39817   7.081   2.587   6.362  0.4876 -0.2349 -0.0849
  295MOL0     H39818   7.220   2.579   6.253  0.4268  0.9160 -1.1568
  295MOL0     H39819   6.949   2.708   6.206 -0.3346 -0.7169 -0.1464
  295MOL0     H39820   7.091   2.746   6.103 -1.2878 -0.4987 -1.0274
  295MOL0     H39821   7.018   2.359   5.973  1.2942  0.8968  0.4058
  295MOL0     H39822   7.480   2.677   6.595  1.0067  0.8999  2.0665
  295MOL0     H39823   7.767   2.653   6.788 -0.3143  1.9261 -0.9004
  295MOL0     H39824   7.611   2.619   6.864  1.5842  1.6716  0.7200
  295MOL0     H39825   7.630   2.559   6.702 -1.2166  0.6162 -0.8590
  296MOL0     O39826   7.200   0.700   2.332 -0.0408 -0.6310 -0.1607
  296MOL0     C39827   7.104   0.666   2.262 -0.2198 -0.3170  0.4737
  296MOL0     O39828   7.125   0.586   2.157 -0.2385  0.2517 -0.5649
  296MOL0     C39829   7.258   0.549   2.139 -0.2618  0.5507 -0.5641
  296MOL0     C39830   7.307   0.435   2.199  0.4122  0.2645  0.6678
  296MOL0     C39831   7.435   0.397   2.182  0.2125 -0.0659  0.2538
  296MOL0     C39832   7.529   0.481   2.120  0.0827 -0.3963 -0.5323
  296MOL0     O39833   7.662   0.451   2.123  0.3422  0.3885  0.2180
  296MOL0     C39834   7.752   0.524   2.039 -0.9357 -0.1330 -0.3021
  296MOL0     C39835   7.874   0.430   2.030  0.1810 -0.2560  0.0383
  296MOL0     C39836   7.855   0.297   1.953 -0.1114 -0.2528 -0.1574
  296MOL0     C39837   7.977   0.209   1.946 -0.2634  0.3228  0.6639
  296MOL0     C39838   7.993   0.131   2.074 -0.0181  0.0105  0.1615
  296MOL0     C39839   8.077   0.006   2.069  0.2023  0.3872  0.4409
  296MOL0     C39840   8.196  -0.002   1.970 -0.7640  0.1912 -0.0121
  296MOL0     C39841   8.290  -0.118   1.989  0.0627  0.3059  0.1314
  296MOL0     N39842   8.398  -0.131   1.888  0.0123 -0.1580  0.0111
  296MOL0     C39843   8.506  -0.048   1.869 -0.0649  0.1649 -0.3427
  296MOL0     C39844   8.577  -0.112   1.773 -0.8284  0.5098 -0.0780
  296MOL0     C39845   8.712  -0.056   1.736 -1.2596  0.5840  0.2621
  296MOL0     C39846   8.831  -0.107   1.828 -0.8661  0.1658  0.4882
  296MOL0     C39847   8.950  -0.014   1.801 -0.3196  0.6299 -1.0059
  296MOL0     C39848   9.016  -0.022   1.659  0.5983 -0.2056 -1.0592
  296MOL0     O39849   9.136   0.058   1.660 -0.0909  0.1579 -0.1573
  296MOL0     C39850   9.255   0.018   1.725 -0.7341 -0.0971 -0.9658
  296MOL0     C39851   9.292  -0.118   1.762 -1.1450 -0.1913  0.6158
  296MOL0     C39852   9.423  -0.141   1.813  0.1454 -0.3765 -0.5944
  296MOL0     C39853   9.519  -0.042   1.829 -0.2938 -0.2549  0.0555
  296MOL0     C39854   9.658  -0.066   1.875  0.4837  0.0137 -1.0745
  296MOL0     O39855   9.702  -0.189   1.911  0.8881  0.1423 -0.1578
  296MOL0     C39856   9.830  -0.214   1.952  0.0435  0.3282 -0.1155
  296MOL0     C39857   9.937  -0.241   1.857  0.1981 -0.0531 -1.2009
  296MOL0     C39858  10.055  -0.290   1.897  0.1584 -0.0333 -0.3611
  296MOL0     C39859  10.080  -0.318   2.030 -0.0840 -0.2431 -1.1514
  296MOL0     O39860  10.198  -0.345   2.102  0.3816  0.6008 -0.2733
  296MOL0     C39861  10.308  -0.381   2.010  0.0514  0.1055 -0.9304
  296MOL0     C39862  10.433  -0.404   2.087  0.7578  0.8277 -0.7486
  296MOL0     C39863  10.536  -0.473   1.994 -0.3419  0.1172  0.2687
  296MOL0     C39864  10.660  -0.509   2.062 -0.1977  0.3535 -0.1634
  296MOL0     C39865  10.756  -0.581   1.956  0.6203  0.2692 -0.2606
  296MOL0     C39866  10.904  -0.593   1.993 -0.3708 -0.2422  0.6998
  296MOL0     C39867  10.920  -0.693   2.112 -0.5564 -0.4567 -0.7483
  296MOL0     C39868  11.073  -0.707   2.137  0.6004  0.1846 -0.5324
  296MOL0    Cl39869  11.106  -0.807   2.290 -0.2868 -0.2274 -0.0360
  296MOL0     C39870   9.982  -0.286   2.122  0.6381 -0.6294 -0.7814
  296MOL0     C39871   9.860  -0.224   2.088  0.3396  0.4203  0.2171
  296MOL0     O39872   9.729   0.032   1.881  0.1867  0.8653 -0.0879
  296MOL0     C39873   9.475   0.090   1.809 -0.6115  0.7714  0.2190
  296MOL0     C39874   9.348   0.113   1.748 -0.3750 -0.2195  0.1055
  296MOL0     N39875   8.510  -0.224   1.725  0.0556  0.0835  0.3409
  296MOL0     N39876   8.404  -0.230   1.791  0.4958 -0.2472  0.1111
  296MOL0     C39877   7.481   0.596   2.061  1.5670 -0.2174 -0.9930
  296MOL0     C39878   7.344   0.635   2.077  0.2200 -0.8152  0.9113
  296MOL0     C39879   6.970   0.717   2.291 -1.3927 -0.1405  0.0325
  296MOL0     C39880   6.872   0.622   2.279 -0.4477  0.3923  0.2400
  296MOL0     C39881   6.738   0.660   2.321  0.0855 -0.4390  0.3081
  296MOL0     C39882   6.706   0.790   2.356 -0.2427 -0.1880  0.5115
  296MOL0     O39883   6.582   0.843   2.388  0.0286 -0.7538  1.0474
  296MOL0     C39884   6.471   0.756   2.385  0.8230 -0.4112 -0.6658
  296MOL0     C39885   6.344   0.831   2.431  0.4983  0.4047 -0.2711
  296MOL0     C39886   6.290   0.920   2.318 -0.0094 -1.1229  0.0867
  296MOL0     C39887   6.213   1.039   2.369 -0.0357  0.0663  0.0123
  296MOL0     C39888   6.166   1.141   2.275 -0.3048  0.7209  0.9305
  296MOL0     C39889   6.125   1.229   2.210  0.4951 -0.0172  0.9561
  296MOL0     C39890   6.815   0.881   2.362 -0.2361  0.0039  0.1342
  296MOL0     C39891   6.947   0.847   2.331  0.2141 -0.3695 -0.1582
  296MOL0     C39892   7.054   0.959   2.347  0.4214 -0.1077  0.2311
  296MOL0     H39893   7.236   0.365   2.242 -1.0487  0.4100 -1.3815
  296MOL0     H39894   7.450   0.301   2.229 -0.5291  1.2660  3.4494
  296MOL0     H39895   7.722   0.546   1.936 -0.0186 -1.0678 -0.7922
  296MOL0     H39896   7.780   0.614   2.094 -0.0150  0.3629 -1.5198
  296MOL0     H39897   7.895   0.403   2.134 -2.5265  1.9369  1.2696
  296MOL0     H39898   7.954   0.490   1.986  0.7227  1.0794  2.6430
  296MOL0     H39899   7.819   0.322   1.852 -0.0741 -0.9994 -0.3616
  296MOL0     H39900   7.779   0.237   2.004  1.7530 -1.1109  1.7316
  296MOL0     H39901   7.981   0.143   1.858 -1.3341  0.2197  0.6814
  296MOL0     H39902   8.064   0.275   1.941 -0.9508  1.2481  0.6728
  296MOL0     H39903   8.039   0.203   2.142  3.7003 -0.1584 -1.8835
  296MOL0     H39904   7.897   0.096   2.111 -0.3164 -0.7360 -1.2255
  296MOL0     H39905   8.113  -0.008   2.171 -0.3093 -0.5476  0.5027
  296MOL0     H39906   8.014  -0.080   2.043  1.2685 -0.0501 -0.8013
  296MOL0     H39907   8.248   0.090   1.997 -2.4346  0.5601  2.1998
  296MOL0     H39908   8.158  -0.001   1.868 -1.2214 -0.4731  0.1436
  296MOL0     H39909   8.329  -0.126   2.091  1.3089 -1.0265 -0.4075
  296MOL0     H39910   8.226  -0.201   1.958 -1.6684  1.3808  0.6914
  296MOL0     H39911   8.541   0.039   1.923 -0.8224 -0.6772  1.6085
  296MOL0     H39912   8.736  -0.076   1.631 -1.8529  1.7596 -0.1172
  296MOL0     H39913   8.704   0.052   1.751 -0.6593  0.9242 -1.6221
  296MOL0     H39914   8.786  -0.094   1.926 -3.1752 -1.5159 -0.2682
  296MOL0     H39915   8.842  -0.216   1.815 -1.2909 -0.0307  1.6362
  296MOL0     H39916   9.029  -0.049   1.869 -0.2881 -1.2106 -1.9103
  296MOL0     H39917   8.921   0.087   1.829 -1.0896  0.0268  0.4959
  296MOL0     H39918   8.948   0.020   1.585  0.8383  1.0941 -0.5746
  296MOL0     H39919   9.037  -0.127   1.634  0.6836 -0.8038  1.2889
  296MOL0     H39920   9.224  -0.200   1.741  1.2800 -1.3733 -3.8679
  296MOL0     H39921   9.448  -0.243   1.840 -0.8301 -0.4452  0.1212
  296MOL0     H39922   9.910  -0.225   1.753 -1.3027 -0.7077 -0.9503
  296MOL0     H39923  10.122  -0.297   1.812 -1.0468  0.7034 -1.4092
  296MOL0     H39924  10.280  -0.468   1.949 -0.2824  0.1543 -0.8471
  296MOL0     H39925  10.314  -0.291   1.948 -1.9603  1.8289  1.2211
  296MOL0     H39926  10.477  -0.311   2.122  1.1179  0.0850  0.8520
  296MOL0     H39927  10.405  -0.469   2.171  0.8177  2.4026  0.5270
  296MOL0     H39928  10.496  -0.559   1.941 -1.5353  0.5443  0.4527
  296MOL0     H39929  10.559  -0.398   1.918  3.1628  0.3721  1.3741
  296MOL0     H39930  10.646  -0.584   2.141  2.7535  0.5098  0.6238
  296MOL0     H39931  10.707  -0.420   2.105 -0.1457 -0.0255  0.5995
  296MOL0     H39932  10.754  -0.526   1.862 -0.2944  0.5506 -0.0903
  296MOL0     H39933  10.718  -0.683   1.944 -0.1712  0.5238 -0.0158
  296MOL0     H39934  10.969  -0.631   1.914  1.4065  1.8794  1.0229
  296MOL0     H39935  10.945  -0.493   2.014  0.8455 -0.2865 -1.1824
  296MOL0     H39936  10.864  -0.784   2.088 -0.0428 -1.1141  0.4618
  296MOL0     H39937  10.877  -0.650   2.203  3.2396  0.5924  0.7690
  296MOL0     H39938  11.115  -0.760   2.050 -1.8934  5.5836 -5.6981
  296MOL0     H39939  11.123  -0.612   2.153  0.5700 -0.0979  1.4591
  296MOL0     H39940  10.008  -0.284   2.228 -0.6563 -0.5536 -0.4501
  296MOL0     H39941   9.788  -0.205   2.167 -1.6104  0.7268 -1.5334
  296MOL0     H39942   9.540   0.175   1.825  0.5932 -0.2206  0.7762
  296MOL0     H39943   9.318   0.214   1.720  0.2371  0.5179  1.9417
  296MOL0     H39944   7.550   0.673   2.028  2.8982 -0.0235  1.8998
  296MOL0     H39945   7.307   0.728   2.034 -1.5620 -2.7153 -2.0140
  296MOL0     H39946   6.880   0.519   2.245 -1.5155  0.0642  0.9303
  296MOL0     H39947   6.657   0.588   2.317 -1.6936  1.3294  2.2818
  296MOL0     H39948   6.495   0.671   2.450 -0.0757 -0.9797 -1.0666
  296MOL0     H39949   6.460   0.716   2.284  0.9215 -0.4241 -0.6712
  296MOL0     H39950   6.379   0.893   2.514 -0.3555 -0.1962  0.5631
  296MOL0     H39951   6.277   0.762   2.484  0.6681  0.4563  0.0161
  296MOL0     H39952   6.210   0.878   2.257 -1.6493  2.0346 -0.1767
  296MOL0     H39953   6.374   0.961   2.260 -1.1009  0.8983 -0.1687
  296MOL0     H39954   6.115   1.017   2.413 -1.9724  2.3004 -2.7560
  296MOL0     H39955   6.271   1.086   2.449 -0.1678  0.2939 -0.0223
  296MOL0     H39956   6.084   1.303   2.144 -0.1231 -0.2042  1.1278
  296MOL0     H39957   6.789   0.983   2.387 -1.5197 -0.4045  0.5555
  296MOL0     H39958   6.992   1.049   2.343 -3.3582 -2.5396 -1.9374
  296MOL0     H39959   7.112   0.951   2.439  1.4283 -2.5511 -0.5421
  296MOL0     H39960   7.122   0.970   2.262  0.1232  0.8544  0.0979
  297MOL0     O39961   1.067   9.546  11.403  0.3856 -0.7219 -0.4188
  297MOL0     C39962   1.086   9.452  11.480 -0.8558  0.4594 -0.4838
  297MOL0     O39963   0.992   9.364  11.530  0.4039 -0.5498  0.0400
  297MOL0     C39964   0.870   9.337  11.466  0.0681 -0.2755  0.0102
  297MOL0     C39965   0.786   9.241  11.531 -0.5886 -0.0582  0.7292
  297MOL0     C39966   0.676   9.183  11.458  0.4489  0.0617 -0.9181
  297MOL0     C39967   0.643   9.233  11.338  0.0880  0.3186  0.5567
  297MOL0     O39968   0.543   9.171  11.269 -0.5480 -0.5617  0.3711
  297MOL0     C39969   0.477   9.263  11.174 -1.1168 -0.0755 -0.1805
  297MOL0     C39970   0.344   9.184  11.151 -0.1574 -0.3352  0.0802
  297MOL0     C39971   0.357   9.100  11.023  0.3792  0.0686 -0.5376
  297MOL0     C39972   0.290   8.959  11.054 -0.2833 -0.0647 -0.4774
  297MOL0     C39973   0.291   8.873  10.923 -0.9409  0.4853  0.2816
  297MOL0     C39974   0.204   8.927  10.803  0.6857 -1.0621 -0.3383
  297MOL0     C39975   0.058   8.952  10.850  0.5713  0.6130  0.5880
  297MOL0     C39976  -0.039   8.983  10.740 -0.8868  0.7268 -0.2826
  297MOL0     N39977  -0.056   8.886  10.629 -0.3252 -0.3427 -0.2326
  297MOL0     C39978  -0.071   8.753  10.653  0.2308 -1.1316  0.7918
  297MOL0     C39979  -0.074   8.704  10.535  0.2165 -0.0350 -0.2503
  297MOL0     C39980  -0.097   8.561  10.506 -1.0427  0.5914 -0.8177
  297MOL0     C39981  -0.228   8.533  10.430  0.5521  0.1187 -0.7502
  297MOL0     C39982  -0.235   8.392  10.372 -0.4930 -0.2802  0.4194
  297MOL0     C39983  -0.345   8.393  10.261 -0.3946  0.2014 -0.7308
  297MOL0     O39984  -0.366   8.256  10.209  0.1658 -0.5156  0.0610
  297MOL0     C39985  -0.466   8.238  10.126  0.2199  0.6005  0.3750
  297MOL0     C39986  -0.588   8.306  10.118 -0.0234 -0.4491  0.5950
  297MOL0     C39987  -0.691   8.266  10.041 -0.1302 -0.3820 -0.0817
  297MOL0     C39988  -0.679   8.152   9.958 -0.0126 -0.2943  0.1113
  297MOL0     C39989  -0.796   8.110   9.875 -0.2277 -0.2142 -1.4631
  297MOL0     O39990  -0.919   8.137   9.918  0.8665 -0.6214 -0.0094
  297MOL0     C39991  -1.022   8.121   9.826  0.6127 -1.0017  1.0888
  297MOL0     C39992  -1.039   8.211   9.719 -0.5573  0.4463  0.5459
  297MOL0     C39993  -1.132   8.175   9.615  0.7918  0.5110 -0.7271
  297MOL0     C39994  -1.211   8.057   9.626 -0.4073 -0.5084 -1.2309
  297MOL0     O39995  -1.277   8.022   9.509  0.0499  0.2637 -1.0467
  297MOL0     C39996  -1.396   7.930   9.520 -0.7096 -0.3255  0.5171
  297MOL0     C39997  -1.472   7.953   9.389  0.6962 -0.5310  0.5770
  297MOL0     C39998  -1.443   7.846   9.286 -0.5881 -0.1659 -0.0763
  297MOL0     C39999  -1.551   7.734   9.288  0.7363 -0.6568 -0.1348
  297MOL0     C40000  -1.556   7.643   9.162  0.3256 -0.5682 -0.1249
  297MOL0     C40001  -1.571   7.722   9.031  0.2070  0.1715 -0.9265
  297MOL0     C40002  -1.605   7.623   8.916  0.0990  0.1642 -0.4029
  297MOL0     C40003  -1.740   7.534   8.926  0.0182 -0.7136  0.2927
  297MOL0    Cl40004  -1.883   7.633   8.911  0.3267 -0.0214 -0.6052
  297MOL0     C40005  -1.210   7.985   9.746  0.3863  1.2878  0.8358
  297MOL0     C40006  -1.115   8.021   9.849  0.4245  0.1212 -0.3121
  297MOL0     O40007  -0.761   8.058   9.772 -0.3945 -0.3552 -0.3024
  297MOL0     C40008  -0.554   8.076   9.962  0.6225 -0.4224  0.8150
  297MOL0     C40009  -0.450   8.122  10.048  0.2772 -0.9132 -0.0439
  297MOL0     N40010  -0.068   8.805  10.444 -0.5776  1.0189  0.1981
  297MOL0     N40011  -0.047   8.912  10.498 -0.4945  0.2232  0.4368
  297MOL0     C40012   0.733   9.322  11.271 -0.2617 -0.0479  0.2910
  297MOL0     C40013   0.844   9.370  11.333  0.2806  0.2586  0.3618
  297MOL0     C40014   1.216   9.461  11.548 -0.0511 -0.2353  0.4050
  297MOL0     C40015   1.283   9.592  11.561  0.0720  0.8695  0.3180
  297MOL0     C40016   1.416   9.596  11.617  0.2674  0.0184  0.1956
  297MOL0     C40017   1.482   9.481  11.661  0.5181 -0.6646 -0.7573
  297MOL0     O40018   1.609   9.489  11.722 -0.4245  0.0760 -0.4756
  297MOL0     C40019   1.679   9.368  11.759  0.4629  0.3679 -0.4108
  297MOL0     C40020   1.815   9.410  11.781  0.0273  0.3373  0.2977
  297MOL0     C40021   1.906   9.284  11.807  0.1107 -0.4186 -0.8019
  297MOL0     C40022   2.051   9.319  11.845 -0.2345  0.0244  1.4218
  297MOL0     C40023   2.079   9.276  11.984 -0.3284  0.4564 -0.3324
  297MOL0     C40024   2.120   9.242  12.093  0.5101 -0.2560 -0.0622
  297MOL0     C40025   1.401   9.364  11.666 -0.5735  0.1682  0.1977
  297MOL0     C40026   1.276   9.349  11.602  0.7295  1.3905  0.0886
  297MOL0     C40027   1.224   9.212  11.570  0.1653  0.6205  0.1758
  297MOL0     H40028   0.811   9.215  11.634 -2.5463  2.4757  1.9553
  297MOL0     H40029   0.612   9.103  11.494  1.2586 -0.5434 -0.8006
  297MOL0     H40030   0.446   9.360  11.214 -0.3102 -0.8751  2.6490
  297MOL0     H40031   0.537   9.282  11.085  0.3076 -1.0861  0.5179
  297MOL0     H40032   0.262   9.256  11.138  0.9165  1.1644  1.3454
  297MOL0     H40033   0.323   9.124  11.240 -0.5986 -0.7119 -0.2698
  297MOL0     H40034   0.462   9.077  11.003 -0.6513 -6.3228 -0.5566
  297MOL0     H40035   0.317   9.153  10.936 -0.9298 -0.8344 -0.5085
  297MOL0     H40036   0.342   8.911  11.137 -1.0763  1.8652  1.2040
  297MOL0     H40037   0.188   8.973  11.088 -0.6429 -1.1221 -1.0730
  297MOL0     H40038   0.394   8.867  10.887 -1.3822  0.9623 -1.1104
  297MOL0     H40039   0.252   8.776  10.956  1.1841 -0.2790  0.6714
  297MOL0     H40040   0.255   9.010  10.753  0.6486 -0.4986  0.5337
  297MOL0     H40041   0.205   8.854  10.722 -2.0028  0.2917 -1.7274
  297MOL0     H40042   0.046   9.037  10.918 -1.2069  0.8664  0.0086
  297MOL0     H40043   0.011   8.866  10.897 -0.7731  1.4213  0.7690
  297MOL0     H40044  -0.140   9.012  10.772 -0.9017  4.0899 -2.7719
  297MOL0     H40045   0.003   9.077  10.704  2.5120 -0.2650  0.7094
  297MOL0     H40046  -0.067   8.698  10.746  4.4203 -1.2610  0.7126
  297MOL0     H40047  -0.011   8.530  10.445 -0.4402  2.1029 -0.7599
  297MOL0     H40048  -0.095   8.506  10.600 -1.1428 -1.0366 -1.7233
  297MOL0     H40049  -0.306   8.539  10.506  0.9868 -3.2052  0.1391
  297MOL0     H40050  -0.237   8.604  10.348  2.9457 -0.5881 -1.7141
  297MOL0     H40051  -0.267   8.326  10.453  2.1573 -0.8775  1.0799
  297MOL0     H40052  -0.138   8.350  10.341  0.3158 -0.6267  3.1552
  297MOL0     H40053  -0.306   8.452  10.178  0.2243  2.5452  1.1376
  297MOL0     H40054  -0.433   8.438  10.307  0.5495  0.4562  0.9149
  297MOL0     H40055  -0.606   8.395  10.177 -2.8016 -0.1011 -0.6269
  297MOL0     H40056  -0.784   8.321  10.047  0.0007 -0.1029 -0.5814
  297MOL0     H40057  -0.969   8.294   9.715 -0.4259  0.2959 -0.4034
  297MOL0     H40058  -1.143   8.232   9.523  1.8718  2.2793  0.1770
  297MOL0     H40059  -1.360   7.827   9.532  0.2756 -0.1790 -0.9596
  297MOL0     H40060  -1.463   7.955   9.603  1.7636  1.2182  2.1920
  297MOL0     H40061  -1.580   7.961   9.399  0.6798  0.5537 -0.2541
  297MOL0     H40062  -1.445   8.051   9.348 -1.7881  0.3002  0.7501
  297MOL0     H40063  -1.436   7.899   9.191 -0.8623 -0.5249 -0.3001
  297MOL0     H40064  -1.339   7.820   9.306  0.7431  3.4323 -1.5491
  297MOL0     H40065  -1.645   7.789   9.284  1.8301  1.4330  1.1596
  297MOL0     H40066  -1.539   7.682   9.384  2.7150  2.3998  1.4207
  297MOL0     H40067  -1.645   7.579   9.166 -1.5612  1.7969 -1.5587
  297MOL0     H40068  -1.472   7.573   9.164 -1.3974 -2.7916  1.6650
  297MOL0     H40069  -1.653   7.794   9.036 -1.5647 -1.8195  0.4104
  297MOL0     H40070  -1.472   7.769   9.023 -0.1486  1.8068  2.3696
  297MOL0     H40071  -1.517   7.558   8.917 -1.8607 -2.6761 -0.8205
  297MOL0     H40072  -1.610   7.681   8.823 -0.9922  2.9133  1.2462
  297MOL0     H40073  -1.743   7.452   8.855  2.5887 -0.9354  0.3605
  297MOL0     H40074  -1.728   7.482   9.021  2.6978 -3.5291 -1.3994
  297MOL0     H40075  -1.260   7.889   9.758  2.1584  0.5077  2.8202
  297MOL0     H40076  -1.120   7.974   9.947 -0.5091  0.3806 -0.2271
  297MOL0     H40077  -0.537   8.000   9.886  0.2094  1.5461 -1.3968
  297MOL0     H40078  -0.358   8.065  10.064 -0.9598 -2.3753  2.4937
  297MOL0     H40079   0.712   9.348  11.168  2.7571  0.4017 -0.3056
  297MOL0     H40080   0.911   9.441  11.284 -0.4974  0.2760 -0.7096
  297MOL0     H40081   1.229   9.683  11.535 -1.4772 -0.5639 -1.8817
  297MOL0     H40082   1.464   9.694  11.618 -0.1691  0.5002 -3.9919
  297MOL0     H40083   1.677   9.281  11.692  2.0901  1.8733 -2.5512
  297MOL0     H40084   1.631   9.323  11.846 -0.6229  0.0958 -1.1299
  297MOL0     H40085   1.807   9.484  11.861 -0.9954 -2.2664  2.7554
  297MOL0     H40086   1.852   9.461  11.691 -1.2080 -1.3285 -1.2198
  297MOL0     H40087   1.904   9.221  11.717  3.1708  0.8290 -1.8799
  297MOL0     H40088   1.861   9.231  11.891  0.4200  1.4989  0.6364
  297MOL0     H40089   2.115   9.265  11.774 -1.6240  0.7799 -0.4802
  297MOL0     H40090   2.066   9.427  11.835  3.1917 -0.4593  0.0998
  297MOL0     H40091   2.146   9.220  12.194  1.1109 -0.3645 -0.2389
  297MOL0     H40092   1.436   9.283  11.729  1.5448  1.4757  0.8081
  297MOL0     H40093   1.145   9.164  11.628 -0.9723 -0.0405 -1.8074
  297MOL0     H40094   1.201   9.211  11.463  1.2464 -1.1508 -0.0704
  297MOL0     H40095   1.302   9.139  11.593  0.1985  0.6376  0.1203
  298MOL0     O40096   9.943  10.547   5.839  0.2983  0.4377  0.1938
  298MOL0     C40097   9.874  10.449   5.817  0.0959  0.1032  0.0130
  298MOL0     O40098   9.799  10.430   5.702 -0.9481 -0.1390  0.2730
  298MOL0     C40099   9.809  10.534   5.612 -0.3056  0.2680  0.2760
  298MOL0     C40100   9.769  10.667   5.631  0.3911  0.0463  1.2492
  298MOL0     C40101   9.784  10.765   5.529  0.4404 -0.4691  0.6370
  298MOL0     C40102   9.845  10.736   5.407  0.6443 -0.5409  0.2477
  298MOL0     O40103   9.857  10.825   5.303  0.5145 -0.3487  0.2165
  298MOL0     C40104   9.950  10.927   5.308 -0.5127  0.7812 -0.0573
  298MOL0     C40105  10.088  10.886   5.269 -0.2931 -0.8741 -0.0641
  298MOL0     C40106  10.176  11.006   5.229 -0.5589 -0.2754 -0.0501
  298MOL0     C40107  10.325  10.975   5.204  0.6722 -0.2953  0.1025
  298MOL0     C40108  10.398  11.092   5.148 -0.5623 -0.3521  0.0922
  298MOL0     C40109  10.550  11.072   5.142 -0.1291  0.1501 -0.9649
  298MOL0     C40110  10.603  11.149   5.022  0.9106 -0.2853  0.3775
  298MOL0     C40111  10.656  11.291   5.049 -0.3234  0.7262 -0.6118
  298MOL0     N40112  10.783  11.273   5.130  0.3221  0.2587  0.3092
  298MOL0     C40113  10.872  11.173   5.111 -0.8691 -0.6970  0.0868
  298MOL0     C40114  10.962  11.192   5.205 -0.4278 -0.5737 -0.6726
  298MOL0     C40115  11.081  11.103   5.210 -0.7111  0.4665  0.1398
  298MOL0     C40116  11.202  11.181   5.263 -0.2948 -0.6652  0.1287
  298MOL0     C40117  11.332  11.116   5.226 -0.4279  0.1835  0.8701
  298MOL0     C40118  11.344  10.963   5.235  0.1912 -0.0270 -0.9379
  298MOL0     O40119  11.458  10.896   5.176  0.0236 -0.5392  0.2370
  298MOL0     C40120  11.572  10.879   5.249 -1.1817  1.0220 -1.0612
  298MOL0     C40121  11.600  10.938   5.374  0.2102 -0.5820 -1.1853
  298MOL0     C40122  11.721  10.903   5.440  0.0962  0.7740  0.6755
  298MOL0     C40123  11.806  10.801   5.387  0.2715 -0.4194  0.5700
  298MOL0     C40124  11.933  10.767   5.453 -0.3816  0.6240 -0.2531
  298MOL0     O40125  12.030  10.690   5.382 -0.6017 -0.1750  0.4034
  298MOL0     C40126  12.137  10.624   5.433  0.7151 -0.6373  0.4388
  298MOL0     C40127  12.113  10.484   5.444 -0.8349  0.6747 -0.1417
  298MOL0     C40128  12.218  10.399   5.460  0.2603  0.3781 -0.9867
  298MOL0     C40129  12.350  10.450   5.493  0.1786 -0.8743  0.0588
  298MOL0     O40130  12.452  10.365   5.518 -0.2352  0.6543 -0.0650
  298MOL0     C40131  12.566  10.405   5.599 -0.2990 -0.6710  0.2207
  298MOL0     C40132  12.653  10.278   5.636 -0.9986 -1.9558  0.2381
  298MOL0     C40133  12.725  10.240   5.510  0.5056 -0.0828  0.2961
  298MOL0     C40134  12.822  10.129   5.539 -0.0199  0.0853 -0.4774
  298MOL0     C40135  12.872  10.079   5.404 -0.0975  0.3344  0.1024
  298MOL0     C40136  12.935   9.943   5.403  0.3454  0.0078  0.1211
  298MOL0     C40137  13.064   9.944   5.499 -0.5849  0.2940 -0.0900
  298MOL0     C40138  13.188  10.011   5.453 -0.3634  0.4894 -0.8756
  298MOL0    Cl40139  13.181  10.187   5.444  0.0168  0.4028  0.0048
  298MOL0     C40140  12.364  10.590   5.516 -0.0966 -0.1396  0.8634
  298MOL0     C40141  12.259  10.679   5.478 -0.1170 -0.2855  0.4647
  298MOL0     O40142  11.943  10.801   5.570 -0.0485  0.4385 -0.2692
  298MOL0     C40143  11.783  10.748   5.260 -0.0586  0.3279 -0.1738
  298MOL0     C40144  11.666  10.784   5.193  0.4347  0.1784  0.5209
  298MOL0     N40145  10.927  11.293   5.288 -0.1690 -0.1850  0.7270
  298MOL0     N40146  10.809  11.335   5.246 -0.4738 -0.3415  0.0766
  298MOL0     C40147   9.877  10.609   5.380  1.0102 -1.0861  0.1764
  298MOL0     C40148   9.863  10.510   5.484  0.4295  0.0653  1.0364
  298MOL0     C40149   9.885  10.338   5.909 -0.0317 -0.1517 -0.7293
  298MOL0     C40150   9.996  10.332   6.007  0.6763 -1.2863  0.8962
  298MOL0     C40151  10.013  10.227   6.091 -0.5836  0.6272  0.1061
  298MOL0     C40152   9.906  10.129   6.103 -0.0480  0.4913 -0.4162
  298MOL0     O40153   9.908  10.039   6.207 -0.4718  0.5612 -0.3255
  298MOL0     C40154  10.030   9.982   6.250 -0.4622  0.5486 -0.0668
  298MOL0     C40155  10.031   9.863   6.348  0.1047  0.2692  0.1149
  298MOL0     C40156   9.923   9.759   6.294 -0.8288  0.3114 -0.4432
  298MOL0     C40157   9.905   9.623   6.374  0.2974 -0.1241 -1.3882
  298MOL0     C40158  10.014   9.524   6.365  0.8826 -0.1111 -0.1503
  298MOL0     C40159  10.098   9.443   6.354 -0.6460 -0.1867 -0.5004
  298MOL0     C40160   9.802  10.136   6.014  0.4315 -0.3718  0.2879
  298MOL0     C40161   9.785  10.246   5.919  0.6392  0.1653  0.1213
  298MOL0     C40162   9.649  10.249   5.849  0.5690  0.1580 -0.5694
  298MOL0     H40163   9.735  10.688   5.732 -1.3112  0.1515  0.6854
  298MOL0     H40164   9.750  10.866   5.546  0.9041  0.3761 -2.7525
  298MOL0     H40165   9.923  10.997   5.228  0.1969  0.8558 -0.2320
  298MOL0     H40166   9.947  10.984   5.400 -0.1410 -1.4526  1.4191
  298MOL0     H40167  10.087  10.811   5.189  1.7175 -0.7510 -0.2682
  298MOL0     H40168  10.127  10.832   5.356 -1.7424 -3.3921 -0.8694
  298MOL0     H40169  10.162  11.087   5.301  1.4175  0.8418 -0.8463
  298MOL0     H40170  10.124  11.053   5.146 -1.7512 -0.0688  0.7902
  298MOL0     H40171  10.367  10.938   5.298  1.6692  0.4598 -0.0341
  298MOL0     H40172  10.320  10.891   5.135  1.1774  0.9866 -1.5577
  298MOL0     H40173  10.363  11.115   5.046  1.4667 -3.0646 -1.3423
  298MOL0     H40174  10.386  11.183   5.207  0.1294 -0.2889  0.1330
  298MOL0     H40175  10.591  11.101   5.239 -0.5392  0.9984 -1.0359
  298MOL0     H40176  10.567  10.966   5.119 -0.4356  0.4728 -2.7695
  298MOL0     H40177  10.523  11.160   4.949  0.2223  0.1476  1.1834
  298MOL0     H40178  10.675  11.087   4.967 -1.2253 -1.4632 -1.2545
  298MOL0     H40179  10.669  11.347   4.956 -0.5230 -1.8411 -2.2978
  298MOL0     H40180  10.577  11.344   5.103 -1.0918  0.1643 -1.1686
  298MOL0     H40181  10.868  11.099   5.032  1.0233  1.1879 -1.9151
  298MOL0     H40182  11.061  11.026   5.285 -0.8676 -1.0412 -1.3735
  298MOL0     H40183  11.091  11.064   5.108  1.2386  0.0706  0.4422
  298MOL0     H40184  11.193  11.286   5.233 -2.9121 -0.7259  0.4337
  298MOL0     H40185  11.200  11.179   5.372 -2.3521  1.4954  0.2330
  298MOL0     H40186  11.400  11.154   5.304  0.8379 -0.5164  0.1369
  298MOL0     H40187  11.357  11.157   5.128  0.0656 -2.9169 -0.4237
  298MOL0     H40188  11.254  10.916   5.194  0.9028 -1.9495 -0.3619
  298MOL0     H40189  11.343  10.942   5.342  2.2194 -2.1587 -1.2619
  298MOL0     H40190  11.528  11.009   5.416  1.8390  0.8186 -0.6122
  298MOL0     H40191  11.750  10.955   5.531  0.2033  1.9184 -0.0001
  298MOL0     H40192  12.015  10.440   5.425 -0.5754 -0.6330  1.2998
  298MOL0     H40193  12.212  10.291   5.472 -0.2865  0.6770  2.4103
  298MOL0     H40194  12.623  10.479   5.542 -0.6914 -2.0348 -2.0783
  298MOL0     H40195  12.533  10.445   5.696  2.2006  0.0979  0.8126
  298MOL0     H40196  12.718  10.309   5.718 -2.2505  2.4929 -0.1707
  298MOL0     H40197  12.581  10.204   5.672 -0.1829 -1.5111  3.0523
  298MOL0     H40198  12.652  10.206   5.436  0.3206 -2.0422  1.3228
  298MOL0     H40199  12.779  10.326   5.469  1.7663 -1.7168 -1.6824
  298MOL0     H40200  12.772  10.052   5.598  0.9770  0.5920  1.0640
  298MOL0     H40201  12.911  10.155   5.597 -0.3873  1.0562 -0.3328
  298MOL0     H40202  12.941  10.150   5.358  2.4765 -1.4371  1.0016
  298MOL0     H40203  12.786  10.073   5.337  0.1186  0.5033 -0.1890
  298MOL0     H40204  12.865   9.866   5.437  0.2956 -0.6146 -1.3290
  298MOL0     H40205  12.970   9.919   5.303  0.4230 -1.1694  0.4214
  298MOL0     H40206  13.085   9.839   5.522 -0.3255  0.0731 -1.2713
  298MOL0     H40207  13.034   9.978   5.598  0.7651 -0.4993  0.6322
  298MOL0     H40208  13.269   9.991   5.525  1.1077  2.3892 -1.8944
  298MOL0     H40209  13.226   9.959   5.365  0.3911 -0.7453  0.1506
  298MOL0     H40210  12.456  10.636   5.552 -1.2264  3.6728 -0.6186
  298MOL0     H40211  12.276  10.786   5.475  1.5915 -0.5473 -2.1300
  298MOL0     H40212  11.864  10.688   5.218 -0.8277  0.3397 -1.7268
  298MOL0     H40213  11.635  10.741   5.098  2.0571  0.7063 -0.2769
  298MOL0     H40214   9.914  10.582   5.282  1.0906 -3.5789  0.8220
  298MOL0     H40215   9.901  10.411   5.461  0.8144  1.0383 -3.4165
  298MOL0     H40216  10.065  10.414   6.023 -3.3511  2.2778  1.8364
  298MOL0     H40217  10.100  10.233   6.155  0.3504  1.7459 -1.2221
  298MOL0     H40218  10.096  10.055   6.298 -2.4887  1.9429  0.7634
  298MOL0     H40219  10.080   9.934   6.166 -1.8037 -0.8504 -0.1065
  298MOL0     H40220  10.009   9.890   6.452 -2.6101  0.7995 -0.4999
  298MOL0     H40221  10.127   9.811   6.349  0.0306 -0.2682 -4.2176
  298MOL0     H40222   9.940   9.725   6.192 -3.6719 -0.2333 -0.8328
  298MOL0     H40223   9.827   9.811   6.296 -1.0783 -0.1224  1.9696
  298MOL0     H40224   9.887   9.651   6.479  1.0664 -0.3999 -1.1734
  298MOL0     H40225   9.815   9.576   6.335 -1.6819  0.8064  1.6929
  298MOL0     H40226  10.190   9.387   6.358  0.4733  1.6244  1.6777
  298MOL0     H40227   9.728  10.058   6.032 -0.1567  0.4655  1.6538
  298MOL0     H40228   9.593  10.336   5.885  1.7167  0.0811  1.6320
  298MOL0     H40229   9.648  10.243   5.740 -0.9771  1.8706 -0.7095
  298MOL0     H40230   9.591  10.158   5.867  1.4127 -0.7981 -2.4695
  299MOL0     O40231   6.364   3.805   3.703  0.1883 -0.2158  0.2680
  299MOL0     C40232   6.407   3.895   3.771 -0.1392 -0.0515  0.4574
  299MOL0     O40233   6.371   4.026   3.766  0.8838  0.1940 -0.1922
  299MOL0     C40234   6.286   4.077   3.667  0.4191  0.0341  1.0314
  299MOL0     C40235   6.150   4.061   3.665 -1.0638 -0.5416  0.1925
  299MOL0     C40236   6.072   4.104   3.560  0.3324 -0.6716 -0.7857
  299MOL0     C40237   6.131   4.170   3.443  0.0997  0.2029  0.6178
  299MOL0     O40238   6.065   4.204   3.328  0.3389  0.7167 -0.2228
  299MOL0     C40239   5.945   4.133   3.300  0.7184  0.1563  0.5016
  299MOL0     C40240   5.839   4.232   3.330  0.5953  0.8900  0.5358
  299MOL0     C40241   5.702   4.175   3.316 -1.3704  0.7598  0.8371
  299MOL0     C40242   5.600   4.284   3.265 -0.5463  0.9608 -0.8749
  299MOL0     C40243   5.585   4.399   3.369  0.2913 -0.2505  0.0398
  299MOL0     C40244   5.450   4.469   3.373 -0.3115 -0.1728  0.0843
  299MOL0     C40245   5.415   4.528   3.506  0.1955  0.7121  0.3541
  299MOL0     C40246   5.278   4.594   3.512 -0.3709 -0.4487  0.1443
  299MOL0     N40247   5.272   4.707   3.412 -0.7198 -0.1724 -0.0879
  299MOL0     C40248   5.338   4.824   3.423  0.9718  0.6769 -0.2778
  299MOL0     C40249   5.326   4.883   3.290 -0.1844  0.5741 -0.9150
  299MOL0     C40250   5.377   5.013   3.258 -0.3160 -1.0406 -0.1111
  299MOL0     C40251   5.522   5.024   3.209  0.5494 -0.0516 -0.7065
  299MOL0     C40252   5.627   4.998   3.329 -0.2445 -0.4104  0.6827
  299MOL0     C40253   5.654   5.132   3.399  0.1712  0.9470  0.7300
  299MOL0     O40254   5.741   5.111   3.500 -0.5662  0.5557 -0.4545
  299MOL0     C40255   5.878   5.111   3.478  0.3592 -0.5375 -0.6110
  299MOL0     C40256   5.937   5.131   3.353  0.8809  0.1060  0.1997
  299MOL0     C40257   6.072   5.096   3.333 -0.5577  0.4649  0.0275
  299MOL0     C40258   6.156   5.054   3.443 -0.8122 -0.2777 -0.0909
  299MOL0     C40259   6.308   5.041   3.439  0.0872  0.1443  0.1823
  299MOL0     O40260   6.370   5.015   3.560 -0.0405  0.4144 -0.2318
  299MOL0     C40261   6.503   4.984   3.562  0.6979 -0.6157 -0.2822
  299MOL0     C40262   6.542   4.850   3.548 -0.0213 -0.3424 -0.7768
  299MOL0     C40263   6.672   4.814   3.542 -0.1314  1.1471  0.2099
  299MOL0     C40264   6.770   4.914   3.533  0.7910 -0.3758 -0.2129
  299MOL0     O40265   6.903   4.885   3.525  0.0128  0.2783  0.5065
  299MOL0     C40266   6.947   4.790   3.424 -1.1064 -0.6455  0.5631
  299MOL0     C40267   7.087   4.743   3.460  0.2769  0.2678  0.2963
  299MOL0     C40268   7.127   4.623   3.375  0.9673 -0.0043 -0.6258
  299MOL0     C40269   7.224   4.531   3.448 -0.1622  0.7474  0.2546
  299MOL0     C40270   7.237   4.394   3.370  0.5186  0.1498  0.3520
  299MOL0     C40271   7.333   4.294   3.451 -0.4065  0.5050 -0.3311
  299MOL0     C40272   7.485   4.311   3.427 -0.3784  0.2156 -1.1432
  299MOL0     C40273   7.576   4.198   3.483 -0.1414 -0.0872 -0.2314
  299MOL0    Cl40274   7.746   4.217   3.461  0.2470  0.1134 -0.2047
  299MOL0     C40275   6.734   5.045   3.555  0.1377  0.5073 -0.1948
  299MOL0     C40276   6.600   5.083   3.552 -0.0401  0.6913  0.2672
  299MOL0     O40277   6.364   5.059   3.332 -0.4858  0.1677 -0.2802
  299MOL0     C40278   6.094   5.042   3.566  0.1135  0.4732  0.4872
  299MOL0     C40279   5.961   5.072   3.587 -0.1496 -0.0537  0.0735
  299MOL0     N40280   5.257   4.793   3.216  0.3963 -0.2934  0.0944
  299MOL0     N40281   5.229   4.686   3.285 -0.2119  0.0697  0.2813
  299MOL0     C40282   6.269   4.200   3.452 -0.3217 -0.0560  0.7165
  299MOL0     C40283   6.342   4.151   3.559 -0.1580 -0.7088  0.1390
  299MOL0     C40284   6.494   3.857   3.887  0.6324  1.1812  0.0757
  299MOL0     C40285   6.529   3.959   3.986  0.0056  0.9493 -0.7709
  299MOL0     C40286   6.621   3.924   4.097  0.9301 -0.8209  0.5121
  299MOL0     C40287   6.670   3.798   4.110 -0.0169 -0.5474  0.2780
  299MOL0     O40288   6.747   3.764   4.208 -0.4727 -0.6814 -0.7555
  299MOL0     C40289   6.682   3.775   4.338 -0.0045  0.0073  0.2934
  299MOL0     C40290   6.735   3.688   4.456  0.0220 -0.3714 -0.9919
  299MOL0     C40291   6.666   3.724   4.594 -0.0041 -0.2597  0.2506
  299MOL0     C40292   6.724   3.648   4.718 -0.0241 -0.6987 -0.6866
  299MOL0     C40293   6.703   3.504   4.704 -1.4360  0.4502 -0.4215
  299MOL0     C40294   6.694   3.381   4.713  0.5354 -0.0539 -0.5350
  299MOL0     C40295   6.632   3.705   4.017 -0.6288 -0.1469  0.0754
  299MOL0     C40296   6.551   3.728   3.903  0.7640 -0.4725  0.0419
  299MOL0     C40297   6.525   3.609   3.815  1.0378 -0.2837  0.4403
  299MOL0     H40298   6.102   4.007   3.746  1.0228 -1.7447  0.7134
  299MOL0     H40299   5.963   4.099   3.558  0.2031  0.4446  1.1526
  299MOL0     H40300   5.932   4.092   3.199  0.6557 -1.3455  1.0945
  299MOL0     H40301   5.923   4.050   3.368 -0.5924  0.6502  0.7091
  299MOL0     H40302   5.847   4.322   3.269  1.9038 -0.4861 -1.4629
  299MOL0     H40303   5.845   4.278   3.429 -3.3414  0.4186  1.1682
  299MOL0     H40304   5.672   4.133   3.412  0.0489  2.9073  2.3147
  299MOL0     H40305   5.707   4.101   3.236 -1.6216 -0.1580  1.6454
  299MOL0     H40306   5.621   4.329   3.167 -1.4351  4.3744  0.3684
  299MOL0     H40307   5.504   4.232   3.257 -0.1224  0.2677 -1.6900
  299MOL0     H40308   5.596   4.352   3.468  2.6208  0.7538  0.3195
  299MOL0     H40309   5.667   4.466   3.340  0.1095 -0.1596 -0.2649
  299MOL0     H40310   5.445   4.531   3.283  0.3412 -0.7742 -0.3808
  299MOL0     H40311   5.370   4.397   3.356 -0.7243 -0.0148  1.2629
  299MOL0     H40312   5.498   4.595   3.530  1.6309 -0.6519 -0.6050
  299MOL0     H40313   5.407   4.448   3.580  1.6141  1.0605  0.9069
  299MOL0     H40314   5.190   4.532   3.491 -1.3188  0.5916  0.9019
  299MOL0     H40315   5.268   4.643   3.609  0.9194  0.7059 -0.2673
  299MOL0     H40316   5.409   4.861   3.496  1.0653  0.1922 -0.1225
  299MOL0     H40317   5.311   5.053   3.180  0.6318  1.9277  0.4556
  299MOL0     H40318   5.370   5.085   3.341  0.6340  1.3871 -2.0188
  299MOL0     H40319   5.546   4.935   3.150  0.0323 -1.3975  1.0331
  299MOL0     H40320   5.545   5.120   3.163  2.8264 -0.6153 -0.8842
  299MOL0     H40321   5.728   4.973   3.294  0.3610  2.5554 -0.0155
  299MOL0     H40322   5.586   4.926   3.400  0.7067 -1.4553  0.2134
  299MOL0     H40323   5.553   5.164   3.428 -0.3717  1.1591 -1.2376
  299MOL0     H40324   5.700   5.207   3.334  1.2997  1.5407  2.1584
  299MOL0     H40325   5.876   5.154   3.266  3.6234  0.4084 -1.7768
  299MOL0     H40326   6.120   5.096   3.235  2.9390 -2.1102  1.5070
  299MOL0     H40327   6.471   4.772   3.575  1.5605 -1.1256  1.4138
  299MOL0     H40328   6.693   4.708   3.553 -1.3040  0.9427  0.6325
  299MOL0     H40329   6.883   4.704   3.402  0.5093 -1.7654  0.0719
  299MOL0     H40330   6.954   4.840   3.327 -3.0573  0.7127  1.0664
  299MOL0     H40331   7.160   4.820   3.433  1.9978 -0.7302  1.8747
  299MOL0     H40332   7.092   4.722   3.567 -1.5637  1.1974  0.6011
  299MOL0     H40333   7.039   4.562   3.353  1.1469  0.2164 -2.0129
  299MOL0     H40334   7.181   4.651   3.284  0.2890  3.6679 -0.0753
  299MOL0     H40335   7.189   4.515   3.550 -0.6638 -0.3493 -0.0706
  299MOL0     H40336   7.319   4.585   3.443  0.3816 -0.2739 -0.9606
  299MOL0     H40337   7.277   4.426   3.273  0.2299  1.1663  0.5541
  299MOL0     H40338   7.143   4.344   3.349  0.9402 -1.1560  1.4280
  299MOL0     H40339   7.310   4.307   3.557  0.3621 -0.6007 -0.0120
  299MOL0     H40340   7.315   4.190   3.422  0.5492  0.5808 -1.2326
  299MOL0     H40341   7.505   4.406   3.477 -2.3698 -0.2883  0.7869
  299MOL0     H40342   7.511   4.327   3.322  1.1389 -0.2896 -0.8659
  299MOL0     H40343   7.543   4.176   3.585 -1.1342 -3.4721 -1.1223
  299MOL0     H40344   7.541   4.103   3.439  1.1360 -1.9563  2.5126
  299MOL0     H40345   6.810   5.123   3.563 -0.3327  0.8699  0.9961
  299MOL0     H40346   6.580   5.190   3.551  0.3765  0.7878  1.4990
  299MOL0     H40347   6.144   4.996   3.651 -0.3764 -1.3883 -0.1804
  299MOL0     H40348   5.925   5.051   3.687  2.9708 -0.3925  1.2331
  299MOL0     H40349   6.314   4.257   3.371 -2.6179  1.1657  0.2088
  299MOL0     H40350   6.447   4.173   3.568 -0.4340  0.9312 -0.3900
  299MOL0     H40351   6.498   4.063   3.987 -0.2614  0.9161  1.7124
  299MOL0     H40352   6.635   3.992   4.180 -0.7092  1.1163 -0.7026
  299MOL0     H40353   6.577   3.753   4.322 -0.7059  0.9328  2.9811
  299MOL0     H40354   6.685   3.877   4.378 -0.1757  0.2563 -0.3246
  299MOL0     H40355   6.842   3.710   4.466  0.0467 -1.4980  2.7589
  299MOL0     H40356   6.731   3.581   4.435 -1.7295 -0.2026 -1.6971
  299MOL0     H40357   6.560   3.701   4.579  0.0519  0.7159 -2.0869
  299MOL0     H40358   6.673   3.832   4.608 -1.6410 -0.4123  3.1633
  299MOL0     H40359   6.829   3.676   4.727  0.9898 -3.7512 -1.7872
  299MOL0     H40360   6.678   3.685   4.810 -1.4816  1.4369 -2.1660
  299MOL0     H40361   6.721   3.277   4.719  0.9139 -0.0055 -1.2591
  299MOL0     H40362   6.684   3.613   4.039 -2.4754 -0.9739  1.2433
  299MOL0     H40363   6.575   3.518   3.850  2.1133  0.2708  0.3954
  299MOL0     H40364   6.420   3.590   3.794  0.3691  1.4197  1.9414
  299MOL0     H40365   6.588   3.628   3.727  2.2654  0.4812  1.4467
  300MOL0     O40366   5.172   8.203   9.475 -0.3023  0.3106 -0.4136
  300MOL0     C40367   5.257   8.264   9.532 -0.5635 -0.3430  0.7946
  300MOL0     O40368   5.270   8.280   9.664 -0.9071  0.1221  0.3455
  300MOL0     C40369   5.193   8.212   9.750 -0.1803  0.1873 -1.3708
  300MOL0     C40370   5.260   8.165   9.866  0.7653  0.1419 -0.2778
  300MOL0     C40371   5.194   8.077   9.950 -0.5612  0.1170 -0.4312
  300MOL0     C40372   5.054   8.045   9.936 -0.5713  0.1309 -1.4698
  300MOL0     O40373   4.981   7.973  10.030 -0.3227 -0.1649  0.7504
  300MOL0     C40374   5.044   7.922  10.141  0.6185  0.0248 -0.1999
  300MOL0     C40375   4.936   7.842  10.215 -0.3953  0.3841 -0.1448
  300MOL0     C40376   4.990   7.778  10.348 -0.5365  0.5677 -0.5359
  300MOL0     C40377   4.892   7.678  10.424  0.0419 -0.0246 -0.4026
  300MOL0     C40378   4.960   7.610  10.546  0.6500 -0.0675 -0.1677
  300MOL0     C40379   4.900   7.478  10.574 -0.2748  0.3604  0.6199
  300MOL0     C40380   4.900   7.452  10.729 -0.0237  0.3351  0.4410
  300MOL0     C40381   4.759   7.468  10.790  0.7103 -0.3904  0.5368
  300MOL0     N40382   4.771   7.452  10.938  0.0545  0.3330 -0.1821
  300MOL0     C40383   4.791   7.328  10.992 -0.2040 -0.2416  1.4629
  300MOL0     C40384   4.816   7.359  11.127 -0.1596  1.6053  0.0592
  300MOL0     C40385   4.865   7.270  11.242 -0.7298 -0.1513 -0.5083
  300MOL0     C40386   5.009   7.230  11.212  0.2679 -0.0133 -0.4613
  300MOL0     C40387   5.100   7.356  11.251  0.2072 -0.0654  0.9258
  300MOL0     C40388   5.243   7.339  11.191  1.0450 -0.7294  0.9761
  300MOL0     O40389   5.345   7.385  11.275  0.3603  0.4887  0.0168
  300MOL0     C40390   5.466   7.408  11.220 -0.5299 -0.0360  0.1906
  300MOL0     C40391   5.546   7.313  11.158 -0.5318  0.8098  0.2402
  300MOL0     C40392   5.678   7.348  11.117  0.1299 -0.8234  0.9123
  300MOL0     C40393   5.727   7.474  11.142  0.4815  0.4804  0.9374
  300MOL0     C40394   5.875   7.508  11.112 -0.5687 -0.0321 -1.5426
  300MOL0     O40395   5.910   7.623  11.181 -0.1591  0.2901 -1.4353
  300MOL0     C40396   6.040   7.650  11.180 -0.3786 -0.6914  0.0069
  300MOL0     C40397   6.071   7.779  11.119  0.2093  0.4376 -0.6297
  300MOL0     C40398   6.208   7.804  11.089  0.2481 -0.1154 -0.1304
  300MOL0     C40399   6.308   7.715  11.144 -1.0964  0.4958 -0.6950
  300MOL0     O40400   6.440   7.731  11.115 -0.4117 -1.0009 -0.0312
  300MOL0     C40401   6.533   7.747  11.229 -0.1269  0.3719 -0.0886
  300MOL0     C40402   6.618   7.864  11.201  0.8394  0.6283 -0.5692
  300MOL0     C40403   6.696   7.849  11.068  1.1388  0.9374 -0.3209
  300MOL0     C40404   6.782   7.724  11.048 -0.4311 -0.2863  0.6111
  300MOL0     C40405   6.831   7.716  10.907  0.3851  0.1159 -0.9747
  300MOL0     C40406   6.925   7.597  10.890  0.2857 -0.1720 -0.6527
  300MOL0     C40407   6.973   7.573  10.751 -0.5453  0.5936  0.0790
  300MOL0     C40408   7.075   7.460  10.738 -0.0986  0.3434 -0.0486
  300MOL0    Cl40409   6.994   7.296  10.768 -0.2508 -0.2544  0.2077
  300MOL0     C40410   6.271   7.603  11.223 -0.4265 -0.4783  0.9173
  300MOL0     C40411   6.138   7.581  11.239 -1.2285 -0.1790  0.7623
  300MOL0     O40412   5.953   7.432  11.046 -0.8128  0.2763 -0.1279
  300MOL0     C40413   5.636   7.570  11.189 -0.5130  0.4180 -0.3111
  300MOL0     C40414   5.510   7.535  11.237 -0.8747 -0.8707  0.1894
  300MOL0     N40415   4.790   7.491  11.146  0.4191 -0.0108 -0.4421
  300MOL0     N40416   4.763   7.553  11.037  0.4531  0.2400 -0.4835
  300MOL0     C40417   4.987   8.105   9.829 -0.2095  0.1511  0.0900
  300MOL0     C40418   5.055   8.185   9.731  0.4181  0.9068  0.0153
  300MOL0     C40419   5.378   8.314   9.441 -0.0049  0.9635 -1.5325
  300MOL0     C40420   5.506   8.292   9.506  0.4985  0.3343 -0.1766
  300MOL0     C40421   5.630   8.312   9.432  0.4102 -0.6945 -1.1930
  300MOL0     C40422   5.626   8.347   9.301  0.1881 -0.2355 -0.5989
  300MOL0     O40423   5.742   8.376   9.230  0.5117  0.1368 -0.4323
  300MOL0     C40424   5.840   8.448   9.296 -0.0609 -0.0674 -0.1624
  300MOL0     C40425   5.971   8.459   9.221 -0.0607  0.3604 -0.2578
  300MOL0     C40426   5.948   8.519   9.087 -0.2658 -0.2405 -0.3166
  300MOL0     C40427   5.866   8.648   9.098  0.1170 -0.2283  0.0738
  300MOL0     C40428   5.864   8.714   8.966 -0.3337  0.0381 -0.3228
  300MOL0     C40429   5.883   8.760   8.860  0.8978 -0.0979 -0.5339
  300MOL0     C40430   5.499   8.373   9.241 -0.1605 -0.2932 -1.0119
  300MOL0     C40431   5.378   8.357   9.307 -0.7148 -0.3766  0.4997
  300MOL0     C40432   5.252   8.396   9.240  0.0808 -0.7686 -0.0179
  300MOL0     H40433   5.363   8.185   9.891  1.5381 -3.5811 -0.0445
  300MOL0     H40434   5.242   8.048  10.043 -0.1750  1.6600 -0.1353
  300MOL0     H40435   5.122   7.852  10.109  0.4801 -0.1526 -0.1477
  300MOL0     H40436   5.088   7.999  10.206 -0.3453  0.9393 -0.5977
  300MOL0     H40437   4.915   7.762  10.144  0.7473 -0.6822  0.6821
  300MOL0     H40438   4.852   7.903  10.250 -1.0497 -1.6508  2.0989
  300MOL0     H40439   5.015   7.864  10.411 -3.5236  0.8938  0.3161
  300MOL0     H40440   5.084   7.726  10.327  0.0696  1.8909 -1.1984
  300MOL0     H40441   4.799   7.732  10.440 -1.6402 -2.7818 -0.3176
  300MOL0     H40442   4.863   7.608  10.345  1.9673 -1.0202 -0.2956
  300MOL0     H40443   5.069   7.606  10.542  0.7086  1.4632 -0.8564
  300MOL0     H40444   4.959   7.673  10.636 -0.0597 -2.6570  1.7580
  300MOL0     H40445   4.800   7.484  10.530 -0.3897  0.1109  0.8428
  300MOL0     H40446   4.962   7.400  10.530  0.8429 -0.3008  3.1632
  300MOL0     H40447   4.957   7.524  10.788  0.2492  1.5252 -1.2100
  300MOL0     H40448   4.946   7.355  10.752  1.4626  1.3491  1.9351
  300MOL0     H40449   4.732   7.572  10.769  2.7686  1.0385  4.0816
  300MOL0     H40450   4.685   7.392  10.760  1.3513 -1.7040  2.1523
  300MOL0     H40451   4.802   7.235  10.938 -0.5227  0.2630  0.4966
  300MOL0     H40452   4.855   7.329  11.334  2.6465  1.1777 -0.8513
  300MOL0     H40453   4.804   7.180  11.253 -3.6650  1.6109 -0.9564
  300MOL0     H40454   5.035   7.155  11.288 -1.0711  0.0503  0.0755
  300MOL0     H40455   5.021   7.190  11.111 -0.4022  3.1116 -1.8790
  300MOL0     H40456   5.112   7.351  11.360 -0.0488  0.2949  0.9719
  300MOL0     H40457   5.073   7.458  11.220 -1.4001 -0.9583 -0.7672
  300MOL0     H40458   5.245   7.399  11.100 -2.3014  1.4229  2.1519
  300MOL0     H40459   5.264   7.236  11.159 -2.4920 -0.6013 -2.4648
  300MOL0     H40460   5.512   7.210  11.154 -2.4285  1.4170 -0.5377
  300MOL0     H40461   5.747   7.276  11.075  0.7064  0.4520 -0.4150
  300MOL0     H40462   5.979   7.831  11.095 -0.4202  0.0594  0.7916
  300MOL0     H40463   6.248   7.891  11.039  1.9393  0.8545  2.6572
  300MOL0     H40464   6.477   7.767  11.321  0.1629  1.7600 -0.1957
  300MOL0     H40465   6.593   7.657  11.249 -2.6799 -1.5719 -0.7101
  300MOL0     H40466   6.555   7.954  11.203 -1.3065 -0.7396  2.8354
  300MOL0     H40467   6.694   7.876  11.278 -1.0696  0.9412  1.3645
  300MOL0     H40468   6.630   7.851  10.981  1.1966 -1.5339 -0.4833
  300MOL0     H40469   6.774   7.924  11.053  1.8593  0.1641 -0.5159
  300MOL0     H40470   6.722   7.636  11.073 -1.8449  0.4357 -0.1580
  300MOL0     H40471   6.863   7.727  11.122 -1.7476  2.4709  2.0725
  300MOL0     H40472   6.885   7.805  10.872 -0.8074  1.8306  1.2784
  300MOL0     H40473   6.744   7.693  10.844 -0.9019 -1.5604  1.2515
  300MOL0     H40474   7.014   7.611  10.952 -0.3757  2.5395 -0.1520
  300MOL0     H40475   6.864   7.513  10.925  1.1211 -0.6325 -0.2915
  300MOL0     H40476   7.020   7.660  10.704  0.5949  1.5977  2.8724
  300MOL0     H40477   6.880   7.555  10.697 -1.0445 -0.6297  1.2869
  300MOL0     H40478   7.111   7.464  10.635 -2.6171  2.0307 -0.9475
  300MOL0     H40479   7.169   7.473  10.793 -0.7380  0.3145  1.0877
  300MOL0     H40480   6.347   7.532  11.251  2.5957  0.5105 -3.6344
  300MOL0     H40481   6.121   7.486  11.289 -0.3585  0.9363  3.3330
  300MOL0     H40482   5.665   7.673  11.209  0.5645 -0.3530  2.5605
  300MOL0     H40483   5.433   7.600  11.277 -1.6176 -0.1256 -2.2780
  300MOL0     H40484   4.882   8.081   9.814 -0.0834  0.2855 -1.0800
  300MOL0     H40485   4.997   8.238   9.656  0.7219  2.6531  0.9526
  300MOL0     H40486   5.506   8.260   9.610 -3.8820  2.2423  0.5942
  300MOL0     H40487   5.727   8.299   9.479  0.5853 -0.2263 -1.4196
  300MOL0     H40488   5.868   8.405   9.392 -0.5689 -0.3717 -0.1480
  300MOL0     H40489   5.809   8.550   9.319  1.5191  0.3341  0.2474
  300MOL0     H40490   6.009   8.358   9.203 -0.3753 -0.0233  1.1162
  300MOL0     H40491   6.049   8.505   9.281  0.1056 -1.8667  1.3431
  300MOL0     H40492   5.891   8.453   9.021  1.4037 -2.6120  0.4985
  300MOL0     H40493   6.048   8.532   9.046  0.6585  0.4649  2.0014
  300MOL0     H40494   5.764   8.619   9.126 -0.7076  1.9425 -0.5223
  300MOL0     H40495   5.904   8.709   9.180 -1.0048  1.0606 -0.3342
  300MOL0     H40496   5.873   8.792   8.758  0.2186 -0.2637 -0.5247
  300MOL0     H40497   5.501   8.411   9.139  0.9798 -1.5294 -1.4854
  300MOL0     H40498   5.273   8.452   9.148 -0.6476 -0.8649 -0.2493
  300MOL0     H40499   5.221   8.297   9.206 -1.1563 -0.7298  0.9144
  300MOL0     H40500   5.179   8.449   9.303 -0.4458 -0.6304 -0.7268
  301MOL0     O40501   8.779   4.877  10.442  0.4567  0.2897 -0.1861
  301MOL0     C40502   8.749   4.826  10.551 -0.5863 -0.5733 -0.7869
  301MOL0     O40503   8.819   4.836  10.657 -0.2768  0.4761 -0.1249
  301MOL0     C40504   8.949   4.883  10.646  0.6099  0.1236  0.4466
  301MOL0     C40505   9.044   4.811  10.578 -0.4954  0.6372 -0.6855
  301MOL0     C40506   9.174   4.861  10.565  0.3448  0.4489 -0.0752
  301MOL0     C40507   9.211   4.969  10.639  0.1320  0.4579  0.2631
  301MOL0     O40508   9.338   5.013  10.627 -0.5086 -0.3043 -0.2161
  301MOL0     C40509   9.421   4.981  10.739 -0.1045 -0.0082 -0.4503
  301MOL0     C40510   9.545   5.078  10.728  0.7766  1.4452  0.2559
  301MOL0     C40511   9.674   5.017  10.799  0.3113  0.1677  0.0069
  301MOL0     C40512   9.800   5.066  10.715  0.3087  1.0252  0.6346
  301MOL0     C40513   9.917   4.973  10.737  0.4943 -1.7683  0.0418
  301MOL0     C40514  10.022   5.034  10.643 -0.1596  0.2352  0.3326
  301MOL0     C40515  10.161   5.018  10.698  0.1812 -0.3283 -0.5499
  301MOL0     C40516  10.286   5.067  10.616  0.7086  0.7228 -0.7564
  301MOL0     N40517  10.266   5.210  10.581 -0.0122  0.1704 -0.0341
  301MOL0     C40518  10.266   5.254  10.450 -0.8272  0.7044 -0.2572
  301MOL0     C40519  10.245   5.387  10.452 -0.7050 -0.5692  0.4883
  301MOL0     C40520  10.231   5.497  10.349 -0.4660  0.4522 -0.0087
  301MOL0     C40521  10.370   5.564  10.342  0.9258 -0.2351  0.1292
  301MOL0     C40522  10.471   5.474  10.266 -0.1355  0.0426  0.0539
  301MOL0     C40523  10.600   5.549  10.245  0.5436  0.0814  0.1664
  301MOL0     O40524  10.585   5.640  10.133 -0.1925 -0.0085 -0.2426
  301MOL0     C40525  10.711   5.700  10.094  0.1620  0.3448  0.1563
  301MOL0     C40526  10.812   5.736  10.184 -0.5910  0.1467  0.6572
  301MOL0     C40527  10.923   5.797  10.138 -0.0592 -0.5131  0.1835
  301MOL0     C40528  10.934   5.840  10.001 -0.4859 -0.6005  0.2097
  301MOL0     C40529  11.054   5.921   9.950 -0.2779  0.2879  0.1866
  301MOL0     O40530  11.029   6.003   9.848  0.1728  0.2747 -0.3691
  301MOL0     C40531  11.119   6.107   9.822 -0.7675  0.4624  0.3593
  301MOL0     C40532  11.257   6.074   9.795  0.2304  0.1380  0.3319
  301MOL0     C40533  11.347   6.178   9.769 -0.5011 -0.2242 -0.0918
  301MOL0     C40534  11.308   6.312   9.770  0.2302  0.2524 -0.7426
  301MOL0     O40535  11.401   6.407   9.742 -0.6311  0.2156 -0.6152
  301MOL0     C40536  11.354   6.541   9.695 -0.3173  0.0162  0.3598
  301MOL0     C40537  11.467   6.625   9.645  0.6918  0.5336 -0.6780
  301MOL0     C40538  11.446   6.776   9.603 -0.4267 -0.1788 -0.0115
  301MOL0     C40539  11.541   6.876   9.682  0.8811  0.8933  1.5812
  301MOL0     C40540  11.485   7.022   9.654 -0.5821  0.1051 -1.0102
  301MOL0     C40541  11.574   7.124   9.741 -0.2344  0.4487  0.4435
  301MOL0     C40542  11.544   7.267   9.704 -0.0909  0.6531 -0.7587
  301MOL0     C40543  11.604   7.370   9.798 -0.5521 -0.2261  0.5124
  301MOL0    Cl40544  11.559   7.360   9.974  0.0856 -0.2564 -0.1257
  301MOL0     C40545  11.170   6.336   9.784  0.1543 -0.2453 -0.4853
  301MOL0     C40546  11.077   6.234   9.814 -0.0611 -0.0837  0.6322
  301MOL0     O40547  11.163   5.910  10.009 -0.1462 -0.2402 -0.5474
  301MOL0     C40548  10.828   5.797   9.914 -0.1842  0.0706  0.8720
  301MOL0     C40549  10.716   5.724   9.951  0.1790  0.6838 -0.0100
  301MOL0     N40550  10.262   5.420  10.586  0.6313 -0.2016 -0.5146
  301MOL0     N40551  10.269   5.314  10.662  0.0795  0.0766  0.6371
  301MOL0     C40552   9.123   5.035  10.722  0.3991 -0.6819 -0.0163
  301MOL0     C40553   8.985   4.996  10.727 -0.7483 -0.4011  0.2108
  301MOL0     C40554   8.622   4.757  10.563 -0.3086  0.7791  0.6780
  301MOL0     C40555   8.606   4.661  10.669 -0.0379 -0.2827 -0.1044
  301MOL0     C40556   8.487   4.586  10.693 -0.1089 -0.0066  0.8921
  301MOL0     C40557   8.382   4.596  10.602  0.2217  0.3560 -0.5751
  301MOL0     O40558   8.281   4.502  10.616 -0.8312 -0.0542  0.1964
  301MOL0     C40559   8.201   4.467  10.507  0.0456  0.8928 -0.0536
  301MOL0     C40560   8.275   4.404  10.391  1.1270  0.0306  0.4940
  301MOL0     C40561   8.355   4.272  10.420  0.7399 -0.5047 -0.2660
  301MOL0     C40562   8.395   4.210  10.286 -0.1966  0.1315  0.6974
  301MOL0     C40563   8.515   4.131  10.282 -0.5038  0.7326  0.4158
  301MOL0     C40564   8.611   4.064  10.284  0.6057  0.9110 -1.4231
  301MOL0     C40565   8.391   4.685  10.496  0.1000  0.1892 -1.1451
  301MOL0     C40566   8.504   4.773  10.481  0.4530 -0.1107  0.1050
  301MOL0     C40567   8.499   4.886  10.384 -0.2297  0.9920 -0.1476
  301MOL0     H40568   9.016   4.713  10.542 -1.0058  0.1913  0.8635
  301MOL0     H40569   9.247   4.803  10.509 -0.5226  1.7980 -2.7513
  301MOL0     H40570   9.367   5.010  10.829  0.2050  0.5399 -0.4391
  301MOL0     H40571   9.466   4.881  10.735 -0.7750 -0.2901 -1.2460
  301MOL0     H40572   9.514   5.172  10.775 -2.0375  0.3449  0.8017
  301MOL0     H40573   9.565   5.101  10.623 -3.2625  0.7823 -0.8337
  301MOL0     H40574   9.663   4.908  10.797  0.7191  0.1265 -0.0182
  301MOL0     H40575   9.680   5.043  10.905 -2.0431  0.0547  0.2221
  301MOL0     H40576   9.775   5.057  10.609  3.4491  0.3530 -0.1380
  301MOL0     H40577   9.817   5.172  10.735 -0.7357  1.0341  1.5941
  301MOL0     H40578   9.965   4.982  10.834 -0.6262 -2.6594  0.6964
  301MOL0     H40579   9.889   4.869  10.721 -1.5327 -1.1941 -0.4643
  301MOL0     H40580  10.013   4.993  10.542  0.6222  2.6846 -0.8247
  301MOL0     H40581  10.017   5.143  10.627  2.9725  0.1552 -2.2497
  301MOL0     H40582  10.176   4.911  10.718  1.0516  0.3083  2.9467
  301MOL0     H40583  10.166   5.068  10.795 -0.9205 -1.3184  0.0430
  301MOL0     H40584  10.379   5.061  10.673 -0.2610  2.3998  1.1442
  301MOL0     H40585  10.300   5.004  10.527  3.9432 -0.7856  0.6552
  301MOL0     H40586  10.277   5.192  10.362  1.1858 -1.6470  1.5195
  301MOL0     H40587  10.205   5.462  10.249 -2.1585 -2.1822  1.2495
  301MOL0     H40588  10.158   5.574  10.377 -1.9115 -0.2545 -1.6286
  301MOL0     H40589  10.368   5.668  10.309 -2.5897 -0.6727 -1.4794
  301MOL0     H40590  10.409   5.582  10.443  0.5868 -0.7087  0.3471
  301MOL0     H40591  10.433   5.450  10.167  0.4814 -0.5395 -0.0496
  301MOL0     H40592  10.491   5.386  10.329  4.6735  1.4353  0.9392
  301MOL0     H40593  10.677   5.472  10.231 -0.6989 -1.8771  2.9629
  301MOL0     H40594  10.614   5.618  10.329 -2.8187 -0.0386  0.9796
  301MOL0     H40595  10.807   5.722  10.292  1.2535 -1.5064  0.5839
  301MOL0     H40596  11.006   5.815  10.207  1.9268 -2.1387 -1.6346
  301MOL0     H40597  11.283   5.970   9.779 -1.3246 -0.0401 -1.3826
  301MOL0     H40598  11.451   6.152   9.751  0.1133 -0.1868  2.8577
  301MOL0     H40599  11.272   6.543   9.622 -0.1484  1.5337  0.1656
  301MOL0     H40600  11.320   6.593   9.785 -0.2384  1.3346 -0.3358
  301MOL0     H40601  11.554   6.615   9.710  1.2241  1.7857 -1.1652
  301MOL0     H40602  11.503   6.576   9.555  4.2633 -2.3470  1.9779
  301MOL0     H40603  11.465   6.786   9.496 -1.7229  2.7998 -0.0529
  301MOL0     H40604  11.342   6.807   9.618  0.2177  1.2885  1.9392
  301MOL0     H40605  11.647   6.867   9.657  0.9615  5.3564 -0.7159
  301MOL0     H40606  11.531   6.851   9.788 -0.4193  1.4869  1.6232
  301MOL0     H40607  11.380   7.021   9.684 -0.1925 -2.8371  0.6396
  301MOL0     H40608  11.492   7.043   9.546 -2.2134  1.2387 -0.9304
  301MOL0     H40609  11.545   7.103   9.844 -2.1491  0.6442 -0.0138
  301MOL0     H40610  11.683   7.126   9.742 -0.1423 -0.6834  3.8713
  301MOL0     H40611  11.437   7.284   9.688 -0.1906 -1.8210 -3.5650
  301MOL0     H40612  11.591   7.291   9.609 -1.9413  1.3956 -1.5422
  301MOL0     H40613  11.712   7.359   9.786 -0.7181 -1.1058 -0.2575
  301MOL0     H40614  11.571   7.468   9.763  0.8386  0.2028  0.3201
  301MOL0     H40615  11.139   6.440   9.778  1.2499  0.1137 -0.2890
  301MOL0     H40616  10.977   6.263   9.845 -0.0919 -0.2438  0.6839
  301MOL0     H40617  10.836   5.827   9.810 -1.0442 -2.4371  0.0061
  301MOL0     H40618  10.638   5.685   9.887  0.3872  1.4656 -0.7534
  301MOL0     H40619   9.159   5.118  10.782 -2.3759  0.6529 -0.0471
  301MOL0     H40620   8.912   5.042  10.792  0.0742 -1.0759  1.6736
  301MOL0     H40621   8.692   4.646  10.733 -2.6650 -1.1903  3.5018
  301MOL0     H40622   8.484   4.501  10.761 -1.2360 -0.2642  0.5495
  301MOL0     H40623   8.145   4.554  10.472 -0.0337  0.6514 -0.5398
  301MOL0     H40624   8.130   4.390  10.538  2.4377 -2.1343 -1.5726
  301MOL0     H40625   8.329   4.475  10.328  2.5105 -0.9779  0.5093
  301MOL0     H40626   8.197   4.377  10.319  2.5982  1.3349 -1.7064
  301MOL0     H40627   8.293   4.204  10.480  1.5614  1.1614  2.6658
  301MOL0     H40628   8.439   4.290  10.487 -0.4863 -0.7071  1.4157
  301MOL0     H40629   8.321   4.139  10.246  0.8091 -0.5771  0.0344
  301MOL0     H40630   8.412   4.296  10.221  2.5723 -0.3299  0.6949
  301MOL0     H40631   8.703   4.008  10.289  0.4926  0.8630  1.5292
  301MOL0     H40632   8.320   4.694  10.414  2.6584 -0.8724 -3.6933
  301MOL0     H40633   8.393   4.905  10.363 -0.1784  0.0076 -1.4534
  301MOL0     H40634   8.549   4.976  10.421  3.2383 -0.7704 -0.2190
  301MOL0     H40635   8.554   4.870  10.291  2.6187  3.1194  1.0367
  302MOL0     O40636   7.289   3.286  10.733  0.2089 -0.5067 -1.0678
  302MOL0     C40637   7.313   3.241  10.846  0.3076  1.1243 -0.1708
  302MOL0     O40638   7.427   3.242  10.911 -0.5804 -0.6195 -0.2562
  302MOL0     C40639   7.532   3.302  10.854 -0.7498 -0.2799  0.2226
  302MOL0     C40640   7.654   3.234  10.851 -0.6319 -0.8902  0.1311
  302MOL0     C40641   7.782   3.302  10.835  0.1993  0.4270 -0.2009
  302MOL0     C40642   7.779   3.443  10.803  0.1316 -0.1641 -0.0288
  302MOL0     O40643   7.885   3.517  10.772 -0.4052 -0.4174  0.1455
  302MOL0     C40644   7.992   3.453  10.700 -0.6465  0.1604  0.3386
  302MOL0     C40645   8.095   3.550  10.651  0.4775 -0.5584  0.8076
  302MOL0     C40646   8.175   3.617  10.765  0.4363 -0.0006  0.4190
  302MOL0     C40647   8.280   3.726  10.732 -0.1128 -1.1304  0.7758
  302MOL0     C40648   8.335   3.782  10.864 -0.3416 -0.2248  0.0111
  302MOL0     C40649   8.400   3.923  10.857  0.3278 -0.6158 -0.2037
  302MOL0     C40650   8.289   4.030  10.816 -0.2174  0.6096  0.5238
  302MOL0     C40651   8.366   4.158  10.798  0.1852  0.0335  0.1190
  302MOL0     N40652   8.464   4.194  10.904  0.6167 -0.2841  0.1053
  302MOL0     C40653   8.451   4.314  10.971  0.1132  0.3261 -0.8568
  302MOL0     C40654   8.565   4.340  11.023 -0.2101 -0.2448  0.1803
  302MOL0     C40655   8.603   4.439  11.124 -0.0425 -0.2307 -0.5498
  302MOL0     C40656   8.596   4.574  11.055 -0.4420 -0.3068 -0.2250
  302MOL0     C40657   8.653   4.676  11.159 -0.3250 -0.0841  0.7209
  302MOL0     C40658   8.807   4.671  11.185 -0.3370  0.1149  0.1625
  302MOL0     O40659   8.888   4.713  11.068  0.5116 -1.1023  0.1056
  302MOL0     C40660   9.020   4.724  11.080 -0.1242 -0.1257 -0.6191
  302MOL0     C40661   9.105   4.726  10.969 -0.3303  0.3538  0.3233
  302MOL0     C40662   9.243   4.740  10.981  0.2789  0.2199  0.3234
  302MOL0     C40663   9.313   4.760  11.098  0.7493  0.3084 -0.1076
  302MOL0     C40664   9.457   4.800  11.113 -0.4092  0.1014 -0.1008
  302MOL0     O40665   9.485   4.872  11.227  0.7387 -0.4470  0.5172
  302MOL0     C40666   9.599   4.933  11.238  0.2133 -0.1852 -0.6560
  302MOL0     C40667   9.599   5.064  11.179  0.1533 -0.3658 -0.5735
  302MOL0     C40668   9.710   5.142  11.200 -0.2122 -0.4676 -0.1706
  302MOL0     C40669   9.833   5.091  11.249  0.5097 -0.7874  0.0663
  302MOL0     O40670   9.953   5.164  11.249  0.4432 -0.3017 -0.4753
  302MOL0     C40671   9.999   5.198  11.115  0.9792 -0.4101 -0.7830
  302MOL0     C40672  10.057   5.338  11.094  1.0265 -0.4592  0.2027
  302MOL0     C40673  10.165   5.383  11.194  0.2229  0.5724  0.7334
  302MOL0     C40674  10.279   5.275  11.197  0.8428 -0.1898 -0.5546
  302MOL0     C40675  10.366   5.264  11.070 -0.6321 -0.0042 -0.1031
  302MOL0     C40676  10.517   5.228  11.091 -0.0172 -0.3006 -0.3903
  302MOL0     C40677  10.590   5.257  10.960  0.5807 -0.2411 -0.2281
  302MOL0     C40678  10.735   5.301  10.982  0.0785  0.3072 -0.3188
  302MOL0    Cl40679  10.812   5.200  11.107 -0.1787 -0.2989  0.5086
  302MOL0     C40680   9.837   4.957  11.295  0.1123 -0.1336 -0.1654
  302MOL0     C40681   9.714   4.882  11.303  0.0676  0.1479  0.0598
  302MOL0     O40682   9.537   4.780  11.019  0.2438  0.0697 -0.5813
  302MOL0     C40683   9.229   4.750  11.215  0.0138  0.2882 -1.1128
  302MOL0     C40684   9.083   4.732  11.204  0.4135  0.4779  0.1825
  302MOL0     N40685   8.650   4.246  10.982 -0.2956 -0.3291 -1.3805
  302MOL0     N40686   8.591   4.155  10.907  0.8243 -0.5984 -0.0043
  302MOL0     C40687   7.655   3.509  10.808 -0.1728  0.4563 -0.5174
  302MOL0     C40688   7.530   3.437  10.814 -0.2386  0.5880 -0.5989
  302MOL0     C40689   7.204   3.163  10.920 -0.1287 -0.4016  0.0194
  302MOL0     C40690   7.224   3.128  11.053  0.9391  0.0024  1.2239
  302MOL0     C40691   7.125   3.065  11.127 -0.3311 -0.0961  0.7222
  302MOL0     C40692   7.011   3.027  11.059  0.1306 -0.5169 -1.1978
  302MOL0     O40693   6.912   2.994  11.144  0.1950  1.2796  0.7432
  302MOL0     C40694   6.829   2.878  11.103 -0.5620 -0.7064 -0.1408
  302MOL0     C40695   6.798   2.792  11.228  0.0886  0.7873 -0.3923
  302MOL0     C40696   6.708   2.658  11.216 -0.2484 -0.2275  0.1719
  302MOL0     C40697   6.578   2.686  11.142 -0.1264 -0.6218  0.7215
  302MOL0     C40698   6.475   2.760  11.221 -0.4483  0.9719  0.6247
  302MOL0     C40699   6.405   2.821  11.305 -0.1420  0.7859 -0.5322
  302MOL0     C40700   6.987   3.045  10.928 -0.7434 -1.1935 -0.8766
  302MOL0     C40701   7.091   3.112  10.858 -0.3763  0.3930  0.0423
  302MOL0     C40702   7.075   3.106  10.708  0.1503  0.2929 -0.5537
  302MOL0     H40703   7.676   3.133  10.883 -2.8592 -0.5236  3.2838
  302MOL0     H40704   7.875   3.247  10.837 -0.0062  0.0679  1.6627
  302MOL0     H40705   8.025   3.360  10.747  1.8564 -1.0666 -3.3389
  302MOL0     H40706   7.945   3.422  10.606 -3.7910 -1.0088  2.1585
  302MOL0     H40707   8.046   3.630  10.595 -0.7760 -1.2621  0.8357
  302MOL0     H40708   8.168   3.500  10.587 -0.2780 -1.3491  0.5374
  302MOL0     H40709   8.221   3.546  10.834  0.8810 -0.4991 -0.3741
  302MOL0     H40710   8.092   3.660  10.822 -1.9990 -3.4060 -0.2239
  302MOL0     H40711   8.361   3.693  10.667 -1.3230 -2.2859 -0.1944
  302MOL0     H40712   8.233   3.806  10.675  2.1236 -0.9802 -0.9839
  302MOL0     H40713   8.263   3.776  10.946 -1.1292  0.8688 -0.5734
  302MOL0     H40714   8.401   3.698  10.887  1.3667  0.9440 -0.4151
  302MOL0     H40715   8.445   3.961  10.949 -2.7548  3.5470 -0.0632
  302MOL0     H40716   8.484   3.930  10.788 -0.2214  0.6316 -0.7794
  302MOL0     H40717   8.206   4.039  10.888 -0.7599  2.2168 -0.2606
  302MOL0     H40718   8.247   4.003  10.719  1.7951 -2.6674  0.4205
  302MOL0     H40719   8.415   4.148  10.701 -1.6478 -1.9436 -0.6995
  302MOL0     H40720   8.290   4.236  10.790  0.0972  0.2262  2.3404
  302MOL0     H40721   8.361   4.375  10.977  1.7030  2.8382 -0.7326
  302MOL0     H40722   8.539   4.432  11.212  0.6468 -1.0509 -0.1022
  302MOL0     H40723   8.702   4.407  11.157  0.9765 -0.4122 -3.4572
  302MOL0     H40724   8.650   4.582  10.961  1.4588  0.0163  0.8449
  302MOL0     H40725   8.490   4.590  11.035 -0.2903 -0.9405 -1.6641
  302MOL0     H40726   8.609   4.666  11.259  2.2563 -0.6717  1.8815
  302MOL0     H40727   8.629   4.775  11.120 -2.0154  0.0174  1.8890
  302MOL0     H40728   8.826   4.568  11.215 -1.8414 -0.1663  0.2086
  302MOL0     H40729   8.832   4.742  11.265  2.5743 -1.2426  0.6135
  302MOL0     H40730   9.065   4.713  10.870  1.4113 -0.8027 -0.2751
  302MOL0     H40731   9.308   4.738  10.895 -0.1316 -1.1933  0.0268
  302MOL0     H40732   9.508   5.095  11.130  0.5251 -0.1633 -1.1415
  302MOL0     H40733   9.703   5.244  11.164  0.9557  0.5219  2.1476
  302MOL0     H40734  10.072   5.123  11.084  5.0356  2.1704  1.5937
  302MOL0     H40735   9.912   5.198  11.047  1.2335 -1.3587 -1.1322
  302MOL0     H40736  10.101   5.338  10.994 -3.2723  2.5903 -2.0088
  302MOL0     H40737   9.979   5.415  11.092  2.4170  1.0143  0.1971
  302MOL0     H40738  10.214   5.475  11.161 -1.3030  0.1139 -3.4224
  302MOL0     H40739  10.119   5.401  11.291  0.8591  4.6204  0.4408
  302MOL0     H40740  10.240   5.180  11.235  2.0946  0.1334  1.7465
  302MOL0     H40741  10.337   5.322  11.277 -0.4904 -0.1948  0.4575
  302MOL0     H40742  10.351   5.360  11.019 -1.7961 -0.4079 -0.5689
  302MOL0     H40743  10.323   5.190  11.001  2.2334  0.1927 -2.2973
  302MOL0     H40744  10.571   5.278  11.171 -0.5199 -0.0694 -0.1972
  302MOL0     H40745  10.524   5.119  11.104  1.9664 -0.6631 -3.4226
  302MOL0     H40746  10.537   5.333  10.903 -0.5480 -0.8370  0.0027
  302MOL0     H40747  10.593   5.169  10.895  1.2951 -0.8637  0.6163
  302MOL0     H40748  10.785   5.313  10.886 -4.4071  1.3935 -2.7715
  302MOL0     H40749  10.728   5.400  11.027 -0.1337 -0.4174  1.3248
  302MOL0     H40750   9.927   4.905  11.326  0.4936  0.6567  0.0726
  302MOL0     H40751   9.705   4.778  11.332  2.7512  0.5894  3.0901
  302MOL0     H40752   9.273   4.745  11.314 -1.2512 -3.8451 -0.5649
  302MOL0     H40753   9.040   4.719  11.302 -2.6056  2.9627 -0.6192
  302MOL0     H40754   7.647   3.613  10.776  0.9252 -0.5758 -4.8582
  302MOL0     H40755   7.440   3.496  10.804  1.8119  4.3058  0.7946
  302MOL0     H40756   7.316   3.161  11.098  0.6791  0.2583  1.5749
  302MOL0     H40757   7.145   3.056  11.234 -1.1828  2.0703  1.1072
  302MOL0     H40758   6.885   2.819  11.029 -1.1180 -0.9611 -0.3643
  302MOL0     H40759   6.736   2.923  11.066  0.0011 -1.4554 -2.7369
  302MOL0     H40760   6.768   2.857  11.310  2.1428  0.5219  0.6365
  302MOL0     H40761   6.890   2.740  11.257 -0.4408 -0.4985 -0.9417
  302MOL0     H40762   6.677   2.631  11.317  2.1943  1.0509  1.3622
  302MOL0     H40763   6.769   2.577  11.177 -0.9394 -0.0570 -1.3332
  302MOL0     H40764   6.608   2.739  11.051  0.7944  2.7752  2.7985
  302MOL0     H40765   6.532   2.594  11.106  1.6286 -0.9487 -0.8227
  302MOL0     H40766   6.346   2.877  11.374  0.0703  0.2310  0.1212
  302MOL0     H40767   6.905   2.998  10.875 -0.6348  0.3882 -2.5274
  302MOL0     H40768   7.085   3.203  10.658  1.6164  0.1758 -0.5075
  302MOL0     H40769   7.143   3.024  10.684  0.7774  0.8177 -0.5804
  302MOL0     H40770   6.980   3.063  10.674  0.1630  0.2066 -0.4794
  303MOL0     O40771   7.531   6.168   0.584  0.2015  0.3809  0.1579
  303MOL0     C40772   7.455   6.195   0.683  0.9180  0.2742  0.6556
  303MOL0     O40773   7.457   6.313   0.745  0.1124 -0.6734  0.3646
  303MOL0     C40774   7.559   6.398   0.721 -0.5465  0.1767 -0.0043
  303MOL0     C40775   7.557   6.494   0.613  0.7191  0.5982 -0.7035
  303MOL0     C40776   7.652   6.584   0.589  0.1315 -0.7394  0.0253
  303MOL0     C40777   7.770   6.587   0.664 -0.6867  0.4931 -0.2208
  303MOL0     O40778   7.867   6.676   0.638 -1.2112 -0.3415 -0.3218
  303MOL0     C40779   7.824   6.809   0.620 -0.5569 -0.7034 -0.2899
  303MOL0     C40780   7.819   6.896   0.747 -0.7480 -0.1454 -0.0824
  303MOL0     C40781   7.953   6.891   0.823  0.2677 -0.6266  0.0980
  303MOL0     C40782   8.078   6.963   0.760  0.9773  0.4884 -0.4029
  303MOL0     C40783   8.190   6.963   0.867  0.0614 -1.0416  0.9457
  303MOL0     C40784   8.332   6.994   0.810  0.0141 -0.4016  0.0049
  303MOL0     C40785   8.448   6.959   0.914 -0.0101 -0.3458  0.2718
  303MOL0     C40786   8.591   6.969   0.865 -0.1165  0.1878  0.1852
  303MOL0     N40787   8.676   6.967   0.988  0.5627 -0.1181  0.1853
  303MOL0     C40788   8.753   6.861   1.030  0.0397 -0.1785  0.1329
  303MOL0     C40789   8.819   6.904   1.143 -0.2656  0.3020  0.4889
  303MOL0     C40790   8.916   6.824   1.232  0.0921 -0.3783 -0.0325
  303MOL0     C40791   9.054   6.806   1.170 -0.3745 -0.6229  0.0129
  303MOL0     C40792   9.173   6.872   1.237 -0.4840  0.8684 -0.1712
  303MOL0     C40793   9.220   6.816   1.371 -0.1574  0.6625 -0.3033
  303MOL0     O40794   9.316   6.704   1.362  0.0370  0.1849  0.6589
  303MOL0     C40795   9.450   6.735   1.359  0.2576  0.0757  0.5047
  303MOL0     C40796   9.513   6.770   1.244 -0.8987 -0.4238  0.9894
  303MOL0     C40797   9.659   6.773   1.243  1.1087 -0.2200  0.1141
  303MOL0     C40798   9.738   6.752   1.348  0.6162  0.0223 -0.1662
  303MOL0     C40799   9.888   6.767   1.325  0.5857  0.3248  0.5686
  303MOL0     O40800   9.942   6.777   1.192 -0.7875 -0.1018 -0.5956
  303MOL0     C40801  10.078   6.778   1.171 -0.3875  1.4174 -0.5185
  303MOL0     C40802  10.115   6.775   1.037 -1.1064  0.2408 -0.1913
  303MOL0     C40803  10.251   6.794   1.003 -0.5625  0.7181  0.7184
  303MOL0     C40804  10.358   6.802   1.099 -0.3913 -0.9431 -0.1141
  303MOL0     O40805  10.487   6.788   1.044  0.1838  0.7023 -0.0649
  303MOL0     C40806  10.602   6.800   1.133 -0.3602 -0.0667 -0.4507
  303MOL0     C40807  10.734   6.825   1.064  0.2009 -0.3962  0.5622
  303MOL0     C40808  10.854   6.768   1.134 -0.6963 -0.2987  0.4230
  303MOL0     C40809  10.975   6.796   1.052 -0.2946 -0.4550  1.0996
  303MOL0     C40810  11.107   6.712   1.079  0.2850  0.2632 -0.7108
  303MOL0     C40811  11.170   6.741   1.213  0.0181  0.5433 -0.3918
  303MOL0     C40812  11.300   6.660   1.214  0.8889 -0.3678 -0.2801
  303MOL0     C40813  11.373   6.703   1.340  0.5116 -0.2081 -0.1872
  303MOL0    Cl40814  11.430   6.871   1.318  0.0888 -0.7007 -0.5501
  303MOL0     C40815  10.324   6.800   1.238 -0.2246 -0.6836  0.2632
  303MOL0     C40816  10.190   6.784   1.267  0.5242  0.1269  0.7554
  303MOL0     O40817   9.947   6.772   1.429 -0.1651 -0.0864  0.0357
  303MOL0     C40818   9.666   6.729   1.469 -0.5428 -0.7904 -0.2647
  303MOL0     C40819   9.525   6.726   1.473 -0.2287 -0.2478  0.7264
  303MOL0     N40820   8.776   7.028   1.170  0.6015 -1.0908  0.2984
  303MOL0     N40821   8.685   7.065   1.084 -0.4251 -0.1090  0.4329
  303MOL0     C40822   7.794   6.479   0.757 -0.3154 -0.7503 -0.0864
  303MOL0     C40823   7.689   6.388   0.789  1.0632 -0.2686  0.3325
  303MOL0     C40824   7.356   6.092   0.708  0.2317  0.1262 -0.2022
  303MOL0     C40825   7.215   6.115   0.695 -0.7251  0.5682  0.5703
  303MOL0     C40826   7.119   6.010   0.721  0.3702 -0.2744 -0.1793
  303MOL0     C40827   7.164   5.883   0.751  0.3011  0.6138  0.0615
  303MOL0     O40828   7.087   5.777   0.786  0.1576  0.3938 -0.1909
  303MOL0     C40829   6.947   5.783   0.770 -0.1374  0.9507 -0.1791
  303MOL0     C40830   6.885   5.659   0.825  0.6468  0.1264 -0.2590
  303MOL0     C40831   6.733   5.673   0.801  0.3753  0.5032 -0.6673
  303MOL0     C40832   6.644   5.561   0.863  0.4793  0.2172  0.1314
  303MOL0     C40833   6.650   5.566   1.008  0.0821 -0.6476  0.6763
  303MOL0     C40834   6.647   5.548   1.128 -0.3532 -0.3439 -0.2701
  303MOL0     C40835   7.298   5.861   0.753 -0.3091 -0.6420  0.2909
  303MOL0     C40836   7.398   5.950   0.715 -0.5513  0.0533  0.4716
  303MOL0     C40837   7.534   5.885   0.694 -0.3756  0.1824  0.5649
  303MOL0     H40838   7.462   6.503   0.560 -0.3954  2.2743  1.4222
  303MOL0     H40839   7.630   6.646   0.502  0.6851 -0.8655 -0.2125
  303MOL0     H40840   7.892   6.859   0.550 -0.5764 -2.0724 -1.3343
  303MOL0     H40841   7.732   6.822   0.562 -0.5015 -1.6320 -0.6060
  303MOL0     H40842   7.738   6.890   0.820 -0.4116 -0.4899  0.2720
  303MOL0     H40843   7.803   7.001   0.722 -1.7375  0.3729  2.3824
  303MOL0     H40844   7.974   6.791   0.862 -0.6481 -1.1799 -0.7704
  303MOL0     H40845   7.939   6.937   0.922  1.2708 -2.5365  1.1917
  303MOL0     H40846   8.107   6.905   0.671  1.7537  3.5774 -2.2947
  303MOL0     H40847   8.056   7.066   0.733 -1.2989  1.0505  2.9749
  303MOL0     H40848   8.161   7.040   0.939 -0.3187 -0.5175  0.2408
  303MOL0     H40849   8.194   6.864   0.913  0.0246 -0.9687  1.1071
  303MOL0     H40850   8.353   6.921   0.732  1.9459 -0.0285  0.1415
  303MOL0     H40851   8.345   7.099   0.780  1.1585 -0.7500 -0.7799
  303MOL0     H40852   8.441   6.859   0.957  1.4082 -0.5461  0.0940
  303MOL0     H40853   8.441   7.031   0.996  2.0094 -0.5753  0.6958
  303MOL0     H40854   8.606   6.878   0.807  2.0180 -1.7775  3.4515
  303MOL0     H40855   8.622   7.055   0.805  0.5417  0.9163  1.5259
  303MOL0     H40856   8.772   6.762   0.989  3.3094  0.7616 -0.8930
  303MOL0     H40857   8.937   6.846   1.337 -2.8053  4.8223 -0.2158
  303MOL0     H40858   8.869   6.725   1.236  2.3047 -1.5441 -0.9614
  303MOL0     H40859   9.073   6.699   1.166 -0.1411 -0.5588 -0.7515
  303MOL0     H40860   9.050   6.841   1.066 -0.8807  2.3715  0.9201
  303MOL0     H40861   9.154   6.978   1.258 -2.3810  0.5442 -0.0837
  303MOL0     H40862   9.258   6.857   1.168 -0.3848  0.1072  0.1087
  303MOL0     H40863   9.135   6.776   1.427  1.3407 -1.3293  0.7055
  303MOL0     H40864   9.267   6.892   1.435  1.6977 -1.5110  1.1233
  303MOL0     H40865   9.467   6.795   1.149  0.6981 -1.2095 -0.0270
  303MOL0     H40866   9.694   6.790   1.141 -0.8755 -3.0785 -1.1904
  303MOL0     H40867  10.041   6.774   0.957 -1.7516  5.5359 -0.0497
  303MOL0     H40868  10.282   6.799   0.899 -0.8664 -2.5049  0.3828
  303MOL0     H40869  10.589   6.891   1.192 -3.4630 -1.7222  1.7175
  303MOL0     H40870  10.614   6.718   1.204  2.0310  2.1755  1.9923
  303MOL0     H40871  10.725   6.776   0.967  0.9512  3.2284 -1.5311
  303MOL0     H40872  10.746   6.933   1.054 -3.9724  0.3572  1.6223
  303MOL0     H40873  10.862   6.809   1.235 -2.1805  1.2190 -0.0417
  303MOL0     H40874  10.838   6.660   1.143 -2.2470 -0.1831 -0.5060
  303MOL0     H40875  11.011   6.899   1.061 -2.4455  0.4922 -0.3808
  303MOL0     H40876  10.948   6.775   0.948  1.5368 -1.5100  0.7921
  303MOL0     H40877  11.177   6.739   0.999 -2.1878  1.4126 -2.6171
  303MOL0     H40878  11.072   6.609   1.072  0.9521  0.1180 -2.7730
  303MOL0     H40879  11.191   6.847   1.193 -0.9339  0.5437 -1.4980
  303MOL0     H40880  11.097   6.727   1.294  0.4848 -1.8730 -0.3239
  303MOL0     H40881  11.356   6.666   1.120  0.9234  0.6718 -0.2027
  303MOL0     H40882  11.278   6.554   1.228  0.0430 -0.0644  0.7993
  303MOL0     H40883  11.309   6.690   1.428 -1.6497 -3.0885 -1.9825
  303MOL0     H40884  11.459   6.635   1.345  1.1006  0.2013 -3.0451
  303MOL0     H40885  10.398   6.786   1.316 -2.0027 -0.0443  2.1312
  303MOL0     H40886  10.177   6.765   1.373  1.2891 -0.3619  0.7691
  303MOL0     H40887   9.716   6.704   1.562  1.9910 -2.9169 -2.0369
  303MOL0     H40888   9.485   6.707   1.572  0.4643  0.7298  1.2158
  303MOL0     H40889   7.883   6.465   0.817 -1.3075 -1.9010  1.1951
  303MOL0     H40890   7.703   6.321   0.874  0.8787 -0.4262  0.2401
  303MOL0     H40891   7.182   6.216   0.671 -1.4021 -0.0552 -1.3193
  303MOL0     H40892   7.012   6.024   0.715  0.2784 -1.3488 -1.6238
  303MOL0     H40893   6.924   5.790   0.664  2.6131  3.4947 -0.7349
  303MOL0     H40894   6.900   5.874   0.809 -1.4791  0.4522 -0.5668
  303MOL0     H40895   6.891   5.658   0.935 -3.5403  1.9498  0.1687
  303MOL0     H40896   6.934   5.578   0.770  1.6809  0.8711 -0.4522
  303MOL0     H40897   6.719   5.678   0.693 -1.2839 -0.5222 -0.5340
  303MOL0     H40898   6.693   5.769   0.836 -2.7913  0.7408 -4.2984
  303MOL0     H40899   6.538   5.575   0.841 -0.1398 -0.0694  2.6798
  303MOL0     H40900   6.674   5.462   0.828  1.0943  0.1978  0.6928
  303MOL0     H40901   6.640   5.539   1.235 -1.4387  0.7121 -0.2246
  303MOL0     H40902   7.333   5.763   0.782  2.1530  0.0700 -0.0674
  303MOL0     H40903   7.521   5.777   0.694 -1.3956  0.2821  1.3719
  303MOL0     H40904   7.556   5.921   0.593 -1.7581  1.5062  0.6854
  303MOL0     H40905   7.611   5.924   0.761  1.1681 -1.6197 -0.0897
  304MOL0     O40906   1.774   6.036   8.020 -0.3652 -0.9459 -0.3912
  304MOL0     C40907   1.757   5.940   8.096  0.4601 -0.9576  0.0542
  304MOL0     O40908   1.862   5.879   8.170 -0.6712 -0.1595  0.0687
  304MOL0     C40909   1.957   5.977   8.213 -0.6587 -0.4217  0.4478
  304MOL0     C40910   2.077   6.003   8.152 -0.2625  0.0756  0.0431
  304MOL0     C40911   2.167   6.100   8.183  0.5389  0.0233 -0.2990
  304MOL0     C40912   2.130   6.190   8.288 -0.2816  0.4551 -0.0714
  304MOL0     O40913   2.216   6.293   8.310  0.3073  0.0295 -0.0510
  304MOL0     C40914   2.188   6.429   8.290 -0.2700  0.1367  0.0524
  304MOL0     C40915   2.307   6.506   8.339  0.0904 -1.2636 -0.6499
  304MOL0     C40916   2.450   6.468   8.287  0.9560  1.1652  0.4839
  304MOL0     C40917   2.478   6.523   8.144  0.3659 -0.8649  0.4327
  304MOL0     C40918   2.616   6.478   8.086  0.1369  0.4018 -0.2116
  304MOL0     C40919   2.626   6.505   7.938 -0.3648  0.1147 -0.0521
  304MOL0     C40920   2.774   6.493   7.891  0.7380  0.8063 -0.6062
  304MOL0     C40921   2.785   6.522   7.747 -0.1834  0.2764 -0.3806
  304MOL0     N40922   2.724   6.656   7.716  0.6363  0.0703 -0.6431
  304MOL0     C40923   2.801   6.774   7.703 -0.0279 -0.5624  1.0828
  304MOL0     C40924   2.720   6.860   7.643 -0.6650 -0.6287  0.2767
  304MOL0     C40925   2.727   7.009   7.622  0.0154  0.3078  0.3822
  304MOL0     C40926   2.875   7.059   7.623 -0.1532  0.1458  0.9181
  304MOL0     C40927   2.879   7.214   7.626 -0.4974  0.3491  0.5200
  304MOL0     C40928   3.019   7.278   7.609 -0.3665  0.4725  0.6819
  304MOL0     O40929   3.104   7.214   7.703  0.9430 -0.1058  0.0646
  304MOL0     C40930   3.239   7.224   7.698  0.2701 -0.0461 -1.0395
  304MOL0     C40931   3.309   7.256   7.815  0.1686  0.7026  0.1363
  304MOL0     C40932   3.448   7.284   7.809 -0.7060  1.1383 -0.2160
  304MOL0     C40933   3.524   7.263   7.692 -0.3422 -0.0083  0.1989
  304MOL0     C40934   3.671   7.285   7.681 -0.3601  0.2913  0.0841
  304MOL0     O40935   3.735   7.307   7.558 -0.0702 -0.1290 -0.2132
  304MOL0     C40936   3.872   7.306   7.545  0.9950 -0.2984  1.0683
  304MOL0     C40937   3.947   7.189   7.561 -0.0851  0.6272  0.3012
  304MOL0     C40938   4.084   7.202   7.554 -0.3961 -0.0843  0.3291
  304MOL0     C40939   4.143   7.324   7.521  0.2181 -0.1232  0.3903
  304MOL0     O40940   4.275   7.357   7.497  0.0951  0.0489  0.0809
  304MOL0     C40941   4.376   7.257   7.517 -0.1433  0.0183 -0.1733
  304MOL0     C40942   4.512   7.302   7.465  0.6566  0.1770  0.5464
  304MOL0     C40943   4.514   7.377   7.324 -0.0500  0.2534  0.0954
  304MOL0     C40944   4.499   7.279   7.202  0.5679 -0.9249 -0.0324
  304MOL0     C40945   4.523   7.365   7.074 -0.5238  0.8678  0.4851
  304MOL0     C40946   4.427   7.481   7.045  0.3643  0.6411  0.5293
  304MOL0     C40947   4.483   7.566   6.930 -0.0786  0.0068  0.4846
  304MOL0     C40948   4.393   7.687   6.894 -1.3048 -0.2526 -0.7171
  304MOL0    Cl40949   4.446   7.774   6.746 -0.1030  0.5047  0.1635
  304MOL0     C40950   4.061   7.436   7.498 -0.1728 -0.4121  0.3407
  304MOL0     C40951   3.930   7.425   7.512 -0.4779  0.3639 -0.0804
  304MOL0     O40952   3.737   7.284   7.786  0.3206 -0.3140  0.2885
  304MOL0     C40953   3.457   7.222   7.576 -0.3064  0.4862 -0.0075
  304MOL0     C40954   3.315   7.191   7.582 -0.1673  0.3105 -0.2402
  304MOL0     N40955   2.609   6.793   7.597  0.0536 -0.4303 -0.5351
  304MOL0     N40956   2.607   6.670   7.647 -0.4158  0.7982 -0.5279
  304MOL0     C40957   2.011   6.169   8.358  1.2432  0.2126  0.4276
  304MOL0     C40958   1.926   6.058   8.311  0.0155 -0.0601 -0.0405
  304MOL0     C40959   1.622   5.880   8.115 -0.4885  0.2536  0.1929
  304MOL0     C40960   1.615   5.770   8.201  0.1028  0.8649  0.2947
  304MOL0     C40961   1.485   5.737   8.258 -0.2131  0.0010  0.4637
  304MOL0     C40962   1.367   5.807   8.228  0.8605 -0.3662  0.2041
  304MOL0     O40963   1.246   5.786   8.288 -0.2615 -0.0468  0.1559
  304MOL0     C40964   1.223   5.697   8.398  1.2350  0.1821  0.0074
  304MOL0     C40965   1.077   5.665   8.412  1.1481 -0.6835 -1.1185
  304MOL0     C40966   1.033   5.545   8.512  0.0066  0.4606  0.7821
  304MOL0     C40967   1.132   5.527   8.626 -0.4881 -0.1542  0.3453
  304MOL0     C40968   1.156   5.644   8.715 -0.4207 -0.4800 -0.2103
  304MOL0     C40969   1.166   5.735   8.793  0.3618 -0.5745  0.8854
  304MOL0     C40970   1.382   5.917   8.141  0.5204  0.1264  0.4364
  304MOL0     C40971   1.504   5.954   8.084  0.9171  0.2607 -0.4965
  304MOL0     C40972   1.496   6.066   7.975 -0.4792 -0.8315 -0.1548
  304MOL0     H40973   2.114   5.936   8.074  0.1036  1.5474 -1.1025
  304MOL0     H40974   2.261   6.114   8.131  0.6378  1.4742  0.2168
  304MOL0     H40975   2.187   6.451   8.183 -0.4427 -1.3754 -0.2842
  304MOL0     H40976   2.099   6.460   8.346 -1.9729 -1.3744 -1.6694
  304MOL0     H40977   2.305   6.505   8.449 -1.2269 -0.8003 -0.6519
  304MOL0     H40978   2.289   6.612   8.317  0.1309 -1.0228  0.3920
  304MOL0     H40979   2.462   6.359   8.295  2.6307  1.1780 -1.1153
  304MOL0     H40980   2.522   6.511   8.357  1.1868  1.1527  0.2580
  304MOL0     H40981   2.400   6.483   8.079  0.0112 -0.5868  0.6862
  304MOL0     H40982   2.485   6.632   8.143 -0.0717 -0.8390 -0.1640
  304MOL0     H40983   2.700   6.520   8.141  1.7833 -2.6156 -0.1906
  304MOL0     H40984   2.624   6.370   8.099 -1.6827  0.4390  1.9400
  304MOL0     H40985   2.559   6.443   7.877 -2.1048  3.3112 -1.6207
  304MOL0     H40986   2.585   6.604   7.918  0.4019  0.2828 -0.8743
  304MOL0     H40987   2.814   6.395   7.919 -0.5970 -0.0842 -1.6806
  304MOL0     H40988   2.838   6.567   7.939 -0.5796  2.7546 -1.7364
  304MOL0     H40989   2.889   6.508   7.715 -1.1385 -2.5579 -2.6602
  304MOL0     H40990   2.726   6.446   7.695  1.2726 -0.3555 -1.1692
  304MOL0     H40991   2.898   6.796   7.747  0.1339  2.4829 -0.4930
  304MOL0     H40992   2.691   7.030   7.521 -0.8619  1.0535  0.8416
  304MOL0     H40993   2.670   7.057   7.702 -1.0514 -0.9761  0.4181
  304MOL0     H40994   2.926   7.021   7.712 -0.6979 -0.4759  0.9757
  304MOL0     H40995   2.933   7.022   7.538 -0.3107  3.3707 -0.7287
  304MOL0     H40996   2.836   7.254   7.719 -3.1198 -0.5229 -0.2208
  304MOL0     H40997   2.823   7.252   7.540  0.4441  1.3867  0.3451
  304MOL0     H40998   3.028   7.387   7.618 -0.9475  0.7095 -1.1161
  304MOL0     H40999   3.058   7.243   7.513 -1.8145 -0.7641  0.5011
  304MOL0     H41000   3.261   7.261   7.912 -1.8561 -2.8714 -0.5161
  304MOL0     H41001   3.507   7.325   7.891  0.6964 -1.5780  0.2681
  304MOL0     H41002   3.894   7.101   7.597  0.8336  1.1865  3.2804
  304MOL0     H41003   4.149   7.117   7.572 -1.1450 -0.2783  2.5184
  304MOL0     H41004   4.384   7.236   7.624 -1.1165 -0.1063 -0.1222
  304MOL0     H41005   4.354   7.162   7.468 -0.3788  1.2555 -2.6034
  304MOL0     H41006   4.560   7.365   7.540  0.9041  0.0608  0.4831
  304MOL0     H41007   4.574   7.214   7.448 -1.7138 -1.8136  1.6060
  304MOL0     H41008   4.438   7.455   7.319  0.3838  0.6201 -3.9665
  304MOL0     H41009   4.605   7.438   7.334  0.6064 -0.4514 -1.3089
  304MOL0     H41010   4.396   7.244   7.209 -0.5381  1.9664 -0.3645
  304MOL0     H41011   4.563   7.191   7.210  0.3726 -0.9560  1.3355
  304MOL0     H41012   4.515   7.292   6.992  0.7260 -1.7191  2.5345
  304MOL0     H41013   4.629   7.392   7.070 -0.2761  0.8417  3.8818
  304MOL0     H41014   4.331   7.438   7.013  1.6910 -2.0864 -0.0557
  304MOL0     H41015   4.408   7.544   7.132 -2.3163  0.8399 -0.1200
  304MOL0     H41016   4.504   7.508   6.840  0.2896 -0.3670  0.8076
  304MOL0     H41017   4.577   7.604   6.971  1.0418 -2.3054  0.2018
  304MOL0     H41018   4.289   7.661   6.874 -1.8417  1.3448 -0.1478
  304MOL0     H41019   4.399   7.759   6.976 -0.6007 -0.6904 -0.3747
  304MOL0     H41020   4.108   7.527   7.461 -0.6320 -1.1867 -2.4163
  304MOL0     H41021   3.868   7.513   7.509  1.0138  1.8599  4.2045
  304MOL0     H41022   3.515   7.213   7.484  2.6579  3.3733  1.3871
  304MOL0     H41023   3.270   7.143   7.496  1.6015  0.6762 -1.4293
  304MOL0     H41024   1.983   6.228   8.446  0.8647 -2.8794  2.5320
  304MOL0     H41025   1.842   6.020   8.368 -0.2008  1.7222  0.9150
  304MOL0     H41026   1.703   5.719   8.239 -0.5129 -1.5209 -1.2749
  304MOL0     H41027   1.483   5.664   8.339  0.8155  1.6537  2.0404
  304MOL0     H41028   1.257   5.741   8.493  0.3163  0.6211  0.1416
  304MOL0     H41029   1.268   5.600   8.375  0.0497 -0.8103  1.6745
  304MOL0     H41030   1.029   5.649   8.315 -1.4272 -2.7427  0.3386
  304MOL0     H41031   1.029   5.759   8.442  2.3381  0.4910 -2.7257
  304MOL0     H41032   1.031   5.455   8.451 -1.8989 -0.5027  2.1526
  304MOL0     H41033   0.939   5.569   8.563  0.0159  1.4192  0.3687
  304MOL0     H41034   1.101   5.445   8.691 -3.9447  0.8258  0.0957
  304MOL0     H41035   1.226   5.504   8.576 -0.9141  1.1698 -1.1363
  304MOL0     H41036   1.175   5.829   8.844  1.6179 -0.0724 -0.2063
  304MOL0     H41037   1.300   5.986   8.122  1.0270  0.7840  0.5818
  304MOL0     H41038   1.554   6.151   8.014 -0.7745 -0.2883 -0.8796
  304MOL0     H41039   1.533   6.028   7.879  1.3562  0.6989 -0.1141
  304MOL0     H41040   1.396   6.103   7.952  0.8784  4.9708  1.6050
  305MOL0     O41041   2.437   1.603  11.417 -0.4040 -0.3743  1.3561
  305MOL0     C41042   2.528   1.678  11.402  0.2473  0.4524  0.3585
  305MOL0     O41043   2.616   1.663  11.296  0.3593 -0.1829 -0.3498
  305MOL0     C41044   2.574   1.587  11.189 -0.0354 -0.0467  0.1094
  305MOL0     C41045   2.583   1.639  11.054  0.6121 -0.4343  0.6348
  305MOL0     C41046   2.549   1.562  10.942  0.2791  0.3781  0.1996
  305MOL0     C41047   2.511   1.427  10.964  0.3648  0.8511 -1.0919
  305MOL0     O41048   2.484   1.337  10.858 -0.3470  0.0647 -0.2562
  305MOL0     C41049   2.522   1.382  10.726  0.5338 -0.0845 -0.0755
  305MOL0     C41050   2.511   1.263  10.623  0.4180  0.0677  0.3371
  305MOL0     C41051   2.579   1.127  10.647  0.1713  0.1261  0.7542
  305MOL0     C41052   2.728   1.148  10.637  0.1138 -0.3264 -0.3544
  305MOL0     C41053   2.802   1.018  10.678  0.9166 -0.3252  0.1709
  305MOL0     C41054   2.946   1.048  10.706 -0.5473 -0.2987  0.2789
  305MOL0     C41055   3.037   0.932  10.732  0.6098  0.2667  0.4598
  305MOL0     C41056   3.170   0.975  10.787  0.3734 -0.3078 -0.2440
  305MOL0     N41057   3.235   1.086  10.714 -1.2590  0.1542 -0.3601
  305MOL0     C41058   3.285   1.072  10.590 -0.2889  0.2119  0.9123
  305MOL0     C41059   3.347   1.188  10.572 -0.4081 -0.0081  0.5760
  305MOL0     C41060   3.437   1.232  10.466  0.5147  0.5089 -0.1053
  305MOL0     C41061   3.594   1.229  10.510  0.0342  1.2179  0.2235
  305MOL0     C41062   3.674   1.126  10.428 -0.3215  1.1796  0.3841
  305MOL0     C41063   3.817   1.112  10.463 -0.1944  0.6686 -0.4574
  305MOL0     O41064   3.875   1.000  10.394 -0.4089 -0.1919 -0.1553
  305MOL0     C41065   4.009   0.971  10.419  0.7414  0.8979 -0.6327
  305MOL0     C41066   4.057   0.861  10.346  0.9499  0.5151 -0.1470
  305MOL0     C41067   4.190   0.819  10.362  0.9001 -0.3194  0.9151
  305MOL0     C41068   4.272   0.881  10.460 -0.0903 -0.1084 -0.9843
  305MOL0     C41069   4.398   0.822  10.495  0.4222  0.0682 -0.6671
  305MOL0     O41070   4.478   0.892  10.581 -0.0279 -0.4896  0.8299
  305MOL0     C41071   4.602   0.847  10.612  0.6459  0.4491 -0.1828
  305MOL0     C41072   4.704   0.834  10.517  0.4681 -0.7462  0.8921
  305MOL0     C41073   4.835   0.783  10.545 -1.2961  0.3164  0.5972
  305MOL0     C41074   4.856   0.759  10.681  0.4125 -0.0838  0.0517
  305MOL0     O41075   4.983   0.725  10.720 -0.0621  0.0765  0.3639
  305MOL0     C41076   5.049   0.819  10.810  0.1157 -0.8229  0.0884
  305MOL0     C41077   5.046   0.956  10.748 -0.2400 -1.0978  0.4746
  305MOL0     C41078   5.128   1.052  10.838 -0.7896 -0.8233 -0.7775
  305MOL0     C41079   5.159   1.186  10.790  0.4307  0.5334  0.2154
  305MOL0     C41080   5.234   1.271  10.901  0.7618  1.1394  0.6357
  305MOL0     C41081   5.283   1.401  10.836  0.1757  0.5450 -0.3573
  305MOL0     C41082   5.332   1.486  10.945  0.1026 -0.4957 -0.1324
  305MOL0     C41083   5.270   1.624  10.927 -0.8289 -0.2006  0.0033
  305MOL0    Cl41084   5.115   1.620  10.999 -0.1416 -0.0518 -0.7239
  305MOL0     C41085   4.754   0.776  10.779  0.5003  0.1652  0.7856
  305MOL0     C41086   4.628   0.820  10.743  0.3767  0.5853  0.5853
  305MOL0     O41087   4.434   0.726  10.436  0.8558  0.5295 -0.9847
  305MOL0     C41088   4.223   0.997  10.538  0.7302  0.2623  1.2431
  305MOL0     C41089   4.084   1.035  10.513 -0.3288  0.0921  0.4769
  305MOL0     N41090   3.326   1.269  10.676  1.0529  0.4342 -0.0889
  305MOL0     N41091   3.257   1.203  10.768  0.1019  0.3947  0.7039
  305MOL0     C41092   2.507   1.377  11.092  0.2074  0.4544 -0.9492
  305MOL0     C41093   2.542   1.448  11.202 -0.3384 -0.1154  0.0664
  305MOL0     C41094   2.534   1.802  11.481 -0.2379  0.1644  0.8415
  305MOL0     C41095   2.646   1.891  11.453 -0.0083  0.1000  1.0125
  305MOL0     C41096   2.665   2.008  11.524  0.4077  0.0183 -0.0871
  305MOL0     C41097   2.564   2.044  11.622 -0.7199 -0.1758  0.4682
  305MOL0     O41098   2.564   2.156  11.701 -0.8071  1.0634  0.4262
  305MOL0     C41099   2.678   2.235  11.705  0.0836  0.0874 -0.4586
  305MOL0     C41100   2.682   2.342  11.815  0.1066  0.8211  0.0379
  305MOL0     C41101   2.748   2.300  11.944  1.3737  0.1541  0.2320
  305MOL0     C41102   2.673   2.179  12.014 -0.5479 -0.1586 -0.5033
  305MOL0     C41103   2.753   2.121  12.122  1.2967  0.6368 -1.0727
  305MOL0     C41104   2.795   2.076  12.224 -0.1857  0.4155 -0.5690
  305MOL0     C41105   2.458   1.959  11.644  0.1478  0.5855  0.1770
  305MOL0     C41106   2.443   1.834  11.580  1.0251 -0.2272 -0.3702
  305MOL0     C41107   2.314   1.757  11.617  0.2127 -0.2178 -0.3354
  305MOL0     H41108   2.619   1.739  11.034 -1.0271 -0.5023 -3.5413
  305MOL0     H41109   2.548   1.616  10.848 -0.2964  1.7759  0.9753
  305MOL0     H41110   2.463   1.468  10.695  0.0620  0.4635  2.1665
  305MOL0     H41111   2.625   1.417  10.739  1.0744 -2.3731  3.2773
  305MOL0     H41112   2.549   1.297  10.527  1.9912 -0.5515  0.7165
  305MOL0     H41113   2.403   1.243  10.628  0.8150 -2.1069  1.5407
  305MOL0     H41114   2.563   1.056  10.565  0.4782  0.3282  0.5158
  305MOL0     H41115   2.543   1.085  10.742  1.0350 -0.9909  0.6121
  305MOL0     H41116   2.770   1.203  10.553  1.4187  2.3478  1.8874
  305MOL0     H41117   2.753   1.227  10.708 -2.4885  2.8723 -2.6927
  305MOL0     H41118   2.764   0.981  10.774 -0.5558  1.5686  0.3728
  305MOL0     H41119   2.804   0.946  10.595 -1.3085 -1.1731  0.7776
  305MOL0     H41120   2.974   1.104  10.617  0.3151  0.2002  0.8494
  305MOL0     H41121   2.947   1.123  10.786 -2.1166  0.7044 -0.5689
  305MOL0     H41122   3.045   0.861  10.649 -1.9418  0.5186 -0.0888
  305MOL0     H41123   2.991   0.878  10.815  0.9493  0.8606  1.0433
  305MOL0     H41124   3.158   0.987  10.895  2.5363  0.8808 -0.0604
  305MOL0     H41125   3.244   0.894  10.780  0.8557 -0.2013  2.4304
  305MOL0     H41126   3.280   0.993  10.516  0.7930  0.1097  0.9257
  305MOL0     H41127   3.425   1.172  10.376  0.9033  1.4997 -0.8322
  305MOL0     H41128   3.401   1.330  10.436 -3.7252 -1.3306 -1.8322
  305MOL0     H41129   3.626   1.330  10.486 -0.2562  1.6935  1.6864
  305MOL0     H41130   3.603   1.203  10.616  0.5480  0.7138  0.0605
  305MOL0     H41131   3.666   1.145  10.321 -1.6174  1.8493  0.5795
  305MOL0     H41132   3.626   1.028  10.440 -3.0875  2.3287 -0.6459
  305MOL0     H41133   3.815   1.088  10.570 -1.0931 -1.0874 -0.8265
  305MOL0     H41134   3.864   1.207  10.437 -1.8872  1.7150  0.0983
  305MOL0     H41135   4.000   0.815  10.267 -1.2741 -1.4019  2.3874
  305MOL0     H41136   4.231   0.736  10.305 -3.3080 -1.1951 -1.2037
  305MOL0     H41137   4.679   0.851  10.413 -3.5033 -1.3451  1.5933
  305MOL0     H41138   4.903   0.773  10.461 -3.5329 -1.3664 -1.1504
  305MOL0     H41139   4.997   0.825  10.906 -1.4150  2.1603 -0.7980
  305MOL0     H41140   5.151   0.784  10.832  0.4132  0.9621  1.8418
  305MOL0     H41141   5.097   0.941  10.653  2.8266  1.0146  1.6175
  305MOL0     H41142   4.944   0.994  10.732  0.0334 -0.7522 -0.4803
  305MOL0     H41143   5.083   1.056  10.937  1.9660 -0.3155  0.5549
  305MOL0     H41144   5.224   1.001  10.852 -0.8240 -0.4625  1.0849
  305MOL0     H41145   5.058   1.218  10.764  0.0140 -1.4124 -0.7388
  305MOL0     H41146   5.216   1.163  10.699 -0.0078 -0.5452  0.1972
  305MOL0     H41147   5.324   1.219  10.939  0.7847 -0.3469 -1.2875
  305MOL0     H41148   5.159   1.286  10.979  0.1987 -0.1380  0.3635
  305MOL0     H41149   5.363   1.374  10.766  0.9464 -0.4279  0.8599
  305MOL0     H41150   5.195   1.432  10.779 -1.5807 -2.8490  0.2783
  305MOL0     H41151   5.441   1.491  10.941  0.0179  1.9605 -2.8206
  305MOL0     H41152   5.291   1.456  11.042 -0.9539  2.5015  0.4791
  305MOL0     H41153   5.324   1.695  10.991 -0.0821 -0.9893  0.2657
  305MOL0     H41154   5.282   1.658  10.824  1.9025  1.3999  0.7329
  305MOL0     H41155   4.779   0.751  10.882  0.5759  1.9967  1.2380
  305MOL0     H41156   4.538   0.827  10.804 -0.4617 -1.1076 -0.3874
  305MOL0     H41157   4.284   1.046  10.612  2.3526  0.4102 -0.1183
  305MOL0     H41158   4.036   1.111  10.574 -1.2589  2.2424 -2.6612
  305MOL0     H41159   2.488   1.272  11.114 -0.9643  1.0926  1.5003
  305MOL0     H41160   2.542   1.387  11.292 -2.2680  0.5774  0.5812
  305MOL0     H41161   2.723   1.862  11.382 -0.8959  0.9521 -0.3337
  305MOL0     H41162   2.750   2.073  11.506  0.3108 -0.0299 -0.7481
  305MOL0     H41163   2.681   2.291  11.611 -2.5131  3.3002  1.1274
  305MOL0     H41164   2.771   2.180  11.720 -1.4529 -1.8906  3.1927
  305MOL0     H41165   2.579   2.368  11.839 -0.6407 -3.5030  2.7630
  305MOL0     H41166   2.729   2.433  11.777  1.1790  0.0887 -0.4340
  305MOL0     H41167   2.745   2.382  12.016  1.2864  0.0399  0.3576
  305MOL0     H41168   2.845   2.258  11.913  0.0057 -0.6082 -3.5662
  305MOL0     H41169   2.594   2.236  12.064  0.8856 -0.1963  1.9415
  305MOL0     H41170   2.626   2.103  11.951  1.7686 -0.4584 -1.9824
  305MOL0     H41171   2.821   2.018  12.310 -0.3798  0.4195 -0.5070
  305MOL0     H41172   2.378   1.995  11.708  0.1678 -1.4642  1.4680
  305MOL0     H41173   2.343   1.657  11.653  1.3164  0.6813  1.4432
  305MOL0     H41174   2.259   1.801  11.701 -0.4174  0.7649 -1.2403
  305MOL0     H41175   2.252   1.749  11.528  0.6630  2.2890 -0.9222
  306MOL0     O41176   4.343   3.896   3.225 -0.3936 -0.4074 -0.2174
  306MOL0     C41177   4.267   3.979   3.186  0.5721 -0.2469  0.7402
  306MOL0     O41178   4.314   4.082   3.101  0.0053  0.6096  0.0281
  306MOL0     C41179   4.434   4.064   3.039  0.0407 -0.2421 -0.6978
  306MOL0     C41180   4.540   4.128   3.097 -0.2288 -0.5044  0.0189
  306MOL0     C41181   4.663   4.117   3.035 -0.1010 -0.3276  0.3785
  306MOL0     C41182   4.688   4.058   2.913 -0.0390 -0.0137  0.4192
  306MOL0     O41183   4.810   4.065   2.856  0.3299  0.8731 -0.7464
  306MOL0     C41184   4.842   3.995   2.735 -0.1933 -0.4939 -0.1025
  306MOL0     C41185   4.987   4.024   2.713 -0.4688  0.2764 -0.7255
  306MOL0     C41186   5.044   4.012   2.568 -0.3870 -0.1318  0.3760
  306MOL0     C41187   5.079   3.866   2.523 -0.2604  0.2836 -0.1885
  306MOL0     C41188   5.115   3.853   2.370 -0.1563 -1.0289 -1.3861
  306MOL0     C41189   5.131   3.712   2.325 -0.4398  0.3328 -0.3511
  306MOL0     C41190   5.006   3.622   2.350  0.0343 -0.6741 -0.2216
  306MOL0     C41191   4.880   3.698   2.316  0.7354 -0.0307  0.3680
  306MOL0     N41192   4.761   3.619   2.343  0.4001  0.6625 -0.4165
  306MOL0     C41193   4.677   3.658   2.447  1.3481  0.6150  1.1332
  306MOL0     C41194   4.583   3.557   2.440  0.1026 -0.4049  0.8041
  306MOL0     C41195   4.455   3.563   2.514  0.9898 -0.9488 -0.5522
  306MOL0     C41196   4.329   3.533   2.436  0.5967 -0.9901  0.2895
  306MOL0     C41197   4.290   3.624   2.314  0.1893 -0.6719 -0.7293
  306MOL0     C41198   4.257   3.769   2.357  0.9280  0.9670  0.5418
  306MOL0     O41199   4.376   3.836   2.393  0.1167  0.0971  0.8854
  306MOL0     C41200   4.375   3.965   2.437  0.4619  0.5760 -0.5167
  306MOL0     C41201   4.488   4.008   2.497 -0.7389 -0.5516 -0.9468
  306MOL0     C41202   4.504   4.142   2.536  0.6310  0.4287  1.3798
  306MOL0     C41203   4.395   4.231   2.523 -0.0506  0.0587 -0.0528
  306MOL0     C41204   4.406   4.366   2.570  0.0457 -0.6332 -0.5932
  306MOL0     O41205   4.304   4.460   2.536 -1.4752  0.0742  0.6557
  306MOL0     C41206   4.308   4.589   2.583  0.1396  0.0575  0.0818
  306MOL0     C41207   4.409   4.681   2.566 -0.0631 -0.3064 -0.5478
  306MOL0     C41208   4.400   4.807   2.632 -0.1953  0.5523 -0.0137
  306MOL0     C41209   4.284   4.843   2.700 -0.5319 -0.2439 -0.4752
  306MOL0     O41210   4.269   4.961   2.756 -0.4632  0.5096 -0.3309
  306MOL0     C41211   4.288   4.960   2.899 -0.0500  0.2090  0.1453
  306MOL0     C41212   4.201   5.069   2.942 -0.6692  1.1214  0.4414
  306MOL0     C41213   4.203   5.072   3.096  0.3769  0.3393  0.0531
  306MOL0     C41214   4.114   5.195   3.143 -0.9688  0.7367 -0.2113
  306MOL0     C41215   4.124   5.210   3.295  0.6947  0.2906  0.3509
  306MOL0     C41216   4.035   5.316   3.348  0.9054 -0.0453 -0.6141
  306MOL0     C41217   4.086   5.454   3.306 -0.0181  0.3177  0.1245
  306MOL0     C41218   3.995   5.560   3.375  0.2602  0.0652  0.8499
  306MOL0    Cl41219   3.830   5.541   3.349  0.0749  0.2821  0.2771
  306MOL0     C41220   4.187   4.753   2.710  1.1227  0.8298  0.0776
  306MOL0     C41221   4.194   4.623   2.650 -0.4748 -0.7605 -0.2259
  306MOL0     O41222   4.502   4.397   2.646 -0.3914  0.5508  0.4409
  306MOL0     C41223   4.270   4.187   2.472 -0.1057  0.1848 -0.2938
  306MOL0     C41224   4.266   4.058   2.427  0.4248 -0.1415  1.3792
  306MOL0     N41225   4.630   3.458   2.351  0.4535  0.3438  1.5173
  306MOL0     N41226   4.722   3.506   2.285  1.2909  0.1588  0.3332
  306MOL0     C41227   4.579   3.990   2.858 -0.3139 -0.4414  0.0507
  306MOL0     C41228   4.458   3.993   2.925 -0.6665  0.3199  1.5636
  306MOL0     C41229   4.121   3.987   3.223  0.3160 -0.1328 -0.0253
  306MOL0     C41230   4.033   4.080   3.156 -0.1397  0.2008 -0.2826
  306MOL0     C41231   3.899   4.084   3.171  0.0499 -0.0561  0.0965
  306MOL0     C41232   3.843   4.014   3.280  0.0586  0.5555  0.1663
  306MOL0     O41233   3.714   4.033   3.317 -0.1257 -0.6117 -0.9910
  306MOL0     C41234   3.678   4.170   3.362 -0.3101  0.3986  0.0217
  306MOL0     C41235   3.528   4.193   3.325  0.4239  0.7487 -0.0274
  306MOL0     C41236   3.503   4.338   3.297  0.2307 -0.5164  0.6343
  306MOL0     C41237   3.352   4.379   3.264  0.1818 -0.5932  0.2657
  306MOL0     C41238   3.348   4.489   3.172  0.6024 -0.3782 -0.5767
  306MOL0     C41239   3.356   4.583   3.106 -0.0519 -0.5081  0.6715
  306MOL0     C41240   3.921   3.930   3.351 -0.2419  0.3623 -0.2636
  306MOL0     C41241   4.058   3.918   3.329  0.4087  0.6730  0.7378
  306MOL0     C41242   4.129   3.821   3.417 -0.3180 -0.8501 -0.4595
  306MOL0     H41243   4.524   4.173   3.195 -0.4659 -2.7683  1.0669
  306MOL0     H41244   4.758   4.157   3.069  0.3459  0.7768 -1.9919
  306MOL0     H41245   4.817   3.889   2.726 -2.2345 -0.1590  1.1418
  306MOL0     H41246   4.770   4.039   2.666  1.3239  1.6098 -0.4511
  306MOL0     H41247   5.045   3.965   2.785 -1.4976  1.4569  1.1712
  306MOL0     H41248   4.993   4.131   2.738  0.5844  0.0479  0.0796
  306MOL0     H41249   5.133   4.076   2.569 -1.1908  0.9957  1.1127
  306MOL0     H41250   4.966   4.047   2.500 -0.5836  0.7595  1.0489
  306MOL0     H41251   5.157   3.819   2.583 -2.0518 -0.5780  1.5577
  306MOL0     H41252   4.994   3.798   2.538  1.9985 -3.1416 -1.5711
  306MOL0     H41253   5.049   3.915   2.307 -3.2857 -2.3026  0.3903
  306MOL0     H41254   5.210   3.905   2.359  0.8231 -0.3976  5.7255
  306MOL0     H41255   5.143   3.725   2.217  0.3435 -1.0320 -0.4547
  306MOL0     H41256   5.216   3.662   2.372  0.9966  1.1778 -1.9064
  306MOL0     H41257   5.007   3.589   2.454  1.9685 -0.1145 -0.0227
  306MOL0     H41258   5.011   3.530   2.291 -0.3579 -2.1172  1.9020
  306MOL0     H41259   4.868   3.798   2.358  1.0597  0.2871 -0.2804
  306MOL0     H41260   4.869   3.719   2.209 -3.1670  1.7230  0.9589
  306MOL0     H41261   4.681   3.756   2.494 -4.3693  2.4111 -1.2184
  306MOL0     H41262   4.467   3.489   2.594  0.7781 -0.3959 -0.0052
  306MOL0     H41263   4.427   3.660   2.556 -0.0097 -1.0694 -0.9141
  306MOL0     H41264   4.339   3.430   2.402 -2.3779 -0.9722 -1.0241
  306MOL0     H41265   4.243   3.536   2.504  0.0067  2.1799 -0.4116
  306MOL0     H41266   4.200   3.585   2.266 -1.6846 -0.9339  2.7208
  306MOL0     H41267   4.373   3.644   2.245  1.6872  0.0651  1.2089
  306MOL0     H41268   4.180   3.770   2.435 -0.9224 -0.1519 -1.1745
  306MOL0     H41269   4.200   3.819   2.278  1.5716  0.2721 -0.3794
  306MOL0     H41270   4.570   3.937   2.502 -2.4315 -2.7359 -2.2270
  306MOL0     H41271   4.603   4.165   2.572  0.1798 -0.0374  3.0093
  306MOL0     H41272   4.493   4.646   2.507 -1.3097 -2.1597 -1.2911
  306MOL0     H41273   4.488   4.869   2.642 -0.3681  0.9306 -0.7857
  306MOL0     H41274   4.258   4.872   2.958  0.6778  0.9561  1.6841
  306MOL0     H41275   4.393   4.978   2.923  0.2792  2.3195 -2.4291
  306MOL0     H41276   4.240   5.163   2.901  2.6365  0.2935  1.3879
  306MOL0     H41277   4.098   5.050   2.910  0.5973  0.5148 -3.8286
  306MOL0     H41278   4.156   4.992   3.154 -0.3444  1.1248  0.5789
  306MOL0     H41279   4.307   5.089   3.124  0.6851 -1.2426 -0.0054
  306MOL0     H41280   4.011   5.183   3.106 -0.4587 -0.1894 -1.4036
  306MOL0     H41281   4.148   5.285   3.091  2.1389 -2.0030 -3.4303
  306MOL0     H41282   4.224   5.234   3.331  0.5015 -1.4520  2.2413
  306MOL0     H41283   4.088   5.113   3.330 -2.8731  1.1771 -0.4131
  306MOL0     H41284   3.932   5.287   3.323  1.2716 -2.0250  0.0067
  306MOL0     H41285   4.030   5.313   3.457 -0.9146 -0.8540 -0.6691
  306MOL0     H41286   4.065   5.468   3.199  0.4598  1.6589  0.1925
  306MOL0     H41287   4.191   5.459   3.337 -0.1819 -4.5827  2.3334
  306MOL0     H41288   4.014   5.547   3.481 -2.8839 -2.1469  1.2559
  306MOL0     H41289   4.037   5.660   3.359 -1.2666  0.7598  1.0020
  306MOL0     H41290   4.100   4.785   2.768 -0.0080 -0.3441 -0.8943
  306MOL0     H41291   4.115   4.552   2.673 -0.3005 -0.3031  2.0508
  306MOL0     H41292   4.193   4.257   2.441 -0.8869 -0.7262 -0.4219
  306MOL0     H41293   4.179   4.020   2.374  1.6636 -0.0415 -0.8427
  306MOL0     H41294   4.579   3.923   2.772 -1.2699 -1.6484  0.9514
  306MOL0     H41295   4.369   3.951   2.879 -1.1063 -0.9169  3.4044
  306MOL0     H41296   4.083   4.123   3.069  0.7047 -3.1516 -1.6303
  306MOL0     H41297   3.843   4.146   3.103  1.9853  3.3051  1.3485
  306MOL0     H41298   3.741   4.240   3.306 -0.4236 -1.0572 -2.0214
  306MOL0     H41299   3.688   4.184   3.470  4.6088 -0.8765 -0.0582
  306MOL0     H41300   3.469   4.155   3.409  1.1631 -1.6468 -0.5207
  306MOL0     H41301   3.496   4.135   3.238  0.7163 -1.8496  1.5018
  306MOL0     H41302   3.558   4.357   3.204 -1.5442 -2.0874 -0.8281
  306MOL0     H41303   3.551   4.399   3.374  1.7177  1.1750 -1.5128
  306MOL0     H41304   3.304   4.291   3.220 -0.5965  0.8270 -1.8812
  306MOL0     H41305   3.296   4.405   3.354  0.5246 -1.3196  0.7033
  306MOL0     H41306   3.354   4.664   3.035 -0.8038  1.6510  3.0143
  306MOL0     H41307   3.874   3.890   3.440 -3.3401 -0.1723 -1.9856
  306MOL0     H41308   4.066   3.794   3.502  3.3991  1.1580  3.3429
  306MOL0     H41309   4.169   3.731   3.369 -0.2958 -0.6260 -0.8604
  306MOL0     H41310   4.215   3.869   3.465 -2.3378  3.2572 -0.5448
  307MOL0     O41311   8.826   0.521   7.467  1.0101 -0.3201 -1.0379
  307MOL0     C41312   8.789   0.410   7.493  0.3309  0.1160 -0.1185
  307MOL0     O41313   8.877   0.298   7.511 -0.3681 -0.9707  0.9024
  307MOL0     C41314   9.011   0.331   7.496 -0.5888 -0.3189  0.2213
  307MOL0     C41315   9.089   0.393   7.599 -0.3987  0.3760  1.0313
  307MOL0     C41316   9.221   0.433   7.565  0.5241  0.0603  0.5827
  307MOL0     C41317   9.269   0.417   7.439 -0.8546 -0.1604  0.6790
  307MOL0     O41318   9.402   0.457   7.402  0.3694  0.0195  0.6859
  307MOL0     C41319   9.477   0.531   7.496  0.6521 -0.2038 -0.5384
  307MOL0     C41320   9.616   0.583   7.449  0.3536 -0.3883 -0.2457
  307MOL0     C41321   9.716   0.471   7.447 -0.9550  0.3995  0.0743
  307MOL0     C41322   9.761   0.424   7.578 -0.8340  0.2023 -0.6653
  307MOL0     C41323   9.896   0.348   7.581  2.0491 -0.3571 -0.0008
  307MOL0     C41324  10.023   0.439   7.545  0.0140 -0.6313  0.7635
  307MOL0     C41325  10.158   0.352   7.554  0.4328  0.2438  0.0104
  307MOL0     C41326  10.273   0.421   7.492 -0.4326  0.2863  0.5254
  307MOL0     N41327  10.386   0.335   7.499  0.1004  0.1853 -0.4541
  307MOL0     C41328  10.483   0.309   7.604  0.2214  0.2232 -0.5077
  307MOL0     C41329  10.583   0.234   7.563 -0.4087  0.3017  0.1366
  307MOL0     C41330  10.709   0.214   7.642  0.2732 -0.3179  0.1173
  307MOL0     C41331  10.844   0.238   7.567  0.2715 -1.0325 -0.3282
  307MOL0     C41332  10.893   0.387   7.582  1.0662 -0.4981  0.0783
  307MOL0     C41333  10.966   0.446   7.452  1.1891 -0.0192  0.0657
  307MOL0     O41334  10.880   0.446   7.339  1.0587 -0.3759  0.2012
  307MOL0     C41335  10.774   0.541   7.333 -0.7333  0.1892  0.5095
  307MOL0     C41336  10.672   0.508   7.238 -0.0014  0.7047 -1.0190
  307MOL0     C41337  10.552   0.588   7.235  0.7226 -0.1474  1.1463
  307MOL0     C41338  10.526   0.697   7.324 -0.9676  0.2669 -0.3001
  307MOL0     C41339  10.392   0.762   7.322  0.4607  0.0350  0.6785
  307MOL0     O41340  10.295   0.724   7.224 -0.1013 -0.6822 -0.2184
  307MOL0     C41341  10.162   0.775   7.233  0.1919  0.8856  0.2124
  307MOL0     C41342  10.061   0.677   7.230 -0.2345  0.4500 -0.4531
  307MOL0     C41343   9.921   0.706   7.239 -0.4283 -0.1319 -0.0310
  307MOL0     C41344   9.893   0.839   7.266 -0.0615  1.3658 -1.2524
  307MOL0     O41345   9.758   0.873   7.288 -0.2050  0.5260  0.0510
  307MOL0     C41346   9.688   0.854   7.172  0.5065 -0.5420  0.5474
  307MOL0     C41347   9.652   0.988   7.102  0.5387  0.3708 -0.4316
  307MOL0     C41348   9.566   0.956   6.983 -0.2675 -0.1853 -0.8367
  307MOL0     C41349   9.535   1.080   6.902  0.5172 -0.4125 -0.5772
  307MOL0     C41350   9.420   1.076   6.803 -0.0514  0.0823  1.2660
  307MOL0     C41351   9.438   0.965   6.706  0.1953  0.2756  0.2215
  307MOL0     C41352   9.326   0.959   6.599  0.9606  0.0878 -0.2541
  307MOL0     C41353   9.367   0.871   6.485 -0.2009  0.6833  0.1461
  307MOL0    Cl41354   9.228   0.833   6.374  0.2191  0.4827 -0.0103
  307MOL0     C41355   9.988   0.935   7.284  0.1242  0.4706 -0.3065
  307MOL0     C41356  10.127   0.905   7.264  0.0680  0.3404  0.6804
  307MOL0     O41357  10.369   0.840   7.413  0.2855 -0.4111 -1.3733
  307MOL0     C41358  10.643   0.733   7.403  0.9559  0.4971  1.0246
  307MOL0     C41359  10.763   0.664   7.398  0.3555 -0.7592 -0.3682
  307MOL0     N41360  10.549   0.200   7.433  0.0433 -0.4148  0.6871
  307MOL0     N41361  10.433   0.255   7.395 -0.2598 -0.0664  0.4237
  307MOL0     C41362   9.198   0.346   7.341 -0.7291 -0.0675 -0.8022
  307MOL0     C41363   9.065   0.305   7.368 -0.0325 -0.0730 -0.1851
  307MOL0     C41364   8.646   0.380   7.500  0.3288 -0.7615 -0.6224
  307MOL0     C41365   8.604   0.257   7.490 -0.3211  0.9569 -0.1350
  307MOL0     C41366   8.470   0.227   7.502  1.2341 -0.0985  0.7465
  307MOL0     C41367   8.370   0.318   7.534  0.2153 -0.7850 -0.1029
  307MOL0     O41368   8.234   0.293   7.556 -0.5826 -0.1415 -0.0812
  307MOL0     C41369   8.194   0.163   7.526  0.6697  0.3064 -0.1007
  307MOL0     C41370   8.044   0.163   7.502 -0.8889 -1.4692  0.3841
  307MOL0     C41371   8.001   0.277   7.402  0.5295  0.8555 -0.2396
  307MOL0     C41372   8.077   0.276   7.269  0.9107  0.5082 -1.0434
  307MOL0     C41373   8.040   0.368   7.163 -0.5292 -0.6445  0.3730
  307MOL0     C41374   8.007   0.461   7.091 -0.0882 -0.7312 -0.2815
  307MOL0     C41375   8.410   0.452   7.537 -0.4223 -0.2464  0.4672
  307MOL0     C41376   8.545   0.488   7.506 -0.1780 -0.3577  0.1243
  307MOL0     C41377   8.573   0.637   7.504  0.1132  0.1097 -0.0842
  307MOL0     H41378   9.050   0.388   7.700  0.1893 -3.3020  1.2178
  307MOL0     H41379   9.277   0.478   7.645 -0.6700  0.4702  1.2159
  307MOL0     H41380   9.427   0.624   7.524  1.1180 -0.4203  1.1256
  307MOL0     H41381   9.496   0.476   7.588 -0.3916 -2.8245 -1.7942
  307MOL0     H41382   9.645   0.659   7.521 -0.6552  0.2097 -0.4534
  307MOL0     H41383   9.617   0.639   7.355  1.0180  1.9803  1.0931
  307MOL0     H41384   9.808   0.500   7.395  0.4916 -2.9156  0.5335
  307MOL0     H41385   9.660   0.389   7.400 -0.4082  0.0751 -0.0217
  307MOL0     H41386   9.765   0.512   7.643  0.0302  1.3282 -2.1754
  307MOL0     H41387   9.685   0.353   7.613  2.1202 -2.8700  0.1037
  307MOL0     H41388   9.913   0.300   7.678  0.9264  0.5082  0.6541
  307MOL0     H41389   9.894   0.267   7.508  0.8092 -1.9121  1.6535
  307MOL0     H41390  10.017   0.476   7.443  2.0428 -4.8372 -1.1565
  307MOL0     H41391  10.015   0.530   7.604 -4.3675  0.2034 -0.7651
  307MOL0     H41392  10.147   0.249   7.517  0.5704 -0.0722  0.8286
  307MOL0     H41393  10.178   0.343   7.661  0.1357  0.0422  0.0506
  307MOL0     H41394  10.257   0.460   7.391  0.7739  2.4578  1.1104
  307MOL0     H41395  10.300   0.510   7.549  1.1207  0.5944 -0.6114
  307MOL0     H41396  10.484   0.355   7.703 -1.5773 -1.1304  0.1984
  307MOL0     H41397  10.716   0.279   7.730 -4.1951  0.9865 -0.2403
  307MOL0     H41398  10.721   0.111   7.677  0.1124 -0.3769  0.0006
  307MOL0     H41399  10.927   0.180   7.607 -0.4171 -2.2113 -0.5482
  307MOL0     H41400  10.835   0.212   7.461 -1.0959 -0.0264 -0.4933
  307MOL0     H41401  10.963   0.391   7.666 -0.5325  0.0384  1.4316
  307MOL0     H41402  10.805   0.444   7.613 -0.9998 -2.1678 -2.2758
  307MOL0     H41403  11.041   0.373   7.420 -2.6436 -4.5883  0.4811
  307MOL0     H41404  11.019   0.541   7.466  2.0957 -0.3527 -0.9336
  307MOL0     H41405  10.679   0.412   7.188 -2.0163  0.0796 -0.1790
  307MOL0     H41406  10.468   0.552   7.177  0.0373  2.7166  0.1648
  307MOL0     H41407  10.083   0.571   7.223 -0.4538  0.2907  1.0112
  307MOL0     H41408   9.848   0.626   7.223 -0.7483  0.0255  0.6004
  307MOL0     H41409   9.736   0.785   7.102  2.3887  0.6786  0.5559
  307MOL0     H41410   9.593   0.808   7.199 -0.8829  0.9404 -1.4862
  307MOL0     H41411   9.601   1.052   7.174  1.8029  0.3606  0.5106
  307MOL0     H41412   9.741   1.043   7.069 -2.2173  4.1311 -2.2835
  307MOL0     H41413   9.614   0.879   6.922 -1.7454 -2.6346  0.9061
  307MOL0     H41414   9.467   0.923   7.018 -0.8846  2.5595  0.2143
  307MOL0     H41415   9.626   1.120   6.856  0.7313  1.9174  1.6365
  307MOL0     H41416   9.507   1.156   6.975  0.6858  1.3739 -2.2730
  307MOL0     H41417   9.399   1.174   6.760 -2.1545 -0.2179  1.5067
  307MOL0     H41418   9.330   1.044   6.856  0.0630  0.1404  1.4956
  307MOL0     H41419   9.538   0.985   6.666  1.4259 -2.0342  1.8770
  307MOL0     H41420   9.457   0.872   6.761 -2.6488 -0.7930 -0.4186
  307MOL0     H41421   9.296   1.052   6.550  2.0767 -0.9559 -3.1486
  307MOL0     H41422   9.239   0.908   6.642 -1.1147  1.6645 -2.3696
  307MOL0     H41423   9.453   0.911   6.430  1.7921 -0.8639  1.9891
  307MOL0     H41424   9.403   0.775   6.522  1.0121  1.7533  1.8831
  307MOL0     H41425   9.960   1.037   7.308 -0.2353  0.0392  1.1468
  307MOL0     H41426  10.207   0.970   7.298 -0.4465  1.6319 -0.4587
  307MOL0     H41427  10.629   0.816   7.471  1.8031  3.7893 -2.4727
  307MOL0     H41428  10.836   0.677   7.478 -0.6237 -2.2683  0.8410
  307MOL0     H41429   9.249   0.323   7.248 -0.9691  0.9135 -1.1884
  307MOL0     H41430   9.003   0.261   7.291  0.5118  0.7817 -1.1426
  307MOL0     H41431   8.672   0.173   7.488 -0.0395  1.1527  0.7294
  307MOL0     H41432   8.453   0.120   7.496 -0.3781  0.2095 -1.4294
  307MOL0     H41433   8.208   0.093   7.610 -2.7209  0.7891  0.9961
  307MOL0     H41434   8.241   0.120   7.437  2.0327  1.7106 -0.1149
  307MOL0     H41435   7.995   0.206   7.590  2.3518  0.2428  1.5316
  307MOL0     H41436   7.994   0.070   7.477 -1.5230 -0.6465 -1.6067
  307MOL0     H41437   8.019   0.376   7.446 -0.7532  1.7282 -1.5895
  307MOL0     H41438   7.892   0.270   7.395  0.7183 -3.3476 -1.5490
  307MOL0     H41439   8.184   0.285   7.289  0.8099 -2.2430  1.5223
  307MOL0     H41440   8.066   0.172   7.235  4.0551 -1.0365  2.0433
  307MOL0     H41441   7.973   0.550   7.041  1.1194  1.5677  2.6669
  307MOL0     H41442   8.325   0.519   7.549 -1.5412 -0.8735 -2.8481
  307MOL0     H41443   8.665   0.653   7.560 -0.8956  0.7182  1.4725
  307MOL0     H41444   8.584   0.678   7.403 -2.2279  3.1735  0.7698
  307MOL0     H41445   8.508   0.703   7.562  1.6458  1.3841  0.2583
  308MOL0     O41446   8.694   3.328   7.183 -0.3439 -0.2970  0.1582
  308MOL0     C41447   8.635   3.434   7.200 -0.3333 -0.2519  0.5576
  308MOL0     O41448   8.690   3.556   7.207 -0.0067 -0.5555  0.2627
  308MOL0     C41449   8.826   3.573   7.230 -0.5344  0.5918  0.0907
  308MOL0     C41450   8.890   3.518   7.347  0.3810  0.2855 -0.2031
  308MOL0     C41451   9.023   3.542   7.383 -0.2206  0.4979  0.5211
  308MOL0     C41452   9.095   3.635   7.302  0.4838  0.9664 -0.2706
  308MOL0     O41453   9.215   3.674   7.335  0.1997 -0.2280  0.4192
  308MOL0     C41454   9.276   3.641   7.458  0.1188  0.1945 -0.3750
  308MOL0     C41455   9.414   3.699   7.460 -0.3014  0.1727  0.6414
  308MOL0     C41456   9.485   3.705   7.598  0.0373 -0.3059  0.0995
  308MOL0     C41457   9.467   3.577   7.673  1.1114  0.0148 -0.4571
  308MOL0     C41458   9.536   3.586   7.818  0.2655  0.9412  0.9319
  308MOL0     C41459   9.445   3.620   7.931  0.2971 -0.1379  0.3806
  308MOL0     C41460   9.368   3.490   7.969 -0.2681  0.1337  0.1724
  308MOL0     C41461   9.268   3.503   8.086  0.1791  0.1700 -0.4413
  308MOL0     N41462   9.157   3.591   8.046  0.4687 -0.4080  0.4224
  308MOL0     C41463   9.093   3.581   7.928 -0.2396  0.4258  0.4954
  308MOL0     C41464   9.040   3.699   7.917  0.7520  1.4848 -0.0430
  308MOL0     C41465   8.963   3.738   7.792 -0.5550  0.2350 -0.8603
  308MOL0     C41466   8.833   3.665   7.767  0.5499  0.5513 -0.6258
  308MOL0     C41467   8.758   3.728   7.650  0.0934 -0.2656  1.0889
  308MOL0     C41468   8.622   3.666   7.622 -0.1069 -0.3444 -0.6992
  308MOL0     O41469   8.548   3.685   7.740  0.9406  0.4433 -0.1794
  308MOL0     C41470   8.413   3.693   7.726 -0.6151  0.1402 -0.5036
  308MOL0     C41471   8.328   3.590   7.674 -0.7084 -0.1035  0.3593
  308MOL0     C41472   8.191   3.608   7.646 -0.1156 -0.0788  0.4096
  308MOL0     C41473   8.135   3.735   7.671  0.8196 -0.3759  0.6238
  308MOL0     C41474   7.985   3.749   7.658 -0.1784 -0.5606  0.2753
  308MOL0     O41475   7.911   3.637   7.651  0.0200 -0.2294  0.3409
  308MOL0     C41476   7.773   3.646   7.635 -0.4309  0.6557  0.0043
  308MOL0     C41477   7.705   3.749   7.711 -0.1373 -0.5613 -0.0248
  308MOL0     C41478   7.559   3.751   7.711 -0.8814  0.3460 -0.2948
  308MOL0     C41479   7.495   3.653   7.637 -0.2339 -0.1692  0.1217
  308MOL0     O41480   7.357   3.665   7.645  0.2880  0.3805 -0.5383
  308MOL0     C41481   7.277   3.560   7.573  0.3368 -0.0828 -0.1029
  308MOL0     C41482   7.127   3.585   7.578 -0.2829  0.0444 -0.3413
  308MOL0     C41483   7.076   3.703   7.490 -0.6051 -0.2554  0.2007
  308MOL0     C41484   6.927   3.737   7.500  0.5664 -0.6106 -0.3765
  308MOL0     C41485   6.882   3.825   7.389 -0.1356  0.0913 -0.0455
  308MOL0     C41486   6.729   3.840   7.373  1.2052  0.3864  0.2216
  308MOL0     C41487   6.657   3.709   7.333 -0.3687 -0.1269  0.2496
  308MOL0     C41488   6.502   3.710   7.340  0.0709 -0.5918  0.2267
  308MOL0    Cl41489   6.450   3.838   7.242  0.0889  0.3792 -0.1400
  308MOL0     C41490   7.561   3.550   7.560 -0.0449  0.2035 -0.0783
  308MOL0     C41491   7.695   3.551   7.561 -0.4286  0.3412 -1.1884
  308MOL0     O41492   7.948   3.865   7.639 -0.0313  0.7858  0.5448
  308MOL0     C41493   8.210   3.834   7.733 -0.6883  0.9067  0.5474
  308MOL0     C41494   8.351   3.815   7.756 -0.1118 -0.8181 -0.8154
  308MOL0     N41495   9.052   3.768   8.034 -0.4637  0.2220 -0.3619
  308MOL0     N41496   9.116   3.702   8.120  0.1691 -0.2066  0.4894
  308MOL0     C41497   9.039   3.697   7.187  0.3764  0.4330  0.6301
  308MOL0     C41498   8.900   3.666   7.152 -0.5460  0.1718 -0.6195
  308MOL0     C41499   8.493   3.434   7.169  0.2591  0.2013  0.3740
  308MOL0     C41500   8.418   3.536   7.232 -0.1626  0.3794 -0.6390
  308MOL0     C41501   8.276   3.549   7.217  0.4583  0.7207 -0.0848
  308MOL0     C41502   8.207   3.455   7.149 -0.8432 -0.3297 -0.4803
  308MOL0     O41503   8.068   3.467   7.140 -0.6300  0.2362 -0.2625
  308MOL0     C41504   7.983   3.532   7.238  0.2505 -0.8874 -0.8639
  308MOL0     C41505   7.827   3.493   7.234  1.3070  0.5596 -0.3541
  308MOL0     C41506   7.776   3.528   7.095 -0.6684  0.0854  0.1244
  308MOL0     C41507   7.631   3.480   7.059 -0.6087  0.4798 -0.7022
  308MOL0     C41508   7.569   3.536   6.941 -1.0840 -1.3061  0.5355
  308MOL0     C41509   7.519   3.592   6.848 -0.0635 -0.5170 -0.1425
  308MOL0     C41510   8.280   3.356   7.084  0.5276  0.9951 -0.6319
  308MOL0     C41511   8.422   3.342   7.092  0.3444  0.9433  0.5813
  308MOL0     C41512   8.479   3.223   7.017  0.0245 -0.3845 -0.9201
  308MOL0     H41513   8.826   3.455   7.408  0.3480  0.0587 -0.4673
  308MOL0     H41514   9.061   3.484   7.467  1.4078  1.5280  0.5307
  308MOL0     H41515   9.205   3.675   7.535 -1.1919 -1.2434 -0.8752
  308MOL0     H41516   9.287   3.532   7.469 -3.1442 -0.2723 -0.4275
  308MOL0     H41517   9.416   3.799   7.415  0.0046 -0.0887  0.0625
  308MOL0     H41518   9.471   3.635   7.393 -2.5605 -0.5084 -0.7318
  308MOL0     H41519   9.436   3.782   7.658 -1.8086 -2.2479  1.2344
  308MOL0     H41520   9.592   3.719   7.585  0.0857 -2.0930 -1.9386
  308MOL0     H41521   9.361   3.554   7.686  1.5982 -2.4150 -0.4690
  308MOL0     H41522   9.515   3.495   7.618  1.1092 -1.3072  1.4276
  308MOL0     H41523   9.592   3.493   7.834  1.2407  1.2546 -0.4713
  308MOL0     H41524   9.614   3.664   7.820  1.1343  0.1073  0.4497
  308MOL0     H41525   9.501   3.654   8.018  1.9316  1.7155 -1.3150
  308MOL0     H41526   9.385   3.702   7.892  1.4553 -0.4101 -2.1632
  308MOL0     H41527   9.447   3.419   7.995 -0.6007 -0.2582  0.0979
  308MOL0     H41528   9.312   3.451   7.884 -2.3990  1.3096  0.9732
  308MOL0     H41529   9.232   3.408   8.125  2.1930 -0.9812 -1.2086
  308MOL0     H41530   9.325   3.550   8.167 -0.2795 -0.6548  0.3775
  308MOL0     H41531   9.103   3.502   7.853 -0.1502  2.0471 -1.2750
  308MOL0     H41532   8.947   3.843   7.819  0.4182 -0.3124  2.3957
  308MOL0     H41533   9.027   3.721   7.705 -1.1882 -0.8992 -1.1166
  308MOL0     H41534   8.841   3.559   7.740 -1.8974  0.1983 -0.1931
  308MOL0     H41535   8.777   3.679   7.860 -1.9548 -1.2416 -1.7551
  308MOL0     H41536   8.822   3.719   7.562 -1.5833  1.4338 -0.4099
  308MOL0     H41537   8.753   3.835   7.676 -0.8925 -0.7963  3.3673
  308MOL0     H41538   8.636   3.562   7.590  0.1251 -0.1963 -1.0855
  308MOL0     H41539   8.572   3.709   7.535  1.3575 -1.6941 -2.2820
  308MOL0     H41540   8.369   3.492   7.649  1.4317  1.3124 -2.2153
  308MOL0     H41541   8.123   3.528   7.618  1.6405 -1.9578  1.2963
  308MOL0     H41542   7.743   3.820   7.783 -0.7467  2.0714 -2.1653
  308MOL0     H41543   7.507   3.829   7.765 -0.6848 -0.1761  0.6796
  308MOL0     H41544   7.312   3.564   7.469 -0.7852  0.5263 -0.4706
  308MOL0     H41545   7.290   3.459   7.612 -2.4248 -1.8784 -3.2165
  308MOL0     H41546   7.067   3.494   7.563  2.1569 -1.5130 -1.2196
  308MOL0     H41547   7.108   3.627   7.677 -0.4204 -0.0928 -0.3083
  308MOL0     H41548   7.140   3.788   7.514  0.8853 -0.7604 -1.7642
  308MOL0     H41549   7.097   3.681   7.385  0.9084  2.8706 -0.2705
  308MOL0     H41550   6.907   3.799   7.589 -2.9810 -0.7095 -0.9765
  308MOL0     H41551   6.865   3.648   7.506  0.0672 -0.6370 -4.0396
  308MOL0     H41552   6.922   3.783   7.296  2.6517  0.9573  0.6507
  308MOL0     H41553   6.931   3.921   7.406 -0.0052 -0.1983  1.4133
  308MOL0     H41554   6.694   3.867   7.473 -3.0053  3.6655 -1.8021
  308MOL0     H41555   6.707   3.925   7.307  2.5108  0.5126 -0.0791
  308MOL0     H41556   6.685   3.628   7.401  2.0338  0.4806  0.0682
  308MOL0     H41557   6.682   3.669   7.234  1.0704  0.5333  0.3183
  308MOL0     H41558   6.455   3.614   7.317 -0.0047 -0.5664  0.2770
  308MOL0     H41559   6.461   3.744   7.435 -0.9197  1.2751 -0.8146
  308MOL0     H41560   7.509   3.470   7.509 -0.3067 -0.6869  1.4988
  308MOL0     H41561   7.752   3.473   7.512  2.5892 -1.1247  3.8398
  308MOL0     H41562   8.171   3.930   7.768  3.2074  2.6522  0.6874
  308MOL0     H41563   8.403   3.887   7.817 -0.9427 -0.3707 -0.6210
  308MOL0     H41564   9.089   3.765   7.119 -1.5909 -0.5135 -1.9148
  308MOL0     H41565   8.856   3.715   7.066  0.2853 -1.1778 -1.8572
  308MOL0     H41566   8.465   3.610   7.295  1.6730 -1.3284  0.0843
  308MOL0     H41567   8.220   3.604   7.292 -0.0864 -1.8904  1.5701
  308MOL0     H41568   7.989   3.637   7.209 -0.7666 -0.6493 -0.2564
  308MOL0     H41569   8.027   3.519   7.338  1.0039 -1.6623 -1.2830
  308MOL0     H41570   7.763   3.540   7.309  0.7290 -2.5723  1.2911
  308MOL0     H41571   7.818   3.385   7.249  1.9998  0.3855 -1.1084
  308MOL0     H41572   7.846   3.476   7.029  1.7494 -0.7928  3.1415
  308MOL0     H41573   7.782   3.635   7.077 -0.4754  0.3706  1.7778
  308MOL0     H41574   7.620   3.371   7.065 -0.0823  0.5085  1.6698
  308MOL0     H41575   7.566   3.522   7.136 -0.1581  1.8205 -1.0253
  308MOL0     H41576   7.482   3.653   6.768  3.1400  1.5516 -0.2338
  308MOL0     H41577   8.227   3.274   7.037  1.6512 -1.4810  2.1007
  308MOL0     H41578   8.555   3.180   7.083 -1.3286 -0.4616  0.6445
  308MOL0     H41579   8.401   3.149   7.000 -0.7320  0.8827 -3.4808
  308MOL0     H41580   8.525   3.245   6.919  1.4741  1.6790  0.1294
  309MOL0     O41581   4.701   0.353   9.597  0.6338  0.6902  0.0554
  309MOL0     C41582   4.733   0.232   9.611  0.5117  0.1948  0.5513
  309MOL0     O41583   4.651   0.126   9.589 -0.4804  0.5364 -0.5849
  309MOL0     C41584   4.528   0.143   9.545 -0.9876 -0.2655 -0.5626
  309MOL0     C41585   4.493   0.092   9.419  0.5707 -0.7121 -0.1950
  309MOL0     C41586   4.361   0.128   9.367 -1.2531 -0.0020  0.4811
  309MOL0     C41587   4.271   0.209   9.437  0.5195 -0.1398  0.0476
  309MOL0     O41588   4.150   0.246   9.380  0.1594 -0.1779 -0.1101
  309MOL0     C41589   4.069   0.146   9.315  0.0396 -0.3966 -0.0616
  309MOL0     C41590   3.916   0.170   9.338  0.1451  0.5019  0.6786
  309MOL0     C41591   3.814   0.061   9.296 -0.3231 -0.6295 -1.3395
  309MOL0     C41592   3.677   0.103   9.349 -0.1287  0.6449  0.8159
  309MOL0     C41593   3.615   0.221   9.257  0.1019  0.3134 -0.2509
  309MOL0     C41594   3.483   0.182   9.204  1.1814  0.0618 -0.1494
  309MOL0     C41595   3.489   0.077   9.101  0.4679 -0.0730 -0.0589
  309MOL0     C41596   3.372   0.079   9.015  0.5789 -0.6538 -0.1074
  309MOL0     N41597   3.233   0.041   9.071  0.1682 -0.0298 -0.2824
  309MOL0     C41598   3.213  -0.073   9.144 -0.6612 -0.2043 -0.0197
  309MOL0     C41599   3.081  -0.086   9.159  0.5546  0.3003  0.7320
  309MOL0     C41600   3.009  -0.196   9.247  0.0587  0.5007  0.2438
  309MOL0     C41601   2.985  -0.327   9.173 -0.1167  0.3538  0.7974
  309MOL0     C41602   2.911  -0.288   9.036 -0.2563 -0.1291  0.5487
  309MOL0     C41603   2.756  -0.267   9.050 -0.3263 -0.3994  0.6898
  309MOL0     O41604   2.687  -0.217   8.934  0.7142 -0.5525 -0.1304
  309MOL0     C41605   2.631  -0.090   8.940  0.5148 -0.6316 -0.0364
  309MOL0     C41606   2.526  -0.062   8.841  0.1992  0.5300 -0.1061
  309MOL0     C41607   2.456   0.061   8.835  0.3849  1.0965  0.0628
  309MOL0     C41608   2.503   0.170   8.916  0.6447 -0.2805 -0.0100
  309MOL0     C41609   2.441   0.297   8.932  0.8072 -0.3822  0.9216
  309MOL0     O41610   2.491   0.391   9.010 -0.3169  0.7581  0.2645
  309MOL0     C41611   2.444   0.517   9.018  0.3261  0.3843 -0.1147
  309MOL0     C41612   2.315   0.565   8.988  1.0184 -0.8959  0.2100
  309MOL0     C41613   2.291   0.708   8.996 -0.2428  0.6399 -0.7008
  309MOL0     C41614   2.387   0.795   9.039 -0.4772 -0.4578  0.6847
  309MOL0     O41615   2.359   0.931   9.046 -0.6107 -0.0527 -0.1900
  309MOL0     C41616   2.398   0.990   9.166  0.1438  0.6962 -0.2662
  309MOL0     C41617   2.368   1.140   9.158 -0.0704  0.1649  0.0669
  309MOL0     C41618   2.218   1.144   9.184 -0.3068  0.0613  0.2240
  309MOL0     C41619   2.151   1.277   9.165 -0.7224 -0.0549  0.3633
  309MOL0     C41620   2.004   1.274   9.209  0.2263 -0.6040  0.0627
  309MOL0     C41621   2.006   1.299   9.361  0.0872 -0.4434 -0.1570
  309MOL0     C41622   1.861   1.293   9.422  0.1339  0.0064  0.5831
  309MOL0     C41623   1.791   1.164   9.409  0.3022  0.8136  0.4998
  309MOL0    Cl41624   1.650   1.190   9.516  0.3349 -0.5263 -0.4762
  309MOL0     C41625   2.514   0.740   9.067  0.5515  0.1708 -0.9748
  309MOL0     C41626   2.535   0.606   9.075 -0.5183 -0.0826  0.5111
  309MOL0     O41627   2.341   0.304   8.868  0.5285  0.2959  0.2623
  309MOL0     C41628   2.612   0.144   9.001  0.3598 -0.5594 -1.0443
  309MOL0     C41629   2.674   0.016   9.024 -0.0124 -0.6559 -0.2201
  309MOL0     N41630   3.024   0.026   9.099  0.5798  0.2971  0.1306
  309MOL0     N41631   3.116   0.101   9.046  0.3108  0.1361 -0.4846
  309MOL0     C41632   4.314   0.255   9.560 -0.0633 -0.6962  0.6782
  309MOL0     C41633   4.433   0.214   9.619 -1.1940  0.2001  0.8483
  309MOL0     C41634   4.870   0.199   9.662 -0.5218 -0.0750  0.7933
  309MOL0     C41635   4.881   0.123   9.780  0.9944  0.0944 -0.3132
  309MOL0     C41636   4.999   0.114   9.856  0.6403  0.1152 -0.0014
  309MOL0     C41637   5.110   0.173   9.799  0.2668 -0.1849 -0.1953
  309MOL0     O41638   5.232   0.159   9.857  0.1559 -1.0847 -0.2407
  309MOL0     C41639   5.259   0.080   9.972 -0.0568 -0.7943 -0.1125
  309MOL0     C41640   5.411   0.066   9.964  0.3044  0.1903 -0.2957
  309MOL0     C41641   5.450  -0.032   9.845 -0.0988  0.7364 -0.6703
  309MOL0     C41642   5.609  -0.032   9.835 -0.0513 -0.0522  0.2102
  309MOL0     C41643   5.646  -0.077   9.699  0.5480 -0.2944  0.3197
  309MOL0     C41644   5.691  -0.101   9.587  0.1385 -0.6741 -0.8532
  309MOL0     C41645   5.110   0.239   9.677  0.4546 -0.6069 -0.1840
  309MOL0     C41646   4.985   0.259   9.612  0.2900 -0.2737  0.5583
  309MOL0     C41647   4.988   0.334   9.485  0.1852 -0.0467  0.3913
  309MOL0     H41648   4.559   0.041   9.350  0.9390  2.6204 -2.5186
  309MOL0     H41649   4.343   0.089   9.268  1.2988 -2.4313  0.8460
  309MOL0     H41650   4.084   0.166   9.209  1.7388 -1.2402 -0.0164
  309MOL0     H41651   4.092   0.043   9.345 -0.7420 -0.9279 -1.2101
  309MOL0     H41652   3.897   0.252   9.268 -0.9038 -0.0241  0.3245
  309MOL0     H41653   3.897   0.201   9.442 -1.7847 -1.0774  0.8470
  309MOL0     H41654   3.847  -0.035   9.338  2.1278  1.1069  1.0315
  309MOL0     H41655   3.811   0.044   9.188  1.5846 -2.1259 -1.2065
  309MOL0     H41656   3.614   0.014   9.344  0.4326  0.1631  1.9543
  309MOL0     H41657   3.682   0.136   9.453 -1.1938  0.5631  0.9009
  309MOL0     H41658   3.596   0.303   9.327 -2.0464 -1.1459  1.0131
  309MOL0     H41659   3.678   0.259   9.176 -1.4343  0.2863 -1.4833
  309MOL0     H41660   3.420   0.143   9.284  4.2036 -0.2724  2.2635
  309MOL0     H41661   3.445   0.276   9.162  1.7257 -0.0808 -0.9835
  309MOL0     H41662   3.504  -0.021   9.146 -0.4763 -0.0104  0.4066
  309MOL0     H41663   3.580   0.105   9.047  1.2946 -0.2650  1.1973
  309MOL0     H41664   3.352   0.175   8.968  0.5801  0.5112  2.1072
  309MOL0     H41665   3.400   0.010   8.935  2.8370  0.6983 -0.5604
  309MOL0     H41666   3.276  -0.144   9.197 -3.0883  0.8592  4.8513
  309MOL0     H41667   3.077  -0.218   9.329  0.8086  1.1084 -0.2020
  309MOL0     H41668   2.915  -0.163   9.292  0.0980 -3.4201  3.7105
  309MOL0     H41669   3.081  -0.375   9.151  1.7163  3.8279  0.6199
  309MOL0     H41670   2.920  -0.391   9.234 -0.0862 -1.6990 -1.2185
  309MOL0     H41671   2.924  -0.371   8.967  1.4556  0.0159  0.6601
  309MOL0     H41672   2.960  -0.208   8.979 -0.1424 -1.3699 -1.1663
  309MOL0     H41673   2.742  -0.201   9.136 -2.8331  1.0791 -0.7163
  309MOL0     H41674   2.710  -0.362   9.078  1.4079 -0.9119  1.9410
  309MOL0     H41675   2.493  -0.131   8.763 -2.2360 -0.5267  1.7633
  309MOL0     H41676   2.361   0.070   8.782 -1.6489  0.4192  3.3381
  309MOL0     H41677   2.223   0.509   8.976 -0.1449  1.2631 -1.8493
  309MOL0     H41678   2.191   0.743   8.972  0.1921  1.2826 -1.6525
  309MOL0     H41679   2.338   0.941   9.243 -0.1482  0.6441 -0.5284
  309MOL0     H41680   2.504   0.976   9.192  0.0224 -0.2670 -0.2492
  309MOL0     H41681   2.411   1.198   9.241 -1.3418 -0.2757  1.0576
  309MOL0     H41682   2.399   1.181   9.060 -1.7369  3.8014  0.8778
  309MOL0     H41683   2.172   1.082   9.106 -0.0707  0.8232 -0.5345
  309MOL0     H41684   2.209   1.106   9.286  1.5685 -1.3747 -0.1102
  309MOL0     H41685   2.151   1.316   9.063  1.5258  1.0339  0.7233
  309MOL0     H41686   2.204   1.353   9.223 -1.4001  0.7887 -0.0977
  309MOL0     H41687   1.970   1.176   9.177  2.2842 -0.9054 -1.4168
  309MOL0     H41688   1.949   1.348   9.150  2.3669  0.6346 -0.5144
  309MOL0     H41689   2.072   1.232   9.418  0.3347  0.0657  0.1557
  309MOL0     H41690   2.038   1.403   9.370 -0.9090 -0.2690  1.8198
  309MOL0     H41691   1.796   1.364   9.371  0.9163 -0.5936 -1.3686
  309MOL0     H41692   1.864   1.314   9.529  2.0584 -3.5444  1.4127
  309MOL0     H41693   1.760   1.135   9.309  1.5229 -3.1486  1.0922
  309MOL0     H41694   1.861   1.085   9.439  1.6082  1.6327 -0.3056
  309MOL0     H41695   2.578   0.825   9.089 -0.6832  0.7497  0.6730
  309MOL0     H41696   2.631   0.572   9.112 -0.3729  1.7993  2.0473
  309MOL0     H41697   2.645   0.228   9.061 -3.8199  2.4896 -2.5382
  309MOL0     H41698   2.757   0.017   9.094  2.2123  2.1160 -2.6500
  309MOL0     H41699   4.240   0.323   9.602 -0.7687 -0.5607 -0.7284
  309MOL0     H41700   4.445   0.249   9.721  2.0401 -2.5420  1.5947
  309MOL0     H41701   4.796   0.067   9.818  0.7885  0.6746  0.0878
  309MOL0     H41702   4.997   0.048   9.942  0.4221 -0.6614 -0.5930
  309MOL0     H41703   5.218  -0.021   9.970  1.3090 -1.4285  1.4028
  309MOL0     H41704   5.231   0.122  10.069  2.0755 -1.5557  0.8884
  309MOL0     H41705   5.456   0.027  10.055  0.6067 -0.4399 -0.7128
  309MOL0     H41706   5.459   0.162   9.943  1.2166 -0.2581 -0.3227
  309MOL0     H41707   5.413  -0.003   9.746  0.3554  3.9945  0.0230
  309MOL0     H41708   5.418  -0.135   9.863  1.0459  0.4255 -0.3460
  309MOL0     H41709   5.647   0.071   9.839  0.6190  0.1766 -5.1991
  309MOL0     H41710   5.656  -0.100   9.906  0.1113 -1.6769 -1.3961
  309MOL0     H41711   5.719  -0.116   9.484  0.6479  0.4473 -0.8958
  309MOL0     H41712   5.203   0.280   9.639 -0.2908  1.3190 -0.0471
  309MOL0     H41713   4.941   0.274   9.407  0.2566 -2.6215  2.1872
  309MOL0     H41714   4.949   0.436   9.496  2.5037  0.7230  2.3407
  309MOL0     H41715   5.092   0.344   9.452 -0.2169  1.1892 -0.5654
  310MOL0     O41716   9.718  10.821   2.830 -0.1686  0.6016  0.2552
  310MOL0     C41717   9.609  10.768   2.826 -0.1461  0.3768 -0.3438
  310MOL0     O41718   9.563  10.684   2.721  0.4559 -0.2681  0.3720
  310MOL0     C41719   9.639  10.651   2.618 -1.3185 -0.5554  0.1815
  310MOL0     C41720   9.777  10.624   2.629  0.5697 -0.6158  0.2038
  310MOL0     C41721   9.846  10.580   2.520 -0.5070 -0.2361 -0.6798
  310MOL0     C41722   9.788  10.569   2.396 -0.5662  0.2792  0.3488
  310MOL0     O41723   9.843  10.528   2.274 -0.5858  0.7196 -0.2833
  310MOL0     C41724   9.947  10.426   2.289 -0.6593 -0.2447  0.2347
  310MOL0     C41725   9.883  10.283   2.321  0.5007  0.9816 -0.3509
  310MOL0     C41726   9.773  10.254   2.222  0.4469  0.0110  0.0406
  310MOL0     C41727   9.747  10.109   2.221 -0.4417  0.3201 -1.0719
  310MOL0     C41728   9.809  10.024   2.106  0.2148 -0.3606 -0.2727
  310MOL0     C41729   9.967  10.012   2.120 -0.1743 -0.4490 -0.2242
  310MOL0     C41730  10.022   9.908   2.013 -0.9091  0.4367 -0.6103
  310MOL0     C41731  10.173   9.920   1.976  0.5029  0.4729 -0.2687
  310MOL0     N41732  10.241   9.792   2.021 -0.5707 -0.0910  0.1795
  310MOL0     C41733  10.253   9.742   2.146  0.3509 -0.6448  0.0165
  310MOL0     C41734  10.282   9.605   2.134 -0.5963 -0.6715  0.5447
  310MOL0     C41735  10.310   9.521   2.253  0.2336 -0.3562 -0.2786
  310MOL0     C41736  10.418   9.577   2.348 -0.0884  0.6566 -0.2448
  310MOL0     C41737  10.565   9.547   2.308  1.0104 -1.0316  0.6021
  310MOL0     C41738  10.601   9.626   2.173  0.4500 -0.2488 -0.7744
  310MOL0     O41739  10.744   9.612   2.150 -0.4349 -0.0539 -0.0502
  310MOL0     C41740  10.808   9.680   2.047 -0.7739 -0.3868 -0.9240
  310MOL0     C41741  10.730   9.727   1.939 -0.5766 -0.3568  0.4352
  310MOL0     C41742  10.797   9.789   1.829  0.1279  0.2966 -0.3233
  310MOL0     C41743  10.942   9.797   1.826 -0.3598 -0.2521 -0.1969
  310MOL0     C41744  11.015   9.867   1.719  1.1929 -0.5394 -0.2361
  310MOL0     O41745  11.142   9.873   1.732 -0.3615 -0.3351 -0.1124
  310MOL0     C41746  11.231   9.913   1.628  1.0145  0.1133  0.0574
  310MOL0     C41747  11.350   9.949   1.683 -0.0832 -0.5263 -0.9207
  310MOL0     C41748  11.461   9.960   1.603  0.0487 -0.3903 -0.4200
  310MOL0     C41749  11.448   9.941   1.469 -0.5689  0.4472  0.1775
  310MOL0     O41750  11.557   9.951   1.394 -0.0940  0.5255 -0.3097
  310MOL0     C41751  11.557   9.887   1.268 -1.0425 -0.0625  0.3433
  310MOL0     C41752  11.701   9.877   1.221 -0.2580  0.6587  0.8672
  310MOL0     C41753  11.757  10.014   1.192 -0.7338 -0.1103  1.1974
  310MOL0     C41754  11.755  10.031   1.036 -1.1145 -0.8348  0.1338
  310MOL0     C41755  11.827  10.169   1.003 -0.0820  0.6545 -0.9017
  310MOL0     C41756  11.981  10.177   0.999 -0.3957  0.6148  0.7937
  310MOL0     C41757  12.029  10.095   0.882 -0.5717  0.8859  0.5746
  310MOL0     C41758  12.186  10.081   0.876  0.3391 -0.4282 -0.4846
  310MOL0    Cl41759  12.255  10.242   0.850  0.0610 -0.2023 -0.5683
  310MOL0     C41760  11.327   9.908   1.411  0.6766 -0.6678 -0.4073
  310MOL0     C41761  11.212   9.896   1.491 -0.2787  0.1024  0.4343
  310MOL0     O41762  10.953   9.919   1.628 -0.3228 -0.9563  0.0093
  310MOL0     C41763  11.017   9.744   1.939 -0.0564  0.5552  0.5356
  310MOL0     C41764  10.948   9.689   2.049 -0.6336 -0.4909 -0.3695
  310MOL0     N41765  10.282   9.567   1.998 -0.1423 -0.6278 -0.2919
  310MOL0     N41766  10.259   9.683   1.943 -0.6190  0.4640  0.4827
  310MOL0     C41767   9.653  10.592   2.384  0.2320 -0.1238 -0.0033
  310MOL0     C41768   9.573  10.627   2.495  0.9517 -1.1539 -0.3666
  310MOL0     C41769   9.506  10.781   2.943  0.1389  0.0462  0.9227
  310MOL0     C41770   9.383  10.724   2.927  0.9312  0.0232 -0.6916
  310MOL0     C41771   9.280  10.718   3.026  0.4162 -0.0339 -0.0881
  310MOL0     C41772   9.312  10.774   3.152  0.3260 -0.1302 -0.2720
  310MOL0     O41773   9.212  10.783   3.249  0.1615  0.4106 -0.1580
  310MOL0     C41774   9.204  10.898   3.336  0.0602 -0.0499  0.9462
  310MOL0     C41775   9.063  10.918   3.400  0.6533 -1.2703 -1.0313
  310MOL0     C41776   9.048  11.052   3.465 -0.0625 -0.1612 -0.4070
  310MOL0     C41777   8.932  11.070   3.570  0.7349  0.4299 -0.3415
  310MOL0     C41778   8.944  10.975   3.691  0.8618  0.4554 -1.2127
  310MOL0     C41779   8.953  10.887   3.777  0.1195 -1.2684  0.0638
  310MOL0     C41780   9.430  10.841   3.168 -0.5813 -0.5133 -0.4433
  310MOL0     C41781   9.535  10.842   3.066 -0.1016  0.4166 -0.0411
  310MOL0     C41782   9.666  10.911   3.107  0.4739 -0.7379  0.1391
  310MOL0     H41783   9.821  10.645   2.726 -0.4372 -1.3101  0.8343
  310MOL0     H41784   9.952  10.556   2.523 -0.1946  0.1179 -4.1871
  310MOL0     H41785  10.004  10.413   2.197  3.1094  3.3269  1.7285
  310MOL0     H41786  10.012  10.459   2.371 -1.5733 -0.3431  1.0165
  310MOL0     H41787   9.846  10.271   2.423  2.6591 -4.2499  0.1249
  310MOL0     H41788   9.971  10.219   2.331  0.6037  0.9948 -1.1179
  310MOL0     H41789   9.780  10.300   2.123 -2.8019  0.6224 -0.0053
  310MOL0     H41790   9.691  10.309   2.267  0.3155 -0.7751  0.7882
  310MOL0     H41791   9.764  10.075   2.324  3.8282  0.7866 -1.4297
  310MOL0     H41792   9.638  10.100   2.215 -0.3879 -0.3235 -1.2225
  310MOL0     H41793   9.763   9.925   2.119 -2.5992  0.8904  0.0091
  310MOL0     H41794   9.774  10.067   2.012 -1.2647 -1.5028 -0.2761
  310MOL0     H41795  10.008  10.112   2.109  0.2435 -0.8171 -2.5643
  310MOL0     H41796   9.984   9.975   2.221  3.5792  0.1038 -0.5298
  310MOL0     H41797   9.967   9.923   1.920  0.5081  2.4685 -1.1953
  310MOL0     H41798  10.005   9.807   2.052  2.0739 -0.9460 -2.5345
  310MOL0     H41799  10.195   9.928   1.869  1.1962  1.7330 -0.0571
  310MOL0     H41800  10.216  10.007   2.026 -0.6307  0.8934  0.0120
  310MOL0     H41801  10.254   9.797   2.239  0.7539 -0.8041  0.1115
  310MOL0     H41802  10.223   9.512   2.319  0.0323 -2.2050 -0.7397
  310MOL0     H41803  10.332   9.417   2.226  2.0966  0.0804 -0.5339
  310MOL0     H41804  10.407   9.683   2.374  1.1028  0.9879 -0.9912
  310MOL0     H41805  10.407   9.514   2.436  0.6608  1.6801  0.6099
  310MOL0     H41806  10.573   9.438   2.300 -3.3401 -1.4131 -1.2394
  310MOL0     H41807  10.634   9.581   2.385  0.3366 -1.2068  1.2938
  310MOL0     H41808  10.577   9.732   2.181 -0.5340 -0.5467  0.5905
  310MOL0     H41809  10.553   9.574   2.089  1.6078  2.4479 -3.2795
  310MOL0     H41810  10.623   9.713   1.930 -0.3230 -0.9240 -2.4178
  310MOL0     H41811  10.738   9.806   1.740  0.1836 -3.5673 -1.2625
  310MOL0     H41812  11.366   9.937   1.790  1.6145 -2.0957 -1.3042
  310MOL0     H41813  11.562   9.975   1.641 -0.6748 -0.9893  1.8879
  310MOL0     H41814  11.515   9.786   1.273 -0.2035 -0.4589 -0.4969
  310MOL0     H41815  11.504   9.947   1.194 -0.7882 -1.1317 -0.7291
  310MOL0     H41816  11.758   9.832   1.303  0.6864 -1.9027 -1.0808
  310MOL0     H41817  11.714   9.813   1.134  0.4996  0.7264  0.9249
  310MOL0     H41818  11.695  10.098   1.225 -1.8679 -1.1416  1.7667
  310MOL0     H41819  11.861  10.026   1.223  0.5836  0.0816 -2.6968
  310MOL0     H41820  11.651  10.037   1.003 -1.7083 -0.6803  1.8899
  310MOL0     H41821  11.788   9.943   0.980 -0.5983  0.4459 -1.6117
  310MOL0     H41822  11.777  10.239   1.071 -0.7708 -0.8546  0.2018
  310MOL0     H41823  11.786  10.201   0.907  0.8306  5.5150  0.0539
  310MOL0     H41824  12.001  10.284   0.990 -1.7043  0.7963 -0.2180
  310MOL0     H41825  12.030  10.139   1.089  1.0583 -0.0233 -0.2245
  310MOL0     H41826  12.004  10.149   0.791 -2.2251  2.2156  1.7658
  310MOL0     H41827  11.983   9.996   0.880 -1.5542  1.3244  0.8174
  310MOL0     H41828  12.220  10.063   0.979  0.6752  0.2951 -0.4602
  310MOL0     H41829  12.227  10.012   0.802  3.1080  0.8627 -0.3017
  310MOL0     H41830  11.299   9.900   1.306 -1.0877 -0.0823 -0.0206
  310MOL0     H41831  11.119   9.868   1.444  0.7681 -2.6590 -0.1789
  310MOL0     H41832  11.125   9.740   1.927  0.1888  3.1500  1.2252
  310MOL0     H41833  11.004   9.659   2.137  0.4501  1.9802 -0.1192
  310MOL0     H41834   9.614  10.587   2.283  0.0201 -2.7153  0.1375
  310MOL0     H41835   9.468  10.649   2.486  1.1458  0.2285  0.4212
  310MOL0     H41836   9.368  10.655   2.845  1.3803  2.4216 -2.8845
  310MOL0     H41837   9.184  10.670   3.015  0.1575  0.2741  0.7647
  310MOL0     H41838   9.226  10.985   3.273 -1.1276 -0.2789  0.1765
  310MOL0     H41839   9.277  10.880   3.415  0.2818  0.4793  0.8678
  310MOL0     H41840   9.037  10.841   3.473 -2.2006  1.8157  1.5246
  310MOL0     H41841   8.987  10.905   3.322  1.2123  1.3628 -2.1187
  310MOL0     H41842   9.034  11.128   3.387  4.3116  0.0866 -1.1812
  310MOL0     H41843   9.142  11.079   3.515 -0.0467  0.4341 -0.7480
  310MOL0     H41844   8.947  11.171   3.609 -2.8951  0.6213  0.9981
  310MOL0     H41845   8.836  11.070   3.518  0.9747  2.0095 -0.8303
  310MOL0     H41846   8.960  10.797   3.836 -0.1920 -0.7573  0.9036
  310MOL0     H41847   9.450  10.889   3.264 -4.9078 -0.3876  0.6054
  310MOL0     H41848   9.655  10.941   3.212 -0.3066  2.0043 -0.6418
  310MOL0     H41849   9.757  10.850   3.096  2.9795  1.2855  5.7181
  310MOL0     H41850   9.674  11.002   3.048  2.3132 -0.9636 -0.0373
  311MOL0     O41851   8.754   4.642   7.438 -0.5888  0.4502 -0.4115
  311MOL0     C41852   8.724   4.528   7.408  0.0218  0.5408  0.1401
  311MOL0     O41853   8.820   4.420   7.404  0.7341 -0.1140 -0.5802
  311MOL0     C41854   8.943   4.437   7.464  0.4321 -0.2471 -0.2240
  311MOL0     C41855   8.986   4.379   7.592 -0.3995 -0.0970 -0.0332
  311MOL0     C41856   9.117   4.408   7.621 -0.9877  0.2169 -0.9540
  311MOL0     C41857   9.213   4.483   7.551 -0.6928  0.9750  0.1983
  311MOL0     O41858   9.340   4.520   7.593 -0.1082  0.1307  1.0257
  311MOL0     C41859   9.382   4.489   7.722  0.6592  0.0019 -0.1171
  311MOL0     C41860   9.497   4.582   7.755 -1.2098 -1.0832  0.2113
  311MOL0     C41861   9.473   4.732   7.729  0.7364 -0.8422 -0.5246
  311MOL0     C41862   9.557   4.836   7.806  0.3560  1.5169 -1.1508
  311MOL0     C41863   9.547   4.976   7.722 -0.1731  0.3889  0.7562
  311MOL0     C41864   9.652   5.069   7.782 -0.2161 -0.8106  0.0219
  311MOL0     C41865   9.785   5.056   7.710 -0.0153 -0.4185 -0.1757
  311MOL0     C41866   9.896   5.128   7.770  0.4429  0.5104  0.3478
  311MOL0     N41867   9.943   5.079   7.905 -0.1613  0.3388 -0.1624
  311MOL0     C41868   9.921   5.142   8.023 -0.6637  0.3472  0.1364
  311MOL0     C41869   9.956   5.051   8.115  1.1056  0.6807 -0.8801
  311MOL0     C41870   9.960   5.066   8.271  0.4157  0.0251 -0.3508
  311MOL0     C41871   9.822   5.061   8.337 -0.4392 -0.1106  0.5501
  311MOL0     C41872   9.830   5.026   8.487 -0.5611  1.1799  0.1945
  311MOL0     C41873   9.701   5.043   8.564 -0.0663  0.9443  0.2041
  311MOL0     O41874   9.585   4.993   8.486 -0.1231  0.4030  0.5711
  311MOL0     C41875   9.460   5.050   8.506 -0.3608 -0.6933  0.1546
  311MOL0     C41876   9.424   5.162   8.588 -0.2597 -0.1386  0.1358
  311MOL0     C41877   9.290   5.196   8.609  0.4022 -0.0811  0.9693
  311MOL0     C41878   9.187   5.132   8.528  0.0279 -0.0990 -0.3774
  311MOL0     C41879   9.051   5.167   8.529 -0.6697 -0.2962 -0.8551
  311MOL0     O41880   8.961   5.112   8.448  0.9160  0.6876  0.0096
  311MOL0     C41881   8.840   5.175   8.440 -0.2908  0.2878  1.0877
  311MOL0     C41882   8.823   5.266   8.324  0.6075  1.1054 -0.0275
  311MOL0     C41883   8.690   5.325   8.308  0.0169  0.2689 -0.5879
  311MOL0     C41884   8.587   5.297   8.398  0.9916  0.5703 -0.1216
  311MOL0     O41885   8.457   5.338   8.389  0.9261  0.4970 -0.9439
  311MOL0     C41886   8.418   5.439   8.296 -0.5488 -0.2436  0.8069
  311MOL0     C41887   8.270   5.495   8.303 -0.1323  0.1999  0.1606
  311MOL0     C41888   8.168   5.390   8.260  0.2574  0.1349 -0.7078
  311MOL0     C41889   8.027   5.444   8.237 -0.5470 -0.5608 -0.0898
  311MOL0     C41890   7.919   5.341   8.201  0.2871  0.5730 -0.4880
  311MOL0     C41891   7.776   5.377   8.211  0.1200 -0.0561  0.5736
  311MOL0     C41892   7.733   5.371   8.350  0.4562  0.1456 -0.7322
  311MOL0     C41893   7.680   5.506   8.404 -0.3848  0.6363  0.4069
  311MOL0    Cl41894   7.620   5.475   8.575  0.4231  0.1360 -0.7197
  311MOL0     C41895   8.611   5.208   8.501  0.6575 -0.2907 -0.4247
  311MOL0     C41896   8.741   5.154   8.531  0.0227 -0.0141  0.2537
  311MOL0     O41897   9.022   5.242   8.621  0.2545 -0.6274  0.7775
  311MOL0     C41898   9.222   5.017   8.453 -0.6275 -0.4494 -0.6768
  311MOL0     C41899   9.359   4.969   8.453  0.0509 -1.3408  0.1951
  311MOL0     N41900  10.006   4.933   8.050  0.0313  0.6591 -0.3367
  311MOL0     N41901   9.996   4.957   7.929 -0.1345 -0.3166  0.1913
  311MOL0     C41902   9.166   4.542   7.439  0.2833 -0.0817  0.4149
  311MOL0     C41903   9.037   4.522   7.395  0.0304  0.0280  0.6177
  311MOL0     C41904   8.571   4.495   7.375 -0.6294  0.0306  0.2025
  311MOL0     C41905   8.538   4.363   7.360  0.2122 -0.2740 -0.9169
  311MOL0     C41906   8.413   4.326   7.325  1.3511 -0.0523  0.2292
  311MOL0     C41907   8.317   4.422   7.304  0.5359 -0.8248  0.9092
  311MOL0     O41908   8.193   4.397   7.260  0.7259  0.2503  1.0436
  311MOL0     C41909   8.174   4.321   7.139 -0.0592 -0.6453 -0.4212
  311MOL0     C41910   8.034   4.316   7.072 -0.7175 -0.0943  0.1636
  311MOL0     C41911   7.918   4.293   7.172  0.6436 -0.0277  0.8049
  311MOL0     C41912   7.769   4.286   7.105 -0.0864  0.2513  0.0934
  311MOL0     C41913   7.731   4.408   7.041  0.7587 -0.1619  0.0734
  311MOL0     C41914   7.679   4.496   6.973 -0.3194 -0.0435 -0.7140
  311MOL0     C41915   8.343   4.558   7.318 -0.1589  0.5320  0.0187
  311MOL0     C41916   8.476   4.593   7.351  0.0512  0.0981 -0.1031
  311MOL0     C41917   8.503   4.748   7.363 -0.9417  0.5439 -0.5597
  311MOL0     H41918   8.919   4.324   7.657 -0.2027  1.3298  1.4471
  311MOL0     H41919   9.148   4.370   7.717  1.3052  2.2487 -0.8101
  311MOL0     H41920   9.294   4.496   7.787 -0.4014 -1.3958 -1.3288
  311MOL0     H41921   9.413   4.386   7.741  2.4715  0.7277  1.0403
  311MOL0     H41922   9.585   4.565   7.691  1.3760  2.5437  2.4518
  311MOL0     H41923   9.524   4.564   7.859  0.7269 -1.1163 -0.2506
  311MOL0     H41924   9.368   4.752   7.751  1.8116  3.0222  2.2937
  311MOL0     H41925   9.502   4.760   7.628  0.0573 -1.1583 -0.8106
  311MOL0     H41926   9.520   4.847   7.908 -0.5988  1.8968 -1.5286
  311MOL0     H41927   9.664   4.815   7.801  0.1237 -0.1899  0.0508
  311MOL0     H41928   9.566   4.964   7.614 -1.6744  4.3240 -0.0983
  311MOL0     H41929   9.444   5.010   7.728 -1.2539 -2.4715 -0.0635
  311MOL0     H41930   9.613   5.171   7.778  3.0667  0.6030  1.0714
  311MOL0     H41931   9.665   5.051   7.889 -0.7138  2.3117  0.7035
  311MOL0     H41932   9.780   5.082   7.604  2.5748  1.2821  0.0229
  311MOL0     H41933   9.819   4.952   7.713 -0.4862 -0.5809 -0.3981
  311MOL0     H41934   9.973   5.128   7.692 -0.5639  0.2591 -0.6715
  311MOL0     H41935   9.869   5.234   7.781 -2.1217  0.2835 -2.4124
  311MOL0     H41936   9.880   5.240   8.048 -1.6533  0.1494 -0.6539
  311MOL0     H41937  10.010   4.982   8.318 -2.2103 -1.8351 -0.6383
  311MOL0     H41938   9.999   5.167   8.284 -2.7703  1.6801 -2.3137
  311MOL0     H41939   9.765   5.155   8.329  1.8641  1.9224  4.7507
  311MOL0     H41940   9.768   4.978   8.291  1.9829 -2.7638  2.1390
  311MOL0     H41941   9.904   5.097   8.525 -0.9339  1.8628 -0.3364
  311MOL0     H41942   9.875   4.927   8.502  0.3659  1.6432  0.5428
  311MOL0     H41943   9.701   5.151   8.581  1.1155  0.8579  0.8628
  311MOL0     H41944   9.708   4.978   8.651  0.7073 -1.3776 -1.4902
  311MOL0     H41945   9.502   5.205   8.649 -0.4970 -1.6206  1.5456
  311MOL0     H41946   9.260   5.268   8.685 -2.1843 -2.1855  2.1043
  311MOL0     H41947   8.907   5.272   8.256  0.9179  0.2912  0.2737
  311MOL0     H41948   8.669   5.386   8.220  0.8841  2.2854  0.5389
  311MOL0     H41949   8.480   5.529   8.302 -2.0742  0.8927  0.1326
  311MOL0     H41950   8.436   5.396   8.197  0.3051 -0.4870  1.0633
  311MOL0     H41951   8.245   5.521   8.407 -1.0899 -2.2009  0.6199
  311MOL0     H41952   8.255   5.572   8.228 -0.2500 -0.9520 -1.0351
  311MOL0     H41953   8.195   5.342   8.166  1.3707 -1.1288  0.2147
  311MOL0     H41954   8.174   5.308   8.333  0.3410  1.1544  0.4517
  311MOL0     H41955   8.027   5.523   8.161  0.8550 -0.9506 -0.5175
  311MOL0     H41956   7.995   5.492   8.330  0.7021  1.8064 -0.7982
  311MOL0     H41957   7.928   5.248   8.256 -1.6703  0.9149  0.4747
  311MOL0     H41958   7.944   5.320   8.096  0.4597 -1.6780 -0.0375
  311MOL0     H41959   7.754   5.474   8.167  1.3848 -1.0690 -2.5364
  311MOL0     H41960   7.709   5.314   8.153  1.3539 -0.8568 -0.0276
  311MOL0     H41961   7.822   5.339   8.406  1.9257  1.1924 -2.3421
  311MOL0     H41962   7.658   5.292   8.347  0.8993 -0.2837 -0.6021
  311MOL0     H41963   7.766   5.574   8.406  0.2418 -0.1130 -0.2443
  311MOL0     H41964   7.596   5.542   8.345 -1.2869 -0.6241  0.8801
  311MOL0     H41965   8.530   5.172   8.563  0.4151  2.0648  0.7242
  311MOL0     H41966   8.759   5.091   8.618 -0.2777 -1.4618 -0.6956
  311MOL0     H41967   9.144   4.950   8.421 -0.5853 -1.7975  1.8348
  311MOL0     H41968   9.398   4.885   8.395 -1.4592  0.7627 -4.3714
  311MOL0     H41969   9.234   4.611   7.391 -1.0148  0.6008 -0.4854
  311MOL0     H41970   9.015   4.578   7.305  0.7215 -1.7777 -0.7263
  311MOL0     H41971   8.613   4.285   7.371  0.1462  0.0254  2.8273
  311MOL0     H41972   8.381   4.223   7.308 -1.4470  1.0428 -2.1163
  311MOL0     H41973   8.197   4.216   7.160  1.5931 -0.4831 -1.2132
  311MOL0     H41974   8.249   4.339   7.060  3.4189 -2.4013  2.1878
  311MOL0     H41975   8.037   4.232   7.002  3.0082  0.5889 -0.7312
  311MOL0     H41976   8.018   4.405   7.011  1.7884  0.5320  0.2895
  311MOL0     H41977   7.909   4.363   7.256  0.7069  0.9718 -0.0063
  311MOL0     H41978   7.933   4.193   7.213 -0.0812  0.3018  1.9260
  311MOL0     H41979   7.764   4.211   7.026 -0.7720  0.3884 -0.0015
  311MOL0     H41980   7.696   4.265   7.184 -1.1033 -0.7856 -1.0920
  311MOL0     H41981   7.618   4.562   6.915 -0.8163  1.0083  0.9128
  311MOL0     H41982   8.261   4.629   7.324  0.2156  1.0064 -0.3918
  311MOL0     H41983   8.562   4.780   7.277 -0.6539 -0.9131 -0.9331
  311MOL0     H41984   8.415   4.813   7.364 -1.2857  0.0810 -0.0852
  311MOL0     H41985   8.557   4.776   7.454 -1.8398 -1.1494  0.5519
  312MOL0     O41986   8.796   4.064   1.542 -0.2168  0.0823  0.0905
  312MOL0     C41987   8.765   4.105   1.427  0.2706 -0.5104 -0.5154
  312MOL0     O41988   8.847   4.150   1.330 -0.0898  0.2070  0.3604
  312MOL0     C41989   8.981   4.138   1.338 -0.4679  0.5700  0.0981
  312MOL0     C41990   9.054   4.035   1.402  0.4513  0.0391  0.8262
  312MOL0     C41991   9.189   4.034   1.417 -0.7407 -0.4902  0.3051
  312MOL0     C41992   9.269   4.128   1.356  0.0872  0.3504  0.7334
  312MOL0     O41993   9.407   4.139   1.357  0.1194  0.1921 -0.6275
  312MOL0     C41994   9.492   4.031   1.330 -0.4703 -0.1456  0.5776
  312MOL0     C41995   9.637   4.068   1.346  0.6569 -0.1577 -0.2305
  312MOL0     C41996   9.735   3.966   1.333 -1.5120  1.5275  0.2171
  312MOL0     C41997   9.772   3.912   1.188  0.1616  0.4058  0.4666
  312MOL0     C41998   9.869   3.792   1.197 -0.2641 -0.3166 -0.6538
  312MOL0     C41999   9.984   3.826   1.288 -0.1382 -0.5254  0.4913
  312MOL0     C42000  10.079   3.713   1.314  0.4139  0.1207  0.2244
  312MOL0     C42001  10.017   3.597   1.383  0.4182  0.0458 -1.2111
  312MOL0     N42002   9.953   3.610   1.515 -0.5207  0.5953 -0.6412
  312MOL0     C42003   9.822   3.632   1.531 -0.7025  0.5240 -0.5325
  312MOL0     C42004   9.820   3.669   1.664 -1.0939 -0.2494 -0.1720
  312MOL0     C42005   9.702   3.706   1.745 -0.4277 -0.6335 -0.0955
  312MOL0     C42006   9.566   3.727   1.681 -0.9136  0.0566  1.0320
  312MOL0     C42007   9.451   3.723   1.781 -0.0698 -0.3504 -0.3013
  312MOL0     C42008   9.313   3.755   1.730  1.5064  0.4341  0.4277
  312MOL0     O42009   9.214   3.687   1.811  0.2840 -0.5058  0.0952
  312MOL0     C42010   9.085   3.671   1.777  0.3968  0.8603  0.1973
  312MOL0     C42011   9.030   3.727   1.656 -0.0346 -0.3450  0.4147
  312MOL0     C42012   8.899   3.707   1.618 -0.2743  0.3787 -1.0820
  312MOL0     C42013   8.827   3.617   1.698  0.7086  0.4188 -0.3942
  312MOL0     C42014   8.687   3.568   1.665 -0.1927 -1.0036 -0.1599
  312MOL0     O42015   8.650   3.608   1.539 -0.0606 -1.4168  0.6545
  312MOL0     C42016   8.523   3.582   1.498  0.5429 -0.1710  1.2075
  312MOL0     C42017   8.410   3.571   1.580  0.4787  0.6114 -0.1319
  312MOL0     C42018   8.281   3.561   1.532 -0.2978  0.1941  0.8012
  312MOL0     C42019   8.257   3.557   1.394 -1.2927  0.9785  0.4646
  312MOL0     O42020   8.122   3.552   1.351 -0.4894  0.7400  0.1211
  312MOL0     C42021   8.099   3.601   1.217  0.5227  1.2049  0.0879
  312MOL0     C42022   7.954   3.622   1.209 -1.4736  1.5110  0.5488
  312MOL0     C42023   7.882   3.708   1.317 -0.8708  0.1680 -0.5582
  312MOL0     C42024   7.818   3.624   1.423 -0.2462  0.3238  0.1276
  312MOL0     C42025   7.761   3.700   1.548 -0.1907  0.7354  0.3605
  312MOL0     C42026   7.859   3.810   1.606  0.0888 -0.3445 -0.2803
  312MOL0     C42027   7.983   3.747   1.661 -0.4787  0.0305  0.0730
  312MOL0     C42028   8.061   3.858   1.737 -0.5745  0.0018  0.2486
  312MOL0    Cl42029   8.223   3.787   1.747  0.4305  0.1594 -0.0745
  312MOL0     C42030   8.373   3.573   1.309  0.0291  0.4799  1.2810
  312MOL0     C42031   8.503   3.583   1.362  0.0795 -0.1403 -0.0620
  312MOL0     O42032   8.639   3.473   1.727 -0.3743  0.5712 -0.0142
  312MOL0     C42033   8.874   3.563   1.822  0.3149  0.1392  0.0469
  312MOL0     C42034   9.006   3.598   1.864 -0.1876 -0.4979  0.0864
  312MOL0     N42035   9.952   3.666   1.723  0.0820  0.2924  0.8387
  312MOL0     N42036  10.026   3.631   1.629 -0.2091 -0.4092  0.0424
  312MOL0     C42037   9.202   4.237   1.293 -0.7526 -0.4281  0.5469
  312MOL0     C42038   9.059   4.239   1.285 -0.9971  0.7686 -0.2422
  312MOL0     C42039   8.617   4.125   1.412 -0.0055 -0.3323 -0.2135
  312MOL0     C42040   8.577   4.243   1.336  0.5924 -0.2528 -0.5933
  312MOL0     C42041   8.442   4.270   1.322  0.2130  0.3211 -0.3253
  312MOL0     C42042   8.338   4.198   1.386  0.1297 -0.2849  0.4392
  312MOL0     O42043   8.214   4.234   1.347  0.3684 -0.0603 -0.3816
  312MOL0     C42044   8.122   4.124   1.331 -0.3277 -0.2985  0.4431
  312MOL0     C42045   8.001   4.171   1.248 -0.0933 -0.1388  0.1211
  312MOL0     C42046   7.939   4.295   1.305  0.0211 -0.5190  0.8673
  312MOL0     C42047   7.820   4.349   1.219 -0.7747  0.0138  0.5540
  312MOL0     C42048   7.701   4.276   1.253 -0.1597  0.8000 -0.2807
  312MOL0     C42049   7.621   4.194   1.300  0.3577  0.4973 -0.8426
  312MOL0     C42050   8.373   4.076   1.451 -0.4200 -0.2179  0.3241
  312MOL0     C42051   8.509   4.053   1.483 -0.2481  0.5276  0.9861
  312MOL0     C42052   8.538   3.934   1.570 -0.0502 -0.0206  0.3773
  312MOL0     H42053   9.000   3.951   1.443 -2.0504  1.5640  0.8577
  312MOL0     H42054   9.235   3.960   1.482  0.8617  1.3692  1.3806
  312MOL0     H42055   9.466   3.956   1.406  0.6411 -0.7925  0.3373
  312MOL0     H42056   9.472   3.989   1.231 -1.5727 -2.8162  1.8222
  312MOL0     H42057   9.649   4.112   1.445  2.2382 -1.9846  0.4414
  312MOL0     H42058   9.661   4.149   1.276 -1.5715  2.7259  2.0707
  312MOL0     H42059   9.706   3.881   1.395  1.7209  1.3909  1.7925
  312MOL0     H42060   9.823   4.018   1.371 -0.2470 -0.3145 -0.0468
  312MOL0     H42061   9.679   3.885   1.137 -1.4379  3.8459  1.2458
  312MOL0     H42062   9.817   3.990   1.125 -1.7229  2.8712  2.0097
  312MOL0     H42063   9.814   3.710   1.243  1.6970 -1.5767 -0.4406
  312MOL0     H42064   9.904   3.760   1.099 -0.7212  0.4150 -1.0690
  312MOL0     H42065  10.040   3.910   1.246 -0.6507 -0.7021 -0.5640
  312MOL0     H42066   9.957   3.846   1.392 -0.4938  0.2108  0.2598
  312MOL0     H42067  10.160   3.748   1.378  0.2023  0.8246  0.1064
  312MOL0     H42068  10.126   3.675   1.223  2.4480  1.9104  0.4566
  312MOL0     H42069   9.936   3.569   1.315 -0.2726 -1.1121  0.0580
  312MOL0     H42070  10.093   3.518   1.382 -1.0548 -1.4805  0.2034
  312MOL0     H42071   9.736   3.624   1.465  1.9133 -3.5795 -4.0197
  312MOL0     H42072   9.703   3.623   1.815  1.0901  0.8012  1.6961
  312MOL0     H42073   9.714   3.800   1.799 -1.1393 -1.0497  0.8059
  312MOL0     H42074   9.552   3.816   1.619  0.1404  0.1536  0.9067
  312MOL0     H42075   9.559   3.637   1.620 -0.7300  0.7690 -0.0618
  312MOL0     H42076   9.479   3.790   1.863  1.4528 -0.8014 -0.4142
  312MOL0     H42077   9.454   3.625   1.830 -1.9017 -0.3784 -0.1816
  312MOL0     H42078   9.315   3.711   1.630 -2.0903 -2.3451  1.3750
  312MOL0     H42079   9.294   3.861   1.715  1.2258 -0.0020 -3.0715
  312MOL0     H42080   9.089   3.791   1.592  1.3647  0.8094  2.7203
  312MOL0     H42081   8.846   3.751   1.534 -0.2652  2.0103 -0.2765
  312MOL0     H42082   8.428   3.564   1.687  1.1547 -1.0556 -0.3167
  312MOL0     H42083   8.202   3.558   1.606  0.1029  1.9806  1.3369
  312MOL0     H42084   8.149   3.697   1.203  0.2723  1.2112 -0.8322
  312MOL0     H42085   8.131   3.526   1.143  3.3564  0.6501  1.7332
  312MOL0     H42086   7.931   3.682   1.120 -1.6894 -0.6301 -0.9232
  312MOL0     H42087   7.903   3.525   1.200  0.0445  0.7735 -0.3624
  312MOL0     H42088   7.957   3.764   1.374 -0.5484 -2.7675  2.1943
  312MOL0     H42089   7.804   3.772   1.275  0.2321  1.8250 -0.1748
  312MOL0     H42090   7.885   3.548   1.464 -1.4943 -0.8815  0.0044
  312MOL0     H42091   7.735   3.573   1.373 -1.8837 -0.0878  3.0386
  312MOL0     H42092   7.725   3.629   1.623 -0.2380  1.6901  1.2635
  312MOL0     H42093   7.671   3.751   1.512 -1.4988 -2.9165 -2.1759
  312MOL0     H42094   7.889   3.885   1.531  0.8097  0.8972  1.1768
  312MOL0     H42095   7.804   3.874   1.676  0.1344  0.2154 -0.7449
  312MOL0     H42096   8.032   3.709   1.571 -0.2346 -0.2581  0.3275
  312MOL0     H42097   7.969   3.663   1.730  0.7388 -0.5360 -0.3437
  312MOL0     H42098   8.056   3.944   1.671  1.2478  0.5456  0.7461
  312MOL0     H42099   8.028   3.878   1.839  0.0394 -0.6641  0.5897
  312MOL0     H42100   8.360   3.575   1.202  2.2269 -0.3788  0.9389
  312MOL0     H42101   8.584   3.593   1.291 -1.8546 -0.6282 -2.4660
  312MOL0     H42102   8.817   3.501   1.891 -0.0274 -0.5020 -0.8078
  312MOL0     H42103   9.057   3.557   1.951  1.7543  0.5232 -0.5265
  312MOL0     H42104   9.258   4.318   1.247 -2.0481 -0.2569 -0.8134
  312MOL0     H42105   9.006   4.324   1.244 -2.4515 -0.2184 -0.4956
  312MOL0     H42106   8.646   4.289   1.267 -0.0745 -1.9790 -2.4979
  312MOL0     H42107   8.417   4.360   1.267  0.0051 -0.7554 -2.0683
  312MOL0     H42108   8.089   4.082   1.427  1.3220  2.0329  2.1250
  312MOL0     H42109   8.169   4.043   1.275 -0.4083 -1.7055  2.2829
  312MOL0     H42110   7.923   4.095   1.250 -1.0123  0.7965  1.4099
  312MOL0     H42111   8.033   4.192   1.145 -1.1046 -0.1454 -0.2053
  312MOL0     H42112   8.013   4.375   1.306 -1.6956  1.1297  0.9388
  312MOL0     H42113   7.906   4.276   1.407  0.4980  2.6774  1.7222
  312MOL0     H42114   7.800   4.452   1.251  1.6345  0.4801  0.7181
  312MOL0     H42115   7.824   4.346   1.110 -2.1752  0.1709  0.4767
  312MOL0     H42116   7.572   4.111   1.348  0.7686  0.3720 -0.6350
  312MOL0     H42117   8.287   4.018   1.484 -1.1392 -0.0760 -1.2239
  312MOL0     H42118   8.459   3.859   1.576  2.2757 -2.7838 -1.2871
  312MOL0     H42119   8.621   3.877   1.528 -0.9632 -0.2477 -1.1699
  312MOL0     H42120   8.555   3.962   1.675 -2.0774 -0.9091  0.9877
  313MOL0     O42121   4.376   4.364  10.505 -0.1573  0.0992  0.4946
  313MOL0     C42122   4.275   4.394  10.565 -0.1322  0.8379 -0.5149
  313MOL0     O42123   4.263   4.461  10.689 -0.2410  0.0721 -0.1850
  313MOL0     C42124   4.368   4.520  10.747  0.8400 -0.0018 -0.8462
  313MOL0     C42125   4.387   4.487  10.884  0.9985 -0.9590  1.0268
  313MOL0     C42126   4.484   4.541  10.963  0.6663 -0.7112 -0.9760
  313MOL0     C42127   4.557   4.643  10.915  0.4882 -0.6011  0.7376
  313MOL0     O42128   4.655   4.700  10.999 -0.7518  0.9699  0.6353
  313MOL0     C42129   4.771   4.761  10.932 -0.9316 -0.0333 -0.0578
  313MOL0     C42130   4.746   4.912  10.916 -0.0626  0.1615  0.2772
  313MOL0     C42131   4.865   4.978  10.834 -0.0263 -0.8618 -0.4087
  313MOL0     C42132   5.009   4.974  10.896  0.5777 -0.7999 -1.1285
  313MOL0     C42133   5.106   5.007  10.787 -0.6007  0.0415 -0.1284
  313MOL0     C42134   5.246   4.961  10.835  0.2345 -0.4830  0.2013
  313MOL0     C42135   5.352   4.979  10.728  0.2893 -1.1974  0.0581
  313MOL0     C42136   5.493   4.936  10.761 -0.5178  0.3433 -0.1125
  313MOL0     N42137   5.566   5.006  10.867  0.0608 -0.3055 -0.2725
  313MOL0     C42138   5.617   5.130  10.842  0.0708 -0.0518  0.2189
  313MOL0     C42139   5.679   5.159  10.957 -0.0548  0.0727  0.7339
  313MOL0     C42140   5.746   5.288  11.001  0.2754  0.2830 -0.1997
  313MOL0     C42141   5.640   5.402  11.007 -1.1060 -0.1545  0.3528
  313MOL0     C42142   5.693   5.527  11.077 -0.5978 -0.7552 -0.5393
  313MOL0     C42143   5.773   5.628  10.991  0.5922 -0.1296 -0.1035
  313MOL0     O42144   5.838   5.729  11.072 -1.5198 -0.5338 -0.4674
  313MOL0     C42145   5.977   5.727  11.078 -0.5098  0.7263  0.3698
  313MOL0     C42146   6.039   5.844  11.090 -0.0603 -0.5399  0.1018
  313MOL0     C42147   6.178   5.852  11.125 -0.4579  0.9413 -0.5519
  313MOL0     C42148   6.256   5.746  11.147  0.2036  0.5794 -0.4063
  313MOL0     C42149   6.398   5.748  11.181  0.0108 -0.2724  0.0039
  313MOL0     O42150   6.448   5.627  11.233  0.6301 -0.1010 -1.0265
  313MOL0     C42151   6.576   5.621  11.278 -0.3474 -0.3139 -0.2064
  313MOL0     C42152   6.667   5.547  11.212 -0.4870  0.6875 -0.5896
  313MOL0     C42153   6.805   5.552  11.248 -0.2615  0.5705  0.2955
  313MOL0     C42154   6.840   5.628  11.363  0.4644  0.9795  0.6360
  313MOL0     O42155   6.968   5.645  11.412  0.4389  0.0772  0.2991
  313MOL0     C42156   7.069   5.629  11.305  0.4382 -0.8702 -0.5997
  313MOL0     C42157   7.197   5.708  11.357 -0.7351  0.1894 -0.3988
  313MOL0     C42158   7.332   5.635  11.323 -0.6974 -0.2843 -0.2571
  313MOL0     C42159   7.452   5.704  11.401 -0.2208 -1.5872 -0.3298
  313MOL0     C42160   7.581   5.622  11.403 -1.2733 -0.1473 -0.7024
  313MOL0     C42161   7.644   5.644  11.263 -0.3459 -0.0772  0.0311
  313MOL0     C42162   7.777   5.568  11.257 -0.2511  0.7540 -0.1050
  313MOL0     C42163   7.762   5.413  11.237  0.1009 -0.5576 -0.0660
  313MOL0    Cl42164   7.696   5.395  11.068  0.0540  0.3769  0.1987
  313MOL0     C42165   6.749   5.698  11.428  0.2510  0.2313  0.2667
  313MOL0     C42166   6.615   5.700  11.390 -0.4572  0.1122  0.1994
  313MOL0     O42167   6.461   5.855  11.177  0.7082  0.2101 -0.3295
  313MOL0     C42168   6.193   5.621  11.144 -0.8380 -0.3216  0.9306
  313MOL0     C42169   6.057   5.611  11.111  0.6733 -0.5272 -0.0508
  313MOL0     N42170   5.686   5.047  11.040  0.7472  0.2097  0.5430
  313MOL0     N42171   5.611   4.949  10.986 -1.0332 -0.0133 -0.7150
  313MOL0     C42172   4.538   4.683  10.773 -0.6350  0.0496 -1.1594
  313MOL0     C42173   4.455   4.612  10.686 -0.3879  0.2763  0.6095
  313MOL0     C42174   4.148   4.339  10.504  0.7311 -0.7912  1.4323
  313MOL0     C42175   4.037   4.305  10.585  0.3050  0.3828  1.1166
  313MOL0     C42176   3.920   4.272  10.531 -0.2526  0.5295 -0.3147
  313MOL0     C42177   3.900   4.264  10.393 -0.4478 -0.9124  0.2117
  313MOL0     O42178   3.785   4.223  10.341  0.0111  0.9330  0.0716
  313MOL0     C42179   3.725   4.294  10.231  0.6419 -0.3938 -0.0381
  313MOL0     C42180   3.580   4.338  10.281 -1.2400  0.3110 -0.4450
  313MOL0     C42181   3.571   4.467  10.365 -0.1184 -1.2529  0.8077
  313MOL0     C42182   3.652   4.584  10.321 -0.7616  0.2253  0.4421
  313MOL0     C42183   3.596   4.625  10.195 -0.0453 -0.4611  0.3697
  313MOL0     C42184   3.533   4.663  10.099 -0.1506 -0.2451  0.1771
  313MOL0     C42185   4.009   4.299  10.308 -0.2696  0.1986  0.0782
  313MOL0     C42186   4.133   4.326  10.355 -0.7144 -0.0037  0.4651
  313MOL0     C42187   4.238   4.357  10.260 -0.2450 -0.0249  0.9873
  313MOL0     H42188   4.335   4.401  10.925  1.2156 -2.4053 -1.5048
  313MOL0     H42189   4.495   4.520  11.069  0.2415  1.8805 -0.3668
  313MOL0     H42190   4.857   4.755  10.999 -2.3843  1.0158  2.0370
  313MOL0     H42191   4.785   4.707  10.839  0.1245 -0.0417  0.0973
  313MOL0     H42192   4.736   4.965  11.011  1.2562  2.3231 -0.6986
  313MOL0     H42193   4.658   4.927  10.853  0.5380 -0.8369 -0.8389
  313MOL0     H42194   4.832   5.080  10.813 -2.7090 -1.5234  0.2238
  313MOL0     H42195   4.866   4.927  10.738  1.5083 -0.1173 -0.8110
  313MOL0     H42196   5.014   5.046  10.979 -3.0207 -0.8482 -0.6907
  313MOL0     H42197   5.042   4.875  10.927  3.3008  0.5781  0.7984
  313MOL0     H42198   5.094   4.960  10.689 -0.4344 -1.5596  0.5983
  313MOL0     H42199   5.103   5.116  10.776  0.5315  0.6872  4.2040
  313MOL0     H42200   5.285   4.998  10.931  1.9716  1.7384 -1.2465
  313MOL0     H42201   5.233   4.853  10.839 -0.5501 -0.4581 -1.1206
  313MOL0     H42202   5.352   5.081  10.688 -2.7707 -0.9413  0.4470
  313MOL0     H42203   5.323   4.919  10.642  0.1601  0.3839 -1.0463
  313MOL0     H42204   5.476   4.833  10.795  1.4615  0.3341  1.0058
  313MOL0     H42205   5.561   4.946  10.676 -1.1213  1.8317 -0.4468
  313MOL0     H42206   5.615   5.195  10.755  0.2384  0.6392  0.7238
  313MOL0     H42207   5.793   5.272  11.098 -0.4795 -0.7765  0.0133
  313MOL0     H42208   5.825   5.302  10.926 -0.5079 -1.2571 -1.3854
  313MOL0     H42209   5.629   5.425  10.901  1.8510 -0.2396 -0.0614
  313MOL0     H42210   5.557   5.347  11.053 -1.1194  0.1865  0.7361
  313MOL0     H42211   5.763   5.490  11.152 -0.7816 -3.6150 -1.6445
  313MOL0     H42212   5.608   5.578  11.123 -1.9478  1.1388 -4.6422
  313MOL0     H42213   5.714   5.678  10.914 -2.9975 -2.0850  1.1452
  313MOL0     H42214   5.844   5.565  10.937 -1.2802 -2.0029 -0.4667
  313MOL0     H42215   5.981   5.933  11.068 -2.2425 -2.0206 -0.3809
  313MOL0     H42216   6.223   5.949  11.141  0.7286  0.5127 -1.1849
  313MOL0     H42217   6.637   5.487  11.127  2.4866  0.3127 -1.4853
  313MOL0     H42218   6.882   5.503  11.191 -0.9574  0.6586 -0.7527
  313MOL0     H42219   7.076   5.523  11.280 -2.3374 -1.7806  1.8964
  313MOL0     H42220   7.040   5.685  11.216 -2.1894 -1.8133 -0.4040
  313MOL0     H42221   7.200   5.809  11.316 -0.2069  0.1973 -0.3464
  313MOL0     H42222   7.192   5.715  11.466  1.9145 -1.5840 -0.0375
  313MOL0     H42223   7.314   5.529  11.341 -1.1976 -0.8769 -3.6528
  313MOL0     H42224   7.351   5.630  11.215 -0.5275 -2.4506 -0.1650
  313MOL0     H42225   7.425   5.703  11.507 -1.2889 -2.6960 -0.5928
  313MOL0     H42226   7.474   5.802  11.358  1.2970 -2.3362 -1.3820
  313MOL0     H42227   7.576   5.513  11.405  5.1668 -0.9240 -2.6503
  313MOL0     H42228   7.642   5.658  11.486  0.8199 -4.2061 -0.2469
  313MOL0     H42229   7.581   5.616  11.179  0.2278 -0.3319 -0.3243
  313MOL0     H42230   7.662   5.751  11.247  0.1103 -0.0266  0.7800
  313MOL0     H42231   7.827   5.599  11.349 -0.7474  0.1461  0.3785
  313MOL0     H42232   7.833   5.610  11.173 -1.4747 -1.9370 -2.4696
  313MOL0     H42233   7.859   5.362  11.242  0.2160 -0.6492 -2.3468
  313MOL0     H42234   7.703   5.372  11.320 -0.2168 -0.4494 -0.2396
  313MOL0     H42235   6.788   5.766  11.504  2.9542 -2.2824  1.3349
  313MOL0     H42236   6.532   5.750  11.439 -1.6158  1.9439 -3.3218
  313MOL0     H42237   6.251   5.530  11.156 -1.3202 -1.1150 -1.9312
  313MOL0     H42238   6.003   5.519  11.134  0.2169 -0.6191 -1.4108
  313MOL0     H42239   4.602   4.754  10.720  0.2725  0.0184 -0.1213
  313MOL0     H42240   4.459   4.642  10.582  0.8665  0.1826  0.6237
  313MOL0     H42241   4.037   4.312  10.693  1.1792  1.1914  1.0803
  313MOL0     H42242   3.842   4.249  10.603  0.9725  0.3250  0.9941
  313MOL0     H42243   3.712   4.225  10.148  1.8155 -0.7519  0.0617
  313MOL0     H42244   3.777   4.382  10.192 -0.3013 -1.2965 -3.6677
  313MOL0     H42245   3.538   4.267  10.352 -2.4811  0.4018 -1.0439
  313MOL0     H42246   3.515   4.341  10.192 -0.8086 -2.8890 -0.9772
  313MOL0     H42247   3.613   4.439  10.462 -3.1386 -0.3106  2.5064
  313MOL0     H42248   3.470   4.495  10.396  0.0784  1.8962 -0.9326
  313MOL0     H42249   3.643   4.665  10.395  0.2438  1.5314 -0.7966
  313MOL0     H42250   3.755   4.547  10.315 -0.3274  1.5384 -3.9581
  313MOL0     H42251   3.485   4.702  10.012 -0.6218 -1.4999 -0.1468
  313MOL0     H42252   3.991   4.283  10.203 -2.1377  1.8790  0.0819
  313MOL0     H42253   4.316   4.281  10.257 -0.0018 -0.0720  4.7024
  313MOL0     H42254   4.192   4.365  10.161  2.8069  2.0582 -0.4314
  313MOL0     H42255   4.293   4.450  10.277  1.1191 -0.6134  0.0143
  314MOL0     O42256   2.203   8.511   8.657  0.2914  0.2328 -0.5196
  314MOL0     C42257   2.304   8.521   8.590 -1.0148  0.5092 -0.4369
  314MOL0     O42258   2.377   8.638   8.566 -0.2418 -0.0854  1.0184
  314MOL0     C42259   2.339   8.753   8.631  0.5617  1.6997  0.6764
  314MOL0     C42260   2.393   8.786   8.757  0.4827 -0.7411 -0.1323
  314MOL0     C42261   2.361   8.903   8.829  0.6838 -0.2035 -0.0354
  314MOL0     C42262   2.266   8.987   8.774  0.0412 -0.2441 -0.3739
  314MOL0     O42263   2.240   9.100   8.851 -0.6089 -0.5443  0.1355
  314MOL0     C42264   2.114   9.170   8.837  0.6984  0.4626  0.3759
  314MOL0     C42265   2.103   9.270   8.947  0.3074 -0.3627  0.0065
  314MOL0     C42266   1.984   9.358   8.981 -0.2358  0.1732 -1.2680
  314MOL0     C42267   2.003   9.464   9.096  0.5034  0.5194 -0.7034
  314MOL0     C42268   1.875   9.526   9.142  1.0904 -0.1096  0.4961
  314MOL0     C42269   1.908   9.633   9.245 -0.1349 -0.1518 -0.5728
  314MOL0     C42270   1.769   9.701   9.269  0.1136  0.2725  0.0550
  314MOL0     C42271   1.765   9.807   9.379 -0.2499 -0.1625  0.4676
  314MOL0     N42272   1.817   9.934   9.342 -0.7028 -0.2979 -0.0438
  314MOL0     C42273   1.798  10.019   9.235  0.6439 -0.3466 -0.7201
  314MOL0     C42274   1.899  10.105   9.232 -0.5591 -0.7089 -0.5099
  314MOL0     C42275   1.920  10.220   9.139 -0.6211 -0.2273  0.5068
  314MOL0     C42276   1.809  10.249   9.037 -0.6420 -0.3032 -0.6598
  314MOL0     C42277   1.841  10.353   8.917 -0.2111 -0.3628  0.3556
  314MOL0     C42278   1.715  10.389   8.829 -0.6196  0.4522 -0.6824
  314MOL0     O42279   1.648  10.496   8.892 -0.4147 -0.5776 -0.3880
  314MOL0     C42280   1.683  10.627   8.869  0.0118 -0.7153  0.0039
  314MOL0     C42281   1.642  10.709   8.966  0.0150 -0.8253  0.0605
  314MOL0     C42282   1.661  10.845   8.969 -0.1634  0.2067  0.5530
  314MOL0     C42283   1.726  10.905   8.863  0.0347  0.8730 -0.7148
  314MOL0     C42284   1.740  11.055   8.847 -0.0148  0.6723  0.1528
  314MOL0     O42285   1.789  11.118   8.727  0.4069  0.3923 -0.2661
  314MOL0     C42286   1.810  11.254   8.742  0.3420  0.1230  0.0717
  314MOL0     C42287   1.728  11.333   8.667  0.6120 -0.9357 -0.0360
  314MOL0     C42288   1.751  11.475   8.654 -0.8326  1.0039 -0.4154
  314MOL0     C42289   1.856  11.529   8.725 -0.9967 -0.8425 -0.6944
  314MOL0     O42290   1.871  11.668   8.721  0.4442 -0.0590  0.0539
  314MOL0     C42291   1.977  11.728   8.802  0.4974  0.0667 -0.3308
  314MOL0     C42292   1.962  11.877   8.800 -0.1410  0.0813 -0.2255
  314MOL0     C42293   1.848  11.919   8.898  0.2780 -0.2516 -0.6088
  314MOL0     C42294   1.714  11.941   8.830  0.5487  1.1210 -0.0541
  314MOL0     C42295   1.620  12.019   8.925 -0.5231 -0.0126  0.3819
  314MOL0     C42296   1.509  12.094   8.847  0.8100  0.2092 -0.6424
  314MOL0     C42297   1.410  11.994   8.780 -0.3103 -0.6310  0.1714
  314MOL0     C42298   1.287  12.063   8.718 -0.2233  0.1782 -0.3328
  314MOL0    Cl42299   1.212  11.935   8.623  0.5178  0.0522  0.2957
  314MOL0     C42300   1.938  11.450   8.806 -0.1285  0.5445 -0.7243
  314MOL0     C42301   1.918  11.307   8.806  0.0308  0.7348  0.1011
  314MOL0     O42302   1.707  11.124   8.945 -0.3539  0.4673 -0.0787
  314MOL0     C42303   1.774  10.820   8.757 -0.5357  0.2503 -0.3757
  314MOL0     C42304   1.751  10.682   8.761 -0.0785  0.4926  0.2917
  314MOL0     N42305   1.977  10.090   9.344  0.2669  0.2182  0.8784
  314MOL0     N42306   1.927   9.983   9.405 -1.0364 -0.0300  0.3151
  314MOL0     C42307   2.219   8.964   8.645  0.4797 -0.2740  1.5244
  314MOL0     C42308   2.246   8.845   8.583  0.2340  0.0980  0.5091
  314MOL0     C42309   2.353   8.395   8.535 -0.7599  0.1200  0.3593
  314MOL0     C42310   2.263   8.293   8.509  0.4398  0.6196  0.1219
  314MOL0     C42311   2.297   8.170   8.454 -0.1491  1.1797 -0.5449
  314MOL0     C42312   2.434   8.141   8.433 -0.5649  0.2464  1.0162
  314MOL0     O42313   2.475   8.016   8.399  0.6597  0.8123 -0.0121
  314MOL0     C42314   2.392   7.900   8.447 -1.2505  0.0983 -0.3737
  314MOL0     C42315   2.392   7.883   8.594 -0.8449  0.6213 -0.0618
  314MOL0     C42316   2.534   7.849   8.656  0.3556 -0.0207  0.1824
  314MOL0     C42317   2.576   7.701   8.646  0.3258  0.7154  0.4569
  314MOL0     C42318   2.518   7.627   8.754  0.5088 -0.4405 -0.3955
  314MOL0     C42319   2.467   7.590   8.859 -0.5861 -0.4611  0.9212
  314MOL0     C42320   2.525   8.248   8.428 -0.8653  0.1906 -0.0108
  314MOL0     C42321   2.492   8.373   8.482 -0.9479 -0.3559  0.2943
  314MOL0     C42322   2.607   8.471   8.504 -0.4772  0.2682  0.6380
  314MOL0     H42323   2.469   8.728   8.809 -0.2039  0.7962  2.8291
  314MOL0     H42324   2.410   8.928   8.923  2.3166 -0.1801 -0.8633
  314MOL0     H42325   2.102   9.224   8.743  1.1236 -1.0453 -0.5731
  314MOL0     H42326   2.035   9.095   8.846  2.1758 -0.9652  2.1864
  314MOL0     H42327   2.188   9.336   8.931  0.6843 -0.5513  1.1580
  314MOL0     H42328   2.127   9.213   9.037 -2.1371 -3.2194 -0.9462
  314MOL0     H42329   1.899   9.293   9.002 -0.1787  0.0652 -1.3716
  314MOL0     H42330   1.961   9.410   8.887  0.3228 -1.1833 -2.1863
  314MOL0     H42331   2.057   9.421   9.180 -1.4488 -0.5338  0.0910
  314MOL0     H42332   2.074   9.539   9.059 -0.5204  1.7589 -0.2462
  314MOL0     H42333   1.835   9.570   9.050 -0.0718 -1.3376  0.3852
  314MOL0     H42334   1.804   9.451   9.177 -0.7521 -0.0249 -2.6726
  314MOL0     H42335   1.952   9.596   9.338 -1.7067  1.3978  0.8581
  314MOL0     H42336   1.968   9.714   9.202 -2.1380  1.2861 -0.7941
  314MOL0     H42337   1.690   9.629   9.293 -1.2446  2.8601  4.8787
  314MOL0     H42338   1.736   9.749   9.176  3.1459  2.1517 -0.1604
  314MOL0     H42339   1.661   9.834   9.398 -0.4709  1.3884 -2.3695
  314MOL0     H42340   1.809   9.773   9.473  0.7489  1.6212  0.6855
  314MOL0     H42341   1.718  10.005   9.163  1.2558  1.4415 -1.8124
  314MOL0     H42342   1.926  10.304   9.209 -2.2468 -0.7572  1.3463
  314MOL0     H42343   2.014  10.203   9.085 -0.3803 -1.7283  1.3423
  314MOL0     H42344   1.804  10.160   8.973  0.9146  0.7502 -2.3696
  314MOL0     H42345   1.716  10.258   9.094 -0.5971  0.6337 -0.7207
  314MOL0     H42346   1.927  10.325   8.855  1.3753  3.4791  0.5572
  314MOL0     H42347   1.864  10.442   8.975  0.2557 -2.7719  4.2036
  314MOL0     H42348   1.650  10.302   8.819  0.8825 -0.6464 -1.1686
  314MOL0     H42349   1.755  10.424   8.734 -0.6859 -1.3789 -1.4291
  314MOL0     H42350   1.586  10.677   9.053 -2.9988  3.9503  0.2281
  314MOL0     H42351   1.613  10.897   9.051 -1.0789 -1.2212  0.9592
  314MOL0     H42352   1.658  11.282   8.602 -0.3470 -0.3918  0.5557
  314MOL0     H42353   1.690  11.537   8.588 -0.2846  1.2256 -0.7198
  314MOL0     H42354   1.984  11.685   8.903  1.9333  2.2640  0.5833
  314MOL0     H42355   2.067  11.708   8.744  0.0096 -0.1686 -1.0275
  314MOL0     H42356   2.049  11.934   8.835  0.3093 -1.2680  0.9321
  314MOL0     H42357   1.945  11.919   8.701  2.4038  3.7348  0.6621
  314MOL0     H42358   1.836  11.835   8.968  3.7968 -1.4831 -1.2707
  314MOL0     H42359   1.881  12.001   8.963  2.9745 -0.1379 -1.9857
  314MOL0     H42360   1.679  11.845   8.790  1.9003  0.9950 -1.0047
  314MOL0     H42361   1.722  12.007   8.743 -0.5661  1.0427 -0.2287
  314MOL0     H42362   1.684  12.082   8.988  2.1331 -1.4296 -0.7438
  314MOL0     H42363   1.589  11.935   8.988 -0.3980 -0.6253 -0.3549
  314MOL0     H42364   1.468  12.164   8.921  0.6288  0.6506 -1.1454
  314MOL0     H42365   1.553  12.159   8.771  1.6774 -1.2984 -1.4689
  314MOL0     H42366   1.366  11.916   8.843 -3.4101 -0.0049 -1.0058
  314MOL0     H42367   1.465  11.942   8.702 -0.3231 -3.4475  1.8906
  314MOL0     H42368   1.221  12.106   8.794 -2.2612 -0.6216 -1.5733
  314MOL0     H42369   1.308  12.146   8.650  0.2472 -0.7845 -1.3875
  314MOL0     H42370   2.007  11.479   8.885 -1.2265  2.6021 -0.4493
  314MOL0     H42371   1.973  11.234   8.865 -2.6811 -1.2644  0.4012
  314MOL0     H42372   1.806  10.872   8.667  1.9660 -1.6701 -0.7105
  314MOL0     H42373   1.768  10.617   8.676 -2.5547 -0.0378  0.1260
  314MOL0     H42374   2.153   9.040   8.604  1.0887 -0.4069  0.2113
  314MOL0     H42375   2.218   8.819   8.481  3.9634  0.4943 -0.7639
  314MOL0     H42376   2.160   8.298   8.541  0.9554 -0.8416  2.1896
  314MOL0     H42377   2.220   8.097   8.433 -1.3943  2.2493  0.2104
  314MOL0     H42378   2.437   7.809   8.406 -1.9568 -0.4185 -0.0406
  314MOL0     H42379   2.287   7.910   8.418 -1.5873 -0.1373  0.7024
  314MOL0     H42380   2.325   7.804   8.628  3.3178 -1.5196  4.5149
  314MOL0     H42381   2.367   7.977   8.644  1.1686  1.9409 -1.3754
  314MOL0     H42382   2.551   7.879   8.760  1.0057 -0.8657  0.3326
  314MOL0     H42383   2.609   7.894   8.591  2.1751 -2.7969  0.1888
  314MOL0     H42384   2.553   7.663   8.546  3.4022 -2.1587  0.6385
  314MOL0     H42385   2.684   7.681   8.652  0.4302 -0.5754 -3.2726
  314MOL0     H42386   2.429   7.537   8.945  1.0866  0.3017  2.1996
  314MOL0     H42387   2.629   8.224   8.410 -0.8272 -0.0023  0.4371
  314MOL0     H42388   2.619   8.518   8.602  2.2725  1.3612 -0.1389
  314MOL0     H42389   2.696   8.412   8.481 -0.4280  1.3414 -2.4822
  314MOL0     H42390   2.604   8.536   8.416  2.7026  1.1625  1.0638
  315MOL0     O42391   3.173   5.636   4.357  0.1314 -0.1337 -0.0562
  315MOL0     C42392   3.201   5.585   4.249 -0.2466  0.3939 -0.6466
  315MOL0     O42393   3.305   5.610   4.179  0.3138 -0.0737  0.0562
  315MOL0     C42394   3.380   5.717   4.202  0.5831  0.2959 -0.2950
  315MOL0     C42395   3.515   5.700   4.162  0.7954 -0.6341 -0.2032
  315MOL0     C42396   3.608   5.798   4.159  0.5309 -0.4612 -0.5455
  315MOL0     C42397   3.568   5.925   4.205 -1.0747 -0.9112  0.4795
  315MOL0     O42398   3.675   6.020   4.188  0.9008  0.0315 -0.5197
  315MOL0     C42399   3.668   6.139   4.274  0.5516  0.0453 -0.3592
  315MOL0     C42400   3.801   6.224   4.283 -0.5941  0.1975 -0.2670
  315MOL0     C42401   3.858   6.244   4.417 -0.4987 -0.3186 -0.5291
  315MOL0     C42402   3.909   6.113   4.482  0.3143 -0.4780 -0.0114
  315MOL0     C42403   3.954   6.151   4.623  0.6817  0.1851 -0.0942
  315MOL0     C42404   4.017   6.022   4.689  0.3167 -0.0439 -0.0435
  315MOL0     C42405   4.051   6.054   4.833 -0.5393  0.0497 -0.5883
  315MOL0     C42406   4.168   5.968   4.875 -0.6233 -0.8019  0.0276
  315MOL0     N42407   4.292   6.038   4.896 -0.1333 -0.1309  0.2210
  315MOL0     C42408   4.347   6.085   5.018  0.1451 -0.2819  1.6393
  315MOL0     C42409   4.469   6.145   4.991 -0.8765 -0.0486 -0.1929
  315MOL0     C42410   4.554   6.213   5.095 -0.0243 -0.1573 -0.2589
  315MOL0     C42411   4.673   6.123   5.125 -0.0429 -0.8781  0.4341
  315MOL0     C42412   4.792   6.147   5.026  0.8956 -0.3052 -0.2541
  315MOL0     C42413   4.921   6.068   5.071  0.3481  0.0011 -0.2999
  315MOL0     O42414   4.906   5.922   5.069 -0.1212 -0.8451  0.2755
  315MOL0     C42415   5.022   5.847   5.085  0.8143  0.2851  0.6086
  315MOL0     C42416   5.023   5.710   5.047 -0.3237 -0.0589  1.3735
  315MOL0     C42417   5.139   5.629   5.054  0.2793  0.4077 -0.2520
  315MOL0     C42418   5.257   5.690   5.110  0.1536  0.5470  0.0709
  315MOL0     C42419   5.391   5.611   5.105  0.8331 -0.5514 -0.6624
  315MOL0     O42420   5.512   5.678   5.126  0.4821  0.5614 -0.0551
  315MOL0     C42421   5.624   5.619   5.080 -1.1106  0.3026  0.5301
  315MOL0     C42422   5.639   5.558   4.952  0.0030  0.0788 -0.0121
  315MOL0     C42423   5.761   5.535   4.896 -0.6917 -0.4323 -0.3155
  315MOL0     C42424   5.883   5.556   4.969 -0.0578  0.2169  0.3129
  315MOL0     O42425   6.002   5.521   4.909  0.2331  0.4910 -0.3692
  315MOL0     C42426   6.122   5.496   4.987 -0.0280 -0.3105  0.0717
  315MOL0     C42427   6.240   5.450   4.906  0.2607 -1.0174 -0.9246
  315MOL0     C42428   6.258   5.548   4.793  0.4712 -0.6783  0.9431
  315MOL0     C42429   6.355   5.497   4.689  0.1843  0.3974 -0.6564
  315MOL0     C42430   6.490   5.481   4.753  0.3866 -0.0898 -1.1019
  315MOL0     C42431   6.605   5.444   4.647 -0.7458 -0.1474  0.0341
  315MOL0     C42432   6.734   5.464   4.721  0.1209 -0.1581 -0.2670
  315MOL0     C42433   6.856   5.406   4.651 -0.3764 -0.5691  0.3506
  315MOL0    Cl42434   6.921   5.252   4.717  0.8052 -0.0242 -0.1602
  315MOL0     C42435   5.870   5.624   5.092  0.0068 -0.1970  0.3259
  315MOL0     C42436   5.745   5.657   5.143  0.9042  0.2410  0.5025
  315MOL0     O42437   5.373   5.501   5.067  0.0131  0.2727 -1.0774
  315MOL0     C42438   5.255   5.820   5.154 -0.1326 -0.2478 -0.5309
  315MOL0     C42439   5.145   5.906   5.128 -0.2737  0.6187 -0.5210
  315MOL0     N42440   4.489   6.135   4.856  1.1659 -0.4046 -0.3664
  315MOL0     N42441   4.382   6.077   4.802  0.7894  0.3092 -0.7457
  315MOL0     C42442   3.440   5.948   4.259 -0.0920  0.2591 -0.7231
  315MOL0     C42443   3.353   5.837   4.264 -0.0211 -0.2516  0.6649
  315MOL0     C42444   3.108   5.484   4.201  0.0657 -0.1362  0.0309
  315MOL0     C42445   3.093   5.363   4.271 -0.1608  0.2207 -0.7117
  315MOL0     C42446   3.012   5.260   4.221  0.1288 -0.2022 -0.1028
  315MOL0     C42447   2.945   5.281   4.101  0.2779  0.0761  0.6345
  315MOL0     O42448   2.857   5.178   4.072 -0.3029  0.5548  0.1252
  315MOL0     C42449   2.771   5.210   3.959 -0.1998  0.3332 -1.0279
  315MOL0     C42450   2.663   5.107   3.953 -0.0457 -0.0035 -0.0338
  315MOL0     C42451   2.706   4.973   3.888  0.8077  0.1090  0.1691
  315MOL0     C42452   2.630   4.847   3.927 -0.9801 -0.3537 -1.1099
  315MOL0     C42453   2.628   4.830   4.075 -0.5875 -0.4142 -0.0764
  315MOL0     C42454   2.629   4.817   4.201  0.5791  0.0680 -0.1517
  315MOL0     C42455   2.969   5.393   4.029 -0.5528 -0.0578  0.8571
  315MOL0     C42456   3.052   5.498   4.078  0.1892 -0.7197  0.0745
  315MOL0     C42457   3.089   5.622   3.990  0.1851  0.1727  0.8565
  315MOL0     H42458   3.542   5.601   4.125 -2.0506 -1.1711 -1.0681
  315MOL0     H42459   3.703   5.771   4.114 -1.1030 -0.1305 -4.6364
  315MOL0     H42460   3.592   6.203   4.229 -1.3724 -0.1304  2.3797
  315MOL0     H42461   3.634   6.107   4.373  0.6751  2.7417  0.6408
  315MOL0     H42462   3.774   6.320   4.238  1.7309 -0.4682 -3.4794
  315MOL0     H42463   3.867   6.174   4.211 -1.4808  0.4695 -1.3027
  315MOL0     H42464   3.781   6.287   4.483 -0.4118 -2.2331  0.9245
  315MOL0     H42465   3.938   6.315   4.396  0.3122 -1.7202 -2.4223
  315MOL0     H42466   3.834   6.034   4.486  0.3468 -0.5312 -0.4134
  315MOL0     H42467   3.996   6.078   4.426  1.0893  0.5014  0.5424
  315MOL0     H42468   4.015   6.242   4.617  1.5070 -0.2534  1.2662
  315MOL0     H42469   3.863   6.178   4.677  1.1375  2.2423 -0.2380
  315MOL0     H42470   3.959   5.930   4.675 -0.7946  1.0546 -3.8086
  315MOL0     H42471   4.106   5.993   4.632  0.7574 -0.5387  0.8654
  315MOL0     H42472   3.963   6.027   4.893  1.1764 -2.9240  0.8330
  315MOL0     H42473   4.083   6.158   4.837 -0.5963  0.0512 -0.0958
  315MOL0     H42474   4.135   5.916   4.966 -0.4350 -2.5371 -0.8548
  315MOL0     H42475   4.183   5.900   4.791 -0.5071  2.1146 -2.4713
  315MOL0     H42476   4.309   6.075   5.119  0.7364  0.1002  1.9045
  315MOL0     H42477   4.593   6.306   5.055  2.1922 -0.5451  0.8043
  315MOL0     H42478   4.502   6.230   5.190 -2.8128 -0.0125 -1.7051
  315MOL0     H42479   4.707   6.171   5.218  0.5266  3.8494 -1.8867
  315MOL0     H42480   4.656   6.016   5.137 -0.0314 -1.1200 -1.5348
  315MOL0     H42481   4.822   6.252   5.031  3.5049 -1.0039  0.7163
  315MOL0     H42482   4.751   6.132   4.926  2.2572  1.3555 -1.1000
  315MOL0     H42483   4.950   6.102   5.170 -0.2998  2.8046 -0.9919
  315MOL0     H42484   4.990   6.098   4.992 -0.5981  3.1692 -0.0541
  315MOL0     H42485   4.927   5.692   5.000  0.8121 -2.3366 -0.2828
  315MOL0     H42486   5.149   5.532   5.006  4.4830  0.2394  0.5684
  315MOL0     H42487   5.550   5.533   4.894 -1.2053  1.3402  1.2029
  315MOL0     H42488   5.764   5.491   4.797 -1.5175  0.1453 -0.6056
  315MOL0     H42489   6.144   5.593   5.033 -2.4872  1.0640 -1.3972
  315MOL0     H42490   6.100   5.423   5.065 -1.2583  0.7244  0.7381
  315MOL0     H42491   6.325   5.461   4.973 -0.4090  0.7566 -0.3137
  315MOL0     H42492   6.221   5.348   4.872 -2.5438 -1.2626  0.9653
  315MOL0     H42493   6.168   5.568   4.734  1.1940 -2.0243 -0.7169
  315MOL0     H42494   6.303   5.642   4.827 -0.5506  0.2458 -0.1517
  315MOL0     H42495   6.379   5.567   4.607  2.5605  0.7074  0.2256
  315MOL0     H42496   6.328   5.400   4.647 -5.8049  1.5313 -0.2808
  315MOL0     H42497   6.490   5.403   4.829 -0.7336  1.0430  0.1142
  315MOL0     H42498   6.516   5.578   4.796 -5.5438  1.5844 -0.3572
  315MOL0     H42499   6.597   5.338   4.620 -1.0758  0.0079 -0.4995
  315MOL0     H42500   6.589   5.507   4.559  0.2868 -3.0958 -2.4626
  315MOL0     H42501   6.718   5.428   4.823  4.7873 -1.7398  0.1769
  315MOL0     H42502   6.758   5.571   4.724 -1.7873  0.5627 -4.1038
  315MOL0     H42503   6.846   5.393   4.543 -1.2569  0.8147  0.2381
  315MOL0     H42504   6.929   5.484   4.677 -1.0678  0.2714 -0.1714
  315MOL0     H42505   5.966   5.654   5.133 -0.1042  1.5533 -0.6031
  315MOL0     H42506   5.744   5.722   5.230  1.3585  1.0891 -0.1098
  315MOL0     H42507   5.338   5.872   5.200 -0.5962  1.3108 -1.3904
  315MOL0     H42508   5.158   6.013   5.143 -3.1755  1.6188 -3.7554
  315MOL0     H42509   3.420   6.048   4.295  0.0861  0.8452 -2.1724
  315MOL0     H42510   3.256   5.844   4.312 -0.7408  0.7749 -0.8407
  315MOL0     H42511   3.143   5.347   4.366 -0.6194 -1.4713 -0.7246
  315MOL0     H42512   2.989   5.170   4.276 -3.0711  0.6758  0.1799
  315MOL0     H42513   2.833   5.212   3.869  0.2721  0.2560 -0.7088
  315MOL0     H42514   2.715   5.304   3.968  0.3974  0.5457  1.0681
  315MOL0     H42515   2.581   5.147   3.893  0.7224  0.5512 -0.7487
  315MOL0     H42516   2.623   5.091   4.054 -1.0596  0.3833 -0.3644
  315MOL0     H42517   2.814   4.954   3.899  0.7655 -0.8643 -0.9219
  315MOL0     H42518   2.696   4.986   3.780  0.7619  3.2449  0.4414
  315MOL0     H42519   2.525   4.857   3.900 -1.1383  3.1852  0.2546
  315MOL0     H42520   2.678   4.761   3.878  0.7817 -0.4428  0.5936
  315MOL0     H42521   2.645   4.795   4.305 -0.8593 -2.0396 -0.3097
  315MOL0     H42522   2.918   5.410   3.935  0.0917 -2.8560 -0.1171
  315MOL0     H42523   3.102   5.720   4.035  0.2427  1.7821 -2.3387
  315MOL0     H42524   3.173   5.604   3.922 -1.6345 -0.7261 -1.2863
  315MOL0     H42525   3.007   5.634   3.918  2.5380  0.2605 -1.9748
  316MOL0     O42526   5.204   6.781   9.036 -0.1660  0.2721 -0.6510
  316MOL0     C42527   5.145   6.752   8.935  1.4774 -0.2562 -0.0718
  316MOL0     O42528   5.145   6.630   8.872 -0.2806 -0.0959  0.0722
  316MOL0     C42529   5.223   6.529   8.928  0.3310  0.1778 -0.1192
  316MOL0     C42530   5.357   6.530   8.900  0.2381 -0.9079  0.1557
  316MOL0     C42531   5.447   6.439   8.963 -0.5600 -0.1592 -0.2369
  316MOL0     C42532   5.400   6.347   9.058 -1.0630 -0.5730 -0.1780
  316MOL0     O42533   5.497   6.268   9.119  0.9605  0.5459 -0.1468
  316MOL0     C42534   5.472   6.192   9.237 -0.2420 -0.1959  0.0666
  316MOL0     C42535   5.479   6.284   9.355 -0.3816 -0.4138  0.8307
  316MOL0     C42536   5.451   6.219   9.499 -0.6825 -0.1990 -0.0358
  316MOL0     C42537   5.475   6.319   9.605 -1.0201  0.5188  0.5818
  316MOL0     C42538   5.464   6.279   9.756  0.4037  0.9227  0.1435
  316MOL0     C42539   5.420   6.379   9.856  0.3147  0.0087  0.8763
  316MOL0     C42540   5.519   6.493   9.861  0.6880  0.3048 -0.0164
  316MOL0     C42541   5.640   6.453   9.956  0.6520 -0.0740  0.1645
  316MOL0     N42542   5.605   6.397  10.083 -0.0920  0.9414 -0.7243
  316MOL0     C42543   5.582   6.472  10.193 -0.7663  0.1258 -0.4690
  316MOL0     C42544   5.573   6.385  10.297  0.1285 -1.1038  0.8843
  316MOL0     C42545   5.556   6.436  10.443 -0.2561 -0.3163  0.4728
  316MOL0     C42546   5.432   6.528  10.453 -0.2921  0.2775 -0.1279
  316MOL0     C42547   5.298   6.460  10.426 -0.9325 -0.0875 -0.5795
  316MOL0     C42548   5.192   6.569  10.398 -0.3531 -0.5222  0.5049
  316MOL0     O42549   5.154   6.624  10.519  0.5379 -0.9960 -0.4016
  316MOL0     C42550   5.069   6.736  10.516  0.1682  0.3772 -0.5684
  316MOL0     C42551   4.978   6.751  10.622  0.6775  0.0502 -0.1260
  316MOL0     C42552   4.891   6.859  10.621 -0.2944 -0.5819  0.7346
  316MOL0     C42553   4.881   6.955  10.515 -0.3347  0.7782 -0.0357
  316MOL0     C42554   4.778   7.060  10.499 -0.0142 -0.3692 -0.0343
  316MOL0     O42555   4.697   7.070  10.613  0.5700  0.3971  0.4551
  316MOL0     C42556   4.587   7.160  10.610 -0.2562 -0.0681  0.7803
  316MOL0     C42557   4.587   7.293  10.548 -0.5741  0.1724  0.9640
  316MOL0     C42558   4.491   7.389  10.568 -0.4376  0.1286  0.5567
  316MOL0     C42559   4.401   7.383  10.671 -0.0558 -0.5287  0.0843
  316MOL0     O42560   4.314   7.497  10.690  0.3352 -0.2875 -0.1679
  316MOL0     C42561   4.358   7.578  10.806  0.5083  0.0476 -0.1359
  316MOL0     C42562   4.289   7.533  10.935  0.6731  0.9022 -0.0205
  316MOL0     C42563   4.311   7.638  11.043 -0.3139  0.2218  0.3474
  316MOL0     C42564   4.248   7.604  11.178  0.8217 -0.6581  0.5420
  316MOL0     C42565   4.307   7.483  11.258  0.2745 -0.4177 -0.4620
  316MOL0     C42566   4.442   7.495  11.336 -0.0556 -0.1726  0.3124
  316MOL0     C42567   4.459   7.359  11.402 -0.0004  0.3585 -0.7612
  316MOL0     C42568   4.611   7.343  11.447 -0.0604 -0.2893  0.6649
  316MOL0    Cl42569   4.612   7.367  11.619 -0.1423 -0.6166 -0.8941
  316MOL0     C42570   4.398   7.256  10.739  0.5922 -0.2957 -0.8383
  316MOL0     C42571   4.478   7.141  10.701  0.1125 -0.2894  0.3726
  316MOL0     O42572   4.759   7.112  10.385 -0.4491 -0.3703 -1.1186
  316MOL0     C42573   4.985   6.942  10.414  0.4879  0.4602  0.9142
  316MOL0     C42574   5.082   6.838  10.422 -0.6039 -1.1323 -0.0313
  316MOL0     N42575   5.583   6.261  10.240 -0.9865  0.6457  0.2154
  316MOL0     N42576   5.601   6.265  10.112  0.5234 -0.9383 -0.2721
  316MOL0     C42577   5.265   6.334   9.075  0.0312  0.0768  0.9171
  316MOL0     C42578   5.181   6.426   9.015 -0.2743 -0.4858  0.2381
  316MOL0     C42579   5.062   6.852   8.863 -0.3139  0.3799 -0.0815
  316MOL0     C42580   4.938   6.801   8.814 -0.1121  0.3376  0.0411
  316MOL0     C42581   4.849   6.889   8.748  0.3702 -0.3613 -0.8902
  316MOL0     C42582   4.889   7.020   8.722 -0.0907  0.0787  0.6167
  316MOL0     O42583   4.805   7.099   8.649 -0.2551 -0.3406  0.4752
  316MOL0     C42584   4.777   7.238   8.681 -0.2335  0.5972 -0.6929
  316MOL0     C42585   4.716   7.313   8.562 -0.6213 -0.1414 -0.0284
  316MOL0     C42586   4.805   7.315   8.430 -0.0131 -0.3549 -0.2308
  316MOL0     C42587   4.741   7.382   8.307  0.1196  0.9943  0.0567
  316MOL0     C42588   4.638   7.305   8.256  0.7850  0.1973 -0.7262
  316MOL0     C42589   4.548   7.253   8.189 -0.1239  0.3800 -0.4865
  316MOL0     C42590   5.009   7.076   8.784 -0.2097  0.0381  0.5154
  316MOL0     C42591   5.092   6.985   8.847  0.2302 -0.1161 -1.5303
  316MOL0     C42592   5.214   7.040   8.905  0.0869  0.5153 -0.0145
  316MOL0     H42593   5.401   6.610   8.840 -0.2316 -2.8402 -2.9477
  316MOL0     H42594   5.554   6.449   8.951 -0.0140 -3.0331  1.4548
  316MOL0     H42595   5.370   6.151   9.235 -0.6550  0.7336  0.8492
  316MOL0     H42596   5.552   6.118   9.248 -1.7673 -1.7157  1.6641
  316MOL0     H42597   5.409   6.366   9.339 -0.4677 -0.0805  2.6736
  316MOL0     H42598   5.580   6.325   9.366 -0.1003 -1.2399  1.4454
  316MOL0     H42599   5.512   6.130   9.517  3.1549  2.7663  3.6637
  316MOL0     H42600   5.348   6.184   9.505 -1.6311  2.2148 -1.1716
  316MOL0     H42601   5.560   6.385   9.584 -0.6369 -0.2336 -0.2690
  316MOL0     H42602   5.398   6.393   9.581 -0.2923 -0.0931 -4.6968
  316MOL0     H42603   5.394   6.197   9.773 -0.0586  1.8090  2.9540
  316MOL0     H42604   5.563   6.239   9.783 -0.8570 -0.1424  3.8125
  316MOL0     H42605   5.330   6.414   9.803  1.9360 -0.8430 -2.7046
  316MOL0     H42606   5.390   6.338   9.953  2.3062 -0.5202  1.2982
  316MOL0     H42607   5.460   6.580   9.890  1.5452  0.8224  0.2162
  316MOL0     H42608   5.556   6.515   9.761 -1.6322  0.4456 -0.9019
  316MOL0     H42609   5.712   6.388   9.905 -2.3500 -2.0144 -1.8873
  316MOL0     H42610   5.697   6.541   9.989 -2.3306  2.5413 -1.1522
  316MOL0     H42611   5.601   6.577  10.210  1.0127  0.0483 -1.6839
  316MOL0     H42612   5.563   6.353  10.515 -1.0242 -0.8117 -0.0046
  316MOL0     H42613   5.647   6.490  10.473 -0.6088 -0.5237  2.0234
  316MOL0     H42614   5.419   6.547  10.560 -2.9730 -0.6494 -0.2055
  316MOL0     H42615   5.443   6.625  10.404 -4.3659  1.2177  0.4805
  316MOL0     H42616   5.282   6.397  10.514  5.1497  0.9407  1.7221
  316MOL0     H42617   5.302   6.398  10.335  0.4449 -0.9252  0.0194
  316MOL0     H42618   5.108   6.525  10.342  0.5030 -2.5958  0.7759
  316MOL0     H42619   5.236   6.647  10.335  1.1518 -0.8928  1.0757
  316MOL0     H42620   4.988   6.688  10.710 -0.4552 -0.9783 -0.6838
  316MOL0     H42621   4.828   6.879  10.707 -0.2024 -0.3827  0.7551
  316MOL0     H42622   4.662   7.329  10.479 -0.8991  1.8514  1.4414
  316MOL0     H42623   4.492   7.481  10.510  0.9099 -1.3278 -1.9173
  316MOL0     H42624   4.466   7.586  10.813  0.5850 -0.2872 -0.8045
  316MOL0     H42625   4.323   7.679  10.784  1.0946 -0.1848 -2.3932
  316MOL0     H42626   4.182   7.516  10.926  0.7355  0.5950 -0.2171
  316MOL0     H42627   4.340   7.442  10.968  0.4444  1.4433  1.9476
  316MOL0     H42628   4.420   7.646  11.056 -0.2388 -1.5339  1.0093
  316MOL0     H42629   4.267   7.733  11.010  0.4893  0.0063 -1.4541
  316MOL0     H42630   4.141   7.593  11.159  0.7769  0.3168  0.1894
  316MOL0     H42631   4.259   7.688  11.247  2.5199  1.3270 -1.9855
  316MOL0     H42632   4.312   7.398  11.190 -0.9274  1.2357 -2.7332
  316MOL0     H42633   4.238   7.453  11.338  0.9990 -0.3475  0.2025
  316MOL0     H42634   4.519   7.520  11.263 -0.5351 -0.8424 -0.4389
  316MOL0     H42635   4.437   7.568  11.418  0.6912 -1.6853  1.7676
  316MOL0     H42636   4.420   7.278  11.339 -3.9752  2.4255 -1.2821
  316MOL0     H42637   4.392   7.356  11.489 -0.6198  0.7239 -1.2124
  316MOL0     H42638   4.660   7.252  11.412  1.1353  0.6945 -0.3195
  316MOL0     H42639   4.667   7.427  11.405  0.0722  0.5379  2.4007
  316MOL0     H42640   4.319   7.244  10.812  1.3543  0.8744  0.2218
  316MOL0     H42641   4.477   7.047  10.755 -1.5483  0.9233  2.6141
  316MOL0     H42642   4.995   7.023  10.343 -1.6173 -1.3152 -1.5848
  316MOL0     H42643   5.155   6.859  10.344  0.7472  0.9189  1.6611
  316MOL0     H42644   5.235   6.252   9.139  1.8360 -1.1612  0.2625
  316MOL0     H42645   5.077   6.414   9.043  0.4258 -2.1921  2.3814
  316MOL0     H42646   4.904   6.699   8.832 -1.5547  0.8988  0.6642
  316MOL0     H42647   4.754   6.851   8.712  0.9040 -1.8724 -0.7443
  316MOL0     H42648   4.865   7.289   8.720 -0.1308 -0.1446  0.0790
  316MOL0     H42649   4.707   7.248   8.764  0.6670 -0.0640  0.1724
  316MOL0     H42650   4.696   7.415   8.595  0.5717  0.2871 -0.5856
  316MOL0     H42651   4.622   7.261   8.541 -0.6821 -0.2572  0.5128
  316MOL0     H42652   4.824   7.211   8.401 -0.7669 -0.5364 -0.0953
  316MOL0     H42653   4.899   7.366   8.449 -0.3573  0.0360  0.4786
  316MOL0     H42654   4.700   7.480   8.336 -2.2431 -0.2029  1.0588
  316MOL0     H42655   4.812   7.395   8.225 -2.0319  0.4877 -1.9975
  316MOL0     H42656   4.473   7.213   8.123  0.7667 -0.7634 -0.8414
  316MOL0     H42657   5.041   7.179   8.769  3.1146 -0.9957 -0.4685
  316MOL0     H42658   5.299   7.000   8.850 -1.2309  0.2070 -1.9240
  316MOL0     H42659   5.221   7.149   8.908 -0.6269  0.5504  0.9958
  316MOL0     H42660   5.218   7.012   9.011  0.4377 -0.0809 -0.1816
  317MOL0     O42661   2.389   6.745   4.398 -0.2982  0.4444  0.1746
  317MOL0     C42662   2.386   6.784   4.281 -0.2779  0.0224 -0.0004
  317MOL0     O42663   2.285   6.759   4.203 -0.6776  0.5180  0.4532
  317MOL0     C42664   2.169   6.694   4.244  1.1041 -0.5956  0.4092
  317MOL0     C42665   2.052   6.765   4.236  0.1581 -0.7484  0.0750
  317MOL0     C42666   1.930   6.717   4.277 -0.5749 -0.2988  0.0489
  317MOL0     C42667   1.931   6.595   4.347 -0.9999  0.2226  0.5294
  317MOL0     O42668   1.819   6.552   4.414 -0.1930  0.3006  0.6975
  317MOL0     C42669   1.705   6.638   4.408 -0.1152  0.2030 -0.2983
  317MOL0     C42670   1.602   6.577   4.511  0.2460  0.7237 -0.3420
  317MOL0     C42671   1.463   6.644   4.497 -0.0987  0.7572 -0.8495
  317MOL0     C42672   1.372   6.588   4.622 -0.3332 -0.3185  0.4881
  317MOL0     C42673   1.244   6.675   4.650 -0.0426 -0.4139  0.2490
  317MOL0     C42674   1.148   6.615   4.766  0.3127  0.0636 -0.3851
  317MOL0     C42675   1.202   6.591   4.904  0.5033  0.1991 -0.2562
  317MOL0     C42676   1.103   6.514   4.985  0.2301  0.0671  0.1277
  317MOL0     N42677   1.142   6.505   5.132 -0.3618  0.0928 -0.4623
  317MOL0     C42678   1.178   6.610   5.210 -0.6569  0.1850 -0.7336
  317MOL0     C42679   1.194   6.549   5.336  0.1994 -0.4493  0.7422
  317MOL0     C42680   1.224   6.626   5.457  0.9703 -0.0721 -1.7628
  317MOL0     C42681   1.372   6.671   5.465  0.5311  0.2565 -0.1622
  317MOL0     C42682   1.407   6.738   5.589  0.6039  0.3692 -0.0052
  317MOL0     C42683   1.560   6.733   5.614  0.1523 -0.2424 -0.0521
  317MOL0     O42684   1.631   6.800   5.514 -0.2544 -0.1515 -0.2921
  317MOL0     C42685   1.765   6.804   5.524 -0.2870 -0.1929 -0.6391
  317MOL0     C42686   1.850   6.712   5.596 -0.2953 -0.0981 -0.1069
  317MOL0     C42687   1.992   6.733   5.590  0.8660  0.9738 -1.1621
  317MOL0     C42688   2.049   6.842   5.516  0.4693  0.8365 -0.0513
  317MOL0     C42689   2.194   6.855   5.507 -0.3698  0.1152 -0.0444
  317MOL0     O42690   2.252   6.941   5.418  0.8871  0.1433 -0.2596
  317MOL0     C42691   2.381   6.970   5.442  0.0590  0.1488 -0.4820
  317MOL0     C42692   2.407   7.098   5.475  0.0390  0.1202  0.4026
  317MOL0     C42693   2.539   7.148   5.474 -0.5243  0.0023 -0.5216
  317MOL0     C42694   2.645   7.069   5.436 -0.0490  0.4696  0.4216
  317MOL0     O42695   2.770   7.124   5.436 -0.3730 -0.4960  0.6187
  317MOL0     C42696   2.858   7.082   5.321 -0.9836  0.0078  0.0701
  317MOL0     C42697   2.999   7.117   5.362 -0.6313 -0.5457  1.0168
  317MOL0     C42698   3.107   7.058   5.272  0.4982  0.2380  1.0593
  317MOL0     C42699   3.134   6.913   5.301 -0.5166 -0.4414  0.9447
  317MOL0     C42700   3.259   6.871   5.227  0.5197  0.1195 -0.0917
  317MOL0     C42701   3.240   6.837   5.077 -0.0456 -0.1473  1.0740
  317MOL0     C42702   3.142   6.726   5.038  0.4829  0.6308 -0.4550
  317MOL0     C42703   3.164   6.693   4.894  0.4307  0.2929  0.3186
  317MOL0    Cl42704   3.025   6.588   4.829  0.1407  0.1050  0.2706
  317MOL0     C42705   2.623   6.931   5.410 -0.2786 -0.3061 -0.7706
  317MOL0     C42706   2.484   6.888   5.409 -0.4016 -1.0799 -0.2325
  317MOL0     O42707   2.255   6.773   5.576 -0.2522 -0.3536 -0.3460
  317MOL0     C42708   1.968   6.923   5.437 -0.7702  0.4807  0.2211
  317MOL0     C42709   1.830   6.911   5.444  0.0262 -0.0762 -0.0736
  317MOL0     N42710   1.158   6.415   5.328  0.5740 -0.8302  1.1028
  317MOL0     N42711   1.125   6.400   5.211  0.7055 -0.1615 -0.0956
  317MOL0     C42712   2.050   6.521   4.355  0.0928 -0.3843 -0.0234
  317MOL0     C42713   2.170   6.570   4.306 -0.9324  0.5220 -0.8111
  317MOL0     C42714   2.498   6.874   4.235 -0.2840  0.1356 -0.6338
  317MOL0     C42715   2.587   6.939   4.330  0.3031  1.4797 -0.1362
  317MOL0     C42716   2.702   7.011   4.293  0.2255 -0.7690  0.3346
  317MOL0     C42717   2.733   7.024   4.153  0.6726  0.7889  0.0120
  317MOL0     O42718   2.835   7.096   4.102  0.6526 -0.4376  0.1777
  317MOL0     C42719   2.938   7.148   4.186 -0.2411 -0.1379  0.6871
  317MOL0     C42720   3.072   7.064   4.171 -0.5421  0.4652  0.3061
  317MOL0     C42721   3.066   6.924   4.224 -1.0020 -0.8464  0.4186
  317MOL0     C42722   3.188   6.844   4.205 -0.4070  0.6700 -0.8494
  317MOL0     C42723   3.222   6.820   4.068 -0.1538 -0.3113 -0.7905
  317MOL0     C42724   3.252   6.830   3.953 -0.4175 -0.9864  0.2274
  317MOL0     C42725   2.645   6.960   4.064 -0.2504 -0.2980 -0.4322
  317MOL0     C42726   2.534   6.889   4.099 -0.9322  0.2141 -0.4229
  317MOL0     C42727   2.470   6.811   3.987 -0.6007  0.5839 -0.3082
  317MOL0     H42728   2.058   6.860   4.183 -3.1525 -0.6845 -0.4092
  317MOL0     H42729   1.850   6.789   4.267  1.3606  2.0054  0.2530
  317MOL0     H42730   1.725   6.740   4.443  3.0990 -1.4481  3.3450
  317MOL0     H42731   1.650   6.634   4.313 -2.4043  1.4071  0.8878
  317MOL0     H42732   1.644   6.586   4.612 -0.1754 -3.7880  0.4262
  317MOL0     H42733   1.586   6.469   4.502 -0.1715  0.5160  2.2256
  317MOL0     H42734   1.413   6.621   4.402  0.4174  0.5805 -1.0867
  317MOL0     H42735   1.479   6.752   4.500  2.9832  0.3780  1.3530
  317MOL0     H42736   1.338   6.485   4.605 -0.5818  0.0142 -1.1600
  317MOL0     H42737   1.429   6.603   4.715  1.0273 -0.8950 -0.2191
  317MOL0     H42738   1.279   6.773   4.685 -1.0507  0.0688 -0.0475
  317MOL0     H42739   1.181   6.694   4.562 -1.9491 -0.1607  1.5969
  317MOL0     H42740   1.073   6.693   4.783  1.0266  0.6207  0.2406
  317MOL0     H42741   1.104   6.527   4.717  3.4996 -2.5268  1.0410
  317MOL0     H42742   1.232   6.690   4.939  0.5299 -0.3339  1.3161
  317MOL0     H42743   1.293   6.531   4.902 -0.0761 -0.7015 -0.2667
  317MOL0     H42744   1.005   6.562   4.974 -0.9062 -2.5726 -2.9902
  317MOL0     H42745   1.111   6.414   4.940  2.5968  1.7974 -3.7101
  317MOL0     H42746   1.203   6.715   5.201  3.3583 -0.2760  2.0648
  317MOL0     H42747   1.165   6.712   5.487  1.6064 -0.7559  1.9751
  317MOL0     H42748   1.200   6.557   5.538  0.1541  1.8591 -0.3009
  317MOL0     H42749   1.436   6.583   5.452 -0.1285 -1.0601  3.8453
  317MOL0     H42750   1.387   6.736   5.378  0.2232  3.0954  1.7818
  317MOL0     H42751   1.362   6.687   5.674  1.0827 -0.9683 -0.5343
  317MOL0     H42752   1.370   6.841   5.579 -4.4470 -1.3013 -1.2461
  317MOL0     H42753   1.594   6.631   5.633  1.9655  0.6056  1.6986
  317MOL0     H42754   1.577   6.782   5.711 -0.0657 -1.9109  0.8760
  317MOL0     H42755   1.803   6.623   5.635 -0.5383 -0.9007 -2.1337
  317MOL0     H42756   2.045   6.657   5.647 -2.6845  0.4618  1.7996
  317MOL0     H42757   2.323   7.158   5.509 -0.6739 -2.0569  2.8091
  317MOL0     H42758   2.563   7.246   5.514  1.3567 -0.1698 -1.1372
  317MOL0     H42759   2.851   6.975   5.296  2.2805 -0.5992  1.2175
  317MOL0     H42760   2.833   7.141   5.233  0.1253 -0.1080 -0.3414
  317MOL0     H42761   3.014   7.224   5.348  1.3306 -1.1195 -2.8052
  317MOL0     H42762   3.028   7.097   5.465  2.2715 -0.3306  0.3377
  317MOL0     H42763   3.081   7.058   5.166  4.0613 -2.9090 -0.0151
  317MOL0     H42764   3.197   7.118   5.265  2.1863 -2.3004 -0.7134
  317MOL0     H42765   3.043   6.863   5.267 -1.8972  3.2232 -1.3220
  317MOL0     H42766   3.153   6.904   5.409 -1.7679 -0.4948  1.1717
  317MOL0     H42767   3.305   6.796   5.293 -0.8657  1.4746  2.5741
  317MOL0     H42768   3.332   6.951   5.217  0.5666 -0.1102 -2.1819
  317MOL0     H42769   3.211   6.928   5.024 -1.7012  0.3218  2.6525
  317MOL0     H42770   3.336   6.803   5.039 -0.1605  0.8935 -0.2271
  317MOL0     H42771   3.037   6.750   5.053 -0.0659 -2.5608  1.9742
  317MOL0     H42772   3.174   6.645   5.104  1.9160  3.1884  2.1961
  317MOL0     H42773   3.163   6.786   4.835  0.1114  1.3875  1.9848
  317MOL0     H42774   3.264   6.656   4.869  0.6854  1.3262 -0.2383
  317MOL0     H42775   2.708   6.865   5.396  0.8762  1.2090 -1.2397
  317MOL0     H42776   2.470   6.780   5.407  1.4724 -1.4575  2.2082
  317MOL0     H42777   2.019   6.997   5.377  0.0145  1.3465  1.8584
  317MOL0     H42778   1.766   6.967   5.377 -1.7642 -1.6756  0.2024
  317MOL0     H42779   2.053   6.426   4.408  1.6751 -1.0092 -1.1496
  317MOL0     H42780   2.263   6.515   4.322 -0.5088  1.5732  0.4659
  317MOL0     H42781   2.552   6.922   4.432 -2.2595  1.4417 -0.9503
  317MOL0     H42782   2.761   7.065   4.367  2.3825  2.7208 -3.5480
  317MOL0     H42783   2.917   7.145   4.293  0.0624 -1.6108  0.7209
  317MOL0     H42784   2.956   7.254   4.166  0.0319 -0.3443 -0.2276
  317MOL0     H42785   3.159   7.115   4.214 -2.2158  4.0883 -0.1976
  317MOL0     H42786   3.101   7.073   4.065  1.8874  0.4720  0.9084
  317MOL0     H42787   2.974   6.878   4.187 -1.0708 -0.0507 -0.4353
  317MOL0     H42788   3.055   6.937   4.333  1.1196  1.6563  0.4402
  317MOL0     H42789   3.266   6.890   4.266 -1.3897 -0.5336  1.4342
  317MOL0     H42790   3.158   6.757   4.263 -1.6334  1.2861 -0.5174
  317MOL0     H42791   3.286   6.841   3.852  2.4331 -0.4653  1.1553
  317MOL0     H42792   2.677   6.966   3.961 -1.2584 -2.3739 -0.9126
  317MOL0     H42793   2.365   6.833   3.964 -1.6118 -1.9122  1.5573
  317MOL0     H42794   2.525   6.831   3.894 -3.5186 -1.0453 -2.5333
  317MOL0     H42795   2.474   6.703   4.000  1.7423  0.4446 -1.5218
  318MOL0     O42796   5.779   7.868   7.168  0.1106  0.7135  0.4026
  318MOL0     C42797   5.659   7.871   7.210  0.3043 -0.1300 -1.1489
  318MOL0     O42798   5.583   7.992   7.229 -0.0259  0.4411  0.4182
  318MOL0     C42799   5.641   8.111   7.224 -1.0387  0.0340 -0.1200
  318MOL0     C42800   5.653   8.187   7.111 -0.3340  0.3886  0.9331
  318MOL0     C42801   5.701   8.324   7.114  0.6892 -0.8631  0.2742
  318MOL0     C42802   5.754   8.377   7.234  0.3591 -0.2573  0.4309
  318MOL0     O42803   5.816   8.496   7.242  0.3022  0.0271 -0.1207
  318MOL0     C42804   5.733   8.604   7.274  0.5316 -0.4173 -0.1812
  318MOL0     C42805   5.628   8.636   7.174  0.4351 -0.5535 -0.1411
  318MOL0     C42806   5.677   8.680   7.035 -0.1074 -0.9950 -0.1857
  318MOL0     C42807   5.791   8.786   7.045 -0.2736 -0.7218 -0.1317
  318MOL0     C42808   5.856   8.807   6.902  0.2445 -0.7158  0.0713
  318MOL0     C42809   5.929   8.941   6.889  0.7981  0.0485 -1.6232
  318MOL0     C42810   5.830   9.056   6.884  0.3414 -0.1230  0.3659
  318MOL0     C42811   5.910   9.183   6.836  0.3850  0.6884  0.2860
  318MOL0     N42812   5.961   9.172   6.696  0.2678 -0.6040  0.6053
  318MOL0     C42813   6.095   9.168   6.669  0.4398 -0.5917  0.4966
  318MOL0     C42814   6.102   9.178   6.538  0.2992 -0.3619  0.5041
  318MOL0     C42815   6.232   9.174   6.465 -0.2133  0.1019 -0.1765
  318MOL0     C42816   6.252   9.300   6.367 -0.3858 -0.2035  0.2634
  318MOL0     C42817   6.266   9.434   6.423  0.3846 -0.4847  0.0745
  318MOL0     C42818   6.262   9.547   6.317 -0.6003  0.1192  0.4025
  318MOL0     O42819   6.157   9.522   6.222  0.5356 -0.6347  0.5407
  318MOL0     C42820   6.023   9.545   6.245 -0.9071 -0.5256 -0.1879
  318MOL0     C42821   5.953   9.608   6.142  0.4843  0.0096  0.2451
  318MOL0     C42822   5.821   9.633   6.156 -0.0505 -0.9691  0.0750
  318MOL0     C42823   5.744   9.568   6.257  0.1235 -1.1693  0.3434
  318MOL0     C42824   5.598   9.588   6.270 -0.1529 -0.3479  0.3587
  318MOL0     O42825   5.539   9.697   6.207 -0.1346 -0.2780  0.4460
  318MOL0     C42826   5.415   9.742   6.250 -0.9077 -0.1169 -0.0275
  318MOL0     C42827   5.385   9.781   6.381 -0.3914 -0.4827  0.4792
  318MOL0     C42828   5.255   9.816   6.416 -0.1704  0.7321  0.3873
  318MOL0     C42829   5.148   9.830   6.321  0.4418  0.1341 -0.2029
  318MOL0     O42830   5.036   9.860   6.376 -1.1512 -0.3884  0.2626
  318MOL0     C42831   4.921   9.843   6.304 -0.3810  0.2139 -0.2183
  318MOL0     C42832   4.829   9.828   6.417  0.7585 -0.2223 -1.4602
  318MOL0     C42833   4.788   9.959   6.497  0.7575 -0.4445 -0.3988
  318MOL0     C42834   4.674   9.934   6.588  0.0325  0.7810 -0.1479
  318MOL0     C42835   4.616  10.059   6.656 -0.8430 -0.6616 -1.5550
  318MOL0     C42836   4.476  10.033   6.725  0.7457  1.0926 -0.1645
  318MOL0     C42837   4.381  10.144   6.695 -0.0978  0.0630  0.4722
  318MOL0     C42838   4.263  10.134   6.781  0.4804 -0.5768 -0.7887
  318MOL0    Cl42839   4.169  10.280   6.730  0.1039 -0.0886  0.0786
  318MOL0     C42840   5.182   9.796   6.190 -0.3408  0.2705  0.4616
  318MOL0     C42841   5.314   9.767   6.156 -0.6632 -0.2580 -0.1399
  318MOL0     O42842   5.541   9.502   6.344 -0.2013 -0.2878  1.1000
  318MOL0     C42843   5.812   9.497   6.352  0.3701  0.5890 -0.2434
  318MOL0     C42844   5.950   9.489   6.350 -0.3824  0.5040 -0.1389
  318MOL0     N42845   5.979   9.184   6.481 -0.5289 -0.3065 -0.2333
  318MOL0     N42846   5.894   9.187   6.583  0.4076 -0.6705 -0.1879
  318MOL0     C42847   5.760   8.294   7.341  0.4532  0.1657 -0.3301
  318MOL0     C42848   5.693   8.167   7.342 -0.3690  0.5261 -0.4294
  318MOL0     C42849   5.610   7.738   7.253  0.6962 -0.8264 -0.5772
  318MOL0     C42850   5.699   7.644   7.313 -1.1542 -0.1515 -0.6364
  318MOL0     C42851   5.653   7.525   7.369  0.6569 -0.4988  0.2314
  318MOL0     C42852   5.512   7.508   7.375 -0.1530 -0.6599 -0.1513
  318MOL0     O42853   5.450   7.414   7.449  0.4736 -0.5512 -1.0401
  318MOL0     C42854   5.530   7.359   7.561 -0.1460 -0.6965  0.0412
  318MOL0     C42855   5.440   7.283   7.646  0.5987 -0.4388 -0.2812
  318MOL0     C42856   5.308   7.361   7.688 -0.1002 -0.5670  0.3641
  318MOL0     C42857   5.267   7.336   7.838  0.2341 -0.1937  0.8251
  318MOL0     C42858   5.258   7.203   7.882  0.0659 -0.1436  0.2404
  318MOL0     C42859   5.270   7.088   7.928 -0.4510 -0.0839 -0.5227
  318MOL0     C42860   5.426   7.587   7.312 -0.5652 -0.0326  0.1785
  318MOL0     C42861   5.472   7.696   7.248 -0.4307 -0.0675  0.5376
  318MOL0     C42862   5.366   7.777   7.174  0.1372 -0.1620 -0.4192
  318MOL0     H42863   5.624   8.139   7.018 -0.7557  3.9238 -0.9255
  318MOL0     H42864   5.697   8.386   7.025  0.9675  0.6357  1.2690
  318MOL0     H42865   5.681   8.575   7.366 -1.6006 -0.3213 -1.2771
  318MOL0     H42866   5.800   8.686   7.300  0.4439 -0.6288  0.7334
  318MOL0     H42867   5.555   8.706   7.216 -1.5534 -2.0209 -0.9687
  318MOL0     H42868   5.560   8.552   7.155  0.0303  0.3509 -3.2660
  318MOL0     H42869   5.600   8.736   6.981 -1.1162 -0.5600  1.6265
  318MOL0     H42870   5.708   8.588   6.983 -1.8701 -1.9408  0.3613
  318MOL0     H42871   5.753   8.877   7.091 -3.5044 -1.3728 -1.2816
  318MOL0     H42872   5.878   8.753   7.104  1.3808  1.8344 -0.9609
  318MOL0     H42873   5.926   8.724   6.887  0.0025 -0.9435  0.1843
  318MOL0     H42874   5.778   8.801   6.825 -1.7596 -0.7750  2.0026
  318MOL0     H42875   5.996   8.960   6.972 -1.0374  0.9556 -0.2796
  318MOL0     H42876   5.993   8.948   6.801  1.5215 -0.7183 -1.1720
  318MOL0     H42877   5.789   9.075   6.984  1.8762  1.8496  0.6995
  318MOL0     H42878   5.747   9.029   6.819  0.6233  1.1871 -0.5902
  318MOL0     H42879   5.855   9.278   6.837 -0.0041  0.4815 -0.4325
  318MOL0     H42880   5.994   9.190   6.906 -0.4840  1.1113  1.3286
  318MOL0     H42881   6.186   9.147   6.725  0.6966  0.7008  0.6042
  318MOL0     H42882   6.315   9.175   6.537 -1.1120  1.3632  0.9036
  318MOL0     H42883   6.240   9.079   6.413 -0.0335 -1.3288  2.3038
  318MOL0     H42884   6.346   9.281   6.314  0.4005  2.0788  0.7410
  318MOL0     H42885   6.169   9.292   6.296  1.3361 -2.2644 -1.6611
  318MOL0     H42886   6.348   9.433   6.496 -0.5228 -2.0499  1.1235
  318MOL0     H42887   6.185   9.450   6.495  0.8435  3.8364 -0.1107
  318MOL0     H42888   6.355   9.541   6.261  1.8763  2.0076  3.9193
  318MOL0     H42889   6.239   9.646   6.357  0.0244 -0.0044  1.0839
  318MOL0     H42890   6.004   9.653   6.058  0.3930 -0.6068 -0.1460
  318MOL0     H42891   5.766   9.693   6.085  0.3359 -0.3988  0.2531
  318MOL0     H42892   5.457   9.769   6.462 -1.9892  1.2622  2.2865
  318MOL0     H42893   5.222   9.833   6.518 -0.9300  2.2555 -0.0814
  318MOL0     H42894   4.885   9.929   6.246  0.7196  2.0183  1.6281
  318MOL0     H42895   4.927   9.747   6.253  1.5938 -0.0582  0.4354
  318MOL0     H42896   4.731   9.794   6.383 -0.7369  1.7220  0.6120
  318MOL0     H42897   4.874   9.763   6.492  1.0634  1.3381 -0.2425
  318MOL0     H42898   4.877  10.006   6.539  1.0199 -1.1021 -0.2064
  318MOL0     H42899   4.750  10.027   6.420 -0.7713 -2.2742 -1.3466
  318MOL0     H42900   4.711   9.859   6.659  1.8594 -0.4141 -2.2335
  318MOL0     H42901   4.584   9.887   6.548 -0.5446  1.0291  0.8234
  318MOL0     H42902   4.604  10.136   6.579  4.0386  2.1110 -0.0018
  318MOL0     H42903   4.680  10.105   6.732 -1.3934 -0.6951 -1.0675
  318MOL0     H42904   4.433   9.944   6.678 -0.4568  1.0180  1.0193
  318MOL0     H42905   4.477   9.990   6.825  1.1504  0.8680 -0.2590
  318MOL0     H42906   4.340  10.129   6.594 -2.6421 -1.1730  1.6020
  318MOL0     H42907   4.434  10.240   6.701 -0.6063  0.2608  2.2176
  318MOL0     H42908   4.207  10.042   6.763 -4.1999  1.6842  0.6115
  318MOL0     H42909   4.288  10.134   6.888  0.6427 -1.2248 -0.8239
  318MOL0     H42910   5.111   9.797   6.108 -2.8230  1.0094  2.5103
  318MOL0     H42911   5.349   9.752   6.054  0.4010  3.2319 -0.4162
  318MOL0     H42912   5.750   9.460   6.433 -0.0172  0.9185 -0.3861
  318MOL0     H42913   6.000   9.428   6.425 -1.4011  2.7352  2.5606
  318MOL0     H42914   5.787   8.344   7.433  2.5763 -1.4258 -0.0185
  318MOL0     H42915   5.668   8.118   7.435  1.8387  1.5439  0.7878
  318MOL0     H42916   5.807   7.656   7.316 -1.0749 -0.9591  0.2264
  318MOL0     H42917   5.721   7.450   7.409 -0.3196  0.3656  3.9277
  318MOL0     H42918   5.591   7.434   7.613  1.3939  0.6430 -3.4088
  318MOL0     H42919   5.611   7.303   7.513 -1.0891 -1.9616 -0.1244
  318MOL0     H42920   5.494   7.256   7.737  1.6889  1.7115 -0.2361
  318MOL0     H42921   5.414   7.187   7.601  1.2216 -0.8130  0.1530
  318MOL0     H42922   5.225   7.320   7.631 -0.0676 -1.3269  0.8620
  318MOL0     H42923   5.302   7.470   7.676 -0.7486 -0.2999  2.6902
  318MOL0     H42924   5.344   7.382   7.902  0.9627  0.3284 -0.3847
  318MOL0     H42925   5.170   7.386   7.852  1.7643  2.9574  1.1366
  318MOL0     H42926   5.294   6.992   7.968 -1.2116  0.1470  0.5352
  318MOL0     H42927   5.319   7.566   7.317 -0.6862  0.7094  1.3790
  318MOL0     H42928   5.401   7.796   7.072 -0.5341  0.3314 -0.5659
  318MOL0     H42929   5.277   7.716   7.158  0.0417  0.4046 -2.2835
  318MOL0     H42930   5.342   7.871   7.225  1.2319 -1.2518  2.3252
  319MOL0     O42931   4.754   5.589   9.239  0.6879 -0.5764  0.0816
  319MOL0     C42932   4.814   5.655   9.146  0.1156 -0.1653 -0.1426
  319MOL0     O42933   4.910   5.747   9.154 -0.5356 -0.2678  0.4263
  319MOL0     C42934   4.916   5.830   9.268  0.0155  0.8019 -0.6699
  319MOL0     C42935   5.042   5.897   9.282 -0.0919  0.5425 -0.6053
  319MOL0     C42936   5.067   5.977   9.401  0.1035 -0.4174  0.0715
  319MOL0     C42937   4.972   5.982   9.504 -1.3373  0.0209 -1.1016
  319MOL0     O42938   4.991   6.041   9.625 -0.4312 -0.0979  0.3370
  319MOL0     C42939   5.091   6.140   9.640  0.9204  0.2542  0.3431
  319MOL0     C42940   5.023   6.275   9.632 -0.3681  0.0132 -0.0662
  319MOL0     C42941   4.957   6.311   9.496  1.0931  0.2420  0.4228
  319MOL0     C42942   5.022   6.427   9.428 -0.7597 -0.1441 -0.0325
  319MOL0     C42943   4.926   6.555   9.429 -0.2978  0.1350 -0.1985
  319MOL0     C42944   4.967   6.641   9.312 -0.4150 -0.3007  0.7785
  319MOL0     C42945   4.896   6.777   9.309 -0.1522 -0.1953 -0.7017
  319MOL0     C42946   4.748   6.773   9.268  0.3810 -0.4734 -0.7745
  319MOL0     N42947   4.711   6.922   9.261 -0.0809 -0.3598 -0.5788
  319MOL0     C42948   4.749   7.001   9.152 -0.5119 -0.1361  0.4480
  319MOL0     C42949   4.754   7.133   9.200 -0.1773  0.3582  0.7698
  319MOL0     C42950   4.780   7.261   9.119  0.4914 -0.7809  0.0976
  319MOL0     C42951   4.932   7.279   9.100  0.8235 -0.3753  0.1297
  319MOL0     C42952   5.013   7.292   9.227 -0.3869  0.5502 -0.5995
  319MOL0     C42953   5.150   7.345   9.193  0.0894  0.1395  0.6580
  319MOL0     O42954   5.226   7.286   9.083 -0.2191  0.6108 -0.5627
  319MOL0     C42955   5.355   7.324   9.094  0.4837  0.3102 -0.3423
  319MOL0     C42956   5.393   7.464   9.081  0.7439  1.0409 -0.8334
  319MOL0     C42957   5.526   7.489   9.083  0.0790 -0.1006  0.3979
  319MOL0     C42958   5.625   7.390   9.112 -0.4459 -0.2565  1.0645
  319MOL0     C42959   5.761   7.429   9.092 -0.1674 -0.4870 -0.3490
  319MOL0     O42960   5.800   7.551   9.126 -0.0920  0.0129 -0.8064
  319MOL0     C42961   5.931   7.589   9.107  0.0640 -0.4531 -0.8391
  319MOL0     C42962   5.970   7.650   8.983  0.6474 -0.4997  0.2550
  319MOL0     C42963   6.104   7.682   8.960  0.1098  0.0277 -0.5546
  319MOL0     C42964   6.197   7.652   9.053 -0.2066 -0.2571 -0.6858
  319MOL0     O42965   6.324   7.685   9.015  0.4573  0.4265  0.5006
  319MOL0     C42966   6.433   7.659   9.098  0.1274  0.3015  0.4880
  319MOL0     C42967   6.560   7.700   9.023  0.4669 -0.0452  0.7641
  319MOL0     C42968   6.684   7.718   9.114 -0.7177 -0.1067  0.3399
  319MOL0     C42969   6.803   7.734   9.019  0.4762  0.2223 -0.3172
  319MOL0     C42970   6.924   7.767   9.101 -0.3435 -0.0761  0.2388
  319MOL0     C42971   7.040   7.784   9.000  0.9582  0.8673 -0.9441
  319MOL0     C42972   7.162   7.822   9.086 -0.9878  0.2197 -0.0246
  319MOL0     C42973   7.281   7.726   9.082 -0.3532  0.3681  1.1801
  319MOL0    Cl42974   7.424   7.815   9.139  0.0784  0.0373 -0.6378
  319MOL0     C42975   6.165   7.596   9.182  0.2491  0.4039  1.0897
  319MOL0     C42976   6.031   7.560   9.201  0.0581 -0.8080  0.0434
  319MOL0     O42977   5.834   7.341   9.055 -0.7657  0.4521 -0.1465
  319MOL0     C42978   5.584   7.255   9.117  0.1097  0.7036 -0.2423
  319MOL0     C42979   5.443   7.225   9.113  0.5305  0.4053 -0.6544
  319MOL0     N42980   4.707   7.127   9.328 -0.1320 -0.9929 -0.1568
  319MOL0     N42981   4.688   7.010   9.369 -0.3299  0.6751 -0.7614
  319MOL0     C42982   4.851   5.919   9.484 -0.1963  0.2323  1.1199
  319MOL0     C42983   4.822   5.850   9.364  0.0628 -0.0899 -0.5785
  319MOL0     C42984   4.776   5.621   9.008  0.2176  0.6964 -0.1255
  319MOL0     C42985   4.727   5.723   8.925  0.7727 -0.5156  0.4258
  319MOL0     C42986   4.669   5.697   8.806 -0.1847  0.2479 -0.0046
  319MOL0     C42987   4.667   5.569   8.761  0.2219 -0.3475 -0.2042
  319MOL0     O42988   4.589   5.543   8.654 -0.3177 -0.1150 -0.0217
  319MOL0     C42989   4.509   5.424   8.668  0.2657  0.2842 -0.5497
  319MOL0     C42990   4.367   5.448   8.623  0.7567 -0.3556 -0.1042
  319MOL0     C42991   4.279   5.330   8.670 -0.6823  0.4930  0.0942
  319MOL0     C42992   4.130   5.332   8.624  0.3961 -0.3033 -0.3540
  319MOL0     C42993   4.058   5.454   8.664  0.0340 -0.1783  0.9213
  319MOL0     C42994   3.987   5.553   8.681 -0.7527  0.0373 -0.2402
  319MOL0     C42995   4.742   5.468   8.826  0.4516  0.0991 -0.0761
  319MOL0     C42996   4.788   5.486   8.956  0.0080  0.1064  0.3657
  319MOL0     C42997   4.853   5.371   9.024  0.0789  0.6596 -0.5279
  319MOL0     H42998   5.124   5.893   9.211  1.7055 -0.3217  1.3745
  319MOL0     H42999   5.159   6.033   9.413 -0.3773 -0.2217  5.5778
  319MOL0     H43000   5.144   6.125   9.734 -0.8672  0.6407  1.4650
  319MOL0     H43001   5.165   6.128   9.560  0.4973 -3.8692  0.3187
  319MOL0     H43002   5.105   6.346   9.646 -0.9291  0.4671  1.0747
  319MOL0     H43003   4.954   6.297   9.715  0.5084  5.3484 -0.4143
  319MOL0     H43004   4.852   6.331   9.519  0.9524  1.3388 -1.0191
  319MOL0     H43005   4.965   6.230   9.423  0.4030  2.4358 -2.2227
  319MOL0     H43006   5.121   6.458   9.462 -0.8697  1.3081 -0.9631
  319MOL0     H43007   5.035   6.394   9.324 -3.0957 -1.9799  0.1680
  319MOL0     H43008   4.819   6.543   9.416 -0.0734 -0.0719 -2.0709
  319MOL0     H43009   4.955   6.605   9.522  2.7435 -0.2746 -0.8165
  319MOL0     H43010   5.074   6.658   9.300 -0.0090 -3.8030 -2.4115
  319MOL0     H43011   4.936   6.582   9.225 -0.5054  0.7089  0.1192
  319MOL0     H43012   4.957   6.836   9.239  0.8860  1.2710  1.3526
  319MOL0     H43013   4.906   6.827   9.405  0.3690  0.1032 -0.9049
  319MOL0     H43014   4.730   6.718   9.175  0.7043 -3.2418  0.6872
  319MOL0     H43015   4.689   6.724   9.346  1.0283 -1.1612 -0.7036
  319MOL0     H43016   4.783   6.965   9.055  3.8193  1.4887  1.1392
  319MOL0     H43017   4.730   7.260   9.022  1.2357 -1.6383 -0.2877
  319MOL0     H43018   4.733   7.348   9.167 -1.7754  0.4466 -3.9140
  319MOL0     H43019   4.975   7.200   9.037  0.2128  0.6200 -1.6047
  319MOL0     H43020   4.957   7.370   9.046 -2.1691  1.2594  1.2728
  319MOL0     H43021   5.029   7.196   9.277  1.3324 -0.5591 -3.0616
  319MOL0     H43022   4.967   7.366   9.292  0.0420 -0.7745  1.3053
  319MOL0     H43023   5.212   7.359   9.282  2.3948  2.3635 -1.1286
  319MOL0     H43024   5.137   7.449   9.160  2.9157 -0.1196 -1.7830
  319MOL0     H43025   5.318   7.542   9.066  1.1427  1.3939 -1.0117
  319MOL0     H43026   5.564   7.591   9.078  1.3259 -0.5476 -3.9578
  319MOL0     H43027   5.892   7.673   8.911  1.3125 -0.3872 -0.4423
  319MOL0     H43028   6.143   7.734   8.873 -0.3843 -0.0653 -0.8311
  319MOL0     H43029   6.425   7.711   9.193  4.0211  1.8567  0.1736
  319MOL0     H43030   6.438   7.552   9.118 -2.1355  0.2565  1.0525
  319MOL0     H43031   6.579   7.609   8.966 -1.9740 -0.5687  0.6651
  319MOL0     H43032   6.544   7.783   8.954  3.1982 -2.7849 -3.6155
  319MOL0     H43033   6.685   7.815   9.165  1.8277  0.4753 -0.6671
  319MOL0     H43034   6.682   7.637   9.187 -0.3101 -1.3682 -1.0103
  319MOL0     H43035   6.789   7.811   8.942 -0.2536  1.0746  0.6400
  319MOL0     H43036   6.814   7.641   8.963 -2.7089  1.4546 -3.4109
  319MOL0     H43037   6.944   7.692   9.178  2.2224 -1.7952 -1.9568
  319MOL0     H43038   6.905   7.863   9.151  0.8269  0.9845 -1.2565
  319MOL0     H43039   7.055   7.694   8.939  1.2085  1.4786 -1.8133
  319MOL0     H43040   7.017   7.863   8.928  2.9135  4.5176  2.0429
  319MOL0     H43041   7.137   7.832   9.192  0.2567 -4.1327  0.9003
  319MOL0     H43042   7.180   7.925   9.056  3.1818  0.0688  1.2649
  319MOL0     H43043   7.263   7.647   9.156  1.6400 -0.6600  0.6714
  319MOL0     H43044   7.296   7.688   8.980 -2.5513  0.3712  0.8177
  319MOL0     H43045   6.242   7.572   9.254 -1.4673 -1.8482  2.2951
  319MOL0     H43046   6.008   7.510   9.294  0.5489  0.0332  0.6286
  319MOL0     H43047   5.645   7.170   9.144  0.3840  1.2978  1.0856
  319MOL0     H43048   5.413   7.133   9.162  1.0293 -0.3262 -1.6874
  319MOL0     H43049   4.770   5.935   9.554 -0.6779 -0.3769  0.7126
  319MOL0     H43050   4.728   5.797   9.375 -1.7179  2.7335 -1.3843
  319MOL0     H43051   4.698   5.815   8.974 -0.8877 -0.5846 -0.3825
  319MOL0     H43052   4.612   5.777   8.762  1.6002  2.1686  1.0010
  319MOL0     H43053   4.505   5.390   8.772  0.1702  0.0903 -0.6162
  319MOL0     H43054   4.552   5.339   8.614 -2.7202 -1.4964 -0.3485
  319MOL0     H43055   4.372   5.458   8.514  2.4440 -0.4759 -0.0700
  319MOL0     H43056   4.337   5.539   8.675  2.2790 -0.4860  1.0892
  319MOL0     H43057   4.289   5.318   8.778  0.1362 -1.8787 -0.1941
  319MOL0     H43058   4.325   5.237   8.638  1.0308  1.5627 -0.6959
  319MOL0     H43059   4.147   5.329   8.516  0.8043 -3.1263 -0.2754
  319MOL0     H43060   4.067   5.247   8.653 -1.7361  0.7881 -1.4646
  319MOL0     H43061   3.936   5.642   8.711 -2.1104 -1.6838  3.1716
  319MOL0     H43062   4.748   5.374   8.772 -1.2019  0.4799 -0.9766
  319MOL0     H43063   4.950   5.400   9.065  0.9751 -3.8049  1.0788
  319MOL0     H43064   4.789   5.325   9.100 -1.8344  0.8951 -1.9336
  319MOL0     H43065   4.870   5.290   8.952  0.7438  2.2346 -2.2149
  320MOL0     O43066   0.740   6.172   7.178 -0.4651 -0.0163 -0.1393
  320MOL0     C43067   0.780   6.165   7.065  0.2202  0.1617  1.7377
  320MOL0     O43068   0.722   6.097   6.956 -0.0749  0.4579  0.0365
  320MOL0     C43069   0.654   5.982   6.983  0.8593  0.4387  0.4030
  320MOL0     C43070   0.513   5.990   7.016 -0.1266 -0.8199  0.7806
  320MOL0     C43071   0.444   5.871   7.048  0.2906 -0.4365 -0.5212
  320MOL0     C43072   0.512   5.759   7.062 -1.4165  0.9933 -0.1252
  320MOL0     O43073   0.442   5.642   7.099  0.3224 -0.2542 -0.7062
  320MOL0     C43074   0.440   5.535   7.011  0.2122  0.3174 -0.1473
  320MOL0     C43075   0.327   5.445   7.041  0.1625  0.8463 -0.2735
  320MOL0     C43076   0.281   5.345   6.934  0.4759 -0.0169  0.0483
  320MOL0     C43077   0.344   5.200   6.939  0.6171 -0.2020  0.3583
  320MOL0     C43078   0.326   5.120   7.066 -0.1291  0.9572  0.5576
  320MOL0     C43079   0.186   5.083   7.104 -0.6585 -0.4448  0.8693
  320MOL0     C43080   0.123   4.994   6.996  0.5178 -0.5345 -0.0142
  320MOL0     C43081   0.023   4.899   7.037  0.1762  0.3824  0.2794
  320MOL0     N43082  -0.108   4.952   7.067  0.4504 -0.0747 -0.9048
  320MOL0     C43083  -0.218   4.926   6.996  0.7342 -0.3243  0.5730
  320MOL0     C43084  -0.319   4.995   7.064  0.7936  0.9033 -1.0975
  320MOL0     C43085  -0.460   5.009   7.003 -0.1963 -0.3439  0.2008
  320MOL0     C43086  -0.529   5.142   7.042  0.3059  0.1578  0.2886
  320MOL0     C43087  -0.669   5.143   6.986  0.0488  0.1833 -0.9131
  320MOL0     C43088  -0.754   5.266   7.036 -0.3052  0.0193 -1.4526
  320MOL0     O43089  -0.890   5.242   6.998 -0.5229  0.1521  1.0209
  320MOL0     C43090  -0.993   5.260   7.086  0.3463  0.0563 -0.4324
  320MOL0     C43091  -0.984   5.296   7.224  0.3369 -0.0570  0.3293
  320MOL0     C43092  -1.099   5.305   7.297 -0.6734 -0.4572  0.8736
  320MOL0     C43093  -1.228   5.273   7.262 -0.1737  0.5192 -0.5804
  320MOL0     C43094  -1.346   5.266   7.346 -0.4862  0.1325  0.6669
  320MOL0     O43095  -1.470   5.292   7.295 -0.9427 -0.0152  0.5470
  320MOL0     C43096  -1.577   5.297   7.376 -0.2563 -0.4241 -0.7541
  320MOL0     C43097  -1.579   5.359   7.505  0.4203  0.0630  0.4410
  320MOL0     C43098  -1.695   5.375   7.581 -0.8886 -0.6218 -0.0023
  320MOL0     C43099  -1.813   5.337   7.522  0.6658 -0.7814 -0.6065
  320MOL0     O43100  -1.921   5.361   7.612  0.3674 -0.1636  0.3156
  320MOL0     C43101  -2.047   5.283   7.592 -0.3898  0.7196  0.2020
  320MOL0     C43102  -2.172   5.380   7.563 -0.9237  0.1074  0.2631
  320MOL0     C43103  -2.276   5.301   7.496 -0.7552  0.3443  1.0347
  320MOL0     C43104  -2.406   5.386   7.467 -0.1381  0.6004  0.4277
  320MOL0     C43105  -2.519   5.284   7.436  0.0094  0.4854 -0.5875
  320MOL0     C43106  -2.623   5.360   7.355  0.1053  0.8111  0.2171
  320MOL0     C43107  -2.732   5.267   7.304 -0.0891  0.2382 -0.2759
  320MOL0     C43108  -2.828   5.221   7.412  0.7495 -0.3944 -0.0973
  320MOL0    Cl43109  -2.967   5.125   7.347  0.4194  0.1114  0.4411
  320MOL0     C43110  -1.815   5.269   7.398  0.2939 -0.0269  0.4092
  320MOL0     C43111  -1.693   5.242   7.329  1.0183  0.6226 -0.2940
  320MOL0     O43112  -1.323   5.243   7.462 -0.1312  0.0349 -0.4617
  320MOL0     C43113  -1.229   5.225   7.131  0.7073 -0.1691 -0.1534
  320MOL0     C43114  -1.122   5.215   7.041 -0.0545  0.0916 -1.3810
  320MOL0     N43115  -0.266   5.055   7.174  0.2789  0.7320  0.3563
  320MOL0     N43116  -0.144   5.020   7.182  0.3151  0.6807 -0.5259
  320MOL0     C43117   0.647   5.748   7.020  1.3944 -0.9748  0.0322
  320MOL0     C43118   0.716   5.857   6.976 -0.7683  0.2786 -0.4624
  320MOL0     C43119   0.889   6.261   7.033 -0.1831 -0.0343  0.3161
  320MOL0     C43120   0.864   6.397   7.047 -0.1163 -0.3826  0.6167
  320MOL0     C43121   0.952   6.493   7.000  0.0971  0.9040  1.0553
  320MOL0     C43122   1.075   6.454   6.948 -0.1507 -0.5724  0.0679
  320MOL0     O43123   1.172   6.539   6.909  0.5522  0.0051  0.6722
  320MOL0     C43124   1.154   6.681   6.942 -0.2227 -0.0482  1.1783
  320MOL0     C43125   1.274   6.764   6.909 -0.4278 -0.8357 -0.4871
  320MOL0     C43126   1.241   6.912   6.917  0.3276  0.3823 -0.5003
  320MOL0     C43127   1.366   6.993   6.934 -0.3351  0.1687 -0.1881
  320MOL0     C43128   1.352   7.135   6.898 -0.3173  0.0087 -0.3047
  320MOL0     C43129   1.312   7.247   6.869  0.0747  0.7156  0.0411
  320MOL0     C43130   1.103   6.320   6.924  0.7645  0.4071 -0.0514
  320MOL0     C43131   1.016   6.225   6.986  0.3383 -0.5957 -0.2087
  320MOL0     C43132   1.053   6.076   6.988  0.4082 -0.0802  0.0265
  320MOL0     H43133   0.458   6.084   7.010  0.0238 -0.7867 -0.3481
  320MOL0     H43134   0.337   5.880   7.063  0.1827 -0.0400 -1.4448
  320MOL0     H43135   0.442   5.569   6.907  2.6484 -0.4236 -0.4073
  320MOL0     H43136   0.536   5.484   7.024  0.5469  0.9035 -0.2683
  320MOL0     H43137   0.249   5.519   7.061  0.3779  0.9465  0.2133
  320MOL0     H43138   0.338   5.377   7.127  2.2904 -1.2954 -2.0923
  320MOL0     H43139   0.306   5.394   6.839  0.0290  0.4916  0.1832
  320MOL0     H43140   0.172   5.335   6.937  0.3814  0.9243  0.3028
  320MOL0     H43141   0.325   5.135   6.853  2.6464 -0.6623  0.2155
  320MOL0     H43142   0.452   5.211   6.927  0.6478 -1.1833 -0.2762
  320MOL0     H43143   0.394   5.040   7.035  1.2837  3.5850 -4.0470
  320MOL0     H43144   0.364   5.159   7.161 -1.3965  2.5983  0.4313
  320MOL0     H43145   0.201   5.024   7.195 -0.1003 -0.4848  0.7533
  320MOL0     H43146   0.137   5.177   7.133 -2.3157 -1.5435  1.8052
  320MOL0     H43147   0.205   4.934   6.954  0.5741 -0.8642  0.5598
  320MOL0     H43148   0.073   5.053   6.918 -0.6943  1.1358  1.9468
  320MOL0     H43149   0.002   4.840   6.947 -1.8383  1.9537 -0.3456
  320MOL0     H43150   0.060   4.840   7.121  2.0189  0.7950 -0.1979
  320MOL0     H43151  -0.225   4.880   6.898  1.6458 -4.9081  2.3907
  320MOL0     H43152  -0.458   5.019   6.894  1.5646  2.8770  0.3830
  320MOL0     H43153  -0.510   4.914   7.023  0.9807 -1.3211 -1.3092
  320MOL0     H43154  -0.534   5.147   7.151 -1.7016  0.6867  0.2225
  320MOL0     H43155  -0.472   5.228   7.005  0.4912 -0.3009 -0.5266
  320MOL0     H43156  -0.725   5.052   7.007 -1.2934  0.8026 -1.6646
  320MOL0     H43157  -0.655   5.167   6.880 -0.7222  1.5586 -0.7316
  320MOL0     H43158  -0.719   5.364   7.003 -0.4995  1.3355  1.9647
  320MOL0     H43159  -0.735   5.265   7.143 -0.8600  0.8172 -1.3420
  320MOL0     H43160  -0.900   5.338   7.279 -0.6267  1.5235  0.6525
  320MOL0     H43161  -1.093   5.324   7.404  0.1580 -5.8459  2.0728
  320MOL0     H43162  -1.490   5.393   7.558 -0.5797 -0.6218  2.6950
  320MOL0     H43163  -1.676   5.403   7.684 -0.5212  1.5288 -0.5892
  320MOL0     H43164  -2.040   5.218   7.504  1.2667 -0.2572  1.0139
  320MOL0     H43165  -2.066   5.214   7.674  1.6884 -0.0577  0.0832
  320MOL0     H43166  -2.214   5.425   7.654  0.6382 -2.4943  2.4252
  320MOL0     H43167  -2.141   5.451   7.486 -2.1529  0.6393  0.2273
  320MOL0     H43168  -2.240   5.257   7.403  1.2192 -0.8213  2.2863
  320MOL0     H43169  -2.295   5.206   7.545  1.1719 -2.9596 -3.8735
  320MOL0     H43170  -2.377   5.441   7.377 -0.7298  0.1451 -0.0449
  320MOL0     H43171  -2.437   5.454   7.547 -0.4463  0.3909  0.4863
  320MOL0     H43172  -2.575   5.257   7.526 -2.2798 -0.8464 -2.2851
  320MOL0     H43173  -2.492   5.188   7.390 -0.9108  0.7402 -1.7105
  320MOL0     H43174  -2.672   5.442   7.409 -0.4209  0.4442  0.3000
  320MOL0     H43175  -2.588   5.409   7.264 -1.0824 -0.8798 -1.2245
  320MOL0     H43176  -2.683   5.181   7.257  0.1900 -0.2885  0.9342
  320MOL0     H43177  -2.778   5.330   7.227  1.0591  0.3513 -0.8920
  320MOL0     H43178  -2.778   5.167   7.492  0.3530 -0.4921  0.0852
  320MOL0     H43179  -2.857   5.316   7.458  1.0952 -0.9758  1.3429
  320MOL0     H43180  -1.907   5.241   7.348  0.8525 -0.6663 -0.2788
  320MOL0     H43181  -1.694   5.204   7.227 -2.1277  0.4113 -0.2959
  320MOL0     H43182  -1.320   5.188   7.086  0.0699  0.7265  0.3802
  320MOL0     H43183  -1.129   5.171   6.942 -2.5317 -1.2444 -0.6723
  320MOL0     H43184   0.697   5.652   7.023  0.9720 -1.2297  3.8700
  320MOL0     H43185   0.816   5.858   6.934  0.1779  2.7760  1.5100
  320MOL0     H43186   0.763   6.417   7.080 -1.8042 -0.1759 -3.9771
  320MOL0     H43187   0.940   6.601   6.995  2.3837  1.2158  0.8624
  320MOL0     H43188   1.156   6.681   7.051 -1.1124  0.3929  1.2023
  320MOL0     H43189   1.065   6.724   6.895  0.2444  1.5126  1.6511
  320MOL0     H43190   1.309   6.731   6.811  3.8100  0.5145  0.3505
  320MOL0     H43191   1.356   6.739   6.977  2.3208  4.2197 -1.4697
  320MOL0     H43192   1.175   6.928   7.003  0.2117 -2.1851 -0.0351
  320MOL0     H43193   1.177   6.937   6.832 -1.5209 -1.8663  0.1226
  320MOL0     H43194   1.408   6.996   7.035  3.1793 -1.3474 -1.4578
  320MOL0     H43195   1.447   6.952   6.874 -1.0845 -0.2053 -0.9617
  320MOL0     H43196   1.263   7.340   6.851  2.0568  1.8781  0.3828
  320MOL0     H43197   1.200   6.291   6.886  0.6781 -1.2732  0.9068
  320MOL0     H43198   1.049   6.022   6.893  1.7856 -0.8387  0.3855
  320MOL0     H43199   1.158   6.068   7.015  0.2288  4.3036  2.9514
  320MOL0     H43200   0.988   6.017   7.053  0.0871 -0.2482 -0.4384
  321MOL0     O43201   4.419   2.860   0.551 -0.3795  0.1420  0.3306
  321MOL0     C43202   4.447   2.977   0.520  0.0027 -0.0229 -0.7809
  321MOL0     O43203   4.356   3.077   0.488  0.0777  0.7139 -0.2051
  321MOL0     C43204   4.232   3.054   0.541 -0.5054  0.3580  0.2984
  321MOL0     C43205   4.117   3.054   0.461 -0.2561 -0.7978  0.0835
  321MOL0     C43206   3.988   3.031   0.519 -0.5108 -0.7032  0.3685
  321MOL0     C43207   3.977   3.012   0.654  0.2799 -0.3026 -0.1918
  321MOL0     O43208   3.860   2.984   0.727 -0.1060 -0.1126  0.5133
  321MOL0     C43209   3.734   3.004   0.658 -0.1641 -0.1163  0.0472
  321MOL0     C43210   3.620   2.977   0.750 -0.6778  1.0135  0.8171
  321MOL0     C43211   3.521   3.097   0.752 -0.4286  0.0863 -0.6831
  321MOL0     C43212   3.418   3.073   0.858 -0.4213 -0.1307  0.1120
  321MOL0     C43213   3.299   3.171   0.843 -0.0172  0.7451 -0.3068
  321MOL0     C43214   3.228   3.175   0.979 -0.7119  0.3737 -0.2184
  321MOL0     C43215   3.094   3.239   0.968 -0.9392 -0.8768  0.3242
  321MOL0     C43216   3.029   3.268   1.106  0.0998 -0.0225 -0.0035
  321MOL0     N43217   2.986   3.142   1.170 -0.3596 -0.8752 -0.2793
  321MOL0     C43218   2.859   3.092   1.153 -0.9775 -0.1225 -0.5466
  321MOL0     C43219   2.864   2.973   1.227 -0.0400 -0.4144 -0.0483
  321MOL0     C43220   2.760   2.875   1.245  0.6906 -0.5587 -0.5413
  321MOL0     C43221   2.627   2.928   1.199 -0.4094 -0.2231  0.2542
  321MOL0     C43222   2.506   2.849   1.253  1.2417  0.0308 -0.3377
  321MOL0     C43223   2.383   2.848   1.149 -0.0815 -0.2604 -0.9428
  321MOL0     O43224   2.337   2.978   1.113  0.0853 -0.1714  0.5517
  321MOL0     C43225   2.211   2.991   1.071  0.5919 -0.0817  0.7240
  321MOL0     C43226   2.158   3.113   1.042  0.2472 -0.1375 -0.3928
  321MOL0     C43227   2.035   3.136   0.994  0.0330 -1.3631 -0.2811
  321MOL0     C43228   1.950   3.032   0.961 -0.0414 -0.4202 -0.4469
  321MOL0     C43229   1.820   3.060   0.904  0.2950 -0.4587  0.0541
  321MOL0     O43230   1.766   3.181   0.948  0.3706  0.0445 -0.1802
  321MOL0     C43231   1.632   3.214   0.917 -0.2910 -0.3828 -0.1094
  321MOL0     C43232   1.606   3.353   0.920 -0.2012  0.2676 -0.9227
  321MOL0     C43233   1.478   3.408   0.904  0.0704  0.3329  0.1975
  321MOL0     C43234   1.374   3.314   0.902 -0.0905 -0.5911  0.6338
  321MOL0     O43235   1.238   3.351   0.908  0.2422  0.6463  0.1703
  321MOL0     C43236   1.206   3.489   0.909  0.3292 -0.0131 -0.4630
  321MOL0     C43237   1.050   3.512   0.918 -0.5844 -0.2372 -0.3663
  321MOL0     C43238   0.961   3.446   0.810 -0.2646  0.7116 -0.5554
  321MOL0     C43239   0.978   3.498   0.667 -0.4149  0.4725  0.3069
  321MOL0     C43240   0.978   3.384   0.562  0.5685  0.2730 -0.2785
  321MOL0     C43241   1.108   3.297   0.559  0.4447 -0.0778  0.6966
  321MOL0     C43242   1.232   3.368   0.509 -0.3242 -0.6362 -0.0925
  321MOL0     C43243   1.359   3.280   0.499  0.3206  0.2867 -0.8269
  321MOL0    Cl43244   1.484   3.370   0.410  0.3360  0.5783 -0.1900
  321MOL0     C43245   1.393   3.178   0.891 -0.7550 -0.1661  0.4402
  321MOL0     C43246   1.526   3.123   0.904  0.6197 -0.4886  0.5519
  321MOL0     O43247   1.776   2.991   0.813 -0.0819 -0.9796  0.3307
  321MOL0     C43248   1.996   2.904   0.999 -0.3703  0.4941 -0.6184
  321MOL0     C43249   2.123   2.883   1.045 -0.3211 -0.5064 -0.0298
  321MOL0     N43250   2.995   2.954   1.276  0.2082 -0.1660 -0.5832
  321MOL0     N43251   3.064   3.054   1.240 -0.5324  0.5977 -0.0474
  321MOL0     C43252   4.090   3.000   0.734 -0.1468 -0.4115  0.8149
  321MOL0     C43253   4.212   3.018   0.674  0.3227  0.4021  0.1314
  321MOL0     C43254   4.588   3.009   0.487 -0.2716 -0.8726  0.2667
  321MOL0     C43255   4.619   3.110   0.386 -0.3867 -0.1980 -0.9052
  321MOL0     C43256   4.746   3.131   0.347 -0.2636 -0.1907 -0.9217
  321MOL0     C43257   4.855   3.067   0.406 -0.9060 -0.9668 -0.4057
  321MOL0     O43258   4.978   3.097   0.347  0.9021 -0.0234 -0.6188
  321MOL0     C43259   5.084   3.025   0.408 -0.3343 -0.4067  0.2587
  321MOL0     C43260   5.216   3.054   0.355 -0.6795 -0.8063 -0.7359
  321MOL0     C43261   5.325   2.995   0.448 -0.3269  0.6102 -0.5362
  321MOL0     C43262   5.472   3.034   0.420  1.0862 -0.1568 -0.4547
  321MOL0     C43263   5.490   3.177   0.376  0.0339  0.0074 -0.7684
  321MOL0     C43264   5.515   3.296   0.337  0.4064 -0.0777 -0.2993
  321MOL0     C43265   4.831   2.985   0.513 -1.0360  0.5771  0.0314
  321MOL0     C43266   4.701   2.956   0.553 -0.2306  0.4381  0.6824
  321MOL0     C43267   4.679   2.872   0.677  0.2392 -0.0265  1.0001
  321MOL0     H43268   4.124   3.064   0.353  0.7888  1.5155  0.2942
  321MOL0     H43269   3.906   3.029   0.448  1.2057  1.1056 -1.8111
  321MOL0     H43270   3.733   3.110   0.630  0.8863  0.3320  1.5724
  321MOL0     H43271   3.720   2.937   0.573 -2.2957  0.0480  0.2052
  321MOL0     H43272   3.654   2.942   0.848 -0.4825 -1.0477  0.0539
  321MOL0     H43273   3.565   2.898   0.698  1.4757  1.3599 -2.2419
  321MOL0     H43274   3.485   3.113   0.649 -1.6752 -1.4412 -0.5220
  321MOL0     H43275   3.567   3.190   0.786 -0.0870 -0.9158  1.8002
  321MOL0     H43276   3.387   2.969   0.851  2.6403 -1.0969 -0.7750
  321MOL0     H43277   3.463   3.087   0.957 -0.3180 -0.6304  0.1350
  321MOL0     H43278   3.328   3.271   0.810  2.5758  0.0716 -0.3366
  321MOL0     H43279   3.240   3.120   0.767  1.4923 -3.0302  0.8040
  321MOL0     H43280   3.220   3.075   1.023 -0.0742  1.1107  1.6661
  321MOL0     H43281   3.296   3.242   1.032  0.9309  0.0918 -1.9003
  321MOL0     H43282   3.021   3.174   0.919  1.7800 -3.3418 -0.7207
  321MOL0     H43283   3.110   3.331   0.912  0.9931 -0.9706  0.6716
  321MOL0     H43284   3.105   3.318   1.167  0.0519  1.5213 -1.1327
  321MOL0     H43285   2.947   3.340   1.097  2.3692  2.4643 -2.7035
  321MOL0     H43286   2.769   3.131   1.107 -1.1250 -0.4871 -0.5704
  321MOL0     H43287   2.786   2.783   1.191  2.6049  0.0320 -0.7185
  321MOL0     H43288   2.757   2.846   1.350  0.8053 -1.3837 -0.7563
  321MOL0     H43289   2.598   3.034   1.206 -1.5910 -0.4798 -0.5252
  321MOL0     H43290   2.629   2.908   1.091  1.1151  2.1350 -0.2419
  321MOL0     H43291   2.473   2.895   1.346 -0.2449  1.2335 -1.4013
  321MOL0     H43292   2.535   2.747   1.278 -0.4614 -0.3966  0.0309
  321MOL0     H43293   2.304   2.787   1.194 -0.3298 -0.1142 -1.1711
  321MOL0     H43294   2.403   2.798   1.054 -1.7572 -0.6398 -1.1293
  321MOL0     H43295   2.214   3.204   1.060  0.0227  1.0966 -4.8250
  321MOL0     H43296   1.999   3.237   0.977  0.0845 -0.9612  1.7150
  321MOL0     H43297   1.686   3.424   0.934 -1.2693  1.2036  0.8219
  321MOL0     H43298   1.475   3.516   0.896  0.1904  0.6846  3.3976
  321MOL0     H43299   1.247   3.542   0.996  0.0223 -1.6817  0.7406
  321MOL0     H43300   1.243   3.534   0.817  0.5664  0.2842 -0.2268
  321MOL0     H43301   1.031   3.480   1.021 -1.2318  1.9312  0.2604
  321MOL0     H43302   1.027   3.619   0.914 -0.3231 -0.2117 -2.4083
  321MOL0     H43303   0.981   3.339   0.821 -0.2845  0.6937 -0.6860
  321MOL0     H43304   0.859   3.455   0.848  0.8149  0.0172  2.8874
  321MOL0     H43305   1.069   3.557   0.657 -0.5537  1.1479  2.4841
  321MOL0     H43306   0.897   3.568   0.642  0.3088  1.9884  1.9854
  321MOL0     H43307   0.969   3.429   0.463 -3.3611 -0.3186 -0.3401
  321MOL0     H43308   0.893   3.316   0.569  0.3483  0.7208  2.5041
  321MOL0     H43309   1.124   3.259   0.660  0.7679 -1.3872  0.1712
  321MOL0     H43310   1.090   3.220   0.484  0.7344  0.3190  0.2173
  321MOL0     H43311   1.244   3.458   0.571  1.3646  2.0380 -3.8862
  321MOL0     H43312   1.216   3.399   0.405 -0.2650 -0.4945 -0.0602
  321MOL0     H43313   1.402   3.260   0.598  2.5421 -0.3572 -1.8423
  321MOL0     H43314   1.346   3.179   0.457 -0.8321 -0.4914  1.2326
  321MOL0     H43315   1.307   3.112   0.894 -1.0749  0.2428  0.3228
  321MOL0     H43316   1.543   3.017   0.915  3.9154  0.1749  3.6465
  321MOL0     H43317   1.931   2.818   0.987  0.3100  0.0188 -0.9689
  321MOL0     H43318   2.149   2.779   1.061 -3.2634 -1.3436 -0.0845
  321MOL0     H43319   4.097   2.987   0.842  1.9615 -1.3855  0.6108
  321MOL0     H43320   4.299   3.018   0.738  1.7945  2.8358 -1.6973
  321MOL0     H43321   4.544   3.159   0.326  0.4021  0.2354 -1.5650
  321MOL0     H43322   4.772   3.203   0.271 -0.1505  2.1841  1.2186
  321MOL0     H43323   5.071   2.918   0.390 -0.0130 -0.2566 -0.9325
  321MOL0     H43324   5.077   3.045   0.515  2.1784 -1.9892  0.8120
  321MOL0     H43325   5.233   3.160   0.373 -1.7813 -0.9580  1.5762
  321MOL0     H43326   5.233   3.018   0.253  0.6835 -0.5831 -0.6057
  321MOL0     H43327   5.317   2.886   0.442 -2.2244  0.7236 -0.6514
  321MOL0     H43328   5.301   3.020   0.552 -1.4117 -0.7720 -0.4271
  321MOL0     H43329   5.543   3.013   0.501  0.5890  2.7362  0.8391
  321MOL0     H43330   5.503   2.973   0.334 -0.3830  0.1674 -1.2461
  321MOL0     H43331   5.540   3.388   0.289 -0.7953  1.6988  2.2895
  321MOL0     H43332   4.905   2.924   0.563 -1.2086 -0.6275 -1.1267
  321MOL0     H43333   4.637   2.943   0.750  0.6358  1.0971  0.1691
  321MOL0     H43334   4.606   2.793   0.662  0.5707 -0.4171  1.4084
  321MOL0     H43335   4.772   2.826   0.712 -0.9601 -3.2211  0.3406
  322MOL0     O43336   3.274   6.893   7.474  0.4395  0.2119 -0.0250
  322MOL0     C43337   3.191   6.808   7.500 -0.4037 -0.0959 -0.6487
  322MOL0     O43338   3.208   6.704   7.596  0.2743  0.0596 -0.2624
  322MOL0     C43339   3.317   6.710   7.682 -0.2392  0.2307  0.2390
  322MOL0     C43340   3.428   6.629   7.660 -0.1678  0.1031 -0.9326
  322MOL0     C43341   3.543   6.637   7.743 -0.5179 -0.5566 -0.0798
  322MOL0     C43342   3.557   6.731   7.847 -0.6093  0.2401  0.1085
  322MOL0     O43343   3.668   6.740   7.923 -0.1008 -0.3311 -0.7504
  322MOL0     C43344   3.789   6.670   7.894 -0.5436  0.5556 -0.0395
  322MOL0     C43345   3.889   6.714   7.999 -0.1946 -0.3089  0.8503
  322MOL0     C43346   3.866   6.653   8.137 -0.3766  0.5193  0.5482
  322MOL0     C43347   3.961   6.718   8.233 -0.0900  0.0694  0.9790
  322MOL0     C43348   3.991   6.634   8.353 -0.9673  0.5040 -0.1869
  322MOL0     C43349   4.078   6.510   8.320 -0.0674  0.4151 -0.3735
  322MOL0     C43350   4.208   6.547   8.247  0.7358 -0.4203 -0.4265
  322MOL0     C43351   4.287   6.418   8.239  0.5547  0.4848 -0.6560
  322MOL0     N43352   4.424   6.432   8.188 -0.0723  0.0237  0.8943
  322MOL0     C43353   4.466   6.418   8.059 -0.5226 -0.6051  0.5827
  322MOL0     C43354   4.583   6.482   8.053  0.0551  0.8530  0.0131
  322MOL0     C43355   4.668   6.503   7.927 -0.7453  0.3763  0.4006
  322MOL0     C43356   4.796   6.413   7.932  0.7129 -0.3908  0.3221
  322MOL0     C43357   4.757   6.266   7.906  0.0047  0.2376 -0.4197
  322MOL0     C43358   4.886   6.174   7.910 -0.4335  0.4855 -0.3691
  322MOL0     O43359   4.981   6.193   7.803 -0.1268 -0.0330  0.0484
  322MOL0     C43360   5.117   6.185   7.823  0.8684  1.3129 -0.0200
  322MOL0     C43361   5.198   6.225   7.717 -0.8149 -0.0320 -0.9527
  322MOL0     C43362   5.334   6.239   7.741  1.0469  0.4646 -0.2567
  322MOL0     C43363   5.396   6.187   7.853  0.0712  1.0000 -0.4662
  322MOL0     C43364   5.538   6.187   7.860 -0.6661  0.0479  0.0443
  322MOL0     O43365   5.604   6.137   7.971 -0.5682 -0.0247  0.0243
  322MOL0     C43366   5.737   6.085   7.970  0.9114 -0.2343  0.4723
  322MOL0     C43367   5.821   6.086   8.080  0.5841  0.4490 -0.9413
  322MOL0     C43368   5.945   6.033   8.075 -0.3337 -0.1356  0.4533
  322MOL0     C43369   6.003   5.995   7.958 -1.0522 -0.4569 -0.2390
  322MOL0     O43370   6.123   5.937   7.951  0.1303  0.2731 -0.5987
  322MOL0     C43371   6.236   6.015   7.992  0.6634 -0.0216  1.1947
  322MOL0     C43372   6.256   6.137   7.889 -0.8092  0.8946 -0.2898
  322MOL0     C43373   6.367   6.231   7.931  0.3022 -0.0087  1.1691
  322MOL0     C43374   6.300   6.353   7.991 -0.6914 -0.8632 -0.9996
  322MOL0     C43375   6.408   6.467   8.014 -0.4217 -0.3364  0.3574
  322MOL0     C43376   6.467   6.447   8.156  0.4419  1.5707  0.4723
  322MOL0     C43377   6.555   6.566   8.202  0.0231  0.1431  0.7299
  322MOL0     C43378   6.644   6.523   8.313  0.3589 -0.0397  0.2008
  322MOL0    Cl43379   6.738   6.675   8.363  0.3611  0.6338 -0.4577
  322MOL0     C43380   5.924   5.988   7.842 -0.0115 -0.0387  0.3446
  322MOL0     C43381   5.794   6.039   7.847  0.6039  0.3668 -0.6432
  322MOL0     O43382   5.595   6.232   7.762  0.0500  0.1333  0.2222
  322MOL0     C43383   5.310   6.135   7.954  0.0932 -0.8134 -0.1894
  322MOL0     C43384   5.175   6.132   7.941  0.7299  0.6278  0.8957
  322MOL0     N43385   4.618   6.518   8.187 -0.4024 -0.7556  0.2996
  322MOL0     N43386   4.521   6.485   8.259 -0.0841 -0.7137 -0.3900
  322MOL0     C43387   3.454   6.816   7.863  0.7071 -0.3397 -0.1396
  322MOL0     C43388   3.330   6.805   7.788  0.6278 -0.9325 -0.0025
  322MOL0     C43389   3.060   6.796   7.426  0.7194 -0.1002  0.6188
  322MOL0     C43390   2.979   6.680   7.449  0.1191 -0.9252 -0.7822
  322MOL0     C43391   2.860   6.657   7.374 -1.6163 -0.2794  0.3557
  322MOL0     C43392   2.824   6.739   7.270 -0.4269  0.1777 -1.0221
  322MOL0     O43393   2.718   6.733   7.186  0.0011  0.2322 -0.1013
  322MOL0     C43394   2.633   6.624   7.194 -0.3704  0.0270  0.8098
  322MOL0     C43395   2.533   6.632   7.303  0.5855  0.3708  0.1756
  322MOL0     C43396   2.440   6.771   7.304 -1.1359  0.2257  0.3168
  322MOL0     C43397   2.338   6.778   7.192 -0.5422  0.3263  0.0605
  322MOL0     C43398   2.232   6.862   7.227 -0.0880  0.3713 -0.3140
  322MOL0     C43399   2.135   6.925   7.252 -0.2172 -0.2737  0.1160
  322MOL0     C43400   2.910   6.848   7.244 -0.5466  0.0513 -0.6650
  322MOL0     C43401   3.022   6.877   7.317  0.2165  1.3713 -0.3338
  322MOL0     C43402   3.116   6.977   7.257  0.2245  0.3595  0.6710
  322MOL0     H43403   3.436   6.555   7.582 -1.0214  1.1083 -2.0065
  322MOL0     H43404   3.620   6.563   7.723 -0.2327 -0.2645 -0.0510
  322MOL0     H43405   3.768   6.564   7.912 -0.5889  0.4236 -0.8226
  322MOL0     H43406   3.827   6.694   7.794 -0.2535 -0.2555 -0.1321
  322MOL0     H43407   3.885   6.821   8.016 -2.9507  0.0070 -1.0794
  322MOL0     H43408   3.989   6.688   7.964 -0.5456 -1.1551  0.4380
  322MOL0     H43409   3.885   6.547   8.122  3.5772  1.2971 -1.0312
  322MOL0     H43410   3.771   6.673   8.187 -0.2542  0.2873  0.8791
  322MOL0     H43411   4.050   6.748   8.179 -0.8927 -1.1856 -1.1847
  322MOL0     H43412   3.917   6.815   8.257 -0.4160  0.2948 -0.4401
  322MOL0     H43413   4.042   6.700   8.424 -1.1860 -1.2189  1.6356
  322MOL0     H43414   3.897   6.603   8.399 -1.7108  0.7523 -1.4988
  322MOL0     H43415   4.106   6.470   8.417 -0.6368  1.5848  0.2932
  322MOL0     H43416   4.011   6.443   8.265  1.3665  1.1944 -3.2651
  322MOL0     H43417   4.262   6.621   8.306 -1.3968  2.1695 -1.5410
  322MOL0     H43418   4.188   6.574   8.143  1.8311  0.3509 -0.4528
  322MOL0     H43419   4.287   6.360   8.332 -1.7313 -3.3254 -2.7921
  322MOL0     H43420   4.240   6.347   8.172  1.1511  0.3234 -0.9133
  322MOL0     H43421   4.406   6.375   7.979 -1.7370  0.6028  0.7993
  322MOL0     H43422   4.603   6.485   7.841 -3.1614  2.7074  1.5955
  322MOL0     H43423   4.703   6.605   7.912  3.3726 -0.8397  0.4559
  322MOL0     H43424   4.853   6.449   7.846  0.3090 -3.0089 -1.1452
  322MOL0     H43425   4.853   6.423   8.025  0.4993  1.3196  0.2961
  322MOL0     H43426   4.697   6.265   7.814 -1.1177 -1.8184  0.2724
  322MOL0     H43427   4.700   6.227   7.990 -1.0446 -1.0997 -1.6909
  322MOL0     H43428   4.852   6.070   7.904 -0.5625  0.3910  1.5130
  322MOL0     H43429   4.924   6.177   8.012 -2.3007 -0.4861  0.4001
  322MOL0     H43430   5.150   6.263   7.628  0.8632 -1.8987 -2.7476
  322MOL0     H43431   5.391   6.290   7.663 -0.3081  0.4338 -1.2995
  322MOL0     H43432   5.786   6.104   8.181 -0.1821 -0.1387 -1.0949
  322MOL0     H43433   6.000   6.024   8.168 -2.6791  0.1205  1.9490
  322MOL0     H43434   6.208   6.054   8.090 -1.2884  0.7857  0.3565
  322MOL0     H43435   6.326   5.954   8.002 -1.0013 -2.5458  1.5841
  322MOL0     H43436   6.290   6.101   7.792  2.0629 -0.4726  1.1003
  322MOL0     H43437   6.158   6.185   7.877 -1.3519  0.0071  0.4762
  322MOL0     H43438   6.426   6.168   7.998 -0.7935 -1.4765  0.7899
  322MOL0     H43439   6.431   6.254   7.844  1.0766  2.1400  2.2167
  322MOL0     H43440   6.244   6.326   8.081 -1.8449  2.3701 -0.6221
  322MOL0     H43441   6.229   6.396   7.920 -1.7643  1.0516  1.1125
  322MOL0     H43442   6.354   6.562   8.005  1.8439  1.0081  0.2717
  322MOL0     H43443   6.490   6.460   7.942 -1.3025  0.5111 -0.7614
  322MOL0     H43444   6.382   6.432   8.224 -2.3180  4.1023 -2.0871
  322MOL0     H43445   6.527   6.356   8.155  0.5253  1.6129  1.0381
  322MOL0     H43446   6.497   6.656   8.224 -0.9745 -0.0352 -1.0015
  322MOL0     H43447   6.613   6.603   8.117 -3.5724  0.2249 -1.8896
  322MOL0     H43448   6.590   6.477   8.396 -1.1222 -0.7280 -1.0779
  322MOL0     H43449   6.718   6.456   8.268 -1.8451 -2.1489 -0.4885
  322MOL0     H43450   5.970   5.950   7.752 -0.7899 -0.4551  0.1096
  322MOL0     H43451   5.731   6.039   7.758 -1.6810 -2.9237  0.7385
  322MOL0     H43452   5.350   6.077   8.037 -1.2473 -3.2321 -1.1114
  322MOL0     H43453   5.107   6.104   8.020  0.6867 -0.1260  0.6006
  322MOL0     H43454   3.461   6.886   7.945 -2.8418  2.2705 -1.8237
  322MOL0     H43455   3.251   6.877   7.806 -0.6232 -1.4568 -2.8801
  322MOL0     H43456   3.013   6.607   7.523  1.5454  1.8436  1.5103
  322MOL0     H43457   2.803   6.567   7.395  0.5590 -1.1836  2.9765
  322MOL0     H43458   2.689   6.530   7.198  1.2644  0.9251  0.3785
  322MOL0     H43459   2.586   6.608   7.096  0.7973 -0.5168  0.3126
  322MOL0     H43460   2.586   6.628   7.399  0.7194 -0.0223  0.0866
  322MOL0     H43461   2.460   6.552   7.287 -2.3605  3.5047 -4.5357
  322MOL0     H43462   2.499   6.864   7.299 -1.2711  0.2715 -0.6458
  322MOL0     H43463   2.379   6.781   7.394 -2.0873 -1.4708 -0.0966
  322MOL0     H43464   2.385   6.812   7.099  1.3006 -0.1093  0.7890
  322MOL0     H43465   2.296   6.678   7.175 -0.9856  0.3279  1.0891
  322MOL0     H43466   2.053   6.980   7.292  0.5017  1.3856 -0.5991
  322MOL0     H43467   2.887   6.909   7.158 -1.8853 -0.7461 -0.9174
  322MOL0     H43468   3.139   7.049   7.335 -0.0229 -0.1446  1.2210
  322MOL0     H43469   3.199   6.924   7.210  0.2411  1.0184 -0.0627
  322MOL0     H43470   3.062   7.032   7.179 -3.0330 -1.3426  1.5105
  323MOL0     O43471   7.292   2.050   7.002  0.1593  0.5532 -0.0458
  323MOL0     C43472   7.245   2.029   6.886  1.3844 -0.1301  0.1237
  323MOL0     O43473   7.315   2.012   6.765 -0.5874 -0.4081  0.0602
  323MOL0     C43474   7.446   2.012   6.774 -0.2230  0.0190  1.3088
  323MOL0     C43475   7.509   2.130   6.817 -0.3269 -0.4640  0.5596
  323MOL0     C43476   7.646   2.128   6.825  1.1778 -0.6166  0.0685
  323MOL0     C43477   7.722   2.023   6.781 -0.5383 -0.1442 -0.9743
  323MOL0     O43478   7.859   2.043   6.785 -0.8677  0.0497 -0.2686
  323MOL0     C43479   7.945   1.977   6.686  0.4836  0.1491  0.0067
  323MOL0     C43480   8.078   2.049   6.654 -0.4052  0.0103 -0.0812
  323MOL0     C43481   8.168   2.049   6.780 -0.3688  0.7892  0.0432
  323MOL0     C43482   8.295   2.139   6.765  0.1119  0.5880  0.0966
  323MOL0     C43483   8.397   2.090   6.874  0.0612  0.0563 -0.2393
  323MOL0     C43484   8.520   2.175   6.853 -0.0430 -0.5638 -0.0199
  323MOL0     C43485   8.617   2.161   6.959  0.0564  0.7995 -0.8011
  323MOL0     C43486   8.725   2.263   6.958  0.3785  0.0988 -0.1635
  323MOL0     N43487   8.832   2.252   7.059 -0.6275  0.2101  0.3117
  323MOL0     C43488   8.925   2.155   7.080 -0.5898 -0.1847 -1.2187
  323MOL0     C43489   9.002   2.196   7.189 -0.6829 -0.2589 -0.3617
  323MOL0     C43490   9.115   2.111   7.257 -0.0858 -0.5743  0.3846
  323MOL0     C43491   9.245   2.154   7.199 -0.2760 -0.7064  0.1356
  323MOL0     C43492   9.275   2.297   7.165 -0.4120 -0.8157 -0.5451
  323MOL0     C43493   9.417   2.316   7.125 -0.5527  0.1626 -0.4317
  323MOL0     O43494   9.496   2.294   7.244  0.0161  1.0458  0.4486
  323MOL0     C43495   9.631   2.302   7.237 -0.5589 -0.1009 -0.4972
  323MOL0     C43496   9.695   2.326   7.355 -0.0265  0.1454 -0.0225
  323MOL0     C43497   9.835   2.337   7.365  0.5287  0.4312  0.3991
  323MOL0     C43498   9.918   2.331   7.245  0.8654 -0.0988 -0.0171
  323MOL0     C43499  10.060   2.343   7.244 -0.6413 -0.0406 -0.6105
  323MOL0     O43500  10.127   2.346   7.119 -0.0302  0.2883 -0.0563
  323MOL0     C43501  10.260   2.341   7.136 -0.3926 -0.2783 -0.1458
  323MOL0     C43502  10.336   2.459   7.120 -0.0843 -0.1203  0.0308
  323MOL0     C43503  10.477   2.459   7.108  0.4867 -0.4488 -0.7659
  323MOL0     C43504  10.541   2.337   7.126  0.9487  0.1348  0.9834
  323MOL0     O43505  10.682   2.335   7.140 -0.0411  0.9479  0.3421
  323MOL0     C43506  10.758   2.207   7.137 -0.1927  0.1271 -0.4304
  323MOL0     C43507  10.907   2.234   7.152 -0.0824 -0.3157 -0.7258
  323MOL0     C43508  10.961   2.277   7.015  0.1609 -0.8543  0.4446
  323MOL0     C43509  11.119   2.274   7.016  0.2903  0.2621  0.1195
  323MOL0     C43510  11.171   2.325   6.883  0.1288  0.6935  0.2688
  323MOL0     C43511  11.316   2.355   6.897  0.1671  0.8235  0.3012
  323MOL0     C43512  11.371   2.409   6.765  0.5167  1.3842  0.4562
  323MOL0     C43513  11.508   2.343   6.728  0.0547  0.2368 -0.0121
  323MOL0    Cl43514  11.521   2.168   6.739 -0.5572 -0.2511  0.4583
  323MOL0     C43515  10.461   2.216   7.139  0.2970  0.4616  0.1466
  323MOL0     C43516  10.322   2.223   7.158 -0.1041  0.1178 -0.0772
  323MOL0     O43517  10.116   2.344   7.356 -0.0878  0.8440 -0.2496
  323MOL0     C43518   9.850   2.306   7.125  0.4478  0.7528 -0.1910
  323MOL0     C43519   9.708   2.302   7.117  0.5595 -0.6369 -1.1559
  323MOL0     N43520   8.946   2.318   7.230 -0.9516  0.1320 -0.9090
  323MOL0     N43521   8.849   2.340   7.157  0.8164  0.1631  0.3274
  323MOL0     C43522   7.656   1.915   6.722 -0.0521  0.8978 -0.1354
  323MOL0     C43523   7.519   1.908   6.720 -0.0159 -0.4432 -0.2708
  323MOL0     C43524   7.092   2.030   6.862  0.3062  0.4633 -0.9931
  323MOL0     C43525   7.035   2.045   6.734 -0.1531  0.2462 -0.0510
  323MOL0     C43526   6.896   2.041   6.712 -0.1333  0.5288 -0.1253
  323MOL0     C43527   6.803   2.016   6.804  0.4045  0.1147 -0.1319
  323MOL0     O43528   6.666   2.008   6.787 -0.2576  0.7443  1.0185
  323MOL0     C43529   6.602   2.061   6.675  0.0395  1.2387  0.1691
  323MOL0     C43530   6.450   2.054   6.692 -1.2397  0.0625 -0.3716
  323MOL0     C43531   6.392   2.126   6.572  0.3943 -0.4684  0.3763
  323MOL0     C43532   6.240   2.145   6.575 -0.1777 -0.2672 -0.4045
  323MOL0     C43533   6.171   2.018   6.566 -0.4563  0.2882 -0.0735
  323MOL0     C43534   6.121   1.914   6.529 -0.5064  0.1243 -0.1953
  323MOL0     C43535   6.849   2.015   6.935 -0.4365  0.3061  0.4708
  323MOL0     C43536   6.985   2.029   6.960 -0.0668 -0.6976 -0.0239
  323MOL0     C43537   7.015   2.042   7.110  0.7627 -0.1412  0.6789
  323MOL0     H43538   7.452   2.215   6.853 -0.8633 -0.3088 -0.6045
  323MOL0     H43539   7.701   2.209   6.872 -0.1432 -0.0965  0.7492
  323MOL0     H43540   7.966   1.871   6.700  0.3880 -0.3879 -3.2715
  323MOL0     H43541   7.891   1.971   6.591 -1.3154 -3.7210  1.0901
  323MOL0     H43542   8.075   2.142   6.598  1.9698 -0.1446 -0.5723
  323MOL0     H43543   8.135   1.988   6.584 -2.0195 -0.4818 -1.0194
  323MOL0     H43544   8.213   1.954   6.812 -1.4998  0.6405  1.2692
  323MOL0     H43545   8.109   2.081   6.867  0.5499 -0.9499  1.3896
  323MOL0     H43546   8.349   2.113   6.674  0.1929  1.1232 -0.0126
  323MOL0     H43547   8.268   2.245   6.773 -0.7127  0.6399 -2.4971
  323MOL0     H43548   8.362   2.098   6.978  2.5142  0.2531  0.6502
  323MOL0     H43549   8.433   1.989   6.852 -0.6986 -0.1243 -0.6565
  323MOL0     H43550   8.567   2.136   6.762  2.5025 -0.3422  1.1268
  323MOL0     H43551   8.489   2.280   6.841  2.7164  0.1574 -1.8622
  323MOL0     H43552   8.663   2.061   6.957 -1.3321  0.1162 -0.0558
  323MOL0     H43553   8.562   2.164   7.053  0.9996  1.1534 -0.2414
  323MOL0     H43554   8.777   2.257   6.862  0.7096  0.6381 -0.0221
  323MOL0     H43555   8.692   2.366   6.973 -1.9688 -0.6036 -0.1674
  323MOL0     H43556   8.940   2.060   7.031 -2.3821 -2.8897  2.9111
  323MOL0     H43557   9.119   2.147   7.361 -2.4882  4.2533 -0.8872
  323MOL0     H43558   9.099   2.004   7.246 -4.0829  0.0565 -1.5643
  323MOL0     H43559   9.332   2.109   7.249  0.8344  0.5491 -0.6116
  323MOL0     H43560   9.249   2.095   7.107 -0.3804 -0.7919  0.1860
  323MOL0     H43561   9.263   2.365   7.250  0.0823 -0.7599 -0.5157
  323MOL0     H43562   9.205   2.327   7.087 -2.3544 -0.1037  1.3659
  323MOL0     H43563   9.435   2.420   7.096 -0.1884  0.1428 -0.2844
  323MOL0     H43564   9.447   2.251   7.042 -4.0388 -0.4987 -1.2990
  323MOL0     H43565   9.628   2.340   7.439 -1.2020  0.2305 -0.9462
  323MOL0     H43566   9.878   2.372   7.458 -0.0320  1.1508  0.3971
  323MOL0     H43567  10.279   2.550   7.105 -2.1337 -1.6910 -2.7941
  323MOL0     H43568  10.543   2.545   7.104 -1.9782  1.8006  2.3602
  323MOL0     H43569  10.730   2.153   7.227 -1.6360  1.0267 -0.3156
  323MOL0     H43570  10.739   2.156   7.043  1.7407 -0.7161 -0.4139
  323MOL0     H43571  10.923   2.316   7.223 -4.0305 -0.0445  0.1246
  323MOL0     H43572  10.964   2.146   7.180  2.3300  1.2593 -0.4245
  323MOL0     H43573  10.919   2.213   6.936 -1.2593  0.8590 -0.2470
  323MOL0     H43574  10.927   2.374   6.978  1.1357 -1.1483 -1.3252
  323MOL0     H43575  11.156   2.171   7.029 -1.3251 -0.8514 -3.0487
  323MOL0     H43576  11.163   2.348   7.083 -0.7131  2.3579 -1.4295
  323MOL0     H43577  11.117   2.411   6.842 -2.4485  0.1449  2.2381
  323MOL0     H43578  11.167   2.234   6.821  0.2810 -1.0660  2.7205
  323MOL0     H43579  11.335   2.423   6.981  2.8852  1.3339 -0.6207
  323MOL0     H43580  11.364   2.258   6.911 -3.3483 -0.9089  1.5308
  323MOL0     H43581  11.384   2.517   6.779  0.6322  1.4010  0.2210
  323MOL0     H43582  11.308   2.397   6.677  2.8670  1.3183 -1.3080
  323MOL0     H43583  11.540   2.371   6.627  1.3273 -3.8942 -0.9336
  323MOL0     H43584  11.588   2.372   6.798  0.2377 -2.7931  1.1880
  323MOL0     H43585  10.498   2.115   7.157 -4.0917 -1.4288 -0.3185
  323MOL0     H43586  10.268   2.130   7.172  0.1599 -0.2405 -1.3020
  323MOL0     H43587   9.896   2.281   7.030 -1.0203 -2.3001 -0.2294
  323MOL0     H43588   9.653   2.284   7.025  0.6961 -0.1809 -1.3307
  323MOL0     H43589   7.708   1.839   6.664  2.9647  3.0267 -0.4319
  323MOL0     H43590   7.464   1.830   6.669 -1.9063  0.9867 -0.5496
  323MOL0     H43591   7.089   2.043   6.640 -3.0118 -2.2532 -1.8285
  323MOL0     H43592   6.864   2.057   6.610  0.2545 -0.4907 -0.4147
  323MOL0     H43593   6.629   2.000   6.589  0.4888  2.5055 -0.6305
  323MOL0     H43594   6.639   2.163   6.655  1.4287  0.7166 -0.0532
  323MOL0     H43595   6.420   2.108   6.782 -0.3532  2.7080 -1.5781
  323MOL0     H43596   6.419   1.949   6.691  0.7175 -0.6659 -3.6847
  323MOL0     H43597   6.415   2.069   6.482  1.7728 -0.1765  0.5247
  323MOL0     H43598   6.442   2.223   6.563  0.5729 -0.0774  3.9684
  323MOL0     H43599   6.211   2.198   6.667  0.3892 -0.8526  0.1219
  323MOL0     H43600   6.217   2.203   6.486 -1.1335  0.3644  0.2335
  323MOL0     H43601   6.062   1.827   6.506 -1.4407  0.8273 -0.5322
  323MOL0     H43602   6.775   1.998   7.013 -0.7619 -1.6425 -0.2122
  323MOL0     H43603   6.927   2.020   7.171  2.3051 -3.0708  2.0212
  323MOL0     H43604   7.096   1.974   7.137  4.8935  3.8874 -0.2554
  323MOL0     H43605   7.052   2.142   7.134  0.6490  0.9199 -2.8910
  324MOL0     O43606   6.863   5.252   0.755  0.6629  0.1176  0.4889
  324MOL0     C43607   6.888   5.305   0.647  0.0644 -0.3026  0.1796
  324MOL0     O43608   7.011   5.309   0.586 -0.6087  0.7563 -0.1546
  324MOL0     C43609   7.116   5.276   0.667  0.5366  0.2815  0.4631
  324MOL0     C43610   7.137   5.143   0.712  1.0290 -0.6010 -0.1369
  324MOL0     C43611   7.257   5.122   0.783 -0.1293  0.2431 -0.6109
  324MOL0     C43612   7.362   5.213   0.801  0.3012 -0.1052  0.4140
  324MOL0     O43613   7.483   5.192   0.857  0.2153  0.5304 -0.0331
  324MOL0     C43614   7.516   5.056   0.895 -0.3647 -1.0343 -0.8381
  324MOL0     C43615   7.663   5.062   0.948  0.8433  0.9782 -0.0089
  324MOL0     C43616   7.696   4.922   0.990  0.4477  1.0488 -0.3016
  324MOL0     C43617   7.834   4.923   1.060 -0.3341 -0.9972 -0.6691
  324MOL0     C43618   7.876   4.782   1.100 -0.6862  0.1601  0.4441
  324MOL0     C43619   8.022   4.790   1.134  0.8814 -0.7632  0.7345
  324MOL0     C43620   8.069   4.667   1.208 -0.4639  1.1867 -0.9713
  324MOL0     C43621   8.221   4.667   1.244 -0.6526 -0.1974 -0.0098
  324MOL0     N43622   8.299   4.628   1.121 -0.4318 -0.1512 -0.9178
  324MOL0     C43623   8.389   4.714   1.071  0.3191  0.4979  0.4752
  324MOL0     C43624   8.456   4.642   0.980  0.7348 -0.1256  0.7110
  324MOL0     C43625   8.568   4.695   0.886  0.4416  0.4613  0.0203
  324MOL0     C43626   8.501   4.756   0.754 -0.8413 -0.1794 -1.7970
  324MOL0     C43627   8.596   4.728   0.635  0.1714 -0.1047  0.3311
  324MOL0     C43628   8.732   4.814   0.648  0.3501 -0.5653  0.2508
  324MOL0     O43629   8.829   4.750   0.736 -0.1873 -0.1330  0.1728
  324MOL0     C43630   8.957   4.776   0.708 -1.0419  0.4840 -0.1083
  324MOL0     C43631   9.010   4.902   0.743  0.5404 -0.8355  0.0435
  324MOL0     C43632   9.148   4.915   0.745 -0.0866  0.0448  0.5819
  324MOL0     C43633   9.240   4.816   0.711 -0.0356 -0.3548  0.7419
  324MOL0     C43634   9.391   4.841   0.711  0.6988 -0.2869  0.1354
  324MOL0     O43635   9.481   4.759   0.648 -0.5974 -0.4423 -0.5370
  324MOL0     C43636   9.623   4.792   0.656  0.4227 -0.5399  0.1753
  324MOL0     C43637   9.685   4.904   0.593 -0.3211 -0.5650 -0.9569
  324MOL0     C43638   9.820   4.928   0.605 -0.5193  0.5167  0.2575
  324MOL0     C43639   9.902   4.840   0.685 -0.5013 -0.2268  0.2736
  324MOL0     O43640  10.038   4.862   0.700 -0.2047  0.5332  0.4999
  324MOL0     C43641  10.108   4.808   0.812 -0.0010  0.7002  0.6504
  324MOL0     C43642  10.252   4.851   0.793  0.7135 -0.9684 -0.6695
  324MOL0     C43643  10.317   4.871   0.936  0.4681 -0.3088 -0.8035
  324MOL0     C43644  10.468   4.906   0.934 -0.5443 -0.5881 -0.1117
  324MOL0     C43645  10.539   4.912   1.075  0.1998 -0.7205  0.4502
  324MOL0     C43646  10.687   4.932   1.081 -0.1576 -0.2690  0.3820
  324MOL0     C43647  10.742   4.972   1.220  0.3720  0.4116  0.3333
  324MOL0     C43648  10.899   4.982   1.219  0.0331  1.1566 -0.8436
  324MOL0    Cl43649  10.987   4.815   1.211  0.0570  0.1855  0.1420
  324MOL0     C43650   9.837   4.735   0.746 -0.7105 -0.0552  0.6328
  324MOL0     C43651   9.705   4.704   0.733 -0.2002 -0.5477  0.3834
  324MOL0     O43652   9.427   4.925   0.792  0.3240  0.8576  0.0368
  324MOL0     C43653   9.188   4.697   0.652 -0.0413 -0.1001 -0.0988
  324MOL0     C43654   9.054   4.678   0.668  0.4005 -0.7586 -0.0334
  324MOL0     N43655   8.395   4.514   0.979  0.3307  0.1868  0.4930
  324MOL0     N43656   8.297   4.507   1.062  1.1523  0.3096 -0.0676
  324MOL0     C43657   7.333   5.342   0.754 -0.3349 -0.3119 -0.6022
  324MOL0     C43658   7.213   5.372   0.689 -0.8576  0.2859  1.0798
  324MOL0     C43659   6.778   5.380   0.570 -0.9169 -0.3281  1.0865
  324MOL0     C43660   6.645   5.358   0.594  0.0650  0.5813  0.2933
  324MOL0     C43661   6.547   5.424   0.528  0.3045  0.8704  0.8122
  324MOL0     C43662   6.569   5.517   0.431  0.0145 -0.9685 -0.1495
  324MOL0     O43663   6.461   5.568   0.359  0.3897  0.0263  0.7352
  324MOL0     C43664   6.360   5.474   0.319  0.2738  0.3004 -0.6708
  324MOL0     C43665   6.238   5.550   0.253 -0.2204  0.3644 -0.3718
  324MOL0     C43666   6.275   5.640   0.141  0.3121 -1.0170  0.4026
  324MOL0     C43667   6.155   5.730   0.101 -1.0320  0.4189  0.1549
  324MOL0     C43668   6.049   5.655   0.036 -0.2470 -0.3694 -0.0885
  324MOL0     C43669   5.958   5.600  -0.020  0.4454 -0.1512  0.3429
  324MOL0     C43670   6.700   5.554   0.415 -0.0132 -0.4725 -0.0448
  324MOL0     C43671   6.803   5.491   0.476 -0.2845 -0.0654 -0.1653
  324MOL0     C43672   6.942   5.553   0.474  0.3972  0.3437  1.8937
  324MOL0     H43673   7.078   5.053   0.696  0.8418 -0.1929 -1.9661
  324MOL0     H43674   7.271   5.020   0.818 -1.9171 -1.4766 -4.2849
  324MOL0     H43675   7.446   5.027   0.973 -1.0152 -0.0608 -1.0455
  324MOL0     H43676   7.514   4.989   0.809  5.2562 -0.9165 -1.4803
  324MOL0     H43677   7.668   5.133   1.031  2.3627  0.1852  0.6304
  324MOL0     H43678   7.725   5.112   0.873  3.3873  1.4297  2.2531
  324MOL0     H43679   7.695   4.865   0.897 -4.1036  2.3123 -1.3144
  324MOL0     H43680   7.623   4.889   1.065  3.1340  1.7042  2.8483
  324MOL0     H43681   7.918   4.968   1.008 -0.0805  0.0216  0.5958
  324MOL0     H43682   7.838   4.978   1.154 -0.1384 -0.3986 -1.0259
  324MOL0     H43683   7.816   4.769   1.190 -0.4187 -1.8458  0.3685
  324MOL0     H43684   7.852   4.704   1.027  1.9214 -1.6178  1.3551
  324MOL0     H43685   8.078   4.803   1.041  0.6191 -1.3314  0.4908
  324MOL0     H43686   8.045   4.875   1.199  1.6524  1.4070 -2.1647
  324MOL0     H43687   8.060   4.570   1.158  2.4421  0.9348 -1.1951
  324MOL0     H43688   8.025   4.639   1.304 -0.2556 -1.4530 -1.5834
  324MOL0     H43689   8.254   4.753   1.303  1.8270 -1.6138  0.8207
  324MOL0     H43690   8.237   4.579   1.306 -1.1803 -0.0787  0.3014
  324MOL0     H43691   8.424   4.809   1.109 -1.3601  1.0445  0.7432
  324MOL0     H43692   8.628   4.768   0.941 -1.4550  1.2627  1.1110
  324MOL0     H43693   8.624   4.607   0.853 -0.1938 -0.4942  1.3667
  324MOL0     H43694   8.399   4.718   0.743 -1.5790  0.9409  0.4922
  324MOL0     H43695   8.490   4.861   0.780  0.2016 -1.2363  4.5502
  324MOL0     H43696   8.549   4.759   0.541  0.8824 -1.9882 -0.7129
  324MOL0     H43697   8.602   4.620   0.619 -3.0173 -0.3271  0.0853
  324MOL0     H43698   8.710   4.908   0.699 -0.2600  0.3649 -1.6336
  324MOL0     H43699   8.773   4.843   0.551 -0.6871  0.3720  0.0692
  324MOL0     H43700   8.938   4.969   0.789 -0.5124 -1.6902 -0.2956
  324MOL0     H43701   9.193   5.006   0.785  0.3014  0.3249 -0.4569
  324MOL0     H43702   9.620   4.980   0.551  0.2340  2.0933  2.5435
  324MOL0     H43703   9.871   5.009   0.554  1.4905 -0.3778  0.7088
  324MOL0     H43704  10.067   4.853   0.903  0.1263 -0.1151  1.1214
  324MOL0     H43705  10.106   4.699   0.820 -2.4552  0.6284  0.1340
  324MOL0     H43706  10.305   4.766   0.750  1.9609 -0.0307 -1.0432
  324MOL0     H43707  10.272   4.946   0.742 -0.6206  0.3229  1.1016
  324MOL0     H43708  10.263   4.952   0.987 -1.6074 -1.1119 -1.6074
  324MOL0     H43709  10.296   4.784   0.998  1.0324 -0.0072 -0.1782
  324MOL0     H43710  10.489   5.001   0.884  0.1604 -0.2253  0.8305
  324MOL0     H43711  10.525   4.829   0.882 -0.1985  0.5150 -1.4146
  324MOL0     H43712  10.513   4.818   1.126 -0.2165  0.6342  2.8749
  324MOL0     H43713  10.495   4.994   1.132  0.1731  0.4168 -1.1507
  324MOL0     H43714  10.733   4.840   1.045  0.0100  0.3048 -0.9226
  324MOL0     H43715  10.706   5.016   1.013  2.2874  0.9354  2.3785
  324MOL0     H43716  10.708   4.896   1.292  1.9467 -2.7239 -2.0085
  324MOL0     H43717  10.693   5.069   1.237 -2.9015 -0.9396 -0.4789
  324MOL0     H43718  10.921   5.044   1.131  1.3845  0.5221 -0.9753
  324MOL0     H43719  10.942   5.026   1.310 -0.6342 -1.5158  0.8552
  324MOL0     H43720   9.885   4.663   0.812 -1.4227 -0.9124  0.2401
  324MOL0     H43721   9.644   4.625   0.776  0.3450 -0.3470  1.5699
  324MOL0     H43722   9.265   4.634   0.610  1.1658  1.2821 -0.0586
  324MOL0     H43723   9.018   4.579   0.639 -1.5571  0.5119 -2.2887
  324MOL0     H43724   7.408   5.421   0.759 -1.8434  1.1873 -0.9612
  324MOL0     H43725   7.191   5.470   0.649 -3.8955 -1.0366 -0.9095
  324MOL0     H43726   6.615   5.278   0.660  2.9261 -0.8675  0.0322
  324MOL0     H43727   6.448   5.384   0.548  0.7598 -2.1006 -2.0177
  324MOL0     H43728   6.308   5.430   0.405  0.0908  0.9799 -0.4302
  324MOL0     H43729   6.390   5.393   0.252 -0.1687 -0.2634 -0.1987
  324MOL0     H43730   6.176   5.607   0.323 -1.2067  1.2910 -1.9236
  324MOL0     H43731   6.170   5.474   0.215  0.2117 -0.5497  0.6290
  324MOL0     H43732   6.318   5.587   0.055 -0.1126  1.1104 -1.1826
  324MOL0     H43733   6.355   5.707   0.173 -0.1255 -1.2190  2.0263
  324MOL0     H43734   6.109   5.777   0.188 -1.4010  0.4195 -0.0364
  324MOL0     H43735   6.183   5.805   0.027  1.4143  1.1547  1.7291
  324MOL0     H43736   5.862   5.558  -0.043 -0.8163  1.6555  2.0013
  324MOL0     H43737   6.726   5.639   0.352 -0.1867 -2.2002 -2.6192
  324MOL0     H43738   6.980   5.551   0.577 -3.1211 -2.8936  3.3959
  324MOL0     H43739   7.003   5.497   0.402 -4.1022  1.8246 -3.7528
  324MOL0     H43740   6.932   5.650   0.424 -2.0192 -0.4926  0.6124
  325MOL0     O43741   6.437   2.232  10.508 -0.6864  0.9444  0.1185
  325MOL0     C43742   6.434   2.137  10.434  0.8184 -0.9807  0.0031
  325MOL0     O43743   6.477   2.010  10.458  0.7055  0.3982 -0.1408
  325MOL0     C43744   6.488   1.982  10.591 -0.3670  1.0132 -0.0360
  325MOL0     C43745   6.603   2.020  10.665 -0.4532  0.0549 -0.1408
  325MOL0     C43746   6.608   1.991  10.802  0.0786  0.7755  0.4855
  325MOL0     C43747   6.503   1.923  10.872  0.4402  0.8949  0.3343
  325MOL0     O43748   6.492   1.916  11.009  0.1996 -0.5923  0.0254
  325MOL0     C43749   6.621   1.911  11.087  0.6345  0.3233  0.2915
  325MOL0     C43750   6.586   1.901  11.239  0.8200 -0.7836 -0.4340
  325MOL0     C43751   6.698   1.901  11.333 -0.1598 -0.3133  0.0669
  325MOL0     C43752   6.778   1.781  11.345 -0.3818  1.0980  0.2139
  325MOL0     C43753   6.892   1.795  11.444  0.6213 -0.0049 -0.3827
  325MOL0     C43754   6.988   1.675  11.451  0.1082 -0.3348 -0.2444
  325MOL0     C43755   7.053   1.678  11.584 -0.2172  0.5152 -0.8922
  325MOL0     C43756   7.178   1.584  11.577  0.3672  1.0285 -0.3442
  325MOL0     N43757   7.292   1.644  11.505 -0.5454  0.7354 -0.2449
  325MOL0     C43758   7.353   1.761  11.547 -0.1954 -0.5978 -0.2851
  325MOL0     C43759   7.426   1.798  11.442  1.0292 -0.4800 -0.2652
  325MOL0     C43760   7.517   1.916  11.424 -0.1900 -0.8682 -0.8688
  325MOL0     C43761   7.642   1.895  11.507 -0.4231  0.4118 -0.3770
  325MOL0     C43762   7.740   2.011  11.525 -0.3768 -0.5541  0.5329
  325MOL0     C43763   7.836   2.014  11.646 -0.1761  0.3447 -0.4232
  325MOL0     O43764   7.764   1.987  11.771 -0.9745  0.5455 -0.2933
  325MOL0     C43765   7.840   1.969  11.884  0.5250 -0.3050 -0.2970
  325MOL0     C43766   7.776   1.892  11.975  0.6652  0.6204  0.1217
  325MOL0     C43767   7.837   1.866  12.104  1.1727 -0.4681  0.0952
  325MOL0     C43768   7.947   1.938  12.142  0.1949  1.2887 -0.5618
  325MOL0     C43769   7.998   1.902  12.273 -1.0182 -0.3532 -0.3102
  325MOL0     O43770   7.991   1.776  12.320  0.3465  0.0794  0.1577
  325MOL0     C43771   7.956   1.762  12.450  0.2631  0.8184 -0.6460
  325MOL0     C43772   7.828   1.722  12.500  0.0154  0.2113  0.0842
  325MOL0     C43773   7.796   1.715  12.637 -0.6910  0.8982  0.5184
  325MOL0     C43774   7.894   1.754  12.734 -0.1247  0.5057 -0.2967
  325MOL0     O43775   7.874   1.768  12.863 -0.1567 -0.0913 -0.0043
  325MOL0     C43776   7.746   1.754  12.922  0.8458 -0.4999 -0.0017
  325MOL0     C43777   7.775   1.741  13.074  0.2243 -0.6096  0.3908
  325MOL0     C43778   7.827   1.603  13.112  0.4848 -0.7777 -0.2579
  325MOL0     C43779   7.808   1.580  13.259  0.2124 -0.1362  0.2168
  325MOL0     C43780   7.874   1.455  13.312  0.6015  0.1152  0.1647
  325MOL0     C43781   7.902   1.453  13.461  0.3518  0.5422  0.2828
  325MOL0     C43782   7.996   1.340  13.500 -0.0840 -0.3100  0.1218
  325MOL0     C43783   8.014   1.325  13.650 -0.1171  0.4516  0.1238
  325MOL0    Cl43784   8.069   1.162  13.676 -1.0126  0.1247  0.4132
  325MOL0     C43785   8.017   1.773  12.684 -0.5792  0.4290 -0.0676
  325MOL0     C43786   8.049   1.769  12.545  0.1088  0.2140 -0.4947
  325MOL0     O43787   8.040   1.998  12.338  0.5484 -0.0983 -0.5002
  325MOL0     C43788   8.007   2.023  12.048 -0.2160  1.6357 -0.2096
  325MOL0     C43789   7.959   2.038  11.921  0.0590 -0.0843  0.1563
  325MOL0     N43790   7.403   1.711  11.338  0.1907 -0.4084  0.3590
  325MOL0     N43791   7.339   1.612  11.378 -0.3235 -0.8103 -0.5124
  325MOL0     C43792   6.388   1.880  10.798  1.3294 -0.2370  0.4643
  325MOL0     C43793   6.383   1.912  10.656  0.5698  0.7842 -0.9702
  325MOL0     C43794   6.384   2.167  10.301 -0.1963  0.5230 -0.6248
  325MOL0     C43795   6.419   2.073  10.205 -0.4533 -0.6778 -0.0604
  325MOL0     C43796   6.380   2.095  10.071 -0.1185 -0.2225  0.2972
  325MOL0     C43797   6.303   2.198  10.030 -0.1418 -0.6453  0.3384
  325MOL0     O43798   6.260   2.203   9.898 -0.2299  0.0081  0.2063
  325MOL0     C43799   6.168   2.299   9.858 -0.4962 -0.4507  0.7859
  325MOL0     C43800   6.022   2.277   9.909 -0.1513 -0.4933 -0.2016
  325MOL0     C43801   5.933   2.398   9.882 -0.4279 -0.3820  1.4691
  325MOL0     C43802   5.914   2.427   9.740  0.1042 -0.1958 -0.1291
  325MOL0     C43803   5.848   2.320   9.658 -0.8399 -0.1327  0.6259
  325MOL0     C43804   5.800   2.239   9.583 -0.0260 -0.3240 -1.0285
  325MOL0     C43805   6.274   2.300  10.128  0.9422  0.8511 -0.4384
  325MOL0     C43806   6.311   2.287  10.256  0.1860  0.5103 -0.4961
  325MOL0     C43807   6.293   2.403  10.353 -0.0659 -0.2709  0.5987
  325MOL0     H43808   6.688   2.073  10.623 -0.0233 -0.6869 -0.2273
  325MOL0     H43809   6.699   2.028  10.849  0.4650 -0.1901  0.5338
  325MOL0     H43810   6.670   1.824  11.042 -1.5577  0.3646 -2.4760
  325MOL0     H43811   6.688   1.996  11.073  0.8755 -0.2673 -3.1251
  325MOL0     H43812   6.530   1.807  11.254  1.0626 -1.0973 -1.3887
  325MOL0     H43813   6.516   1.981  11.262  0.8391 -1.4306  2.1652
  325MOL0     H43814   6.660   1.919  11.434  0.5047  0.1974  0.2291
  325MOL0     H43815   6.761   1.985  11.302 -1.6686  0.7360 -0.3092
  325MOL0     H43816   6.717   1.701  11.386 -0.7281  0.2921 -1.7679
  325MOL0     H43817   6.813   1.738  11.251 -0.6680  0.6580  0.3073
  325MOL0     H43818   6.945   1.888  11.425 -0.7027  0.2586 -3.3540
  325MOL0     H43819   6.854   1.814  11.545 -1.7488 -1.4703 -0.9072
  325MOL0     H43820   6.932   1.582  11.445 -0.7768  0.1298  0.5253
  325MOL0     H43821   7.064   1.687  11.373  1.7646 -1.1979  1.1732
  325MOL0     H43822   6.984   1.642  11.661  2.1677 -2.9562 -0.1641
  325MOL0     H43823   7.077   1.778  11.621 -2.0699  0.6981 -0.0696
  325MOL0     H43824   7.210   1.560  11.679 -0.4879  0.7905 -0.1287
  325MOL0     H43825   7.154   1.485  11.539  0.8878  0.2643  1.2205
  325MOL0     H43826   7.335   1.812  11.640  1.9420 -1.1049  0.4518
  325MOL0     H43827   7.550   1.930  11.321  0.6401 -1.8191 -0.7475
  325MOL0     H43828   7.462   2.008  11.450  0.1842  0.0494 -3.1118
  325MOL0     H43829   7.614   1.871  11.610  2.7900  5.0738  1.9444
  325MOL0     H43830   7.683   1.806  11.459 -2.4090  0.5167 -2.4063
  325MOL0     H43831   7.693   2.109  11.517  0.3984 -0.0743  1.6707
  325MOL0     H43832   7.814   2.007  11.444 -0.6542 -1.2877  0.3004
  325MOL0     H43833   7.893   2.107  11.638  2.5370 -1.2528 -0.8134
  325MOL0     H43834   7.911   1.937  11.626 -0.4892  0.0626 -0.5101
  325MOL0     H43835   7.679   1.849  11.951  0.1104  2.6471 -1.5351
  325MOL0     H43836   7.771   1.820  12.177  1.3241 -0.3227  0.3265
  325MOL0     H43837   7.750   1.716  12.425 -0.6443  1.2397  0.6674
  325MOL0     H43838   7.692   1.688  12.649 -0.1465 -2.8043 -1.4939
  325MOL0     H43839   7.681   1.842  12.914 -1.4142 -2.2451 -3.0285
  325MOL0     H43840   7.686   1.667  12.894 -0.8297  0.6390 -0.1186
  325MOL0     H43841   7.839   1.821  13.112 -1.3622  0.4763  0.8923
  325MOL0     H43842   7.680   1.763  13.124 -0.1195  0.9344 -0.8448
  325MOL0     H43843   7.768   1.528  13.059 -0.2170 -1.2394  1.1200
  325MOL0     H43844   7.935   1.591  13.096  0.5324 -2.8928  1.1847
  325MOL0     H43845   7.700   1.563  13.272 -0.0122  0.3060 -0.9556
  325MOL0     H43846   7.840   1.676  13.300  1.6723 -1.1890  1.6496
  325MOL0     H43847   7.973   1.436  13.271 -0.1625 -0.5861 -1.4395
  325MOL0     H43848   7.820   1.366  13.279 -3.3116  3.5292 -4.0883
  325MOL0     H43849   7.939   1.550  13.495  0.3139  0.5461  0.3133
  325MOL0     H43850   7.810   1.442  13.519  1.5339  0.6288  2.2423
  325MOL0     H43851   8.098   1.354  13.461  0.2351  0.0937  1.0837
  325MOL0     H43852   7.962   1.244  13.460  1.7876 -0.6357 -0.8244
  325MOL0     H43853   8.087   1.396  13.691 -1.5718  1.6054  0.8185
  325MOL0     H43854   7.924   1.339  13.711 -0.4235  0.4512 -0.3258
  325MOL0     H43855   8.089   1.803  12.759 -0.5480  0.0059  0.0757
  325MOL0     H43856   8.151   1.771  12.508  1.8527  1.9836  3.6762
  325MOL0     H43857   8.096   2.079  12.075  0.3311  1.8227 -2.2587
  325MOL0     H43858   8.010   2.108  11.856 -0.7757  0.1215 -0.2901
  325MOL0     H43859   6.305   1.832  10.849  0.8072 -0.8420 -0.9047
  325MOL0     H43860   6.296   1.870  10.607  1.2242 -1.2097 -0.5234
  325MOL0     H43861   6.491   1.995  10.227  3.7310  3.5212  2.9804
  325MOL0     H43862   6.424   2.038   9.991 -0.4904 -1.1409  0.7285
  325MOL0     H43863   6.182   2.302   9.749  0.9480  1.6903  0.9799
  325MOL0     H43864   6.191   2.401   9.891 -2.7485  0.3300  0.1359
  325MOL0     H43865   6.036   2.273  10.018  0.8171 -3.5138 -0.3442
  325MOL0     H43866   5.966   2.190   9.873 -1.1857  0.8661 -2.0307
  325MOL0     H43867   5.974   2.490   9.924 -3.8151  1.4435  1.1731
  325MOL0     H43868   5.835   2.373   9.926 -1.9358  0.3806 -1.2492
  325MOL0     H43869   5.863   2.521   9.717  1.5280  1.0012  1.3524
  325MOL0     H43870   6.011   2.437   9.690 -0.9534 -2.6045 -2.9300
  325MOL0     H43871   5.753   2.171   9.515  2.2373 -0.4371 -2.6008
  325MOL0     H43872   6.224   2.392  10.101 -3.0999 -0.8886  0.3825
  325MOL0     H43873   6.393   2.436  10.382 -0.0833 -0.1568  0.5328
  325MOL0     H43874   6.240   2.484  10.301  1.3615  0.4462  0.2183
  325MOL0     H43875   6.236   2.367  10.439  1.6210  0.0573  1.9030
  326MOL0     O43876   1.499  10.886   9.311  0.9208  0.1222 -0.8381
  326MOL0     C43877   1.471  10.997   9.275  0.7332  0.4753 -0.2786
  326MOL0     O43878   1.516  11.108   9.343 -0.1812  0.0227 -0.2996
  326MOL0     C43879   1.622  11.100   9.440  0.4815 -0.3460  0.1720
  326MOL0     C43880   1.738  11.028   9.413  0.2403 -0.0660 -0.9550
  326MOL0     C43881   1.837  11.023   9.511 -0.0922 -0.4660  0.1375
  326MOL0     C43882   1.833  11.105   9.621 -0.3719 -0.2908  0.2382
  326MOL0     O43883   1.929  11.105   9.724 -0.4393 -0.3709  0.1483
  326MOL0     C43884   2.046  11.195   9.701  0.2977  0.5590  0.4122
  326MOL0     C43885   2.028  11.331   9.746 -0.4756 -0.0862 -0.0317
  326MOL0     C43886   2.135  11.418   9.690 -0.3153  0.3330  0.4382
  326MOL0     C43887   2.120  11.571   9.726 -0.3209  0.5192  0.6375
  326MOL0     C43888   2.228  11.664   9.662  0.9767  0.0753 -0.1646
  326MOL0     C43889   2.330  11.696   9.768  0.2382  0.0966  0.5372
  326MOL0     C43890   2.275  11.789   9.872  0.1711  0.2931  0.4560
  326MOL0     C43891   2.374  11.812   9.982  0.3847 -0.1038 -1.0876
  326MOL0     N43892   2.497  11.886   9.943 -0.1475 -0.4406  0.2600
  326MOL0     C43893   2.622  11.840   9.898 -0.3488 -0.3766  0.2575
  326MOL0     C43894   2.693  11.956   9.871 -0.0804 -0.1477 -0.7561
  326MOL0     C43895   2.822  11.953   9.808 -0.0703 -0.0079  0.0807
  326MOL0     C43896   2.840  12.071   9.705  0.0839  0.1104 -0.7329
  326MOL0     C43897   2.945  12.046   9.598 -0.4501  0.5431  0.3517
  326MOL0     C43898   3.080  12.099   9.645 -0.2518  1.3112 -0.4443
  326MOL0     O43899   3.133  12.027   9.759 -0.4949 -0.0476 -0.0278
  326MOL0     C43900   3.251  11.948   9.747  0.0130 -1.5095  0.6556
  326MOL0     C43901   3.319  11.917   9.628 -0.0677  0.5265  0.8418
  326MOL0     C43902   3.444  11.849   9.625 -0.2330 -0.6983 -0.0071
  326MOL0     C43903   3.506  11.808   9.744  1.2884  0.6728  0.8944
  326MOL0     C43904   3.648  11.750   9.743  0.1081 -0.7012  0.4208
  326MOL0     O43905   3.703  11.737   9.869 -0.0677 -0.4618  0.3206
  326MOL0     C43906   3.818  11.666   9.888 -0.3830  0.6519 -1.1386
  326MOL0     C43907   3.930  11.666   9.810 -0.1160 -0.4246  0.5959
  326MOL0     C43908   4.044  11.586   9.827 -0.5904  0.3004 -0.5208
  326MOL0     C43909   4.044  11.509   9.945 -0.2345 -0.3229 -0.6850
  326MOL0     O43910   4.148  11.425   9.973 -0.6260  0.5418 -1.0936
  326MOL0     C43911   4.199  11.447  10.107 -0.0841 -0.1146  0.0956
  326MOL0     C43912   4.351  11.409  10.105  0.4844 -0.6870  0.7683
  326MOL0     C43913   4.441  11.491   9.992  0.9345  0.2158 -0.4974
  326MOL0     C43914   4.589  11.498  10.019  0.2203  0.3865  0.2133
  326MOL0     C43915   4.659  11.363  10.064  0.2923  0.7840  0.1881
  326MOL0     C43916   4.634  11.237   9.975 -0.2859 -0.5658 -0.0488
  326MOL0     C43917   4.719  11.111  10.005 -0.0223  0.4792  0.3384
  326MOL0     C43918   4.871  11.127   9.984  0.3540  0.4663 -0.0124
  326MOL0    Cl43919   4.920  11.127   9.813 -0.2361  0.4998  0.0479
  326MOL0     C43920   3.931  11.516  10.038 -1.0283 -0.0764 -0.4775
  326MOL0     C43921   3.819  11.595  10.012  0.1350  0.2580  0.6392
  326MOL0     O43922   3.701  11.716   9.635 -0.1323 -0.2423  0.3275
  326MOL0     C43923   3.427  11.832   9.861  0.8091 -0.3447  0.6758
  326MOL0     C43924   3.311  11.909   9.861 -0.4415  0.4728  0.2385
  326MOL0     N43925   2.615  12.067   9.892  0.4740 -0.1057 -0.2929
  326MOL0     N43926   2.499  12.021   9.946 -0.7126 -0.8532 -0.5093
  326MOL0     C43927   1.716  11.169   9.644 -0.6290  1.2691  0.8390
  326MOL0     C43928   1.605  11.166   9.560 -0.4694  0.2860  0.9747
  326MOL0     C43929   1.356  11.031   9.185  0.0491 -0.1150 -0.1579
  326MOL0     C43930   1.327  11.170   9.155  0.0754 -0.3165 -0.4159
  326MOL0     C43931   1.218  11.220   9.091 -0.5595 -0.3831  0.1808
  326MOL0     C43932   1.134  11.128   9.031  0.1347 -0.5121 -0.3911
  326MOL0     O43933   1.034  11.185   8.959 -0.5109  0.4885  0.5841
  326MOL0     C43934   0.900  11.121   8.945  0.1123  0.4150  0.6311
  326MOL0     C43935   0.803  11.226   8.910 -0.2892 -0.0603  0.9277
  326MOL0     C43936   0.674  11.164   8.846 -0.7189  0.1530  0.4100
  326MOL0     C43937   0.576  11.117   8.957 -0.1831 -0.3548 -0.2230
  326MOL0     C43938   0.442  11.089   8.902 -1.4037  0.8957  1.3144
  326MOL0     C43939   0.332  11.076   8.849  0.6213  0.8049  1.0455
  326MOL0     C43940   1.160  10.993   9.041  0.2659  0.2334  0.7617
  326MOL0     C43941   1.259  10.945   9.129 -0.1612  0.1635 -0.1540
  326MOL0     C43942   1.270  10.798   9.148  0.4503 -0.9676  0.0380
  326MOL0     H43943   1.750  10.986   9.313  2.0213  0.6538 -1.0806
  326MOL0     H43944   1.932  10.972   9.495  1.4259  1.7674  1.3954
  326MOL0     H43945   2.139  11.161   9.746 -0.0344 -0.4949  0.3437
  326MOL0     H43946   2.069  11.188   9.594 -3.3719 -3.4240 -0.4020
  326MOL0     H43947   2.032  11.348   9.854  1.2110  4.1667 -0.5681
  326MOL0     H43948   1.931  11.357   9.701 -1.1758 -1.6335  0.5001
  326MOL0     H43949   2.146  11.404   9.582  0.6665 -1.5494  0.7332
  326MOL0     H43950   2.233  11.394   9.733  1.2719  1.9399 -1.9742
  326MOL0     H43951   2.029  11.610   9.677 -1.9362 -2.7384  0.8048
  326MOL0     H43952   2.113  11.586   9.834  0.3371  1.1188  0.6027
  326MOL0     H43953   2.262  11.619   9.569 -1.2022 -1.8039 -0.1466
  326MOL0     H43954   2.184  11.759   9.628 -1.4318 -0.5675  0.9417
  326MOL0     H43955   2.371  11.607   9.816 -0.8892 -1.0491 -0.5491
  326MOL0     H43956   2.419  11.739   9.720  0.4401 -3.3075 -2.6168
  326MOL0     H43957   2.178  11.755   9.910 -1.2933  1.5797 -1.8496
  326MOL0     H43958   2.260  11.890   9.833  2.4144  0.1607 -0.8665
  326MOL0     H43959   2.315  11.866  10.056 -1.3847  0.7028 -3.0004
  326MOL0     H43960   2.414  11.724  10.035  0.3271  1.4829  1.8210
  326MOL0     H43961   2.666  11.742   9.880  0.9579  0.3078 -0.3455
  326MOL0     H43962   2.896  11.951   9.888  2.3864  1.2289 -2.0011
  326MOL0     H43963   2.838  11.861   9.751  1.7334  0.1053  0.3306
  326MOL0     H43964   2.745  12.077   9.651  0.6388 -2.9113 -2.2592
  326MOL0     H43965   2.860  12.171   9.745  1.7191  0.1608 -1.6099
  326MOL0     H43966   2.923  12.109   9.511 -1.2822  2.6210  1.9638
  326MOL0     H43967   2.943  11.942   9.563  1.6329 -0.4406  2.7931
  326MOL0     H43968   3.077  12.203   9.679  4.3258  0.6222  3.0711
  326MOL0     H43969   3.146  12.096   9.558 -0.4140  4.1316 -0.7649
  326MOL0     H43970   3.273  11.949   9.535 -2.7716 -1.7188  1.2758
  326MOL0     H43971   3.496  11.829   9.532  1.3916 -0.2332  0.7598
  326MOL0     H43972   3.916  11.726   9.720  0.2911 -0.6370  0.3898
  326MOL0     H43973   4.126  11.575   9.757  0.1139  1.7517  0.0369
  326MOL0     H43974   4.204  11.550  10.143  3.6433 -0.1004 -0.0867
  326MOL0     H43975   4.156  11.385  10.187 -3.4416  1.4156 -0.3792
  326MOL0     H43976   4.399  11.432  10.200  1.0042  2.4699 -0.1518
  326MOL0     H43977   4.365  11.301  10.114 -1.7393 -0.9441  2.0594
  326MOL0     H43978   4.424  11.450   9.892 -0.9642  0.3322 -0.2639
  326MOL0     H43979   4.398  11.592   9.992 -2.3748 -0.9771  2.6872
  326MOL0     H43980   4.622  11.582  10.080  0.6786  1.0937 -0.9785
  326MOL0     H43981   4.635  11.519   9.922  0.3283  1.3357  0.4638
  326MOL0     H43982   4.620  11.351  10.165 -1.6767  1.4283 -0.4473
  326MOL0     H43983   4.768  11.367  10.063  0.5797 -1.9197 -3.7618
  326MOL0     H43984   4.532  11.201   9.988 -0.6016  0.6508  1.0644
  326MOL0     H43985   4.643  11.269   9.870  0.9657 -0.3647  0.1036
  326MOL0     H43986   4.676  11.029   9.947 -0.0886  0.5978  0.2177
  326MOL0     H43987   4.704  11.083  10.110  0.9225 -2.3882 -0.2182
  326MOL0     H43988   4.906  11.221  10.028  1.1140 -0.0430  0.4981
  326MOL0     H43989   4.926  11.045  10.032 -0.2439  0.7468  1.2019
  326MOL0     H43990   3.936  11.462  10.132 -0.1545  0.8506  0.0361
  326MOL0     H43991   3.732  11.596  10.076 -1.0033 -0.3716 -0.8251
  326MOL0     H43992   3.456  11.791   9.957  0.6243 -0.1147  0.8300
  326MOL0     H43993   3.264  11.922   9.957  0.3909 -0.3350  0.7709
  326MOL0     H43994   1.715  11.201   9.748 -2.4847 -3.5171  2.5548
  326MOL0     H43995   1.512  11.212   9.592 -0.5873  1.7786 -1.2889
  326MOL0     H43996   1.395  11.247   9.192  0.3894  0.7791 -3.0149
  326MOL0     H43997   1.207  11.327   9.084  0.9390 -0.2687 -0.7981
  326MOL0     H43998   0.879  11.064   9.036  1.4864  0.1705  0.8194
  326MOL0     H43999   0.910  11.058   8.856  1.0844  3.8119 -1.8656
  326MOL0     H44000   0.853  11.283   8.831  0.4009 -1.1472  0.5569
  326MOL0     H44001   0.781  11.290   8.996 -2.5808 -0.1016  0.4463
  326MOL0     H44002   0.704  11.084   8.777 -1.7316  1.3100 -1.4423
  326MOL0     H44003   0.631  11.237   8.777  1.3473  0.0002 -1.1410
  326MOL0     H44004   0.622  11.030   9.003 -0.4132 -0.9415 -1.0785
  326MOL0     H44005   0.568  11.208   9.017 -0.7695  0.5850 -1.6688
  326MOL0     H44006   0.233  11.063   8.810  1.0116 -3.0176  0.9570
  326MOL0     H44007   1.092  10.926   8.990 -1.2889  1.9998  0.4130
  326MOL0     H44008   1.292  10.765   9.250  3.2819 -1.3900 -0.6032
  326MOL0     H44009   1.180  10.744   9.117  0.5762 -1.0727 -0.1495
  326MOL0     H44010   1.360  10.764   9.096  1.4033  3.2421 -1.4777
  327MOL0     O44011   1.227  10.917   2.655  0.0271  0.5309 -0.3679
  327MOL0     C44012   1.213  10.884   2.541 -0.2502  0.9917  0.4062
  327MOL0     O44013   1.292  10.919   2.434 -0.0719  0.0570  0.0920
  327MOL0     C44014   1.386  11.011   2.447 -0.1714  0.0789 -0.1021
  327MOL0     C44015   1.378  11.121   2.366  0.3994  0.8637 -0.7851
  327MOL0     C44016   1.464  11.231   2.397 -0.8741 -0.2903 -0.2636
  327MOL0     C44017   1.558  11.235   2.499 -0.3466  0.2934 -0.8233
  327MOL0     O44018   1.650  11.331   2.523  0.2107  0.1581  0.0417
  327MOL0     C44019   1.624  11.450   2.445 -0.3486  0.0737 -0.0975
  327MOL0     C44020   1.728  11.555   2.474  0.4734  0.0147 -0.3178
  327MOL0     C44021   1.774  11.621   2.344 -0.1256  0.4096  0.0823
  327MOL0     C44022   1.670  11.728   2.294  0.4830  1.0674  0.6329
  327MOL0     C44023   1.719  11.810   2.166 -0.3980 -0.8206  0.9764
  327MOL0     C44024   1.766  11.720   2.056  0.3483 -0.5357  1.5333
  327MOL0     C44025   1.760  11.794   1.915 -0.8555  0.2431  0.0317
  327MOL0     C44026   1.818  11.702   1.794  0.1157  0.0308  0.4831
  327MOL0     N44027   1.950  11.635   1.822  0.1056 -1.0015 -0.9067
  327MOL0     C44028   2.069  11.680   1.770 -0.1845 -0.4637 -0.4366
  327MOL0     C44029   2.160  11.601   1.832 -0.1944  0.7214 -0.3106
  327MOL0     C44030   2.310  11.592   1.797 -0.4580 -0.7591 -0.6115
  327MOL0     C44031   2.339  11.602   1.653  1.1988 -0.4833 -0.3491
  327MOL0     C44032   2.274  11.490   1.568  0.0181 -0.0407 -0.3703
  327MOL0     C44033   2.127  11.513   1.528 -0.5365 -0.4141 -0.5908
  327MOL0     O44034   2.111  11.655   1.479  0.4161  0.9030 -0.1855
  327MOL0     C44035   1.995  11.697   1.421 -0.1454 -0.2842 -0.9123
  327MOL0     C44036   1.986  11.832   1.380  0.5288 -0.5374  0.2518
  327MOL0     C44037   1.874  11.882   1.308 -0.2012 -0.0003 -0.5401
  327MOL0     C44038   1.767  11.798   1.277 -0.8376 -0.4060 -0.0664
  327MOL0     C44039   1.645  11.835   1.204  0.4030  0.8388  0.4747
  327MOL0     O44040   1.529  11.754   1.205 -0.4266  0.2361 -0.3086
  327MOL0     C44041   1.411  11.787   1.139  0.8698  0.8479  0.0429
  327MOL0     C44042   1.369  11.913   1.093 -0.0868 -0.3191 -0.0782
  327MOL0     C44043   1.243  11.938   1.040  1.3633  0.2879 -0.2624
  327MOL0     C44044   1.153  11.839   1.049 -0.0123  1.2189  0.0754
  327MOL0     O44045   1.027  11.871   1.026  0.8258  0.2438  0.2238
  327MOL0     C44046   0.922  11.809   1.099 -0.1880 -1.3474  0.2429
  327MOL0     C44047   0.789  11.870   1.051  0.2266 -0.2608  0.2584
  327MOL0     C44048   0.777  12.028   1.072  0.3342  0.3601  0.3312
  327MOL0     C44049   0.727  12.057   1.209  0.6424 -0.5209 -0.9737
  327MOL0     C44050   0.684  12.203   1.227  1.7719  0.7204 -0.5731
  327MOL0     C44051   0.602  12.208   1.359 -0.1815  0.0806  0.3896
  327MOL0     C44052   0.503  12.327   1.370  0.4442 -1.0811 -0.7767
  327MOL0     C44053   0.510  12.396   1.510  0.5240  0.6375  0.4314
  327MOL0    Cl44054   0.395  12.345   1.625 -0.1844  0.1782  0.2293
  327MOL0     C44055   1.196  11.705   1.088  0.7420  0.4859  0.4597
  327MOL0     C44056   1.321  11.682   1.146  1.5769 -0.1531  0.0366
  327MOL0     O44057   1.643  11.940   1.148 -0.2001  0.2361  0.0484
  327MOL0     C44058   1.779  11.662   1.310  0.3672  0.7224 -0.0894
  327MOL0     C44059   1.892  11.612   1.385  0.6746 -0.8806  0.0387
  327MOL0     N44060   2.103  11.508   1.907  0.0253  0.2314  0.0499
  327MOL0     N44061   1.974  11.516   1.879 -0.1564  0.4003 -0.2605
  327MOL0     C44062   1.553  11.118   2.580 -0.0341 -0.0128  0.1489
  327MOL0     C44063   1.479  11.004   2.554  0.3814  0.4142  0.5092
  327MOL0     C44064   1.093  10.795   2.505 -0.5462  0.4306  0.0455
  327MOL0     C44065   1.050  10.796   2.372  1.0440 -0.0750 -0.5075
  327MOL0     C44066   0.938  10.722   2.324 -0.6822 -0.3145  0.4437
  327MOL0     C44067   0.879  10.633   2.412  0.3440 -0.3332  0.6682
  327MOL0     O44068   0.778  10.554   2.372  0.6124 -0.2455 -0.1626
  327MOL0     C44069   0.697  10.466   2.460 -0.5441  0.0405 -0.3273
  327MOL0     C44070   0.603  10.379   2.364  0.3513  0.5640 -0.3238
  327MOL0     C44071   0.688  10.264   2.300 -0.0479  0.0459  0.3824
  327MOL0     C44072   0.614  10.220   2.167 -0.4516  0.2679  0.6835
  327MOL0     C44073   0.481  10.172   2.197  0.1858 -0.7609  0.2793
  327MOL0     C44074   0.366  10.130   2.229 -0.3140 -0.4675 -0.5174
  327MOL0     C44075   0.926  10.630   2.544  0.3515  0.3380  0.0070
  327MOL0     C44076   1.027  10.712   2.595  0.6539 -0.0068 -0.4109
  327MOL0     C44077   1.078  10.684   2.740 -0.0005 -0.0641  0.8944
  327MOL0     H44078   1.308  11.123   2.283 -0.0853  1.3759 -0.3799
  327MOL0     H44079   1.449  11.312   2.325 -5.6403 -2.0326 -1.6298
  327MOL0     H44080   1.634  11.420   2.340 -0.9885 -2.5761  0.5281
  327MOL0     H44081   1.527  11.484   2.483 -0.1866  0.3107  0.1099
  327MOL0     H44082   1.815  11.512   2.523  3.1967  2.8475 -2.2628
  327MOL0     H44083   1.681  11.632   2.536  0.6834  0.4592 -0.7064
  327MOL0     H44084   1.789  11.545   2.267 -4.1509 -2.2129  1.5627
  327MOL0     H44085   1.872  11.664   2.368  0.0200  0.5500 -0.7255
  327MOL0     H44086   1.578  11.669   2.282  0.5440  0.4366  2.8661
  327MOL0     H44087   1.638  11.803   2.366 -0.8365  1.8301 -0.6842
  327MOL0     H44088   1.639  11.878   2.134 -0.4203 -1.9263 -1.5754
  327MOL0     H44089   1.796  11.883   2.191 -2.5965  2.8212 -1.7200
  327MOL0     H44090   1.871  11.691   2.069  1.5394  3.0965  1.0196
  327MOL0     H44091   1.701  11.633   2.042  0.8121 -1.0594  2.5394
  327MOL0     H44092   1.836  11.873   1.914  0.4989 -0.9801 -2.0995
  327MOL0     H44093   1.661  11.826   1.882 -0.1705 -0.6476 -3.2605
  327MOL0     H44094   1.746  11.623   1.771 -0.4030  0.1623  1.5892
  327MOL0     H44095   1.834  11.765   1.706  0.2921  0.0832  0.5515
  327MOL0     H44096   2.093  11.761   1.702  0.9511  0.2765  0.7892
  327MOL0     H44097   2.367  11.657   1.863 -1.5049  1.4429 -1.7726
  327MOL0     H44098   2.347  11.493   1.826  3.3709  1.1811  1.9250
  327MOL0     H44099   2.290  11.694   1.619  2.3412  0.3237  0.1339
  327MOL0     H44100   2.442  11.611   1.620  1.5011  1.1549  0.9280
  327MOL0     H44101   2.279  11.402   1.633 -0.1289 -0.5305 -1.0185
  327MOL0     H44102   2.334  11.481   1.478 -0.3517 -0.7082 -0.5583
  327MOL0     H44103   2.063  11.491   1.614 -0.5333 -1.8141 -0.9229
  327MOL0     H44104   2.096  11.445   1.447 -3.0844  0.1466 -0.1777
  327MOL0     H44105   2.057  11.907   1.413  0.5544  0.8341 -2.6022
  327MOL0     H44106   1.872  11.985   1.273  0.1722  0.1362 -0.1750
  327MOL0     H44107   1.435  11.998   1.110 -0.0393 -0.6455  1.5331
  327MOL0     H44108   1.200  12.036   1.023 -0.3945 -0.2455  0.8215
  327MOL0     H44109   0.919  11.702   1.077  1.0627 -1.7351  1.7942
  327MOL0     H44110   0.940  11.816   1.206 -1.2990 -2.9685  0.5733
  327MOL0     H44111   0.787  11.848   0.944  2.3420 -1.5864  0.4440
  327MOL0     H44112   0.709  11.816   1.103  1.1468 -2.8124 -0.8476
  327MOL0     H44113   0.875  12.074   1.058  0.5070 -0.0526  0.1784
  327MOL0     H44114   0.706  12.073   1.002 -0.1657  1.7154  1.6625
  327MOL0     H44115   0.792  12.021   1.290  1.9630  0.5722 -1.5031
  327MOL0     H44116   0.639  11.996   1.233 -0.1918  1.4315  1.3018
  327MOL0     H44117   0.607  12.225   1.153 -0.2331 -0.6656  0.9497
  327MOL0     H44118   0.767  12.273   1.238  1.1843  1.0772  2.4785
  327MOL0     H44119   0.548  12.113   1.372 -1.7241  1.1161  1.9826
  327MOL0     H44120   0.674  12.215   1.440 -0.8614  0.1842  0.9958
  327MOL0     H44121   0.400  12.297   1.347  0.9226 -1.8086 -2.0881
  327MOL0     H44122   0.523  12.407   1.298 -1.6173  0.6542  0.4555
  327MOL0     H44123   0.609  12.390   1.557 -0.2897 -0.9530  2.0600
  327MOL0     H44124   0.478  12.500   1.496 -0.1126  0.1626 -2.3185
  327MOL0     H44125   1.124  11.624   1.077  1.0421  0.2112  0.5172
  327MOL0     H44126   1.349  11.583   1.180 -2.1941 -0.8097  1.6994
  327MOL0     H44127   1.714  11.584   1.272  0.7523  1.1906 -1.7585
  327MOL0     H44128   1.886  11.504   1.391 -1.8882 -0.7704  0.5856
  327MOL0     H44129   1.615  11.115   2.670  0.3038 -3.3514 -0.0752
  327MOL0     H44130   1.488  10.921   2.624 -1.2889  1.6933  2.3592
  327MOL0     H44131   1.094  10.859   2.295 -0.5840  1.2899 -0.3598
  327MOL0     H44132   0.915  10.726   2.218  2.4052  3.7698 -0.3279
  327MOL0     H44133   0.637  10.518   2.535  0.0809 -1.2124  1.1033
  327MOL0     H44134   0.769  10.399   2.509  2.6113  3.1096 -0.4675
  327MOL0     H44135   0.548  10.427   2.283 -1.1607 -0.1147  0.2545
  327MOL0     H44136   0.524  10.330   2.423  2.2294 -0.7462  1.2729
  327MOL0     H44137   0.699  10.186   2.375 -1.3614 -0.3520  0.1859
  327MOL0     H44138   0.790  10.292   2.272 -0.0499 -1.8306 -1.8300
  327MOL0     H44139   0.605  10.302   2.095 -5.2354  0.9288  1.6535
  327MOL0     H44140   0.671  10.133   2.135 -0.7554 -1.2571  3.9227
  327MOL0     H44141   0.272  10.094   2.266 -0.5535  2.3378  2.0219
  327MOL0     H44142   0.876  10.585   2.629 -0.3446 -0.6423 -0.9047
  327MOL0     H44143   1.187  10.686   2.748  0.0917 -1.8849  0.4976
  327MOL0     H44144   1.035  10.751   2.815 -0.5269  1.2866 -0.5509
  327MOL0     H44145   1.042  10.586   2.770  0.3745  0.2641  2.4824
  328MOL0     O44146   9.116   8.260   4.043  0.2963  0.1558  0.3500
  328MOL0     C44147   9.192   8.193   4.117 -0.0247  0.8628 -0.4378
  328MOL0     O44148   9.154   8.096   4.204 -1.0418 -0.1676 -0.3259
  328MOL0     C44149   9.027   8.058   4.198 -0.5025 -0.4561 -0.9069
  328MOL0     C44150   8.936   8.114   4.283  0.1473  0.4423  0.2371
  328MOL0     C44151   8.794   8.090   4.268 -0.0846  0.2775 -0.3079
  328MOL0     C44152   8.743   8.000   4.174 -0.2121  1.1529 -0.6635
  328MOL0     O44153   8.615   7.967   4.191 -0.5132 -0.0837 -0.1602
  328MOL0     C44154   8.548   7.925   4.073  0.2282  0.2926  0.1574
  328MOL0     C44155   8.516   8.029   3.969  0.7033  0.1065 -0.0946
  328MOL0     C44156   8.428   8.153   4.009 -0.3678 -0.0826 -0.8770
  328MOL0     C44157   8.286   8.128   4.072 -0.6066  0.0371  0.0556
  328MOL0     C44158   8.193   8.042   3.989 -0.1452  0.3577 -0.4011
  328MOL0     C44159   8.062   8.027   4.068  0.1036 -0.7245 -0.6808
  328MOL0     C44160   7.961   7.944   3.997  0.2370 -0.4911 -0.2387
  328MOL0     C44161   8.003   7.820   3.920 -0.0174 -0.5976  1.0225
  328MOL0     N44162   7.889   7.750   3.852 -0.1006  0.3567  0.1895
  328MOL0     C44163   7.790   7.815   3.794  0.0541  0.3169 -0.4278
  328MOL0     C44164   7.717   7.721   3.734  0.1108  0.4356  0.5647
  328MOL0     C44165   7.613   7.757   3.632 -0.8310  0.8271  0.2183
  328MOL0     C44166   7.480   7.698   3.657 -0.5983 -0.4596  0.1418
  328MOL0     C44167   7.470   7.546   3.650  0.4777 -0.8921 -0.0483
  328MOL0     C44168   7.320   7.501   3.650  0.2165 -0.5383  0.1991
  328MOL0     O44169   7.270   7.476   3.518 -0.0862  0.3802 -0.4315
  328MOL0     C44170   7.148   7.423   3.502  0.1818 -0.3563 -0.0610
  328MOL0     C44171   7.057   7.409   3.611 -0.0336 -0.0195 -1.2593
  328MOL0     C44172   6.928   7.376   3.597  0.1171 -0.5887 -0.3687
  328MOL0     C44173   6.887   7.317   3.483 -0.0677 -0.5852  0.5142
  328MOL0     C44174   6.754   7.259   3.472  0.7116 -0.3911 -0.1601
  328MOL0     O44175   6.721   7.199   3.354  0.5498  0.2743  1.4782
  328MOL0     C44176   6.589   7.160   3.320 -0.3508 -0.6143  0.5118
  328MOL0     C44177   6.580   7.075   3.216 -0.8584 -0.0028  0.2904
  328MOL0     C44178   6.452   7.022   3.174  0.4539  0.1658  0.0508
  328MOL0     C44179   6.334   7.073   3.224 -1.4910 -0.6270  0.1437
  328MOL0     O44180   6.207   7.039   3.176  0.2781 -0.0735  0.9442
  328MOL0     C44181   6.169   7.105   3.055 -0.4238  0.6767 -0.7683
  328MOL0     C44182   6.085   7.023   2.950 -0.9221  0.1209 -0.3871
  328MOL0     C44183   5.962   6.964   3.007 -0.4664 -0.4918  0.5928
  328MOL0     C44184   5.871   6.916   2.893 -0.2590 -0.4226 -0.6599
  328MOL0     C44185   5.738   6.865   2.951 -0.5168  1.0045  0.0296
  328MOL0     C44186   5.663   6.806   2.826  0.3888  0.5667 -0.6961
  328MOL0     C44187   5.518   6.774   2.870  0.2722 -0.8144  0.6010
  328MOL0     C44188   5.437   6.730   2.749  0.5716 -0.4549  0.7768
  328MOL0    Cl44189   5.268   6.689   2.792  0.1849  0.0632 -0.4835
  328MOL0     C44190   6.344   7.167   3.321 -0.5090  0.1924  0.1565
  328MOL0     C44191   6.468   7.222   3.358 -0.0228 -0.0976  0.5167
  328MOL0     O44192   6.683   7.267   3.573  0.0086  0.2456 -0.3023
  328MOL0     C44193   6.977   7.322   3.375 -0.3548 -0.0053 -0.1948
  328MOL0     C44194   7.106   7.378   3.382  0.1342 -0.0380  0.3145
  328MOL0     N44195   7.765   7.592   3.774 -0.2026 -0.4789  0.3338
  328MOL0     N44196   7.865   7.618   3.849  0.2535  0.6493 -0.1907
  328MOL0     C44197   8.841   7.936   4.095 -0.8156 -0.4078  0.9484
  328MOL0     C44198   8.979   7.975   4.102 -0.3960  0.3264  1.0459
  328MOL0     C44199   9.336   8.225   4.124 -0.8538  0.1972  0.9656
  328MOL0     C44200   9.361   8.350   4.169 -0.1560 -0.0539 -0.0200
  328MOL0     C44201   9.485   8.384   4.214 -1.0064  0.7399 -1.2795
  328MOL0     C44202   9.592   8.294   4.217 -0.1334  0.9915  0.6500
  328MOL0     O44203   9.718   8.311   4.268 -0.3597 -0.5315  0.1069
  328MOL0     C44204   9.737   8.436   4.331 -0.1396 -0.0818 -0.2763
  328MOL0     C44205   9.870   8.445   4.382  0.5338 -0.1186  0.3263
  328MOL0     C44206   9.971   8.461   4.267 -0.2878 -0.8713 -0.0038
  328MOL0     C44207  10.117   8.481   4.334  1.1457  0.3294  0.5309
  328MOL0     C44208  10.223   8.449   4.238 -0.2463 -0.3646  0.6317
  328MOL0     C44209  10.321   8.413   4.178 -0.5155 -0.4661  0.0981
  328MOL0     C44210   9.563   8.165   4.167 -0.0899 -0.3422  0.5447
  328MOL0     C44211   9.440   8.130   4.108 -0.2860 -0.6446  0.1015
  328MOL0     C44212   9.409   7.995   4.063 -0.0619 -0.0934  0.3600
  328MOL0     H44213   8.974   8.185   4.356 -1.0438  1.9154 -0.5156
  328MOL0     H44214   8.727   8.144   4.336 -0.3154 -1.4621  0.9238
  328MOL0     H44215   8.611   7.851   4.022 -1.0369 -0.0835 -0.9353
  328MOL0     H44216   8.455   7.879   4.104  0.7955 -0.5139  0.6846
  328MOL0     H44217   8.453   7.977   3.896 -1.0632 -0.1011  1.4693
  328MOL0     H44218   8.604   8.062   3.914 -1.0945  0.1000 -3.2301
  328MOL0     H44219   8.418   8.210   3.916 -0.6469 -2.3127 -2.2826
  328MOL0     H44220   8.487   8.212   4.079  0.8086 -0.7120 -1.3177
  328MOL0     H44221   8.298   8.076   4.167  0.8506 -1.5321 -0.9325
  328MOL0     H44222   8.217   8.213   4.079 -2.0282 -1.0010 -0.7161
  328MOL0     H44223   8.180   8.095   3.895  0.5484  0.0888 -0.6517
  328MOL0     H44224   8.242   7.946   3.972 -1.8181 -0.3687 -1.3814
  328MOL0     H44225   8.088   7.976   4.161 -1.7838 -0.6738 -0.0905
  328MOL0     H44226   8.017   8.122   4.097  0.7308 -0.6323  0.0342
  328MOL0     H44227   7.919   8.019   3.929 -0.8262 -0.9940 -0.1684
  328MOL0     H44228   7.883   7.905   4.064 -0.9966  1.0888 -0.6965
  328MOL0     H44229   8.073   7.850   3.841 -0.6284  2.6563  1.6128
  328MOL0     H44230   8.047   7.743   3.984 -0.2511 -2.0051 -0.4425
  328MOL0     H44231   7.771   7.920   3.776 -0.4062  0.1582 -0.9103
  328MOL0     H44232   7.610   7.863   3.604  3.2584  0.9256 -0.5229
  328MOL0     H44233   7.641   7.715   3.535  0.2956  0.6813  0.5921
  328MOL0     H44234   7.441   7.738   3.751 -0.8070 -0.9416  0.2658
  328MOL0     H44235   7.417   7.739   3.579  2.5106  1.1630 -1.7126
  328MOL0     H44236   7.510   7.506   3.744 -2.0812  0.2452  1.6395
  328MOL0     H44237   7.519   7.491   3.569 -3.1169 -3.9473 -0.4268
  328MOL0     H44238   7.254   7.581   3.685  1.0048  0.1789  0.0959
  328MOL0     H44239   7.310   7.410   3.710 -1.5412 -0.1694  0.5237
  328MOL0     H44240   7.081   7.439   3.712  0.2823 -0.9829 -1.0370
  328MOL0     H44241   6.880   7.416   3.686  2.4125  0.5625  0.4120
  328MOL0     H44242   6.671   7.050   3.163 -1.5241  1.6962 -1.8079
  328MOL0     H44243   6.433   6.951   3.094 -2.3831  2.3189 -1.3459
  328MOL0     H44244   6.101   7.184   3.088  0.6855  1.0616  0.6770
  328MOL0     H44245   6.253   7.142   2.996 -0.2607 -0.6499 -1.4234
  328MOL0     H44246   6.065   7.109   2.886 -1.3616 -0.4143 -0.9859
  328MOL0     H44247   6.149   6.940   2.916 -1.0570 -0.7295  1.3421
  328MOL0     H44248   5.992   6.889   3.082 -1.1271 -2.2624 -0.8459
  328MOL0     H44249   5.905   7.036   3.065  1.3451  0.8133  0.8474
  328MOL0     H44250   5.919   6.831   2.842 -0.4738 -0.2772 -1.1130
  328MOL0     H44251   5.855   7.001   2.826 -0.1361  0.8446  0.8582
  328MOL0     H44252   5.685   6.941   3.008 -2.9795 -1.1135  0.7116
  328MOL0     H44253   5.765   6.782   3.017 -2.3923  1.3300  1.2517
  328MOL0     H44254   5.655   6.886   2.751 -2.2939  0.8033 -0.2580
  328MOL0     H44255   5.715   6.728   2.771 -0.2079  0.1909 -0.7391
  328MOL0     H44256   5.479   6.868   2.908 -0.8946 -1.7726  1.8821
  328MOL0     H44257   5.510   6.706   2.956 -2.6089  0.5766  1.5622
  328MOL0     H44258   5.438   6.805   2.671 -2.5032 -1.1237 -0.0573
  328MOL0     H44259   5.471   6.637   2.702 -0.2631 -1.5818  2.2790
  328MOL0     H44260   6.256   7.218   3.360  1.4605  1.2415  3.6383
  328MOL0     H44261   6.472   7.312   3.419  1.7461  0.4196 -0.2944
  328MOL0     H44262   6.947   7.284   3.278 -1.4122  0.3831 -0.0293
  328MOL0     H44263   7.169   7.377   3.294 -1.0649 -1.0461 -0.5541
  328MOL0     H44264   8.815   7.855   4.028  1.5021 -1.3942  1.1664
  328MOL0     H44265   9.059   7.940   4.037  0.6309  1.7612  1.4820
  328MOL0     H44266   9.278   8.414   4.198 -1.3880 -1.5701 -0.0635
  328MOL0     H44267   9.489   8.479   4.265  1.7861  0.4959 -0.8484
  328MOL0     H44268   9.673   8.432   4.420 -1.1767  4.0327 -0.6564
  328MOL0     H44269   9.719   8.523   4.267 -0.2479  0.4057  0.4092
  328MOL0     H44270   9.898   8.350   4.430  1.9624  0.3671  0.5163
  328MOL0     H44271   9.878   8.527   4.454 -0.4357 -0.6666  1.0934
  328MOL0     H44272   9.949   8.553   4.212  0.7458  0.5919  1.8970
  328MOL0     H44273   9.974   8.382   4.191 -0.8804 -2.6940  1.7708
  328MOL0     H44274  10.127   8.582   4.374  1.1135 -0.2524  2.0504
  328MOL0     H44275  10.122   8.412   4.418  1.7302  0.2101  0.4054
  328MOL0     H44276  10.407   8.374   4.127  0.0589  2.2789 -1.2350
  328MOL0     H44277   9.639   8.088   4.165  1.8219  1.4521  0.4039
  328MOL0     H44278   9.493   7.955   4.006 -0.3813 -1.4796  0.8031
  328MOL0     H44279   9.390   7.921   4.142 -2.9068 -0.5219 -0.5868
  328MOL0     H44280   9.321   7.989   3.998 -0.4479 -1.2948  0.9532
  329MOL0     O44281   7.139   1.894   0.471  0.7181 -0.0987  0.5454
  329MOL0     C44282   7.178   2.003   0.510  0.9805  0.3272 -0.2360
  329MOL0     O44283   7.134   2.123   0.461  0.1012 -0.5416 -0.0211
  329MOL0     C44284   7.020   2.118   0.395  0.2267  0.2420 -0.1938
  329MOL0     C44285   6.910   2.175   0.464  0.1230 -0.1201 -0.8118
  329MOL0     C44286   6.790   2.200   0.395 -0.3856 -0.4675  0.1950
  329MOL0     C44287   6.771   2.159   0.264 -0.4482 -0.5802  0.4785
  329MOL0     O44288   6.653   2.167   0.193 -0.2694 -0.0334  0.1926
  329MOL0     C44289   6.569   2.273   0.217 -0.3027  0.1126 -0.2589
  329MOL0     C44290   6.561   2.370   0.108  0.4120 -0.3480  0.2635
  329MOL0     C44291   6.514   2.312  -0.025  0.3642  0.6627  0.5468
  329MOL0     C44292   6.361   2.332  -0.046  0.0416  0.5300  0.5448
  329MOL0     C44293   6.313   2.251  -0.170 -0.7992  0.1418  0.1528
  329MOL0     C44294   6.396   2.287  -0.296 -0.0456  1.0212 -0.5046
  329MOL0     C44295   6.336   2.208  -0.411  0.2795 -0.2335 -0.3830
  329MOL0     C44296   6.210   2.270  -0.458  0.8180  1.2707 -0.1418
  329MOL0     N44297   6.250   2.402  -0.525  0.2586  0.1976 -0.0622
  329MOL0     C44298   6.304   2.424  -0.651  0.3288 -0.4280  0.7403
  329MOL0     C44299   6.352   2.547  -0.646 -0.0008  0.7509  0.0334
  329MOL0     C44300   6.423   2.602  -0.763 -0.6498  0.4506  0.4798
  329MOL0     C44301   6.549   2.683  -0.725 -0.0409  0.3470 -0.0021
  329MOL0     C44302   6.632   2.715  -0.851 -0.3273 -0.3308  0.1178
  329MOL0     C44303   6.556   2.771  -0.980  0.3184 -0.2585 -0.2679
  329MOL0     O44304   6.480   2.894  -0.948 -0.1420  0.2660 -0.0331
  329MOL0     C44305   6.562   2.998  -0.956 -0.1252 -0.4365  0.5479
  329MOL0     C44306   6.579   3.089  -1.060 -0.1852 -0.7577  0.3020
  329MOL0     C44307   6.656   3.205  -1.054 -0.0099 -0.1238 -0.1623
  329MOL0     C44308   6.745   3.226  -0.946 -0.3274 -0.3083 -0.5174
  329MOL0     C44309   6.831   3.354  -0.932 -0.7897  0.4272  0.4144
  329MOL0     O44310   6.903   3.383  -0.814 -0.2242  0.6545 -0.1087
  329MOL0     C44311   7.011   3.464  -0.834 -0.5247 -0.0772 -0.3051
  329MOL0     C44312   7.014   3.581  -0.756  0.1488 -1.0022 -0.5512
  329MOL0     C44313   7.122   3.668  -0.773  0.3035 -0.4194  0.0204
  329MOL0     C44314   7.229   3.637  -0.847 -0.1102  0.0316  0.0666
  329MOL0     O44315   7.333   3.724  -0.881 -0.3991  0.0699  0.1295
  329MOL0     C44316   7.350   3.845  -0.805  0.0283  0.7577 -0.3518
  329MOL0     C44317   7.373   3.822  -0.652  0.5623  0.0501  0.5894
  329MOL0     C44318   7.399   3.960  -0.584  0.7380 -0.5283 -0.3372
  329MOL0     C44319   7.535   4.017  -0.624  0.3113 -0.5960 -0.8198
  329MOL0     C44320   7.560   4.159  -0.581  0.5394 -0.3582 -0.6423
  329MOL0     C44321   7.687   4.218  -0.633  0.2415 -0.6619  0.2041
  329MOL0     C44322   7.802   4.188  -0.545  0.1089 -0.0162  0.0264
  329MOL0     C44323   7.942   4.234  -0.585 -0.4289 -0.0652 -1.0345
  329MOL0    Cl44324   8.018   4.185  -0.750 -0.3018 -0.6188 -0.1315
  329MOL0     C44325   7.231   3.517  -0.921 -0.1005  0.4912  0.1282
  329MOL0     C44326   7.125   3.421  -0.906  0.0572 -0.3713 -0.1407
  329MOL0     O44327   6.837   3.415  -1.040  0.6321  0.3021 -0.2261
  329MOL0     C44328   6.727   3.130  -0.837  0.0120 -0.1100 -0.2825
  329MOL0     C44329   6.640   3.024  -0.844  0.8909  0.0041  0.0274
  329MOL0     N44330   6.329   2.613  -0.528 -0.2633  1.5231  0.3287
  329MOL0     N44331   6.258   2.523  -0.459 -0.6141 -0.2994  0.0734
  329MOL0     C44332   6.881   2.110   0.191 -0.2870 -0.0492 -1.5404
  329MOL0     C44333   7.005   2.100   0.254 -0.8952  0.1718  0.1021
  329MOL0     C44334   7.287   1.999   0.617 -0.1918 -0.5849  0.6139
  329MOL0     C44335   7.352   1.870   0.627  0.3673 -0.4546 -0.8125
  329MOL0     C44336   7.456   1.858   0.718 -0.9035  0.6294 -0.4530
  329MOL0     C44337   7.491   1.965   0.804  0.2032  0.2312  0.4704
  329MOL0     O44338   7.597   1.934   0.888  0.2079  0.2787 -0.9287
  329MOL0     C44339   7.594   1.984   1.022  0.6357 -0.4701  0.3084
  329MOL0     C44340   7.717   2.069   1.046  0.7594 -0.9245  0.2008
  329MOL0     C44341   7.678   2.165   1.167 -0.3244 -0.3022 -0.1114
  329MOL0     C44342   7.803   2.233   1.231 -0.0701 -0.6484  0.5635
  329MOL0     C44343   7.882   2.316   1.133 -0.0056  0.0322 -0.4459
  329MOL0     C44344   7.937   2.390   1.051  0.5372  0.1795 -0.4465
  329MOL0     C44345   7.424   2.086   0.790 -0.2366 -0.2514 -0.4321
  329MOL0     C44346   7.324   2.109   0.695 -0.0431 -0.0598  1.0735
  329MOL0     C44347   7.280   2.251   0.674 -0.1861  0.2090  0.2741
  329MOL0     H44348   6.925   2.203   0.568 -3.5756 -0.0624 -0.1547
  329MOL0     H44349   6.705   2.231   0.455 -1.1401 -3.2126  0.6379
  329MOL0     H44350   6.465   2.237   0.223 -0.2452  0.1398  1.5675
  329MOL0     H44351   6.597   2.330   0.306  1.2874 -0.2828 -0.4803
  329MOL0     H44352   6.658   2.419   0.097  0.5648 -1.0037 -1.6841
  329MOL0     H44353   6.496   2.455   0.133  0.0427  0.4105 -2.8883
  329MOL0     H44354   6.538   2.206  -0.029 -1.0019  0.3378  0.3130
  329MOL0     H44355   6.562   2.370  -0.104 -1.0207  1.5559  0.3214
  329MOL0     H44356   6.311   2.309   0.048 -0.8604 -3.2578 -0.6850
  329MOL0     H44357   6.347   2.437  -0.071  0.8422  0.9447  1.7603
  329MOL0     H44358   6.319   2.145  -0.144  1.5361  0.1744 -0.0608
  329MOL0     H44359   6.206   2.260  -0.192 -0.6373 -0.2153 -0.8264
  329MOL0     H44360   6.405   2.395  -0.312 -1.4705  0.8768 -2.6298
  329MOL0     H44361   6.501   2.258  -0.286 -0.1407  1.4638  3.1705
  329MOL0     H44362   6.308   2.106  -0.383  0.2688 -0.2053 -0.2941
  329MOL0     H44363   6.393   2.197  -0.503 -4.9105 -2.3048 -3.8734
  329MOL0     H44364   6.162   2.204  -0.531  0.6143  0.9563  0.2793
  329MOL0     H44365   6.128   2.287  -0.388 -0.2398 -0.2063 -0.9513
  329MOL0     H44366   6.312   2.358  -0.737 -0.6770  1.2586 -0.7372
  329MOL0     H44367   6.458   2.514  -0.818  2.7059  3.5435 -2.8612
  329MOL0     H44368   6.368   2.673  -0.825 -0.6397  0.7910  0.8561
  329MOL0     H44369   6.519   2.771  -0.668  0.6557 -0.5996  1.9167
  329MOL0     H44370   6.614   2.624  -0.660 -1.4688  1.3411  2.4635
  329MOL0     H44371   6.668   2.615  -0.877  0.6236 -0.6014  2.1986
  329MOL0     H44372   6.718   2.777  -0.823  0.2796 -1.4301  0.7553
  329MOL0     H44373   6.481   2.704  -1.021  0.2279  0.3182 -1.0715
  329MOL0     H44374   6.635   2.794  -1.053 -1.3021  0.2737 -1.9129
  329MOL0     H44375   6.515   3.080  -1.147  1.2351  0.4166 -0.9065
  329MOL0     H44376   6.642   3.276  -1.134  0.6774  0.0284 -0.1533
  329MOL0     H44377   6.940   3.597  -0.678  0.0683 -2.8027 -0.2231
  329MOL0     H44378   7.108   3.760  -0.716  1.1575 -0.6589  0.6301
  329MOL0     H44379   7.436   3.900  -0.844 -0.6646  0.8906 -1.7380
  329MOL0     H44380   7.258   3.903  -0.818 -0.3444 -0.2645 -2.8127
  329MOL0     H44381   7.279   3.781  -0.614 -2.8119  5.0179 -1.4616
  329MOL0     H44382   7.452   3.749  -0.632 -0.8239 -1.9670 -0.7647
  329MOL0     H44383   7.325   4.038  -0.604  1.9255  1.7631  3.2769
  329MOL0     H44384   7.387   3.934  -0.478  0.9938 -0.1059 -0.2064
  329MOL0     H44385   7.553   4.020  -0.732 -2.4861  1.4025 -1.3437
  329MOL0     H44386   7.610   3.955  -0.573  0.1099 -0.0598  0.1459
  329MOL0     H44387   7.559   4.178  -0.473  0.4039  2.5004 -1.0546
  329MOL0     H44388   7.477   4.219  -0.621  0.9030  1.6353  1.3761
  329MOL0     H44389   7.704   4.187  -0.737  1.3106  1.6973 -0.3971
  329MOL0     H44390   7.678   4.326  -0.650  1.6165 -0.5944 -0.2496
  329MOL0     H44391   7.812   4.081  -0.521  1.2032 -0.0331 -0.4215
  329MOL0     H44392   7.790   4.227  -0.443  0.2556 -1.0714  0.4731
  329MOL0     H44393   7.949   4.343  -0.579 -1.3996 -0.0148 -0.5269
  329MOL0     H44394   8.015   4.200  -0.511 -0.3301  1.6425 -0.3020
  329MOL0     H44395   7.319   3.508  -0.985  0.2430  1.4634  0.4447
  329MOL0     H44396   7.129   3.329  -0.963  0.0616  0.7755 -2.0614
  329MOL0     H44397   6.771   3.167  -0.745 -1.3351 -2.1254  1.2678
  329MOL0     H44398   6.633   2.959  -0.758 -0.4284  0.4610  0.2875
  329MOL0     H44399   6.868   2.072   0.090 -0.0578  0.4483 -1.7604
  329MOL0     H44400   7.092   2.067   0.199  0.6662  0.2016  2.3979
  329MOL0     H44401   7.328   1.785   0.564  0.0044 -1.8689  1.1216
  329MOL0     H44402   7.510   1.764   0.729 -2.0475 -0.1133 -1.0228
  329MOL0     H44403   7.583   1.898   1.089 -0.2316 -1.2413 -0.7695
  329MOL0     H44404   7.507   2.045   1.046  1.7229  1.4024 -0.3172
  329MOL0     H44405   7.741   2.131   0.959  0.6084  1.1579  1.5931
  329MOL0     H44406   7.801   2.002   1.068  2.2939  0.8645  0.0968
  329MOL0     H44407   7.624   2.114   1.248  2.4437 -0.7966  1.5686
  329MOL0     H44408   7.617   2.247   1.128 -2.5621 -1.9523 -0.2789
  329MOL0     H44409   7.774   2.290   1.319  0.2375  0.2644  0.0823
  329MOL0     H44410   7.878   2.156   1.252  0.9588 -0.0214 -0.6627
  329MOL0     H44411   8.000   2.442   0.982 -1.5401  0.3809 -2.2906
  329MOL0     H44412   7.437   2.172   0.855 -3.1441 -0.7935  1.0294
  329MOL0     H44413   7.294   2.306   0.768 -1.8354 -0.2280  0.8128
  329MOL0     H44414   7.332   2.298   0.590  2.2841  1.7674  2.5149
  329MOL0     H44415   7.171   2.261   0.668 -0.7474 -0.1707  5.1842
  330MOL0     O44416   2.804  10.058   5.405 -0.3264  0.0528  0.0647
  330MOL0     C44417   2.806  10.069   5.280  0.0707 -0.3233  0.5859
  330MOL0     O44418   2.818  10.184   5.208  0.1631 -0.1678  0.2612
  330MOL0     C44419   2.860  10.293   5.265 -0.1230  0.5216 -0.3745
  330MOL0     C44420   2.774  10.354   5.364  0.1190  0.3710  0.1289
  330MOL0     C44421   2.805  10.475   5.426 -0.7652 -1.1318 -0.1137
  330MOL0     C44422   2.919  10.544   5.382 -0.2573 -0.0664  0.2874
  330MOL0     O44423   2.953  10.665   5.440 -0.2788 -0.1658  0.3708
  330MOL0     C44424   2.978  10.657   5.577 -0.3325 -0.2907  0.3844
  330MOL0     C44425   3.125  10.622   5.599  0.5725  1.0042  1.0908
  330MOL0     C44426   3.215  10.745   5.598 -0.0469  0.6226  1.1486
  330MOL0     C44427   3.352  10.740   5.665  0.2271  0.7329 -1.1041
  330MOL0     C44428   3.417  10.872   5.672 -0.6114 -0.4305 -0.2387
  330MOL0     C44429   3.553  10.860   5.751 -0.0777  0.6956  0.2400
  330MOL0     C44430   3.617  10.989   5.796  0.3921  0.2995 -1.0686
  330MOL0     C44431   3.670  11.078   5.682  0.3356  0.2574 -0.7020
  330MOL0     N44432   3.803  11.118   5.721 -0.5008  0.5618 -0.2111
  330MOL0     C44433   3.829  11.224   5.804 -0.9849  0.4279 -0.4243
  330MOL0     C44434   3.971  11.229   5.781  0.1139 -0.0499 -0.2710
  330MOL0     C44435   4.067  11.347   5.815  0.1209 -0.8348 -0.6674
  330MOL0     C44436   4.012  11.449   5.908 -0.9297 -0.1222 -0.5602
  330MOL0     C44437   4.105  11.577   5.922 -0.5081  0.5050  0.6610
  330MOL0     C44438   4.032  11.682   6.007  0.5310  0.6416  0.1141
  330MOL0     O44439   4.009  11.646   6.136 -0.5161  0.5417 -0.0585
  330MOL0     C44440   4.107  11.640   6.228 -0.2565 -0.6270 -0.4669
  330MOL0     C44441   4.068  11.583   6.346  1.0546 -0.0971  0.1715
  330MOL0     C44442   4.158  11.582   6.452 -0.8980  0.6265 -0.0065
  330MOL0     C44443   4.286  11.634   6.442 -0.4967  0.5047 -0.4586
  330MOL0     C44444   4.378  11.649   6.565  0.3078 -0.5145  0.4003
  330MOL0     O44445   4.345  11.595   6.687 -0.1001 -0.2367 -0.4177
  330MOL0     C44446   4.444  11.621   6.786 -0.5375  0.5995  0.5069
  330MOL0     C44447   4.426  11.733   6.873 -0.2664  0.3051  0.0555
  330MOL0     C44448   4.505  11.750   6.984  0.3609  0.6008 -0.4745
  330MOL0     C44449   4.609  11.663   7.012  0.5840  1.0797  0.3191
  330MOL0     O44450   4.696  11.698   7.112 -0.0921  0.0001 -0.2433
  330MOL0     C44451   4.827  11.644   7.103  0.2362  0.0215  0.0288
  330MOL0     C44452   4.880  11.698   7.228  0.1202 -0.4436 -0.5840
  330MOL0     C44453   5.028  11.651   7.271  0.6536  0.7082 -0.0426
  330MOL0     C44454   5.078  11.733   7.386 -0.8640  0.0353  0.4223
  330MOL0     C44455   5.233  11.722   7.408  0.9242 -0.1788  0.2490
  330MOL0     C44456   5.307  11.769   7.280  0.8450 -0.3805 -0.2566
  330MOL0     C44457   5.456  11.759   7.318  0.1404 -0.8212  0.0329
  330MOL0     C44458   5.541  11.793   7.198 -0.1756 -0.3082  0.7496
  330MOL0    Cl44459   5.710  11.735   7.231  0.0434  0.0296 -0.2001
  330MOL0     C44460   4.634  11.555   6.920 -0.4358 -0.8280  0.0955
  330MOL0     C44461   4.545  11.529   6.809 -0.6599  0.0791 -0.1042
  330MOL0     O44462   4.474  11.721   6.539  0.3743  0.1412  0.2679
  330MOL0     C44463   4.321  11.686   6.324 -0.1145 -0.6917  0.2056
  330MOL0     C44464   4.237  11.691   6.217 -0.0433  0.2225  0.4160
  330MOL0     N44465   4.009  11.127   5.691 -0.0620  0.8371  0.4298
  330MOL0     N44466   3.904  11.063   5.655 -0.7851 -1.0243  0.5935
  330MOL0     C44467   3.001  10.491   5.276 -0.3193 -0.2603  0.2959
  330MOL0     C44468   2.974  10.364   5.223 -0.6691 -0.3127  0.1684
  330MOL0     C44469   2.769   9.936   5.208  0.6107  0.0563 -1.1990
  330MOL0     C44470   2.671   9.857   5.263 -0.6751  0.6675 -0.3263
  330MOL0     C44471   2.621   9.739   5.199 -0.3990  0.0520 -0.1919
  330MOL0     C44472   2.679   9.693   5.080 -0.6382 -0.3782 -0.1800
  330MOL0     O44473   2.631   9.581   5.011  0.5281  0.0956  0.2921
  330MOL0     C44474   2.488   9.580   4.988 -0.3244  0.2111 -0.9698
  330MOL0     C44475   2.461   9.535   4.844 -0.0620  0.5524 -0.9738
  330MOL0     C44476   2.309   9.554   4.827  0.4594 -0.5538  0.0015
  330MOL0     C44477   2.257   9.546   4.687 -0.1504 -0.2786 -0.0288
  330MOL0     C44478   2.117   9.593   4.685 -0.4076 -0.0999  0.3648
  330MOL0     C44479   1.995   9.636   4.685  0.1756 -0.2309  0.2258
  330MOL0     C44480   2.783   9.775   5.028 -0.5178 -0.4573  0.3835
  330MOL0     C44481   2.816   9.901   5.080  0.1823 -0.5326  0.6832
  330MOL0     C44482   2.896   9.991   4.997  0.2726 -0.5525  0.2452
  330MOL0     H44483   2.692  10.296   5.407  1.2087  0.2789  2.2281
  330MOL0     H44484   2.736  10.514   5.500 -1.0720 -0.6270 -0.6533
  330MOL0     H44485   2.955  10.751   5.629 -0.0606 -0.1193  0.1992
  330MOL0     H44486   2.911  10.583   5.622  0.1496 -1.7664 -1.2426
  330MOL0     H44487   3.159  10.546   5.528 -0.3686  1.9258 -0.3956
  330MOL0     H44488   3.137  10.577   5.698  0.0856  0.5428  0.9465
  330MOL0     H44489   3.151  10.825   5.636  0.4170  2.2369 -1.2591
  330MOL0     H44490   3.242  10.771   5.495 -2.3204  0.2890  0.3967
  330MOL0     H44491   3.341  10.702   5.767 -0.9596 -0.2939 -1.5963
  330MOL0     H44492   3.420  10.676   5.608  2.1242  1.7444 -0.0894
  330MOL0     H44493   3.439  10.923   5.578  2.7795  0.1136  0.7164
  330MOL0     H44494   3.346  10.933   5.729  2.5094  2.9465  0.4485
  330MOL0     H44495   3.542  10.792   5.836  2.7039 -4.1988 -2.8594
  330MOL0     H44496   3.623  10.798   5.695 -0.3165 -0.3323  1.0559
  330MOL0     H44497   3.695  10.975   5.872 -0.4559 -0.1347 -0.2615
  330MOL0     H44498   3.539  11.034   5.858  1.5143 -0.7445  1.2248
  330MOL0     H44499   3.671  11.021   5.588  1.6292  0.4185 -0.8076
  330MOL0     H44500   3.605  11.165   5.666  1.3475  1.1235 -0.2194
  330MOL0     H44501   3.762  11.283   5.867 -1.1030 -0.9341  0.7699
  330MOL0     H44502   4.158  11.303   5.857  0.4497 -1.6572 -2.1368
  330MOL0     H44503   4.101  11.398   5.724 -1.4708  2.3141  0.3588
  330MOL0     H44504   3.915  11.479   5.866 -2.0655  0.2619  2.1035
  330MOL0     H44505   3.995  11.415   6.011 -0.9209 -0.0628 -0.5389
  330MOL0     H44506   4.107  11.619   5.821 -2.6165 -0.2076  0.2639
  330MOL0     H44507   4.208  11.553   5.952 -1.0486 -0.7768  1.5729
  330MOL0     H44508   3.931  11.703   5.971 -0.2162 -0.1497  1.6376
  330MOL0     H44509   4.085  11.776   5.987 -0.9503  0.9585 -3.0140
  330MOL0     H44510   3.966  11.546   6.351  1.0664 -0.3889 -1.3225
  330MOL0     H44511   4.127  11.537   6.546 -0.5617  2.5298  1.0547
  330MOL0     H44512   4.339  11.797   6.866  1.1099  2.5755  2.0901
  330MOL0     H44513   4.481  11.832   7.052  0.3477 -0.0920  0.3816
  330MOL0     H44514   4.829  11.534   7.103 -0.5235 -0.0035 -0.7266
  330MOL0     H44515   4.880  11.685   7.017 -3.8563  3.5326 -1.1806
  330MOL0     H44516   4.885  11.805   7.207  1.2657 -0.1537  0.9524
  330MOL0     H44517   4.813  11.695   7.314  0.5429  2.2339 -0.0491
  330MOL0     H44518   5.019  11.550   7.311 -0.5315  0.7462 -0.1815
  330MOL0     H44519   5.097  11.642   7.187  0.9514 -3.8674  0.4320
  330MOL0     H44520   5.034  11.701   7.481  1.6672 -0.2095  1.5958
  330MOL0     H44521   5.065  11.842   7.379 -1.2781  0.1611  2.3583
  330MOL0     H44522   5.253  11.616   7.423 -0.7481 -0.7535 -1.2179
  330MOL0     H44523   5.277  11.769   7.496  2.7428 -3.0004  0.9775
  330MOL0     H44524   5.298  11.711   7.187  1.0167  2.7703 -2.4105
  330MOL0     H44525   5.279  11.871   7.250 -0.2225 -0.6467 -0.1933
  330MOL0     H44526   5.486  11.657   7.343  3.3016  0.2353  0.9686
  330MOL0     H44527   5.480  11.832   7.396 -1.2956 -2.9265  2.6125
  330MOL0     H44528   5.514  11.747   7.103  1.4647 -3.3608  1.6534
  330MOL0     H44529   5.542  11.902   7.184  4.4123 -0.1297  0.9383
  330MOL0     H44530   4.717  11.487   6.931 -1.4870 -2.1319  0.1585
  330MOL0     H44531   4.546  11.437   6.752  0.2127  0.3297 -0.5019
  330MOL0     H44532   4.421  11.722   6.304 -0.8378  0.3074 -1.8492
  330MOL0     H44533   4.285  11.708   6.121  1.5465 -0.7289  0.9834
  330MOL0     H44534   3.097  10.536   5.251 -0.8923  0.4875 -0.6091
  330MOL0     H44535   3.039  10.316   5.151 -0.2159 -1.8665  1.5558
  330MOL0     H44536   2.631   9.883   5.360  0.6909  0.9183  0.1809
  330MOL0     H44537   2.566   9.663   5.252  1.4377 -0.9474  0.3725
  330MOL0     H44538   2.444   9.677   5.008 -0.8806 -0.3461  0.6290
  330MOL0     H44539   2.454   9.497   5.050  3.9167  1.4199  3.6166
  330MOL0     H44540   2.495   9.433   4.825 -0.1579  0.5635 -1.2058
  330MOL0     H44541   2.518   9.595   4.772 -1.5886 -0.1068 -2.8099
  330MOL0     H44542   2.281   9.644   4.882  4.2170  0.6744  0.2023
  330MOL0     H44543   2.264   9.469   4.879  0.8379 -0.4429  0.5132
  330MOL0     H44544   2.306   9.618   4.621  1.2876 -0.1809  1.1135
  330MOL0     H44545   2.279   9.444   4.654  5.1757 -0.0795  1.8575
  330MOL0     H44546   1.891   9.659   4.675  0.4302  0.8678 -0.1083
  330MOL0     H44547   2.833   9.753   4.934  0.1526  0.6903  0.4637
  330MOL0     H44548   2.970  10.045   5.056  1.2740 -1.0328 -0.5258
  330MOL0     H44549   2.949   9.934   4.920  1.0953 -0.8612  1.0226
  330MOL0     H44550   2.825  10.069   4.971 -0.6503 -0.4737  2.7239
  331MOL0     O44551  10.630   4.899   8.093 -0.5965 -0.6014  0.5530
  331MOL0     C44552  10.640   4.794   8.152 -0.2780  0.4898 -0.6699
  331MOL0     O44553  10.755   4.726   8.171  0.2235  0.6443 -0.4750
  331MOL0     C44554  10.874   4.787   8.150  0.7944  0.9397  0.0536
  331MOL0     C44555  10.970   4.715   8.074  0.8516 -0.5301 -0.4674
  331MOL0     C44556  11.108   4.760   8.065 -0.1018  0.1314  1.0542
  331MOL0     C44557  11.141   4.878   8.126  0.5521  0.1072  0.6550
  331MOL0     O44558  11.273   4.912   8.103 -0.2784  0.7344  0.2342
  331MOL0     C44559  11.331   4.981   8.224  0.1875  0.2121  1.1649
  331MOL0     C44560  11.475   4.966   8.221 -0.0214  0.0859  0.8718
  331MOL0     C44561  11.530   4.992   8.358  0.6653 -0.5891 -0.2395
  331MOL0     C44562  11.675   4.971   8.371  0.1629 -0.8076 -0.7181
  331MOL0     C44563  11.719   4.975   8.523 -0.4276 -0.6831  0.3829
  331MOL0     C44564  11.875   4.968   8.541  0.5276 -0.0666 -0.2044
  331MOL0     C44565  11.974   5.035   8.441 -1.2299 -0.5320  0.3838
  331MOL0     C44566  12.112   5.006   8.496  0.2183 -0.6939  0.6753
  331MOL0     N44567  12.213   5.095   8.427  0.5949 -0.0249  0.0589
  331MOL0     C44568  12.209   5.138   8.290 -0.5449  0.3287 -0.1358
  331MOL0     C44569  12.327   5.190   8.260  0.2099  0.3830 -0.0578
  331MOL0     C44570  12.382   5.254   8.128  0.9048  0.4093  0.2639
  331MOL0     C44571  12.443   5.395   8.145  0.0907 -0.0691  0.3648
  331MOL0     C44572  12.490   5.458   8.013  0.0214 -0.6113 -0.0081
  331MOL0     C44573  12.541   5.603   8.009  0.2171  0.4133  0.1438
  331MOL0     O44574  12.595   5.612   7.875  0.3296 -0.3672  0.5663
  331MOL0     C44575  12.619   5.742   7.823 -1.3880  0.1417  0.5050
  331MOL0     C44576  12.716   5.755   7.722 -0.2145 -0.5039 -0.1395
  331MOL0     C44577  12.752   5.875   7.669 -0.7421 -0.1833  0.1025
  331MOL0     C44578  12.701   5.997   7.719  1.0675  0.7014 -0.4668
  331MOL0     C44579  12.745   6.123   7.665  0.4772 -0.8242 -0.3967
  331MOL0     O44580  12.811   6.123   7.545 -0.3319  0.6944  0.0858
  331MOL0     C44581  12.866   6.231   7.488 -0.5894  0.0091  0.5672
  331MOL0     C44582  12.845   6.243   7.349  0.0934 -0.3657  0.0660
  331MOL0     C44583  12.893   6.351   7.280 -0.5010 -0.0141 -0.1702
  331MOL0     C44584  12.988   6.435   7.346  0.1417 -0.4459 -0.6252
  331MOL0     O44585  13.054   6.534   7.279 -0.2686 -0.4998  0.6159
  331MOL0     C44586  13.017   6.569   7.139 -0.3234  0.1085  0.1432
  331MOL0     C44587  13.114   6.673   7.073  0.3253 -0.6450  0.0916
  331MOL0     C44588  13.241   6.615   7.023  0.3138 -0.6217 -0.2511
  331MOL0     C44589  13.332   6.708   6.949 -0.1136  0.0160  0.1100
  331MOL0     C44590  13.457   6.630   6.899 -0.4303 -0.6870 -0.0903
  331MOL0     C44591  13.557   6.744   6.875 -0.7844 -0.4039  0.1158
  331MOL0     C44592  13.520   6.848   6.765  1.2956 -0.2769  0.2580
  331MOL0     C44593  13.609   6.975   6.767 -0.4590  0.0350 -0.1816
  331MOL0    Cl44594  13.758   6.939   6.675  0.3265  0.1588 -0.4389
  331MOL0     C44595  13.011   6.427   7.486  1.0326 -0.6201 -0.0159
  331MOL0     C44596  12.944   6.324   7.557 -0.3166 -1.0467 -0.2138
  331MOL0     O44597  12.715   6.228   7.723  0.5719 -0.8173 -0.0277
  331MOL0     C44598  12.605   5.987   7.821  0.0008  1.1226  0.0152
  331MOL0     C44599  12.570   5.863   7.876  0.3074  0.2508 -0.5622
  331MOL0     N44600  12.400   5.172   8.374  0.2586 -0.2475 -0.6290
  331MOL0     N44601  12.336   5.117   8.471 -0.1325  0.3573  0.6190
  331MOL0     C44602  11.050   4.952   8.210  0.9861 -0.2361  0.4102
  331MOL0     C44603  10.915   4.905   8.220 -0.5456  0.7630 -0.4398
  331MOL0     C44604  10.541   4.746   8.257 -0.4530  0.2219 -0.0236
  331MOL0     C44605  10.580   4.646   8.357 -0.1302  0.3994  0.2845
  331MOL0     C44606  10.481   4.589   8.437  0.0429  0.1302 -0.5398
  331MOL0     C44607  10.348   4.638   8.432 -0.6511  0.0330 -1.0660
  331MOL0     O44608  10.260   4.573   8.517 -0.0229 -0.3745  0.3469
  331MOL0     C44609  10.120   4.541   8.470 -0.2696 -0.2296  0.7299
  331MOL0     C44610  10.090   4.417   8.371  0.6708  0.0563 -0.0309
  331MOL0     C44611  10.212   4.345   8.313  0.5035 -0.3242  0.3475
  331MOL0     C44612  10.169   4.268   8.189  0.4327 -0.1811  1.2010
  331MOL0     C44613  10.084   4.155   8.212  0.3563 -0.0222  0.1816
  331MOL0     C44614  10.007   4.055   8.246 -0.5499 -0.2424  0.1946
  331MOL0     C44615  10.307   4.747   8.347  0.2938  0.3086  1.3486
  331MOL0     C44616  10.405   4.795   8.261  0.5093  0.7668 -0.4205
  331MOL0     C44617  10.353   4.916   8.184  0.3170 -0.2452 -0.1346
  331MOL0     H44618  10.934   4.629   8.019 -0.6580  0.2491 -0.7658
  331MOL0     H44619  11.164   4.701   7.992 -0.1443  0.2774  0.9036
  331MOL0     H44620  11.309   5.088   8.217 -0.0738  0.2990  2.8966
  331MOL0     H44621  11.286   4.931   8.311 -5.6330 -0.7812 -1.9089
  331MOL0     H44622  11.519   5.030   8.144  1.1298 -2.2223 -0.5119
  331MOL0     H44623  11.501   4.863   8.193 -1.5650 -0.0532 -0.1879
  331MOL0     H44624  11.484   4.920   8.426  0.3108 -0.5070 -0.3911
  331MOL0     H44625  11.502   5.093   8.388  0.9095 -0.3784 -0.7027
  331MOL0     H44626  11.690   4.873   8.325 -2.5014 -2.2454  1.1903
  331MOL0     H44627  11.732   5.042   8.311  0.2550 -2.2927 -2.4627
  331MOL0     H44628  11.674   5.064   8.568 -0.5609 -0.1349 -0.7831
  331MOL0     H44629  11.668   4.892   8.572  1.5012 -2.1317  0.0541
  331MOL0     H44630  11.901   4.996   8.644 -1.7781  2.0192 -0.0819
  331MOL0     H44631  11.891   4.861   8.526  0.1151 -0.0459 -0.8200
  331MOL0     H44632  11.953   5.142   8.432 -2.0180 -0.8177 -1.6383
  331MOL0     H44633  11.961   4.990   8.343 -0.3764 -1.3077  0.6118
  331MOL0     H44634  12.110   5.035   8.602  1.1553 -1.6343  0.9730
  331MOL0     H44635  12.145   4.902   8.482  0.6069 -0.3038 -1.6943
  331MOL0     H44636  12.126   5.139   8.220  0.3084  1.3552 -1.1803
  331MOL0     H44637  12.461   5.186   8.096 -0.8660 -2.1098  0.9633
  331MOL0     H44638  12.303   5.259   8.053  1.3617  1.9732 -0.1519
  331MOL0     H44639  12.357   5.456   8.174 -4.4334 -3.9351 -3.3591
  331MOL0     H44640  12.524   5.404   8.218  1.6911  0.2332 -1.3551
  331MOL0     H44641  12.416   5.441   7.935 -2.2402 -1.7595  2.2424
  331MOL0     H44642  12.572   5.395   7.977 -1.2451 -0.7141 -2.9518
  331MOL0     H44643  12.620   5.633   8.078  2.1507  1.4215 -2.3855
  331MOL0     H44644  12.460   5.676   8.020  1.7156  2.1200  0.2343
  331MOL0     H44645  12.759   5.663   7.683 -0.5675 -0.9733  0.5604
  331MOL0     H44646  12.824   5.876   7.588 -1.4269 -0.3338 -0.5161
  331MOL0     H44647  12.775   6.181   7.293  1.0254  0.6593 -2.3793
  331MOL0     H44648  12.867   6.366   7.176 -0.1784  2.6479  0.0738
  331MOL0     H44649  13.022   6.479   7.079 -0.9562 -0.2664  0.6380
  331MOL0     H44650  12.914   6.606   7.144  0.4541  2.3220  3.5692
  331MOL0     H44651  13.049   6.697   6.988 -0.1650  1.7698  1.0799
  331MOL0     H44652  13.129   6.751   7.148 -1.1564 -2.4106  2.3456
  331MOL0     H44653  13.288   6.568   7.110 -0.6160 -0.4496  0.3703
  331MOL0     H44654  13.224   6.531   6.955  0.6645 -0.1164 -0.9764
  331MOL0     H44655  13.363   6.796   7.006 -2.5772  0.8168  0.2897
  331MOL0     H44656  13.276   6.744   6.863  0.7174  1.1095 -0.0127
  331MOL0     H44657  13.443   6.585   6.801 -0.3152 -1.3475  0.1900
  331MOL0     H44658  13.486   6.556   6.975 -0.2833 -0.7730 -0.2311
  331MOL0     H44659  13.583   6.786   6.973  1.7127  1.5928 -1.2815
  331MOL0     H44660  13.649   6.695   6.842 -1.3488 -3.0477  2.1098
  331MOL0     H44661  13.420   6.888   6.787  1.5109  0.2490  0.2907
  331MOL0     H44662  13.508   6.805   6.665 -3.1815  2.6427 -0.7694
  331MOL0     H44663  13.567   7.066   6.724 -0.7887  0.3922  0.8604
  331MOL0     H44664  13.628   7.010   6.869 -2.3582  0.2017  0.1464
  331MOL0     H44665  13.079   6.499   7.529 -0.3376  0.5302  0.3083
  331MOL0     H44666  12.964   6.316   7.664 -1.2344 -0.1894  0.0374
  331MOL0     H44667  12.559   6.080   7.854  0.0571  0.8325  0.9587
  331MOL0     H44668  12.497   5.868   7.957 -0.3107  1.7868 -1.1916
  331MOL0     H44669  11.076   5.043   8.264  1.3914 -1.2848  2.0652
  331MOL0     H44670  10.859   4.969   8.287  0.6169  0.0706  1.2810
  331MOL0     H44671  10.679   4.610   8.381 -0.8144 -1.1783  0.9033
  331MOL0     H44672  10.498   4.509   8.510  2.8898  0.9046 -0.2343
  331MOL0     H44673  10.074   4.631   8.429  1.9682  0.4135 -0.5926
  331MOL0     H44674  10.062   4.534   8.562 -0.1919  1.6477  0.9524
  331MOL0     H44675  10.020   4.441   8.290 -0.4742 -1.2828  0.5104
  331MOL0     H44676  10.044   4.336   8.429  0.1932  1.1794  1.2188
  331MOL0     H44677  10.235   4.264   8.384 -4.0333 -1.5146  0.8132
  331MOL0     H44678  10.291   4.418   8.293 -1.6144  2.0944  0.3394
  331MOL0     H44679  10.112   4.336   8.125  2.9138  1.8409  0.9802
  331MOL0     H44680  10.263   4.245   8.138 -0.3351  0.6326 -0.6772
  331MOL0     H44681   9.945   3.972   8.274  0.8990 -1.1450  0.8469
  331MOL0     H44682  10.207   4.789   8.346 -0.2002 -0.8271  0.5894
  331MOL0     H44683  10.260   4.964   8.216  0.4834 -1.0599  1.7070
  331MOL0     H44684  10.428   4.996   8.185 -2.8822  3.0134 -0.4929
  331MOL0     H44685  10.344   4.890   8.078 -0.2530  1.2890 -0.4796
  332MOL0     O44686   9.618   8.638   5.507  0.2420  0.1412 -0.1403
  332MOL0     C44687   9.538   8.691   5.431 -0.0605  0.2118  0.2488
  332MOL0     O44688   9.578   8.774   5.331  0.7126 -0.3279  0.2840
  332MOL0     C44689   9.705   8.825   5.333  0.3856  0.8632 -0.1377
  332MOL0     C44690   9.805   8.828   5.439  1.1024 -0.4149 -0.0484
  332MOL0     C44691   9.917   8.909   5.414 -0.2292 -0.2613  0.3859
  332MOL0     C44692   9.936   8.960   5.285  0.5265 -0.8029 -0.1784
  332MOL0     O44693  10.044   9.041   5.277  0.0220 -0.2901  0.2902
  332MOL0     C44694  10.122   9.043   5.154 -0.5745 -0.3614  0.1404
  332MOL0     C44695  10.236   8.939   5.162  1.1544 -0.1647  0.9527
  332MOL0     C44696  10.204   8.795   5.190 -0.3802 -0.2672 -0.5790
  332MOL0     C44697  10.332   8.713   5.195  0.6569 -0.8178 -0.3739
  332MOL0     C44698  10.316   8.557   5.225 -0.1216  0.1039  0.2506
  332MOL0     C44699  10.297   8.509   5.363  0.8225  0.4113  0.0230
  332MOL0     C44700  10.384   8.575   5.468 -0.5697  0.2270  0.2606
  332MOL0     C44701  10.351   8.515   5.598  1.2740  0.4258 -0.6400
  332MOL0     N44702  10.424   8.387   5.609  0.1460  0.1007  0.5192
  332MOL0     C44703  10.555   8.373   5.648 -0.2766 -0.1683  0.6199
  332MOL0     C44704  10.581   8.241   5.627  0.3003  0.0917  0.4914
  332MOL0     C44705  10.704   8.166   5.667 -0.3384 -0.5511 -1.3961
  332MOL0     C44706  10.689   8.083   5.799  0.2447 -0.5814 -0.9809
  332MOL0     C44707  10.800   7.978   5.825  0.0902 -0.2489  0.5056
  332MOL0     C44708  10.795   7.914   5.965  0.6429 -0.6316  0.2296
  332MOL0     O44709  10.841   8.012   6.061 -0.5118 -0.0404 -0.0819
  332MOL0     C44710  10.800   8.011   6.191 -0.0594 -0.1409  0.5979
  332MOL0     C44711  10.661   8.044   6.212 -1.1436 -0.3491  0.4815
  332MOL0     C44712  10.607   8.038   6.336  0.4651  0.5437 -0.3768
  332MOL0     C44713  10.689   8.017   6.448  0.4351  0.7236 -0.0973
  332MOL0     C44714  10.627   8.025   6.577  0.0157 -0.1944 -0.3094
  332MOL0     O44715  10.723   8.036   6.676  0.2907  0.6497  0.3189
  332MOL0     C44716  10.675   8.057   6.799  0.4740  0.3328 -0.6323
  332MOL0     C44717  10.651   8.191   6.842  0.0346  0.1148  0.5378
  332MOL0     C44718  10.609   8.212   6.981 -1.2732 -0.5035  0.2286
  332MOL0     C44719  10.571   8.098   7.052 -0.2145 -0.5439 -0.5159
  332MOL0     O44720  10.516   8.096   7.172 -0.4278  0.3034 -0.9501
  332MOL0     C44721  10.543   8.207   7.253  0.0530 -0.4641 -0.3084
  332MOL0     C44722  10.477   8.176   7.389 -0.5383  0.2955 -0.1123
  332MOL0     C44723  10.518   8.272   7.504  0.0950 -0.2858  0.5656
  332MOL0     C44724  10.434   8.248   7.626  1.0233  0.0779 -1.1380
  332MOL0     C44725  10.459   8.351   7.751  0.7166 -0.7313  0.3810
  332MOL0     C44726  10.599   8.359   7.811  0.3700 -0.5071 -0.8329
  332MOL0     C44727  10.651   8.226   7.834 -0.8561  0.2154 -0.5979
  332MOL0     C44728  10.767   8.223   7.934  0.2215  0.3436 -0.4982
  332MOL0    Cl44729  10.797   8.054   8.006 -0.0333  0.1489 -0.0449
  332MOL0     C44730  10.581   7.972   6.991 -0.5567  0.5272 -0.4425
  332MOL0     C44731  10.639   7.945   6.867  0.1924  0.0573  0.0018
  332MOL0     O44732  10.508   8.020   6.595  0.2803  0.1995 -0.6219
  332MOL0     C44733  10.831   7.992   6.432  0.9768 -0.2593 -0.8500
  332MOL0     C44734  10.883   7.983   6.305  0.7425 -0.3321 -0.3858
  332MOL0     N44735  10.474   8.178   5.581  0.2657  0.1821  0.2841
  332MOL0     N44736  10.380   8.267   5.556  0.2838  0.0616 -0.6915
  332MOL0     C44737   9.848   8.939   5.175 -0.0104 -0.1726  0.4917
  332MOL0     C44738   9.725   8.880   5.211  0.1147 -0.2103  0.8572
  332MOL0     C44739   9.393   8.679   5.453 -0.3522 -0.1203  1.9113
  332MOL0     C44740   9.313   8.715   5.339 -0.0454  0.2227 -0.9024
  332MOL0     C44741   9.179   8.685   5.343  0.2266 -0.0621 -0.2680
  332MOL0     C44742   9.117   8.630   5.456  0.7315  0.2710 -0.2255
  332MOL0     O44743   8.993   8.594   5.461  0.9515 -0.2722 -0.6497
  332MOL0     C44744   8.889   8.680   5.512 -0.1950 -0.4012 -0.1476
  332MOL0     C44745   8.860   8.644   5.660 -0.0805  0.4271  0.8541
  332MOL0     C44746   8.796   8.505   5.674  0.4830 -0.2286  0.1027
  332MOL0     C44747   8.788   8.458   5.818 -0.5129  0.4618  0.4524
  332MOL0     C44748   8.921   8.416   5.850 -0.1240 -0.1271  0.3573
  332MOL0     C44749   9.031   8.379   5.892 -0.1453  0.4815  0.4962
  332MOL0     C44750   9.191   8.605   5.570 -0.3322 -0.4906  0.0189
  332MOL0     C44751   9.334   8.624   5.566 -0.1757 -0.5048 -0.1717
  332MOL0     C44752   9.412   8.583   5.695 -0.8900 -0.3074  0.0076
  332MOL0     H44753   9.781   8.785   5.536 -2.9603  1.7578  0.1232
  332MOL0     H44754   9.998   8.918   5.485  1.8296 -0.3681 -1.8199
  332MOL0     H44755  10.065   9.021   5.063  1.9546 -0.6486 -1.4608
  332MOL0     H44756  10.155   9.147   5.152  2.8852 -1.3503  0.6919
  332MOL0     H44757  10.308   8.973   5.237  0.2239  2.3826  0.7626
  332MOL0     H44758  10.275   8.932   5.060 -2.4017 -3.1024 -0.4252
  332MOL0     H44759  10.140   8.746   5.114  1.0412 -0.7796 -1.4893
  332MOL0     H44760  10.175   8.788   5.295  0.8327 -0.6603 -0.2520
  332MOL0     H44761  10.388   8.730   5.103 -2.0266 -5.6314 -3.3594
  332MOL0     H44762  10.384   8.761   5.279  2.2012 -1.0250 -1.1935
  332MOL0     H44763  10.235   8.510   5.168  1.4496 -0.5773 -1.4798
  332MOL0     H44764  10.409   8.505   5.203 -1.0727 -2.9102  2.5791
  332MOL0     H44765  10.195   8.537   5.392  0.3568 -1.8562  0.7592
  332MOL0     H44766  10.301   8.400   5.361 -2.4414  0.1606 -2.8294
  332MOL0     H44767  10.362   8.682   5.466  1.2650  0.6647  1.0400
  332MOL0     H44768  10.492   8.565   5.451 -0.2826 -0.1996  2.0558
  332MOL0     H44769  10.383   8.593   5.667  1.0762  0.5111 -0.6456
  332MOL0     H44770  10.244   8.502   5.616  1.3933 -1.5987 -1.1020
  332MOL0     H44771  10.631   8.443   5.680 -0.2969  1.7219 -2.9577
  332MOL0     H44772  10.738   8.103   5.585 -1.0825  1.0181 -2.9843
  332MOL0     H44773  10.781   8.244   5.677 -1.4740  0.7938 -2.7356
  332MOL0     H44774  10.695   8.155   5.880  0.5506 -0.2796 -1.2681
  332MOL0     H44775  10.594   8.036   5.773 -0.5446  0.9420 -0.9301
  332MOL0     H44776  10.902   8.016   5.811 -0.4090  0.0386 -3.2359
  332MOL0     H44777  10.781   7.901   5.750 -3.0788  0.7764  0.1164
  332MOL0     H44778  10.870   7.835   5.974  0.2995 -0.8474  1.4269
  332MOL0     H44779  10.697   7.885   6.006 -0.1314  1.9636  0.4047
  332MOL0     H44780  10.602   8.078   6.127 -1.6976 -0.8733  0.6452
  332MOL0     H44781  10.499   8.047   6.341  0.5662  1.2792  1.0775
  332MOL0     H44782  10.680   8.269   6.772 -1.7866  0.7722  0.4550
  332MOL0     H44783  10.612   8.314   7.016  0.5533 -0.4465 -0.0112
  332MOL0     H44784  10.649   8.230   7.266 -0.8129  3.2418  1.7081
  332MOL0     H44785  10.489   8.293   7.212  0.5113 -0.2009 -0.3751
  332MOL0     H44786  10.368   8.178   7.376 -0.9389  2.8017  2.4901
  332MOL0     H44787  10.502   8.075   7.420 -1.4091  0.7464  2.2917
  332MOL0     H44788  10.623   8.253   7.527 -0.1314  0.0669  1.9984
  332MOL0     H44789  10.504   8.374   7.468 -0.8741 -0.9304 -1.0111
  332MOL0     H44790  10.448   8.144   7.655 -0.2853 -0.1147 -1.1071
  332MOL0     H44791  10.330   8.263   7.595  0.6201  0.9515  0.4840
  332MOL0     H44792  10.390   8.320   7.829 -0.0131 -0.2553 -0.0662
  332MOL0     H44793  10.428   8.455   7.737 -0.6016 -0.9305  1.6051
  332MOL0     H44794  10.668   8.418   7.749  3.3467 -0.2992  2.3542
  332MOL0     H44795  10.598   8.411   7.908 -2.6899 -1.1081 -0.4415
  332MOL0     H44796  10.683   8.176   7.742 -3.2185 -1.8695 -0.4115
  332MOL0     H44797  10.576   8.162   7.882 -0.1959  1.2848  2.0180
  332MOL0     H44798  10.860   8.264   7.894  3.1921 -1.0957  4.0666
  332MOL0     H44799  10.743   8.280   8.023  1.4820 -1.4163  1.0470
  332MOL0     H44800  10.547   7.887   7.049  1.9746  1.3969  2.5626
  332MOL0     H44801  10.658   7.844   6.832  2.7870 -0.5034  2.6455
  332MOL0     H44802  10.890   7.973   6.521 -0.1148  0.7087  0.1184
  332MOL0     H44803  10.988   7.960   6.318  0.1497 -2.4864  1.2529
  332MOL0     H44804   9.852   8.975   5.073  1.7861  0.4697  0.7546
  332MOL0     H44805   9.644   8.884   5.138  0.1015  3.1422  0.8906
  332MOL0     H44806   9.347   8.730   5.236  0.3348  0.4682 -0.7435
  332MOL0     H44807   9.119   8.689   5.253 -0.1305 -0.8566 -0.0705
  332MOL0     H44808   8.793   8.674   5.461 -0.8525  0.2053  0.9960
  332MOL0     H44809   8.934   8.779   5.504 -0.7075 -0.0691  0.9097
  332MOL0     H44810   8.790   8.719   5.698 -1.4113 -1.4208  2.2616
  332MOL0     H44811   8.947   8.634   5.725  0.8353 -4.4671 -0.6641
  332MOL0     H44812   8.861   8.441   5.614  3.2647  4.0378 -1.9239
  332MOL0     H44813   8.698   8.509   5.625  0.5991  3.6679 -0.1218
  332MOL0     H44814   8.754   8.530   5.893  0.5434  1.0576  0.3680
  332MOL0     H44815   8.714   8.377   5.816  0.5735 -0.5558  0.2484
  332MOL0     H44816   9.130   8.360   5.930  0.2967  0.7942 -0.4690
  332MOL0     H44817   9.150   8.550   5.654  0.3952  0.7607  1.2346
  332MOL0     H44818   9.459   8.667   5.747 -3.2812  0.2287  1.4779
  332MOL0     H44819   9.341   8.543   5.768 -2.0332 -0.1207 -0.9572
  332MOL0     H44820   9.475   8.501   5.659 -0.3000  0.0872  0.1397
  333MOL0     O44821   6.204   3.517   8.296 -0.0209 -0.6897 -0.5823
  333MOL0     C44822   6.308   3.532   8.351 -0.2537 -0.0551 -1.0756
  333MOL0     O44823   6.350   3.459   8.460  0.8815 -0.9467  0.7336
  333MOL0     C44824   6.267   3.373   8.532 -0.0061  0.5511  0.6643
  333MOL0     C44825   6.202   3.271   8.469 -0.0620 -0.4385  1.0624
  333MOL0     C44826   6.123   3.174   8.538  0.6904 -0.7715  0.2095
  333MOL0     C44827   6.087   3.197   8.672 -0.7122  0.6431 -0.4672
  333MOL0     O44828   5.990   3.134   8.746 -0.0682 -0.8143  0.4032
  333MOL0     C44829   5.950   3.012   8.688 -0.4280 -0.7056  0.5110
  333MOL0     C44830   5.848   2.950   8.778  0.2253  1.3550  1.1370
  333MOL0     C44831   5.888   2.919   8.928  0.8783  0.2794 -0.1137
  333MOL0     C44832   6.029   2.885   8.960 -0.1348 -0.0311 -0.0071
  333MOL0     C44833   6.033   2.804   9.089 -0.1631  0.4629 -0.1717
  333MOL0     C44834   6.173   2.785   9.154  0.0437  0.0961  0.6709
  333MOL0     C44835   6.281   2.719   9.068  1.5375 -0.2660 -0.1083
  333MOL0     C44836   6.408   2.727   9.139 -1.0512 -0.8015  1.1007
  333MOL0     N44837   6.507   2.640   9.097 -0.0167 -0.0017  0.1940
  333MOL0     C44838   6.618   2.624   9.177 -0.1166  0.2356 -0.4805
  333MOL0     C44839   6.646   2.496   9.156 -0.1362  0.6860 -0.4601
  333MOL0     C44840   6.762   2.421   9.228  0.2673  0.4253  0.3471
  333MOL0     C44841   6.902   2.433   9.171  0.3514  0.3844 -0.2553
  333MOL0     C44842   7.001   2.367   9.271 -1.2468 -0.9424  0.3499
  333MOL0     C44843   7.145   2.397   9.234  0.4334  1.0172 -0.0753
  333MOL0     O44844   7.167   2.533   9.273 -0.2015 -0.2854 -0.5008
  333MOL0     C44845   7.282   2.554   9.348 -0.3631 -1.0217  1.0547
  333MOL0     C44846   7.275   2.539   9.482  0.4894 -0.7796  0.2748
  333MOL0     C44847   7.394   2.552   9.557 -0.6435 -0.8423 -0.4035
  333MOL0     C44848   7.512   2.603   9.499 -0.5667  0.1410 -0.8669
  333MOL0     C44849   7.632   2.618   9.591 -0.1997 -0.0497 -0.6914
  333MOL0     O44850   7.754   2.607   9.531  0.2212  0.3853 -0.3784
  333MOL0     C44851   7.859   2.614   9.613  0.3310 -0.1840 -0.0315
  333MOL0     C44852   7.908   2.734   9.664 -0.0630  0.3028  0.3123
  333MOL0     C44853   8.019   2.743   9.742 -0.5400 -0.0224 -0.5714
  333MOL0     C44854   8.102   2.635   9.750 -0.5258 -0.0379 -0.5186
  333MOL0     O44855   8.219   2.652   9.813  0.1120 -0.0842  0.5778
  333MOL0     C44856   8.336   2.568   9.792 -0.9315  0.7889  0.4859
  333MOL0     C44857   8.459   2.608   9.876  0.5994  0.8943  0.3157
  333MOL0     C44858   8.436   2.583  10.026  0.0977 -0.2253 -0.3194
  333MOL0     C44859   8.541   2.639  10.116 -0.0915  0.5649 -0.1106
  333MOL0     C44860   8.513   2.630  10.267 -0.4226  0.6444  0.4520
  333MOL0     C44861   8.382   2.690  10.321  0.4503  0.2557  0.2072
  333MOL0     C44862   8.354   2.834  10.286  0.0054 -0.0476 -0.4227
  333MOL0     C44863   8.459   2.926  10.356 -0.3616  0.6872  0.3757
  333MOL0    Cl44864   8.469   2.903  10.534 -0.2182 -0.3319  0.0188
  333MOL0     C44865   8.068   2.516   9.690  0.1614 -0.1025 -0.5776
  333MOL0     C44866   7.943   2.500   9.629 -0.1270 -0.6373  0.2800
  333MOL0     O44867   7.614   2.632   9.714 -0.6074  0.1603 -0.5692
  333MOL0     C44868   7.522   2.630   9.366  0.6235 -0.8130 -0.4349
  333MOL0     C44869   7.405   2.607   9.289  0.0197 -0.3095  0.0171
  333MOL0     N44870   6.572   2.445   9.050 -0.1568 -0.9596 -1.1175
  333MOL0     N44871   6.492   2.537   9.010  0.5113  0.5995 -0.5678
  333MOL0     C44872   6.157   3.301   8.737 -0.6389  0.4115  0.5854
  333MOL0     C44873   6.250   3.385   8.669 -0.4406 -0.1687 -0.0106
  333MOL0     C44874   6.394   3.648   8.303 -0.1610  0.1899 -0.2302
  333MOL0     C44875   6.487   3.703   8.396 -0.4983  0.1051 -0.2777
  333MOL0     C44876   6.567   3.815   8.367 -0.0118 -1.0473  0.4096
  333MOL0     C44877   6.560   3.870   8.239 -0.8520 -1.1358 -0.2027
  333MOL0     O44878   6.618   3.997   8.206  0.9393  0.3538 -0.0168
  333MOL0     C44879   6.669   4.076   8.316  0.0073 -1.1272  0.0132
  333MOL0     C44880   6.699   4.219   8.257 -0.1271 -0.4316  0.3671
  333MOL0     C44881   6.572   4.285   8.227 -0.3789 -0.4695  0.1014
  333MOL0     C44882   6.595   4.432   8.183 -0.0603 -1.0644  0.3642
  333MOL0     C44883   6.625   4.453   8.043  0.7635 -0.0870 -0.3356
  333MOL0     C44884   6.649   4.469   7.923  0.1179 -0.6055  0.6618
  333MOL0     C44885   6.481   3.803   8.144  0.0588 -0.0792  0.2433
  333MOL0     C44886   6.386   3.699   8.170 -0.9364  0.7456 -0.2180
  333MOL0     C44887   6.307   3.640   8.057 -0.3468  0.2268  0.4762
  333MOL0     H44888   6.212   3.251   8.363 -0.4437 -0.3583  1.0129
  333MOL0     H44889   6.079   3.089   8.488 -1.1549 -2.2735  4.0215
  333MOL0     H44890   5.910   3.020   8.587  2.9459  0.6057 -0.8995
  333MOL0     H44891   6.039   2.947   8.690 -0.7457 -1.1353  1.4251
  333MOL0     H44892   5.829   2.849   8.741  0.2918  2.6271 -2.8194
  333MOL0     H44893   5.749   2.996   8.788 -0.4562 -0.5639  5.6353
  333MOL0     H44894   5.826   2.835   8.962  1.3294  0.8572  2.3636
  333MOL0     H44895   5.865   3.009   8.985  2.6781  0.4310  0.4395
  333MOL0     H44896   6.074   2.839   8.872 -0.5070 -1.5247  0.5501
  333MOL0     H44897   6.081   2.980   8.979  0.7320 -0.8972  2.4532
  333MOL0     H44898   5.975   2.859   9.163  3.1954  2.2903  1.3506
  333MOL0     H44899   5.983   2.708   9.079 -1.3488  1.0769 -0.3365
  333MOL0     H44900   6.201   2.882   9.196 -0.8305 -0.2125  2.0572
  333MOL0     H44901   6.157   2.721   9.242  1.7510 -1.0884  0.1849
  333MOL0     H44902   6.287   2.772   8.973 -3.1697 -1.2248 -1.1657
  333MOL0     H44903   6.249   2.620   9.034 -3.0287  1.0664 -0.2747
  333MOL0     H44904   6.437   2.833   9.141 -0.2437 -1.0301  1.5131
  333MOL0     H44905   6.392   2.708   9.245  1.4336 -1.4095  1.4086
  333MOL0     H44906   6.650   2.677   9.266 -0.2083  2.4536 -1.6965
  333MOL0     H44907   6.770   2.461   9.330  1.0709  1.6043 -0.1633
  333MOL0     H44908   6.741   2.313   9.226 -0.2685  0.4844 -2.9028
  333MOL0     H44909   6.899   2.391   9.070 -2.0961 -2.2823  0.7732
  333MOL0     H44910   6.933   2.538   9.165  1.8121  0.1568  2.0668
  333MOL0     H44911   6.981   2.260   9.284 -1.8498 -0.7842  0.7613
  333MOL0     H44912   6.978   2.411   9.368 -2.1542 -0.9209  0.1290
  333MOL0     H44913   7.165   2.394   9.126  2.5151 -3.4327  0.2304
  333MOL0     H44914   7.201   2.315   9.280 -3.4853 -1.4261  0.7688
  333MOL0     H44915   7.177   2.506   9.513  0.1868 -1.1001 -0.9389
  333MOL0     H44916   7.373   2.550   9.663 -0.1957  0.9894 -0.2506
  333MOL0     H44917   7.848   2.824   9.651 -0.5159 -0.0134  0.2129
  333MOL0     H44918   8.063   2.832   9.784  1.5779 -1.1569 -0.2689
  333MOL0     H44919   8.312   2.464   9.818  1.0347 -0.1445 -1.1589
  333MOL0     H44920   8.350   2.563   9.684 -1.0427  0.9489  0.4627
  333MOL0     H44921   8.547   2.549   9.850 -0.9203 -2.6336  2.4985
  333MOL0     H44922   8.476   2.716   9.865  1.8238  0.8101  1.2126
  333MOL0     H44923   8.347   2.637  10.060  0.7401  0.5499  0.1591
  333MOL0     H44924   8.422   2.478  10.054 -0.9401  0.7287  3.1487
  333MOL0     H44925   8.549   2.748  10.105  0.4950  0.3547 -2.1105
  333MOL0     H44926   8.634   2.588  10.093 -1.7586 -0.9311 -4.4944
  333MOL0     H44927   8.597   2.669  10.325 -0.1867  0.3196  0.3312
  333MOL0     H44928   8.513   2.524  10.294  0.6893  0.2976 -0.8436
  333MOL0     H44929   8.296   2.625  10.302  0.2788  0.3212  0.7167
  333MOL0     H44930   8.397   2.689  10.430  1.8740  0.9037  0.0311
  333MOL0     H44931   8.258   2.875  10.318  1.7847  2.9879  1.5835
  333MOL0     H44932   8.368   2.855  10.180  1.7372  0.3333 -0.1579
  333MOL0     H44933   8.560   2.903  10.322  1.0918  3.7142  2.1766
  333MOL0     H44934   8.430   3.030  10.339 -0.5459  0.6409  0.4003
  333MOL0     H44935   8.136   2.432   9.706 -1.3813 -1.1431  0.8282
  333MOL0     H44936   7.907   2.410   9.581  0.8136 -0.2157 -1.2847
  333MOL0     H44937   7.620   2.667   9.337 -0.1139  1.9795  0.3248
  333MOL0     H44938   7.422   2.605   9.182  2.5613 -0.8717  0.3782
  333MOL0     H44939   6.134   3.318   8.841  0.1881 -3.8894  1.6488
  333MOL0     H44940   6.308   3.447   8.736 -1.4108 -1.9220  2.5788
  333MOL0     H44941   6.492   3.659   8.496 -1.1748 -2.5575 -1.3175
  333MOL0     H44942   6.630   3.864   8.441 -0.6285  0.9781 -0.3448
  333MOL0     H44943   6.755   4.028   8.364  0.3672 -1.9283 -1.3657
  333MOL0     H44944   6.591   4.085   8.391 -0.9752  2.8309 -1.2424
  333MOL0     H44945   6.774   4.220   8.178  2.0093  1.0209  2.3095
  333MOL0     H44946   6.739   4.278   8.340 -1.8561 -0.1303  1.0211
  333MOL0     H44947   6.527   4.288   8.327  0.2270  0.2629  0.3633
  333MOL0     H44948   6.506   4.227   8.162 -1.9874  1.9359 -0.5520
  333MOL0     H44949   6.502   4.482   8.212  1.0012  0.3404  1.4761
  333MOL0     H44950   6.677   4.481   8.235 -1.9726  3.6244 -0.5299
  333MOL0     H44951   6.671   4.475   7.818 -0.0408 -0.4083  0.6390
  333MOL0     H44952   6.494   3.843   8.043  1.1106  0.4181  0.5523
  333MOL0     H44953   6.356   3.682   7.968  2.7679 -1.6797  1.1367
  333MOL0     H44954   6.314   3.531   8.058  0.0592  0.2276  2.2529
  333MOL0     H44955   6.203   3.672   8.050 -0.2650  0.3151 -0.4438
  334MOL0     O44956   6.951   4.246  10.620 -0.2290  0.5129  0.1739
  334MOL0     C44957   6.974   4.360  10.597  0.8523  0.2753 -0.3979
  334MOL0     O44958   7.095   4.427  10.607  0.2685  0.1200  0.2046
  334MOL0     C44959   7.222   4.369  10.583  0.7171 -0.0750  1.0145
  334MOL0     C44960   7.240   4.232  10.542 -0.0707 -0.0482 -0.0043
  334MOL0     C44961   7.363   4.184  10.514 -0.7846  0.4036  0.0245
  334MOL0     C44962   7.474   4.270  10.506  0.8252  0.0727 -0.7508
  334MOL0     O44963   7.595   4.237  10.459 -0.1191 -0.5880  0.8636
  334MOL0     C44964   7.581   4.164  10.322  0.7077 -0.3756  0.2371
  334MOL0     C44965   7.720   4.156  10.254  0.0524  1.2963  0.2183
  334MOL0     C44966   7.783   4.300  10.239  0.4914  1.0345 -0.2522
  334MOL0     C44967   7.898   4.309  10.140 -0.3992  0.6572  0.3306
  334MOL0     C44968   7.978   4.445  10.143 -0.1641  0.3128  1.0016
  334MOL0     C44969   7.910   4.556  10.060 -0.4096  0.2572 -0.3278
  334MOL0     C44970   7.920   4.524   9.913 -0.2580  0.5700 -0.0848
  334MOL0     C44971   7.899   4.640   9.824 -0.2695 -0.1978 -0.1138
  334MOL0     N44972   7.843   4.589   9.697  0.3637 -0.3763 -0.1463
  334MOL0     C44973   7.707   4.565   9.672  0.0973 -0.0825  0.3051
  334MOL0     C44974   7.704   4.525   9.546 -0.1764  0.4279  0.6031
  334MOL0     C44975   7.583   4.477   9.473  0.4946  0.3780  0.1988
  334MOL0     C44976   7.489   4.585   9.409  0.2888 -0.4364 -0.3650
  334MOL0     C44977   7.570   4.661   9.296 -0.4127  0.7588  0.4191
  334MOL0     C44978   7.482   4.753   9.212 -0.0360 -0.0287  0.0154
  334MOL0     O44979   7.374   4.671   9.163  0.4761 -0.6404 -0.4620
  334MOL0     C44980   7.322   4.702   9.044  0.5451  0.6124  0.3815
  334MOL0     C44981   7.277   4.593   8.971  0.0066  0.0064  1.1420
  334MOL0     C44982   7.224   4.609   8.846 -0.5875  0.3903  0.4843
  334MOL0     C44983   7.216   4.739   8.781  0.6809 -0.0240 -0.1724
  334MOL0     C44984   7.158   4.770   8.650  0.4745 -0.0749 -1.1481
  334MOL0     O44985   7.072   4.681   8.605  0.7105  0.6834  0.8582
  334MOL0     C44986   6.998   4.706   8.487 -0.8085 -0.7421 -0.6870
  334MOL0     C44987   6.980   4.618   8.381  0.3335  0.2936  0.0883
  334MOL0     C44988   6.887   4.637   8.271  0.2825  0.4197 -0.2750
  334MOL0     C44989   6.819   4.760   8.267  1.1063 -0.4060 -0.8861
  334MOL0     O44990   6.721   4.776   8.172  0.8975  0.6264 -0.1272
  334MOL0     C44991   6.683   4.899   8.108  0.4633  0.3690 -0.1517
  334MOL0     C44992   6.721   4.911   7.965  0.4024 -0.3155 -0.3371
  334MOL0     C44993   6.671   5.044   7.897  0.4560  0.0649 -0.9401
  334MOL0     C44994   6.704   5.053   7.748 -0.1857 -0.7019  0.4350
  334MOL0     C44995   6.670   5.182   7.682  0.3616 -0.6640  0.3956
  334MOL0     C44996   6.696   5.184   7.530  0.2162 -0.2958 -0.2804
  334MOL0     C44997   6.676   5.319   7.452  0.1062 -0.4552 -0.3845
  334MOL0     C44998   6.545   5.388   7.465 -0.1264  0.3623 -0.6818
  334MOL0    Cl44999   6.408   5.263   7.436 -0.3147  0.2605  0.1223
  334MOL0     C45000   6.837   4.851   8.375  0.7478 -0.3091  0.6125
  334MOL0     C45001   6.933   4.830   8.472  0.3718  0.1856  0.0148
  334MOL0     O45002   7.206   4.868   8.585 -0.0423  0.0507 -0.6153
  334MOL0     C45003   7.271   4.847   8.860 -0.2240 -0.5036 -0.5323
  334MOL0     C45004   7.311   4.830   8.991 -0.3858 -0.2876 -0.0624
  334MOL0     N45005   7.836   4.530   9.491  0.1882  1.0195 -0.5641
  334MOL0     N45006   7.917   4.552   9.588  0.2109 -0.4820  0.5014
  334MOL0     C45007   7.461   4.402  10.539  0.9182  0.2272 -0.3054
  334MOL0     C45008   7.335   4.456  10.579 -0.0024  1.0052 -0.9568
  334MOL0     C45009   6.863   4.454  10.569 -0.3309 -0.4131 -0.3872
  334MOL0     C45010   6.894   4.575  10.520  0.6047 -0.3101 -0.9016
  334MOL0     C45011   6.797   4.667  10.489  0.7405 -0.6941  0.0042
  334MOL0     C45012   6.664   4.645  10.503 -0.5999  0.1973 -0.2962
  334MOL0     O45013   6.568   4.733  10.465  0.3160  0.6593  0.3169
  334MOL0     C45014   6.463   4.680  10.379 -0.7675  0.0309 -0.0556
  334MOL0     C45015   6.369   4.807  10.376 -0.0692  0.5744  0.0102
  334MOL0     C45016   6.239   4.771  10.304  0.6718  0.3028 -1.2260
  334MOL0     C45017   6.143   4.892  10.313 -1.2260 -0.4450  1.1469
  334MOL0     C45018   6.022   4.865  10.241 -0.4682  0.0359 -1.0246
  334MOL0     C45019   5.924   4.824  10.194  0.3492  0.0356  0.5988
  334MOL0     C45020   6.628   4.519  10.550 -0.4045 -0.3791 -0.8752
  334MOL0     C45021   6.725   4.418  10.576  0.7882 -0.1335 -1.1881
  334MOL0     C45022   6.669   4.277  10.600 -0.3004  0.1552 -0.2679
  334MOL0     H45023   7.163   4.156  10.552 -0.0184 -0.2501 -1.0006
  334MOL0     H45024   7.368   4.077  10.493 -0.7583  0.6513 -1.3302
  334MOL0     H45025   7.530   4.069  10.342 -0.5145  0.4765  1.3969
  334MOL0     H45026   7.508   4.213  10.256  1.3022  0.0404 -0.1182
  334MOL0     H45027   7.709   4.094  10.164 -1.3484  0.2450  1.0719
  334MOL0     H45028   7.777   4.100  10.328 -2.2482 -2.4913 -0.6033
  334MOL0     H45029   7.810   4.335  10.339 -0.0193  0.2460  0.1735
  334MOL0     H45030   7.703   4.363  10.198 -0.0596  1.9088  1.9621
  334MOL0     H45031   7.963   4.230  10.181 -0.3285  0.4400 -0.1979
  334MOL0     H45032   7.876   4.274  10.039 -4.0146 -1.4420  1.6776
  334MOL0     H45033   7.993   4.481  10.245  4.0654 -0.1841  0.7187
  334MOL0     H45034   8.070   4.403  10.100 -1.3450 -1.2186 -0.1806
  334MOL0     H45035   7.807   4.577  10.091 -0.4303  0.0769 -0.2679
  334MOL0     H45036   7.967   4.648  10.077  1.4218 -1.1069  1.4154
  334MOL0     H45037   7.860   4.440   9.878  1.5959 -0.6184 -0.5644
  334MOL0     H45038   8.021   4.485   9.896 -1.6485 -3.1732 -0.6532
  334MOL0     H45039   7.831   4.714   9.866  0.1317 -0.1585  0.4731
  334MOL0     H45040   7.995   4.690   9.815 -0.3645  0.1786  0.8643
  334MOL0     H45041   7.621   4.584   9.736  1.5337  3.9637  1.3583
  334MOL0     H45042   7.607   4.391   9.410  2.0078  0.5475  0.5231
  334MOL0     H45043   7.510   4.443   9.548 -0.7658  2.9509  0.2508
  334MOL0     H45044   7.397   4.534   9.380 -1.2304  0.9046  1.7725
  334MOL0     H45045   7.470   4.657   9.489 -0.7309 -0.9011 -0.1719
  334MOL0     H45046   7.607   4.591   9.220 -2.7660 -1.1385  0.8893
  334MOL0     H45047   7.653   4.720   9.337 -0.5152  2.2885 -1.4150
  334MOL0     H45048   7.536   4.804   9.132 -1.7213  1.5292 -0.1845
  334MOL0     H45049   7.447   4.828   9.283  2.1207 -0.7023  1.9257
  334MOL0     H45050   7.296   4.494   9.013  3.2288  0.6063  1.3800
  334MOL0     H45051   7.191   4.523   8.788 -0.7968  0.5293  0.3983
  334MOL0     H45052   7.041   4.528   8.373  1.3899  0.7984  1.7912
  334MOL0     H45053   6.874   4.553   8.204  0.9058 -0.9503  1.2394
  334MOL0     H45054   6.575   4.891   8.128  0.9492 -0.3926  2.6986
  334MOL0     H45055   6.731   4.982   8.160 -0.4620 -1.3838  3.9526
  334MOL0     H45056   6.830   4.907   7.958  0.5188  0.4614  0.8570
  334MOL0     H45057   6.686   4.825   7.907  2.3088 -2.0954  0.9852
  334MOL0     H45058   6.565   5.063   7.912  1.0080  3.2968 -0.3549
  334MOL0     H45059   6.718   5.131   7.944 -1.0311  0.4340 -0.0767
  334MOL0     H45060   6.647   4.975   7.696 -0.7900 -0.2744  0.4417
  334MOL0     H45061   6.810   5.035   7.730 -0.3480 -3.7170  1.8502
  334MOL0     H45062   6.724   5.270   7.718 -2.7168  1.7526 -0.5052
  334MOL0     H45063   6.563   5.200   7.691  0.6334  1.9095 -0.6183
  334MOL0     H45064   6.804   5.166   7.521  0.1335  0.0392 -2.7729
  334MOL0     H45065   6.654   5.104   7.469 -2.3859  3.7068 -4.4068
  334MOL0     H45066   6.703   5.310   7.347 -0.1571  1.3268 -0.6296
  334MOL0     H45067   6.748   5.389   7.496  1.0104  1.0630 -3.9669
  334MOL0     H45068   6.547   5.429   7.566 -0.1833 -0.3263 -0.4019
  334MOL0     H45069   6.521   5.465   7.391 -1.2096  0.7667  0.0614
  334MOL0     H45070   6.795   4.951   8.376 -0.6879 -0.8842  0.7298
  334MOL0     H45071   6.961   4.914   8.535 -1.3285  0.5064  0.3938
  334MOL0     H45072   7.260   4.947   8.821  3.9386  1.2074  1.9990
  334MOL0     H45073   7.351   4.914   9.048 -1.4098 -0.6643  1.2545
  334MOL0     H45074   7.547   4.468  10.541  0.1573  1.3033  2.6071
  334MOL0     H45075   7.332   4.564  10.592  2.9797  1.0477  0.0428
  334MOL0     H45076   6.995   4.611  10.505  0.7646  1.7698  3.6685
  334MOL0     H45077   6.837   4.759  10.445  0.3828 -0.1431  0.8103
  334MOL0     H45078   6.417   4.585  10.408  2.4886 -1.7553 -0.2058
  334MOL0     H45079   6.503   4.669  10.277  1.3718  0.1088  0.7280
  334MOL0     H45080   6.427   4.887  10.329  3.7731  0.1301  3.3741
  334MOL0     H45081   6.336   4.835  10.477  1.3078 -0.7420  0.8764
  334MOL0     H45082   6.192   4.695  10.368 -0.3502  2.8702  1.2866
  334MOL0     H45083   6.252   4.738  10.200  0.7251 -0.9382 -0.8518
  334MOL0     H45084   6.118   4.914  10.417 -1.6748 -0.7496  1.1025
  334MOL0     H45085   6.185   4.977  10.258  0.2066  0.3989  3.4201
  334MOL0     H45086   5.840   4.781  10.144 -0.2313  2.1593 -0.3525
  334MOL0     H45087   6.522   4.504  10.561 -0.6499  0.4970 -1.8605
  334MOL0     H45088   6.569   4.271  10.555  0.5205  1.8648 -2.5612
  334MOL0     H45089   6.730   4.203  10.546 -0.7484 -0.0133 -0.5538
  334MOL0     H45090   6.666   4.259  10.707  1.8389  2.8362  0.3393
  335MOL0     O45091   7.805   3.150   5.950  0.5669 -0.2378 -0.7583
  335MOL0     C45092   7.758   3.230   5.880 -0.4896  0.6242  0.8535
  335MOL0     O45093   7.807   3.359   5.859 -0.0281 -0.3297  0.2720
  335MOL0     C45094   7.908   3.403   5.946  0.2422 -0.3024  0.3738
  335MOL0     C45095   8.045   3.408   5.914 -0.1974 -1.1044 -0.2475
  335MOL0     C45096   8.142   3.468   6.000 -0.4154 -0.2906  1.0086
  335MOL0     C45097   8.099   3.509   6.131 -0.3389 -0.9737  1.0204
  335MOL0     O45098   8.188   3.560   6.232  0.8188  0.1433 -0.4837
  335MOL0     C45099   8.295   3.634   6.179 -1.5351 -0.7654  0.2264
  335MOL0     C45100   8.370   3.716   6.292  0.8399  0.4691 -1.0809
  335MOL0     C45101   8.475   3.809   6.229 -0.4904 -0.3627 -0.5909
  335MOL0     C45102   8.531   3.914   6.329  0.7413  0.8077  0.2423
  335MOL0     C45103   8.615   4.014   6.258 -0.3895  0.1446  0.2878
  335MOL0     C45104   8.729   4.070   6.333  0.4383  0.8230  0.4125
  335MOL0     C45105   8.676   4.174   6.444 -0.0677 -0.3796 -0.1278
  335MOL0     C45106   8.793   4.248   6.516 -0.3288  1.2711  0.7288
  335MOL0     N45107   8.794   4.382   6.460 -0.3929  0.2743  0.6209
  335MOL0     C45108   8.837   4.409   6.331 -0.6949  0.3034  0.3583
  335MOL0     C45109   8.828   4.547   6.318 -0.4712  0.3282  0.0815
  335MOL0     C45110   8.869   4.629   6.191  0.2020 -0.4373  0.6458
  335MOL0     C45111   9.022   4.643   6.199  0.2453 -0.3175  0.4997
  335MOL0     C45112   9.073   4.675   6.055 -0.6088  0.4021 -0.2799
  335MOL0     C45113   9.226   4.650   6.028  0.3707  0.1993  0.5002
  335MOL0     O45114   9.288   4.753   6.100 -0.6136  0.3422 -0.0358
  335MOL0     C45115   9.428   4.764   6.082  0.3191  0.2677  0.0290
  335MOL0     C45116   9.484   4.881   6.127 -0.2247  0.3365  0.1195
  335MOL0     C45117   9.626   4.902   6.118  0.0130  0.2097  0.1203
  335MOL0     C45118   9.704   4.806   6.060  0.1778  0.2770  0.9152
  335MOL0     C45119   9.853   4.836   6.054 -0.0070  0.6367 -0.2911
  335MOL0     O45120   9.901   4.907   6.157 -0.0115 -0.6046 -0.0676
  335MOL0     C45121  10.041   4.941   6.164  0.1539  1.2625 -1.6555
  335MOL0     C45122  10.140   4.845   6.173  0.4074 -0.3121  0.5784
  335MOL0     C45123  10.272   4.884   6.164  0.2908 -0.4258 -0.1797
  335MOL0     C45124  10.308   5.016   6.161 -0.6378 -0.4330 -0.3706
  335MOL0     O45125  10.447   5.049   6.155  0.6548 -0.4348  0.4356
  335MOL0     C45126  10.484   5.184   6.132 -0.0134  0.9094 -0.3770
  335MOL0     C45127  10.636   5.208   6.111 -0.4076  0.3905 -0.3391
  335MOL0     C45128  10.670   5.354   6.142 -0.5430  0.8190  0.1775
  335MOL0     C45129  10.707   5.363   6.288 -0.0153 -0.2037  0.0292
  335MOL0     C45130  10.725   5.515   6.335  0.4451  0.1343  0.1902
  335MOL0     C45131  10.787   5.529   6.480 -0.2986  0.1652 -0.0965
  335MOL0     C45132  10.931   5.496   6.469  0.1136  0.2414 -0.2636
  335MOL0     C45133  10.994   5.551   6.594  0.2093 -0.0010  0.5377
  335MOL0    Cl45134  10.934   5.458   6.738 -0.2516 -0.2724 -0.2058
  335MOL0     C45135  10.208   5.109   6.173 -0.3828  0.5388 -0.1670
  335MOL0     C45136  10.074   5.074   6.173  0.2566  0.7112 -0.7297
  335MOL0     O45137   9.915   4.786   5.957  0.2015  0.5589  0.3096
  335MOL0     C45138   9.645   4.684   6.018  0.1035  0.8787  0.7752
  335MOL0     C45139   9.507   4.665   6.023  0.1104 -0.7261 -0.4016
  335MOL0     N45140   8.786   4.598   6.436 -0.3884 -0.2690 -0.0930
  335MOL0     N45141   8.750   4.496   6.514 -0.3117 -1.2612 -0.5295
  335MOL0     C45142   7.967   3.503   6.165  0.3120 -0.5432  1.0380
  335MOL0     C45143   7.869   3.450   6.072  0.0331 -0.0959 -0.5071
  335MOL0     C45144   7.638   3.181   5.811  0.2404 -0.6137 -0.0282
  335MOL0     C45145   7.530   3.273   5.819  0.5152  0.5511 -0.1678
  335MOL0     C45146   7.399   3.239   5.772 -0.5396 -0.0852  0.4763
  335MOL0     C45147   7.377   3.114   5.723 -0.7246 -0.3784 -0.1983
  335MOL0     O45148   7.264   3.071   5.665  0.2098  0.0600 -0.3661
  335MOL0     C45149   7.163   3.161   5.623  0.6204 -0.3555 -0.5093
  335MOL0     C45150   7.044   3.082   5.571 -0.3113  0.8736 -0.6309
  335MOL0     C45151   6.983   2.973   5.664  0.2125  0.0401 -0.8528
  335MOL0     C45152   6.845   2.917   5.618 -0.0169  0.4117  0.2237
  335MOL0     C45153   6.748   3.016   5.618 -0.1743  0.0750  0.6610
  335MOL0     C45154   6.685   3.120   5.600  0.0394 -0.2542 -0.4658
  335MOL0     C45155   7.476   3.022   5.719  0.1229  0.3856 -0.0534
  335MOL0     C45156   7.610   3.051   5.754 -0.1607  0.7088 -0.5558
  335MOL0     C45157   7.725   2.956   5.722 -1.0777  0.7375 -0.3894
  335MOL0     H45158   8.078   3.387   5.813  0.0363  3.0904 -1.2079
  335MOL0     H45159   8.246   3.464   5.970 -0.2516 -0.9636  1.6284
  335MOL0     H45160   8.371   3.571   6.132  1.0803  2.5151 -0.2997
  335MOL0     H45161   8.262   3.702   6.099  0.1922 -0.2964 -0.1446
  335MOL0     H45162   8.425   3.656   6.366  1.3423 -1.3193 -2.8202
  335MOL0     H45163   8.293   3.768   6.350 -0.8253 -1.9603 -0.9655
  335MOL0     H45164   8.416   3.870   6.161 -1.7815 -0.1226  0.6877
  335MOL0     H45165   8.549   3.751   6.174  0.2608 -1.0748  1.0876
  335MOL0     H45166   8.444   3.960   6.378  2.0170  1.0045  2.4497
  335MOL0     H45167   8.591   3.863   6.405 -1.3836 -0.4076  1.1907
  335MOL0     H45168   8.662   3.960   6.175 -0.0068  1.7440 -0.5723
  335MOL0     H45169   8.560   4.095   6.209  0.4272 -0.3848 -1.5750
  335MOL0     H45170   8.786   3.987   6.377 -1.1292 -0.2848  0.4411
  335MOL0     H45171   8.798   4.128   6.271  0.1529  1.7997  0.9817
  335MOL0     H45172   8.627   4.114   6.521 -0.0839 -3.0084 -2.0177
  335MOL0     H45173   8.610   4.245   6.395 -0.1910  0.2691  0.9546
  335MOL0     H45174   8.783   4.250   6.625  1.8565 -0.0741  1.0015
  335MOL0     H45175   8.884   4.192   6.493  0.0001  1.9416  0.3431
  335MOL0     H45176   8.860   4.341   6.249 -1.0537 -2.2254  2.2323
  335MOL0     H45177   8.836   4.574   6.102  0.3710  2.3001 -1.2164
  335MOL0     H45178   8.826   4.730   6.185  1.5502  0.2099  1.5190
  335MOL0     H45179   9.049   4.729   6.262 -3.4425  1.4856 -0.0718
  335MOL0     H45180   9.074   4.558   6.244  0.0103 -1.3595 -1.1347
  335MOL0     H45181   9.056   4.780   6.032  0.3180  0.3134 -1.4511
  335MOL0     H45182   9.023   4.614   5.979  0.5290  0.4307 -1.0844
  335MOL0     H45183   9.236   4.671   5.922  0.2481  0.8857  0.6219
  335MOL0     H45184   9.267   4.550   6.046  2.6519  0.7906 -0.9871
  335MOL0     H45185   9.425   4.958   6.174 -1.5942  1.2301 -2.8263
  335MOL0     H45186   9.665   4.994   6.160  1.9280 -2.0501  3.7768
  335MOL0     H45187  10.116   4.739   6.175  2.8519 -0.9300  1.6577
  335MOL0     H45188  10.349   4.808   6.158 -0.0733 -0.6841 -2.6984
  335MOL0     H45189  10.422   5.226   6.052 -3.0889 -0.8844  0.8629
  335MOL0     H45190  10.458   5.244   6.220  1.4351  1.2474 -0.1477
  335MOL0     H45191  10.696   5.148   6.180 -0.7186  0.2190 -0.2149
  335MOL0     H45192  10.683   5.185   6.015 -0.1907  1.5714 -0.5333
  335MOL0     H45193  10.752   5.391   6.079  0.6006 -0.3953  0.9123
  335MOL0     H45194  10.582   5.416   6.120  0.5028  1.4008 -2.8744
  335MOL0     H45195  10.804   5.317   6.309  0.6619 -0.1284 -2.6467
  335MOL0     H45196  10.630   5.318   6.352  2.4054 -0.9473  2.6763
  335MOL0     H45197  10.621   5.546   6.325  0.1464 -0.8112  0.2763
  335MOL0     H45198  10.787   5.563   6.259 -1.2916  0.6857 -0.9280
  335MOL0     H45199  10.772   5.627   6.528  0.8720 -0.0117  0.6715
  335MOL0     H45200  10.737   5.460   6.548  1.2318 -0.7422  0.1376
  335MOL0     H45201  10.973   5.555   6.388  1.7444 -0.5885 -0.0774
  335MOL0     H45202  10.948   5.389   6.454 -1.6026 -0.2416  0.8198
  335MOL0     H45203  11.102   5.537   6.581  0.0325 -0.9067 -0.0482
  335MOL0     H45204  10.970   5.657   6.607  1.1124  0.3857 -0.7343
  335MOL0     H45205  10.239   5.213   6.176  3.4199 -0.4142 -0.6266
  335MOL0     H45206   9.996   5.149   6.168  0.0955  0.5039 -1.5437
  335MOL0     H45207   9.702   4.603   5.972 -2.6629 -0.4389 -0.5852
  335MOL0     H45208   9.464   4.571   5.988 -0.9354 -1.3221  2.2489
  335MOL0     H45209   7.924   3.528   6.261 -3.7015  0.7180 -0.8418
  335MOL0     H45210   7.768   3.436   6.108  0.4730 -1.6247  0.2375
  335MOL0     H45211   7.541   3.375   5.854  1.5657 -0.1649  1.7403
  335MOL0     H45212   7.319   3.312   5.778 -0.4450  0.3056 -1.8322
  335MOL0     H45213   7.204   3.227   5.546  0.5983  0.5538  0.2482
  335MOL0     H45214   7.138   3.222   5.710  1.6012 -1.3287  0.4884
  335MOL0     H45215   7.080   3.055   5.471  0.0173  4.0494 -1.4807
  335MOL0     H45216   6.965   3.156   5.556 -0.1048  1.1128 -0.5481
  335MOL0     H45217   6.970   3.014   5.765 -0.6622 -0.0026 -0.9434
  335MOL0     H45218   7.055   2.892   5.678 -0.5152 -0.4157  0.4239
  335MOL0     H45219   6.875   2.895   5.515  1.5700 -0.7519  0.8834
  335MOL0     H45220   6.824   2.822   5.667 -2.2097  1.3721  1.2660
  335MOL0     H45221   6.621   3.207   5.603 -0.7219 -0.7994 -0.5283
  335MOL0     H45222   7.460   2.925   5.673  2.4760 -0.3564  0.5623
  335MOL0     H45223   7.734   2.877   5.797 -1.3297  0.7942 -0.2964
  335MOL0     H45224   7.723   2.916   5.620  1.6831  0.1401 -0.2932
  335MOL0     H45225   7.825   3.001   5.718 -0.7672 -0.0474 -2.5510
  336MOL0     O45226  11.095   3.084   3.109 -0.1477  0.1190 -0.1286
  336MOL0     C45227  10.993   3.058   3.177 -0.2561  0.5784 -0.0436
  336MOL0     O45228  10.905   2.956   3.160 -0.0452  0.0105 -0.4923
  336MOL0     C45229  10.933   2.864   3.062 -0.6863  1.6941 -0.3276
  336MOL0     C45230  11.030   2.769   3.087 -0.5428  0.1938 -0.2901
  336MOL0     C45231  11.062   2.676   2.985  0.6480 -0.1265 -1.0802
  336MOL0     C45232  10.996   2.669   2.863 -0.0951 -0.5248 -0.5558
  336MOL0     O45233  11.033   2.569   2.779  0.2960 -0.0809  0.0764
  336MOL0     C45234  10.996   2.577   2.645  1.0133 -0.6459  1.2260
  336MOL0     C45235  11.054   2.468   2.553  0.3626 -2.0394  1.2822
  336MOL0     C45236  11.206   2.480   2.537  0.0730  0.4365  0.0172
  336MOL0     C45237  11.258   2.352   2.472  0.1976 -0.4075  0.0288
  336MOL0     C45238  11.409   2.361   2.478  0.1579  0.4764  1.1789
  336MOL0     C45239  11.476   2.339   2.613 -0.4827  0.8163  0.6129
  336MOL0     C45240  11.625   2.324   2.598 -1.0168 -0.9402  0.9902
  336MOL0     C45241  11.701   2.448   2.542 -0.1486 -0.7661 -0.2008
  336MOL0     N45242  11.848   2.424   2.537  1.1467 -0.1591  0.5236
  336MOL0     C45243  11.937   2.450   2.633  0.2643 -0.0271 -0.7345
  336MOL0     C45244  12.057   2.407   2.589 -0.1204  0.0195 -0.7480
  336MOL0     C45245  12.183   2.428   2.661 -0.1198 -0.1053 -0.3410
  336MOL0     C45246  12.286   2.480   2.571 -0.4788 -0.2238 -0.5886
  336MOL0     C45247  12.423   2.507   2.640  0.0890 -0.1234 -0.3225
  336MOL0     C45248  12.531   2.484   2.537 -0.2394 -1.1651  0.8417
  336MOL0     O45249  12.647   2.545   2.588 -0.5000 -0.0632 -0.2632
  336MOL0     C45250  12.772   2.506   2.545  0.0502 -0.4516  0.3697
  336MOL0     C45251  12.800   2.386   2.477  0.1957 -0.1410  0.1161
  336MOL0     C45252  12.935   2.355   2.443 -0.2488 -0.0044 -1.4584
  336MOL0     C45253  13.048   2.434   2.487 -0.2745 -0.2297 -0.1002
  336MOL0     C45254  13.189   2.397   2.458 -0.5974  0.9026  1.4971
  336MOL0     O45255  13.293   2.473   2.513  0.5692 -0.7709 -0.1630
  336MOL0     C45256  13.421   2.466   2.462  0.1481  0.7328  0.2991
  336MOL0     C45257  13.459   2.438   2.328  0.6670 -0.9197 -0.2060
  336MOL0     C45258  13.593   2.425   2.291  0.4155 -0.0749  0.2405
  336MOL0     C45259  13.696   2.417   2.382  0.0731 -0.5363 -0.4072
  336MOL0     O45260  13.818   2.391   2.330  0.1373  0.5451 -0.3296
  336MOL0     C45261  13.908   2.363   2.431  0.0399 -0.3927  0.6527
  336MOL0     C45262  14.024   2.320   2.352  0.3777 -0.1550  0.3325
  336MOL0     C45263  14.148   2.378   2.428  0.2393  0.2529 -0.1950
  336MOL0     C45264  14.167   2.318   2.567  0.3672  0.4183  0.2140
  336MOL0     C45265  14.213   2.169   2.561 -0.2820 -0.1583  0.2467
  336MOL0     C45266  14.206   2.103   2.697  0.0052 -0.1918  0.2743
  336MOL0     C45267  14.296   2.179   2.791 -0.1980 -0.4306 -0.1875
  336MOL0     C45268  14.319   2.116   2.925 -0.8921  1.1092 -0.2978
  336MOL0    Cl45269  14.412   1.960   2.915 -0.1260  0.3269 -0.4038
  336MOL0     C45270  13.661   2.446   2.519 -0.1546 -0.4282  0.1540
  336MOL0     C45271  13.525   2.464   2.554 -0.0961 -0.1772 -0.2178
  336MOL0     O45272  13.205   2.291   2.405 -0.3742  0.1959 -0.6308
  336MOL0     C45273  13.017   2.554   2.551 -0.3710 -0.6245 -0.5330
  336MOL0     C45274  12.878   2.592   2.579  0.0231 -0.1388 -0.3668
  336MOL0     N45275  12.033   2.343   2.468  0.4874 -0.6259  0.0985
  336MOL0     N45276  11.907   2.353   2.435 -1.2240 -0.2118 -0.2896
  336MOL0     C45277  10.901   2.765   2.836  0.4607  0.7793  0.2958
  336MOL0     C45278  10.871   2.859   2.931 -0.2456 -1.4913 -0.6203
  336MOL0     C45279  10.978   3.132   3.301 -0.4658  0.2863  1.0932
  336MOL0     C45280  10.924   3.257   3.286 -0.5078 -0.2391 -0.3002
  336MOL0     C45281  10.887   3.338   3.403  0.4094  0.2232  0.2759
  336MOL0     C45282  10.909   3.289   3.528 -1.2504 -0.1572 -0.5954
  336MOL0     O45283  10.884   3.353   3.645  0.1316  0.3862  0.0933
  336MOL0     C45284  10.767   3.444   3.639 -0.6540  0.0837 -0.0608
  336MOL0     C45285  10.754   3.510   3.774  0.4627  0.0174 -0.3071
  336MOL0     C45286  10.723   3.406   3.885 -0.5622  0.4969  0.3082
  336MOL0     C45287  10.651   3.465   3.994  0.1516  0.5012  1.3470
  336MOL0     C45288  10.657   3.385   4.124  0.2082 -0.1424  0.3404
  336MOL0     C45289  10.640   3.325   4.229 -0.5316  0.2243  0.7550
  336MOL0     C45290  10.968   3.168   3.543  0.8894  0.0765 -0.1070
  336MOL0     C45291  11.005   3.085   3.435  0.1909 -0.1481  0.2897
  336MOL0     C45292  11.076   2.953   3.475  0.8598  0.1724 -0.0591
  336MOL0     H45293  11.081   2.768   3.182 -4.1018  0.1046  1.8032
  336MOL0     H45294  11.142   2.605   3.005  1.6675  0.8993 -1.4099
  336MOL0     H45295  10.888   2.577   2.629  1.0780 -2.7503  0.5415
  336MOL0     H45296  11.028   2.677   2.615  0.2358 -0.1113  2.0942
  336MOL0     H45297  11.009   2.495   2.457  3.0157 -0.2171  0.4158
  336MOL0     H45298  11.019   2.370   2.588 -0.0714 -1.6033  2.0955
  336MOL0     H45299  11.249   2.489   2.637  0.3049 -0.8800  0.0541
  336MOL0     H45300  11.230   2.559   2.466  0.8149 -1.8711 -2.4961
  336MOL0     H45301  11.233   2.261   2.526  0.5167 -1.3228 -1.3201
  336MOL0     H45302  11.229   2.346   2.367  2.2954 -2.0877 -0.5247
  336MOL0     H45303  11.435   2.274   2.418 -2.0208  0.6777 -0.1571
  336MOL0     H45304  11.438   2.446   2.416  1.9089 -0.6400  0.4006
  336MOL0     H45305  11.450   2.413   2.688 -2.5881  1.6285 -0.8310
  336MOL0     H45306  11.441   2.240   2.643 -0.3397  0.3275 -0.7294
  336MOL0     H45307  11.661   2.234   2.547 -3.0289 -1.4869  0.4452
  336MOL0     H45308  11.662   2.308   2.700 -3.0808 -3.7219  1.4356
  336MOL0     H45309  11.675   2.465   2.437 -1.1971  1.8802  0.4074
  336MOL0     H45310  11.679   2.532   2.608 -0.1485 -1.4239  0.6606
  336MOL0     H45311  11.906   2.491   2.729 -0.3887 -0.3826 -0.7826
  336MOL0     H45312  12.173   2.498   2.745  0.4363  1.6318 -1.6766
  336MOL0     H45313  12.223   2.338   2.709  0.8872  1.4281  1.9392
  336MOL0     H45314  12.309   2.404   2.496 -0.2975  1.2469 -2.0757
  336MOL0     H45315  12.250   2.563   2.510 -2.2208 -1.4690 -1.3424
  336MOL0     H45316  12.435   2.441   2.727  1.6972  1.1093  0.4618
  336MOL0     H45317  12.425   2.610   2.676  0.9213 -0.5533  0.9409
  336MOL0     H45318  12.502   2.535   2.445 -0.6020  0.6183  1.8741
  336MOL0     H45319  12.546   2.377   2.521  1.3613 -0.8411 -0.0089
  336MOL0     H45320  12.727   2.307   2.466  0.0555 -0.2222  1.4973
  336MOL0     H45321  12.954   2.262   2.391 -0.2140  0.4901 -2.3556
  336MOL0     H45322  13.388   2.420   2.247  2.0823 -2.3016 -1.1921
  336MOL0     H45323  13.615   2.401   2.187 -0.8137  1.1661 -0.3487
  336MOL0     H45324  13.921   2.448   2.499  1.2944  1.4798 -1.7636
  336MOL0     H45325  13.869   2.274   2.482  0.4435 -1.4739 -0.8480
  336MOL0     H45326  14.030   2.210   2.353  1.6101 -0.1032  0.9117
  336MOL0     H45327  14.024   2.356   2.249 -1.5185 -2.5127 -0.5937
  336MOL0     H45328  14.244   2.356   2.380  0.8788 -1.8197  1.8218
  336MOL0     H45329  14.138   2.486   2.445 -1.7928 -0.3354  3.4547
  336MOL0     H45330  14.074   2.318   2.624 -0.3344 -3.8140 -0.5625
  336MOL0     H45331  14.239   2.379   2.622 -0.8146 -0.4160  2.8833
  336MOL0     H45332  14.314   2.166   2.519  0.7591 -1.0890  2.6321
  336MOL0     H45333  14.136   2.122   2.500 -2.4686 -0.6783  3.1708
  336MOL0     H45334  14.102   2.095   2.731 -0.2665  3.3925  0.7215
  336MOL0     H45335  14.248   2.002   2.689  1.8955  0.6058 -0.4297
  336MOL0     H45336  14.254   2.279   2.805  3.0599  1.2102 -1.1987
  336MOL0     H45337  14.394   2.187   2.743  0.2368 -3.0729  0.1166
  336MOL0     H45338  14.365   2.195   2.985 -2.4223  1.0242  1.0482
  336MOL0     H45339  14.231   2.091   2.984 -0.7759  1.3826 -0.0071
  336MOL0     H45340  13.735   2.443   2.598 -1.0878 -2.1548  1.0175
  336MOL0     H45341  13.496   2.469   2.659 -0.0010 -2.0567 -0.0610
  336MOL0     H45342  13.084   2.632   2.586  0.5491 -0.7535 -1.9245
  336MOL0     H45343  12.849   2.687   2.622 -0.7009  0.1800 -1.4968
  336MOL0     H45344  10.851   2.765   2.740  1.0571 -2.6367 -0.1512
  336MOL0     H45345  10.782   2.920   2.938  0.0310 -1.2339  3.3336
  336MOL0     H45346  10.899   3.301   3.190 -4.9362 -0.1216  0.7113
  336MOL0     H45347  10.851   3.439   3.383  2.3176  1.0955  0.9929
  336MOL0     H45348  10.676   3.386   3.621 -0.1326 -0.2925 -1.5638
  336MOL0     H45349  10.772   3.520   3.561  0.7015  0.6830  0.5666
  336MOL0     H45350  10.670   3.581   3.768  1.5017  1.2840 -0.2166
  336MOL0     H45351  10.848   3.564   3.790  0.6892  1.0082 -4.0254
  336MOL0     H45352  10.825   3.383   3.917 -0.2144 -1.8489 -2.1587
  336MOL0     H45353  10.675   3.319   3.841  1.8036 -0.0278 -1.4432
  336MOL0     H45354  10.688   3.563   4.024  0.4713  0.3776  1.3510
  336MOL0     H45355  10.546   3.464   3.962  0.8324 -0.1243 -1.0882
  336MOL0     H45356  10.620   3.269   4.318 -1.2125 -1.7744 -0.5625
  336MOL0     H45357  11.004   3.147   3.643  0.2164 -0.7054 -0.0174
  336MOL0     H45358  11.149   2.969   3.554 -0.1919  1.2363  0.7324
  336MOL0     H45359  10.999   2.886   3.516  0.9569  1.7723  2.9468
  336MOL0     H45360  11.130   2.906   3.392  2.6024  1.8828  0.0476
  337MOL0     O45361   8.300   2.655   4.624 -0.7268  0.3105  1.1766
  337MOL0     C45362   8.390   2.588   4.570  1.3972  0.6365 -0.2421
  337MOL0     O45363   8.370   2.497   4.472 -0.7477 -0.7130 -0.0262
  337MOL0     C45364   8.247   2.497   4.407  0.4863  0.7879 -0.8232
  337MOL0     C45365   8.241   2.559   4.279 -0.6476  0.7302  0.6249
  337MOL0     C45366   8.110   2.572   4.220  0.1299  0.8327  0.4535
  337MOL0     C45367   7.996   2.518   4.280 -0.4867 -0.6894 -0.3549
  337MOL0     O45368   7.870   2.545   4.231  0.2902  0.8253  0.3267
  337MOL0     C45369   7.832   2.660   4.164 -0.1412 -0.6498 -0.4705
  337MOL0     C45370   7.692   2.652   4.109  0.5785  0.3646  0.3883
  337MOL0     C45371   7.584   2.687   4.219 -0.3697 -1.6108 -0.5055
  337MOL0     C45372   7.450   2.630   4.185  0.5301  0.2571  0.0432
  337MOL0     C45373   7.341   2.623   4.302  0.2249  0.3251  0.2672
  337MOL0     C45374   7.207   2.545   4.273 -0.0232 -0.5450 -0.0635
  337MOL0     C45375   7.131   2.495   4.395  0.0871 -0.0115 -0.2239
  337MOL0     C45376   7.098   2.349   4.375 -0.7788  0.1651  0.3508
  337MOL0     N45377   6.994   2.318   4.470 -0.2797  1.0399 -0.2962
  337MOL0     C45378   6.860   2.348   4.460  0.0986 -0.4226  0.0483
  337MOL0     C45379   6.805   2.304   4.576  0.1989 -0.3002  0.2089
  337MOL0     C45380   6.663   2.304   4.609  0.5204  0.1154 -0.1846
  337MOL0     C45381   6.566   2.241   4.510 -0.6599  0.7481  0.1494
  337MOL0     C45382   6.596   2.096   4.476  1.1654 -0.5148  0.2689
  337MOL0     C45383   6.475   2.033   4.406  0.2848  0.3034  0.4666
  337MOL0     O45384   6.360   2.050   4.482 -0.8043  0.0619  0.2656
  337MOL0     C45385   6.246   1.999   4.441  0.6822 -0.0480 -0.2162
  337MOL0     C45386   6.151   2.001   4.542  0.2130 -0.0319  0.2526
  337MOL0     C45387   6.025   1.953   4.520 -0.9792 -0.1648 -1.0504
  337MOL0     C45388   5.994   1.900   4.394 -0.8678  0.2412  0.6455
  337MOL0     C45389   5.864   1.836   4.364 -0.0829  0.4989  0.0501
  337MOL0     O45390   5.783   1.794   4.472  0.8349 -0.3720  0.9829
  337MOL0     C45391   5.655   1.753   4.451  0.3698 -0.8991  0.3502
  337MOL0     C45392   5.636   1.617   4.448 -0.2815  0.7407  0.0918
  337MOL0     C45393   5.511   1.555   4.409  0.1678 -0.2499  0.1240
  337MOL0     C45394   5.400   1.637   4.369 -0.6171  1.4135 -0.2140
  337MOL0     O45395   5.288   1.589   4.320  1.0094  0.7926  0.0679
  337MOL0     C45396   5.183   1.579   4.409  0.4114  0.1011 -0.1328
  337MOL0     C45397   5.075   1.686   4.368  0.4586 -0.0401  0.8611
  337MOL0     C45398   4.951   1.680   4.465 -0.3195  0.0200 -0.1517
  337MOL0     C45399   4.986   1.691   4.613  0.5805 -0.6637  0.3194
  337MOL0     C45400   4.863   1.698   4.703  0.5549 -0.2480  0.9076
  337MOL0     C45401   4.882   1.796   4.822  0.5640 -0.2702  0.0784
  337MOL0     C45402   4.751   1.816   4.896 -1.0479 -0.1074 -1.1095
  337MOL0     C45403   4.766   1.927   4.999  0.7696 -0.6223 -0.5977
  337MOL0    Cl45404   4.866   1.870   5.131  0.1457 -0.0189 -0.3392
  337MOL0     C45405   5.428   1.772   4.369  0.6640 -0.1688 -0.2952
  337MOL0     C45406   5.550   1.832   4.408  0.4878 -0.2087  0.6108
  337MOL0     O45407   5.836   1.815   4.246  0.4203  0.2873  0.1932
  337MOL0     C45408   6.091   1.904   4.291  0.0643 -0.2447 -0.5195
  337MOL0     C45409   6.218   1.957   4.313  0.4343  0.0270  0.5069
  337MOL0     N45410   6.910   2.244   4.650  0.7335 -0.0593 -0.0691
  337MOL0     N45411   7.018   2.257   4.587 -0.1167  1.3500 -0.1051
  337MOL0     C45412   8.009   2.439   4.396 -1.0255  0.6043 -0.1750
  337MOL0     C45413   8.132   2.443   4.464  0.2533  0.3350  0.1956
  337MOL0     C45414   8.520   2.600   4.642  0.6202 -1.0850 -0.2592
  337MOL0     C45415   8.526   2.675   4.761  0.1204  0.3525 -0.1315
  337MOL0     C45416   8.638   2.698   4.835 -0.5185 -0.4962 -0.1402
  337MOL0     C45417   8.758   2.640   4.790  0.1643 -1.0051 -0.3604
  337MOL0     O45418   8.881   2.652   4.851 -0.7227 -0.0513  0.3775
  337MOL0     C45419   8.890   2.756   4.954  0.2576  0.0745 -0.4648
  337MOL0     C45420   9.030   2.809   4.979 -0.2174 -0.1124  0.1752
  337MOL0     C45421   9.036   2.920   5.077  0.1886  0.7503 -0.8568
  337MOL0     C45422   9.039   3.049   5.013  0.0731 -0.5238  0.8248
  337MOL0     C45423   9.046   3.167   5.105  0.7247  0.0019  0.4178
  337MOL0     C45424   9.043   3.275   5.165 -0.0915 -0.2985 -0.0538
  337MOL0     C45425   8.761   2.575   4.671  0.3549 -0.0242 -0.6550
  337MOL0     C45426   8.643   2.545   4.600 -0.4981 -0.7045 -0.3352
  337MOL0     C45427   8.666   2.475   4.468 -0.3646  1.4741  0.3802
  337MOL0     H45428   8.333   2.594   4.235 -0.1544  0.6428  1.5550
  337MOL0     H45429   8.092   2.631   4.130  0.9056  0.9764  0.3837
  337MOL0     H45430   7.831   2.743   4.236  0.5259 -0.7152 -0.3829
  337MOL0     H45431   7.905   2.691   4.090 -1.1538  1.7323 -0.5660
  337MOL0     H45432   7.681   2.548   4.077 -3.7046  0.3330  1.3668
  337MOL0     H45433   7.688   2.723   4.026  1.2449  1.7550  1.5054
  337MOL0     H45434   7.583   2.794   4.238  0.7232 -1.3560 -1.7164
  337MOL0     H45435   7.614   2.642   4.314 -0.3088 -1.5251 -0.4841
  337MOL0     H45436   7.395   2.704   4.126 -1.0091  0.2491  1.4087
  337MOL0     H45437   7.452   2.533   4.135 -0.4869 -0.2762  0.9806
  337MOL0     H45438   7.386   2.563   4.382  0.2629 -1.5897 -1.1291
  337MOL0     H45439   7.339   2.728   4.333 -0.3964  0.4794 -0.2849
  337MOL0     H45440   7.149   2.620   4.219 -1.0085  0.3335  2.0671
  337MOL0     H45441   7.241   2.458   4.216  0.3219 -0.4786  0.0397
  337MOL0     H45442   7.043   2.559   4.405  0.7657  0.8068  0.8214
  337MOL0     H45443   7.185   2.500   4.491 -0.7725 -1.3270  0.3647
  337MOL0     H45444   7.070   2.336   4.270 -0.0876 -1.7838  0.3589
  337MOL0     H45445   7.185   2.288   4.400  1.7762  4.2715  2.5219
  337MOL0     H45446   6.814   2.406   4.381  1.4882  1.4632  0.5585
  337MOL0     H45447   6.656   2.249   4.703  1.4354 -2.6320 -1.6078
  337MOL0     H45448   6.638   2.407   4.637  0.7843  0.2937 -0.5958
  337MOL0     H45449   6.465   2.254   4.550  0.3449  0.6634  2.8745
  337MOL0     H45450   6.564   2.308   4.423 -1.9827 -0.5597 -0.8983
  337MOL0     H45451   6.636   2.040   4.561  2.5056 -0.1716 -0.1191
  337MOL0     H45452   6.677   2.105   4.404  2.3762  0.5686  1.7052
  337MOL0     H45453   6.505   1.929   4.394  2.6013  1.0412 -0.7946
  337MOL0     H45454   6.467   2.073   4.304  2.1295  0.5514  0.3913
  337MOL0     H45455   6.186   2.052   4.631 -0.4006  1.9746 -0.6081
  337MOL0     H45456   5.948   1.946   4.596 -2.3136 -0.1871 -2.3761
  337MOL0     H45457   5.717   1.551   4.478  0.5649  0.3197 -2.8318
  337MOL0     H45458   5.502   1.447   4.416  0.6769 -0.3374 -0.5449
  337MOL0     H45459   5.135   1.482   4.396  0.6731  0.0919 -1.1038
  337MOL0     H45460   5.215   1.593   4.512  1.3221 -1.9230 -0.0976
  337MOL0     H45461   5.124   1.783   4.381  1.5216 -0.7553  2.4222
  337MOL0     H45462   5.050   1.681   4.262  0.0418  0.5072  0.9266
  337MOL0     H45463   4.883   1.758   4.429 -1.4980 -1.1269 -0.4559
  337MOL0     H45464   4.904   1.583   4.447 -0.5524 -0.3353  2.0957
  337MOL0     H45465   5.050   1.779   4.624 -2.5955  1.9760 -0.6302
  337MOL0     H45466   5.045   1.602   4.640  1.9100 -0.3331 -1.3588
  337MOL0     H45467   4.834   1.597   4.732 -1.5973 -0.3322 -1.2810
  337MOL0     H45468   4.776   1.733   4.647 -0.1468 -1.0661  1.4631
  337MOL0     H45469   4.961   1.747   4.880  0.3072 -2.1234 -1.0600
  337MOL0     H45470   4.918   1.890   4.778  2.1611 -0.5626  0.6858
  337MOL0     H45471   4.730   1.716   4.936  0.2919 -0.7967 -2.0600
  337MOL0     H45472   4.676   1.847   4.823 -1.6733  1.3208  0.0864
  337MOL0     H45473   4.797   2.020   4.952 -0.0865  0.5848  1.1357
  337MOL0     H45474   4.676   1.961   5.051  2.1787  2.8325 -0.1772
  337MOL0     H45475   5.358   1.851   4.342  2.9771  2.6077  1.2894
  337MOL0     H45476   5.579   1.933   4.382  3.6859 -0.7122  1.7531
  337MOL0     H45477   6.072   1.858   4.195  1.5733  2.5420 -2.2692
  337MOL0     H45478   6.291   1.959   4.232 -0.6844  4.3332 -0.6559
  337MOL0     H45479   7.918   2.394   4.436 -1.1919  0.0130 -1.1667
  337MOL0     H45480   8.147   2.406   4.565  0.7446 -1.5108 -0.5042
  337MOL0     H45481   8.440   2.722   4.808  0.2365  0.7987 -0.3593
  337MOL0     H45482   8.628   2.756   4.926  1.6686  3.0456 -1.9666
  337MOL0     H45483   8.857   2.708   5.047 -1.0244 -2.0173 -1.9079
  337MOL0     H45484   8.821   2.839   4.936 -0.0294 -0.4195 -1.7271
  337MOL0     H45485   9.078   2.831   4.883 -0.7992 -0.8562 -0.2949
  337MOL0     H45486   9.087   2.726   5.022  1.1666  0.5985 -0.2308
  337MOL0     H45487   9.120   2.908   5.146 -1.0190  0.9803  0.7206
  337MOL0     H45488   8.946   2.915   5.139  0.1482 -1.0195 -1.0072
  337MOL0     H45489   9.122   3.049   4.942 -1.1520  0.4900 -0.6582
  337MOL0     H45490   8.948   3.062   4.954  2.5904  1.5799 -2.9706
  337MOL0     H45491   9.036   3.367   5.220 -1.6622 -0.4054 -0.0288
  337MOL0     H45492   8.853   2.543   4.622 -0.9548 -1.2149 -2.4695
  337MOL0     H45493   8.595   2.515   4.395 -1.8896  1.6271  1.8964
  337MOL0     H45494   8.764   2.481   4.420  0.0819 -2.9546  0.3048
  337MOL0     H45495   8.644   2.369   4.482  2.7877  0.5021 -1.0531
  338MOL0     O45496   2.159   4.520  11.092  0.6029 -0.6249  0.5082
  338MOL0     C45497   2.093   4.614  11.039 -0.0018 -0.8047  0.9221
  338MOL0     O45498   2.145   4.713  10.951 -0.0175 -0.1608 -0.6246
  338MOL0     C45499   2.281   4.703  10.929 -0.5719  0.2327 -0.8721
  338MOL0     C45500   2.331   4.582  10.872 -0.4716 -0.1034  0.0758
  338MOL0     C45501   2.468   4.556  10.850  0.2216  0.0444  0.5600
  338MOL0     C45502   2.562   4.650  10.904 -0.0387  0.1580  0.0029
  338MOL0     O45503   2.693   4.632  10.907 -0.3925  0.1979  0.3744
  338MOL0     C45504   2.740   4.538  10.998 -0.4794  0.8696 -0.5804
  338MOL0     C45505   2.885   4.575  11.025 -0.1390  0.3775 -0.5712
  338MOL0     C45506   2.960   4.469  11.093  0.0001 -0.4184  0.0155
  338MOL0     C45507   3.073   4.535  11.176 -0.5322  0.9669 -0.8987
  338MOL0     C45508   3.188   4.429  11.208 -0.2102 -0.5823 -0.5837
  338MOL0     C45509   3.304   4.498  11.278  0.1463 -0.4659  0.1211
  338MOL0     C45510   3.422   4.403  11.313  0.4877  0.0277 -0.8332
  338MOL0     C45511   3.374   4.277  11.399 -0.3472  0.1354 -0.3099
  338MOL0     N45512   3.484   4.205  11.463  0.5574  0.9569  0.0018
  338MOL0     C45513   3.511   4.196  11.593  0.1612 -1.1281  0.4129
  338MOL0     C45514   3.635   4.148  11.598 -0.5533  0.1440  0.2625
  338MOL0     C45515   3.709   4.117  11.721  0.0478  0.2537 -0.5251
  338MOL0     C45516   3.816   4.215  11.744 -1.2486 -0.5605  0.2293
  338MOL0     C45517   3.921   4.156  11.850 -0.0456 -0.1422 -0.0732
  338MOL0     C45518   4.046   4.240  11.855 -0.6449  0.6635 -0.0243
  338MOL0     O45519   4.151   4.180  11.936 -0.2059  0.4616 -0.1687
  338MOL0     C45520   4.255   4.105  11.877  0.4972 -0.3001  0.4692
  338MOL0     C45521   4.317   4.017  11.972 -0.0802  0.4581  1.0382
  338MOL0     C45522   4.421   3.934  11.929  0.3522 -0.4453  0.0276
  338MOL0     C45523   4.471   3.943  11.795  0.2731 -0.0176  0.3148
  338MOL0     C45524   4.595   3.883  11.750 -1.1220  0.5043 -0.6947
  338MOL0     O45525   4.661   3.799  11.842 -0.0051 -0.3194 -0.3976
  338MOL0     C45526   4.770   3.726  11.810  0.2670  0.0709  0.2657
  338MOL0     C45527   4.895   3.782  11.797 -0.4254 -0.3166  0.4008
  338MOL0     C45528   5.010   3.703  11.781  0.5216  0.3371  0.6790
  338MOL0     C45529   4.995   3.561  11.786 -0.1561  0.2967 -0.3404
  338MOL0     O45530   5.096   3.468  11.790 -0.2255  0.0854 -0.0185
  338MOL0     C45531   5.176   3.487  11.663  0.2964 -0.0310 -0.1668
  338MOL0     C45532   5.114   3.420  11.542  0.2298  0.1159 -0.2659
  338MOL0     C45533   5.217   3.395  11.426  0.3569  0.4267  0.0390
  338MOL0     C45534   5.150   3.347  11.298 -0.7349 -0.5983 -0.4918
  338MOL0     C45535   5.260   3.300  11.206 -0.1344  0.8020 -0.1159
  338MOL0     C45536   5.199   3.240  11.075  0.5444  1.0534  0.1943
  338MOL0     C45537   5.304   3.252  10.961  0.8933  0.0066 -0.0639
  338MOL0     C45538   5.276   3.189  10.824  0.8493  0.3159  0.0339
  338MOL0    Cl45539   5.128   3.261  10.735  0.1845 -0.1783  0.0782
  338MOL0     C45540   4.873   3.507  11.798  0.1310  0.9528  0.0741
  338MOL0     C45541   4.764   3.587  11.814 -0.0948 -0.4158 -0.1509
  338MOL0     O45542   4.633   3.904  11.636  0.4422  0.0389 -0.2806
  338MOL0     C45543   4.405   4.030  11.708  0.0681 -0.0975 -0.2287
  338MOL0     C45544   4.295   4.103  11.746  0.7111 -0.0055  0.3213
  338MOL0     N45545   3.682   4.133  11.470 -0.3073 -0.1990 -0.3297
  338MOL0     N45546   3.589   4.174  11.388 -0.0326 -0.0393  0.4498
  338MOL0     C45547   2.510   4.772  10.956  0.4317 -0.3005 -0.4406
  338MOL0     C45548   2.371   4.797  10.978 -0.6563 -0.2866  0.1446
  338MOL0     C45549   1.949   4.629  11.082  0.0114  1.2287  0.2000
  338MOL0     C45550   1.865   4.708  10.996  0.4517  0.4776  0.0531
  338MOL0     C45551   1.727   4.710  11.029 -0.7970  0.9607  1.2094
  338MOL0     C45552   1.673   4.644  11.138  0.2660 -0.2572  0.1586
  338MOL0     O45553   1.537   4.639  11.178 -0.8163 -0.4450 -0.2111
  338MOL0     C45554   1.445   4.735  11.122  0.5719  0.2419 -0.0803
  338MOL0     C45555   1.300   4.699  11.165  0.2906  0.4240  1.1452
  338MOL0     C45556   1.203   4.813  11.139  1.1730 -0.7202 -0.3470
  338MOL0     C45557   1.054   4.767  11.154 -0.2636 -0.5897  0.8438
  338MOL0     C45558   0.950   4.866  11.161 -0.7474  0.3776  0.6277
  338MOL0     C45559   0.862   4.945  11.194  0.6225 -0.3729 -0.1987
  338MOL0     C45560   1.766   4.577  11.227  0.5823 -0.3480 -0.0551
  338MOL0     C45561   1.901   4.572  11.200 -0.0313  0.1132  0.0339
  338MOL0     C45562   1.970   4.503  11.315  0.2572  0.1518  0.4099
  338MOL0     H45563   2.264   4.504  10.839  1.7409 -3.3434  2.5915
  338MOL0     H45564   2.511   4.466  10.807 -1.0072 -0.3968  0.2188
  338MOL0     H45565   2.689   4.539  11.095  1.0683  1.1360  0.2642
  338MOL0     H45566   2.723   4.436  10.963 -0.3227  0.5131  0.3381
  338MOL0     H45567   2.867   4.662  11.088 -2.3437 -0.6535  0.3253
  338MOL0     H45568   2.944   4.605  10.938 -1.6468  1.1718 -1.3504
  338MOL0     H45569   2.995   4.400  11.016  0.0313 -3.2909  2.4253
  338MOL0     H45570   2.893   4.411  11.157  0.2262 -2.8193 -1.8151
  338MOL0     H45571   3.111   4.620  11.119  1.6627 -0.3759 -1.5313
  338MOL0     H45572   3.038   4.573  11.273 -1.8788  0.8493 -1.3147
  338MOL0     H45573   3.147   4.355  11.277 -1.1928  0.7442  0.3123
  338MOL0     H45574   3.227   4.392  11.113  1.6303  2.6038 -1.2190
  338MOL0     H45575   3.341   4.581  11.217  1.9286  0.8473  2.8427
  338MOL0     H45576   3.275   4.550  11.370  0.4867 -1.1563  0.6211
  338MOL0     H45577   3.487   4.456  11.384  0.7247 -0.9905 -0.2686
  338MOL0     H45578   3.484   4.377  11.227  2.5582 -0.3852  0.7096
  338MOL0     H45579   3.306   4.313  11.477 -1.9308  0.5582 -1.7967
  338MOL0     H45580   3.326   4.214  11.323 -1.0142  1.2519 -0.8569
  338MOL0     H45581   3.441   4.226  11.671  1.0961  1.4194  0.3608
  338MOL0     H45582   3.633   4.119  11.801 -0.9298 -0.7312 -1.3951
  338MOL0     H45583   3.745   4.014  11.714 -1.0161 -0.3976  2.2181
  338MOL0     H45584   3.873   4.254  11.659  2.6944 -3.9088  0.9835
  338MOL0     H45585   3.777   4.307  11.788  0.0179  2.2744 -3.9675
  338MOL0     H45586   3.948   4.053  11.828  0.6998  0.4003 -1.9080
  338MOL0     H45587   3.876   4.154  11.950  1.9853  0.1787  0.9018
  338MOL0     H45588   4.016   4.336  11.900 -0.6768  0.1780  1.0101
  338MOL0     H45589   4.089   4.261  11.756  0.0457  1.5364  0.4433
  338MOL0     H45590   4.287   4.002  12.075  2.1700 -1.7594  1.4658
  338MOL0     H45591   4.468   3.865  11.998  0.7545  0.7664  1.0020
  338MOL0     H45592   4.909   3.889  11.805 -1.1223 -0.0843 -1.0778
  338MOL0     H45593   5.113   3.737  11.789  1.1501 -1.2000 -0.4306
  338MOL0     H45594   5.206   3.590  11.641  0.9521 -0.3112 -0.6110
  338MOL0     H45595   5.273   3.440  11.680  1.0402  1.8596  1.2651
  338MOL0     H45596   5.062   3.331  11.578  0.6791 -0.2879 -0.5959
  338MOL0     H45597   5.043   3.493  11.501  2.1193 -0.1060 -4.4673
  338MOL0     H45598   5.276   3.487  11.419  3.2830 -1.2150  1.5890
  338MOL0     H45599   5.291   3.320  11.453  0.2000 -0.1445 -1.0748
  338MOL0     H45600   5.108   3.429  11.240 -0.4625 -0.1193 -0.0235
  338MOL0     H45601   5.074   3.269  11.305 -0.7031 -0.9230 -2.9954
  338MOL0     H45602   5.333   3.228  11.243  2.6284  1.3570 -3.9271
  338MOL0     H45603   5.337   3.374  11.184  0.8025  0.0736  0.6051
  338MOL0     H45604   5.194   3.131  11.087  0.7884  1.0066 -0.1378
  338MOL0     H45605   5.100   3.280  11.054 -0.4590 -0.6095  1.5620
  338MOL0     H45606   5.391   3.200  11.002  1.0063  0.3727  0.1561
  338MOL0     H45607   5.322   3.358  10.947  0.3022  0.1408  0.1396
  338MOL0     H45608   5.370   3.204  10.770  0.7720  1.9118  0.2825
  338MOL0     H45609   5.271   3.081  10.841  0.1709 -0.3006 -3.3481
  338MOL0     H45610   4.853   3.402  11.814 -2.6857  1.0964 -1.7888
  338MOL0     H45611   4.671   3.533  11.827  0.7386 -1.6621  0.9518
  338MOL0     H45612   4.449   4.047  11.610  0.4152  0.3881  0.0088
  338MOL0     H45613   4.254   4.166  11.667  1.1271 -0.8416 -0.5904
  338MOL0     H45614   2.585   4.843  10.990  0.5174 -0.4907 -0.2314
  338MOL0     H45615   2.338   4.889  11.024  0.9394  1.7656 -2.5124
  338MOL0     H45616   1.903   4.748  10.903  0.0597  0.3768 -0.1492
  338MOL0     H45617   1.662   4.771  10.967 -0.2519  0.3226 -0.0252
  338MOL0     H45618   1.444   4.735  11.013 -1.0875 -0.6507 -0.0953
  338MOL0     H45619   1.482   4.832  11.155  2.8217 -1.1419  1.8615
  338MOL0     H45620   1.302   4.675  11.272  2.7928  1.4565  1.3901
  338MOL0     H45621   1.284   4.612  11.099  1.0246  1.3456 -0.3007
  338MOL0     H45622   1.218   4.864  11.043  1.2169 -0.3287 -0.1327
  338MOL0     H45623   1.219   4.890  11.215  2.1112  0.1906 -1.4246
  338MOL0     H45624   1.034   4.677  11.096 -0.4674  0.3270 -0.5309
  338MOL0     H45625   1.043   4.720  11.253 -0.6180 -3.3634 -0.4346
  338MOL0     H45626   0.788   5.015  11.225  0.3036 -0.7167 -0.1804
  338MOL0     H45627   1.715   4.542  11.316 -2.9677  1.8074 -1.0100
  338MOL0     H45628   2.017   4.414  11.272  0.3793  0.2364  0.3693
  338MOL0     H45629   2.041   4.566  11.369  1.6644 -2.4457  1.7786
  338MOL0     H45630   1.902   4.468  11.394 -1.6740  1.1378 -0.7305
  339MOL0     O45631   9.366   3.673   2.344 -0.5768  0.2981 -0.2274
  339MOL0     C45632   9.319   3.719   2.445 -0.0583  0.5264 -0.4743
  339MOL0     O45633   9.377   3.709   2.570  0.5497 -0.2993  0.3463
  339MOL0     C45634   9.489   3.635   2.576 -0.9470 -0.5741 -0.2878
  339MOL0     C45635   9.611   3.674   2.515 -0.3251  0.5813  0.3384
  339MOL0     C45636   9.722   3.598   2.545 -0.7015  0.7944 -0.9123
  339MOL0     C45637   9.714   3.478   2.615 -0.3956  0.4700  0.3709
  339MOL0     O45638   9.830   3.409   2.628 -0.5879  0.3624 -0.1211
  339MOL0     C45639   9.819   3.261   2.627 -0.1645 -0.2753  0.1165
  339MOL0     C45640   9.960   3.208   2.592  0.4881 -0.1501 -1.5791
  339MOL0     C45641   9.979   3.219   2.442 -0.6843 -0.1777 -0.1728
  339MOL0     C45642  10.109   3.158   2.388 -0.0639 -0.3783 -0.4104
  339MOL0     C45643  10.235   3.225   2.442 -0.1619  0.1919 -0.0912
  339MOL0     C45644  10.349   3.189   2.356  0.0457 -1.0513  0.5914
  339MOL0     C45645  10.375   3.031   2.327 -0.2593  0.2249  0.6306
  339MOL0     C45646  10.384   2.944   2.453  0.1865 -0.6019 -0.0467
  339MOL0     N45647  10.491   2.979   2.547 -0.0033  0.1536 -0.6562
  339MOL0     C45648  10.476   3.062   2.655 -0.5508 -0.2913 -0.3336
  339MOL0     C45649  10.595   3.078   2.716 -0.3255  0.4877  0.7294
  339MOL0     C45650  10.628   3.151   2.838  0.3094 -0.1459  0.9499
  339MOL0     C45651  10.777   3.190   2.845 -0.0277  0.5916  0.1569
  339MOL0     C45652  10.807   3.325   2.786 -0.2678 -0.1868 -0.7216
  339MOL0     C45653  10.952   3.343   2.785  0.7935  1.1858  0.9420
  339MOL0     O45654  10.982   3.478   2.754  0.5566 -0.5883  0.2639
  339MOL0     C45655  11.105   3.536   2.791  0.1375  0.6103  0.1636
  339MOL0     C45656  11.219   3.453   2.806 -0.6824 -1.0225 -0.0388
  339MOL0     C45657  11.337   3.521   2.842 -0.6234  0.7112 -0.6148
  339MOL0     C45658  11.347   3.664   2.852 -0.0828 -0.1930  0.4775
  339MOL0     C45659  11.473   3.740   2.900 -0.3814 -0.1744  0.2875
  339MOL0     O45660  11.586   3.662   2.905 -0.0573 -0.0627  0.0912
  339MOL0     C45661  11.696   3.721   2.962  0.3553  0.1010  0.2275
  339MOL0     C45662  11.763   3.665   3.071  0.3035  0.0988 -0.3144
  339MOL0     C45663  11.872   3.734   3.137 -0.1226 -0.0726  0.1555
  339MOL0     C45664  11.920   3.854   3.077  0.4055 -0.2786  0.0937
  339MOL0     O45665  12.025   3.910   3.139 -0.4888 -0.1638 -0.3359
  339MOL0     C45666  12.038   4.054   3.133  0.0988 -0.0965  0.0764
  339MOL0     C45667  12.149   4.087   3.236  0.5816  0.2359  0.3495
  339MOL0     C45668  12.281   4.023   3.195 -0.0338  0.1413  0.8270
  339MOL0     C45669  12.389   4.086   3.274 -0.2497  0.0639  0.1582
  339MOL0     C45670  12.522   4.019   3.218 -0.2674 -0.3825  0.0224
  339MOL0     C45671  12.650   4.087   3.265 -0.3332 -0.5106 -0.5336
  339MOL0     C45672  12.767   4.044   3.182  0.7242  0.2212  0.1199
  339MOL0     C45673  12.895   4.106   3.231  0.5319 -0.0909  0.6998
  339MOL0    Cl45674  13.036   4.057   3.137  0.1930 -0.6877 -0.4637
  339MOL0     C45675  11.865   3.896   2.952 -0.1791  0.4901 -0.8216
  339MOL0     C45676  11.754   3.836   2.898 -0.9477  0.2661 -0.3750
  339MOL0     O45677  11.462   3.862   2.914 -0.5249 -0.2528 -0.3831
  339MOL0     C45678  11.227   3.742   2.836 -1.2863  0.7832 -0.7152
  339MOL0     C45679  11.106   3.672   2.812 -0.3712  0.0416 -0.0353
  339MOL0     N45680  10.679   2.990   2.647 -0.4710 -0.2521  0.4491
  339MOL0     N45681  10.621   2.937   2.545 -0.2125 -0.2316  0.0970
  339MOL0     C45682   9.588   3.437   2.659 -0.6819 -0.0757 -0.1633
  339MOL0     C45683   9.476   3.509   2.633  0.8088  0.5366 -0.4613
  339MOL0     C45684   9.176   3.774   2.451 -0.8639 -0.3502 -1.0449
  339MOL0     C45685   9.118   3.776   2.580 -0.6265  0.9158  0.1122
  339MOL0     C45686   9.008   3.851   2.599  0.4512  0.2940 -0.2949
  339MOL0     C45687   8.931   3.900   2.497  0.1129  0.0786  0.3710
  339MOL0     O45688   8.799   3.939   2.500 -0.1293 -0.1593 -0.4182
  339MOL0     C45689   8.751   3.939   2.633 -1.1548  0.0143  0.1365
  339MOL0     C45690   8.613   3.985   2.615 -0.2286 -0.4332 -0.1348
  339MOL0     C45691   8.531   4.001   2.744 -0.4281  0.0674 -1.1382
  339MOL0     C45692   8.382   4.018   2.718 -0.4123  0.5263 -1.2724
  339MOL0     C45693   8.322   4.014   2.851  0.0071 -0.8482 -0.5059
  339MOL0     C45694   8.274   4.019   2.958  0.6312  0.1638 -0.5927
  339MOL0     C45695   8.982   3.883   2.366  0.5373 -0.8610  0.0248
  339MOL0     C45696   9.114   3.832   2.339  0.2835 -0.1749 -0.2214
  339MOL0     C45697   9.178   3.833   2.207  0.5205 -0.0220  0.4206
  339MOL0     H45698   9.622   3.768   2.461 -1.6421 -0.2029 -1.3758
  339MOL0     H45699   9.815   3.625   2.497  0.0811 -2.5370 -1.5424
  339MOL0     H45700   9.791   3.239   2.731 -0.4188  2.2491  0.6614
  339MOL0     H45701   9.742   3.219   2.561  0.5884 -0.4598 -0.6514
  339MOL0     H45702   9.962   3.102   2.621 -3.5592  0.4865  2.2634
  339MOL0     H45703  10.027   3.262   2.660 -1.5553  2.4753 -1.4646
  339MOL0     H45704   9.968   3.321   2.405 -0.6329 -0.4190 -0.8691
  339MOL0     H45705   9.902   3.156   2.397 -0.9214  1.3839 -2.0954
  339MOL0     H45706  10.113   3.054   2.421 -2.4402  0.2641  2.2585
  339MOL0     H45707  10.107   3.175   2.279 -4.7620  1.3054 -0.3042
  339MOL0     H45708  10.217   3.333   2.441 -1.0774  0.0444 -0.5456
  339MOL0     H45709  10.240   3.208   2.549 -3.3416  1.6680  0.4156
  339MOL0     H45710  10.330   3.224   2.254  1.6303 -0.1995  0.5570
  339MOL0     H45711  10.437   3.241   2.394  1.1156 -0.5020 -2.3345
  339MOL0     H45712  10.458   3.012   2.259 -1.1881  1.2790 -0.8472
  339MOL0     H45713  10.295   2.997   2.261  2.9699  0.6571 -3.9097
  339MOL0     H45714  10.284   2.927   2.495 -0.2506 -1.4978 -1.4079
  339MOL0     H45715  10.412   2.843   2.423 -1.4762 -1.7740  2.0673
  339MOL0     H45716  10.386   3.122   2.670 -2.1659 -2.0708 -2.2517
  339MOL0     H45717  10.570   3.244   2.834  3.0657  1.6247 -0.1653
  339MOL0     H45718  10.605   3.099   2.932  0.5325  1.8628  2.1835
  339MOL0     H45719  10.807   3.195   2.950  0.0565 -0.7938  0.2225
  339MOL0     H45720  10.846   3.118   2.800  0.3614 -0.6331  2.5459
  339MOL0     H45721  10.749   3.399   2.843 -5.7995 -2.9820 -1.9939
  339MOL0     H45722  10.761   3.336   2.687  1.3620  0.8993 -1.3975
  339MOL0     H45723  10.988   3.269   2.712  2.1103  1.0012  1.7474
  339MOL0     H45724  10.998   3.317   2.880  2.0247 -0.7939 -0.1130
  339MOL0     H45725  11.221   3.344   2.814 -1.1977 -1.0225  0.1020
  339MOL0     H45726  11.426   3.461   2.856  0.1332  1.1992 -2.9592
  339MOL0     H45727  11.732   3.568   3.109  0.3245  0.0036 -0.5344
  339MOL0     H45728  11.922   3.696   3.226 -1.9546  1.8482  2.1401
  339MOL0     H45729  12.063   4.084   3.031  3.1146 -1.7119  0.2420
  339MOL0     H45730  11.947   4.104   3.168  0.4429  1.3763 -1.0546
  339MOL0     H45731  12.160   4.196   3.244 -0.9672  0.3476  1.4745
  339MOL0     H45732  12.112   4.049   3.332 -1.1209  2.4760  0.6703
  339MOL0     H45733  12.271   3.916   3.217 -1.7069 -0.2849 -1.5725
  339MOL0     H45734  12.314   4.035   3.091  2.0585 -0.6134  1.3635
  339MOL0     H45735  12.387   4.056   3.380  0.7941 -3.0635 -0.5926
  339MOL0     H45736  12.392   4.193   3.254  0.9104  0.2528  1.2358
  339MOL0     H45737  12.519   4.009   3.109 -3.7989  3.1684 -0.4655
  339MOL0     H45738  12.526   3.914   3.248  0.4746 -1.0141 -2.1172
  339MOL0     H45739  12.639   4.196   3.263  0.3807 -0.4166  0.2131
  339MOL0     H45740  12.676   4.069   3.369  1.9145 -1.0361 -1.1286
  339MOL0     H45741  12.754   4.090   3.084 -1.7505  1.5682  0.9761
  339MOL0     H45742  12.767   3.937   3.162 -1.3138 -0.2774  2.3345
  339MOL0     H45743  12.877   4.212   3.212 -1.0717 -0.2173  1.4091
  339MOL0     H45744  12.911   4.097   3.339  0.4520 -1.4353  0.6122
  339MOL0     H45745  11.908   3.978   2.895 -0.7431 -1.0787 -3.6859
  339MOL0     H45746  11.709   3.865   2.803  1.1565 -1.6796 -2.1007
  339MOL0     H45747  11.222   3.850   2.845  1.5449  0.9434  0.0261
  339MOL0     H45748  11.022   3.740   2.807  0.4469  1.2303  1.4845
  339MOL0     H45749   9.574   3.350   2.721 -2.3996 -1.8625 -2.8067
  339MOL0     H45750   9.377   3.479   2.665  0.2781  2.3327 -0.2911
  339MOL0     H45751   9.164   3.732   2.668 -2.7766  2.2913  2.0176
  339MOL0     H45752   8.993   3.871   2.705  2.7321 -0.3353  0.2034
  339MOL0     H45753   8.805   4.013   2.691  1.0612 -0.7663 -0.8372
  339MOL0     H45754   8.753   3.839   2.678 -0.5343 -0.7352 -1.4632
  339MOL0     H45755   8.561   3.909   2.556 -1.3057  0.1511  0.0281
  339MOL0     H45756   8.626   4.073   2.551  2.4795 -0.2302  0.5791
  339MOL0     H45757   8.574   4.088   2.794  0.9730 -0.4646 -1.3677
  339MOL0     H45758   8.560   3.913   2.803  5.0206  0.6066 -2.5136
  339MOL0     H45759   8.361   4.114   2.669 -1.6432  1.6783  1.3182
  339MOL0     H45760   8.339   3.928   2.674  0.0438 -3.0086  4.4944
  339MOL0     H45761   8.232   4.029   3.056  0.9435 -0.5775 -0.3756
  339MOL0     H45762   8.920   3.908   2.281 -1.1402  0.8596  1.6715
  339MOL0     H45763   9.172   3.729   2.176 -1.5574  0.4041 -0.7702
  339MOL0     H45764   9.133   3.888   2.124  1.2596 -3.1412 -2.2476
  339MOL0     H45765   9.283   3.863   2.212  0.2922  0.7020  1.3195
  340MOL0     O45766   8.644   1.085   0.448  0.2449  0.6256  0.4055
  340MOL0     C45767   8.558   1.157   0.402  0.8492  0.3651  0.7598
  340MOL0     O45768   8.539   1.287   0.424 -0.7665 -0.2702  0.1221
  340MOL0     C45769   8.633   1.340   0.517  0.4581  0.3209  0.2258
  340MOL0     C45770   8.772   1.310   0.527 -1.0457 -0.6545  0.1083
  340MOL0     C45771   8.854   1.375   0.621 -0.9010 -0.6684 -0.7201
  340MOL0     C45772   8.801   1.468   0.713  1.1355  0.1411 -0.1948
  340MOL0     O45773   8.890   1.512   0.811  0.0917 -0.2049  1.2230
  340MOL0     C45774   8.856   1.622   0.894 -0.6446  0.2093  0.4059
  340MOL0     C45775   8.863   1.756   0.820  0.0627  0.4307  0.4668
  340MOL0     C45776   8.850   1.879   0.905  0.2306  0.0924  0.6791
  340MOL0     C45777   8.886   2.015   0.832 -0.2335 -0.4292  0.4950
  340MOL0     C45778   8.799   2.044   0.714  0.3862  0.2108  0.7616
  340MOL0     C45779   8.671   2.105   0.765  0.6363  0.2763  0.0780
  340MOL0     C45780   8.575   2.130   0.649 -0.7902 -0.3296  0.2167
  340MOL0     C45781   8.494   2.260   0.654  0.4503  0.2876 -0.1453
  340MOL0     N45782   8.570   2.393   0.647  0.6636  0.4884  0.2835
  340MOL0     C45783   8.509   2.515   0.629 -1.1286  0.2069  0.4373
  340MOL0     C45784   8.608   2.610   0.661  0.8687  0.4274 -0.0985
  340MOL0     C45785   8.586   2.760   0.671  0.6064 -0.1081 -0.5980
  340MOL0     C45786   8.701   2.841   0.748  0.1415  0.0913  0.0504
  340MOL0     C45787   8.723   2.796   0.894  0.1854 -0.4957 -0.0695
  340MOL0     C45788   8.616   2.848   1.002  0.0920  0.8232  0.2783
  340MOL0     O45789   8.642   2.791   1.132 -0.3085  0.6696  0.1992
  340MOL0     C45790   8.742   2.839   1.215 -0.1458  0.5305 -0.1462
  340MOL0     C45791   8.805   2.754   1.308  0.0790 -1.1526  0.7523
  340MOL0     C45792   8.909   2.796   1.389  0.0088 -1.2750 -0.2673
  340MOL0     C45793   8.961   2.922   1.378  0.1713  0.0615 -0.1507
  340MOL0     C45794   9.066   2.968   1.473 -0.0357  0.9648  0.1989
  340MOL0     O45795   9.075   2.903   1.593  0.2742 -0.2924 -0.0174
  340MOL0     C45796   9.201   2.901   1.640 -0.9062 -0.1043  0.0178
  340MOL0     C45797   9.270   2.993   1.729  0.3295  0.4711  0.0415
  340MOL0     C45798   9.404   2.986   1.768 -0.0216 -0.2059  0.4080
  340MOL0     C45799   9.471   2.878   1.719 -0.5777  0.0049  0.6874
  340MOL0     O45800   9.605   2.852   1.747  0.1671  0.2851 -0.0189
  340MOL0     C45801   9.657   2.930   1.856 -0.1475 -0.3694  0.2517
  340MOL0     C45802   9.791   2.865   1.894  0.9689 -0.4724 -0.4035
  340MOL0     C45803   9.907   2.952   1.841 -0.4232 -0.6937 -0.0430
  340MOL0     C45804  10.023   2.951   1.952  0.1059 -0.7026 -0.5947
  340MOL0     C45805  10.094   2.820   1.966  0.4479  0.1707  0.4133
  340MOL0     C45806  10.244   2.838   2.002  0.1084  0.0919 -0.7389
  340MOL0     C45807  10.324   2.707   1.985 -0.4124  0.0279 -0.5369
  340MOL0     C45808  10.264   2.602   2.078 -0.3280 -0.8597  0.4321
  340MOL0    Cl45809  10.387   2.479   2.080 -0.7023  0.1209 -0.7868
  340MOL0     C45810   9.417   2.780   1.638  0.1221 -0.3575 -0.1299
  340MOL0     C45811   9.283   2.796   1.592 -0.5815 -0.5120 -0.6126
  340MOL0     O45812   9.140   3.055   1.425 -0.5011 -0.2846 -0.2230
  340MOL0     C45813   8.915   3.007   1.276 -0.5519  0.4929 -0.3336
  340MOL0     C45814   8.805   2.960   1.189  0.4213 -0.2341 -0.3747
  340MOL0     N45815   8.724   2.544   0.690 -0.1656 -0.6049 -0.3935
  340MOL0     N45816   8.701   2.417   0.686 -0.0914 -0.2161 -0.9042
  340MOL0     C45817   8.659   1.487   0.709 -0.1156  0.5137  0.3306
  340MOL0     C45818   8.582   1.422   0.608 -0.6009 -1.0376 -0.8180
  340MOL0     C45819   8.449   1.104   0.318  0.3820  0.5770  0.5573
  340MOL0     C45820   8.338   1.179   0.287 -0.8514  0.2741 -0.6011
  340MOL0     C45821   8.224   1.126   0.231  0.2430 -0.0246 -0.1089
  340MOL0     C45822   8.221   0.992   0.194  0.4592  0.6130 -0.7609
  340MOL0     O45823   8.125   0.941   0.106  0.2054  0.1368 -0.5283
  340MOL0     C45824   7.987   0.996   0.103  0.1565 -0.3443 -0.1956
  340MOL0     C45825   7.963   1.059  -0.033 -0.1653 -0.0357 -0.2838
  340MOL0     C45826   7.997   1.200  -0.057 -1.1530 -0.8262 -0.7701
  340MOL0     C45827   8.008   1.233  -0.208  0.5159 -0.9004 -0.8271
  340MOL0     C45828   7.879   1.209  -0.281  0.1045  0.4077 -0.0519
  340MOL0     C45829   7.780   1.171  -0.334  0.6174 -1.2584 -0.6891
  340MOL0     C45830   8.333   0.913   0.223 -0.6291 -0.1036 -0.0649
  340MOL0     C45831   8.449   0.967   0.274 -0.0597  0.1053 -0.2002
  340MOL0     C45832   8.562   0.881   0.279  0.8134  0.3841 -0.1277
  340MOL0     H45833   8.826   1.242   0.462  2.0666 -1.6111  3.3907
  340MOL0     H45834   8.961   1.357   0.617 -1.1796 -2.4659 -1.0864
  340MOL0     H45835   8.756   1.619   0.939 -1.8323  1.6154 -1.9571
  340MOL0     H45836   8.928   1.621   0.976 -1.2289  2.5937  1.0135
  340MOL0     H45837   8.785   1.755   0.743  1.3813  0.8038 -0.9424
  340MOL0     H45838   8.950   1.755   0.753 -0.7345  1.5711 -0.6429
  340MOL0     H45839   8.912   1.875   0.995  1.4940  1.1140 -0.0985
  340MOL0     H45840   8.747   1.894   0.940 -0.6198 -1.2241 -1.0966
  340MOL0     H45841   8.874   2.094   0.907 -1.3442  0.3264 -0.4376
  340MOL0     H45842   8.988   2.018   0.793 -0.9455  0.2996 -1.4713
  340MOL0     H45843   8.847   2.119   0.650  0.5843  0.5759  1.3306
  340MOL0     H45844   8.774   1.963   0.645  0.6672  1.6540 -1.1213
  340MOL0     H45845   8.627   2.035   0.836  1.8950 -1.4407 -0.7695
  340MOL0     H45846   8.695   2.201   0.812 -1.9968  1.4394 -0.8068
  340MOL0     H45847   8.503   2.048   0.640 -0.3878 -0.5849 -0.8590
  340MOL0     H45848   8.635   2.128   0.558  0.7596 -0.6875  1.2169
  340MOL0     H45849   8.412   2.262   0.581 -0.5551  0.2078  0.9436
  340MOL0     H45850   8.440   2.255   0.749  0.9400 -1.0329  0.0847
  340MOL0     H45851   8.405   2.540   0.613 -0.5820  0.9376 -2.6329
  340MOL0     H45852   8.574   2.797   0.569 -1.3254  1.0151 -0.0308
  340MOL0     H45853   8.489   2.777   0.718  1.3559  1.7473  0.3764
  340MOL0     H45854   8.788   2.820   0.684 -0.3695 -3.6783  0.3752
  340MOL0     H45855   8.689   2.949   0.735  1.1768  0.1983 -0.1783
  340MOL0     H45856   8.820   2.834   0.929  0.0789 -0.7124  0.4757
  340MOL0     H45857   8.724   2.687   0.906 -1.9900 -0.2678  4.8518
  340MOL0     H45858   8.515   2.820   0.971  0.9692 -1.2846 -0.8178
  340MOL0     H45859   8.611   2.957   1.006 -1.9707  0.7535  0.8383
  340MOL0     H45860   8.754   2.659   1.322 -3.0983  0.4552  0.8740
  340MOL0     H45861   8.949   2.725   1.460  0.5728 -1.4379 -0.7339
  340MOL0     H45862   9.229   3.086   1.765  0.8474 -0.2086  2.6059
  340MOL0     H45863   9.453   3.063   1.827  2.6229 -0.2283 -1.5966
  340MOL0     H45864   9.664   3.037   1.837 -0.9054  0.3152  3.3138
  340MOL0     H45865   9.587   2.909   1.937  1.6987 -4.3882  1.0858
  340MOL0     H45866   9.790   2.858   2.003 -1.3466 -2.3507 -0.4368
  340MOL0     H45867   9.804   2.766   1.849  1.5954 -0.1885 -0.8642
  340MOL0     H45868   9.938   2.895   1.753 -1.0306  0.3607 -0.9552
  340MOL0     H45869   9.886   3.052   1.802  1.0852 -1.4214 -3.0071
  340MOL0     H45870   9.991   2.993   2.048  1.3712  0.2159 -0.5406
  340MOL0     H45871  10.095   3.022   1.910 -0.8855  3.0549  3.2873
  340MOL0     H45872  10.080   2.773   1.868 -1.4601 -1.4195  1.3759
  340MOL0     H45873  10.044   2.754   2.038  0.5475 -1.4815 -0.9615
  340MOL0     H45874  10.281   2.912   1.931 -0.4285  0.4446 -0.6625
  340MOL0     H45875  10.252   2.878   2.103 -0.9413 -1.0832 -0.1514
  340MOL0     H45876  10.428   2.732   2.011 -1.0720  0.6213  1.7332
  340MOL0     H45877  10.307   2.669   1.884 -3.7555  1.0791 -0.4888
  340MOL0     H45878  10.236   2.631   2.179  1.8052 -1.9944  1.4319
  340MOL0     H45879  10.174   2.566   2.028 -0.2223 -1.7312  0.8434
  340MOL0     H45880   9.462   2.686   1.610  0.3557 -0.5300  0.7777
  340MOL0     H45881   9.247   2.721   1.521  0.0181  0.1772 -1.6693
  340MOL0     H45882   8.948   3.108   1.256  0.5117  0.8889  2.8307
  340MOL0     H45883   8.785   3.027   1.106  3.5616  1.4517  0.0600
  340MOL0     H45884   8.627   1.566   0.777  0.0637 -0.0568  1.0860
  340MOL0     H45885   8.477   1.444   0.594 -0.9855 -2.8061 -0.9346
  340MOL0     H45886   8.334   1.286   0.306 -0.2807  0.6860 -2.5294
  340MOL0     H45887   8.144   1.197   0.215 -0.7758 -0.4197  2.7408
  340MOL0     H45888   7.960   1.060   0.188  1.2286 -0.7062  0.4296
  340MOL0     H45889   7.920   0.910   0.114 -1.7265  1.0261 -0.3213
  340MOL0     H45890   7.855   1.055  -0.050 -0.9402 -1.4969  3.7630
  340MOL0     H45891   8.013   1.006  -0.114 -1.1644  1.0801 -1.6729
  340MOL0     H45892   8.095   1.218  -0.013 -0.9092  0.5811 -1.8242
  340MOL0     H45893   7.926   1.271  -0.014  0.5735  2.1332 -2.4834
  340MOL0     H45894   8.036   1.338  -0.210 -6.9133  1.7761  1.4585
  340MOL0     H45895   8.087   1.170  -0.249 -1.6634 -4.6068  0.1642
  340MOL0     H45896   7.695   1.126  -0.382 -1.3299  0.4260  0.9636
  340MOL0     H45897   8.340   0.809   0.191  2.8979 -0.4610  1.4628
  340MOL0     H45898   8.554   0.805   0.201  1.6343  0.5345 -0.3704
  340MOL0     H45899   8.650   0.943   0.261  0.2538  2.4311  3.3366
  340MOL0     H45900   8.579   0.817   0.366 -1.9901 -2.1122 -1.2433
  341MOL0     O45901   0.457   8.033   1.836 -0.0594  0.1559  0.0026
  341MOL0     C45902   0.392   8.089   1.743  0.4230 -0.6074 -0.1824
  341MOL0     O45903   0.451   8.123   1.618 -0.2413 -0.2371  0.2878
  341MOL0     C45904   0.575   8.077   1.580 -0.3873  0.3583 -0.4548
  341MOL0     C45905   0.612   7.945   1.583  0.1873 -0.2179 -0.4893
  341MOL0     C45906   0.745   7.916   1.550 -0.0150  0.0844 -0.1459
  341MOL0     C45907   0.827   8.014   1.492  0.5844  0.2675 -0.3315
  341MOL0     O45908   0.944   7.979   1.436  0.1080 -0.8831 -0.0050
  341MOL0     C45909   1.061   8.035   1.491 -0.0687 -0.1868  0.9951
  341MOL0     C45910   1.167   7.932   1.469  0.0892  0.3150 -0.0808
  341MOL0     C45911   1.295   7.948   1.543  0.4172  0.7210  0.7475
  341MOL0     C45912   1.397   7.848   1.498 -0.8317 -0.1594  0.2530
  341MOL0     C45913   1.540   7.897   1.520  0.6294 -0.1629 -0.3612
  341MOL0     C45914   1.634   7.799   1.460 -0.3401 -0.0621  0.3384
  341MOL0     C45915   1.776   7.843   1.506 -1.1296  0.0288  0.4941
  341MOL0     C45916   1.879   7.770   1.420 -0.3752  0.0730  0.2191
  341MOL0     N45917   2.015   7.800   1.469 -0.0613 -0.1764 -0.2885
  341MOL0     C45918   2.099   7.707   1.527  0.7308  0.2082  0.0827
  341MOL0     C45919   2.221   7.768   1.528  0.4126  0.9498  0.2248
  341MOL0     C45920   2.343   7.691   1.560  0.1190 -0.3134 -0.4535
  341MOL0     C45921   2.406   7.760   1.682  0.0039 -0.5368 -0.0575
  341MOL0     C45922   2.484   7.662   1.771 -0.3411 -0.0915 -0.3885
  341MOL0     C45923   2.498   7.746   1.901  0.6613  0.4610  0.3908
  341MOL0     O45924   2.573   7.673   1.998  0.8440  0.9687 -0.1053
  341MOL0     C45925   2.595   7.741   2.108  0.1646 -0.1291  0.3960
  341MOL0     C45926   2.500   7.757   2.212  0.2366 -0.5348  0.0933
  341MOL0     C45927   2.533   7.838   2.323  0.4161 -0.5570 -0.4160
  341MOL0     C45928   2.660   7.900   2.332  0.2228 -1.0204  0.0663
  341MOL0     C45929   2.689   7.982   2.450  0.0228  0.1951 -0.3674
  341MOL0     O45930   2.811   8.041   2.452  0.4696 -0.1917 -0.7951
  341MOL0     C45931   2.847   8.105   2.568 -0.2098  0.9809  0.5953
  341MOL0     C45932   2.928   8.043   2.657  0.9103  0.0148 -0.6200
  341MOL0     C45933   2.982   8.126   2.759 -0.5657 -0.4122 -0.5503
  341MOL0     C45934   2.938   8.261   2.777  0.1863 -1.2354  0.6337
  341MOL0     O45935   2.955   8.334   2.892  0.3185 -0.4368 -0.2595
  341MOL0     C45936   2.927   8.260   3.010  0.5289  0.4361 -0.1363
  341MOL0     C45937   2.937   8.344   3.136 -0.5643  1.1345 -0.0716
  341MOL0     C45938   3.074   8.410   3.158  0.0300 -0.2862 -0.3177
  341MOL0     C45939   3.193   8.312   3.177 -0.3582 -0.2647  0.5363
  341MOL0     C45940   3.324   8.377   3.226  0.3359  1.1594 -0.6775
  341MOL0     C45941   3.435   8.272   3.245  0.2268 -0.1082 -0.4312
  341MOL0     C45942   3.569   8.338   3.266  0.2000 -0.0296  0.5276
  341MOL0     C45943   3.582   8.388   3.406  0.3834 -0.1454 -0.6323
  341MOL0    Cl45944   3.744   8.432   3.454  0.0128 -0.1704 -0.3133
  341MOL0     C45945   2.854   8.319   2.678 -0.1062 -0.1723 -0.5946
  341MOL0     C45946   2.813   8.240   2.574  0.5738  0.4217 -0.4661
  341MOL0     O45947   2.602   8.006   2.531 -0.0712 -0.3579 -0.2539
  341MOL0     C45948   2.759   7.884   2.228 -0.5602  0.0284 -0.4269
  341MOL0     C45949   2.719   7.806   2.116 -1.9071  0.5243  0.0923
  341MOL0     N45950   2.217   7.883   1.468  0.2343  0.1135 -0.2425
  341MOL0     N45951   2.102   7.912   1.437  0.4482  0.6412  0.7842
  341MOL0     C45952   0.788   8.145   1.482 -0.0392  0.0486 -0.5618
  341MOL0     C45953   0.660   8.182   1.530 -0.3204 -0.3432 -0.5829
  341MOL0     C45954   0.266   8.164   1.772  0.4582 -0.0961  0.8765
  341MOL0     C45955   0.227   8.269   1.686  0.4015 -0.7573  0.0745
  341MOL0     C45956   0.103   8.346   1.712 -0.3131 -0.0180  0.1687
  341MOL0     C45957   0.014   8.302   1.812  0.2714 -0.2321  0.6902
  341MOL0     O45958  -0.099   8.379   1.835 -0.9343 -0.2176 -1.0319
  341MOL0     C45959  -0.222   8.316   1.877 -0.3438  0.6346 -0.1549
  341MOL0     C45960  -0.341   8.412   1.884 -0.0867  0.0618  1.0080
  341MOL0     C45961  -0.447   8.313   1.931  0.2448  0.3547  0.7129
  341MOL0     C45962  -0.577   8.397   1.937  0.1666 -0.5267 -0.1236
  341MOL0     C45963  -0.710   8.322   1.958 -0.4968 -0.1720 -0.2552
  341MOL0     C45964  -0.821   8.268   1.976 -0.1174  0.4516 -0.4604
  341MOL0     C45965   0.047   8.185   1.884  0.0153 -0.0626 -0.6046
  341MOL0     C45966   0.168   8.117   1.864  0.3066 -0.8426  0.4217
  341MOL0     C45967   0.176   7.997   1.945  0.4172  0.5615  0.2713
  341MOL0     H45968   0.539   7.870   1.612 -0.9011  1.0058  0.0660
  341MOL0     H45969   0.766   7.810   1.552 -4.1876 -0.9545 -1.6398
  341MOL0     H45970   1.104   8.126   1.446  0.2507 -0.6846  0.2684
  341MOL0     H45971   1.040   8.046   1.598 -1.5248 -2.2003  0.9667
  341MOL0     H45972   1.187   7.936   1.361  0.1566 -1.9639 -0.2089
  341MOL0     H45973   1.129   7.833   1.498 -0.4054  0.5570  0.1069
  341MOL0     H45974   1.267   7.935   1.648 -1.5264  1.5962  0.3748
  341MOL0     H45975   1.322   8.052   1.528  2.2938  0.2139  0.3005
  341MOL0     H45976   1.381   7.757   1.557  2.2550 -0.0592  1.4243
  341MOL0     H45977   1.387   7.833   1.390 -1.8338 -2.2221  0.5806
  341MOL0     H45978   1.548   7.998   1.479 -1.9197  1.1135  1.9426
  341MOL0     H45979   1.542   7.898   1.629 -4.8976 -0.6001  0.0384
  341MOL0     H45980   1.616   7.701   1.505 -0.5805  0.8176  2.2182
  341MOL0     H45981   1.622   7.795   1.351  1.7312 -0.0099  0.0673
  341MOL0     H45982   1.806   7.812   1.607  1.6318  0.4409 -0.1358
  341MOL0     H45983   1.801   7.946   1.479  0.4251 -0.8623 -1.7441
  341MOL0     H45984   1.856   7.663   1.425  0.9393 -0.1692  2.0314
  341MOL0     H45985   1.866   7.807   1.318  3.0829  0.5265 -0.1963
  341MOL0     H45986   2.077   7.601   1.540  1.4420  0.0707  0.2110
  341MOL0     H45987   2.294   7.599   1.594 -2.4202  1.4589  1.0900
  341MOL0     H45988   2.412   7.673   1.477  1.4449  1.3255  0.2409
  341MOL0     H45989   2.471   7.838   1.640 -0.7896  0.8534  1.2241
  341MOL0     H45990   2.332   7.814   1.741  1.2663  0.4696  0.6758
  341MOL0     H45991   2.583   7.644   1.728  2.5324  3.6244  3.7413
  341MOL0     H45992   2.426   7.572   1.793 -1.4116  0.7281  0.2546
  341MOL0     H45993   2.401   7.780   1.939 -0.2507 -0.3672 -1.1218
  341MOL0     H45994   2.552   7.838   1.875  0.3839  1.6738  3.6532
  341MOL0     H45995   2.394   7.731   2.205  0.1170 -0.2935  0.9620
  341MOL0     H45996   2.458   7.839   2.402 -0.0466  3.4441 -0.7344
  341MOL0     H45997   2.957   7.940   2.636  0.6486  0.3026 -2.5899
  341MOL0     H45998   3.037   8.071   2.834 -2.8293 -2.8453 -0.5219
  341MOL0     H45999   2.829   8.215   2.992  1.3886 -2.6262  1.8755
  341MOL0     H46000   2.998   8.177   3.020  0.4542  0.5075  1.1622
  341MOL0     H46001   2.866   8.427   3.130 -0.9755  0.8345  0.5234
  341MOL0     H46002   2.922   8.279   3.223 -0.7618 -1.0932 -1.6848
  341MOL0     H46003   3.104   8.471   3.073 -0.4815  0.5150  0.0537
  341MOL0     H46004   3.062   8.478   3.244  1.3078  0.8466 -1.0051
  341MOL0     H46005   3.206   8.254   3.085 -0.1290 -2.1618  1.7013
  341MOL0     H46006   3.176   8.237   3.255  3.0180 -1.7703 -0.0094
  341MOL0     H46007   3.302   8.446   3.307 -0.5952  2.4280 -1.9624
  341MOL0     H46008   3.353   8.440   3.141 -0.4001 -0.5793 -2.3095
  341MOL0     H46009   3.411   8.214   3.335 -1.3157 -0.2050 -0.8660
  341MOL0     H46010   3.425   8.211   3.154 -2.6655  1.1932 -1.1029
  341MOL0     H46011   3.580   8.420   3.195  2.0376  0.7004  1.5908
  341MOL0     H46012   3.653   8.269   3.256  0.9252  0.5607  2.2557
  341MOL0     H46013   3.519   8.477   3.418  1.1906  0.2318  0.9751
  341MOL0     H46014   3.552   8.306   3.472  0.3502 -1.0251 -1.7029
  341MOL0     H46015   2.815   8.419   2.689 -4.2702 -1.5176 -1.3071
  341MOL0     H46016   2.749   8.283   2.498 -0.0520 -1.8255 -1.2881
  341MOL0     H46017   2.859   7.925   2.238 -0.5690  0.0220 -0.3188
  341MOL0     H46018   2.778   7.795   2.025 -0.9792 -0.0129  0.7388
  341MOL0     H46019   0.847   8.224   1.436  2.1751 -1.0251  0.3118
  341MOL0     H46020   0.617   8.281   1.540  0.3990  0.1251 -1.9292
  341MOL0     H46021   0.281   8.299   1.597  0.2456 -2.1920 -0.5223
  341MOL0     H46022   0.076   8.432   1.651 -1.2391 -1.4191 -1.4963
  341MOL0     H46023  -0.208   8.258   1.969 -0.6695 -0.6709 -0.9118
  341MOL0     H46024  -0.246   8.243   1.799  1.4627 -1.4671  1.1264
  341MOL0     H46025  -0.351   8.461   1.787 -3.2334 -2.5659 -0.1812
  341MOL0     H46026  -0.330   8.498   1.951  2.6230  2.0602 -1.7480
  341MOL0     H46027  -0.425   8.269   2.029  1.3634 -0.6641  0.0270
  341MOL0     H46028  -0.454   8.224   1.868 -3.3919  0.4944  0.7250
  341MOL0     H46029  -0.581   8.474   2.015 -2.1429 -2.6629  2.0657
  341MOL0     H46030  -0.585   8.451   1.842  2.4445 -1.4934 -0.9349
  341MOL0     H46031  -0.917   8.224   1.991 -0.3976  0.9766 -0.6982
  341MOL0     H46032  -0.021   8.148   1.961 -2.7363  0.4156 -2.6521
  341MOL0     H46033   0.147   7.917   1.876  1.4644 -1.4454  2.0520
  341MOL0     H46034   0.277   7.977   1.981  0.4421  0.5255  0.1816
  341MOL0     H46035   0.114   8.008   2.034  0.9518  2.0282  0.5011
  342MOL0     O46036   1.948   3.793   8.394  0.2530  0.1324 -0.7792
  342MOL0     C46037   1.948   3.874   8.491 -0.2656 -0.2857  1.1495
  342MOL0     O46038   2.054   3.951   8.527 -0.3265  0.6549 -0.0088
  342MOL0     C46039   2.172   3.940   8.466  0.0795  0.1793  0.0379
  342MOL0     C46040   2.236   3.816   8.433 -0.2710  0.7498 -0.3230
  342MOL0     C46041   2.371   3.811   8.385  0.8694 -0.3378  0.0150
  342MOL0     C46042   2.438   3.931   8.364  0.4162  1.0929 -0.0547
  342MOL0     O46043   2.561   3.918   8.318  0.4656 -0.9064  0.7920
  342MOL0     C46044   2.650   4.031   8.342  0.5247 -0.2887  0.3093
  342MOL0     C46045   2.784   3.994   8.308 -0.9292 -0.7729  0.3047
  342MOL0     C46046   2.812   3.924   8.180  0.5495  0.1115 -0.2613
  342MOL0     C46047   2.967   3.928   8.164 -0.5602 -0.2362  0.7601
  342MOL0     C46048   3.007   3.853   8.043  1.0014 -0.7799  0.0683
  342MOL0     C46049   3.146   3.903   8.000  0.2062 -0.1202 -0.0084
  342MOL0     C46050   3.203   3.830   7.883 -0.5108  0.0971  0.2673
  342MOL0     C46051   3.242   3.913   7.757 -0.4896 -0.2222  0.5798
  342MOL0     N46052   3.357   4.007   7.781 -0.4604  0.6114  0.0458
  342MOL0     C46053   3.346   4.136   7.821 -0.0780 -0.2736 -0.5574
  342MOL0     C46054   3.468   4.198   7.806  0.3979 -0.5003  0.2142
  342MOL0     C46055   3.501   4.338   7.840 -0.3990 -0.8941  0.0739
  342MOL0     C46056   3.610   4.344   7.951  0.0184  0.0329 -0.0578
  342MOL0     C46057   3.705   4.468   7.926  1.4879  0.7571  0.5013
  342MOL0     C46058   3.635   4.602   7.920  0.1526  0.0494  0.6171
  342MOL0     O46059   3.544   4.629   8.025 -0.5954 -0.4304 -0.1583
  342MOL0     C46060   3.486   4.754   8.028  0.5452 -0.3521  0.1368
  342MOL0     C46061   3.388   4.768   8.125  0.5067 -0.1330 -0.0283
  342MOL0     C46062   3.313   4.888   8.131 -0.5635  0.0147 -0.3205
  342MOL0     C46063   3.339   4.998   8.045 -0.2263 -0.5100 -0.2357
  342MOL0     C46064   3.260   5.121   8.059 -0.7133  0.1130  0.4353
  342MOL0     O46065   3.196   5.141   8.183 -0.2286  0.1839  0.2392
  342MOL0     C46066   3.096   5.231   8.197  0.4439 -0.0679 -0.3889
  342MOL0     C46067   2.975   5.233   8.121 -0.6471 -0.2880 -0.1076
  342MOL0     C46068   2.887   5.342   8.140  0.1799  1.0853 -0.2630
  342MOL0     C46069   2.904   5.433   8.241 -0.4795 -0.3103 -0.4546
  342MOL0     O46070   2.822   5.538   8.281  0.5263  0.3838  0.1700
  342MOL0     C46071   2.688   5.558   8.229  0.1082 -0.2055  0.2975
  342MOL0     C46072   2.617   5.679   8.285  0.8238  0.5866 -0.6323
  342MOL0     C46073   2.707   5.802   8.296 -0.5464  0.2743 -0.1474
  342MOL0     C46074   2.635   5.930   8.347 -0.2495 -0.3779  0.0571
  342MOL0     C46075   2.568   5.914   8.490 -0.0695  0.7613  0.0267
  342MOL0     C46076   2.545   6.053   8.537 -0.5297  0.0554 -0.6638
  342MOL0     C46077   2.442   6.052   8.650 -0.3889  0.8505  0.3442
  342MOL0     C46078   2.388   6.194   8.679  0.6519  0.0934 -0.1625
  342MOL0    Cl46079   2.514   6.317   8.703 -0.2404 -0.3354  0.3134
  342MOL0     C46080   3.024   5.433   8.313 -0.3741 -0.1818  0.6292
  342MOL0     C46081   3.120   5.338   8.286  0.1287  0.6605 -0.0079
  342MOL0     O46082   3.252   5.198   7.966 -0.3808  0.8881  0.1814
  342MOL0     C46083   3.431   4.974   7.938  1.9343  0.0120 -0.7427
  342MOL0     C46084   3.494   4.848   7.926 -0.1747  0.7896 -0.1303
  342MOL0     N46085   3.550   4.096   7.760 -0.4066  0.2587 -0.3100
  342MOL0     N46086   3.485   3.992   7.753  1.2963 -0.2297 -0.8161
  342MOL0     C46087   2.379   4.053   8.402 -0.6590  0.3115 -1.0709
  342MOL0     C46088   2.245   4.061   8.453 -0.2639 -0.4299 -0.1403
  342MOL0     C46089   1.833   3.895   8.565  0.8406  0.2463  1.2463
  342MOL0     C46090   1.849   3.975   8.684 -0.2911 -0.5614  0.8679
  342MOL0     C46091   1.743   3.994   8.779 -0.1851  0.1425 -0.5257
  342MOL0     C46092   1.615   3.938   8.746 -0.5771 -1.1114 -0.2614
  342MOL0     O46093   1.502   3.948   8.824  0.1922 -0.2277 -0.0897
  342MOL0     C46094   1.524   3.926   8.960 -0.0685  0.3869  0.5023
  342MOL0     C46095   1.391   3.934   9.031 -0.3133 -0.6823 -0.4886
  342MOL0     C46096   1.410   3.889   9.179  0.6188  0.2363  0.2601
  342MOL0     C46097   1.285   3.918   9.269 -0.3812  0.3891 -1.3438
  342MOL0     C46098   1.158   3.952   9.205  0.0798 -0.2955  0.2668
  342MOL0     C46099   1.039   3.980   9.168 -0.2735  1.1278  0.4611
  342MOL0     C46100   1.601   3.879   8.618  0.2532 -0.3160 -0.0238
  342MOL0     C46101   1.700   3.851   8.530  1.1694 -0.0661 -0.2433
  342MOL0     C46102   1.660   3.795   8.396  0.0454  0.2819  0.1660
  342MOL0     H46103   2.196   3.717   8.451  1.7247 -0.1149 -0.3709
  342MOL0     H46104   2.408   3.709   8.378 -0.9413 -1.3037  2.7234
  342MOL0     H46105   2.625   4.114   8.275  2.6418 -2.0297 -2.9032
  342MOL0     H46106   2.651   4.056   8.448  1.4219  2.2262 -0.2006
  342MOL0     H46107   2.819   3.935   8.393  0.8294 -0.2664 -0.0193
  342MOL0     H46108   2.846   4.084   8.311 -0.9531 -0.3210 -4.5999
  342MOL0     H46109   2.750   3.984   8.112  0.9957  1.6435  0.6286
  342MOL0     H46110   2.775   3.822   8.169  0.8906 -0.1487  0.8682
  342MOL0     H46111   2.998   4.033   8.165  2.1914 -0.9735  0.7416
  342MOL0     H46112   3.017   3.883   8.250  0.4805 -2.5571 -0.9496
  342MOL0     H46113   3.014   3.747   8.068 -0.5843 -1.4377 -1.9445
  342MOL0     H46114   2.926   3.861   7.970 -2.2475  1.3936  3.5723
  342MOL0     H46115   3.143   4.009   7.973 -1.6264 -0.3380 -0.8356
  342MOL0     H46116   3.223   3.899   8.077  0.7403  0.9526 -0.4679
  342MOL0     H46117   3.135   3.752   7.847  0.5681 -0.3982 -0.7785
  342MOL0     H46118   3.283   3.763   7.914 -0.1980 -0.2750 -1.2473
  342MOL0     H46119   3.282   3.848   7.679  1.9214 -0.6459  2.0640
  342MOL0     H46120   3.159   3.964   7.708  0.9040  1.4723 -0.1235
  342MOL0     H46121   3.248   4.170   7.851  0.7988  1.5907  0.3658
  342MOL0     H46122   3.535   4.393   7.752  1.2928 -1.1907  0.5058
  342MOL0     H46123   3.419   4.401   7.875 -0.7062 -1.5275  0.5121
  342MOL0     H46124   3.563   4.352   8.050 -2.2422 -0.3857 -1.0382
  342MOL0     H46125   3.673   4.254   7.950 -1.4853 -1.0593  0.0647
  342MOL0     H46126   3.769   4.460   7.838  0.5618  1.7327 -0.2908
  342MOL0     H46127   3.779   4.477   8.006  0.5006  1.7780  1.3439
  342MOL0     H46128   3.586   4.611   7.822  1.6165  0.1218 -0.1390
  342MOL0     H46129   3.716   4.675   7.924 -0.8585  1.2626 -0.0813
  342MOL0     H46130   3.366   4.695   8.202 -1.1103 -1.1296 -1.3777
  342MOL0     H46131   3.235   4.893   8.206 -2.4741 -0.1751 -2.1925
  342MOL0     H46132   2.964   5.150   8.053  2.6963 -1.2974  0.4052
  342MOL0     H46133   2.795   5.353   8.083 -0.6831 -2.9927  0.0608
  342MOL0     H46134   2.689   5.568   8.120  0.5872  4.6346  0.5307
  342MOL0     H46135   2.628   5.467   8.242 -1.7032  1.0791  1.2083
  342MOL0     H46136   2.531   5.715   8.228  0.3508 -0.4040 -0.5621
  342MOL0     H46137   2.579   5.656   8.384  1.8303  2.3478  0.2168
  342MOL0     H46138   2.778   5.775   8.374 -0.5048  2.7978  0.7806
  342MOL0     H46139   2.748   5.814   8.195 -1.8519  1.6308 -0.5592
  342MOL0     H46140   2.565   5.956   8.267 -0.0606 -3.0172 -1.0637
  342MOL0     H46141   2.712   6.008   8.356 -1.4752  0.6632  2.3479
  342MOL0     H46142   2.632   5.860   8.560 -1.5852  0.6983  1.4104
  342MOL0     H46143   2.474   5.864   8.470  0.4821 -0.0641 -0.5710
  342MOL0     H46144   2.641   6.097   8.563  1.2948 -2.5715 -2.4433
  342MOL0     H46145   2.493   6.106   8.457 -1.8792 -3.1415 -2.0914
  342MOL0     H46146   2.487   6.026   8.747 -1.6524 -1.3153  0.4030
  342MOL0     H46147   2.361   5.984   8.625  0.8017  1.0256 -5.2396
  342MOL0     H46148   2.317   6.227   8.602  0.1535 -0.7324 -0.0735
  342MOL0     H46149   2.336   6.176   8.774 -4.0892 -0.9112 -2.6211
  342MOL0     H46150   3.051   5.519   8.373  1.1635 -0.4908  0.4288
  342MOL0     H46151   3.217   5.350   8.334 -0.1816  4.3626 -0.0690
  342MOL0     H46152   3.449   5.045   7.857  2.7321 -2.1152 -2.5498
  342MOL0     H46153   3.550   4.830   7.835 -0.9987 -1.8280 -0.1890
  342MOL0     H46154   2.442   4.141   8.404 -1.3082  0.8037  1.6368
  342MOL0     H46155   2.218   4.157   8.497  1.4493 -1.1516  2.6777
  342MOL0     H46156   1.943   4.012   8.725  0.0381 -0.1554 -0.2331
  342MOL0     H46157   1.757   4.041   8.875 -1.9712 -2.7419  1.2999
  342MOL0     H46158   1.587   3.999   9.011  0.7759 -1.8038  2.7938
  342MOL0     H46159   1.569   3.827   8.976  2.5217  1.5821  1.0303
  342MOL0     H46160   1.310   3.886   8.976 -0.6417  0.2184 -0.8007
  342MOL0     H46161   1.367   4.041   9.031  4.3582  0.7156  2.8190
  342MOL0     H46162   1.501   3.929   9.226  0.3246  0.4456  0.6572
  342MOL0     H46163   1.426   3.781   9.177  1.4591  0.3193  1.3956
  342MOL0     H46164   1.253   3.828   9.321  0.9910  1.8826  2.4450
  342MOL0     H46165   1.316   3.991   9.345 -0.2099  1.3418 -2.3000
  342MOL0     H46166   0.937   3.988   9.136 -0.5750 -2.2573  0.2898
  342MOL0     H46167   1.507   3.843   8.578  0.5884 -0.1912 -0.9404
  342MOL0     H46168   1.712   3.699   8.382 -0.5455 -0.0608  0.3177
  342MOL0     H46169   1.552   3.780   8.388 -0.1236  0.7648  1.3820
  342MOL0     H46170   1.695   3.865   8.319 -2.1040  1.8949  0.5885
  343MOL0     O46171   3.179   1.278  10.313 -0.5328 -0.4980  0.0617
  343MOL0     C46172   3.140   1.326  10.207 -0.0660 -0.7544 -0.1223
  343MOL0     O46173   3.216   1.336  10.090 -0.4113  0.4852 -0.4190
  343MOL0     C46174   3.351   1.331  10.101 -1.0730  0.1730  0.5986
  343MOL0     C46175   3.430   1.434  10.162  0.0422 -0.9043 -0.4779
  343MOL0     C46176   3.567   1.423  10.155  0.1423 -0.2358  0.1115
  343MOL0     C46177   3.623   1.312  10.092  0.8646 -1.2562 -0.4613
  343MOL0     O46178   3.760   1.311  10.084  0.0974  0.2526  0.5391
  343MOL0     C46179   3.829   1.212  10.010 -0.0966  1.7035 -0.0587
  343MOL0     C46180   3.981   1.205  10.044  0.0948 -0.7890 -0.1345
  343MOL0     C46181   4.056   1.077   9.987  0.8517 -0.5099 -0.7132
  343MOL0     C46182   4.183   1.036  10.072 -0.5086 -0.1555  0.1112
  343MOL0     C46183   4.310   1.076   9.991  0.6786  1.0761  0.6258
  343MOL0     C46184   4.435   1.007  10.048 -0.0346 -1.0200  0.0665
  343MOL0     C46185   4.558   1.046   9.970 -0.2907 -0.6983 -0.7737
  343MOL0     C46186   4.576   0.986   9.831  0.6991  0.6514 -0.3520
  343MOL0     N46187   4.700   1.031   9.773  0.2138 -0.9444 -0.0840
  343MOL0     C46188   4.826   0.978   9.802 -1.6664  0.3804  0.9679
  343MOL0     C46189   4.907   1.070   9.749  0.3079 -0.2319  0.0541
  343MOL0     C46190   5.059   1.054   9.755 -0.2413  0.6667 -0.3522
  343MOL0     C46191   5.109   0.988   9.637  0.1433  0.2606  0.4485
  343MOL0     C46192   5.263   0.990   9.610  0.5159  0.9751  1.1037
  343MOL0     C46193   5.294   0.912   9.476 -0.2996 -0.2796 -0.2192
  343MOL0     O46194   5.282   0.771   9.491 -0.4242  0.7320 -0.4286
  343MOL0     C46195   5.387   0.690   9.538  0.3820 -0.3632  0.0181
  343MOL0     C46196   5.347   0.567   9.579 -0.3545 -0.1424 -0.0082
  343MOL0     C46197   5.438   0.468   9.613 -1.1726  0.4443  0.0456
  343MOL0     C46198   5.579   0.486   9.624 -0.1021  0.0001 -0.4117
  343MOL0     C46199   5.664   0.397   9.705  0.8296 -0.0355  0.4122
  343MOL0     O46200   5.794   0.428   9.706  0.1124 -0.0866  0.1527
  343MOL0     C46201   5.881   0.360   9.792  0.8763 -0.0849  0.8731
  343MOL0     C46202   5.973   0.438   9.856  0.2109  0.1630 -0.5726
  343MOL0     C46203   6.072   0.384   9.932 -0.3049 -1.0715 -0.2328
  343MOL0     C46204   6.095   0.241   9.937  0.9333 -0.7483  0.7961
  343MOL0     O46205   6.196   0.169   9.985 -0.1704  0.1482 -0.5168
  343MOL0     C46206   6.284   0.232  10.080 -0.6460 -0.7731 -0.6166
  343MOL0     C46207   6.384   0.128  10.151  0.2357 -0.5235 -0.0534
  343MOL0     C46208   6.483   0.209  10.240  0.3928  0.6139  0.4421
  343MOL0     C46209   6.559   0.133  10.351  0.3262  0.0222 -0.3182
  343MOL0     C46210   6.665   0.227  10.406  0.7334  0.4464 -0.1125
  343MOL0     C46211   6.726   0.192  10.539 -0.5717  0.0865 -0.2551
  343MOL0     C46212   6.850   0.269  10.584 -0.8998  0.5425 -0.2726
  343MOL0     C46213   6.892   0.212  10.717  0.5328  0.2150 -0.1038
  343MOL0    Cl46214   7.046   0.284  10.768  0.0862  0.0139 -0.3543
  343MOL0     C46215   6.005   0.162   9.866 -0.5622  0.1392  0.3527
  343MOL0     C46216   5.900   0.221   9.796 -0.1803  0.0308  0.0888
  343MOL0     O46217   5.611   0.299   9.759 -0.0569 -0.1023 -0.1021
  343MOL0     C46218   5.616   0.618   9.576 -0.1821 -0.1768  1.0985
  343MOL0     C46219   5.524   0.714   9.535 -0.1533 -0.5616  0.2185
  343MOL0     N46220   4.841   1.170   9.688  0.0585  0.2621  0.6273
  343MOL0     N46221   4.717   1.151   9.707 -0.1431 -0.0147  0.4286
  343MOL0     C46222   3.541   1.207  10.031 -0.2193 -0.2306  0.1801
  343MOL0     C46223   3.403   1.216  10.036 -0.0559 -0.2374  0.0720
  343MOL0     C46224   3.006   1.385  10.199 -0.1748 -0.2982  0.0535
  343MOL0     C46225   2.937   1.401  10.323  0.4485  0.2748  0.4298
  343MOL0     C46226   2.809   1.452  10.337  0.0616  0.2767 -0.9004
  343MOL0     C46227   2.733   1.473  10.218 -0.5688  0.5889  0.3840
  343MOL0     O46228   2.598   1.516  10.198  0.3897 -0.0187  0.0537
  343MOL0     C46229   2.508   1.495  10.299 -0.1232 -0.4499  0.2181
  343MOL0     C46230   2.504   1.616  10.392 -0.5816  0.1142  0.1447
  343MOL0     C46231   2.361   1.648  10.448  1.3998 -0.1974 -0.2001
  343MOL0     C46232   2.353   1.777  10.531  0.0235  0.1527 -0.1067
  343MOL0     C46233   2.208   1.797  10.548  0.0055  0.0571  0.1418
  343MOL0     C46234   2.102   1.824  10.606 -0.9499 -0.2353 -0.0455
  343MOL0     C46235   2.803   1.456  10.095 -0.1358  0.1915  0.6071
  343MOL0     C46236   2.935   1.406  10.083  0.2157 -0.4963 -0.0563
  343MOL0     C46237   2.987   1.372   9.947 -0.3078  1.0022  0.1159
  343MOL0     H46238   3.375   1.515  10.209  2.4952 -0.9964  2.9120
  343MOL0     H46239   3.621   1.500  10.209  0.9637 -0.9203  0.3015
  343MOL0     H46240   3.798   1.116  10.053  3.1275  0.5728 -0.0213
  343MOL0     H46241   3.818   1.218   9.902 -0.0541  1.3850 -0.0810
  343MOL0     H46242   3.999   1.201  10.152 -1.3608 -1.2333  0.1062
  343MOL0     H46243   4.017   1.298  10.000 -1.0263 -0.0120  0.5555
  343MOL0     H46244   4.093   1.093   9.886  0.2828  0.2566 -0.8146
  343MOL0     H46245   3.982   0.998  10.003 -0.5936  1.4386  4.3631
  343MOL0     H46246   4.181   1.078  10.174  2.3200 -1.5714  0.8643
  343MOL0     H46247   4.180   0.928  10.091  0.7047 -0.0061  1.3197
  343MOL0     H46248   4.299   1.039   9.889  1.2751  0.3487  0.8142
  343MOL0     H46249   4.312   1.185   9.999  0.2056  1.0531  1.1291
  343MOL0     H46250   4.450   1.025  10.154  2.2694 -5.2264  0.6729
  343MOL0     H46251   4.415   0.901  10.032  1.4474 -0.8811 -3.6618
  343MOL0     H46252   4.648   1.028  10.029 -0.5668  2.0079  0.6352
  343MOL0     H46253   4.544   1.153   9.952 -1.2467 -0.5460  0.7121
  343MOL0     H46254   4.568   0.877   9.821 -0.9224  0.5753  1.2142
  343MOL0     H46255   4.489   1.020   9.774 -0.7307  0.0325  1.3452
  343MOL0     H46256   4.840   0.888   9.861 -1.3468  0.2647  0.7190
  343MOL0     H46257   5.098   1.157   9.750 -1.0337  1.1573  2.2480
  343MOL0     H46258   5.101   0.994   9.836 -0.3496  0.4543 -0.4525
  343MOL0     H46259   5.086   0.881   9.641  0.5740  0.1923  1.1708
  343MOL0     H46260   5.052   1.025   9.551 -1.0180 -1.5754  0.3678
  343MOL0     H46261   5.322   0.946   9.690  0.0782 -1.1179  0.3401
  343MOL0     H46262   5.309   1.089   9.611  1.5311  0.5226  3.0079
  343MOL0     H46263   5.396   0.937   9.443 -0.8404  1.8213 -0.4667
  343MOL0     H46264   5.229   0.953   9.398 -0.4705 -1.7330 -0.8644
  343MOL0     H46265   5.244   0.533   9.573 -0.6813  1.0071 -1.6169
  343MOL0     H46266   5.398   0.370   9.639 -2.5080  0.5602 -1.3826
  343MOL0     H46267   5.961   0.546   9.850 -1.4980  0.0533  0.5365
  343MOL0     H46268   6.133   0.448   9.995  0.2739  1.6918 -3.3204
  343MOL0     H46269   6.350   0.302  10.028 -1.6949  0.7044 -0.0067
  343MOL0     H46270   6.225   0.293  10.149  1.2943  1.7247 -1.0024
  343MOL0     H46271   6.333   0.067  10.227 -0.0994  1.4031  1.3354
  343MOL0     H46272   6.419   0.069  10.066 -1.4719 -1.7411  0.0371
  343MOL0     H46273   6.562   0.242  10.171  2.7177 -1.4404  1.9345
  343MOL0     H46274   6.437   0.297  10.286  0.5362  0.5966  0.6146
  343MOL0     H46275   6.609   0.046  10.306  1.2336  0.4968 -0.2459
  343MOL0     H46276   6.495   0.094  10.431 -2.7341  0.4261 -2.4270
  343MOL0     H46277   6.626   0.328  10.422  2.1007  1.5123 -2.7881
  343MOL0     H46278   6.743   0.232  10.329 -0.8868  1.3905 -1.7829
  343MOL0     H46279   6.648   0.216  10.612 -0.4242 -0.2494  0.0150
  343MOL0     H46280   6.753   0.086  10.548 -2.1298 -0.1672  2.3427
  343MOL0     H46281   6.827   0.376  10.596 -0.7262  0.6061 -0.4978
  343MOL0     H46282   6.939   0.246  10.525 -0.6414  0.2771  0.2187
  343MOL0     H46283   6.816   0.242  10.789  0.3507  3.2441 -1.4123
  343MOL0     H46284   6.899   0.104  10.704  1.4704  0.3983 -1.3951
  343MOL0     H46285   6.011   0.054   9.868  4.1613  0.1808 -1.0688
  343MOL0     H46286   5.829   0.164   9.736  1.1280  0.0216 -1.5387
  343MOL0     H46287   5.719   0.646   9.596  0.1896 -2.2634  2.4508
  343MOL0     H46288   5.562   0.810   9.504 -0.3845  0.3920  2.6494
  343MOL0     H46289   3.595   1.120   9.994  2.4124  0.3603  2.3774
  343MOL0     H46290   3.337   1.146   9.988  0.8429  0.6040 -2.5482
  343MOL0     H46291   2.985   1.366  10.414 -0.8759 -2.0202  0.3213
  343MOL0     H46292   2.768   1.474  10.435  0.0276  1.0487 -1.0800
  343MOL0     H46293   2.524   1.403  10.356  0.0268  0.6718  2.0436
  343MOL0     H46294   2.414   1.493  10.244  0.1218 -1.7469 -0.1914
  343MOL0     H46295   2.537   1.702  10.332  0.8644 -0.0144  0.7312
  343MOL0     H46296   2.576   1.611  10.473 -0.9058 -2.4226  0.3393
  343MOL0     H46297   2.322   1.567  10.510  0.8972  0.8082  0.8379
  343MOL0     H46298   2.299   1.668  10.360 -0.7194 -2.5347  0.6494
  343MOL0     H46299   2.407   1.775  10.626 -0.3307  1.1084  0.1211
  343MOL0     H46300   2.394   1.862  10.476 -1.0407 -0.2478 -1.6027
  343MOL0     H46301   2.007   1.854  10.645 -1.7156 -0.1077 -1.9221
  343MOL0     H46302   2.753   1.483  10.002 -0.7081  2.7680  1.5857
  343MOL0     H46303   3.054   1.445   9.901  1.4743 -0.9911 -0.5934
  343MOL0     H46304   3.046   1.280   9.952  2.4093  2.3938 -2.8196
  343MOL0     H46305   2.903   1.349   9.881 -0.7139  1.5953  0.4165
  344MOL0     O46306   1.660   5.306   8.551 -0.1997 -0.0782  0.6975
  344MOL0     C46307   1.741   5.381   8.490  0.0849 -0.2879  0.2239
  344MOL0     O46308   1.829   5.346   8.387 -0.4744  0.0723  0.8154
  344MOL0     C46309   1.868   5.220   8.359  0.0267  0.3876 -0.1312
  344MOL0     C46310   1.907   5.130   8.456 -0.0575  0.1762  0.0859
  344MOL0     C46311   1.915   4.992   8.433  0.5010 -0.4917  0.6820
  344MOL0     C46312   1.892   4.944   8.297 -0.6211  0.2021 -0.0159
  344MOL0     O46313   1.919   4.813   8.284 -0.0948  0.5325  0.5191
  344MOL0     C46314   1.963   4.775   8.151  0.1232  0.1198  0.3509
  344MOL0     C46315   2.098   4.835   8.093 -0.4656  0.8495  0.5483
  344MOL0     C46316   2.102   4.780   7.954 -0.4323  0.0244 -0.3553
  344MOL0     C46317   2.235   4.826   7.871 -0.1058 -0.0418  0.5352
  344MOL0     C46318   2.240   4.769   7.734  0.5926 -0.4881 -0.6232
  344MOL0     C46319   2.231   4.615   7.723 -0.3001  0.3167  1.1511
  344MOL0     C46320   2.254   4.552   7.584 -0.1239  0.6891  0.2427
  344MOL0     C46321   2.134   4.564   7.490 -0.1146 -0.5762  0.0027
  344MOL0     N46322   2.152   4.483   7.375 -1.5119  0.4401 -0.3774
  344MOL0     C46323   2.270   4.485   7.295  0.8803  0.0048 -0.1094
  344MOL0     C46324   2.251   4.389   7.203  0.2144  0.3987  0.1029
  344MOL0     C46325   2.328   4.362   7.076 -0.8260 -0.5435  0.1182
  344MOL0     C46326   2.370   4.210   7.067  0.2813 -0.2089 -0.0340
  344MOL0     C46327   2.447   4.147   7.180  1.0591 -0.2557 -0.1345
  344MOL0     C46328   2.488   4.002   7.154 -0.5519  0.8656  0.2693
  344MOL0     O46329   2.605   3.990   7.069 -0.3540  0.0748 -0.3949
  344MOL0     C46330   2.736   3.992   7.122  0.1394 -0.6006  0.2226
  344MOL0     C46331   2.841   3.961   7.045 -0.1165  0.2784 -0.4797
  344MOL0     C46332   2.971   3.980   7.075  0.1953  0.4462  0.2565
  344MOL0     C46333   3.006   4.037   7.205  0.3226 -0.4065 -0.0637
  344MOL0     C46334   3.146   4.074   7.239  0.4816 -0.4034 -0.3925
  344MOL0     O46335   3.167   4.164   7.333  0.2528  0.2808 -0.0520
  344MOL0     C46336   3.288   4.211   7.335  0.4540  0.2063  1.0974
  344MOL0     C46337   3.337   4.306   7.239 -0.0839  0.4310 -0.5573
  344MOL0     C46338   3.473   4.348   7.240  0.1873 -0.0425  0.9427
  344MOL0     C46339   3.573   4.306   7.334  0.3128  0.2499  0.0919
  344MOL0     O46340   3.710   4.343   7.332  0.1433  0.4476  0.0833
  344MOL0     C46341   3.757   4.361   7.196 -1.0939 -0.0764 -0.3972
  344MOL0     C46342   3.912   4.349   7.217 -0.5303 -0.7552 -0.3203
  344MOL0     C46343   3.980   4.370   7.079 -0.3724  0.4058  0.5886
  344MOL0     C46344   4.126   4.424   7.091  0.1788  0.1736  0.1920
  344MOL0     C46345   4.229   4.314   7.127  0.6404 -0.4212 -0.5527
  344MOL0     C46346   4.380   4.343   7.129 -0.8276  0.1553  0.9000
  344MOL0     C46347   4.457   4.232   7.206 -0.8219  0.3964  1.4185
  344MOL0     C46348   4.595   4.275   7.243 -0.4996  1.2199 -0.0138
  344MOL0    Cl46349   4.690   4.135   7.288 -0.3658  0.5341  0.3570
  344MOL0     C46350   3.515   4.219   7.436 -0.3081 -0.3447 -0.6326
  344MOL0     C46351   3.380   4.177   7.433  0.2767  0.2629 -1.3531
  344MOL0     O46352   3.221   4.022   7.163 -0.4197 -0.3484  0.1982
  344MOL0     C46353   2.897   4.062   7.296 -0.4074  0.7161  0.9150
  344MOL0     C46354   2.770   4.047   7.251  0.6774  0.5676  0.0054
  344MOL0     N46355   2.127   4.329   7.231  0.6764  0.1221 -0.5327
  344MOL0     N46356   2.076   4.383   7.336  0.4717  1.2048 -0.4346
  344MOL0     C46357   1.859   5.034   8.192  0.1126  0.9169 -0.1921
  344MOL0     C46358   1.862   5.169   8.227  0.5421  0.0320 -0.9545
  344MOL0     C46359   1.755   5.528   8.528  0.1836  0.8440 -0.4871
  344MOL0     C46360   1.853   5.610   8.475  0.2459 -0.3396  0.1287
  344MOL0     C46361   1.867   5.743   8.509  0.3901 -0.1265  0.0789
  344MOL0     C46362   1.781   5.794   8.602  0.1274 -0.1217  0.3278
  344MOL0     O46363   1.807   5.919   8.650 -0.5540 -0.2745  0.5385
  344MOL0     C46364   1.907   5.914   8.756  0.4956  0.8363 -0.6180
  344MOL0     C46365   1.896   6.053   8.825 -0.9813  0.3779  0.4460
  344MOL0     C46366   1.944   6.166   8.731 -1.2261 -0.5623 -0.6438
  344MOL0     C46367   1.944   6.303   8.806 -0.4849 -0.5149  0.8062
  344MOL0     C46368   1.921   6.395   8.703 -0.6013 -0.3860  0.0277
  344MOL0     C46369   1.904   6.492   8.637 -0.6345 -0.5758  0.0461
  344MOL0     C46370   1.672   5.726   8.653  0.3137  0.8075 -0.2074
  344MOL0     C46371   1.656   5.588   8.614  0.2954  0.3376  0.0462
  344MOL0     C46372   1.532   5.522   8.663  0.4712 -0.4141 -0.3933
  344MOL0     H46373   1.907   5.162   8.560 -0.8877 -0.0182  0.1515
  344MOL0     H46374   1.932   4.931   8.521 -4.0195 -1.5954  1.0601
  344MOL0     H46375   1.973   4.666   8.153 -1.3423 -0.1120 -1.9204
  344MOL0     H46376   1.877   4.796   8.086  0.9393  0.5527 -0.6169
  344MOL0     H46377   2.190   4.811   8.147  0.5181 -2.7526 -2.3393
  344MOL0     H46378   2.083   4.944   8.089  0.6142  1.0457  1.3638
  344MOL0     H46379   2.022   4.820   7.891 -0.7670  3.0391  1.7975
  344MOL0     H46380   2.078   4.673   7.948  1.9913 -0.5932 -0.3080
  344MOL0     H46381   2.247   4.935   7.868 -0.0014 -0.0356  1.0889
  344MOL0     H46382   2.327   4.791   7.919  0.6080  1.5415  0.4043
  344MOL0     H46383   2.158   4.808   7.674 -0.2185 -2.2310 -0.7170
  344MOL0     H46384   2.335   4.801   7.689 -0.2023  1.4646 -1.0080
  344MOL0     H46385   2.298   4.563   7.793 -0.6959 -2.8929 -0.6364
  344MOL0     H46386   2.134   4.581   7.760 -0.1312  1.6773  2.9888
  344MOL0     H46387   2.277   4.449   7.611  2.7448  1.0474 -0.4797
  344MOL0     H46388   2.348   4.575   7.533  0.2722 -1.8663 -0.3342
  344MOL0     H46389   2.041   4.526   7.535 -1.2783 -1.1875 -2.6746
  344MOL0     H46390   2.117   4.668   7.461  0.6840 -0.6125 -0.6329
  344MOL0     H46391   2.355   4.552   7.308  0.7889  0.0480  0.2771
  344MOL0     H46392   2.266   4.380   6.987  1.5771  2.0116 -1.1749
  344MOL0     H46393   2.418   4.421   7.058 -1.6814  0.9193  0.5530
  344MOL0     H46394   2.281   4.151   7.044 -1.1451  0.1781  3.6536
  344MOL0     H46395   2.426   4.210   6.973 -1.5667 -0.0438 -1.1765
  344MOL0     H46396   2.391   4.143   7.274 -0.9572 -1.8947 -1.3032
  344MOL0     H46397   2.532   4.214   7.196 -1.0829  2.9735 -1.1998
  344MOL0     H46398   2.399   3.954   7.113  1.6910 -1.9784 -1.6812
  344MOL0     H46399   2.503   3.950   7.250  1.0130  1.0929  0.1800
  344MOL0     H46400   2.806   3.928   6.948  2.4151  0.3110 -1.4947
  344MOL0     H46401   3.045   3.960   6.997 -2.5676 -0.3896 -2.3337
  344MOL0     H46402   3.271   4.334   7.158 -1.3680  0.2229  0.3861
  344MOL0     H46403   3.520   4.411   7.165  2.9593 -0.4379  2.2233
  344MOL0     H46404   3.725   4.282   7.128  1.3176 -1.4119 -0.0868
  344MOL0     H46405   3.747   4.461   7.152  1.1882  0.8665  1.0917
  344MOL0     H46406   3.940   4.430   7.285  1.3585 -0.6100 -1.1921
  344MOL0     H46407   3.941   4.250   7.255  2.0872 -0.9990 -2.6224
  344MOL0     H46408   3.974   4.277   7.022  0.4345 -0.4210  1.8101
  344MOL0     H46409   3.916   4.437   7.021 -1.8693 -2.8487 -1.8477
  344MOL0     H46410   4.123   4.496   7.174  1.5165 -0.4314  0.8034
  344MOL0     H46411   4.160   4.484   7.006 -0.3829  0.6900  0.3272
  344MOL0     H46412   4.214   4.222   7.069 -0.2397  0.5753 -1.9597
  344MOL0     H46413   4.197   4.294   7.229 -0.1142  0.7802 -0.5305
  344MOL0     H46414   4.419   4.349   7.027 -0.1949 -0.0994  1.1207
  344MOL0     H46415   4.402   4.440   7.174  0.0191 -0.2584  1.4141
  344MOL0     H46416   4.461   4.144   7.141 -1.6745  1.3655  0.0089
  344MOL0     H46417   4.396   4.197   7.290 -0.4032  1.9076  2.3975
  344MOL0     H46418   4.641   4.332   7.162  3.0068  0.4357  1.2431
  344MOL0     H46419   4.581   4.339   7.331 -2.9360  3.4141 -1.8493
  344MOL0     H46420   3.576   4.194   7.522 -0.4519  0.8369 -0.1650
  344MOL0     H46421   3.347   4.111   7.512  3.7832 -0.4246 -0.2626
  344MOL0     H46422   2.919   4.111   7.391  3.4673 -2.6000  2.0787
  344MOL0     H46423   2.698   4.094   7.317  2.1559  1.6937  0.8561
  344MOL0     H46424   1.832   4.996   8.093  0.5317 -0.2057  0.1058
  344MOL0     H46425   1.833   5.235   8.146  0.3342  0.2971 -0.6623
  344MOL0     H46426   1.922   5.568   8.403  0.8875 -1.7402  1.5110
  344MOL0     H46427   1.954   5.793   8.467  2.1861 -3.7446 -0.9371
  344MOL0     H46428   2.010   5.892   8.726  0.8037 -0.9433  1.4714
  344MOL0     H46429   1.873   5.835   8.823  0.7525 -1.1206 -2.7068
  344MOL0     H46430   1.946   6.051   8.922  1.0857 -0.6651 -0.5617
  344MOL0     H46431   1.792   6.074   8.852 -1.2217 -0.8490  0.4999
  344MOL0     H46432   1.878   6.158   8.644 -1.3020  3.4930 -1.1415
  344MOL0     H46433   2.051   6.148   8.714 -0.9815 -0.3251  0.5387
  344MOL0     H46434   1.869   6.305   8.886 -1.7499 -0.1796 -0.3426
  344MOL0     H46435   2.039   6.329   8.852 -0.9896  4.7639 -0.4722
  344MOL0     H46436   1.871   6.583   8.590 -0.8429  0.3870  1.9475
  344MOL0     H46437   1.598   5.776   8.715 -1.2224  0.2857 -1.5757
  344MOL0     H46438   1.467   5.595   8.714 -0.5020 -1.2309 -0.4431
  344MOL0     H46439   1.477   5.484   8.576  1.1622 -0.4144 -0.8376
  344MOL0     H46440   1.556   5.443   8.734  0.5879  0.3937  0.4886
  345MOL0     O46441  11.349   1.383   9.037 -0.5450  0.1844  0.0550
  345MOL0     C46442  11.330   1.382   9.165  0.0326 -0.0471  0.9668
  345MOL0     O46443  11.391   1.466   9.247 -0.3826 -0.2680 -0.7085
  345MOL0     C46444  11.528   1.495   9.220 -0.4468  0.6906 -0.7738
  345MOL0     C46445  11.609   1.389   9.195 -1.0111  0.1923  0.1755
  345MOL0     C46446  11.747   1.399   9.181 -0.5054  0.5685 -0.0058
  345MOL0     C46447  11.806   1.528   9.181  0.0481  0.3706 -0.0957
  345MOL0     O46448  11.939   1.537   9.152 -0.2433 -0.5031  0.8516
  345MOL0     C46449  12.006   1.661   9.148  0.1909 -0.5221 -0.5444
  345MOL0     C46450  12.149   1.654   9.108  0.0097  0.2520 -0.1464
  345MOL0     C46451  12.231   1.557   9.202  0.5957  0.8992 -0.2686
  345MOL0     C46452  12.363   1.510   9.132 -0.7793 -1.0310 -1.0610
  345MOL0     C46453  12.468   1.453   9.237  0.1411 -0.2945 -0.1944
  345MOL0     C46454  12.603   1.435   9.156  0.1210 -0.6905 -0.5899
  345MOL0     C46455  12.696   1.329   9.219 -0.7137 -0.3513 -0.8593
  345MOL0     C46456  12.760   1.374   9.352  0.3664  0.3078  0.2663
  345MOL0     N46457  12.814   1.509   9.375  0.3253  0.2241  1.4863
  345MOL0     C46458  12.935   1.559   9.328  0.1483 -0.2813 -0.0780
  345MOL0     C46459  12.933   1.691   9.373  0.1904  0.5622 -0.2054
  345MOL0     C46460  13.026   1.797   9.323  1.0391 -0.2623 -1.1932
  345MOL0     C46461  13.174   1.745   9.318 -0.0902  0.2804 -0.6255
  345MOL0     C46462  13.265   1.857   9.272 -0.2739 -0.8025  0.3341
  345MOL0     C46463  13.416   1.820   9.289  1.0432  0.7456  0.4930
  345MOL0     O46464  13.506   1.916   9.225  0.7534  0.3322  0.1459
  345MOL0     C46465  13.635   1.881   9.217 -0.1327 -0.1070 -0.4838
  345MOL0     C46466  13.691   1.759   9.274 -0.8176  0.7123  0.3438
  345MOL0     C46467  13.825   1.733   9.265 -0.6046  0.3372 -0.3994
  345MOL0     C46468  13.915   1.824   9.203 -0.2981 -1.1055  0.3389
  345MOL0     C46469  14.058   1.780   9.195 -0.6615 -0.4874 -0.0338
  345MOL0     O46470  14.145   1.877   9.194  0.5450 -0.1449 -0.7248
  345MOL0     C46471  14.276   1.857   9.176  0.5985  0.9197 -0.5266
  345MOL0     C46472  14.361   1.833   9.280 -1.2827 -0.2754 -0.3342
  345MOL0     C46473  14.500   1.825   9.255  0.1095  0.2863  0.1428
  345MOL0     C46474  14.548   1.832   9.131 -0.8095 -0.5227  0.7022
  345MOL0     O46475  14.684   1.830   9.112 -0.1661 -0.7418  0.1754
  345MOL0     C46476  14.740   1.778   8.994  0.4579 -0.3199 -0.9443
  345MOL0     C46477  14.890   1.782   9.004 -0.3236  0.3360 -1.6766
  345MOL0     C46478  14.945   1.930   8.983  0.1808  0.5011  0.1143
  345MOL0     C46479  15.093   1.935   9.017 -0.1506 -0.5137  0.2357
  345MOL0     C46480  15.156   2.071   9.015  0.8681  0.2506 -0.3689
  345MOL0     C46481  15.308   2.054   9.037  0.4863  0.7478 -0.8474
  345MOL0     C46482  15.395   2.178   9.011  1.0790 -0.4890 -0.8855
  345MOL0     C46483  15.540   2.138   9.021 -0.5953 -0.5657  0.0039
  345MOL0    Cl46484  15.667   2.267   8.972  0.3206  0.1527  0.0938
  345MOL0     C46485  14.462   1.853   9.026  0.1700 -0.5841  0.4405
  345MOL0     C46486  14.324   1.861   9.053  0.2970 -0.3803  0.6975
  345MOL0     O46487  14.089   1.664   9.204  0.1518  0.2672  0.1165
  345MOL0     C46488  13.862   1.951   9.162  0.5753 -0.6063  0.4464
  345MOL0     C46489  13.727   1.976   9.171  0.8789  0.0516  0.9921
  345MOL0     N46490  12.824   1.705   9.453  0.5183 -0.0820 -0.1811
  345MOL0     N46491  12.740   1.610   9.434  0.3187  0.0982 -0.2502
  345MOL0     C46492  11.722   1.638   9.219 -0.0735 -1.3024 -0.6565
  345MOL0     C46493  11.582   1.623   9.233  0.2636 -0.0121 -0.3543
  345MOL0     C46494  11.231   1.281   9.219  0.5671  0.1007 -0.4450
  345MOL0     C46495  11.225   1.268   9.362  0.0658  0.2110 -0.4956
  345MOL0     C46496  11.131   1.199   9.427  0.6325  0.3854  0.9395
  345MOL0     C46497  11.031   1.128   9.353 -0.2296 -0.0096 -0.2395
  345MOL0     O46498  10.945   1.068   9.439  0.3168 -0.2603 -0.1483
  345MOL0     C46499  10.846   0.994   9.372 -0.3971 -0.5519 -0.1740
  345MOL0     C46500  10.780   0.903   9.464  0.4954  0.6447  0.2320
  345MOL0     C46501  10.667   0.831   9.391  0.4592  1.1272  0.2591
  345MOL0     C46502  10.562   0.784   9.482  0.5192 -0.2644 -0.0842
  345MOL0     C46503  10.467   0.690   9.418 -0.1672  0.4025 -0.2487
  345MOL0     C46504  10.397   0.606   9.369 -0.1856  0.5111 -0.0381
  345MOL0     C46505  11.035   1.137   9.216  1.1492 -0.2916  0.7551
  345MOL0     C46506  11.130   1.211   9.142 -0.0075 -0.7950 -0.2518
  345MOL0     C46507  11.113   1.231   8.995  0.9821 -0.3388  0.2382
  345MOL0     H46508  11.587   1.283   9.186  4.2786 -1.0823 -1.8017
  345MOL0     H46509  11.801   1.307   9.162 -0.5490  0.2020  1.5145
  345MOL0     H46510  11.950   1.737   9.092  0.7765  1.9005  1.9270
  345MOL0     H46511  12.003   1.691   9.254 -0.5848  3.0454 -1.4214
  345MOL0     H46512  12.182   1.758   9.100 -2.2238  0.9485 -1.0718
  345MOL0     H46513  12.143   1.616   9.006  1.1963 -1.7698  0.4977
  345MOL0     H46514  12.173   1.466   9.223  1.4274  0.5985  0.8068
  345MOL0     H46515  12.249   1.604   9.299  0.8928 -1.1910  0.7351
  345MOL0     H46516  12.339   1.432   9.059  0.6097 -1.5120 -1.0383
  345MOL0     H46517  12.403   1.595   9.076 -0.0727 -1.1223 -0.7114
  345MOL0     H46518  12.475   1.537   9.307 -5.3206 -0.5018  0.9826
  345MOL0     H46519  12.432   1.361   9.285  0.4493 -0.5114 -0.3721
  345MOL0     H46520  12.569   1.408   9.056 -2.1505 -1.6664  0.3873
  345MOL0     H46521  12.659   1.529   9.158 -0.5183 -0.3126  1.7887
  345MOL0     H46522  12.784   1.318   9.155  1.7640  0.9562  2.0770
  345MOL0     H46523  12.649   1.232   9.236 -2.4961  0.8892  1.9297
  345MOL0     H46524  12.687   1.352   9.430  1.9973  0.4322  1.8925
  345MOL0     H46525  12.841   1.303   9.372 -0.8570 -1.2008  0.0948
  345MOL0     H46526  12.999   1.507   9.258 -2.0185 -2.1154 -0.8120
  345MOL0     H46527  12.982   1.829   9.228 -0.4861 -1.1999 -0.8492
  345MOL0     H46528  13.012   1.885   9.387 -1.4280  0.7000 -2.8741
  345MOL0     H46529  13.219   1.715   9.413  1.5150 -2.4253 -2.1341
  345MOL0     H46530  13.188   1.658   9.254 -2.9239 -1.0560  0.3965
  345MOL0     H46531  13.243   1.945   9.333 -0.6858 -2.1291  2.1594
  345MOL0     H46532  13.246   1.875   9.165  0.0310 -1.1509  0.2210
  345MOL0     H46533  13.420   1.722   9.241  0.4029  1.0696 -0.2646
  345MOL0     H46534  13.434   1.813   9.396 -4.9209  3.6656  2.0972
  345MOL0     H46535  13.629   1.677   9.310 -0.3975  1.2101  2.3339
  345MOL0     H46536  13.865   1.643   9.312  0.7800  1.2855  0.2986
  345MOL0     H46537  14.332   1.826   9.384  0.6782  0.5021  0.3314
  345MOL0     H46538  14.572   1.802   9.333 -1.9114  0.9632  2.3233
  345MOL0     H46539  14.697   1.677   8.995  0.3712 -0.2932  0.2444
  345MOL0     H46540  14.717   1.836   8.904 -2.0201 -2.7050 -1.9955
  345MOL0     H46541  14.913   1.751   9.107  0.8630  2.6911 -1.1724
  345MOL0     H46542  14.929   1.708   8.933 -1.8504  0.1078 -2.3137
  345MOL0     H46543  14.921   1.945   8.877  0.8801  0.2925 -0.0781
  345MOL0     H46544  14.888   2.004   9.040  0.2838  3.1835 -2.9707
  345MOL0     H46545  15.145   1.868   8.948  0.2026 -2.1735  2.0323
  345MOL0     H46546  15.110   1.891   9.115 -2.6951  0.3100  1.1373
  345MOL0     H46547  15.104   2.139   9.084  1.0080  1.3343 -1.2951
  345MOL0     H46548  15.147   2.114   8.914  1.2195  2.3048  0.4203
  345MOL0     H46549  15.312   2.026   9.143 -2.2695  1.1875 -0.5488
  345MOL0     H46550  15.362   1.975   8.983  2.8088 -0.1642  2.4616
  345MOL0     H46551  15.360   2.265   9.068 -0.2828 -1.3489 -0.3479
  345MOL0     H46552  15.389   2.203   8.905  2.5673  0.5794 -0.7559
  345MOL0     H46553  15.567   2.116   9.125  3.3205 -1.2417 -0.9661
  345MOL0     H46554  15.566   2.043   8.973  1.2152 -1.4131  2.4214
  345MOL0     H46555  14.500   1.865   8.925 -0.0531  0.4383  0.4685
  345MOL0     H46556  14.245   1.882   8.981  0.7778 -1.7347 -0.2622
  345MOL0     H46557  13.927   2.026   9.119 -3.7883  2.3625 -1.7383
  345MOL0     H46558  13.693   2.071   9.131 -1.6166 -1.4630 -0.7850
  345MOL0     H46559  11.752   1.740   9.196 -1.4233 -0.9519 -0.9518
  345MOL0     H46560  11.526   1.716   9.236 -0.7885 -0.6124 -1.0809
  345MOL0     H46561  11.293   1.313   9.435  0.1478  0.5095 -0.7559
  345MOL0     H46562  11.135   1.190   9.535 -1.3125  0.8169  1.0845
  345MOL0     H46563  10.883   0.925   9.296 -1.4832  0.9815 -2.2041
  345MOL0     H46564  10.772   1.066   9.337 -2.2175 -1.9295  0.6684
  345MOL0     H46565  10.734   0.954   9.549 -1.9158  0.0004 -0.5912
  345MOL0     H46566  10.853   0.829   9.495  0.7932  0.7515 -0.2147
  345MOL0     H46567  10.704   0.741   9.341 -0.5705 -0.4131  2.1622
  345MOL0     H46568  10.609   0.892   9.321 -0.6670 -0.4798 -0.2737
  345MOL0     H46569  10.609   0.731   9.565 -1.1102  0.3069  1.2716
  345MOL0     H46570  10.509   0.870   9.525  4.0068  3.3421 -2.3441
  345MOL0     H46571  10.328   0.537   9.324  1.1710  0.1452 -1.6236
  345MOL0     H46572  10.947   1.099   9.163 -0.6816  2.6735  1.4151
  345MOL0     H46573  11.203   1.195   8.944  0.7983 -1.6690  0.8026
  345MOL0     H46574  11.024   1.180   8.957 -0.9516  2.4053  0.7835
  345MOL0     H46575  11.096   1.339   8.985  0.8721 -0.5107 -1.7737
  346MOL0     O46576   2.890   0.405   0.675  0.8361 -0.7773  0.5391
  346MOL0     C46577   2.793   0.482   0.637 -0.5794 -0.4340  1.2363
  346MOL0     O46578   2.806   0.607   0.581 -0.3007  0.5071 -0.0777
  346MOL0     C46579   2.939   0.638   0.544  0.9035 -0.2946  0.8804
  346MOL0     C46580   2.979   0.769   0.552  0.2823  0.6465  0.3943
  346MOL0     C46581   3.110   0.819   0.533 -0.8210 -0.4280  0.1195
  346MOL0     C46582   3.211   0.731   0.501  0.4657  0.6888  0.1769
  346MOL0     O46583   3.344   0.763   0.507 -0.0465  0.4264  0.7900
  346MOL0     C46584   3.444   0.663   0.500 -0.5840  0.3786  0.2440
  346MOL0     C46585   3.581   0.712   0.541  0.1353  0.8903  0.3277
  346MOL0     C46586   3.614   0.862   0.534  1.1586  0.9548  1.4670
  346MOL0     C46587   3.762   0.899   0.553  0.1586 -0.0276  0.7897
  346MOL0     C46588   3.785   1.047   0.570 -0.0669 -0.2303 -0.7743
  346MOL0     C46589   3.793   1.111   0.432 -0.0518  0.0332 -0.1486
  346MOL0     C46590   3.936   1.085   0.377  0.1797 -0.5465 -0.7575
  346MOL0     C46591   3.959   1.143   0.236  0.3529 -0.5535 -0.3150
  346MOL0     N46592   4.063   1.074   0.152  0.4482 -0.1433 -0.8479
  346MOL0     C46593   4.158   1.136   0.074  0.5761 -0.4359 -0.0886
  346MOL0     C46594   4.229   1.042   0.014  0.6506 -0.1800  0.1560
  346MOL0     C46595   4.313   1.075  -0.108  0.6731 -0.0079 -0.2431
  346MOL0     C46596   4.405   0.962  -0.150  0.3491 -0.0776  0.1970
  346MOL0     C46597   4.518   1.016  -0.239 -0.9020 -0.4825  0.0683
  346MOL0     C46598   4.612   0.906  -0.285  0.7880  0.9636  0.1767
  346MOL0     O46599   4.702   0.873  -0.181  0.8735 -1.2403 -0.6677
  346MOL0     C46600   4.824   0.933  -0.170 -0.2338 -0.2607  0.0814
  346MOL0     C46601   4.889   0.913  -0.049 -0.1911  0.2265 -0.3964
  346MOL0     C46602   5.017   0.968  -0.014 -0.4748 -0.6262  0.5003
  346MOL0     C46603   5.066   1.067  -0.098  0.3942 -0.4967 -1.4991
  346MOL0     C46604   5.189   1.143  -0.067 -0.4593 -0.3434 -0.1885
  346MOL0     O46605   5.233   1.137   0.060  0.1684  0.0943 -0.3044
  346MOL0     C46606   5.345   1.198   0.108 -0.5037  0.7768  0.0427
  346MOL0     C46607   5.460   1.130   0.156 -0.0167 -0.3368  0.5731
  346MOL0     C46608   5.572   1.201   0.204 -0.4803  0.0425 -0.5061
  346MOL0     C46609   5.570   1.343   0.222 -0.1890  0.0955  0.5455
  346MOL0     O46610   5.667   1.398   0.295 -0.2255 -0.0978  0.1749
  346MOL0     C46611   5.635   1.524   0.357  0.3982  0.1056  0.1770
  346MOL0     C46612   5.749   1.591   0.440 -0.4237  0.3329  0.1270
  346MOL0     C46613   5.781   1.506   0.565 -0.2414  0.6292  0.1234
  346MOL0     C46614   5.868   1.577   0.670  0.0231  0.1848 -0.5691
  346MOL0     C46615   6.016   1.570   0.636  0.5719  0.7861 -0.0411
  346MOL0     C46616   6.094   1.654   0.733  0.8625 -0.0463 -0.3190
  346MOL0     C46617   6.243   1.634   0.720  0.3375 -0.4792  0.0317
  346MOL0     C46618   6.321   1.647   0.855  0.2306 -1.1554  0.6725
  346MOL0    Cl46619   6.260   1.551   0.985 -0.0528  0.5765  0.2285
  346MOL0     C46620   5.448   1.403   0.188 -0.0870 -0.4340  0.6537
  346MOL0     C46621   5.341   1.336   0.131  0.3170 -0.2520 -0.3811
  346MOL0     O46622   5.246   1.210  -0.153  0.7851  0.1604 -0.2260
  346MOL0     C46623   4.997   1.096  -0.217  0.1024 -0.1696  0.9277
  346MOL0     C46624   4.877   1.027  -0.259 -0.0498 -0.1879 -0.9685
  346MOL0     N46625   4.184   0.921   0.062 -0.5014  1.2351  1.0472
  346MOL0     N46626   4.078   0.937   0.146  0.0856  0.0021  0.3425
  346MOL0     C46627   3.169   0.600   0.458  0.4684  0.9867 -0.6831
  346MOL0     C46628   3.040   0.553   0.491  0.0480  0.0396  0.0047
  346MOL0     C46629   2.666   0.440   0.699  0.4320 -1.0680 -0.8192
  346MOL0     C46630   2.664   0.317   0.771 -0.1818  0.8090 -0.3796
  346MOL0     C46631   2.546   0.265   0.823 -0.3069 -0.2505  0.9179
  346MOL0     C46632   2.423   0.333   0.801 -0.7091  0.4546 -0.2608
  346MOL0     O46633   2.305   0.287   0.854  0.5660  0.1056  0.3761
  346MOL0     C46634   2.303   0.224   0.981 -0.7424 -0.1122 -0.2489
  346MOL0     C46635   2.343   0.328   1.075 -0.0890 -0.8803 -1.5897
  346MOL0     C46636   2.343   0.284   1.224 -0.1412  0.5535  0.1895
  346MOL0     C46637   2.401   0.395   1.318  0.2263  0.1845 -0.2175
  346MOL0     C46638   2.548   0.424   1.312  0.5391 -0.7268 -0.8965
  346MOL0     C46639   2.664   0.457   1.304 -0.0778 -0.2478 -0.0805
  346MOL0     C46640   2.418   0.459   0.741 -0.5556  0.2028 -0.5039
  346MOL0     C46641   2.539   0.508   0.691  0.1027 -0.7687 -0.7298
  346MOL0     C46642   2.535   0.637   0.623  0.4570 -0.0003  0.2505
  346MOL0     H46643   2.914   0.846   0.593  1.5946  1.6708  0.6419
  346MOL0     H46644   3.135   0.923   0.549  2.7836 -1.0408 -0.6079
  346MOL0     H46645   3.410   0.578   0.561 -0.9896  1.3726  1.4418
  346MOL0     H46646   3.451   0.626   0.398  0.1905 -0.1883  0.4962
  346MOL0     H46647   3.660   0.662   0.484  0.5059  1.6241  0.1959
  346MOL0     H46648   3.596   0.680   0.644 -2.9323  1.9372  1.1976
  346MOL0     H46649   3.552   0.904   0.613  1.6621  1.7965  1.4272
  346MOL0     H46650   3.583   0.900   0.436  2.9610 -1.0551  0.0102
  346MOL0     H46651   3.801   0.848   0.642  2.3249  0.3124  0.0796
  346MOL0     H46652   3.827   0.854   0.478  0.3600 -1.5800  1.8394
  346MOL0     H46653   3.692   1.086   0.613  2.1166  0.1583  4.3921
  346MOL0     H46654   3.864   1.079   0.639  0.7185  0.4595 -1.9698
  346MOL0     H46655   3.719   1.066   0.365  1.8052 -1.2434 -1.4315
  346MOL0     H46656   3.786   1.220   0.438  0.7479  0.0136  2.3873
  346MOL0     H46657   3.962   0.979   0.383  0.3685 -0.5081 -0.8867
  346MOL0     H46658   4.005   1.134   0.445 -0.2872 -1.8474  0.7069
  346MOL0     H46659   3.865   1.143   0.181 -0.3541  0.2952  0.8356
  346MOL0     H46660   3.984   1.248   0.254 -2.6355 -0.0942  1.8519
  346MOL0     H46661   4.169   1.243   0.056 -1.5458 -0.4544 -1.8554
  346MOL0     H46662   4.239   1.089  -0.187 -2.1588  0.8585  2.3654
  346MOL0     H46663   4.370   1.168  -0.098  0.9786 -0.1115 -0.9764
  346MOL0     H46664   4.441   0.905  -0.064 -0.2759 -1.5765 -0.4962
  346MOL0     H46665   4.330   0.904  -0.205 -3.7665  3.9853  0.8884
  346MOL0     H46666   4.568   1.084  -0.169  0.0996 -2.4657  1.3625
  346MOL0     H46667   4.481   1.070  -0.326 -1.1225  0.9514  1.0145
  346MOL0     H46668   4.668   0.931  -0.376  1.0009 -1.1816 -0.3378
  346MOL0     H46669   4.542   0.824  -0.304 -1.1616  2.2981  1.3001
  346MOL0     H46670   4.844   0.836   0.013 -3.3386  0.3632 -2.2831
  346MOL0     H46671   5.064   0.948   0.082  1.5298  0.6729 -0.1432
  346MOL0     H46672   5.464   1.022   0.164  0.4953 -0.3235  0.5241
  346MOL0     H46673   5.654   1.143   0.246  0.3235  0.1332 -1.8975
  346MOL0     H46674   5.606   1.596   0.280  0.4720  2.4503  2.2319
  346MOL0     H46675   5.552   1.499   0.423  1.3950  1.4942  2.0503
  346MOL0     H46676   5.842   1.608   0.385  0.2060 -0.4905  0.9161
  346MOL0     H46677   5.709   1.686   0.474 -1.6170 -0.2785  0.4837
  346MOL0     H46678   5.682   1.476   0.599 -0.5984 -0.6060 -1.8342
  346MOL0     H46679   5.839   1.419   0.532  0.7914  0.7687  1.5297
  346MOL0     H46680   5.847   1.530   0.767 -0.3109 -0.3634 -0.9031
  346MOL0     H46681   5.839   1.682   0.656  2.3964  1.1014  0.7284
  346MOL0     H46682   6.035   1.594   0.531 -0.3471  0.5097 -0.2856
  346MOL0     H46683   6.050   1.466   0.639 -2.2045 -0.2323 -0.6901
  346MOL0     H46684   6.064   1.758   0.714 -3.0230 -0.9516  0.0352
  346MOL0     H46685   6.041   1.640   0.827 -2.8845 -0.5630 -2.3086
  346MOL0     H46686   6.283   1.702   0.645  0.8187 -0.5533  0.2196
  346MOL0     H46687   6.262   1.540   0.668  2.7524 -0.2767  0.4319
  346MOL0     H46688   6.425   1.614   0.846 -0.7043 -4.1996  0.0591
  346MOL0     H46689   6.324   1.753   0.883 -2.7610 -0.7622 -0.1248
  346MOL0     H46690   5.443   1.510   0.203  3.9814  0.1808 -0.9259
  346MOL0     H46691   5.256   1.385   0.085  0.4628 -1.9211 -2.5475
  346MOL0     H46692   5.038   1.177  -0.277 -2.3757 -0.2128 -0.9900
  346MOL0     H46693   4.833   1.039  -0.358  0.1672 -0.9589 -1.1665
  346MOL0     H46694   3.242   0.534   0.414  0.4740  0.2183  0.4214
  346MOL0     H46695   3.026   0.452   0.454 -0.9746  0.1486  0.0693
  346MOL0     H46696   2.755   0.259   0.782  0.8871  2.7105  1.6692
  346MOL0     H46697   2.550   0.160   0.851 -2.3114 -1.1477 -1.8012
  346MOL0     H46698   2.375   0.142   0.993 -0.1207  0.5017  0.3242
  346MOL0     H46699   2.199   0.193   0.993 -0.9170 -1.0376 -3.3328
  346MOL0     H46700   2.274   0.412   1.065 -3.0979 -2.6245  2.0030
  346MOL0     H46701   2.444   0.366   1.060  0.7980 -1.3599  2.2090
  346MOL0     H46702   2.404   0.196   1.244 -1.4267  0.0692  2.2554
  346MOL0     H46703   2.241   0.250   1.245  0.1377  0.9002  2.2269
  346MOL0     H46704   2.340   0.482   1.291 -1.2125 -0.5873  0.4446
  346MOL0     H46705   2.377   0.386   1.425 -0.4103  2.5467 -0.0950
  346MOL0     H46706   2.767   0.476   1.279 -0.2116  0.4861 -0.0680
  346MOL0     H46707   2.324   0.513   0.733 -0.9216 -0.3851 -0.1988
  346MOL0     H46708   2.435   0.680   0.609 -0.0765 -2.1175 -4.2055
  346MOL0     H46709   2.592   0.709   0.682  1.2448 -0.7576  0.4284
  346MOL0     H46710   2.574   0.632   0.521  2.3492 -1.1093  0.9803
  347MOL0     O46711   7.218   3.751   9.787  0.2660 -0.0224  0.9308
  347MOL0     C46712   7.195   3.721   9.899 -0.8991 -0.4401 -0.0304
  347MOL0     O46713   7.284   3.680   9.990  0.7214 -0.0560  0.3111
  347MOL0     C46714   7.421   3.688   9.981 -1.0684 -0.1193  0.7770
  347MOL0     C46715   7.491   3.639   9.868 -0.4043 -0.3098  0.1438
  347MOL0     C46716   7.630   3.641   9.881  0.3506 -0.1203 -0.3348
  347MOL0     C46717   7.695   3.703   9.983 -0.2311 -0.3339 -0.2665
  347MOL0     O46718   7.829   3.726   9.986 -0.2474  0.0844 -0.4067
  347MOL0     C46719   7.919   3.611   9.954 -0.3788  0.0966 -0.1702
  347MOL0     C46720   7.903   3.503  10.062 -0.4215  0.8625  0.0929
  347MOL0     C46721   7.993   3.535  10.186  0.0219  0.5740 -0.2704
  347MOL0     C46722   8.139   3.499  10.155 -0.0986  0.5785 -0.4790
  347MOL0     C46723   8.226   3.563  10.260 -0.2171  0.4453 -0.3113
  347MOL0     C46724   8.365   3.484  10.275  1.4598 -0.4758 -0.3287
  347MOL0     C46725   8.467   3.542  10.376 -1.1770 -0.5455 -0.7548
  347MOL0     C46726   8.522   3.678  10.331 -0.4300 -0.1075  0.4061
  347MOL0     N46727   8.644   3.715  10.401  0.2488  0.2216 -0.4505
  347MOL0     C46728   8.665   3.824  10.493  0.2370  0.1406  0.0569
  347MOL0     C46729   8.790   3.810  10.554  0.0286  0.7562  0.6149
  347MOL0     C46730   8.847   3.900  10.659 -0.1825  0.7836 -0.1316
  347MOL0     C46731   8.917   4.020  10.599  1.1503  0.7992 -0.3903
  347MOL0     C46732   8.859   4.155  10.641 -0.1757 -0.0410 -0.6026
  347MOL0     C46733   8.956   4.258  10.593 -0.0905  0.3855 -0.0576
  347MOL0     O46734   8.968   4.265  10.449 -0.1702 -0.2311 -0.3084
  347MOL0     C46735   8.867   4.331  10.374 -0.8100  0.3570 -0.1397
  347MOL0     C46736   8.751   4.400  10.415 -0.8399  0.4944 -0.2430
  347MOL0     C46737   8.651   4.450  10.323 -0.2694 -0.2309  0.0057
  347MOL0     C46738   8.680   4.435  10.185 -0.6757 -0.9685 -0.7355
  347MOL0     C46739   8.589   4.491  10.081 -0.5963  0.0270 -0.9299
  347MOL0     O46740   8.627   4.465   9.953 -0.1955  0.3329  0.2658
  347MOL0     C46741   8.534   4.491   9.851 -0.4812 -0.7318  0.0893
  347MOL0     C46742   8.546   4.616   9.801 -0.8963 -0.8147 -0.8567
  347MOL0     C46743   8.459   4.655   9.704 -0.1090  0.2729  0.3010
  347MOL0     C46744   8.376   4.560   9.636  0.0664 -0.1292 -0.2241
  347MOL0     O46745   8.291   4.609   9.538  0.1151  0.4943 -0.0293
  347MOL0     C46746   8.257   4.522   9.431  0.7292  0.3523  0.1666
  347MOL0     C46747   8.189   4.589   9.322  0.3222 -0.5845 -0.4540
  347MOL0     C46748   8.160   4.499   9.206 -0.5239  0.3817  0.0524
  347MOL0     C46749   8.053   4.577   9.119 -0.8496 -0.6230  0.8312
  347MOL0     C46750   7.905   4.537   9.150 -0.8229 -0.4194  0.0705
  347MOL0     C46751   7.815   4.583   9.033 -0.1603  0.2210  0.7758
  347MOL0     C46752   7.807   4.736   9.014  0.3602  0.4945  0.3269
  347MOL0     C46753   7.736   4.773   8.881 -0.3632  0.5590  0.4484
  347MOL0    Cl46754   7.855   4.790   8.738  0.1629  0.4127 -0.0548
  347MOL0     C46755   8.375   4.429   9.687 -0.6823  0.8075 -0.0774
  347MOL0     C46756   8.466   4.390   9.791  0.0618  0.1585  0.8337
  347MOL0     O46757   8.475   4.532  10.130 -0.0792 -0.1177  0.7732
  347MOL0     C46758   8.789   4.351  10.146  0.7053 -0.4175  0.4051
  347MOL0     C46759   8.876   4.306  10.248  0.0927  0.1043 -0.1545
  347MOL0     N46760   8.847   3.687  10.498  0.1520  0.1112 -1.3319
  347MOL0     N46761   8.757   3.639  10.418 -0.4953 -1.0358  0.1618
  347MOL0     C46762   7.627   3.762  10.081 -0.5631 -0.9108  0.7880
  347MOL0     C46763   7.492   3.750  10.085  0.4089  0.1833  0.1189
  347MOL0     C46764   7.051   3.727   9.950  0.5721 -0.9599 -0.8582
  347MOL0     C46765   7.019   3.686  10.078 -0.1331  0.6416 -0.9639
  347MOL0     C46766   6.881   3.673  10.119  0.3232 -0.6342  0.0390
  347MOL0     C46767   6.776   3.694  10.039 -0.4186 -0.6534  0.3060
  347MOL0     O46768   6.644   3.672  10.073  0.3352 -0.4116 -0.8489
  347MOL0     C46769   6.605   3.575  10.171 -0.6430  0.5284 -0.3305
  347MOL0     C46770   6.456   3.555  10.169  0.1588  0.0115 -0.5141
  347MOL0     C46771   6.411   3.507  10.031 -0.7535  0.0739 -0.2068
  347MOL0     C46772   6.463   3.357  10.008  0.6144 -0.7010 -0.7106
  347MOL0     C46773   6.379   3.294   9.909  0.1835 -0.0511  0.1383
  347MOL0     C46774   6.300   3.258   9.822  0.5740  0.7226 -0.0237
  347MOL0     C46775   6.806   3.745   9.913 -0.3969  0.4075  1.1815
  347MOL0     C46776   6.939   3.757   9.867 -0.0292  0.4491  0.5010
  347MOL0     C46777   6.951   3.829   9.737 -0.0388 -0.2786  0.2472
  347MOL0     H46778   7.442   3.579   9.792 -0.5147 -0.3758  0.2651
  347MOL0     H46779   7.694   3.611   9.798 -0.1348  0.7162 -1.0314
  347MOL0     H46780   7.893   3.571   9.855  0.1717  4.5274 -2.3590
  347MOL0     H46781   8.027   3.633   9.950 -0.3690  0.0019 -0.4388
  347MOL0     H46782   7.930   3.407  10.017 -0.4261  1.3180 -0.9210
  347MOL0     H46783   7.799   3.496  10.097  0.1439  3.9842  2.7977
  347MOL0     H46784   7.957   3.474  10.269 -1.1298  1.7961  0.1632
  347MOL0     H46785   7.977   3.636  10.225 -2.0362  0.7939 -1.5134
  347MOL0     H46786   8.148   3.390  10.155  0.9547  0.6361  1.0736
  347MOL0     H46787   8.171   3.531  10.055  1.0717 -0.3572 -0.4341
  347MOL0     H46788   8.246   3.668  10.234 -0.8776  0.5745 -0.3163
  347MOL0     H46789   8.174   3.570  10.356 -1.3406  4.3539 -1.0039
  347MOL0     H46790   8.349   3.381  10.309 -0.8407 -1.1832 -3.1169
  347MOL0     H46791   8.412   3.480  10.177 -1.5898  0.5449 -1.9649
  347MOL0     H46792   8.538   3.464  10.406  0.4506  1.7143  1.7510
  347MOL0     H46793   8.413   3.561  10.469  0.4139 -1.4940  0.4262
  347MOL0     H46794   8.545   3.663  10.225 -0.2867 -0.7673  0.5218
  347MOL0     H46795   8.449   3.758  10.347  1.4814  1.8736 -0.3212
  347MOL0     H46796   8.592   3.900  10.518 -3.6000 -3.0172 -0.4115
  347MOL0     H46797   8.761   3.932  10.719 -1.0853  0.4621 -1.2115
  347MOL0     H46798   8.908   3.839  10.725 -0.4144  0.1447 -0.4955
  347MOL0     H46799   9.022   4.016  10.628  1.0101 -1.4304 -0.0181
  347MOL0     H46800   8.913   4.000  10.491  2.5170 -1.5708 -0.0741
  347MOL0     H46801   8.856   4.168  10.749  0.2026 -0.4225 -0.5427
  347MOL0     H46802   8.759   4.173  10.601 -0.6325  2.8569  1.5514
  347MOL0     H46803   9.054   4.235  10.635 -1.3880 -1.3724  2.2643
  347MOL0     H46804   8.923   4.351  10.642  0.6345  1.6833 -1.9151
  347MOL0     H46805   8.727   4.415  10.520 -2.7368  1.3264 -0.7312
  347MOL0     H46806   8.563   4.507  10.350  0.1645  0.2918  0.3345
  347MOL0     H46807   8.610   4.689   9.849  0.4532 -1.1545 -2.0741
  347MOL0     H46808   8.451   4.761   9.681 -2.1240 -0.0253 -0.6331
  347MOL0     H46809   8.347   4.474   9.391 -0.0124  0.1842 -1.3763
  347MOL0     H46810   8.194   4.440   9.466  0.6773  0.4742  0.3578
  347MOL0     H46811   8.094   4.629   9.357 -0.1966 -2.2015  0.0405
  347MOL0     H46812   8.247   4.671   9.277 -1.2507 -0.4467 -2.3909
  347MOL0     H46813   8.249   4.477   9.146 -0.7814 -0.8664  0.1107
  347MOL0     H46814   8.130   4.395   9.222  2.7444 -0.3807  2.2587
  347MOL0     H46815   8.075   4.538   9.019  2.8977 -0.5712  1.4825
  347MOL0     H46816   8.071   4.685   9.117  1.3220 -0.9385 -0.8907
  347MOL0     H46817   7.856   4.568   9.243 -2.3346 -0.0180 -0.8253
  347MOL0     H46818   7.904   4.428   9.163  0.3542 -0.4648 -0.0398
  347MOL0     H46819   7.853   4.548   8.937  0.6793  2.0804  0.3817
  347MOL0     H46820   7.718   4.534   9.044  0.7136 -1.9346 -0.5908
  347MOL0     H46821   7.910   4.774   9.007  0.8531 -0.7734  0.4832
  347MOL0     H46822   7.748   4.787   9.091  0.3631 -0.7125  1.1459
  347MOL0     H46823   7.654   4.703   8.861  0.2920  0.8104 -4.1313
  347MOL0     H46824   7.696   4.875   8.886 -1.7545  0.0915 -0.5573
  347MOL0     H46825   8.311   4.350   9.648  1.0043 -2.3059  2.8673
  347MOL0     H46826   8.462   4.286   9.820 -1.9744  0.2770  1.0800
  347MOL0     H46827   8.831   4.323  10.050  3.3576 -0.9615  1.6366
  347MOL0     H46828   8.955   4.238  10.220  0.3233  0.9171 -1.5613
  347MOL0     H46829   7.686   3.805  10.160  0.6437 -3.4158  1.3530
  347MOL0     H46830   7.431   3.766  10.173  0.9233 -2.8820  1.1403
  347MOL0     H46831   7.093   3.669  10.156  0.5255  1.4770 -1.3858
  347MOL0     H46832   6.864   3.650  10.223  2.7474  0.5027  0.7612
  347MOL0     H46833   6.642   3.597  10.272  1.6954 -0.0364 -1.0027
  347MOL0     H46834   6.660   3.484  10.145 -2.0707 -0.4079 -0.1889
  347MOL0     H46835   6.419   3.655  10.196  2.1162  0.5474  0.4009
  347MOL0     H46836   6.425   3.487  10.248 -2.5707  0.9147 -0.7070
  347MOL0     H46837   6.446   3.573   9.952  0.5398 -1.3805 -0.9073
  347MOL0     H46838   6.302   3.510  10.018 -0.5905 -0.3889 -2.0477
  347MOL0     H46839   6.564   3.357   9.967  0.5296 -2.4183 -1.0070
  347MOL0     H46840   6.460   3.303  10.104  0.1652 -0.6683 -0.7063
  347MOL0     H46841   6.222   3.223   9.756  1.4726 -1.3386 -0.0542
  347MOL0     H46842   6.727   3.786   9.851 -1.1363  3.5591  3.8784
  347MOL0     H46843   6.852   3.874   9.723 -0.3017 -0.9702 -0.1437
  347MOL0     H46844   7.021   3.913   9.734 -0.7920  0.3613  0.2209
  347MOL0     H46845   6.964   3.769   9.646 -3.0248  2.3201 -2.1250
  348MOL0     O46846   7.313   4.403   4.810  0.7138 -0.1707  0.4555
  348MOL0     C46847   7.322   4.303   4.881  0.1050  0.4019  0.4223
  348MOL0     O46848   7.264   4.186   4.850 -0.4747  0.2153  0.1564
  348MOL0     C46849   7.204   4.168   4.723 -0.4146  0.3680  0.1092
  348MOL0     C46850   7.092   4.074   4.714 -0.8123  0.1257 -0.4740
  348MOL0     C46851   7.039   4.049   4.584  0.7527 -0.1171  0.0749
  348MOL0     C46852   7.088   4.093   4.474 -0.0512  0.1728  0.6593
  348MOL0     O46853   7.027   4.032   4.362  0.1116  0.1598  0.6730
  348MOL0     C46854   7.113   4.031   4.244 -0.7468  1.4617  0.4568
  348MOL0     C46855   7.236   3.945   4.273  0.2135  0.1042 -0.1216
  348MOL0     C46856   7.299   3.883   4.146 -0.5770 -0.6380  0.1646
  348MOL0     C46857   7.391   3.754   4.163 -0.7983  0.4561 -0.1561
  348MOL0     C46858   7.527   3.771   4.230  0.5320 -1.0599  0.6855
  348MOL0     C46859   7.610   3.644   4.261 -0.3485  0.3233  0.2531
  348MOL0     C46860   7.761   3.681   4.298 -0.8506 -0.5226 -1.2253
  348MOL0     C46861   7.840   3.702   4.169  0.2893  0.2417 -0.1202
  348MOL0     N46862   7.885   3.577   4.112 -0.0710 -0.3837 -0.3908
  348MOL0     C46863   7.971   3.483   4.174  1.0432  0.2025 -0.6424
  348MOL0     C46864   7.976   3.373   4.091 -1.0815 -0.2717  0.4544
  348MOL0     C46865   8.030   3.234   4.107 -0.1836 -0.5649 -0.6729
  348MOL0     C46866   7.929   3.143   4.169  0.2738 -0.5537 -0.3886
  348MOL0     C46867   7.939   2.996   4.132  0.1327  0.4572 -1.2043
  348MOL0     C46868   8.072   2.934   4.187 -0.1261  0.7176  0.4039
  348MOL0     O46869   8.165   2.919   4.067 -0.1807  0.0820 -0.3451
  348MOL0     C46870   8.293   2.908   4.099  0.6477 -0.2986  0.3042
  348MOL0     C46871   8.374   2.911   3.989 -0.8186  0.3626  0.6977
  348MOL0     C46872   8.518   2.888   3.995 -0.3187 -0.3300 -0.6399
  348MOL0     C46873   8.568   2.844   4.120 -0.0130 -0.2079 -0.2019
  348MOL0     C46874   8.708   2.815   4.134 -0.2591 -0.0537  0.2556
  348MOL0     O46875   8.796   2.855   4.031 -0.7347 -0.7466 -0.0992
  348MOL0     C46876   8.931   2.828   4.052  0.4142 -0.2976  0.1661
  348MOL0     C46877   9.005   2.796   3.936  0.3281 -0.4892  0.0940
  348MOL0     C46878   9.142   2.790   3.937  0.3554  0.4834 -0.0642
  348MOL0     C46879   9.208   2.836   4.053  0.3322  0.2478 -0.1130
  348MOL0     O46880   9.337   2.813   4.053 -0.2733 -0.3565 -0.3935
  348MOL0     C46881   9.414   2.847   3.939  0.6032 -0.1175 -0.8599
  348MOL0     C46882   9.553   2.909   3.980  0.5093  1.0724 -0.6166
  348MOL0     C46883   9.627   2.953   3.855  0.1885  1.0200 -0.2740
  348MOL0     C46884   9.618   3.099   3.815 -0.4512 -0.6388  0.5759
  348MOL0     C46885   9.473   3.158   3.788  0.1677 -0.0707 -0.4891
  348MOL0     C46886   9.482   3.306   3.745  0.4962  0.0888 -0.3476
  348MOL0     C46887   9.337   3.367   3.740  0.2929  0.5482  0.1726
  348MOL0     C46888   9.352   3.512   3.763 -0.0114 -0.1447  0.3475
  348MOL0    Cl46889   9.403   3.534   3.932 -0.4560  0.3897 -0.2454
  348MOL0     C46890   9.141   2.888   4.159  0.1137  0.4745 -0.7514
  348MOL0     C46891   9.005   2.882   4.161 -0.3524  0.0597 -0.0181
  348MOL0     O46892   8.742   2.761   4.235 -0.4623  0.5335  0.5562
  348MOL0     C46893   8.488   2.837   4.231 -0.4337 -0.4948 -0.0379
  348MOL0     C46894   8.352   2.872   4.223 -0.1697 -0.2961 -0.1128
  348MOL0     N46895   7.891   3.400   3.986 -0.2005  0.6112  0.3113
  348MOL0     N46896   7.846   3.524   3.992  0.1963 -0.2110 -0.6619
  348MOL0     C46897   7.191   4.185   4.476 -0.3768 -0.4371 -0.0740
  348MOL0     C46898   7.253   4.224   4.597 -0.1051  0.3244 -0.7012
  348MOL0     C46899   7.376   4.331   5.009  0.0844  0.9333 -0.6427
  348MOL0     C46900   7.353   4.233   5.114 -0.2973  0.4488 -0.1880
  348MOL0     C46901   7.431   4.229   5.226  0.2490 -0.2637  0.2362
  348MOL0     C46902   7.531   4.328   5.233 -0.8061  0.8762 -0.9363
  348MOL0     O46903   7.628   4.331   5.338 -0.0871  0.3531  0.8031
  348MOL0     C46904   7.618   4.211   5.427  0.4889 -0.9398 -0.0321
  348MOL0     C46905   7.746   4.206   5.509  0.1348  0.0223 -0.2892
  348MOL0     C46906   7.869   4.184   5.419  0.8255  0.0427 -0.3705
  348MOL0     C46907   7.995   4.228   5.487 -0.5702 -0.6100  0.8447
  348MOL0     C46908   8.093   4.120   5.509 -0.7682  0.5446 -0.5639
  348MOL0     C46909   8.187   4.042   5.527  0.8055 -0.1370  0.3871
  348MOL0     C46910   7.549   4.421   5.141 -0.3153  0.2056  0.2440
  348MOL0     C46911   7.467   4.438   5.034 -0.1041 -0.7513 -0.4114
  348MOL0     C46912   7.506   4.556   4.935  0.3421  0.0135 -0.1301
  348MOL0     H46913   7.050   4.036   4.807  1.4034  2.5258  1.6542
  348MOL0     H46914   6.946   3.993   4.583 -1.0392  2.6295  0.8608
  348MOL0     H46915   7.055   4.000   4.156  0.2447 -0.6297  0.4955
  348MOL0     H46916   7.148   4.133   4.225  0.4765  1.2190  1.3028
  348MOL0     H46917   7.193   3.880   4.349  0.5831  3.2747  3.0128
  348MOL0     H46918   7.317   4.001   4.321  0.0823 -0.2587  0.5278
  348MOL0     H46919   7.355   3.960   4.092 -2.9903  2.9869  2.4183
  348MOL0     H46920   7.225   3.850   4.072  3.7936 -0.6574 -4.8062
  348MOL0     H46921   7.329   3.680   4.214 -1.6626  0.7962 -0.6889
  348MOL0     H46922   7.411   3.715   4.063 -1.9832  1.1706 -0.6971
  348MOL0     H46923   7.585   3.839   4.166 -1.1139 -1.7001 -1.5908
  348MOL0     H46924   7.513   3.819   4.327 -0.2550  2.1411 -0.8590
  348MOL0     H46925   7.560   3.590   4.342  0.5275 -1.0776 -0.1144
  348MOL0     H46926   7.612   3.575   4.176  0.5807 -1.9353  1.9980
  348MOL0     H46927   7.798   3.598   4.360  0.7072 -0.2750 -1.7747
  348MOL0     H46928   7.768   3.766   4.365  2.5358 -0.9538 -0.8342
  348MOL0     H46929   7.764   3.742   4.100 -1.5518 -1.3446  0.8871
  348MOL0     H46930   7.922   3.773   4.184 -0.1085  0.5150  0.8670
  348MOL0     H46931   8.003   3.498   4.277 -0.1511 -1.7755  0.0721
  348MOL0     H46932   8.061   3.192   4.010  1.7990 -1.3246  0.2233
  348MOL0     H46933   8.113   3.246   4.177 -0.3642 -1.7617 -0.2137
  348MOL0     H46934   7.927   3.157   4.277 -0.7826  4.4358 -0.8378
  348MOL0     H46935   7.825   3.170   4.148  0.0660  1.6972  2.8382
  348MOL0     H46936   7.943   2.990   4.022  1.6755  1.7144 -1.2548
  348MOL0     H46937   7.852   2.940   4.167  0.3977  1.7892  1.9365
  348MOL0     H46938   8.057   2.840   4.241  0.9730  1.4115  2.0188
  348MOL0     H46939   8.103   3.003   4.266 -1.3755 -0.0805  1.6281
  348MOL0     H46940   8.324   2.912   3.893 -1.1531  1.5967  0.8689
  348MOL0     H46941   8.582   2.909   3.910 -1.7692  2.1726 -1.2101
  348MOL0     H46942   8.952   2.754   3.851  1.0489  1.4616 -1.3915
  348MOL0     H46943   9.186   2.728   3.859 -0.7525 -2.5826  1.5773
  348MOL0     H46944   9.421   2.762   3.870  0.8181 -0.3941 -0.5007
  348MOL0     H46945   9.366   2.922   3.875  0.9730 -0.9277 -2.1224
  348MOL0     H46946   9.544   2.980   4.062 -0.3206 -1.9552  2.1538
  348MOL0     H46947   9.612   2.835   4.035 -1.1237  0.3972  0.3255
  348MOL0     H46948   9.728   2.931   3.893 -0.4009 -2.3004 -0.3487
  348MOL0     H46949   9.596   2.883   3.777 -0.9840  0.0982  0.9659
  348MOL0     H46950   9.677   3.110   3.724  0.8012 -2.8075  1.0455
  348MOL0     H46951   9.670   3.150   3.897  0.4366 -3.5299  1.9454
  348MOL0     H46952   9.410   3.146   3.877 -0.6531 -1.0512 -1.1746
  348MOL0     H46953   9.429   3.102   3.704 -0.2838  0.2714 -0.4861
  348MOL0     H46954   9.528   3.349   3.835 -0.2135  2.4265 -1.0076
  348MOL0     H46955   9.534   3.324   3.651  1.8081 -0.6609  0.2148
  348MOL0     H46956   9.273   3.315   3.812  1.4007  0.8012  1.3787
  348MOL0     H46957   9.297   3.355   3.638 -1.2075  1.7352  0.5851
  348MOL0     H46958   9.420   3.568   3.698 -0.9237  0.3648 -0.1993
  348MOL0     H46959   9.260   3.566   3.739  0.2497 -0.4300 -1.4163
  348MOL0     H46960   9.185   2.930   4.249  2.1742 -3.2751  0.2127
  348MOL0     H46961   8.962   2.942   4.241  3.1799  1.5928  0.9172
  348MOL0     H46962   8.513   2.805   4.331 -0.9987  1.0311  0.6337
  348MOL0     H46963   8.297   2.876   4.316  0.0671  3.9414  0.0482
  348MOL0     H46964   7.232   4.230   4.386  1.1378  2.2331  1.8202
  348MOL0     H46965   7.332   4.298   4.589  1.8034 -1.3058  1.6063
  348MOL0     H46966   7.277   4.155   5.109  1.0772 -1.0213  0.9580
  348MOL0     H46967   7.404   4.164   5.309  1.9106  2.1045  2.8304
  348MOL0     H46968   7.595   4.121   5.369  0.6670  1.0401 -3.4986
  348MOL0     H46969   7.530   4.236   5.486  0.0288  1.1176 -1.4512
  348MOL0     H46970   7.752   4.111   5.564 -1.0432 -0.3916 -0.8347
  348MOL0     H46971   7.759   4.292   5.574 -2.4053 -0.8889  1.5819
  348MOL0     H46972   7.865   4.240   5.325 -0.4350 -0.6824 -0.7610
  348MOL0     H46973   7.872   4.076   5.405 -2.6482 -0.3702  1.2310
  348MOL0     H46974   8.049   4.302   5.427 -0.4887 -1.3148  0.0276
  348MOL0     H46975   7.983   4.282   5.581 -1.3362 -0.2038  0.5164
  348MOL0     H46976   8.260   3.974   5.566 -0.1020 -1.6467 -0.4521
  348MOL0     H46977   7.624   4.495   5.167 -1.5086  2.0938 -1.3988
  348MOL0     H46978   7.575   4.623   4.987 -1.7626 -0.6962  3.9720
  348MOL0     H46979   7.554   4.513   4.846  1.1740  1.6923 -0.5352
  348MOL0     H46980   7.417   4.608   4.898 -1.0812 -2.4853 -0.4265
  349MOL0     O46981   9.998   1.582   7.208 -0.6823 -0.7378  0.0786
  349MOL0     C46982   9.939   1.485   7.259  0.5997  0.2442  0.1890
  349MOL0     O46983   9.998   1.394   7.337  0.3982 -0.9811 -0.4443
  349MOL0     C46984  10.126   1.401   7.369 -0.2359 -0.5186 -0.5114
  349MOL0     C46985  10.188   1.516   7.417  0.7304 -0.6121  0.3029
  349MOL0     C46986  10.322   1.527   7.435 -0.0090  0.2025 -1.1584
  349MOL0     C46987  10.403   1.417   7.427 -0.8457  0.4513 -0.0751
  349MOL0     O46988  10.541   1.412   7.434 -0.2384  0.2616 -0.1051
  349MOL0     C46989  10.619   1.469   7.546 -0.0157 -0.0256 -0.0157
  349MOL0     C46990  10.765   1.437   7.519 -0.0143  0.2646 -0.0632
  349MOL0     C46991  10.860   1.505   7.623  0.4017  0.1261 -0.6131
  349MOL0     C46992  10.999   1.492   7.578  1.5221  0.4887 -0.0428
  349MOL0     C46993  11.092   1.561   7.676 -0.5610 -0.2598 -0.1899
  349MOL0     C46994  11.239   1.549   7.645 -0.4228 -0.6711  0.9677
  349MOL0     C46995  11.333   1.620   7.736  0.0751 -0.3751  0.7493
  349MOL0     C46996  11.478   1.619   7.676  0.6679  0.5791 -0.2513
  349MOL0     N46997  11.561   1.717   7.749 -0.1178 -0.5513 -0.7321
  349MOL0     C46998  11.654   1.701   7.849  0.5073 -0.5791  0.1116
  349MOL0     C46999  11.732   1.810   7.851 -0.2587 -1.3466  0.3397
  349MOL0     C47000  11.854   1.823   7.942 -0.6535  0.1270  0.3698
  349MOL0     C47001  11.822   1.931   8.051  0.1071 -0.3074  0.5691
  349MOL0     C47002  11.937   1.941   8.153  0.0079 -0.4344  0.1828
  349MOL0     C47003  11.893   2.043   8.260 -0.7670  0.2702  0.2597
  349MOL0     O47004  12.008   2.053   8.346 -0.0272 -0.1104 -0.3342
  349MOL0     C47005  12.085   2.162   8.336  0.7534 -0.8629  0.5313
  349MOL0     C47006  12.187   2.162   8.431 -0.9085 -0.5646  0.2475
  349MOL0     C47007  12.300   2.242   8.419  0.2050 -0.4052 -0.0763
  349MOL0     C47008  12.301   2.338   8.320  0.4587 -0.6897  0.2232
  349MOL0     C47009  12.420   2.423   8.300  0.0391 -0.6311 -0.5801
  349MOL0     O47010  12.520   2.404   8.382  0.7263  0.9290 -0.8646
  349MOL0     C47011  12.635   2.472   8.390 -1.0582 -0.4002  0.5179
  349MOL0     C47012  12.670   2.587   8.323 -0.4801 -0.0880 -0.4269
  349MOL0     C47013  12.789   2.659   8.352 -0.4502 -0.1708 -0.6681
  349MOL0     C47014  12.881   2.609   8.450 -1.1371 -0.0313 -0.4162
  349MOL0     O47015  13.005   2.672   8.476 -0.0773  0.6930 -0.1221
  349MOL0     C47016  12.999   2.816   8.485 -0.8130 -0.3463 -0.1501
  349MOL0     C47017  13.113   2.880   8.552  0.0777 -0.5075  0.6031
  349MOL0     C47018  13.251   2.824   8.509 -0.0326  0.4744 -0.3224
  349MOL0     C47019  13.366   2.889   8.587  0.4060  0.0554  0.6817
  349MOL0     C47020  13.494   2.860   8.509 -0.0909  0.4186 -0.6737
  349MOL0     C47021  13.603   2.838   8.617 -0.3993 -1.0276 -0.2095
  349MOL0     C47022  13.655   2.977   8.672  0.0133  0.4876 -1.1989
  349MOL0     C47023  13.785   3.015   8.613 -0.7231  0.2747 -0.3053
  349MOL0    Cl47024  13.905   2.882   8.669 -0.2005 -0.4009  0.0200
  349MOL0     C47025  12.847   2.486   8.512 -0.5868 -0.4559 -0.3697
  349MOL0     C47026  12.730   2.426   8.482  0.7845  0.4048  0.0068
  349MOL0     O47027  12.411   2.507   8.207  0.7335  0.1454  0.0784
  349MOL0     C47028  12.193   2.349   8.231 -0.3546  0.0747  0.1573
  349MOL0     C47029  12.085   2.259   8.231  0.4123 -0.2319 -0.6012
  349MOL0     N47030  11.657   1.901   7.770 -0.6600  0.4437 -0.1846
  349MOL0     N47031  11.563   1.837   7.707 -0.3797  0.2560  0.0109
  349MOL0     C47032  10.342   1.295   7.379 -0.5406  0.0312  1.4722
  349MOL0     C47033  10.203   1.287   7.350 -0.1074  0.2093  0.5349
  349MOL0     C47034   9.803   1.455   7.216 -0.0521 -0.1303  0.3818
  349MOL0     C47035   9.716   1.406   7.318 -0.3147 -0.3190  0.8494
  349MOL0     C47036   9.578   1.371   7.286 -1.2016 -0.5304 -0.5953
  349MOL0     C47037   9.530   1.388   7.158 -0.3436  0.1476 -0.4804
  349MOL0     O47038   9.400   1.356   7.128 -0.6935 -0.9823 -0.5288
  349MOL0     C47039   9.307   1.315   7.234  0.8478 -0.1742  0.9400
  349MOL0     C47040   9.161   1.297   7.169 -0.0951  0.2768 -0.9289
  349MOL0     C47041   9.182   1.208   7.034  0.1095 -0.4535 -0.4597
  349MOL0     C47042   9.065   1.126   6.997  0.0723  0.5021  0.7373
  349MOL0     C47043   9.051   1.088   6.849  1.0933 -0.0111 -1.2703
  349MOL0     C47044   9.032   1.036   6.749  0.7113  0.6069 -0.3014
  349MOL0     C47045   9.616   1.437   7.055 -0.3383  0.1846  0.9658
  349MOL0     C47046   9.744   1.478   7.087 -0.7331  0.6786 -0.2455
  349MOL0     C47047   9.828   1.539   6.975  1.5518 -0.5598  1.1330
  349MOL0     H47048  10.128   1.605   7.434  2.4265  0.4263  1.1691
  349MOL0     H47049  10.372   1.620   7.459 -0.2547 -0.4554  2.4585
  349MOL0     H47050  10.605   1.577   7.552  1.9743  0.2237  0.9782
  349MOL0     H47051  10.591   1.426   7.643  0.2970 -2.3376 -0.8698
  349MOL0     H47052  10.787   1.472   7.417 -1.4184  0.9718 -0.1505
  349MOL0     H47053  10.773   1.328   7.517 -1.1840  0.1213 -3.2550
  349MOL0     H47054  10.856   1.470   7.726  3.4710  1.5996  0.1400
  349MOL0     H47055  10.829   1.610   7.631  0.9824  0.3418 -1.0735
  349MOL0     H47056  11.013   1.384   7.573 -0.3960  0.1810  0.4751
  349MOL0     H47057  11.009   1.528   7.475 -0.9802  0.0990 -0.4771
  349MOL0     H47058  11.055   1.664   7.669  1.5460  0.6628  1.2923
  349MOL0     H47059  11.084   1.533   7.781  0.2997 -2.2565 -0.6080
  349MOL0     H47060  11.273   1.445   7.639  0.3551 -0.3672 -3.3983
  349MOL0     H47061  11.257   1.599   7.549 -2.8531 -0.6921  0.4400
  349MOL0     H47062  11.337   1.565   7.830 -0.6132  0.0369  1.0339
  349MOL0     H47063  11.296   1.722   7.752  0.7590 -0.2607  1.6451
  349MOL0     H47064  11.519   1.521   7.700 -2.4650 -0.6838  0.4604
  349MOL0     H47065  11.482   1.632   7.567 -0.1754 -0.2354 -0.3880
  349MOL0     H47066  11.664   1.612   7.909 -0.8146 -2.6657 -2.5435
  349MOL0     H47067  11.882   1.729   7.989 -0.0314  0.1784  0.1076
  349MOL0     H47068  11.943   1.857   7.888 -0.6761  0.7216  0.7042
  349MOL0     H47069  11.812   2.029   8.003  1.5089 -0.3711  0.1001
  349MOL0     H47070  11.729   1.917   8.106  0.1081  0.4201  0.7740
  349MOL0     H47071  12.029   1.981   8.111 -0.8120 -0.7466 -2.0623
  349MOL0     H47072  11.956   1.846   8.203  4.0914  0.3646  0.4660
  349MOL0     H47073  11.806   2.004   8.313 -2.2628  3.0488  0.0636
  349MOL0     H47074  11.863   2.136   8.209  0.8986  1.4349  1.2998
  349MOL0     H47075  12.180   2.096   8.518  0.0599  0.0591  0.8186
  349MOL0     H47076  12.377   2.238   8.496  1.9472  0.3359 -1.7167
  349MOL0     H47077  12.612   2.624   8.239 -2.0168  1.4785  1.2208
  349MOL0     H47078  12.811   2.746   8.291  1.6824 -0.7017 -0.7208
  349MOL0     H47079  12.989   2.873   8.393 -0.5883  0.1059  0.1008
  349MOL0     H47080  12.912   2.842   8.546 -1.0916  1.4631 -1.2377
  349MOL0     H47081  13.121   2.986   8.525  2.3051 -1.2077 -1.8303
  349MOL0     H47082  13.116   2.875   8.661  1.3086  2.7687  0.8376
  349MOL0     H47083  13.253   2.717   8.532  1.8664 -0.0797 -2.6415
  349MOL0     H47084  13.258   2.822   8.400 -3.0064 -4.1408 -0.6786
  349MOL0     H47085  13.367   2.843   8.686 -0.6230 -1.5817 -0.0339
  349MOL0     H47086  13.335   2.994   8.585 -2.8059 -0.7661  1.3612
  349MOL0     H47087  13.514   2.936   8.432 -0.6656  0.1831 -1.0570
  349MOL0     H47088  13.483   2.764   8.459 -0.4860  0.9423 -1.6227
  349MOL0     H47089  13.565   2.786   8.705  0.1504 -1.7471 -0.3858
  349MOL0     H47090  13.690   2.788   8.573  0.4630 -0.4392  0.7659
  349MOL0     H47091  13.661   2.977   8.781 -0.1899  0.5980 -1.1869
  349MOL0     H47092  13.581   3.056   8.653 -1.0848 -0.2677 -0.2244
  349MOL0     H47093  13.779   3.016   8.504 -1.9994 -0.5390 -0.2664
  349MOL0     H47094  13.824   3.111   8.648  0.2925 -0.0655 -0.4522
  349MOL0     H47095  12.914   2.435   8.580  0.6728  0.4517 -0.8895
  349MOL0     H47096  12.697   2.333   8.527  0.5932 -0.1125 -1.1777
  349MOL0     H47097  12.197   2.418   8.147 -2.8674  0.3513  0.1801
  349MOL0     H47098  12.012   2.259   8.151  1.0428  1.5602 -1.2111
  349MOL0     H47099  10.402   1.205   7.373  1.6294  1.4379  1.1202
  349MOL0     H47100  10.166   1.194   7.309  3.2385  0.3309 -3.4636
  349MOL0     H47101   9.754   1.386   7.418 -0.5757  0.2781  1.0740
  349MOL0     H47102   9.525   1.335   7.373  2.2756  2.2797  3.0734
  349MOL0     H47103   9.292   1.385   7.316  1.8134 -0.7772  1.6493
  349MOL0     H47104   9.337   1.226   7.289 -0.5008  0.3973  2.6877
  349MOL0     H47105   9.113   1.391   7.140  3.4841  3.4241  2.1961
  349MOL0     H47106   9.098   1.245   7.242  3.6112 -3.5072 -0.0251
  349MOL0     H47107   9.271   1.146   7.050  0.8212  0.6736  0.0730
  349MOL0     H47108   9.212   1.266   6.946  0.6092 -0.1053 -0.0700
  349MOL0     H47109   9.060   1.030   7.049 -2.0618  1.2589  2.0318
  349MOL0     H47110   8.975   1.172   7.037 -0.2870 -0.8119  1.4844
  349MOL0     H47111   9.035   0.976   6.660  3.2089  0.4071 -0.1512
  349MOL0     H47112   9.563   1.461   6.963  1.2932 -1.7114 -0.5649
  349MOL0     H47113   9.908   1.476   6.935  0.6817 -0.8975 -0.1137
  349MOL0     H47114   9.755   1.554   6.895  0.6281  0.5138  2.1406
  349MOL0     H47115   9.869   1.636   7.003 -1.5638  1.7782 -1.6732
  350MOL0     O47116   8.009   8.009   1.666 -0.0796 -0.2326  0.1979
  350MOL0     C47117   7.986   7.973   1.551 -0.7515  0.0100 -0.5742
  350MOL0     O47118   8.081   7.903   1.472  1.0481  0.2942  0.5315
  350MOL0     C47119   8.208   7.897   1.503 -0.4549  0.1460 -0.0633
  350MOL0     C47120   8.294   7.962   1.417  1.3405 -0.5725  1.4476
  350MOL0     C47121   8.424   7.972   1.438  0.1368 -0.8864 -0.4848
  350MOL0     C47122   8.477   7.937   1.558 -0.7857  0.3373  0.5526
  350MOL0     O47123   8.603   7.961   1.607 -0.2092  0.2449 -0.3685
  350MOL0     C47124   8.712   8.000   1.528  0.8830  0.8661 -0.3404
  350MOL0     C47125   8.849   7.960   1.589 -0.2877 -0.0383  0.4850
  350MOL0     C47126   8.952   7.951   1.479 -0.2101  0.2613 -0.5279
  350MOL0     C47127   9.094   7.910   1.526  0.5174  0.4764 -0.0051
  350MOL0     C47128   9.169   7.865   1.402 -0.5074 -0.0074  0.8723
  350MOL0     C47129   9.319   7.836   1.430  0.9132  0.4219  0.0200
  350MOL0     C47130   9.410   7.798   1.312  1.1589 -0.0651 -0.7000
  350MOL0     C47131   9.342   7.692   1.222 -0.7677  1.0625  1.1099
  350MOL0     N47132   9.452   7.646   1.131 -0.6147  0.5329 -0.3952
  350MOL0     C47133   9.543   7.544   1.164  0.2237  0.2586 -0.3462
  350MOL0     C47134   9.617   7.528   1.054 -0.2451 -0.0639 -0.3225
  350MOL0     C47135   9.729   7.432   1.039  0.0943  0.3807  0.4349
  350MOL0     C47136   9.854   7.516   1.078  0.8986  0.6375 -0.8650
  350MOL0     C47137   9.981   7.432   1.065  0.3104  0.2527 -0.4627
  350MOL0     C47138  10.039   7.429   0.925  0.1493  0.1158 -0.1113
  350MOL0     O47139  10.104   7.301   0.899 -0.4661 -0.0339  0.1318
  350MOL0     C47140  10.241   7.303   0.922  1.5943 -0.9557 -0.6158
  350MOL0     C47141  10.312   7.404   1.007  0.3980 -0.2432  0.2912
  350MOL0     C47142  10.446   7.382   1.036  0.4858  0.1875 -0.6773
  350MOL0     C47143  10.524   7.284   0.972  0.2140  0.4537  0.2742
  350MOL0     C47144  10.669   7.271   0.994  0.7081  0.0100  0.1744
  350MOL0     O47145  10.738   7.202   0.895 -0.4651 -0.4469  0.4120
  350MOL0     C47146  10.877   7.178   0.907  0.8796  0.5517  0.9163
  350MOL0     C47147  10.945   7.135   0.792 -0.2544  0.6337 -1.0009
  350MOL0     C47148  11.084   7.092   0.800  0.0178  0.1023  0.5968
  350MOL0     C47149  11.161   7.107   0.916  0.6249 -0.2636  1.1022
  350MOL0     O47150  11.300   7.087   0.924 -0.0425 -0.0600  0.4096
  350MOL0     C47151  11.349   6.961   0.884  0.1135  0.7430  0.6170
  350MOL0     C47152  11.492   6.976   0.833 -0.7121 -0.6833  0.2942
  350MOL0     C47153  11.555   6.839   0.818 -0.7528  0.2247 -0.0377
  350MOL0     C47154  11.691   6.822   0.750  0.1307  0.3624  0.5302
  350MOL0     C47155  11.720   6.668   0.727 -0.0072  0.6398 -0.0724
  350MOL0     C47156  11.823   6.630   0.628 -0.0376  0.2099  0.5047
  350MOL0     C47157  11.849   6.478   0.631  1.0599 -0.3781 -0.5882
  350MOL0     C47158  11.922   6.435   0.503 -0.7504 -0.6501 -1.3209
  350MOL0    Cl47159  12.007   6.281   0.523  0.2383  0.2380 -0.1093
  350MOL0     C47160  11.089   7.164   1.024 -1.2944 -0.1347  0.2061
  350MOL0     C47161  10.956   7.185   1.024  0.2759 -0.1885  0.9459
  350MOL0     O47162  10.720   7.316   1.091  0.1157  0.4505  0.6385
  350MOL0     C47163  10.454   7.186   0.903 -0.9217 -0.6727 -0.0789
  350MOL0     C47164  10.316   7.194   0.880  0.1215 -0.0589  0.2878
  350MOL0     N47165   9.565   7.611   0.952 -0.3770  0.4215  0.4092
  350MOL0     N47166   9.468   7.686   1.001  0.5483 -0.3782 -0.5868
  350MOL0     C47167   8.395   7.869   1.654  0.3565 -0.0546  1.2212
  350MOL0     C47168   8.260   7.845   1.625 -0.4413 -0.4047  0.6877
  350MOL0     C47169   7.858   8.000   1.472 -0.5639  0.7626  0.3396
  350MOL0     C47170   7.853   7.979   1.332 -0.0890 -0.1059  0.1791
  350MOL0     C47171   7.732   7.993   1.258  0.1854  0.4471  0.8861
  350MOL0     C47172   7.617   8.035   1.327  0.1559  0.4600  0.7597
  350MOL0     O47173   7.491   8.057   1.274 -0.2182 -0.2125  0.2602
  350MOL0     C47174   7.472   8.064   1.138 -0.0955  0.5652 -0.3014
  350MOL0     C47175   7.336   8.098   1.106  0.3212  0.4234 -0.0950
  350MOL0     C47176   7.309   8.250   1.123  0.5538 -0.7783 -0.2416
  350MOL0     C47177   7.365   8.350   1.019 -0.4843 -0.4081  0.6196
  350MOL0     C47178   7.403   8.473   1.092 -0.1197 -0.1202  0.0178
  350MOL0     C47179   7.446   8.573   1.144 -0.2193 -1.0790 -0.3207
  350MOL0     C47180   7.628   8.069   1.454  0.1541 -0.1649  0.1899
  350MOL0     C47181   7.740   8.044   1.529 -1.3851  0.5590 -1.0308
  350MOL0     C47182   7.728   8.083   1.672  0.0535  0.0626 -0.2138
  350MOL0     H47183   8.245   8.004   1.330  0.6563 -1.2707  1.4797
  350MOL0     H47184   8.486   8.038   1.378 -1.2230  0.6378 -0.2732
  350MOL0     H47185   8.703   7.948   1.432 -1.2865 -2.5718  1.5108
  350MOL0     H47186   8.703   8.108   1.516 -2.1184  0.8481  1.0104
  350MOL0     H47187   8.844   7.859   1.631 -3.0683  0.0684  0.5971
  350MOL0     H47188   8.880   8.029   1.668  0.2992 -2.3913  2.4117
  350MOL0     H47189   8.947   8.039   1.415 -0.2545 -0.9856 -2.2892
  350MOL0     H47190   8.926   7.865   1.417  1.1933 -2.0460  1.8667
  350MOL0     H47191   9.140   8.000   1.568  0.0216  0.0484  1.5230
  350MOL0     H47192   9.101   7.832   1.603 -2.2211 -0.2723 -0.4153
  350MOL0     H47193   9.116   7.781   1.356  1.0156 -0.4585 -0.1383
  350MOL0     H47194   9.170   7.943   1.326 -2.7736 -0.4026  0.3578
  350MOL0     H47195   9.364   7.920   1.484 -0.0982  3.1976 -3.0742
  350MOL0     H47196   9.336   7.750   1.494 -1.4155  0.4150  0.7193
  350MOL0     H47197   9.508   7.775   1.355  0.7143  0.9504  0.9728
  350MOL0     H47198   9.431   7.888   1.253 -0.4521  0.1177 -1.0334
  350MOL0     H47199   9.306   7.599   1.267  1.0764 -0.0253  0.4625
  350MOL0     H47200   9.268   7.749   1.165  2.2587  1.4582 -2.8087
  350MOL0     H47201   9.559   7.503   1.263 -1.1379  2.9308  1.1098
  350MOL0     H47202   9.728   7.337   1.094  0.4371  0.4960  0.6451
  350MOL0     H47203   9.734   7.394   0.937 -0.9241  0.6369  0.2804
  350MOL0     H47204   9.870   7.611   1.025  1.9994  0.7620 -0.3431
  350MOL0     H47205   9.839   7.541   1.183  1.0847  2.6009 -1.2629
  350MOL0     H47206   9.963   7.329   1.098  1.4737  0.6977  1.7753
  350MOL0     H47207  10.055   7.490   1.121 -2.5362  3.1073  0.6454
  350MOL0     H47208  10.098   7.518   0.901  3.6467 -2.0298 -0.1641
  350MOL0     H47209   9.952   7.435   0.859  0.9436  1.2860 -1.0985
  350MOL0     H47210  10.268   7.485   1.064 -0.6368 -0.0053 -0.8230
  350MOL0     H47211  10.496   7.457   1.097  2.1504  0.2472 -2.0225
  350MOL0     H47212  10.878   7.115   0.709 -1.1240 -3.6498  0.4938
  350MOL0     H47213  11.129   7.051   0.710 -1.1427  0.9319 -0.3994
  350MOL0     H47214  11.345   6.895   0.971 -0.9324 -0.0864 -0.0217
  350MOL0     H47215  11.289   6.914   0.805  2.6180 -1.2509 -0.2334
  350MOL0     H47216  11.495   7.020   0.733  2.3137 -1.6591 -0.1748
  350MOL0     H47217  11.550   7.039   0.902 -1.6076  0.3127  0.1580
  350MOL0     H47218  11.581   6.794   0.914  2.0850 -2.5434 -1.8970
  350MOL0     H47219  11.488   6.772   0.763  1.9128 -3.1870  0.5258
  350MOL0     H47220  11.766   6.866   0.817 -0.2985  3.1555 -0.6844
  350MOL0     H47221  11.686   6.874   0.655 -1.1550 -2.5147 -1.1096
  350MOL0     H47222  11.627   6.612   0.712  0.5677 -2.4149  5.3624
  350MOL0     H47223  11.746   6.626   0.824  1.6130 -0.8977 -1.1248
  350MOL0     H47224  11.789   6.658   0.528  0.4646 -0.3258  0.1704
  350MOL0     H47225  11.912   6.688   0.654 -0.2435 -0.3694  2.6989
  350MOL0     H47226  11.758   6.417   0.631 -0.0817  1.1981  1.4984
  350MOL0     H47227  11.902   6.463   0.725  2.7020  0.9757 -1.2491
  350MOL0     H47228  11.854   6.422   0.419  3.2494 -3.4780 -4.4939
  350MOL0     H47229  12.000   6.511   0.489 -0.0804  0.0626  3.9414
  350MOL0     H47230  11.134   7.190   1.120 -3.4225  1.9249  0.7478
  350MOL0     H47231  10.913   7.202   1.123  0.7169  1.8921  0.8309
  350MOL0     H47232  10.517   7.102   0.875 -3.6007 -3.4963  1.6453
  350MOL0     H47233  10.263   7.109   0.840  0.9489  0.0023 -1.0212
  350MOL0     H47234   8.436   7.829   1.747 -0.0718 -4.1915 -0.1865
  350MOL0     H47235   8.199   7.794   1.699  0.6501  1.5380  3.0621
  350MOL0     H47236   7.938   7.953   1.271 -1.6270 -1.9295 -1.3055
  350MOL0     H47237   7.736   7.954   1.157  2.8075 -0.9651  1.4295
  350MOL0     H47238   7.492   7.963   1.103 -2.2710 -1.0985  2.7692
  350MOL0     H47239   7.533   8.142   1.091 -1.2407  0.2784 -2.3780
  350MOL0     H47240   7.258   8.042   1.160  0.0773  2.1991  1.5400
  350MOL0     H47241   7.315   8.069   1.003  0.0396  2.3871 -0.6253
  350MOL0     H47242   7.357   8.277   1.218 -0.2363 -2.5180  0.6986
  350MOL0     H47243   7.201   8.264   1.130 -0.3255 -6.0884  0.8822
  350MOL0     H47244   7.447   8.305   0.962  0.4795  2.0208 -0.0105
  350MOL0     H47245   7.295   8.375   0.940  1.1676 -1.0337 -1.1295
  350MOL0     H47246   7.508   8.650   1.186 -0.9942  0.3475 -1.7006
  350MOL0     H47247   7.535   8.109   1.494 -0.2336 -0.1940 -0.6623
  350MOL0     H47248   7.747   7.998   1.738 -0.7665 -1.4057 -1.7882
  350MOL0     H47249   7.804   8.158   1.698 -0.7817  1.8056 -2.4434
  350MOL0     H47250   7.630   8.129   1.687  0.0510  0.7781 -2.1170
  351MOL0     O47251   4.299   0.224   2.034 -0.0654 -0.6713  0.5197
  351MOL0     C47252   4.215   0.315   2.029  0.2913  0.4491 -0.2004
  351MOL0     O47253   4.231   0.440   2.008 -0.2275 -0.0974 -1.2642
  351MOL0     C47254   4.361   0.476   2.010 -0.7196  0.1019  0.8478
  351MOL0     C47255   4.457   0.451   1.909  0.8199 -0.1150 -0.2042
  351MOL0     C47256   4.582   0.498   1.921 -0.3484  0.1087  0.2492
  351MOL0     C47257   4.616   0.576   2.036 -0.3258 -0.4206 -0.5187
  351MOL0     O47258   4.735   0.641   2.049 -0.5889  0.0873 -0.3933
  351MOL0     C47259   4.851   0.612   1.968 -1.3284 -0.1332 -0.5395
  351MOL0     C47260   4.956   0.712   2.014 -0.0777  0.0610 -0.2044
  351MOL0     C47261   5.096   0.670   1.960  0.7165 -0.4511  0.5778
  351MOL0     C47262   5.169   0.593   2.069  0.6482 -0.2674 -0.9982
  351MOL0     C47263   5.273   0.490   2.016 -0.0564 -0.2032 -0.9421
  351MOL0     C47264   5.213   0.353   1.970 -0.1789  0.3329 -0.3089
  351MOL0     C47265   5.296   0.275   1.870 -0.3854 -0.3266 -0.0180
  351MOL0     C47266   5.442   0.287   1.917 -0.0487  0.8029 -0.1967
  351MOL0     N47267   5.526   0.191   1.842 -0.9454 -0.0988  0.4816
  351MOL0     C47268   5.634   0.226   1.757  0.0561  0.4159  0.8712
  351MOL0     C47269   5.653   0.124   1.669 -0.1711  0.0908  0.1302
  351MOL0     C47270   5.731   0.106   1.537 -0.8533 -0.2014 -0.3082
  351MOL0     C47271   5.686   0.210   1.427 -0.1781 -0.7238 -0.4487
  351MOL0     C47272   5.753   0.206   1.294 -0.6042  0.3401  0.9771
  351MOL0     C47273   5.796   0.071   1.246 -0.0444  0.5518 -0.0774
  351MOL0     O47274   5.924   0.044   1.303 -0.2872 -0.4217  0.1133
  351MOL0     C47275   6.026  -0.013   1.241 -0.7627  0.0044 -1.0724
  351MOL0     C47276   6.138  -0.048   1.312  0.4560 -0.3441 -0.1102
  351MOL0     C47277   6.230  -0.142   1.272  0.6324  0.7721 -0.3917
  351MOL0     C47278   6.214  -0.209   1.156 -0.3356  0.3315  0.0939
  351MOL0     C47279   6.310  -0.308   1.106 -0.0203 -0.4745 -0.5546
  351MOL0     O47280   6.419  -0.324   1.190 -0.1079  0.1948 -0.5754
  351MOL0     C47281   6.520  -0.404   1.163 -0.4714  0.8993  1.5174
  351MOL0     C47282   6.647  -0.346   1.165 -0.5693  0.6790 -0.0205
  351MOL0     C47283   6.760  -0.414   1.121 -0.2508 -0.3074  0.2151
  351MOL0     C47284   6.761  -0.548   1.081 -0.0025  0.9014 -0.3785
  351MOL0     O47285   6.878  -0.623   1.054  0.5900 -0.0118  0.0567
  351MOL0     C47286   7.000  -0.554   1.051 -0.1880  0.1044 -0.3275
  351MOL0     C47287   7.054  -0.534   1.188  0.1740 -0.1636 -0.2411
  351MOL0     C47288   7.192  -0.475   1.176 -0.2280 -0.1386 -0.8657
  351MOL0     C47289   7.304  -0.575   1.153  0.1775 -1.3547 -0.1312
  351MOL0     C47290   7.453  -0.515   1.153  1.0646  0.5871 -0.5206
  351MOL0     C47291   7.472  -0.387   1.067  0.0777  0.2331  0.2133
  351MOL0     C47292   7.432  -0.407   0.922 -0.0407 -0.3473 -0.1734
  351MOL0     C47293   7.491  -0.525   0.844  0.3800  0.4138 -0.6748
  351MOL0    Cl47294   7.673  -0.519   0.865 -0.3227 -0.2106  0.0191
  351MOL0     C47295   6.627  -0.610   1.078 -0.2114  0.5102 -0.4194
  351MOL0     C47296   6.508  -0.535   1.107 -0.1491 -0.7942 -0.1194
  351MOL0     O47297   6.285  -0.384   1.006  0.1686  0.1260 -0.3315
  351MOL0     C47298   6.105  -0.175   1.075 -0.4753  1.2519 -0.1473
  351MOL0     C47299   6.012  -0.089   1.121  0.9263 -0.7351 -0.1016
  351MOL0     N47300   5.581   0.015   1.720 -0.4353  0.2477 -0.4903
  351MOL0     N47301   5.508   0.060   1.819  0.1638  1.0134  0.2909
  351MOL0     C47302   4.523   0.608   2.129  0.5584  0.0415 -0.7740
  351MOL0     C47303   4.396   0.551   2.116  0.0294 -0.3442 -0.4618
  351MOL0     C47304   4.067   0.270   2.034 -0.3630  0.2864 -0.5474
  351MOL0     C47305   4.040   0.120   2.028  0.3132  0.0125  0.1080
  351MOL0     C47306   3.908   0.062   2.037  0.0106 -0.6480  0.7725
  351MOL0     C47307   3.806   0.149   2.017  0.9134  0.0399  0.3172
  351MOL0     O47308   3.693   0.085   1.980  0.3726  0.9567 -0.1819
  351MOL0     C47309   3.602   0.159   1.897  0.2802 -1.0223 -0.0702
  351MOL0     C47310   3.519   0.073   1.798 -0.2467 -0.2424 -0.2787
  351MOL0     C47311   3.591   0.016   1.679 -0.4687 -0.2723  0.0937
  351MOL0     C47312   3.641   0.106   1.560 -0.2708 -0.1561 -0.7446
  351MOL0     C47313   3.531   0.187   1.508  0.0451  0.0736 -0.0284
  351MOL0     C47314   3.434   0.235   1.457 -0.7204 -0.4768  0.8836
  351MOL0     C47315   3.827   0.289   2.032 -0.2069  0.3275  0.1410
  351MOL0     C47316   3.951   0.348   2.043  0.0178 -0.6689 -0.0837
  351MOL0     C47317   3.961   0.495   2.074 -0.3807 -1.1054  0.3517
  351MOL0     H47318   4.421   0.412   1.815  0.2667  2.2201 -1.0119
  351MOL0     H47319   4.649   0.494   1.835  0.1138  3.5841  0.3140
  351MOL0     H47320   4.896   0.513   1.983 -1.4327 -0.0674  0.3008
  351MOL0     H47321   4.838   0.622   1.860 -1.9506 -0.5256 -0.5050
  351MOL0     H47322   4.948   0.718   2.123  0.2483  1.2550 -0.2227
  351MOL0     H47323   4.936   0.813   1.976  1.5158  1.1274  1.6059
  351MOL0     H47324   5.160   0.754   1.931  4.3806 -2.2943  2.5658
  351MOL0     H47325   5.077   0.607   1.873 -1.3904 -0.4827  1.0160
  351MOL0     H47326   5.218   0.661   2.139 -2.3345 -0.5807  1.6055
  351MOL0     H47327   5.104   0.527   2.129  3.0737 -2.5149 -0.6283
  351MOL0     H47328   5.319   0.543   1.933 -4.6521  2.7005 -1.9582
  351MOL0     H47329   5.350   0.479   2.093 -2.4849  4.1082  2.5653
  351MOL0     H47330   5.201   0.285   2.055 -0.4869 -0.0424 -0.6522
  351MOL0     H47331   5.114   0.364   1.925  0.9302  5.0106 -2.2215
  351MOL0     H47332   5.290   0.325   1.773 -0.6754  1.4569  0.8728
  351MOL0     H47333   5.255   0.174   1.855  2.2241 -1.5127  0.3034
  351MOL0     H47334   5.474   0.389   1.890 -0.9176  0.8867 -0.9407
  351MOL0     H47335   5.447   0.262   2.023 -1.9527 -1.7972 -0.6323
  351MOL0     H47336   5.683   0.319   1.732  0.9283  0.6714  3.2989
  351MOL0     H47337   5.838   0.123   1.552 -1.0786  2.0929 -0.8340
  351MOL0     H47338   5.707   0.004   1.507 -1.2302  0.2761 -1.7170
  351MOL0     H47339   5.577   0.202   1.418 -0.1545 -0.8975 -0.5880
  351MOL0     H47340   5.699   0.313   1.461 -2.7809 -0.1066 -1.1452
  351MOL0     H47341   5.826   0.287   1.284 -2.3495  1.7301 -2.2039
  351MOL0     H47342   5.680   0.234   1.217  1.5409  3.2442 -0.1651
  351MOL0     H47343   5.799   0.079   1.137  1.7335  1.3597 -0.0010
  351MOL0     H47344   5.731  -0.009   1.281  2.4294 -0.9089  1.4930
  351MOL0     H47345   6.149  -0.016   1.415  1.8167 -0.5058 -0.1812
  351MOL0     H47346   6.304  -0.156   1.351 -0.6043  0.1010  0.6835
  351MOL0     H47347   6.652  -0.250   1.215 -1.1170  0.1390  1.0972
  351MOL0     H47348   6.846  -0.348   1.133  0.1634 -0.6961 -0.5137
  351MOL0     H47349   7.070  -0.611   0.990  1.3190  1.3857  0.1496
  351MOL0     H47350   6.995  -0.456   1.003  0.0407 -1.5659 -4.0908
  351MOL0     H47351   6.999  -0.456   1.241 -0.0368  0.0113 -0.7170
  351MOL0     H47352   7.063  -0.630   1.240 -2.7545  0.0264  0.7796
  351MOL0     H47353   7.199  -0.395   1.102  0.0328  1.3999  0.7535
  351MOL0     H47354   7.208  -0.410   1.263 -1.4688 -0.2868 -0.5022
  351MOL0     H47355   7.282  -0.615   1.054 -1.2250 -1.6736  0.2992
  351MOL0     H47356   7.298  -0.649   1.233 -2.7670  1.8810  3.0167
  351MOL0     H47357   7.517  -0.593   1.111  3.2332  2.6560 -1.3184
  351MOL0     H47358   7.476  -0.501   1.259 -1.2710 -1.2157  0.2880
  351MOL0     H47359   7.400  -0.309   1.096 -1.0382 -0.8175  0.3520
  351MOL0     H47360   7.579  -0.363   1.072  0.2575 -0.7122  1.2006
  351MOL0     H47361   7.436  -0.315   0.863 -2.6542 -0.1565 -0.2126
  351MOL0     H47362   7.324  -0.425   0.920 -0.5168  1.8583  2.0194
  351MOL0     H47363   7.448  -0.615   0.888  0.1592  0.9079  0.1324
  351MOL0     H47364   7.471  -0.516   0.737  3.9583  4.6470 -1.2682
  351MOL0     H47365   6.628  -0.718   1.060  2.9113  0.6719 -1.7471
  351MOL0     H47366   6.416  -0.592   1.095 -0.5835 -0.1535  0.1394
  351MOL0     H47367   6.096  -0.215   0.975  2.1414  1.3631 -0.4752
  351MOL0     H47368   5.923  -0.071   1.061  1.5373 -2.5497 -1.6663
  351MOL0     H47369   4.546   0.687   2.199  1.3644  0.5204 -1.5552
  351MOL0     H47370   4.318   0.575   2.186  0.3178  0.9398 -0.5622
  351MOL0     H47371   4.123   0.052   2.019 -0.6425 -1.0780 -0.8008
  351MOL0     H47372   3.900  -0.046   2.045  0.9707 -0.8780 -0.8829
  351MOL0     H47373   3.654   0.238   1.843 -3.7744  1.4066 -0.8276
  351MOL0     H47374   3.532   0.214   1.961  0.2107 -1.2123  0.0199
  351MOL0     H47375   3.445   0.148   1.769 -0.6058 -0.5748 -0.2338
  351MOL0     H47376   3.474  -0.005   1.860 -0.9242  0.4214  0.0767
  351MOL0     H47377   3.540  -0.070   1.633 -1.6495  1.6050 -2.3755
  351MOL0     H47378   3.682  -0.026   1.723  0.1971 -1.7555 -2.4534
  351MOL0     H47379   3.723   0.171   1.591 -0.6598 -0.3838  0.8215
  351MOL0     H47380   3.683   0.043   1.480  1.2337  1.5149 -1.3500
  351MOL0     H47381   3.354   0.264   1.391  1.3905 -1.0356 -2.1314
  351MOL0     H47382   3.744   0.358   2.026 -1.1106 -0.7435  0.1486
  351MOL0     H47383   3.863   0.534   2.102  0.1300 -0.4114  1.2211
  351MOL0     H47384   4.025   0.517   2.160 -0.6302 -2.6800  0.9807
  351MOL0     H47385   3.995   0.552   1.987  2.2030 -0.7454  1.4893
  352MOL0     O47386   9.911   0.763  10.713  0.5599 -0.3730  0.3304
  352MOL0     C47387   9.912   0.785  10.831 -0.2698  0.2593  0.7135
  352MOL0     O47388  10.005   0.864  10.894 -0.2707 -0.3356 -0.0740
  352MOL0     C47389  10.121   0.914  10.840 -0.5614  0.3745 -0.5062
  352MOL0     C47390  10.234   0.927  10.931  0.8086  0.8409  0.4354
  352MOL0     C47391  10.355   0.976  10.894 -0.1189  0.7657  0.3367
  352MOL0     C47392  10.388   1.002  10.765  1.1028 -0.5280 -0.1908
  352MOL0     O47393  10.515   1.030  10.731 -0.3277  0.1006  0.6440
  352MOL0     C47394  10.541   1.169  10.684 -0.0861  1.0357 -0.8413
  352MOL0     C47395  10.461   1.278  10.756  0.0982  0.0139 -0.0641
  352MOL0     C47396  10.506   1.424  10.737  0.8136 -0.4697  0.9447
  352MOL0     C47397  10.477   1.471  10.595 -0.5205  0.2860  0.6325
  352MOL0     C47398  10.558   1.599  10.565  1.2319 -0.2450  0.2951
  352MOL0     C47399  10.569   1.631  10.416  0.1658 -0.3907 -0.7766
  352MOL0     C47400  10.659   1.757  10.393 -0.1452  0.3883 -0.3103
  352MOL0     C47401  10.615   1.888  10.459  0.3459  0.0413 -0.9768
  352MOL0     N47402  10.697   1.993  10.397 -1.4849 -1.0142  0.2561
  352MOL0     C47403  10.767   2.085  10.464  0.9129 -0.0093  0.5330
  352MOL0     C47404  10.815   2.172  10.371 -0.0093  0.2806 -0.2622
  352MOL0     C47405  10.903   2.295  10.403  0.0781 -0.5322  0.0356
  352MOL0     C47406  11.044   2.265  10.461  0.0984  0.9686 -0.5342
  352MOL0     C47407  11.112   2.159  10.396  0.4094 -0.2961  0.5186
  352MOL0     C47408  11.256   2.125  10.451  0.2042  0.2283  0.3411
  352MOL0     O47409  11.338   2.239  10.469  0.1504 -0.5392  0.2331
  352MOL0     C47410  11.465   2.199  10.489  0.0757  0.3426 -0.5910
  352MOL0     C47411  11.524   2.231  10.606 -0.0228 -0.2472  0.4387
  352MOL0     C47412  11.656   2.214  10.628 -0.8549 -0.6596 -0.2255
  352MOL0     C47413  11.740   2.154  10.533 -0.3172 -0.2811 -0.3078
  352MOL0     C47414  11.883   2.152  10.548  0.1226 -0.0263 -0.3682
  352MOL0     O47415  11.959   2.127  10.425  0.4915 -0.3718  0.7677
  352MOL0     C47416  12.091   2.137  10.439 -0.3058  0.0314 -0.5523
  352MOL0     C47417  12.176   2.242  10.397  0.1032 -0.4476  0.4262
  352MOL0     C47418  12.312   2.246  10.426 -1.1288  0.5892  0.4048
  352MOL0     C47419  12.376   2.130  10.479  1.5574  0.4134 -0.9915
  352MOL0     O47420  12.505   2.118  10.514  0.2307  1.0065  0.1478
  352MOL0     C47421  12.606   2.214  10.477  0.4757  0.1759 -0.0317
  352MOL0     C47422  12.743   2.165  10.528 -0.2030 -0.0609 -1.2288
  352MOL0     C47423  12.848   2.276  10.485 -0.2656 -0.2520 -1.2801
  352MOL0     C47424  12.911   2.327  10.614  0.5853 -0.2580 -0.5774
  352MOL0     C47425  13.006   2.440  10.579  0.1157 -0.3297  0.6612
  352MOL0     C47426  13.091   2.456  10.701  0.4924 -0.0192  0.5096
  352MOL0     C47427  13.200   2.561  10.691 -0.7944  0.7789  0.4353
  352MOL0     C47428  13.215   2.652  10.814 -0.1724 -0.5591 -0.3927
  352MOL0    Cl47429  13.363   2.753  10.796  0.2674 -0.3606 -0.5194
  352MOL0     C47430  12.295   2.019  10.515 -0.9334 -0.2778  0.0702
  352MOL0     C47431  12.158   2.030  10.506  0.8855  0.0611  1.6367
  352MOL0     O47432  11.933   2.172  10.657  0.0522  0.1802  0.2637
  352MOL0     C47433  11.675   2.104  10.420  0.1062 -0.6256  0.1766
  352MOL0     C47434  11.536   2.133  10.393  0.7353 -0.1770 -0.2624
  352MOL0     N47435  10.777   2.132  10.248 -1.0072 -0.1849 -0.1920
  352MOL0     N47436  10.703   2.022  10.265 -0.1199 -0.3687  0.9654
  352MOL0     C47437  10.285   0.986  10.666 -0.1878 -0.6920 -0.0119
  352MOL0     C47438  10.145   0.951  10.704 -1.0016  0.6570  0.0771
  352MOL0     C47439   9.822   0.706  10.914  0.4621  0.0919 -0.7120
  352MOL0     C47440   9.755   0.592  10.859  1.4763 -0.2289  0.5316
  352MOL0     C47441   9.679   0.501  10.938 -0.1906 -0.0904 -0.1844
  352MOL0     C47442   9.671   0.510  11.076 -0.0462  0.1355  0.0958
  352MOL0     O47443   9.568   0.442  11.143  0.0027  0.2605  0.1060
  352MOL0     C47444   9.569   0.427  11.280  0.3176 -0.1717 -0.0811
  352MOL0     C47445   9.702   0.363  11.323  0.2790  0.6063  0.1992
  352MOL0     C47446   9.711   0.214  11.273  0.0272 -0.3957 -0.8189
  352MOL0     C47447   9.835   0.163  11.349  0.2286 -0.0606  0.4230
  352MOL0     C47448   9.869   0.026  11.311 -0.5427 -0.0030 -0.0779
  352MOL0     C47449   9.869  -0.096  11.287 -0.6651 -0.5973 -0.9403
  352MOL0     C47450   9.737   0.622  11.133 -0.3329 -0.4429 -0.7464
  352MOL0     C47451   9.818   0.717  11.058  0.0778 -0.5637 -0.2510
  352MOL0     C47452   9.867   0.840  11.133  0.0416 -0.7268  0.2229
  352MOL0     H47453  10.215   0.911  11.037 -2.2441 -0.3039 -0.1942
  352MOL0     H47454  10.434   0.985  10.968  2.5038  1.5565 -2.3382
  352MOL0     H47455  10.649   1.187  10.685  0.1749 -0.3701 -0.6089
  352MOL0     H47456  10.532   1.173  10.575  2.6105  0.9660 -1.1319
  352MOL0     H47457  10.443   1.244  10.859 -2.9185 -1.7696 -1.0325
  352MOL0     H47458  10.359   1.280  10.717  0.1299  3.9753 -0.2908
  352MOL0     H47459  10.613   1.443  10.751  0.7257  1.7570 -0.9142
  352MOL0     H47460  10.458   1.481  10.817 -1.0388  0.0703 -0.4976
  352MOL0     H47461  10.522   1.391  10.535 -1.3557 -1.9957  2.8909
  352MOL0     H47462  10.368   1.474  10.585 -0.3934  0.8706 -0.9857
  352MOL0     H47463  10.508   1.679  10.619 -1.5197  0.5823 -3.1003
  352MOL0     H47464  10.658   1.590  10.608  0.9477 -0.8021  0.8444
  352MOL0     H47465  10.621   1.544  10.374 -0.8686 -1.8327  0.8019
  352MOL0     H47466  10.469   1.643  10.374 -0.0629 -1.1287 -0.4688
  352MOL0     H47467  10.669   1.769  10.285 -0.0731 -2.6392 -0.7072
  352MOL0     H47468  10.759   1.753  10.438 -0.5999  1.8139  0.9174
  352MOL0     H47469  10.509   1.896  10.433 -0.1761  0.4921  1.0902
  352MOL0     H47470  10.623   1.894  10.568 -0.1930 -0.2129 -0.9197
  352MOL0     H47471  10.788   2.081  10.571 -0.1127 -1.6431  0.7150
  352MOL0     H47472  10.916   2.338  10.303 -2.1647 -1.3926 -0.7009
  352MOL0     H47473  10.842   2.365  10.460 -4.0639 -3.2101 -0.6467
  352MOL0     H47474  11.106   2.354  10.446  1.3018  0.5806  1.7841
  352MOL0     H47475  11.051   2.269  10.570  0.0910  4.0237 -0.5766
  352MOL0     H47476  11.125   2.181  10.290 -0.1345 -0.6447  0.3766
  352MOL0     H47477  11.053   2.067  10.408  0.5060 -0.2425  1.4633
  352MOL0     H47478  11.290   2.056  10.373 -1.0977 -0.7545  0.6011
  352MOL0     H47479  11.259   2.077  10.549  2.0674  2.0677  1.2536
  352MOL0     H47480  11.474   2.299  10.674  1.5058  1.5747 -0.1798
  352MOL0     H47481  11.709   2.250  10.715  1.2198  0.0360 -1.6750
  352MOL0     H47482  12.132   2.322  10.338  1.3172  0.1715  0.3169
  352MOL0     H47483  12.360   2.336  10.389 -3.3646  1.7734  0.2453
  352MOL0     H47484  12.620   2.216  10.369 -0.1604 -3.6060 -0.3060
  352MOL0     H47485  12.581   2.311  10.521  1.3009  0.6211 -0.5240
  352MOL0     H47486  12.744   2.159  10.638  0.8124  0.0333 -1.2230
  352MOL0     H47487  12.762   2.068  10.482  1.2799  0.1910 -1.1913
  352MOL0     H47488  12.920   2.242  10.409  1.9580  2.7315 -0.7151
  352MOL0     H47489  12.785   2.355  10.443 -1.8490 -0.6772  0.2149
  352MOL0     H47490  12.959   2.241  10.659  1.6369  1.0229  0.8493
  352MOL0     H47491  12.838   2.367  10.685 -2.3970 -3.6297 -1.4393
  352MOL0     H47492  12.952   2.534  10.561  1.6012  0.7627  1.7005
  352MOL0     H47493  13.063   2.404  10.493 -0.0540  0.5340  0.1769
  352MOL0     H47494  13.021   2.477  10.783  1.7827  0.5346  1.5013
  352MOL0     H47495  13.141   2.360  10.714  0.6063 -0.0242  0.0442
  352MOL0     H47496  13.183   2.625  10.604 -0.9105 -1.6326 -1.3836
  352MOL0     H47497  13.299   2.518  10.680 -0.9848  0.6662 -1.0311
  352MOL0     H47498  13.116   2.698  10.818 -0.7916 -1.4857 -3.0775
  352MOL0     H47499  13.230   2.596  10.907 -0.5043  0.7328  0.4624
  352MOL0     H47500  12.344   1.944  10.575  0.3553  1.0386  0.7352
  352MOL0     H47501  12.092   1.955  10.550 -0.1157  0.0674  0.2269
  352MOL0     H47502  11.735   2.061  10.341  1.6971 -0.1386  1.0631
  352MOL0     H47503  11.483   2.112  10.301 -2.5367 -1.0543  1.6576
  352MOL0     H47504  10.315   0.976  10.563  0.4770  0.7194  0.0175
  352MOL0     H47505  10.080   0.930  10.620 -0.1022  2.5182 -1.1579
  352MOL0     H47506   9.762   0.569  10.753  0.2459  0.9063  0.1663
  352MOL0     H47507   9.632   0.413  10.896  0.1802 -1.0217  1.3110
  352MOL0     H47508   9.492   0.351  11.293 -1.2947  1.4263  0.0923
  352MOL0     H47509   9.553   0.517  11.341 -0.2253  0.1249 -0.6506
  352MOL0     H47510   9.707   0.356  11.432 -1.9996  0.0352  0.3099
  352MOL0     H47511   9.788   0.424  11.292  2.4552 -2.0485  0.5834
  352MOL0     H47512   9.734   0.202  11.167  0.8269  0.6305 -0.7742
  352MOL0     H47513   9.621   0.154  11.291  0.4066 -0.9244 -0.6775
  352MOL0     H47514   9.920   0.230  11.332 -0.1535  0.3419  0.1167
  352MOL0     H47515   9.822   0.154  11.458  0.3392 -4.2589  0.2662
  352MOL0     H47516   9.863  -0.201  11.266 -0.1467 -0.8802  0.2028
  352MOL0     H47517   9.718   0.640  11.238  0.4449  0.6173 -0.7667
  352MOL0     H47518   9.810   0.861  11.224 -1.7663  1.4025 -1.2770
  352MOL0     H47519   9.964   0.831  11.181 -1.7830  0.1971  4.5839
  352MOL0     H47520   9.861   0.937  11.083  1.4777 -0.7115  0.0540
  353MOL0     O47521   6.782   7.018   2.810  0.0556  0.2161 -0.5636
  353MOL0     C47522   6.744   7.130   2.805 -0.7087 -0.3957 -1.2123
  353MOL0     O47523   6.814   7.239   2.852 -0.2656  0.3245 -0.3517
  353MOL0     C47524   6.941   7.232   2.912 -0.9117  0.1651 -0.3684
  353MOL0     C47525   7.005   7.112   2.963  0.1408 -0.5912  0.1082
  353MOL0     C47526   7.115   7.117   3.041 -0.2174  0.5347 -0.2898
  353MOL0     C47527   7.182   7.240   3.045 -0.1631 -0.0696  0.1119
  353MOL0     O47528   7.283   7.231   3.130  1.4669 -0.5864  0.0389
  353MOL0     C47529   7.405   7.305   3.102  0.4786  0.7408  0.6153
  353MOL0     C47530   7.490   7.289   3.227  0.8966  0.1658 -0.6611
  353MOL0     C47531   7.591   7.390   3.239 -0.6153  0.1818 -0.5547
  353MOL0     C47532   7.688   7.376   3.364 -0.1518 -0.4309  0.5559
  353MOL0     C47533   7.785   7.499   3.363  0.0053  0.0612 -0.7748
  353MOL0     C47534   7.906   7.476   3.457  0.2455  0.7579  0.6318
  353MOL0     C47535   7.973   7.606   3.491  0.7352  0.1999  0.2955
  353MOL0     C47536   8.087   7.585   3.586 -0.3791 -0.1792 -0.5971
  353MOL0     N47537   8.206   7.530   3.527 -0.3388  0.1309  0.9106
  353MOL0     C47538   8.266   7.405   3.552  1.2018  0.1687  1.3622
  353MOL0     C47539   8.359   7.391   3.454  0.8782  0.9184 -0.3868
  353MOL0     C47540   8.445   7.275   3.425 -0.3256  0.3246 -0.6904
  353MOL0     C47541   8.595   7.306   3.409 -0.0416  0.1559  0.5030
  353MOL0     C47542   8.660   7.371   3.529  0.3963  0.3266 -0.3821
  353MOL0     C47543   8.811   7.358   3.493  0.4445  0.2509  0.5256
  353MOL0     O47544   8.837   7.456   3.392 -0.6676 -0.3972  0.3258
  353MOL0     C47545   8.918   7.425   3.285  0.5238  0.4514  0.0782
  353MOL0     C47546   9.017   7.514   3.248  0.3412 -0.4715  0.1688
  353MOL0     C47547   9.103   7.482   3.134  1.0390 -0.5684 -0.0155
  353MOL0     C47548   9.077   7.374   3.048  0.8922  0.8252  0.2219
  353MOL0     C47549   9.171   7.350   2.935 -1.0288 -0.5524 -0.4056
  353MOL0     O47550   9.242   7.458   2.881 -0.1375  0.8288 -0.3697
  353MOL0     C47551   9.334   7.404   2.794 -1.6201 -0.4722 -0.1842
  353MOL0     C47552   9.306   7.381   2.658 -0.0523 -0.1372 -0.5005
  353MOL0     C47553   9.399   7.338   2.564 -0.5459  0.4795 -0.2627
  353MOL0     C47554   9.521   7.298   2.617 -0.0953  0.0325 -0.4358
  353MOL0     O47555   9.617   7.246   2.538 -0.1459  0.2861 -0.1145
  353MOL0     C47556   9.614   7.098   2.552 -0.4267 -0.1156  1.3823
  353MOL0     C47557   9.624   7.018   2.423 -1.0649  0.3267 -0.3100
  353MOL0     C47558   9.519   7.064   2.318 -0.2724  0.7676  0.0333
  353MOL0     C47559   9.498   6.947   2.218  0.6319  0.3733 -0.4471
  353MOL0     C47560   9.445   7.000   2.086 -0.2910  0.7859  0.7774
  353MOL0     C47561   9.402   6.887   1.994 -0.6352  1.1031 -0.2991
  353MOL0     C47562   9.262   6.845   2.011  0.3486 -0.3573  0.2590
  353MOL0     C47563   9.230   6.702   1.957  0.0997 -0.1083  0.0503
  353MOL0    Cl47564   9.192   6.704   1.776 -0.2423 -0.1246 -0.2236
  353MOL0     C47565   9.557   7.320   2.747 -0.1387  0.5147 -0.6538
  353MOL0     C47566   9.465   7.369   2.844  0.5558 -0.3063 -0.4030
  353MOL0     O47567   9.180   7.231   2.895  0.3757  0.8344 -0.3757
  353MOL0     C47568   8.962   7.290   3.084 -0.7097  0.8843 -0.0383
  353MOL0     C47569   8.891   7.316   3.201 -0.3983 -1.1900 -0.2627
  353MOL0     N47570   8.362   7.513   3.376 -0.0130 -0.3613  0.1575
  353MOL0     N47571   8.271   7.588   3.420 -0.9255  0.4374 -0.6308
  353MOL0     C47572   7.138   7.356   2.984  0.3882  0.2186  0.3650
  353MOL0     C47573   7.004   7.352   2.924 -1.0573 -0.2853  0.2060
  353MOL0     C47574   6.603   7.161   2.782 -0.3794 -0.0794 -0.5080
  353MOL0     C47575   6.545   7.097   2.667 -0.5619  1.0828  0.0645
  353MOL0     C47576   6.412   7.117   2.633  0.6520  0.0757  0.2974
  353MOL0     C47577   6.329   7.210   2.704 -0.0357  0.9613 -0.0217
  353MOL0     O47578   6.203   7.230   2.666  0.2971  0.4440 -0.2377
  353MOL0     C47579   6.169   7.368   2.638  0.0934  0.3923  0.1022
  353MOL0     C47580   6.038   7.366   2.555  0.2005  0.5060  0.5968
  353MOL0     C47581   6.046   7.296   2.421  0.7346 -0.5791 -0.1667
  353MOL0     C47582   5.918   7.221   2.398  0.6914 -0.3745  0.2852
  353MOL0     C47583   5.905   7.090   2.463  0.0403 -0.3406  0.1295
  353MOL0     C47584   5.901   6.994   2.544  0.3340 -0.2448  0.4582
  353MOL0     C47585   6.383   7.266   2.818 -0.8007 -0.7902 -0.9767
  353MOL0     C47586   6.511   7.248   2.857  0.0723  0.5467 -0.1987
  353MOL0     C47587   6.556   7.325   2.972 -0.1726  0.0837 -0.9506
  353MOL0     H47588   6.958   7.015   2.952 -0.3612 -0.5462  1.5553
  353MOL0     H47589   7.149   7.025   3.089 -0.8101 -1.9692 -4.1934
  353MOL0     H47590   7.461   7.266   3.017 -0.0749  0.9606  0.1359
  353MOL0     H47591   7.388   7.412   3.083  1.2644  0.8549  0.5429
  353MOL0     H47592   7.543   7.194   3.223 -0.6449 -0.6882 -2.3296
  353MOL0     H47593   7.424   7.306   3.312  0.3160  1.6555 -1.3683
  353MOL0     H47594   7.549   7.491   3.232  2.6673  1.6506 -0.5882
  353MOL0     H47595   7.655   7.376   3.152  0.5052 -1.9144  0.5241
  353MOL0     H47596   7.633   7.370   3.459  1.5897 -0.1104  1.6343
  353MOL0     H47597   7.753   7.288   3.370 -1.5073 -1.3821  3.5329
  353MOL0     H47598   7.834   7.507   3.266 -1.5900  2.6438 -1.4899
  353MOL0     H47599   7.730   7.590   3.388 -1.1293 -1.0625  1.1020
  353MOL0     H47600   7.863   7.425   3.544  0.4083  0.7335  0.6991
  353MOL0     H47601   7.976   7.399   3.423 -1.6088  0.3566 -2.6662
  353MOL0     H47602   7.910   7.679   3.543  0.7945  3.2899 -3.5085
  353MOL0     H47603   8.000   7.664   3.402 -2.0094  1.9611  0.4803
  353MOL0     H47604   8.101   7.682   3.636  0.9508 -1.6956  2.2161
  353MOL0     H47605   8.055   7.520   3.668  0.6272  1.3204  1.0577
  353MOL0     H47606   8.238   7.330   3.626 -0.7160 -0.2862  0.2416
  353MOL0     H47607   8.433   7.205   3.508 -1.6358 -0.6792 -1.6690
  353MOL0     H47608   8.417   7.216   3.337  2.1751  0.5044 -1.6866
  353MOL0     H47609   8.637   7.206   3.400 -1.9198 -0.8888  2.6255
  353MOL0     H47610   8.613   7.361   3.316  1.3690 -0.2823  0.4900
  353MOL0     H47611   8.629   7.311   3.615 -0.9680 -0.1299 -1.1568
  353MOL0     H47612   8.623   7.471   3.551 -0.8202  0.7199 -3.6025
  353MOL0     H47613   8.842   7.260   3.457  0.8330 -0.3381  2.3952
  353MOL0     H47614   8.872   7.402   3.573  1.0032  0.2861  0.0847
  353MOL0     H47615   9.043   7.598   3.311  2.0447 -1.6681  1.1480
  353MOL0     H47616   9.183   7.555   3.120  0.8669  0.0844  2.0672
  353MOL0     H47617   9.205   7.404   2.628 -0.5914 -0.7133  0.8324
  353MOL0     H47618   9.377   7.340   2.458  1.2243  1.4453 -0.6321
  353MOL0     H47619   9.699   7.075   2.617 -0.4190  1.1879  1.8646
  353MOL0     H47620   9.527   7.062   2.608 -0.0756 -0.5626  1.6451
  353MOL0     H47621   9.724   7.020   2.378 -0.3765 -0.6186  1.0997
  353MOL0     H47622   9.593   6.917   2.448 -0.3370  0.0221 -0.6117
  353MOL0     H47623   9.422   7.085   2.365 -1.0050  0.6457 -1.3375
  353MOL0     H47624   9.568   7.151   2.275 -1.2362  1.2099 -0.2106
  353MOL0     H47625   9.434   6.871   2.264  0.5010  0.4015 -0.5818
  353MOL0     H47626   9.596   6.903   2.200 -0.0504 -0.5076 -2.3683
  353MOL0     H47627   9.526   7.061   2.044 -0.3181  0.4114  0.1771
  353MOL0     H47628   9.359   7.065   2.104 -0.9768  0.1758 -0.2366
  353MOL0     H47629   9.430   6.910   1.891  0.5027  0.7977 -0.0768
  353MOL0     H47630   9.479   6.809   2.002 -0.4863  1.4540  2.8460
  353MOL0     H47631   9.203   6.918   1.954  1.0685 -0.2193 -0.3271
  353MOL0     H47632   9.232   6.845   2.116 -2.3289  0.0804 -0.4246
  353MOL0     H47633   9.313   6.638   1.987 -2.0385 -2.2541  1.7321
  353MOL0     H47634   9.140   6.658   2.001 -0.6681 -0.9274 -2.1605
  353MOL0     H47635   9.647   7.272   2.783  0.4554  0.5817 -2.0129
  353MOL0     H47636   9.486   7.372   2.951  2.4955  1.7388 -0.7658
  353MOL0     H47637   8.945   7.204   3.021  0.6635 -0.9073  1.9151
  353MOL0     H47638   8.807   7.254   3.229 -2.0406  1.9929  2.5691
  353MOL0     H47639   7.188   7.452   2.993 -2.2209  2.1113 -2.9371
  353MOL0     H47640   6.951   7.441   2.893  0.7323  0.6497 -0.3085
  353MOL0     H47641   6.617   7.038   2.611  1.7054  1.4822  2.3180
  353MOL0     H47642   6.375   7.091   2.534 -2.2918 -2.4262  1.8761
  353MOL0     H47643   6.247   7.408   2.573 -0.3398 -0.5714 -1.0573
  353MOL0     H47644   6.151   7.432   2.724 -2.6858  0.2487 -0.2840
  353MOL0     H47645   6.000   7.468   2.542  0.0794  0.2352 -1.4368
  353MOL0     H47646   5.971   7.311   2.622  1.3934  1.4898  2.7349
  353MOL0     H47647   6.130   7.226   2.416 -0.7876 -2.5329  0.3609
  353MOL0     H47648   6.067   7.357   2.332  0.3065  0.6577  0.5578
  353MOL0     H47649   5.835   7.284   2.431  0.3308 -2.1108  3.0347
  353MOL0     H47650   5.905   7.214   2.290 -0.2423 -1.7563  0.4712
  353MOL0     H47651   5.902   6.907   2.606  0.2586 -0.4506  0.1772
  353MOL0     H47652   6.320   7.333   2.875  0.2311 -0.5404 -0.0978
  353MOL0     H47653   6.593   7.420   2.931 -0.3328  0.4322 -0.3167
  353MOL0     H47654   6.474   7.334   3.044  1.9369 -0.1598  1.6492
  353MOL0     H47655   6.628   7.273   3.036 -0.9701 -0.6612 -0.6407
  354MOL0     O47656   5.384  11.228   0.325  0.4833  0.6668  0.1434
  354MOL0     C47657   5.503  11.227   0.362  0.0262 -1.2038  0.1590
  354MOL0     O47658   5.547  11.176   0.481  0.1313 -0.1675  0.1732
  354MOL0     C47659   5.465  11.100   0.566 -0.7372 -0.6287 -0.2516
  354MOL0     C47660   5.486  11.121   0.700 -0.4668  0.5385 -0.5404
  354MOL0     C47661   5.401  11.057   0.794  0.3759 -0.1712  0.3051
  354MOL0     C47662   5.292  10.971   0.752  0.3354  0.1011 -0.5449
  354MOL0     O47663   5.206  10.919   0.843 -0.1814  0.4283  0.2078
  354MOL0     C47664   5.171  11.013   0.950 -0.6889 -0.3182  0.7227
  354MOL0     C47665   5.042  10.951   1.018 -0.2090 -0.4379  0.7002
  354MOL0     C47666   5.059  10.801   1.021  0.1513  0.0688 -0.5781
  354MOL0     C47667   4.964  10.737   1.123  0.2443 -0.7688  1.0385
  354MOL0     C47668   4.820  10.765   1.111  0.6340 -0.2552  0.5368
  354MOL0     C47669   4.732  10.714   1.229 -0.0518 -0.2824 -0.0513
  354MOL0     C47670   4.733  10.559   1.256  0.4575  0.8309  0.1049
  354MOL0     C47671   4.614  10.494   1.330 -0.8490  0.1280  0.5716
  354MOL0     N47672   4.541  10.401   1.241  0.4491  0.0675  0.0498
  354MOL0     C47673   4.552  10.258   1.216 -0.0804  0.4530  0.8990
  354MOL0     C47674   4.457  10.227   1.129  0.3802  0.5894 -0.2468
  354MOL0     C47675   4.415  10.089   1.087  0.2722  0.6156 -0.8176
  354MOL0     C47676   4.508  10.022   0.979  0.1903  0.5373 -0.7497
  354MOL0     C47677   4.504  10.074   0.832  0.2767 -0.5741  0.0104
  354MOL0     C47678   4.368  10.038   0.757  0.3878 -1.0704 -0.1626
  354MOL0     O47679   4.348  10.123   0.639 -0.4143 -0.3291  0.6332
  354MOL0     C47680   4.227  10.119   0.567 -0.0761  0.2695  0.7377
  354MOL0     C47681   4.197  10.211   0.463 -0.0186  0.4887 -0.3853
  354MOL0     C47682   4.076  10.192   0.388 -0.6876  0.4458  0.3008
  354MOL0     C47683   3.988  10.085   0.413 -0.2664  0.2612  0.3643
  354MOL0     C47684   3.876  10.059   0.315  0.5231  0.6313 -0.3692
  354MOL0     O47685   3.802   9.944   0.338  0.6045 -0.4365  0.4976
  354MOL0     C47686   3.709   9.908   0.251 -0.1206  0.3722  0.1550
  354MOL0     C47687   3.700   9.771   0.244 -0.0103  0.6821  0.8734
  354MOL0     C47688   3.600   9.714   0.163  0.2846 -0.0002  0.2669
  354MOL0     C47689   3.512   9.797   0.101 -0.5437 -0.4284 -0.1939
  354MOL0     O47690   3.407   9.765   0.016 -0.3840 -1.1122  0.3855
  354MOL0     C47691   3.374   9.634  -0.000 -0.1952  0.4101  0.0994
  354MOL0     C47692   3.224   9.629  -0.042  0.2644 -0.2968  0.2630
  354MOL0     C47693   3.219   9.668  -0.188 -0.6801  0.7627 -0.0829
  354MOL0     C47694   3.082   9.735  -0.229  0.2260 -0.3773  0.2932
  354MOL0     C47695   3.062   9.763  -0.377  0.2378 -1.1284  0.3638
  354MOL0     C47696   3.054   9.634  -0.473  0.1046 -0.0758 -0.6429
  354MOL0     C47697   2.926   9.558  -0.465  0.3580  0.4010 -0.3131
  354MOL0     C47698   2.920   9.443  -0.569  0.0205  0.9547  0.0690
  354MOL0    Cl47699   3.072   9.353  -0.575  0.4278  0.4196 -0.2990
  354MOL0     C47700   3.520   9.937   0.121  0.5247  0.5471 -0.3514
  354MOL0     C47701   3.611   9.992   0.195  0.3966  0.2888 -0.3714
  354MOL0     O47702   3.868  10.138   0.221  0.4919 -0.0084  0.5542
  354MOL0     C47703   4.009  10.013   0.529  0.5335 -0.6872 -0.5137
  354MOL0     C47704   4.122  10.031   0.602  0.6235 -0.3773  0.0993
  354MOL0     N47705   4.383  10.339   1.094 -0.9198  0.2034 -0.1912
  354MOL0     N47706   4.438  10.437   1.161 -0.2370 -0.9912  0.0423
  354MOL0     C47707   5.275  10.947   0.613 -0.1726  0.9152 -0.6251
  354MOL0     C47708   5.359  11.012   0.526 -0.6078 -1.1983 -0.0606
  354MOL0     C47709   5.605  11.267   0.255 -0.4925  0.0452 -0.0993
  354MOL0     C47710   5.739  11.250   0.282  0.7328 -0.6420  0.0172
  354MOL0     C47711   5.836  11.282   0.190 -0.5438 -0.6215  0.2087
  354MOL0     C47712   5.798  11.340   0.067 -0.1315  0.8033 -0.7044
  354MOL0     O47713   5.869  11.368  -0.045  0.9891  0.1538 -0.0500
  354MOL0     C47714   6.012  11.330  -0.061  0.2038  0.4001 -0.0489
  354MOL0     C47715   6.065  11.434  -0.158  1.1625  0.4101  0.9051
  354MOL0     C47716   5.999  11.424  -0.293  0.7818  0.8855  1.1489
  354MOL0     C47717   6.053  11.538  -0.384  0.8826 -0.4310  0.4175
  354MOL0     C47718   6.084  11.494  -0.526 -0.0726 -0.5045  0.3019
  354MOL0     C47719   6.114  11.456  -0.638 -0.8112 -0.1311  0.1782
  354MOL0     C47720   5.668  11.371   0.047  0.5872  0.1801  0.1439
  354MOL0     C47721   5.571  11.337   0.136  0.0830  0.1895 -0.6667
  354MOL0     C47722   5.440  11.393   0.107 -0.4395 -0.7865  0.9437
  354MOL0     H47723   5.575  11.172   0.736 -0.1764 -1.0024  1.0861
  354MOL0     H47724   5.417  11.071   0.900  1.2861  1.4885 -0.0173
  354MOL0     H47725   5.248  11.024   1.027 -1.7327  3.1062  1.4202
  354MOL0     H47726   5.147  11.115   0.920 -1.2161 -0.4410  0.7181
  354MOL0     H47727   4.955  10.987   0.961  0.8046 -0.4013 -0.8895
  354MOL0     H47728   5.031  10.980   1.123 -0.5187  3.7354 -0.3064
  354MOL0     H47729   5.163  10.781   1.048 -0.2377 -1.5515 -0.1276
  354MOL0     H47730   5.025  10.761   0.925  0.9986 -0.9682 -0.4683
  354MOL0     H47731   4.977  10.629   1.118 -0.3148 -0.7788 -1.0418
  354MOL0     H47732   4.995  10.775   1.221  0.3049 -0.0893  0.7644
  354MOL0     H47733   4.788  10.870   1.107  0.7727 -0.2045  0.7546
  354MOL0     H47734   4.782  10.723   1.017 -0.1839  0.2347  0.6376
  354MOL0     H47735   4.772  10.755   1.322 -0.8191  0.6777 -0.1255
  354MOL0     H47736   4.630  10.741   1.202  1.6384  3.0411 -4.2380
  354MOL0     H47737   4.824  10.527   1.308  1.7774  1.3891 -1.7511
  354MOL0     H47738   4.746  10.513   1.157  0.9114  0.9279  0.1163
  354MOL0     H47739   4.648  10.421   1.404  0.7028  0.7832  0.5296
  354MOL0     H47740   4.542  10.564   1.374  1.0922  0.5645  3.3312
  354MOL0     H47741   4.623  10.184   1.252  2.3169  0.5558 -3.0569
  354MOL0     H47742   4.415  10.029   1.179  0.9199  2.5744  0.5448
  354MOL0     H47743   4.311  10.088   1.054  0.6452 -0.9784 -2.0434
  354MOL0     H47744   4.610  10.040   1.015 -0.7213  2.4645  1.1074
  354MOL0     H47745   4.492   9.914   0.984 -0.3775  0.6661  0.8049
  354MOL0     H47746   4.589  10.041   0.773  0.2511 -2.1702  0.8172
  354MOL0     H47747   4.515  10.182   0.849  2.0911 -0.4019 -1.9170
  354MOL0     H47748   4.286  10.047   0.829  0.8323  0.8484  0.1584
  354MOL0     H47749   4.379   9.932   0.734 -1.9836 -1.4040 -0.0146
  354MOL0     H47750   4.254  10.298   0.434  0.5936 -0.0833 -0.9376
  354MOL0     H47751   4.067  10.272   0.315  0.6037  1.3885  1.1308
  354MOL0     H47752   3.769   9.701   0.289 -0.6145 -1.6198 -1.5282
  354MOL0     H47753   3.591   9.607   0.148 -0.4633  0.2552 -1.3293
  354MOL0     H47754   3.452   9.583  -0.058  4.2099  3.5259  2.6877
  354MOL0     H47755   3.381   9.575   0.092 -3.7964 -0.6031 -0.1152
  354MOL0     H47756   3.177   9.534  -0.016 -0.8152 -0.2180 -1.2965
  354MOL0     H47757   3.178   9.714   0.010  0.5487  0.8153 -1.2397
  354MOL0     H47758   3.300   9.738  -0.208 -0.1663  0.4477  0.8332
  354MOL0     H47759   3.236   9.576  -0.246 -0.2380  0.1680  0.9563
  354MOL0     H47760   3.063   9.830  -0.179  2.3115 -0.3121  1.0478
  354MOL0     H47761   3.006   9.660  -0.205  1.5314 -1.7534  0.3243
  354MOL0     H47762   3.146   9.828  -0.405  0.3435 -2.0863 -1.7746
  354MOL0     H47763   2.970   9.820  -0.392  0.6481 -0.9715 -1.9446
  354MOL0     H47764   3.067   9.678  -0.572 -0.0102  2.2792  0.3209
  354MOL0     H47765   3.140   9.572  -0.448 -0.2826 -0.4388 -0.1976
  354MOL0     H47766   2.844   9.630  -0.471 -0.4069 -0.4612 -0.4494
  354MOL0     H47767   2.916   9.508  -0.367  3.6850 -3.2461 -1.5610
  354MOL0     H47768   2.840   9.380  -0.529  1.9925  0.0185  2.8951
  354MOL0     H47769   2.893   9.472  -0.671  0.7358  0.3232 -0.3133
  354MOL0     H47770   3.449  10.001   0.068 -0.8300 -0.6170 -0.0241
  354MOL0     H47771   3.614  10.101   0.193  0.2974  0.3485  1.4613
  354MOL0     H47772   3.947   9.927   0.549  2.6841 -2.3758 -0.6947
  354MOL0     H47773   4.139   9.964   0.685  5.2651  0.3190 -0.0193
  354MOL0     H47774   5.194  10.882   0.579  0.5110 -0.9424  1.0777
  354MOL0     H47775   5.340  10.984   0.423  1.7525 -2.5569 -0.2043
  354MOL0     H47776   5.777  11.191   0.365  2.1054 -3.6653 -2.5239
  354MOL0     H47777   5.942  11.274   0.214  0.0149 -1.3308 -2.2570
  354MOL0     H47778   6.025  11.243  -0.125  0.9608 -0.1099  0.7767
  354MOL0     H47779   6.069  11.340   0.032  3.5192  1.4459 -2.0136
  354MOL0     H47780   6.166  11.407  -0.188  0.2689 -0.7667 -1.2259
  354MOL0     H47781   6.063  11.536  -0.118 -0.8474  0.7312  0.1097
  354MOL0     H47782   5.890  11.423  -0.301  0.9094  1.6744 -2.9410
  354MOL0     H47783   6.025  11.328  -0.338  0.5266  1.1395  0.4495
  354MOL0     H47784   5.973  11.611  -0.402  3.7044  2.9927  0.5587
  354MOL0     H47785   6.135  11.588  -0.331  0.8088  0.0989  0.0449
  354MOL0     H47786   6.156  11.427  -0.732  2.7262 -0.0344  1.5621
  354MOL0     H47787   5.644  11.430  -0.040  2.2379 -1.1682 -1.3178
  354MOL0     H47788   5.440  11.453   0.015  0.4725  0.7586  1.9056
  354MOL0     H47789   5.363  11.316   0.093 -1.6785  0.1230  2.4531
  354MOL0     H47790   5.401  11.462   0.183 -0.3509  0.7902 -0.3739
  355MOL0     O47791   4.757   6.387   7.132 -0.2780  0.0624 -0.1125
  355MOL0     C47792   4.764   6.478   7.220 -0.3820  0.1075  0.2436
  355MOL0     O47793   4.881   6.504   7.295 -0.4155 -0.3460  0.0432
  355MOL0     C47794   5.004   6.440   7.266 -0.4340  0.3607 -0.5404
  355MOL0     C47795   5.059   6.451   7.136  0.2585 -0.2876 -0.5204
  355MOL0     C47796   5.188   6.406   7.111 -0.4017  0.4822 -0.3950
  355MOL0     C47797   5.268   6.347   7.208  0.4786  0.1764 -0.0120
  355MOL0     O47798   5.382   6.285   7.174  0.3322 -0.3211 -0.0361
  355MOL0     C47799   5.486   6.384   7.174  0.9329  0.0051  0.1108
  355MOL0     C47800   5.613   6.313   7.210  0.0643  0.4877  0.3133
  355MOL0     C47801   5.602   6.278   7.358  0.1514  1.1388  0.0646
  355MOL0     C47802   5.710   6.188   7.402 -0.1767 -0.5190  0.4315
  355MOL0     C47803   5.849   6.233   7.349 -1.1901  0.9346 -0.4949
  355MOL0     C47804   5.959   6.155   7.408 -1.2950 -0.0119 -0.4420
  355MOL0     C47805   6.091   6.232   7.420 -0.2770  0.0878  0.5484
  355MOL0     C47806   6.171   6.176   7.537 -0.2977  1.2358  0.3028
  355MOL0     N47807   6.295   6.251   7.539 -0.0230 -0.0509  0.1361
  355MOL0     C47808   6.313   6.372   7.597 -0.0071 -0.1171 -0.2308
  355MOL0     C47809   6.449   6.403   7.581  0.2817  0.7531 -0.1998
  355MOL0     C47810   6.504   6.531   7.630  0.3736  0.4422 -0.0609
  355MOL0     C47811   6.635   6.583   7.561  0.3859 -0.9461 -0.5716
  355MOL0     C47812   6.699   6.701   7.632  0.4333  0.2538  0.6068
  355MOL0     C47813   6.828   6.757   7.558  1.1738 -0.0039 -0.6086
  355MOL0     O47814   6.777   6.802   7.436 -1.0852 -0.5729  0.0339
  355MOL0     C47815   6.849   6.895   7.366 -0.4589  0.5050  0.7800
  355MOL0     C47816   6.776   6.982   7.281 -0.4263 -0.0705 -0.3270
  355MOL0     C47817   6.838   7.075   7.191  0.3028  0.4666 -0.2798
  355MOL0     C47818   6.979   7.085   7.194  0.0420  0.3318  0.2766
  355MOL0     C47819   7.052   7.167   7.097 -0.0524  0.8390 -0.1100
  355MOL0     O47820   7.157   7.232   7.152 -0.0934 -0.3005  0.7341
  355MOL0     C47821   7.198   7.346   7.093  0.9224 -1.5697  0.4992
  355MOL0     C47822   7.114   7.460   7.092  0.0951 -0.7561  0.2147
  355MOL0     C47823   7.138   7.577   7.007 -0.3903 -0.1131 -0.1871
  355MOL0     C47824   7.261   7.576   6.935 -0.2284 -0.9744 -0.8449
  355MOL0     O47825   7.275   7.694   6.872 -0.1901 -0.1116 -0.3562
  355MOL0     C47826   7.401   7.722   6.814  0.0663 -0.2489 -0.3325
  355MOL0     C47827   7.496   7.780   6.921  0.8049 -0.2700 -0.3654
  355MOL0     C47828   7.643   7.773   6.874 -0.2568  0.2348  0.3290
  355MOL0     C47829   7.717   7.655   6.936 -0.0203  0.1213  0.1193
  355MOL0     C47830   7.862   7.689   6.919  0.1513  0.5122  0.5868
  355MOL0     C47831   7.952   7.586   6.966 -0.3634 -1.2010 -0.6894
  355MOL0     C47832   8.096   7.639   6.977 -0.0542 -0.2116  0.1486
  355MOL0     C47833   8.204   7.526   6.990  0.2366  0.1486  0.2421
  355MOL0    Cl47834   8.166   7.404   6.876  0.2011  0.7323 -0.0037
  355MOL0     C47835   7.357   7.483   6.963 -0.2366 -0.3987 -0.3091
  355MOL0     C47836   7.325   7.363   7.036 -0.0672 -0.4114  0.8032
  355MOL0     O47837   7.018   7.177   6.980  0.3850 -0.0998  0.4770
  355MOL0     C47838   7.050   7.009   7.289 -0.8337  0.7101  0.4314
  355MOL0     C47839   6.991   6.910   7.372 -0.2142 -0.5246 -0.2570
  355MOL0     N47840   6.502   6.290   7.521 -0.7213 -0.3803  0.8634
  355MOL0     N47841   6.410   6.201   7.484 -0.4368 -0.2158  0.7501
  355MOL0     C47842   5.212   6.344   7.339 -0.7639 -0.1570 -0.0967
  355MOL0     C47843   5.077   6.386   7.367  0.1409  0.1933 -0.5923
  355MOL0     C47844   4.654   6.576   7.224 -0.7327  0.3902  0.0803
  355MOL0     C47845   4.684   6.708   7.266  0.6764 -0.4634 -0.5524
  355MOL0     C47846   4.600   6.817   7.239 -0.8081  0.4407 -0.4554
  355MOL0     C47847   4.472   6.799   7.188 -0.2994  0.2482  0.1409
  355MOL0     O47848   4.396   6.906   7.154 -0.5560  0.6339 -0.6888
  355MOL0     C47849   4.268   6.910   7.220 -0.1347 -0.5369 -0.1925
  355MOL0     C47850   4.173   6.968   7.126 -0.2801  0.1268  0.8177
  355MOL0     C47851   4.040   6.991   7.194 -0.4458 -0.2714  0.2487
  355MOL0     C47852   3.967   7.097   7.113 -0.3918 -0.4666 -0.4161
  355MOL0     C47853   4.015   7.231   7.138 -0.5180  0.3302  0.1291
  355MOL0     C47854   4.067   7.338   7.162  0.2156 -0.1850  0.5004
  355MOL0     C47855   4.435   6.667   7.164  0.1447  0.1685  0.2255
  355MOL0     C47856   4.518   6.552   7.176  0.4161 -0.3435 -0.9327
  355MOL0     C47857   4.458   6.422   7.144 -0.3684 -0.4913 -0.3893
  355MOL0     H47858   5.005   6.501   7.056 -2.9210 -4.5712 -1.3756
  355MOL0     H47859   5.234   6.394   7.014 -0.7864  0.9678 -0.6450
  355MOL0     H47860   5.493   6.439   7.079  3.2288 -0.4016 -0.0276
  355MOL0     H47861   5.463   6.464   7.245 -1.1433  1.4182 -2.0123
  355MOL0     H47862   5.699   6.379   7.204 -0.1243  0.8143  1.0300
  355MOL0     H47863   5.627   6.215   7.164  1.4660 -0.3845  2.4338
  355MOL0     H47864   5.508   6.229   7.384  0.4871 -1.0885 -2.4740
  355MOL0     H47865   5.613   6.372   7.412  0.2670  1.0810  0.1424
  355MOL0     H47866   5.707   6.182   7.511 -0.1535 -0.2644  0.4464
  355MOL0     H47867   5.689   6.085   7.371 -0.6232 -0.3455  0.1367
  355MOL0     H47868   5.865   6.230   7.240 -0.2164  2.7216 -0.4419
  355MOL0     H47869   5.862   6.340   7.364  0.3280  0.9640 -1.6900
  355MOL0     H47870   5.927   6.108   7.502 -5.0377 -0.4689 -1.7944
  355MOL0     H47871   5.981   6.076   7.336  0.8726 -1.6743  1.8477
  355MOL0     H47872   6.064   6.338   7.425 -0.3330  0.1496 -0.6154
  355MOL0     H47873   6.138   6.237   7.321 -0.1990  1.8277  0.6470
  355MOL0     H47874   6.130   6.194   7.637  2.3870 -0.4393  1.8371
  355MOL0     H47875   6.180   6.069   7.517 -0.3398  0.2071  4.6434
  355MOL0     H47876   6.243   6.425   7.661 -1.2218 -2.0002  0.0550
  355MOL0     H47877   6.427   6.608   7.639 -1.6387 -1.5961  1.5577
  355MOL0     H47878   6.529   6.511   7.735  2.1907 -1.7649 -0.8311
  355MOL0     H47879   6.710   6.504   7.567 -0.2655 -1.4468  2.5927
  355MOL0     H47880   6.598   6.613   7.463 -0.4518  1.3400  0.3554
  355MOL0     H47881   6.723   6.674   7.736  0.2514 -0.4228  0.4781
  355MOL0     H47882   6.630   6.785   7.639  0.1231  0.0162  0.3983
  355MOL0     H47883   6.908   6.685   7.540  0.6657 -0.0994 -2.8103
  355MOL0     H47884   6.867   6.836   7.623  2.0063 -3.6259  3.7893
  355MOL0     H47885   6.669   6.976   7.293 -0.6154  0.1376 -1.7771
  355MOL0     H47886   6.781   7.132   7.119  1.2952 -0.5632 -1.9426
  355MOL0     H47887   7.011   7.448   7.125  0.4641  1.7560  2.6607
  355MOL0     H47888   7.074   7.664   7.016 -0.2404 -0.0809  0.6699
  355MOL0     H47889   7.447   7.638   6.760  1.6962  1.0759 -1.1257
  355MOL0     H47890   7.390   7.805   6.743  2.0084  1.8172  1.6087
  355MOL0     H47891   7.463   7.880   6.950  1.5240 -1.0753  3.7761
  355MOL0     H47892   7.481   7.720   7.011 -0.6656 -2.1204 -1.7747
  355MOL0     H47893   7.646   7.771   6.765  0.5652 -1.2288  0.3596
  355MOL0     H47894   7.688   7.870   6.898  0.9221 -0.1202 -0.3649
  355MOL0     H47895   7.688   7.558   6.894 -2.6179 -0.2190  2.3842
  355MOL0     H47896   7.684   7.651   7.041  0.3355 -0.1451  0.2259
  355MOL0     H47897   7.878   7.779   6.979  0.3700  0.4847  0.5679
  355MOL0     H47898   7.882   7.700   6.812  0.5772  4.1417  0.9243
  355MOL0     H47899   7.928   7.537   7.061 -0.2117  1.1707  0.6562
  355MOL0     H47900   7.942   7.511   6.887  1.1970 -0.3031 -1.7902
  355MOL0     H47901   8.112   7.725   7.043 -0.5230  0.4160 -0.5393
  355MOL0     H47902   8.110   7.686   6.879 -2.9439 -1.6612 -1.0900
  355MOL0     H47903   8.303   7.565   6.964  0.0078  1.6946  1.5275
  355MOL0     H47904   8.216   7.481   7.088  0.1140 -3.0493 -1.0987
  355MOL0     H47905   7.456   7.499   6.923  0.6091  1.1755  2.1308
  355MOL0     H47906   7.398   7.282   7.034  2.2202  1.5081 -1.5969
  355MOL0     H47907   7.158   7.000   7.296 -0.9488  0.7083  2.8426
  355MOL0     H47908   7.051   6.842   7.432  4.9690 -0.4534 -4.6488
  355MOL0     H47909   5.275   6.294   7.412  1.6967  0.7278 -1.4848
  355MOL0     H47910   5.032   6.360   7.462 -3.4510 -1.1863 -2.4413
  355MOL0     H47911   4.780   6.737   7.307  1.4261 -1.2512 -1.6899
  355MOL0     H47912   4.624   6.913   7.285  1.2297 -0.6722  0.9700
  355MOL0     H47913   4.280   6.962   7.315 -0.1986 -0.1356 -0.4015
  355MOL0     H47914   4.239   6.812   7.260  0.8668 -1.5556 -1.8253
  355MOL0     H47915   4.159   6.892   7.049 -2.6665  0.8600  0.4554
  355MOL0     H47916   4.219   7.051   7.071  0.3433 -0.0832  1.0179
  355MOL0     H47917   4.057   7.017   7.298  1.6474  0.0294 -0.1072
  355MOL0     H47918   3.984   6.897   7.201 -1.6618  0.5617  2.9110
  355MOL0     H47919   3.974   7.075   7.006 -1.4306 -2.2827 -0.1539
  355MOL0     H47920   3.866   7.083   7.153  0.1402 -1.0992  0.7724
  355MOL0     H47921   4.132   7.417   7.191 -0.0068 -0.3968  1.6300
  355MOL0     H47922   4.339   6.663   7.115 -1.6371  0.7535  3.4163
  355MOL0     H47923   4.477   6.399   7.039  0.9960  0.6995 -0.4286
  355MOL0     H47924   4.514   6.345   7.197  1.9475  2.4368  1.7226
  355MOL0     H47925   4.351   6.423   7.168 -0.8930  1.0714 -2.4703
  356MOL0     O47926   4.352   6.380   3.416 -0.2853 -0.5913 -0.1583
  356MOL0     C47927   4.283   6.382   3.314  0.0113  0.3835 -1.2064
  356MOL0     O47928   4.325   6.423   3.193  0.0252 -0.5982  0.0473
  356MOL0     C47929   4.453   6.463   3.185  0.7645  1.8511  1.2086
  356MOL0     C47930   4.484   6.581   3.118  0.8478  0.5898  0.3368
  356MOL0     C47931   4.606   6.630   3.107 -0.1329  0.4333  0.0635
  356MOL0     C47932   4.709   6.546   3.144 -0.1748  0.5359  0.2275
  356MOL0     O47933   4.842   6.577   3.149 -0.2453 -0.5688 -0.0341
  356MOL0     C47934   4.872   6.704   3.205 -0.7646 -0.9166 -0.1164
  356MOL0     C47935   4.911   6.836   3.115 -0.3655  0.9400 -0.9676
  356MOL0     C47936   5.031   6.914   3.171 -0.0743  0.8411 -0.4185
  356MOL0     C47937   5.067   7.028   3.069  0.3844 -0.1281 -0.6633
  356MOL0     C47938   5.206   7.088   3.083 -0.7766  0.2862 -0.1891
  356MOL0     C47939   5.219   7.218   3.013  0.3920  0.0713 -0.7512
  356MOL0     C47940   5.173   7.332   3.110 -1.3588 -0.9158  0.3784
  356MOL0     C47941   5.198   7.469   3.049 -0.2240 -0.1499 -0.1328
  356MOL0     N47942   5.115   7.490   2.927  0.3302  0.5966  0.0193
  356MOL0     C47943   4.977   7.486   2.932 -0.1698 -0.0910  1.1506
  356MOL0     C47944   4.944   7.497   2.799 -0.1649  0.8009  0.2653
  356MOL0     C47945   4.811   7.533   2.738  0.0473  1.1584 -0.6685
  356MOL0     C47946   4.732   7.405   2.725  0.6769 -0.2382  0.1527
  356MOL0     C47947   4.612   7.413   2.626  0.6949 -0.1238 -0.3175
  356MOL0     C47948   4.508   7.290   2.622  0.5974 -0.5804  0.4744
  356MOL0     O47949   4.396   7.303   2.534 -0.7211  0.5268 -0.5371
  356MOL0     C47950   4.296   7.212   2.531  0.5010  0.1850  0.6553
  356MOL0     C47951   4.218   7.226   2.425  0.2439  0.9787  0.2328
  356MOL0     C47952   4.112   7.140   2.406  0.2849  0.1869 -0.0210
  356MOL0     C47953   4.074   7.035   2.496 -0.7350 -0.2225 -0.6607
  356MOL0     C47954   3.964   6.940   2.476 -0.3953  0.2457 -0.4394
  356MOL0     O47955   3.856   6.964   2.388 -0.1096  0.2287  0.0406
  356MOL0     C47956   3.746   6.878   2.370 -0.7387  0.5988  0.2823
  356MOL0     C47957   3.743   6.741   2.407  1.0981 -0.0785  0.0900
  356MOL0     C47958   3.631   6.665   2.368 -0.2850 -0.4186  0.4413
  356MOL0     C47959   3.523   6.713   2.295  0.9343  0.4865  0.6411
  356MOL0     O47960   3.406   6.644   2.267  0.1837 -0.5829  0.2478
  356MOL0     C47961   3.395   6.502   2.306 -0.0999 -0.0696  0.1245
  356MOL0     C47962   3.470   6.396   2.215 -0.6874  1.0908  0.4408
  356MOL0     C47963   3.413   6.372   2.077 -0.9789  0.1005  0.8604
  356MOL0     C47964   3.279   6.304   2.087  0.2658  0.2151 -0.1484
  356MOL0     C47965   3.214   6.274   1.951  0.6084  0.4519 -0.6394
  356MOL0     C47966   3.185   6.394   1.866 -0.6021  0.0448 -0.2291
  356MOL0     C47967   3.068   6.475   1.933 -0.1520  0.2028 -1.0425
  356MOL0     C47968   3.062   6.613   1.860  0.5340 -1.0992  0.1770
  356MOL0    Cl47969   3.029   6.598   1.692  0.1180 -0.1862 -0.0525
  356MOL0     C47970   3.535   6.847   2.256 -0.1223 -0.6266  0.9705
  356MOL0     C47971   3.640   6.929   2.290 -0.4108  0.2009  0.0762
  356MOL0     O47972   3.973   6.842   2.552  0.4626 -0.6920  0.3129
  356MOL0     C47973   4.156   7.029   2.619 -0.1828  0.7080  1.0054
  356MOL0     C47974   4.271   7.109   2.628  1.1087  0.5299 -0.4819
  356MOL0     N47975   5.056   7.485   2.713  1.0981 -0.6848 -0.4955
  356MOL0     N47976   5.158   7.471   2.794  0.9387 -0.7418 -0.7529
  356MOL0     C47977   4.687   6.421   3.209 -0.3808  0.6577  0.7768
  356MOL0     C47978   4.554   6.372   3.219 -0.1812  0.1829 -0.5490
  356MOL0     C47979   4.140   6.337   3.317  0.1002 -0.2448  0.5921
  356MOL0     C47980   4.049   6.362   3.205 -0.6428 -1.5191 -0.0857
  356MOL0     C47981   3.912   6.347   3.221  0.5725  0.4763  0.0548
  356MOL0     C47982   3.858   6.287   3.338  0.3844  0.5274 -0.8785
  356MOL0     O47983   3.719   6.264   3.342  0.0564 -0.7253  0.1310
  356MOL0     C47984   3.662   6.202   3.455  0.1022 -0.3333  0.2741
  356MOL0     C47985   3.508   6.226   3.449 -0.7371  0.8222  0.7091
  356MOL0     C47986   3.459   6.286   3.575  0.4018  0.4881  0.0003
  356MOL0     C47987   3.315   6.337   3.553  1.2476 -0.3496  0.0101
  356MOL0     C47988   3.264   6.412   3.663  0.4824 -0.4508 -0.3614
  356MOL0     C47989   3.222   6.486   3.748 -0.0592  0.3088 -0.8754
  356MOL0     C47990   3.946   6.240   3.441  1.0219 -0.3535  1.3662
  356MOL0     C47991   4.086   6.268   3.424  0.1823  0.0931 -0.7458
  356MOL0     C47992   4.170   6.213   3.545 -0.4276  0.5732 -0.2588
  356MOL0     H47993   4.399   6.636   3.081  2.1746  1.2000 -1.9802
  356MOL0     H47994   4.629   6.721   3.053  0.7115 -1.1131 -2.3288
  356MOL0     H47995   4.789   6.737   3.269  0.4029 -2.1350  2.1300
  356MOL0     H47996   4.960   6.686   3.268 -1.3094  2.5169  1.9120
  356MOL0     H47997   4.823   6.901   3.117 -0.5994  0.6494 -1.4478
  356MOL0     H47998   4.919   6.808   3.010 -0.7682  1.7606 -1.2213
  356MOL0     H47999   5.115   6.847   3.190 -1.0801  0.2146  2.2369
  356MOL0     H48000   5.019   6.960   3.270  2.2373 -0.7260  0.6944
  356MOL0     H48001   5.057   6.979   2.972  2.4134 -2.4325  0.1952
  356MOL0     H48002   4.991   7.103   3.093 -2.8492 -3.7849  1.7077
  356MOL0     H48003   5.220   7.086   3.191 -2.9500 -3.0633  0.1739
  356MOL0     H48004   5.280   7.016   3.046  1.0720  1.5014  0.9505
  356MOL0     H48005   5.326   7.232   2.996  1.6668 -2.7148  3.4073
  356MOL0     H48006   5.173   7.211   2.914  2.1789 -0.9297 -1.5646
  356MOL0     H48007   5.241   7.321   3.195  1.0678 -0.4565 -1.4197
  356MOL0     H48008   5.066   7.324   3.133 -1.6197 -1.2783 -0.8930
  356MOL0     H48009   5.181   7.548   3.122 -1.3040  1.9883 -2.5580
  356MOL0     H48010   5.306   7.470   3.031  0.0569 -4.7706 -0.0322
  356MOL0     H48011   4.917   7.484   3.023 -0.5574 -2.6783  0.9316
  356MOL0     H48012   4.768   7.602   2.810  1.1143  1.2980 -0.1449
  356MOL0     H48013   4.832   7.586   2.644  0.2580  0.8415 -0.8037
  356MOL0     H48014   4.809   7.335   2.692 -0.4962 -1.5567  0.0731
  356MOL0     H48015   4.682   7.375   2.818  0.8332 -1.3326 -0.0954
  356MOL0     H48016   4.658   7.424   2.527  2.2514 -2.8657 -0.0011
  356MOL0     H48017   4.556   7.499   2.662  0.9606  0.7651 -1.9302
  356MOL0     H48018   4.461   7.270   2.719 -1.3782 -0.8935 -0.5057
  356MOL0     H48019   4.561   7.198   2.597  0.7534 -0.1914 -0.6670
  356MOL0     H48020   4.244   7.304   2.354  0.7592 -2.0807 -3.2328
  356MOL0     H48021   4.046   7.147   2.320  0.8302 -2.8572 -0.8154
  356MOL0     H48022   3.830   6.691   2.448  0.7451 -0.2869  0.6034
  356MOL0     H48023   3.643   6.558   2.377 -0.9067 -0.6142 -0.8746
  356MOL0     H48024   3.431   6.498   2.409  0.1096  0.2027  0.0637
  356MOL0     H48025   3.290   6.479   2.325  0.5198 -4.7806 -1.0864
  356MOL0     H48026   3.575   6.428   2.212  0.1995 -1.5930 -0.6912
  356MOL0     H48027   3.466   6.305   2.275 -1.3231  0.5340 -0.4212
  356MOL0     H48028   3.407   6.463   2.017  0.6764 -2.1297 -3.1402
  356MOL0     H48029   3.489   6.318   2.020 -0.6505  0.6692  0.7515
  356MOL0     H48030   3.209   6.358   2.151  2.7336  2.4745  0.8599
  356MOL0     H48031   3.288   6.203   2.129 -0.0642  1.2549  2.6696
  356MOL0     H48032   3.124   6.214   1.965  2.1308 -2.2104 -1.5324
  356MOL0     H48033   3.290   6.210   1.905  1.1400  0.3012  0.4141
  356MOL0     H48034   3.272   6.458   1.853 -0.5788  1.1196  3.8604
  356MOL0     H48035   3.159   6.356   1.767 -0.4872  2.7851 -1.4153
  356MOL0     H48036   3.071   6.482   2.042 -1.4367 -2.3430 -0.7590
  356MOL0     H48037   2.979   6.413   1.920  0.5675 -1.6317  1.8043
  356MOL0     H48038   2.983   6.670   1.910 -0.1037 -0.0065 -1.9777
  356MOL0     H48039   3.155   6.670   1.872  1.6212 -2.3317 -1.8105
  356MOL0     H48040   3.464   6.904   2.197  1.3411  0.4398  0.1746
  356MOL0     H48041   3.628   7.028   2.247  0.0577 -0.3139 -1.2865
  356MOL0     H48042   4.124   6.965   2.700  0.9127  0.8281  1.5516
  356MOL0     H48043   4.329   7.109   2.720  0.7834 -2.7311 -0.1340
  356MOL0     H48044   4.774   6.376   3.254  0.8823 -0.4483 -2.4917
  356MOL0     H48045   4.531   6.282   3.274 -1.2525 -0.2591 -1.6982
  356MOL0     H48046   4.089   6.411   3.117 -0.6731  0.2862  0.8439
  356MOL0     H48047   3.852   6.386   3.140  1.6337 -1.3630 -1.7013
  356MOL0     H48048   3.695   6.240   3.552 -2.7565  0.3709  1.0425
  356MOL0     H48049   3.692   6.096   3.453 -0.1939 -0.4171  0.2319
  356MOL0     H48050   3.448   6.138   3.424 -0.9456  0.8682  1.0433
  356MOL0     H48051   3.488   6.293   3.365  0.5470  2.6864  1.8124
  356MOL0     H48052   3.527   6.359   3.619  0.2662  1.1227 -0.8168
  356MOL0     H48053   3.456   6.203   3.646  2.9667  0.4919  0.2292
  356MOL0     H48054   3.312   6.395   3.460 -1.4325 -1.3946 -0.6467
  356MOL0     H48055   3.251   6.249   3.540  1.0693 -0.1424 -0.5260
  356MOL0     H48056   3.188   6.547   3.829  0.3528  1.8882 -1.8408
  356MOL0     H48057   3.917   6.191   3.534  1.9028 -0.4896  1.5810
  356MOL0     H48058   4.271   6.177   3.523  0.5921  2.3652  1.2236
  356MOL0     H48059   4.182   6.288   3.623  1.0929  1.2134 -1.0576
  356MOL0     H48060   4.134   6.128   3.604  0.2872 -0.4718 -1.2550
  357MOL0     O48061   7.073   8.484  11.259  0.1437 -1.4787  0.5053
  357MOL0     C48062   7.086   8.384  11.192 -0.8778  0.4728  1.2437
  357MOL0     O48063   7.035   8.265  11.212  0.5296  0.0325 -0.4228
  357MOL0     C48064   6.932   8.264  11.303 -0.5302 -0.3795  0.5626
  357MOL0     C48065   6.957   8.274  11.440 -0.1424  1.2967  0.3720
  357MOL0     C48066   6.850   8.266  11.528  0.2438  0.2485 -0.5597
  357MOL0     C48067   6.711   8.251  11.482  0.2683 -0.8547 -0.3200
  357MOL0     O48068   6.594   8.242  11.570  0.4656 -0.0158 -0.3210
  357MOL0     C48069   6.617   8.222  11.709 -0.4243 -0.5664  1.5389
  357MOL0     C48070   6.490   8.184  11.778 -0.2516  0.2634 -1.2570
  357MOL0     C48071   6.436   8.049  11.717  0.0026 -0.2722 -0.2700
  357MOL0     C48072   6.322   7.991  11.806  0.6167 -0.7458 -0.2332
  357MOL0     C48073   6.283   7.857  11.779  0.7601  1.2511 -0.5122
  357MOL0     C48074   6.145   7.824  11.843  0.1585 -0.6980  0.3763
  357MOL0     C48075   6.026   7.869  11.756 -0.7389  0.0634 -0.6753
  357MOL0     C48076   6.009   7.798  11.616 -0.1763  0.2355  0.7131
  357MOL0     N48077   6.001   7.649  11.604  0.1682 -0.2011 -0.5918
  357MOL0     C48078   5.879   7.573  11.615 -0.3159 -0.0825 -0.2818
  357MOL0     C48079   5.904   7.455  11.562 -0.0436 -0.1254 -0.2557
  357MOL0     C48080   5.820   7.333  11.567  0.8253  0.0276  0.5718
  357MOL0     C48081   5.852   7.246  11.438 -0.5301 -0.2952 -0.0684
  357MOL0     C48082   5.746   7.144  11.416  0.6181 -0.3256 -0.8311
  357MOL0     C48083   5.720   7.056  11.538 -0.7604 -1.5690 -0.0304
  357MOL0     O48084   5.612   6.962  11.520  0.4168  0.1949 -0.6162
  357MOL0     C48085   5.480   7.007  11.534 -0.9690 -0.5691  0.3920
  357MOL0     C48086   5.384   6.905  11.558 -0.6552  0.4416  0.1541
  357MOL0     C48087   5.250   6.926  11.579 -0.2379  0.2271  0.3213
  357MOL0     C48088   5.205   7.064  11.591  0.3124 -0.9309  0.7406
  357MOL0     C48089   5.068   7.089  11.641 -0.3595  0.3970  0.0288
  357MOL0     O48090   5.005   6.988  11.700 -0.5924  0.2405  0.2280
  357MOL0     C48091   4.870   6.982  11.698  0.2947 -0.1754 -0.8821
  357MOL0     C48092   4.795   7.085  11.760  0.1368  0.2740  0.5901
  357MOL0     C48093   4.658   7.075  11.765  0.3281 -0.0410  0.1436
  357MOL0     C48094   4.591   6.973  11.689  0.5105  1.1743 -1.2697
  357MOL0     O48095   4.448   6.979  11.677 -0.5114  0.3045  0.4762
  357MOL0     C48096   4.376   6.878  11.601 -0.1452 -1.2475 -0.1706
  357MOL0     C48097   4.229   6.904  11.625 -0.7765  0.1570  0.5586
  357MOL0     C48098   4.160   7.022  11.566  0.2313  0.3452  0.3720
  357MOL0     C48099   4.017   7.027  11.622 -0.1668  0.4535  0.2511
  357MOL0     C48100   3.913   7.116  11.541 -0.1586 -0.6064 -0.5438
  357MOL0     C48101   3.797   7.143  11.640 -0.7472  1.2361  0.7904
  357MOL0     C48102   3.703   7.241  11.577 -0.5152 -0.5276 -0.5251
  357MOL0     C48103   3.600   7.295  11.683  0.0940  0.3035  0.3076
  357MOL0    Cl48104   3.488   7.414  11.596 -0.0281 -0.2657 -0.1004
  357MOL0     C48105   4.670   6.888  11.615  0.7984  0.0321 -1.1621
  357MOL0     C48106   4.809   6.883  11.625 -0.3331  0.6876  0.1793
  357MOL0     O48107   5.008   7.188  11.610 -0.0115  0.6338  0.2567
  357MOL0     C48108   5.299   7.169  11.573  1.1481  0.2865 -0.3613
  357MOL0     C48109   5.435   7.146  11.537  0.6841 -0.0395 -0.8107
  357MOL0     N48110   6.034   7.462  11.509  0.3641 -0.0648  1.2234
  357MOL0     N48111   6.089   7.571  11.541  0.0065  0.7406 -0.2414
  357MOL0     C48112   6.690   8.272  11.342 -0.1537  0.9169 -0.4632
  357MOL0     C48113   6.796   8.275  11.255 -0.4015 -0.4894 -0.9498
  357MOL0     C48114   7.167   8.385  11.064  0.6400 -0.2996 -0.1640
  357MOL0     C48115   7.207   8.260  11.005 -0.4194  0.4145 -0.7849
  357MOL0     C48116   7.291   8.247  10.901  0.9422 -0.5140  0.1997
  357MOL0     C48117   7.339   8.369  10.845  1.3020  0.3360  0.0119
  357MOL0     O48118   7.414   8.382  10.729  0.0733  0.0937 -0.7875
  357MOL0     C48119   7.509   8.278  10.698  0.2328 -0.4439 -0.1275
  357MOL0     C48120   7.626   8.352  10.620 -0.6681  0.4250 -0.3497
  357MOL0     C48121   7.744   8.268  10.591 -0.0981 -0.1490  0.9943
  357MOL0     C48122   7.866   8.349  10.539 -0.0170 -0.5065  0.1412
  357MOL0     C48123   7.826   8.425  10.417  1.0221 -0.3912  0.5909
  357MOL0     C48124   7.815   8.479  10.308 -0.8429  0.6052  0.6817
  357MOL0     C48125   7.298   8.492  10.889  0.2770  0.1738  0.5743
  357MOL0     C48126   7.218   8.501  11.002  0.5516  1.1420  0.5338
  357MOL0     C48127   7.181   8.639  11.021 -0.3349  1.7083  0.0529
  357MOL0     H48128   7.063   8.274  11.463  0.0524 -1.0339 -0.2974
  357MOL0     H48129   6.861   8.292  11.633 -0.2112  0.6961 -0.6157
  357MOL0     H48130   6.686   8.140  11.731  0.2392 -0.8059 -1.1032
  357MOL0     H48131   6.665   8.312  11.750  0.5517 -0.0011 -0.6389
  357MOL0     H48132   6.418   8.266  11.769  0.0550  0.4630 -2.0139
  357MOL0     H48133   6.517   8.161  11.881 -2.8259 -0.2952 -0.6163
  357MOL0     H48134   6.510   7.971  11.700 -0.5164 -0.9366  0.4833
  357MOL0     H48135   6.387   8.069  11.621 -1.0733 -0.5084  0.2200
  357MOL0     H48136   6.366   8.012  11.904 -0.8285  3.1308 -0.2390
  357MOL0     H48137   6.234   8.055  11.796 -1.3814 -2.7465  3.0193
  357MOL0     H48138   6.287   7.840  11.671  0.7673  1.9424 -0.6214
  357MOL0     H48139   6.355   7.786  11.822 -0.3835  0.5454  0.2862
  357MOL0     H48140   6.144   7.716  11.863  0.9817 -0.2760  3.1040
  357MOL0     H48141   6.142   7.869  11.943 -1.1928  1.7159 -0.6849
  357MOL0     H48142   6.038   7.977  11.743  0.6343  0.1547  0.9783
  357MOL0     H48143   5.936   7.850  11.814  0.2175 -1.4192  0.3967
  357MOL0     H48144   5.922   7.844  11.568  2.4266  2.4589 -2.2984
  357MOL0     H48145   6.087   7.830  11.546  0.4725 -0.8032  0.9312
  357MOL0     H48146   5.793   7.606  11.672  1.4643  0.6288  2.1756
  357MOL0     H48147   5.839   7.276  11.658 -0.0482 -3.4248 -1.2260
  357MOL0     H48148   5.719   7.370  11.548  1.2186  0.6784 -0.3663
  357MOL0     H48149   5.848   7.310  11.349  0.4191  1.0854  0.8337
  357MOL0     H48150   5.950   7.197  11.447 -0.1664  0.1927 -1.2146
  357MOL0     H48151   5.776   7.068  11.343 -0.5598 -0.4252 -1.2406
  357MOL0     H48152   5.652   7.186  11.378 -1.0682 -2.8065  0.3004
  357MOL0     H48153   5.699   7.127  11.619  0.2280 -0.2868 -0.8580
  357MOL0     H48154   5.806   6.995  11.569  0.1338  0.3124  1.3718
  357MOL0     H48155   5.420   6.803  11.554 -2.7080 -0.3021 -1.4470
  357MOL0     H48156   5.192   6.837  11.603 -2.2115  0.8142 -1.9020
  357MOL0     H48157   4.846   7.156  11.824  1.9927  0.4305 -0.9675
  357MOL0     H48158   4.594   7.142  11.820  0.2767 -2.0009  2.6492
  357MOL0     H48159   4.393   6.870  11.493  1.6231  2.7266 -0.3742
  357MOL0     H48160   4.403   6.785  11.653 -1.0845 -2.2184 -1.3443
  357MOL0     H48161   4.183   6.811  11.589  1.6809 -0.7462 -0.4537
  357MOL0     H48162   4.215   6.905  11.733 -0.9682 -0.3481  0.5433
  357MOL0     H48163   4.217   7.115  11.567 -0.8020  1.2901 -4.4092
  357MOL0     H48164   4.150   7.003  11.458  1.7011 -0.1184  0.3012
  357MOL0     H48165   4.022   7.056  11.728  1.2900 -0.0291  0.3312
  357MOL0     H48166   3.979   6.925  11.622 -0.8778  0.7016 -0.7899
  357MOL0     H48167   3.879   7.063  11.452 -3.1090  0.0511  0.0833
  357MOL0     H48168   3.964   7.211  11.519 -2.3213  0.9920  0.9160
  357MOL0     H48169   3.746   7.050  11.665  1.8374 -0.7940 -1.0052
  357MOL0     H48170   3.835   7.187  11.732  0.5631 -0.5165  1.1429
  357MOL0     H48171   3.656   7.192  11.491  0.8674  0.3152 -1.8105
  357MOL0     H48172   3.763   7.325  11.542  2.2930 -2.7378 -1.3898
  357MOL0     H48173   3.538   7.219  11.731 -2.1715  0.8902 -1.5101
  357MOL0     H48174   3.660   7.346  11.759  2.8688 -2.6908  0.3564
  357MOL0     H48175   4.623   6.815  11.550 -2.8280 -0.0021  1.1831
  357MOL0     H48176   4.867   6.807  11.575 -1.1409  0.0509  0.1941
  357MOL0     H48177   5.259   7.265  11.604 -0.9672 -0.4820 -0.5222
  357MOL0     H48178   5.487   7.240  11.519 -3.8540  2.9684  0.2206
  357MOL0     H48179   6.587   8.265  11.310 -0.3227  2.3827 -0.3078
  357MOL0     H48180   6.772   8.280  11.149 -0.9803  0.0847 -0.7986
  357MOL0     H48181   7.167   8.169  11.048 -0.7897  0.2631 -1.4346
  357MOL0     H48182   7.325   8.155  10.854 -0.7160 -0.9554 -0.2022
  357MOL0     H48183   7.470   8.199  10.633 -1.4458 -2.5230  3.1360
  357MOL0     H48184   7.548   8.229  10.788 -1.5345 -1.6727  0.0138
  357MOL0     H48185   7.656   8.437  10.683 -1.6440  0.2807  0.3285
  357MOL0     H48186   7.589   8.391  10.525  0.1367 -0.0651 -0.8729
  357MOL0     H48187   7.732   8.191  10.516 -0.3537  0.9868 -0.1652
  357MOL0     H48188   7.768   8.215  10.684 -1.0914  0.9670  1.9389
  357MOL0     H48189   7.901   8.412  10.622  1.0911 -1.9296  0.7917
  357MOL0     H48190   7.946   8.280  10.511 -3.1906 -4.1729 -0.7997
  357MOL0     H48191   7.810   8.519  10.209  3.3319  1.7791  0.7416
  357MOL0     H48192   7.318   8.580  10.829 -0.8471 -0.8302 -1.3867
  357MOL0     H48193   7.113   8.657  11.105  1.0585  2.1078  1.1293
  357MOL0     H48194   7.274   8.688  11.049  0.9138  0.2584 -1.3387
  357MOL0     H48195   7.141   8.683  10.929  0.4439  1.3655 -0.4617
  358MOL0     O48196   5.744   0.226   2.988 -0.0224  0.8029 -0.4257
  358MOL0     C48197   5.725   0.174   2.878 -0.3324 -0.0483  0.4700
  358MOL0     O48198   5.822   0.156   2.790  1.6420 -0.0120  0.2456
  358MOL0     C48199   5.927   0.246   2.804  1.1036  1.0095 -0.3218
  358MOL0     C48200   5.913   0.363   2.732  0.2868  1.0072 -0.2133
  358MOL0     C48201   6.014   0.459   2.732 -0.5231 -1.0276 -0.7898
  358MOL0     C48202   6.129   0.439   2.801 -0.2850 -0.1249  0.0939
  358MOL0     O48203   6.249   0.516   2.794 -0.2209  0.4689  0.7864
  358MOL0     C48204   6.251   0.653   2.727  0.2792 -0.4120  0.2744
  358MOL0     C48205   6.207   0.746   2.845  0.2104 -0.2827  0.0325
  358MOL0     C48206   6.236   0.893   2.803 -0.6362  0.7712  1.0567
  358MOL0     C48207   6.226   1.002   2.915  0.1583 -0.4820  0.0245
  358MOL0     C48208   6.297   1.127   2.875  1.4078  0.0013 -0.1599
  358MOL0     C48209   6.227   1.194   2.755 -1.1362 -0.5960 -0.0058
  358MOL0     C48210   6.287   1.337   2.721 -0.2014  0.7106  0.8522
  358MOL0     C48211   6.434   1.353   2.738  0.5753  0.6273  0.2860
  358MOL0     N48212   6.496   1.293   2.618 -0.5818  0.2668  0.8655
  358MOL0     C48213   6.537   1.361   2.506  0.0813 -0.1787  1.6275
  358MOL0     C48214   6.614   1.279   2.427 -0.2576 -0.2905 -0.4736
  358MOL0     C48215   6.680   1.312   2.296 -0.9618 -0.4936  0.1482
  358MOL0     C48216   6.583   1.301   2.175 -0.4609  0.1605 -1.0164
  358MOL0     C48217   6.527   1.157   2.146  0.2296  0.2067 -0.5939
  358MOL0     C48218   6.620   1.061   2.080  0.7669  0.0595 -0.5952
  358MOL0     O48219   6.694   1.118   1.966 -0.5530 -0.2604  0.5255
  358MOL0     C48220   6.794   1.034   1.921 -0.7781  0.3934  0.2803
  358MOL0     C48221   6.809   0.900   1.946 -1.0876 -0.3311 -0.1407
  358MOL0     C48222   6.924   0.832   1.886  0.3563 -0.3748 -0.3867
  358MOL0     C48223   7.014   0.904   1.812 -0.5134 -0.2024  0.6959
  358MOL0     C48224   7.137   0.835   1.770  0.7293 -0.8338  1.7251
  358MOL0     O48225   7.138   0.694   1.768  0.4873 -0.3094  0.4990
  358MOL0     C48226   7.232   0.620   1.698  0.2570  0.8833  0.5067
  358MOL0     C48227   7.290   0.654   1.573 -0.1534 -0.0810 -1.0215
  358MOL0     C48228   7.391   0.572   1.512 -0.0293 -0.3603 -0.8116
  358MOL0     C48229   7.417   0.444   1.569 -1.0566  0.5193 -0.4982
  358MOL0     O48230   7.499   0.359   1.496 -0.3502 -0.1445 -0.4200
  358MOL0     C48231   7.562   0.238   1.544  0.2634  0.8825 -0.9640
  358MOL0     C48232   7.658   0.192   1.449 -0.2764  0.4225  0.6393
  358MOL0     C48233   7.764   0.100   1.511 -0.4039 -0.4734  0.2128
  358MOL0     C48234   7.823   0.020   1.394  0.5561  0.2101 -0.4352
  358MOL0     C48235   7.926  -0.073   1.453 -0.4102  0.3535  0.0568
  358MOL0     C48236   7.871  -0.224   1.462  0.4749 -0.8646 -0.7279
  358MOL0     C48237   7.971  -0.322   1.534 -0.1364 -1.1051  0.7170
  358MOL0     C48238   7.982  -0.297   1.684 -0.0193  0.8751  0.4602
  358MOL0    Cl48239   8.127  -0.376   1.740 -0.2297  0.2902 -0.5470
  358MOL0     C48240   7.373   0.409   1.694 -0.6242 -0.5699  0.0837
  358MOL0     C48241   7.269   0.492   1.749  0.1463 -0.5587  0.0000
  358MOL0     O48242   7.223   0.909   1.724 -0.9657  1.2738 -0.6160
  358MOL0     C48243   6.992   1.044   1.782 -1.1531  0.0322  0.3001
  358MOL0     C48244   6.883   1.100   1.836  0.1067  0.0460 -0.6774
  358MOL0     N48245   6.607   1.153   2.494  0.1708 -0.2768 -0.5020
  358MOL0     N48246   6.542   1.164   2.608 -0.7216  0.0771 -0.5761
  358MOL0     C48247   6.143   0.318   2.885 -0.3277 -0.1807  1.0588
  358MOL0     C48248   6.040   0.224   2.878  0.7602 -0.7349 -0.5138
  358MOL0     C48249   5.598   0.116   2.860 -0.1144 -0.4074  0.0059
  358MOL0     C48250   5.551   0.039   2.956 -0.5159 -0.0500 -0.0800
  358MOL0     C48251   5.423  -0.031   2.939 -0.2892 -0.6987  0.6196
  358MOL0     C48252   5.349  -0.020   2.824 -0.0198  0.1057 -0.1858
  358MOL0     O48253   5.229  -0.078   2.830 -0.2721  0.4476 -1.4151
  358MOL0     C48254   5.160  -0.113   2.709  0.3735  0.0785  0.1888
  358MOL0     C48255   5.053  -0.211   2.764 -0.4758  0.6623  0.5829
  358MOL0     C48256   5.111  -0.348   2.808 -0.5339 -0.7385 -0.7905
  358MOL0     C48257   5.018  -0.467   2.800 -0.4671 -0.6075 -0.0752
  358MOL0     C48258   5.016  -0.505   2.655  0.4655 -1.3383 -0.0274
  358MOL0     C48259   5.043  -0.554   2.548  0.5690 -0.6650  0.1826
  358MOL0     C48260   5.398   0.070   2.729  1.0915 -0.2784 -0.1764
  358MOL0     C48261   5.526   0.130   2.747 -0.9254 -0.0113 -0.2172
  358MOL0     C48262   5.579   0.200   2.622 -0.4942  0.6251  0.0144
  358MOL0     H48263   5.822   0.371   2.673 -1.0910 -0.0973  1.6803
  358MOL0     H48264   5.997   0.540   2.661 -5.9324  1.7075  2.9432
  358MOL0     H48265   6.356   0.658   2.695  1.2362 -2.7514  2.6271
  358MOL0     H48266   6.186   0.649   2.639  0.2860 -4.8026  0.2156
  358MOL0     H48267   6.271   0.712   2.926  0.6106 -0.6080 -0.4106
  358MOL0     H48268   6.103   0.729   2.873  0.6283 -0.8457  1.3046
  358MOL0     H48269   6.159   0.925   2.731 -0.4354 -0.5531  0.2211
  358MOL0     H48270   6.332   0.890   2.752 -0.7853  0.5079  0.7886
  358MOL0     H48271   6.121   1.030   2.930  0.0143 -0.0021 -1.6324
  358MOL0     H48272   6.276   0.952   2.998 -2.1052 -0.4687  1.4794
  358MOL0     H48273   6.296   1.200   2.956 -1.7850  0.0542 -0.1254
  358MOL0     H48274   6.399   1.102   2.846  1.2742  0.1686 -0.7826
  358MOL0     H48275   6.235   1.128   2.668  1.0419 -0.1734 -0.1818
  358MOL0     H48276   6.121   1.214   2.774 -0.8513  0.7938  0.1884
  358MOL0     H48277   6.237   1.405   2.790  3.6600  2.9873  1.6782
  358MOL0     H48278   6.265   1.351   2.615  4.3573 -3.5125 -1.0497
  358MOL0     H48279   6.469   1.456   2.752 -1.2943  1.2851  0.3345
  358MOL0     H48280   6.465   1.295   2.825  0.5117  0.2322  0.0458
  358MOL0     H48281   6.539   1.469   2.490 -1.8979 -0.1769  1.2048
  358MOL0     H48282   6.730   1.409   2.302  2.0935 -2.0439  2.8906
  358MOL0     H48283   6.751   1.229   2.288 -1.0167 -0.6736  1.2860
  358MOL0     H48284   6.503   1.370   2.205  2.3573  3.4224 -0.3780
  358MOL0     H48285   6.628   1.349   2.088  2.0977 -2.5447 -1.3450
  358MOL0     H48286   6.439   1.167   2.081  2.2971  1.0183 -3.4819
  358MOL0     H48287   6.502   1.106   2.239  1.1923 -3.2836 -2.0631
  358MOL0     H48288   6.560   0.982   2.034 -1.8312  1.1494  0.7188
  358MOL0     H48289   6.674   1.028   2.170 -3.1889 -1.6870  1.3714
  358MOL0     H48290   6.755   0.845   2.023 -0.5663 -2.2644 -1.0862
  358MOL0     H48291   6.952   0.733   1.918  2.1107 -0.2693 -1.4339
  358MOL0     H48292   7.255   0.742   1.520  0.3240 -0.1808 -1.5112
  358MOL0     H48293   7.444   0.597   1.420  2.1628 -2.4579 -0.2007
  358MOL0     H48294   7.611   0.268   1.637 -2.5990  1.5259  0.4553
  358MOL0     H48295   7.489   0.158   1.562 -2.9426  3.6349 -0.8238
  358MOL0     H48296   7.595   0.141   1.375 -0.0466 -1.3774  1.6115
  358MOL0     H48297   7.692   0.282   1.397 -1.2002 -0.2198 -1.1615
  358MOL0     H48298   7.839   0.164   1.557 -1.1547 -1.3119  2.7250
  358MOL0     H48299   7.734   0.024   1.584 -1.9986 -0.5938 -0.5275
  358MOL0     H48300   7.857   0.081   1.310 -1.5764  3.0194  0.5967
  358MOL0     H48301   7.741  -0.047   1.367 -0.4973  1.4148 -0.3321
  358MOL0     H48302   7.951  -0.040   1.554  0.3844  0.0670 -0.0388
  358MOL0     H48303   8.012  -0.078   1.385 -0.7877  1.1454 -0.4952
  358MOL0     H48304   7.771  -0.232   1.506  0.7461 -0.2310  0.0286
  358MOL0     H48305   7.856  -0.262   1.361 -0.1229 -1.1368 -0.5406
  358MOL0     H48306   8.074  -0.299   1.504 -1.3155  2.4769 -1.3212
  358MOL0     H48307   7.955  -0.428   1.511  0.3083 -1.0263  0.0164
  358MOL0     H48308   7.981  -0.188   1.685 -1.6212  0.9292 -1.2811
  358MOL0     H48309   7.895  -0.347   1.728 -0.6044  0.3615 -1.2218
  358MOL0     H48310   7.401   0.312   1.734  1.1297 -0.0343  0.2366
  358MOL0     H48311   7.233   0.455   1.844 -0.7451 -3.0184 -1.1837
  358MOL0     H48312   7.058   1.087   1.707 -0.9575 -0.6381  0.0801
  358MOL0     H48313   6.870   1.206   1.816 -2.6274  0.0478  0.6822
  358MOL0     H48314   6.237   0.319   2.940 -0.1207  0.4910  0.6950
  358MOL0     H48315   6.044   0.129   2.929  1.5153  0.8110  2.6176
  358MOL0     H48316   5.602   0.024   3.051 -4.0623 -5.0649  1.4489
  358MOL0     H48317   5.394  -0.108   3.010  0.4566 -0.4259  1.2269
  358MOL0     H48318   5.231  -0.161   2.640  0.9261  1.3873 -0.1698
  358MOL0     H48319   5.115  -0.026   2.660  2.7252  0.5028 -1.4173
  358MOL0     H48320   4.976  -0.220   2.686 -0.1256  2.0450  0.0525
  358MOL0     H48321   5.015  -0.159   2.852  4.1528  1.9187  2.1316
  358MOL0     H48322   5.153  -0.339   2.909  3.1706 -0.7636 -2.1755
  358MOL0     H48323   5.199  -0.375   2.749 -0.6113 -1.3063 -0.6480
  358MOL0     H48324   5.056  -0.548   2.863  1.7385  1.2833  1.1382
  358MOL0     H48325   4.915  -0.443   2.828 -1.0601 -1.5765 -1.3052
  358MOL0     H48326   5.078  -0.582   2.450  0.1817 -0.8736  0.1030
  358MOL0     H48327   5.346   0.092   2.637  1.8619  1.0780 -0.3141
  358MOL0     H48328   5.508   0.187   2.540 -1.7884  1.5664  0.9511
  358MOL0     H48329   5.581   0.306   2.648 -0.9254  0.2212  1.8358
  358MOL0     H48330   5.679   0.172   2.588  0.3902  2.4009  1.0153
  359MOL0     O48331   9.255   9.170   7.408  0.3440 -0.0784  0.3033
  359MOL0     C48332   9.276   9.271   7.475 -1.6981  0.0538 -0.0766
  359MOL0     O48333   9.398   9.290   7.545  0.3431 -0.2909 -0.0249
  359MOL0     C48334   9.509   9.212   7.541 -0.5395 -0.2167 -0.8138
  359MOL0     C48335   9.623   9.266   7.590  0.1223 -0.1455  0.3497
  359MOL0     C48336   9.753   9.197   7.596 -0.7353 -0.3998 -0.2987
  359MOL0     C48337   9.748   9.068   7.544 -0.6376  0.1111 -1.4390
  359MOL0     O48338   9.861   8.997   7.535 -0.9109  0.7751 -0.8264
  359MOL0     C48339   9.929   8.970   7.664 -0.6308  0.3639 -0.2908
  359MOL0     C48340  10.073   8.902   7.645 -0.3714  0.2589 -0.0090
  359MOL0     C48341  10.130   8.875   7.782 -0.0300 -0.7073  0.1919
  359MOL0     C48342  10.274   8.812   7.792 -0.0325  0.2399  0.4397
  359MOL0     C48343  10.335   8.841   7.930  0.4066  0.0738 -0.5835
  359MOL0     C48344  10.480   8.797   7.946 -0.6768  0.6844  0.1366
  359MOL0     C48345  10.540   8.829   8.081 -0.4655 -0.2236  0.9020
  359MOL0     C48346  10.669   8.769   8.123 -0.3557  0.0514  0.0740
  359MOL0     N48347  10.780   8.794   8.034  0.4471  1.0239 -0.1701
  359MOL0     C48348  10.849   8.909   8.038  0.5690  0.1217  0.8915
  359MOL0     C48349  10.927   8.901   7.926 -0.1942 -0.6177  0.0307
  359MOL0     C48350  11.005   9.017   7.879  0.0238  0.1984 -0.8046
  359MOL0     C48351  11.155   8.973   7.882 -0.2270  0.4835  0.1525
  359MOL0     C48352  11.239   9.097   7.872 -0.0017 -0.4856 -0.8613
  359MOL0     C48353  11.394   9.063   7.846 -1.0710 -0.6726 -0.3553
  359MOL0     O48354  11.468   9.155   7.772 -0.1220 -0.5430  0.3327
  359MOL0     C48355  11.490   9.279   7.817 -0.2043  0.3238  0.1090
  359MOL0     C48356  11.457   9.333   7.950 -0.6259 -0.0712  0.2666
  359MOL0     C48357  11.489   9.463   7.978 -0.4473 -0.2047  0.2988
  359MOL0     C48358  11.544   9.549   7.880 -0.0824  0.8016 -0.3449
  359MOL0     C48359  11.584   9.689   7.914 -0.0030  0.1404  0.5469
  359MOL0     O48360  11.522   9.738   8.026  1.0159  0.3032 -0.3942
  359MOL0     C48361  11.543   9.867   8.061 -0.2792 -0.3243 -0.2588
  359MOL0     C48362  11.632   9.915   8.160 -0.5545 -0.6025  0.5794
  359MOL0     C48363  11.645  10.053   8.195 -0.8725  0.0290  0.8254
  359MOL0     C48364  11.576  10.147   8.109  0.0891 -0.3346 -0.3288
  359MOL0     O48365  11.585  10.280   8.131 -0.4949 -0.2164 -0.5532
  359MOL0     C48366  11.701  10.338   8.190 -0.3434  0.4506 -0.5561
  359MOL0     C48367  11.698  10.344   8.345 -0.4035 -0.0142 -0.4394
  359MOL0     C48368  11.833  10.351   8.409 -0.2335 -1.0304 -0.6039
  359MOL0     C48369  11.910  10.478   8.364 -0.4302 -0.6744  0.3810
  359MOL0     C48370  12.014  10.525   8.463  0.1202  0.1633  0.4797
  359MOL0     C48371  12.153  10.482   8.431  0.2779 -0.7441 -0.9728
  359MOL0     C48372  12.249  10.537   8.532 -0.4451  1.1739  0.9569
  359MOL0     C48373  12.375  10.452   8.529  0.5586  0.0137 -0.5122
  359MOL0    Cl48374  12.461  10.460   8.378  0.1168  0.4299  0.0978
  359MOL0     C48375  11.496  10.093   8.013 -1.0272 -0.0743 -0.2151
  359MOL0     C48376  11.464   9.960   7.999  0.1407  0.2043  0.3521
  359MOL0     O48377  11.652   9.750   7.829 -0.1180 -0.7143 -0.9354
  359MOL0     C48378  11.572   9.500   7.745  0.1723  0.8219 -0.4454
  359MOL0     C48379  11.536   9.367   7.721  0.1085 -0.7861 -0.0634
  359MOL0     N48380  10.930   8.776   7.869 -0.1265 -0.2446 -0.0085
  359MOL0     N48381  10.838   8.708   7.937 -0.9576  0.0774  0.7345
  359MOL0     C48382   9.634   9.013   7.486 -1.4653  0.5275 -0.7032
  359MOL0     C48383   9.512   9.086   7.492 -1.2483  0.0904  0.3823
  359MOL0     C48384   9.170   9.370   7.488  0.3531 -1.2489  0.4064
  359MOL0     C48385   9.056   9.353   7.410  0.0718 -0.1707  0.1449
  359MOL0     C48386   8.945   9.435   7.419  0.5335 -0.1317  0.0204
  359MOL0     C48387   8.928   9.530   7.511 -0.2224  0.7756  0.0139
  359MOL0     O48388   8.817   9.610   7.533  0.1792  0.1255 -0.7724
  359MOL0     C48389   8.701   9.590   7.450  0.0524 -0.1365 -0.3849
  359MOL0     C48390   8.594   9.691   7.504 -0.1884 -0.5545 -0.3497
  359MOL0     C48391   8.463   9.675   7.423 -0.0126 -0.4781 -0.0986
  359MOL0     C48392   8.343   9.660   7.519 -0.2128  0.7636 -0.0689
  359MOL0     C48393   8.214   9.678   7.447  1.2022  0.0715 -0.0088
  359MOL0     C48394   8.103   9.712   7.403  0.3247 -0.1012  0.1214
  359MOL0     C48395   9.046   9.553   7.581  0.1079 -0.2527 -0.4585
  359MOL0     C48396   9.167   9.483   7.570 -0.1867 -0.2122 -0.6049
  359MOL0     C48397   9.271   9.528   7.672 -1.2672  0.3000 -0.0066
  359MOL0     H48398   9.612   9.364   7.636  0.4736  0.0849 -0.0549
  359MOL0     H48399   9.838   9.248   7.639 -2.1538 -0.4162  2.7760
  359MOL0     H48400   9.925   9.054   7.735 -1.9778  0.3690 -0.3541
  359MOL0     H48401   9.859   8.895   7.701 -1.4771  0.9145 -0.7349
  359MOL0     H48402  10.128   8.985   7.600 -3.0699  2.4415  0.4508
  359MOL0     H48403  10.045   8.816   7.584 -2.0281  0.3555  0.5773
  359MOL0     H48404  10.057   8.813   7.835  0.3805 -0.3308  1.2163
  359MOL0     H48405  10.144   8.973   7.829  2.8338 -0.2710 -1.3592
  359MOL0     H48406  10.268   8.703   7.784 -1.2224  0.3090  0.2072
  359MOL0     H48407  10.338   8.837   7.707 -2.2975 -0.6075 -1.6332
  359MOL0     H48408  10.335   8.950   7.938  0.7399 -0.0843  3.1470
  359MOL0     H48409  10.279   8.793   8.010  3.2699 -3.0487 -0.2407
  359MOL0     H48410  10.474   8.689   7.931  2.0420  0.4029  0.5285
  359MOL0     H48411  10.541   8.849   7.872 -1.3335  1.3713  0.0530
  359MOL0     H48412  10.465   8.797   8.153 -2.1847  0.0636 -0.6832
  359MOL0     H48413  10.550   8.938   8.091  0.5481 -0.1184 -0.8934
  359MOL0     H48414  10.711   8.812   8.215 -1.5967 -0.6199  0.9870
  359MOL0     H48415  10.645   8.663   8.135  0.3538 -0.1827 -0.4710
  359MOL0     H48416  10.826   8.989   8.108 -1.0051 -0.7077  1.3851
  359MOL0     H48417  10.962   9.040   7.782 -0.9601 -0.5761 -0.5702
  359MOL0     H48418  10.983   9.106   7.939 -2.5931 -0.5384 -0.5591
  359MOL0     H48419  11.168   8.921   7.977  3.8577  1.6965  0.4415
  359MOL0     H48420  11.169   8.913   7.791 -0.8279  4.0384 -2.4951
  359MOL0     H48421  11.223   9.158   7.961  1.6096 -1.5472  0.2197
  359MOL0     H48422  11.205   9.155   7.785  3.0335  2.6257 -0.1936
  359MOL0     H48423  11.395   8.968   7.792  1.2744 -1.4006  0.8385
  359MOL0     H48424  11.450   9.046   7.939 -0.0486  1.3037 -0.5393
  359MOL0     H48425  11.422   9.270   8.032 -2.4804  0.3672 -0.1411
  359MOL0     H48426  11.470   9.490   8.082  1.2096  1.4768  0.2340
  359MOL0     H48427  11.692   9.842   8.214 -0.9134 -1.3504 -0.0171
  359MOL0     H48428  11.712  10.078   8.277 -1.6965  1.7518  1.0292
  359MOL0     H48429  11.785  10.283   8.147 -0.4860  0.2301 -0.5540
  359MOL0     H48430  11.700  10.441   8.154  0.7926  0.8942  0.6046
  359MOL0     H48431  11.634  10.428   8.375  1.0097  1.6070 -1.7660
  359MOL0     H48432  11.657  10.248   8.378  1.3565 -0.4384  0.6345
  359MOL0     H48433  11.830  10.351   8.518 -0.4932 -1.1148 -0.6124
  359MOL0     H48434  11.892  10.265   8.374 -0.3647 -1.5733  0.4696
  359MOL0     H48435  11.844  10.565   8.370  0.9572  0.3213  3.3638
  359MOL0     H48436  11.954  10.474   8.264 -2.6090 -1.1831 -0.6011
  359MOL0     H48437  11.989  10.499   8.567 -0.9512  2.2409  0.8043
  359MOL0     H48438  12.018  10.634   8.458  0.9353  0.0734 -1.4863
  359MOL0     H48439  12.156  10.372   8.432 -0.4333 -0.7804  0.6520
  359MOL0     H48440  12.183  10.512   8.330 -0.5850  1.3148 -0.6606
  359MOL0     H48441  12.212  10.529   8.634  0.6927 -1.5876  1.2343
  359MOL0     H48442  12.275  10.640   8.504  0.1067  0.6520 -0.5642
  359MOL0     H48443  12.434  10.501   8.607 -0.9437 -1.5597  1.7534
  359MOL0     H48444  12.368  10.349   8.567 -1.2252  1.1201  2.5443
  359MOL0     H48445  11.440  10.167   7.956 -0.0936  2.8039  2.3081
  359MOL0     H48446  11.395   9.923   7.924 -2.2008 -2.6928  3.5869
  359MOL0     H48447  11.618   9.553   7.662  1.4767  0.3462 -0.0423
  359MOL0     H48448  11.544   9.332   7.619  0.6105  0.1740 -0.3694
  359MOL0     H48449   9.636   8.909   7.454  1.0981 -0.0206  0.9188
  359MOL0     H48450   9.425   9.028   7.461  1.7475 -4.2402 -0.7019
  359MOL0     H48451   9.044   9.254   7.366  1.8354 -0.7500  0.8927
  359MOL0     H48452   8.862   9.400   7.358 -0.6345  1.8629  0.3831
  359MOL0     H48453   8.666   9.488   7.469 -2.9653  1.2267  2.4705
  359MOL0     H48454   8.729   9.611   7.346  1.0428 -1.8600 -0.4994
  359MOL0     H48455   8.645   9.781   7.469  0.5231 -0.9682 -0.4170
  359MOL0     H48456   8.581   9.701   7.612 -2.0809  2.0143 -0.7415
  359MOL0     H48457   8.462   9.597   7.347 -2.1495 -1.0108  0.4172
  359MOL0     H48458   8.449   9.764   7.361  1.0856 -0.2236 -0.0186
  359MOL0     H48459   8.347   9.557   7.555 -1.4805  0.7134 -0.0266
  359MOL0     H48460   8.340   9.729   7.603 -0.0714 -1.1979  1.6338
  359MOL0     H48461   8.015   9.760   7.366  0.4620 -0.1637 -0.2951
  359MOL0     H48462   9.038   9.643   7.641 -0.4754 -0.0177 -0.8778
  359MOL0     H48463   9.279   9.459   7.757 -1.5600 -1.5612 -1.4115
  359MOL0     H48464   9.365   9.531   7.617 -1.9641 -0.0288 -1.2502
  359MOL0     H48465   9.260   9.631   7.706 -2.3394 -0.2336  1.4000
  360MOL0     O48466   2.570   4.156   0.635  0.2544 -0.2138  0.7715
  360MOL0     C48467   2.511   4.095   0.717 -0.0969  0.5451 -0.6819
  360MOL0     O48468   2.567   4.010   0.812 -0.2571 -0.6518 -0.0344
  360MOL0     C48469   2.706   3.998   0.812 -0.0824 -0.2589  0.3245
  360MOL0     C48470   2.759   3.899   0.739 -0.2683  0.3430 -0.5303
  360MOL0     C48471   2.892   3.890   0.710 -0.1421  0.0740  0.1257
  360MOL0     C48472   2.977   3.989   0.757  0.3250  0.0290 -0.4038
  360MOL0     O48473   3.112   3.973   0.725 -0.0286 -0.7705 -0.0461
  360MOL0     C48474   3.180   4.093   0.685 -0.0248  0.7403 -0.1459
  360MOL0     C48475   3.335   4.060   0.678 -0.4540  0.6860  0.4098
  360MOL0     C48476   3.397   4.033   0.816  0.2548 -0.1182 -0.2967
  360MOL0     C48477   3.542   4.072   0.816 -0.5015 -1.0170  0.8876
  360MOL0     C48478   3.626   4.035   0.939 -0.4962  0.9510 -0.3628
  360MOL0     C48479   3.673   3.889   0.909 -0.1131 -0.5419 -0.4786
  360MOL0     C48480   3.717   3.819   1.043  0.2376  0.3126  0.3338
  360MOL0     C48481   3.848   3.892   1.092  0.6620  0.5124  1.0491
  360MOL0     N48482   3.856   3.890   1.239 -0.3689  0.7421 -0.7490
  360MOL0     C48483   3.876   3.775   1.314  0.6011  0.8065 -0.2621
  360MOL0     C48484   3.817   3.801   1.429 -0.7651 -0.4831  0.3860
  360MOL0     C48485   3.829   3.714   1.547 -1.0954  0.0926 -0.0148
  360MOL0     C48486   3.918   3.783   1.662 -0.4917  0.9613  0.3345
  360MOL0     C48487   4.052   3.709   1.678  0.2016  0.1592  0.3573
  360MOL0     C48488   4.181   3.751   1.605  0.0367  0.6564 -0.2007
  360MOL0     O48489   4.166   3.722   1.459 -0.7483  0.5362 -0.7562
  360MOL0     C48490   4.276   3.748   1.375 -0.3534  0.3019  0.0648
  360MOL0     C48491   4.269   3.708   1.245 -0.6834  0.1660 -0.1333
  360MOL0     C48492   4.378   3.716   1.159  0.5283 -0.3739 -1.0078
  360MOL0     C48493   4.502   3.771   1.199 -0.5165  0.3458  0.0290
  360MOL0     C48494   4.622   3.772   1.106  0.0477  0.7236  0.6264
  360MOL0     O48495   4.700   3.878   1.119  0.2560 -0.1626  0.2430
  360MOL0     C48496   4.813   3.899   1.047 -0.2840  0.2721 -0.2341
  360MOL0     C48497   4.936   3.929   1.107 -0.5613  0.6056  0.5963
  360MOL0     C48498   5.050   3.945   1.038 -1.4652 -0.4317  0.7169
  360MOL0     C48499   5.059   3.927   0.898 -0.0449 -1.1529 -0.5771
  360MOL0     O48500   5.177   3.936   0.832 -0.2445 -0.7765 -0.4369
  360MOL0     C48501   5.224   3.798   0.815  0.0393  1.3050  0.1922
  360MOL0     C48502   5.378   3.806   0.781  0.0787  0.4637  0.0180
  360MOL0     C48503   5.414   3.915   0.685  0.3329  0.2071 -0.2112
  360MOL0     C48504   5.537   3.875   0.598  0.6260  0.2228  0.1505
  360MOL0     C48505   5.565   3.989   0.488  0.1200  0.5062 -0.0636
  360MOL0     C48506   5.613   4.117   0.549 -0.1154  0.2202 -0.1708
  360MOL0     C48507   5.695   4.191   0.454  0.0069  0.7768 -1.0545
  360MOL0     C48508   5.763   4.312   0.526  0.9341 -0.0132 -0.4373
  360MOL0    Cl48509   5.854   4.274   0.675 -0.1158  0.5345  0.2197
  360MOL0     C48510   4.934   3.918   0.838 -0.3601  0.2855 -0.2899
  360MOL0     C48511   4.809   3.905   0.911  0.6330  0.0119  0.4035
  360MOL0     O48512   4.640   3.676   1.026  0.5192 -0.2229  0.7505
  360MOL0     C48513   4.515   3.800   1.335 -0.4551 -0.3205 -0.1917
  360MOL0     C48514   4.398   3.796   1.422 -0.0613  0.3994 -0.3037
  360MOL0     N48515   3.763   3.925   1.425  1.0054  0.2617 -0.1173
  360MOL0     N48516   3.800   3.985   1.319  0.3108  0.1163  0.1619
  360MOL0     C48517   2.927   4.079   0.857  0.5437 -0.2088  0.2626
  360MOL0     C48518   2.786   4.088   0.878 -0.7760 -0.3752 -0.4405
  360MOL0     C48519   2.361   4.097   0.720  0.2875 -0.3592 -0.6877
  360MOL0     C48520   2.289   3.989   0.772  0.9750  0.0047 -0.0045
  360MOL0     C48521   2.151   3.999   0.783 -0.9785 -0.0303  0.5721
  360MOL0     C48522   2.088   4.105   0.729  0.1664  0.0790 -0.7859
  360MOL0     O48523   1.950   4.116   0.727  0.1436  0.4817 -0.3127
  360MOL0     C48524   1.883   4.141   0.605  0.4323  0.8969  0.8660
  360MOL0     C48525   1.878   4.004   0.533  0.6864 -0.3092 -0.0413
  360MOL0     C48526   1.748   3.920   0.570 -0.1444 -0.5289 -1.0742
  360MOL0     C48527   1.709   3.827   0.461 -0.1302 -0.1269  0.5396
  360MOL0     C48528   1.800   3.725   0.429 -0.2961 -0.5756 -0.1636
  360MOL0     C48529   1.878   3.631   0.400 -0.0424  0.8398  0.1528
  360MOL0     C48530   2.156   4.212   0.676  0.9693  0.3028 -0.4947
  360MOL0     C48531   2.295   4.208   0.676  0.4219 -0.2083 -0.3942
  360MOL0     C48532   2.359   4.340   0.632 -0.4301  0.0671 -0.3497
  360MOL0     H48533   2.692   3.826   0.694 -0.3740  0.7666 -1.0646
  360MOL0     H48534   2.924   3.809   0.644  3.8852 -0.3247  2.2456
  360MOL0     H48535   3.138   4.127   0.590 -1.0744 -1.0916 -0.3615
  360MOL0     H48536   3.166   4.168   0.763 -0.4640  0.5537 -0.0453
  360MOL0     H48537   3.380   4.140   0.618  3.8104 -0.5994  1.5534
  360MOL0     H48538   3.335   3.968   0.620 -3.4886  0.7935  0.1100
  360MOL0     H48539   3.384   3.928   0.844 -1.6482 -0.0468 -0.7472
  360MOL0     H48540   3.347   4.091   0.894  0.2706  0.6796 -0.8623
  360MOL0     H48541   3.587   4.029   0.726 -1.8160  0.5339 -0.5614
  360MOL0     H48542   3.529   4.180   0.816 -0.5126 -1.0149  0.2911
  360MOL0     H48543   3.701   4.111   0.962 -2.1400  3.6091 -3.0649
  360MOL0     H48544   3.562   4.023   1.026  0.6617  0.7966  0.4865
  360MOL0     H48545   3.587   3.835   0.868  0.8718  0.6804 -4.5295
  360MOL0     H48546   3.756   3.885   0.839  1.8477  0.8608  1.6196
  360MOL0     H48547   3.737   3.712   1.030 -0.8948 -0.2025  2.3148
  360MOL0     H48548   3.641   3.818   1.122 -0.9758 -0.0018 -0.7889
  360MOL0     H48549   3.942   3.843   1.064 -0.3748 -0.2983 -1.3189
  360MOL0     H48550   3.849   3.999   1.070  2.3346  0.4712  0.7560
  360MOL0     H48551   3.924   3.682   1.288 -1.7288 -0.7906  0.8677
  360MOL0     H48552   3.723   3.706   1.575 -1.5225 -0.6329 -1.7047
  360MOL0     H48553   3.863   3.615   1.517 -2.6965 -0.6912  0.6280
  360MOL0     H48554   3.940   3.890   1.650 -0.1313  1.4718  4.0702
  360MOL0     H48555   3.871   3.790   1.761 -0.4964  1.9622  0.2770
  360MOL0     H48556   4.030   3.602   1.673  2.6879 -0.9926  6.0365
  360MOL0     H48557   4.074   3.729   1.784 -1.2972  0.2962  0.6580
  360MOL0     H48558   4.259   3.691   1.652 -0.0260  0.8802  0.1897
  360MOL0     H48559   4.216   3.853   1.623  0.5011  0.3212  0.8798
  360MOL0     H48560   4.182   3.660   1.201  1.6980 -2.1222 -2.7315
  360MOL0     H48561   4.356   3.694   1.055  0.4714 -1.1281 -0.8403
  360MOL0     H48562   4.949   3.925   1.215  0.2732 -2.1865  0.4558
  360MOL0     H48563   5.138   3.956   1.100 -1.0311  0.2638  0.0003
  360MOL0     H48564   5.221   3.756   0.915  0.7408 -0.1509 -0.3683
  360MOL0     H48565   5.154   3.745   0.750 -2.8576 -0.3968  4.3370
  360MOL0     H48566   5.431   3.824   0.874  3.1008 -0.9525 -1.3108
  360MOL0     H48567   5.426   3.718   0.737  0.2324  2.1809 -3.6830
  360MOL0     H48568   5.329   3.938   0.619 -0.1712  3.3446  1.3568
  360MOL0     H48569   5.437   4.002   0.747  0.1842 -0.0526  0.2068
  360MOL0     H48570   5.510   3.788   0.538  0.9190 -1.4117  2.3014
  360MOL0     H48571   5.621   3.847   0.661  0.0816 -0.3189  0.6454
  360MOL0     H48572   5.472   4.014   0.436 -0.1440 -2.4948 -1.2325
  360MOL0     H48573   5.637   3.957   0.412  1.1610  0.4023  0.9342
  360MOL0     H48574   5.527   4.173   0.588  1.0466  1.3110  0.9463
  360MOL0     H48575   5.681   4.088   0.629 -0.9869 -1.1762  0.0949
  360MOL0     H48576   5.641   4.229   0.367 -0.3375  0.5303 -0.9472
  360MOL0     H48577   5.770   4.119   0.419 -0.4277 -1.9604  2.9843
  360MOL0     H48578   5.830   4.368   0.461  0.8915 -0.1915 -0.6372
  360MOL0     H48579   5.691   4.385   0.565  1.2728 -0.2113  0.5695
  360MOL0     H48580   4.945   3.897   0.732  0.5900  3.4886 -0.9280
  360MOL0     H48581   4.712   3.898   0.862 -0.1403 -0.1272  1.9144
  360MOL0     H48582   4.613   3.830   1.372 -0.2440 -0.0458 -0.9689
  360MOL0     H48583   4.423   3.821   1.525  2.0070  0.4327 -0.7745
  360MOL0     H48584   2.998   4.150   0.899 -0.2384 -0.7570  2.6662
  360MOL0     H48585   2.736   4.158   0.944  3.5612  3.7038 -0.9292
  360MOL0     H48586   2.356   3.912   0.810  0.4073  0.4625  2.0431
  360MOL0     H48587   2.096   3.913   0.820  2.0069 -1.2357  2.6150
  360MOL0     H48588   1.922   4.210   0.529  1.0343 -0.3710 -0.0099
  360MOL0     H48589   1.780   4.174   0.624  0.3518  3.1816 -2.4502
  360MOL0     H48590   1.968   3.946   0.556 -1.6594 -3.6320  1.5956
  360MOL0     H48591   1.881   4.037   0.429  0.3172  3.3033  0.9566
  360MOL0     H48592   1.659   3.975   0.602  1.0556  0.3953  0.8317
  360MOL0     H48593   1.769   3.866   0.663 -0.0494  4.6891  2.3328
  360MOL0     H48594   1.615   3.778   0.489  0.0876 -1.0290 -0.2287
  360MOL0     H48595   1.686   3.895   0.378 -3.7727 -1.6513  0.0851
  360MOL0     H48596   1.943   3.550   0.372 -1.5371 -0.1986 -0.4562
  360MOL0     H48597   2.102   4.304   0.656  1.4624  0.4133 -1.3591
  360MOL0     H48598   2.291   4.421   0.663  1.1446  1.3449 -0.0897
  360MOL0     H48599   2.451   4.363   0.687  0.5055  1.3497 -2.3387
  360MOL0     H48600   2.384   4.337   0.526 -1.5309  3.0364 -0.7928
  361MOL0     O48601  10.635   2.558   4.226  0.4221  0.0261 -0.0548
  361MOL0     C48602  10.717   2.473   4.267  0.0045 -0.4412 -0.5711
  361MOL0     O48603  10.705   2.388   4.373 -0.1797 -0.3149  0.6615
  361MOL0     C48604  10.612   2.424   4.461  0.1924 -0.7447 -0.3061
  361MOL0     C48605  10.655   2.515   4.567  0.3050  0.3938 -0.8261
  361MOL0     C48606  10.560   2.561   4.661  0.0745 -0.6400 -0.7620
  361MOL0     C48607  10.431   2.513   4.661 -0.4936  0.6101 -0.6116
  361MOL0     O48608  10.338   2.546   4.762  0.3841  0.0280  0.5640
  361MOL0     C48609  10.373   2.608   4.883 -0.5738 -0.1539 -1.7136
  361MOL0     C48610  10.243   2.616   4.973  0.2134  0.3606 -0.2148
  361MOL0     C48611  10.140   2.700   4.905  0.6555  0.1915  0.2736
  361MOL0     C48612  10.037   2.763   4.997  0.0879  0.6289  0.3957
  361MOL0     C48613   9.889   2.777   4.941 -0.5297  0.6147 -0.0707
  361MOL0     C48614   9.856   2.884   4.831  0.6093  0.5281  0.5645
  361MOL0     C48615   9.859   3.037   4.886  0.2992 -0.9534  0.3745
  361MOL0     C48616   9.891   3.148   4.783 -0.1538 -0.9373 -1.5518
  361MOL0     N48617  10.035   3.152   4.738  0.2900  0.7488 -0.7716
  361MOL0     C48618  10.100   3.272   4.717 -0.0677  0.1798 -0.8826
  361MOL0     C48619  10.229   3.230   4.694  0.0539  0.7085 -0.0888
  361MOL0     C48620  10.345   3.316   4.661 -0.8306  0.6289 -0.3006
  361MOL0     C48621  10.418   3.392   4.774 -0.3452 -0.1135  0.3563
  361MOL0     C48622  10.522   3.474   4.706 -1.4743 -0.0813 -0.3243
  361MOL0     C48623  10.652   3.484   4.785 -0.0117  0.2658 -0.6110
  361MOL0     O48624  10.739   3.571   4.718 -0.4377  0.0019  0.1580
  361MOL0     C48625  10.861   3.594   4.772  0.3192 -0.2843  0.1434
  361MOL0     C48626  10.960   3.643   4.683  0.6784 -0.3221 -0.4228
  361MOL0     C48627  11.099   3.653   4.726  0.7431  0.0703 -0.2177
  361MOL0     C48628  11.134   3.621   4.860  0.0954 -0.0717 -0.9421
  361MOL0     C48629  11.274   3.604   4.882  0.7998 -0.4508 -0.3344
  361MOL0     O48630  11.358   3.667   4.797  0.2636 -0.3044  0.0352
  361MOL0     C48631  11.489   3.681   4.836 -0.4048 -0.6741  0.5932
  361MOL0     C48632  11.586   3.580   4.794  0.2962  0.3767 -0.2523
  361MOL0     C48633  11.723   3.588   4.833  0.8449  0.8989  0.3201
  361MOL0     C48634  11.758   3.680   4.933  0.6067  0.1254 -0.5846
  361MOL0     O48635  11.883   3.652   5.003 -0.1473  0.2147  0.8519
  361MOL0     C48636  11.930   3.750   5.094  0.0323 -0.2843  0.2484
  361MOL0     C48637  12.064   3.706   5.149  0.4351  0.5765  0.0762
  361MOL0     C48638  12.177   3.681   5.050  0.1709  0.1298  0.1484
  361MOL0     C48639  12.311   3.646   5.107 -0.2679 -0.5321  0.2388
  361MOL0     C48640  12.423   3.689   5.012 -0.3364 -0.4368  0.1627
  361MOL0     C48641  12.545   3.603   5.059  0.0693  0.6705  0.4659
  361MOL0     C48642  12.648   3.629   4.953 -0.1143 -1.0108 -1.0730
  361MOL0     C48643  12.798   3.602   4.982 -0.1072  0.0508 -0.3940
  361MOL0    Cl48644  12.806   3.447   5.066  0.1112  0.3675  0.3733
  361MOL0     C48645  11.672   3.782   4.966  0.2282  0.0265 -0.1267
  361MOL0     C48646  11.539   3.783   4.921  0.6372  0.6286 -0.0052
  361MOL0     O48647  11.314   3.542   4.983  0.7127 -0.5138 -0.5561
  361MOL0     C48648  11.035   3.571   4.948  0.0363  0.2066  0.0865
  361MOL0     C48649  10.906   3.563   4.900  1.0200 -0.2123 -0.1127
  361MOL0     N48650  10.239   3.090   4.705  0.8750  0.7922  0.2324
  361MOL0     N48651  10.123   3.047   4.734  0.0982  0.5440  0.0941
  361MOL0     C48652  10.394   2.422   4.560 -0.4482 -0.2188 -0.1874
  361MOL0     C48653  10.488   2.365   4.472  0.2936 -0.5602  0.2015
  361MOL0     C48654  10.853   2.461   4.203  0.4474 -0.9754  0.8398
  361MOL0     C48655  10.951   2.505   4.289 -0.3347 -0.7779 -0.4197
  361MOL0     C48656  11.078   2.513   4.227  0.2873 -0.1250  0.4491
  361MOL0     C48657  11.112   2.481   4.091  0.4392 -0.5534 -0.6625
  361MOL0     O48658  11.244   2.503   4.055 -0.2185  0.2272 -1.3818
  361MOL0     C48659  11.282   2.472   3.929 -0.2677 -0.9054  0.1342
  361MOL0     C48660  11.437   2.451   3.926  0.1553  0.5999 -0.6564
  361MOL0     C48661  11.491   2.413   3.795  0.0408  0.2370 -0.1489
  361MOL0     C48662  11.635   2.378   3.812  0.1608 -0.1900  0.7749
  361MOL0     C48663  11.726   2.478   3.872  0.2586 -0.0993  0.3092
  361MOL0     C48664  11.790   2.566   3.923  1.0049  0.3907 -0.8279
  361MOL0     C48665  11.006   2.434   4.020  0.7491  1.2843  0.0064
  361MOL0     C48666  10.878   2.424   4.075 -0.6836  0.1904  0.3725
  361MOL0     C48667  10.765   2.381   3.984  0.5685  0.2110 -0.2440
  361MOL0     H48668  10.756   2.553   4.559  0.3760  1.3738  2.7693
  361MOL0     H48669  10.580   2.635   4.738  1.2539 -1.2636 -0.4386
  361MOL0     H48670  10.445   2.547   4.939  1.1191  3.6965  0.6696
  361MOL0     H48671  10.413   2.709   4.875 -3.9531  1.6874  1.7537
  361MOL0     H48672  10.258   2.665   5.070 -3.1817 -1.9623  1.6971
  361MOL0     H48673  10.192   2.521   4.988  0.7101  0.3136  1.4594
  361MOL0     H48674  10.081   2.648   4.829 -0.7186  0.5129  1.0762
  361MOL0     H48675  10.195   2.779   4.852 -2.0660  1.7419 -0.4908
  361MOL0     H48676  10.035   2.706   5.090  1.2311 -1.2376 -0.6695
  361MOL0     H48677  10.074   2.863   5.023  1.1665  1.1432 -2.6829
  361MOL0     H48678   9.862   2.685   4.889 -0.0079 -0.6352  1.7797
  361MOL0     H48679   9.811   2.798   5.015  0.4315  0.8343  0.9003
  361MOL0     H48680   9.931   2.865   4.754 -0.0580 -0.3492  0.1215
  361MOL0     H48681   9.759   2.868   4.784  0.1179  0.8957  1.4153
  361MOL0     H48682   9.915   3.044   4.979 -0.8880 -0.0802  1.0614
  361MOL0     H48683   9.766   3.077   4.928  1.1068  1.6611 -0.1152
  361MOL0     H48684   9.823   3.128   4.700 -1.1988 -2.4462 -0.3954
  361MOL0     H48685   9.859   3.245   4.824 -0.6558 -0.5425 -2.8266
  361MOL0     H48686  10.060   3.371   4.740  0.0307 -0.1440  0.8148
  361MOL0     H48687  10.416   3.242   4.621  0.2691  1.3414  0.2989
  361MOL0     H48688  10.320   3.395   4.589  3.2848  0.7045 -1.9007
  361MOL0     H48689  10.360   3.461   4.836  0.5882  0.0753  1.0275
  361MOL0     H48690  10.469   3.326   4.844 -1.5459 -0.2820  1.1092
  361MOL0     H48691  10.482   3.576   4.702 -0.0538  0.5542  0.8223
  361MOL0     H48692  10.545   3.427   4.610 -1.2286  0.1209 -0.3644
  361MOL0     H48693  10.700   3.388   4.805 -0.2962 -0.0175 -1.2575
  361MOL0     H48694  10.624   3.520   4.884 -0.3733 -1.1332 -0.1870
  361MOL0     H48695  10.941   3.678   4.583 -0.2254  1.3158  0.2827
  361MOL0     H48696  11.177   3.682   4.657  1.6752  0.2789  0.8970
  361MOL0     H48697  11.562   3.495   4.731  2.9527  0.4738 -1.5749
  361MOL0     H48698  11.789   3.508   4.801 -4.6555 -2.8198 -3.3826
  361MOL0     H48699  11.948   3.839   5.034  0.4951 -0.2814  0.3838
  361MOL0     H48700  11.858   3.753   5.176 -0.8778  0.2971 -0.5580
  361MOL0     H48701  12.094   3.766   5.235 -1.4548  1.0988  0.4270
  361MOL0     H48702  12.046   3.609   5.195  1.7963  0.0379 -0.4841
  361MOL0     H48703  12.157   3.602   4.977 -2.0647  0.0896  0.7486
  361MOL0     H48704  12.202   3.778   5.006 -1.9874 -0.1392 -1.8441
  361MOL0     H48705  12.313   3.537   5.112 -0.2554 -0.4929  1.2338
  361MOL0     H48706  12.324   3.688   5.207 -0.0070  3.0085 -1.1452
  361MOL0     H48707  12.438   3.798   5.005 -0.9359 -0.3919 -0.6609
  361MOL0     H48708  12.396   3.657   4.911  2.2176 -1.7983 -0.1689
  361MOL0     H48709  12.574   3.628   5.162  0.8988 -0.3430  0.5005
  361MOL0     H48710  12.542   3.494   5.059  1.2624  0.3956 -4.3863
  361MOL0     H48711  12.647   3.735   4.926 -1.4307 -0.9677 -0.9074
  361MOL0     H48712  12.618   3.581   4.860 -0.2252 -2.7319 -0.1845
  361MOL0     H48713  12.837   3.597   4.880 -0.7291 -1.5800 -0.5899
  361MOL0     H48714  12.852   3.674   5.044 -0.4242  0.4551 -0.5799
  361MOL0     H48715  11.709   3.860   5.031  1.5642 -0.9306  0.3163
  361MOL0     H48716  11.469   3.860   4.950 -0.2463  0.5799 -1.9175
  361MOL0     H48717  11.056   3.526   5.044 -0.7025 -0.8398 -0.2196
  361MOL0     H48718  10.829   3.523   4.966  1.4326  1.1852  1.2909
  361MOL0     H48719  10.292   2.385   4.558 -0.1917 -0.9705 -2.2960
  361MOL0     H48720  10.450   2.285   4.410 -3.1198 -0.2935  1.7007
  361MOL0     H48721  10.927   2.543   4.387 -2.1170 -5.4152  1.2241
  361MOL0     H48722  11.154   2.556   4.291  0.7466  0.9151 -0.7550
  361MOL0     H48723  11.238   2.540   3.855 -0.8755 -1.3801  0.0434
  361MOL0     H48724  11.245   2.378   3.886  3.0572 -2.4750  0.4153
  361MOL0     H48725  11.459   2.367   3.993 -0.6998 -1.1549 -2.4719
  361MOL0     H48726  11.488   2.539   3.965 -2.3385  2.3726 -1.1648
  361MOL0     H48727  11.485   2.496   3.723 -0.6685  0.7452  0.4766
  361MOL0     H48728  11.435   2.325   3.764 -0.5493 -0.5675  2.8548
  361MOL0     H48729  11.639   2.293   3.880 -1.2093 -1.1886 -0.3285
  361MOL0     H48730  11.674   2.334   3.719  0.6823 -1.0593  1.3957
  361MOL0     H48731  11.858   2.636   3.968  2.1154 -1.5048  0.5840
  361MOL0     H48732  11.028   2.404   3.918  0.2686  4.6044 -1.2165
  361MOL0     H48733  10.776   2.434   3.889 -2.1539 -0.0843 -0.7989
  361MOL0     H48734  10.769   2.275   3.957 -1.5575  0.1505 -0.4900
  361MOL0     H48735  10.670   2.396   4.035  0.7332  0.1758  0.0761
  362MOL0     O48736   8.163   0.167   9.269 -0.5200 -0.1723  0.1463
  362MOL0     C48737   8.102   0.168   9.163 -0.0129 -0.1425 -0.6101
  362MOL0     O48738   8.154   0.204   9.043  0.1491  0.1535  0.9543
  362MOL0     C48739   8.296   0.227   9.030 -0.3950 -0.3210 -0.3243
  362MOL0     C48740   8.359   0.353   9.065  0.7309  1.1499 -0.6921
  362MOL0     C48741   8.495   0.366   9.039 -0.6080 -0.5562 -0.0279
  362MOL0     C48742   8.571   0.268   8.971 -0.3188 -0.7173 -0.2005
  362MOL0     O48743   8.700   0.308   8.942  0.2696  0.8785 -0.0966
  362MOL0     C48744   8.810   0.217   8.947  0.0966 -0.1326 -0.9949
  362MOL0     C48745   8.926   0.308   8.996 -0.4768  0.3757 -0.2196
  362MOL0     C48746   9.062   0.242   8.981 -0.7295  0.5623 -0.3279
  362MOL0     C48747   9.187   0.329   9.006 -0.1097  0.0113  0.0089
  362MOL0     C48748   9.318   0.256   8.974  0.3863 -0.2130 -0.0053
  362MOL0     C48749   9.444   0.341   8.993 -0.5872 -0.0054  0.0732
  362MOL0     C48750   9.477   0.403   8.866  0.0213 -0.4868 -0.8797
  362MOL0     C48751   9.595   0.501   8.877  0.1561  0.4908 -0.5171
  362MOL0     N48752   9.728   0.449   8.912 -0.1034  0.0577  0.0566
  362MOL0     C48753   9.820   0.401   8.820  0.8423 -0.3413  0.8590
  362MOL0     C48754   9.933   0.383   8.884 -0.6210  0.0395 -0.8069
  362MOL0     C48755  10.063   0.334   8.816 -0.1415  0.1946  0.4783
  362MOL0     C48756  10.035   0.222   8.724 -0.5722  1.1961 -0.5950
  362MOL0     C48757  10.024   0.095   8.813 -0.5263  0.9883 -0.2098
  362MOL0     C48758   9.882   0.056   8.858 -0.4676 -0.2519 -0.5812
  362MOL0     O48759   9.775   0.098   8.767 -0.1086  0.1537  0.3549
  362MOL0     C48760   9.653   0.048   8.808 -0.5405  0.5992  0.0282
  362MOL0     C48761   9.566   0.060   8.702  0.4398 -0.7598 -0.2082
  362MOL0     C48762   9.445   0.003   8.720 -0.0933  0.0851 -0.1884
  362MOL0     C48763   9.392  -0.053   8.849 -0.3100  0.4149  1.1090
  362MOL0     C48764   9.248  -0.109   8.858 -0.1269  0.2986  0.1726
  362MOL0     O48765   9.152  -0.048   8.792  0.0380  0.1260  0.0113
  362MOL0     C48766   9.022  -0.085   8.811  0.2119  0.3263 -0.7820
  362MOL0     C48767   8.946  -0.104   8.933 -0.4061  0.8266  0.2280
  362MOL0     C48768   8.815  -0.134   8.933  0.2628  0.3801  0.5752
  362MOL0     C48769   8.747  -0.148   8.809  0.5106  0.8993  0.1053
  362MOL0     O48770   8.617  -0.184   8.812 -0.3519  0.5090 -0.5335
  362MOL0     C48771   8.548  -0.132   8.699 -0.8464  0.8970  1.1568
  362MOL0     C48772   8.533  -0.240   8.584  0.6980 -0.6482  0.1039
  362MOL0     C48773   8.445  -0.359   8.619  0.5537 -0.4822  0.1605
  362MOL0     C48774   8.291  -0.313   8.591 -0.5491 -0.6354  0.0867
  362MOL0     C48775   8.207  -0.439   8.593 -0.3724  0.2515 -0.1763
  362MOL0     C48776   8.215  -0.534   8.719  0.2740  0.0115 -0.1556
  362MOL0     C48777   8.105  -0.640   8.725  0.1504 -0.0533 -0.5918
  362MOL0     C48778   8.147  -0.732   8.837  0.5324 -1.0404  0.4094
  362MOL0    Cl48779   8.127  -0.640   8.991 -0.2274 -0.0588 -0.4384
  362MOL0     C48780   8.818  -0.122   8.694 -0.1204  0.5953  0.0688
  362MOL0     C48781   8.949  -0.099   8.696  0.2185  0.0099 -0.2868
  362MOL0     O48782   9.231  -0.199   8.941 -0.3556 -0.4459  0.2091
  362MOL0     C48783   9.480  -0.052   8.959 -0.1907 -0.0113  0.7078
  362MOL0     C48784   9.617  -0.008   8.934  1.1938 -0.5246  0.1558
  362MOL0     N48785   9.905   0.410   9.022 -0.2176  0.8602 -0.6858
  362MOL0     N48786   9.779   0.429   9.035  0.7875  0.1263  0.3760
  362MOL0     C48787   8.511   0.145   8.940 -1.1313 -0.5442 -0.1268
  362MOL0     C48788   8.374   0.130   8.963  0.2384  0.2863 -0.5401
  362MOL0     C48789   7.954   0.123   9.158 -1.6862  0.2760  0.1683
  362MOL0     C48790   7.899   0.115   9.030  0.8270  0.0755 -0.5476
  362MOL0     C48791   7.770   0.088   9.015  0.3625  1.0895  0.1359
  362MOL0     C48792   7.683   0.058   9.123  0.2348  0.5243 -0.6038
  362MOL0     O48793   7.551   0.049   9.107 -0.5863  0.1401  0.1052
  362MOL0     C48794   7.480   0.132   9.006  0.6965  0.1110  0.0574
  362MOL0     C48795   7.343   0.186   9.064 -0.3312 -0.2791 -0.1799
  362MOL0     C48796   7.244   0.074   9.088  0.1544  0.2145 -0.0784
  362MOL0     C48797   7.149   0.116   9.208 -0.2592  0.0978 -0.0012
  362MOL0     C48798   7.063   0.229   9.160 -0.7605  0.7274 -0.3965
  362MOL0     C48799   7.011   0.329   9.139  0.9067 -1.2482 -0.0940
  362MOL0     C48800   7.744   0.038   9.255  0.3254  0.3497  0.2163
  362MOL0     C48801   7.882   0.077   9.277  0.1168  0.3193  0.6018
  362MOL0     C48802   7.929   0.049   9.420  0.3715 -0.0699 -0.1459
  362MOL0     H48803   8.294   0.432   9.102 -1.1157 -0.1814 -1.0017
  362MOL0     H48804   8.544   0.459   9.066 -1.7287 -0.0703  0.3545
  362MOL0     H48805   8.793   0.133   9.015 -0.6312 -0.5587 -1.6904
  362MOL0     H48806   8.833   0.180   8.846  2.2730  2.8566 -1.7331
  362MOL0     H48807   8.901   0.323   9.102 -1.4602  1.3638 -0.5724
  362MOL0     H48808   8.935   0.404   8.944  3.0894  1.3762  1.8375
  362MOL0     H48809   9.090   0.207   8.881 -0.1582  0.5693 -0.1745
  362MOL0     H48810   9.066   0.146   9.034 -0.9328 -0.7239 -2.5100
  362MOL0     H48811   9.185   0.425   8.953 -2.2990  0.1649  0.2574
  362MOL0     H48812   9.188   0.368   9.108  0.9856  4.9607 -1.6392
  362MOL0     H48813   9.325   0.172   9.044 -1.4161  0.4041  0.9899
  362MOL0     H48814   9.310   0.204   8.878 -1.4539  1.3127 -0.7551
  362MOL0     H48815   9.438   0.401   9.084 -1.0534 -1.6991  1.2084
  362MOL0     H48816   9.525   0.269   9.008 -2.5279 -3.0076 -2.4758
  362MOL0     H48817   9.387   0.461   8.844 -0.6937  0.0428  2.8322
  362MOL0     H48818   9.489   0.334   8.782  2.7005 -0.1605 -0.8711
  362MOL0     H48819   9.601   0.549   8.778 -1.0982  0.3632 -0.6726
  362MOL0     H48820   9.566   0.571   8.957 -0.2423  0.3493 -0.5329
  362MOL0     H48821   9.818   0.410   8.712  3.0728  2.2579  0.9351
  362MOL0     H48822  10.114   0.414   8.763  2.0604 -1.9871 -0.9306
  362MOL0     H48823  10.143   0.295   8.879 -1.2299 -1.5477  0.8586
  362MOL0     H48824   9.956   0.235   8.650  1.4326 -1.6006 -3.4648
  362MOL0     H48825  10.125   0.219   8.662 -0.4212  4.0978 -0.6557
  362MOL0     H48826  10.083   0.093   8.905  0.2677  0.7183 -0.7125
  362MOL0     H48827  10.056   0.014   8.747 -2.1282  0.9073 -0.9452
  362MOL0     H48828   9.865   0.096   8.958  0.2619  2.0346 -1.2935
  362MOL0     H48829   9.881  -0.053   8.859  4.3181 -0.5576 -1.8554
  362MOL0     H48830   9.590   0.098   8.603 -0.6134 -0.9983 -0.5701
  362MOL0     H48831   9.372   0.010   8.641 -1.5071 -1.5714  0.9101
  362MOL0     H48832   9.000  -0.102   9.028  3.9807  1.0627 -2.0186
  362MOL0     H48833   8.748  -0.140   9.018 -2.2766  1.1084 -1.2637
  362MOL0     H48834   8.445  -0.113   8.732 -1.7338  0.9827 -1.4296
  362MOL0     H48835   8.581  -0.034   8.662 -2.2565  1.9227  2.4343
  362MOL0     H48836   8.485  -0.193   8.498 -2.5844  0.6467  2.4596
  362MOL0     H48837   8.633  -0.272   8.551  0.7491  1.4877 -2.1246
  362MOL0     H48838   8.470  -0.440   8.548 -0.0401  1.8219 -2.8865
  362MOL0     H48839   8.461  -0.388   8.723  2.9738  0.3941  0.0925
  362MOL0     H48840   8.289  -0.275   8.488 -1.8264 -3.3354 -0.9876
  362MOL0     H48841   8.248  -0.239   8.660  2.2967  0.7225  0.5371
  362MOL0     H48842   8.224  -0.500   8.504  0.5384  3.3281 -2.2402
  362MOL0     H48843   8.105  -0.401   8.583 -0.8816 -1.0236 -0.1011
  362MOL0     H48844   8.310  -0.586   8.702 -1.9466 -3.4207 -3.7808
  362MOL0     H48845   8.210  -0.469   8.807 -2.0649  0.8667 -0.8411
  362MOL0     H48846   8.090  -0.695   8.631 -2.6932 -0.3832 -0.0402
  362MOL0     H48847   8.006  -0.596   8.741  0.0703 -0.7210  0.8905
  362MOL0     H48848   8.087  -0.823   8.831  2.7239 -2.4577 -2.5820
  362MOL0     H48849   8.246  -0.774   8.818  1.3699 -0.3939  2.9139
  362MOL0     H48850   8.786  -0.132   8.590 -0.2920 -1.5285  0.2828
  362MOL0     H48851   9.003  -0.074   8.605 -0.2503 -0.6019 -0.7386
  362MOL0     H48852   9.453  -0.084   9.059 -1.1754  1.1165  0.8350
  362MOL0     H48853   9.682   0.007   9.019 -2.9007 -1.9842  3.9291
  362MOL0     H48854   8.567   0.059   8.905 -1.9307 -0.6653 -1.1462
  362MOL0     H48855   8.320   0.039   8.941 -1.2137  1.1410 -0.6495
  362MOL0     H48856   7.956   0.144   8.942 -0.7833 -1.9485 -2.3449
  362MOL0     H48857   7.728   0.087   8.915 -0.1168 -1.2852  0.2924
  362MOL0     H48858   7.456   0.078   8.914  0.1314  1.1719 -0.4349
  362MOL0     H48859   7.533   0.220   8.968 -4.1478  2.6777 -1.5093
  362MOL0     H48860   7.310   0.260   8.990  1.8070 -0.4260 -1.3617
  362MOL0     H48861   7.372   0.234   9.158 -3.9153  2.9213 -0.4567
  362MOL0     H48862   7.288  -0.023   9.114  2.0937  0.2759 -2.6660
  362MOL0     H48863   7.180   0.062   9.000 -0.3856  3.5176 -0.2578
  362MOL0     H48864   7.081   0.032   9.225 -1.9629  1.5584  0.7677
  362MOL0     H48865   7.202   0.151   9.297 -0.1975 -2.0920  0.8769
  362MOL0     H48866   6.956   0.417   9.113 -0.6576 -2.4138 -0.8574
  362MOL0     H48867   7.668  -0.003   9.320 -0.7097 -2.0413 -2.2958
  362MOL0     H48868   7.843   0.066   9.486  1.3494  3.9804  0.3043
  362MOL0     H48869   7.970  -0.052   9.411  0.2652  0.0614 -3.6445
  362MOL0     H48870   8.013   0.113   9.445  1.0657 -0.6558 -0.9280
  363MOL0     O48871   2.008   1.531   1.285  0.1897 -0.0569 -0.2332
  363MOL0     C48872   1.954   1.637   1.248 -0.4232  0.4935 -0.6520
  363MOL0     O48873   1.974   1.700   1.127  0.0671  1.0085 -0.5566
  363MOL0     C48874   2.076   1.662   1.046  0.7697 -0.4270 -0.5234
  363MOL0     C48875   2.210   1.671   1.075 -0.7811 -0.3555 -0.0003
  363MOL0     C48876   2.301   1.620   0.979 -0.0656  0.1337  0.7068
  363MOL0     C48877   2.256   1.590   0.845  0.7955  0.0101 -0.0397
  363MOL0     O48878   2.361   1.560   0.762  1.1794 -0.4446 -0.5859
  363MOL0     C48879   2.316   1.508   0.635  1.0072  0.1086  0.6353
  363MOL0     C48880   2.433   1.492   0.539  0.3994  0.0793  0.1478
  363MOL0     C48881   2.500   1.632   0.523  0.1527 -0.0334 -0.0648
  363MOL0     C48882   2.623   1.630   0.435 -0.6411  0.8927 -0.0452
  363MOL0     C48883   2.723   1.750   0.466  0.4465 -0.2785 -0.2789
  363MOL0     C48884   2.830   1.765   0.365  0.1633  0.7372  0.3930
  363MOL0     C48885   2.923   1.872   0.394 -0.6449  0.8025  0.3779
  363MOL0     C48886   3.020   1.880   0.273  0.1640  1.0923 -0.3055
  363MOL0     N48887   3.102   1.993   0.303 -0.5379 -0.5764  0.5036
  363MOL0     C48888   3.072   2.120   0.245 -0.1635  0.1605  0.0739
  363MOL0     C48889   3.158   2.207   0.310 -0.9842 -0.5173 -0.0097
  363MOL0     C48890   3.138   2.357   0.301  0.0819 -0.5116 -0.9821
  363MOL0     C48891   3.145   2.407   0.148  0.1648  0.0237  0.1456
  363MOL0     C48892   3.279   2.384   0.077 -0.0144 -0.0920 -0.6218
  363MOL0     C48893   3.314   2.505  -0.001  0.6187 -0.4029  0.6946
  363MOL0     O48894   3.312   2.629   0.082 -0.9144  0.3720  0.5299
  363MOL0     C48895   3.374   2.742   0.028  0.8132 -0.0079  0.4725
  363MOL0     C48896   3.343   2.870   0.075 -0.2531  0.3453 -0.5445
  363MOL0     C48897   3.411   2.980   0.028 -0.3565 -1.0863 -0.7840
  363MOL0     C48898   3.507   2.972  -0.081 -0.4518  0.3750 -0.4767
  363MOL0     C48899   3.595   3.090  -0.116 -0.0460  0.7945 -0.5752
  363MOL0     O48900   3.545   3.216  -0.079  0.4035 -0.4008 -0.5704
  363MOL0     C48901   3.607   3.341  -0.110  0.2644  0.1230 -0.4043
  363MOL0     C48902   3.741   3.352  -0.146  0.2563  0.2913  0.6459
  363MOL0     C48903   3.790   3.473  -0.186 -0.0257  0.2632  0.1911
  363MOL0     C48904   3.708   3.587  -0.174 -0.0509  0.7666  0.1751
  363MOL0     O48905   3.740   3.705  -0.222  0.7422 -0.6669 -0.0731
  363MOL0     C48906   3.750   3.811  -0.122  0.4433 -1.3923  0.1118
  363MOL0     C48907   3.884   3.860  -0.126 -0.1427 -0.1936 -0.2057
  363MOL0     C48908   3.995   3.778  -0.053 -1.0880  0.0395  0.1497
  363MOL0     C48909   4.143   3.804  -0.078  0.8500 -0.6084  0.0448
  363MOL0     C48910   4.228   3.701  -0.001  0.6932  0.4652 -0.1025
  363MOL0     C48911   4.374   3.734   0.001 -0.3624 -0.5288  0.5089
  363MOL0     C48912   4.447   3.600   0.036  0.6971  0.3130  0.0595
  363MOL0     C48913   4.596   3.625   0.019  0.2707  0.3578  0.1960
  363MOL0    Cl48914   4.687   3.486   0.074 -0.2891 -0.1304  0.2465
  363MOL0     C48915   3.590   3.579  -0.113  0.3087  0.8393 -0.0196
  363MOL0     C48916   3.531   3.456  -0.091  0.0518  0.1254  1.5910
  363MOL0     O48917   3.706   3.061  -0.173  1.1945 -0.1669  0.2578
  363MOL0     C48918   3.532   2.847  -0.138  0.3404 -0.4514  0.0092
  363MOL0     C48919   3.466   2.733  -0.078 -0.2779 -0.1237 -0.8390
  363MOL0     N48920   3.233   2.131   0.403 -1.0370 -0.4689  0.9415
  363MOL0     N48921   3.206   2.002   0.393 -0.1339 -0.2780  0.1167
  363MOL0     C48922   2.114   1.612   0.815 -0.7069  0.5506 -0.5698
  363MOL0     C48923   2.032   1.643   0.917 -0.2643 -0.6584 -0.2421
  363MOL0     C48924   1.874   1.719   1.341 -0.4992 -0.0634  0.2066
  363MOL0     C48925   1.852   1.853   1.307 -0.5912 -0.3759 -0.6397
  363MOL0     C48926   1.760   1.925   1.384 -0.1811  0.2951  0.1095
  363MOL0     C48927   1.704   1.872   1.492  0.9799 -0.2845 -0.5079
  363MOL0     O48928   1.608   1.943   1.559 -0.9471 -0.9729 -0.1157
  363MOL0     C48929   1.643   1.981   1.691  0.4104 -0.7681  0.6937
  363MOL0     C48930   1.617   2.125   1.705  0.0559  0.2892  0.1493
  363MOL0     C48931   1.728   2.215   1.634  0.3414 -0.1452 -0.2496
  363MOL0     C48932   1.658   2.340   1.577  0.7414  0.5961 -0.2185
  363MOL0     C48933   1.606   2.426   1.685 -0.3746  0.7860 -0.8322
  363MOL0     C48934   1.561   2.498   1.766 -0.8209  0.1238 -0.0724
  363MOL0     C48935   1.745   1.748   1.542  0.1237 -0.5564 -0.1609
  363MOL0     C48936   1.832   1.663   1.467  0.1845 -0.0534 -0.3370
  363MOL0     C48937   1.873   1.524   1.525 -0.1767 -0.7132 -0.0144
  363MOL0     H48938   2.238   1.690   1.179 -1.2833  0.9542 -0.0803
  363MOL0     H48939   2.405   1.626   1.009 -0.1957  0.5852  1.0844
  363MOL0     H48940   2.265   1.411   0.634 -0.6372  0.9249  1.3530
  363MOL0     H48941   2.255   1.580   0.579 -0.6982 -1.6294  0.1204
  363MOL0     H48942   2.393   1.478   0.438  0.2036  1.2130  0.0564
  363MOL0     H48943   2.503   1.413   0.570 -0.0493 -0.1161  0.6733
  363MOL0     H48944   2.528   1.669   0.622  1.4282  2.0190 -1.1241
  363MOL0     H48945   2.428   1.698   0.474 -1.2904 -1.5919 -0.1191
  363MOL0     H48946   2.679   1.536   0.435 -0.4697  0.9552 -1.8064
  363MOL0     H48947   2.589   1.628   0.331 -0.3920 -0.8541 -0.1168
  363MOL0     H48948   2.667   1.845   0.470 -1.1499 -1.1957  2.4986
  363MOL0     H48949   2.767   1.740   0.565 -0.8799 -2.1958  0.1688
  363MOL0     H48950   2.876   1.666   0.360  0.6700  1.0149 -2.5816
  363MOL0     H48951   2.798   1.780   0.261  2.3101  0.4494 -0.3601
  363MOL0     H48952   2.971   1.858   0.492  0.9019  0.3364 -0.4089
  363MOL0     H48953   2.871   1.967   0.411 -1.9507  0.5051 -1.6034
  363MOL0     H48954   3.079   1.788   0.262 -2.3803 -0.7176  0.2828
  363MOL0     H48955   2.970   1.871   0.177  2.1177 -1.1006 -1.2184
  363MOL0     H48956   2.989   2.136   0.177  0.4683  0.1612 -0.7200
  363MOL0     H48957   3.048   2.400   0.346 -1.1208 -3.5777 -0.2673
  363MOL0     H48958   3.219   2.400   0.362 -0.9148  1.9767 -1.2627
  363MOL0     H48959   3.065   2.361   0.090 -0.1673 -0.8779  1.2660
  363MOL0     H48960   3.128   2.515   0.160 -1.5018 -0.2809  0.8880
  363MOL0     H48961   3.263   2.299   0.010  1.4531 -1.9340  1.2316
  363MOL0     H48962   3.363   2.365   0.144  0.6366 -0.3937 -1.4880
  363MOL0     H48963   3.253   2.514  -0.091 -0.5832 -0.2934  1.4987
  363MOL0     H48964   3.420   2.494  -0.026 -0.1884 -5.0638 -1.8548
  363MOL0     H48965   3.254   2.877   0.137  0.3577 -0.9979  0.5294
  363MOL0     H48966   3.385   3.072   0.080  2.2412 -0.4950 -0.4285
  363MOL0     H48967   3.807   3.266  -0.138  1.9218  1.5082  0.5164
  363MOL0     H48968   3.892   3.478  -0.224 -0.3863 -0.2620 -0.8818
  363MOL0     H48969   3.674   3.883  -0.154  0.2989 -2.4709 -2.1803
  363MOL0     H48970   3.740   3.789  -0.015 -0.3362 -0.1967  0.3056
  363MOL0     H48971   3.921   3.876  -0.228 -1.1518  0.9368 -0.4268
  363MOL0     H48972   3.885   3.960  -0.082 -1.3173  0.0929 -0.7677
  363MOL0     H48973   3.975   3.780   0.054 -0.8145 -1.7781  0.2550
  363MOL0     H48974   3.986   3.673  -0.082  1.7362 -1.0023  2.6064
  363MOL0     H48975   4.166   3.903  -0.037  0.7845  0.6324 -2.6564
  363MOL0     H48976   4.167   3.811  -0.185  0.6295 -0.4050  0.0069
  363MOL0     H48977   4.203   3.603  -0.041  0.4406 -0.5378  2.3702
  363MOL0     H48978   4.203   3.692   0.105 -2.4860  0.3302 -0.7574
  363MOL0     H48979   4.410   3.773  -0.094  2.4821 -0.3710  1.5565
  363MOL0     H48980   4.406   3.810   0.073 -0.5323  0.6638 -0.6295
  363MOL0     H48981   4.422   3.524  -0.038  2.2653 -1.4291  1.2164
  363MOL0     H48982   4.426   3.550   0.131  0.7877 -1.2654 -0.7239
  363MOL0     H48983   4.613   3.645  -0.088  5.1552  0.7095  0.8353
  363MOL0     H48984   4.629   3.717   0.068 -0.3082  1.0806 -0.7122
  363MOL0     H48985   3.531   3.665  -0.082  1.8929  2.4722 -1.3069
  363MOL0     H48986   3.435   3.454  -0.041  0.7361  1.6990  3.0811
  363MOL0     H48987   3.603   2.841  -0.220 -0.6148 -1.1562 -0.7868
  363MOL0     H48988   3.493   2.634  -0.112 -0.1457 -0.5848  0.5251
  363MOL0     H48989   2.072   1.602   0.716  2.3758 -1.2883 -1.8403
  363MOL0     H48990   1.927   1.648   0.888  0.4003 -2.4927 -3.4851
  363MOL0     H48991   1.891   1.904   1.219  1.4361  0.3175  0.5879
  363MOL0     H48992   1.738   2.027   1.352  2.0154  2.2464  4.0258
  363MOL0     H48993   1.746   1.957   1.718  0.0605 -1.2016  1.6853
  363MOL0     H48994   1.584   1.928   1.765  1.7712  0.4519  2.7603
  363MOL0     H48995   1.583   2.146   1.807 -2.2354  1.2617 -0.7410
  363MOL0     H48996   1.521   2.140   1.655 -0.4947  0.3369  1.1727
  363MOL0     H48997   1.773   2.156   1.553 -0.4032 -1.8521  0.5263
  363MOL0     H48998   1.809   2.241   1.702  1.0256  0.0133 -1.1049
  363MOL0     H48999   1.725   2.403   1.518  2.3016 -0.5706  0.2342
  363MOL0     H49000   1.573   2.316   1.513  0.7531  1.5199 -0.5904
  363MOL0     H49001   1.515   2.561   1.839 -1.3267  1.2772 -1.3340
  363MOL0     H49002   1.691   1.701   1.623 -0.9286 -1.7201 -1.4632
  363MOL0     H49003   1.815   1.510   1.616 -0.1382  0.1883  0.1564
  363MOL0     H49004   1.841   1.446   1.456 -2.2430  1.9492 -2.3158
  363MOL0     H49005   1.982   1.517   1.537  0.1475  1.1279 -1.4447
  364MOL0     O49006  11.061   6.080   0.073  0.3333  0.4945 -0.1426
  364MOL0     C49007  10.966   6.040   0.138  0.5510 -0.1818 -0.7894
  364MOL0     O49008  10.854   5.993   0.091  0.0927  0.9534 -0.3710
  364MOL0     C49009  10.866   5.924  -0.032 -0.4396  0.3007  0.0017
  364MOL0     C49010  10.900   5.784  -0.030 -0.1302 -0.2088  0.4496
  364MOL0     C49011  10.910   5.711  -0.157 -0.2290 -0.5010  1.0067
  364MOL0     C49012  10.884   5.781  -0.278 -0.7351 -0.0305  0.6004
  364MOL0     O49013  10.894   5.730  -0.401  0.5462  0.2602  0.1613
  364MOL0     C49014  10.975   5.613  -0.425 -0.6673  1.0151 -0.5597
  364MOL0     C49015  11.005   5.578  -0.572 -0.3927 -0.6193  0.1145
  364MOL0     C49016  11.052   5.429  -0.598 -0.2236 -0.3194  0.6962
  364MOL0     C49017  11.206   5.427  -0.568  0.1404 -0.0440 -1.0636
  364MOL0     C49018  11.261   5.284  -0.595 -0.2209 -0.2981 -0.6921
  364MOL0     C49019  11.409   5.275  -0.612 -0.4358  0.2650  0.6435
  364MOL0     C49020  11.491   5.346  -0.507  0.7391 -0.0520 -0.8625
  364MOL0     C49021  11.636   5.328  -0.525  0.1306 -0.2658  0.2496
  364MOL0     N49022  11.711   5.374  -0.405  0.0218 -0.0530 -0.3048
  364MOL0     C49023  11.797   5.299  -0.333 -0.7768 -0.0778 -0.1341
  364MOL0     C49024  11.848   5.386  -0.245 -0.4781 -0.7058 -0.5177
  364MOL0     C49025  11.961   5.367  -0.140  0.9234 -0.3370  0.4489
  364MOL0     C49026  12.092   5.357  -0.213 -0.3655  0.0662 -0.6434
  364MOL0     C49027  12.138   5.497  -0.263  0.2175  0.1854  0.0508
  364MOL0     C49028  12.285   5.502  -0.288  0.3916 -0.5140  0.0904
  364MOL0     O49029  12.325   5.390  -0.371  0.6391 -0.0997  0.6416
  364MOL0     C49030  12.459   5.344  -0.370  0.1748  0.5203  0.0542
  364MOL0     C49031  12.480   5.225  -0.444 -0.4677  0.1708 -0.2734
  364MOL0     C49032  12.599   5.168  -0.464  0.3651 -0.1478  0.3036
  364MOL0     C49033  12.715   5.232  -0.418  0.1352 -0.0880 -0.3305
  364MOL0     C49034  12.844   5.163  -0.429 -1.0183  0.6767 -0.4048
  364MOL0     O49035  12.953   5.244  -0.408  0.1215 -0.1528 -0.0489
  364MOL0     C49036  13.088   5.214  -0.405 -0.3368 -1.0947  0.0468
  364MOL0     C49037  13.173   5.302  -0.338 -0.1326 -0.7138 -0.4307
  364MOL0     C49038  13.308   5.293  -0.354 -1.3490  0.2210  0.1019
  364MOL0     C49039  13.362   5.186  -0.425  0.2326 -0.9841 -1.0946
  364MOL0     O49040  13.499   5.175  -0.434 -0.7531 -0.5303 -0.7622
  364MOL0     C49041  13.547   5.173  -0.565 -0.0784 -0.4676 -0.0023
  364MOL0     C49042  13.542   5.306  -0.635 -1.1438 -0.2666 -0.7014
  364MOL0     C49043  13.644   5.395  -0.564  0.0325 -0.2417 -0.2632
  364MOL0     C49044  13.654   5.533  -0.630 -0.2860 -0.2313  0.5091
  364MOL0     C49045  13.530   5.626  -0.618 -0.3532 -0.8882 -0.3562
  364MOL0     C49046  13.544   5.777  -0.639  0.0126  0.2541  0.0417
  364MOL0     C49047  13.588   5.805  -0.781  0.0748  0.8254 -0.3038
  364MOL0     C49048  13.490   5.755  -0.889  0.1513  0.2631 -0.6340
  364MOL0    Cl49049  13.538   5.815  -1.052 -0.0235  0.0194  0.4493
  364MOL0     C49050  13.273   5.083  -0.479  0.2590 -0.6140 -0.6196
  364MOL0     C49051  13.136   5.107  -0.478  0.1238  0.1567 -0.2080
  364MOL0     O49052  12.846   5.037  -0.439  0.1062 -0.3617 -0.5741
  364MOL0     C49053  12.702   5.347  -0.343  0.5651  0.7760  0.4899
  364MOL0     C49054  12.577   5.408  -0.325 -0.4609  0.3836  0.4361
  364MOL0     N49055  11.804   5.515  -0.275 -0.3677  0.0981  0.8203
  364MOL0     N49056  11.719   5.504  -0.364  0.7947  0.7596 -0.1522
  364MOL0     C49057  10.844   5.907  -0.272 -0.7407 -0.7363  0.1842
  364MOL0     C49058  10.831   5.978  -0.150 -0.0392  0.2141  0.1993
  364MOL0     C49059  10.956   6.060   0.285  0.5627 -0.1255  0.6560
  364MOL0     C49060  10.912   5.947   0.366  0.3916  0.4379 -0.1875
  364MOL0     C49061  10.896   5.949   0.508 -0.7745  0.2041  0.1046
  364MOL0     C49062  10.932   6.070   0.573 -0.0809  0.1098  0.3086
  364MOL0     O49063  10.924   6.085   0.709 -0.2379 -0.2402  0.2511
  364MOL0     C49064  10.919   5.981   0.802 -0.0221 -0.2252 -0.0590
  364MOL0     C49065  10.774   5.959   0.842  1.2852  0.4816 -1.0247
  364MOL0     C49066  10.749   5.909   0.986 -0.2927  0.4159  0.4339
  364MOL0     C49067  10.829   5.780   1.026 -0.8339 -0.3919 -0.1736
  364MOL0     C49068  10.800   5.715   1.153  0.6870 -0.0732 -0.4019
  364MOL0     C49069  10.759   5.653   1.256  0.4967 -0.9702  0.5948
  364MOL0     C49070  10.982   6.176   0.500 -0.2505  0.7358  0.0668
  364MOL0     C49071  11.000   6.168   0.364 -0.4611  0.1372  0.7858
  364MOL0     C49072  11.083   6.283   0.307  0.5897  0.8234  0.1718
  364MOL0     H49073  10.937   5.737   0.061  2.4249 -1.3121 -1.0536
  364MOL0     H49074  10.953   5.612  -0.146 -1.3390 -0.8650  2.3467
  364MOL0     H49075  11.067   5.626  -0.366 -0.7658  0.2728 -0.2241
  364MOL0     H49076  10.931   5.531  -0.367  0.1826  1.2511  0.4597
  364MOL0     H49077  11.079   5.649  -0.610 -2.5097  1.7258  0.1727
  364MOL0     H49078  10.911   5.584  -0.628 -1.1570  0.5126  1.4539
  364MOL0     H49079  11.031   5.412  -0.704 -0.1142  2.0700  0.2253
  364MOL0     H49080  10.987   5.367  -0.535 -1.1951  0.7252  0.7720
  364MOL0     H49081  11.255   5.501  -0.631 -0.4015  2.6549  1.4930
  364MOL0     H49082  11.224   5.450  -0.463  1.5177 -0.5299 -1.1741
  364MOL0     H49083  11.239   5.215  -0.512  2.6421 -0.2184  0.2682
  364MOL0     H49084  11.222   5.240  -0.687 -0.1414 -3.0667  0.4818
  364MOL0     H49085  11.446   5.172  -0.618 -0.7722  0.2431 -2.1268
  364MOL0     H49086  11.433   5.325  -0.706 -3.8470  0.1061 -0.4407
  364MOL0     H49087  11.466   5.305  -0.408 -1.4593 -1.4774 -1.9414
  364MOL0     H49088  11.464   5.452  -0.505 -2.5061 -0.7606  1.2858
  364MOL0     H49089  11.652   5.226  -0.559 -0.1343  0.3395 -1.7773
  364MOL0     H49090  11.661   5.406  -0.598 -0.1122 -0.9550 -0.5826
  364MOL0     H49091  11.833   5.198  -0.352  2.6265  0.6577  1.6599
  364MOL0     H49092  11.970   5.445  -0.065 -0.7560  0.3112  0.0348
  364MOL0     H49093  11.946   5.275  -0.082  0.5308 -1.0331 -0.7014
  364MOL0     H49094  12.156   5.310  -0.138 -4.8675 -2.1653  2.1982
  364MOL0     H49095  12.076   5.288  -0.296 -0.6242  1.0495 -1.4409
  364MOL0     H49096  12.108   5.574  -0.191  0.4568 -0.7277  1.1588
  364MOL0     H49097  12.083   5.512  -0.357  0.5225 -0.4788 -0.2401
  364MOL0     H49098  12.336   5.508  -0.192 -2.5034 -0.1448  1.7409
  364MOL0     H49099  12.292   5.592  -0.350 -0.1634 -2.2880 -2.7302
  364MOL0     H49100  12.396   5.169  -0.483  0.6297 -0.8775 -1.2219
  364MOL0     H49101  12.607   5.075  -0.519  0.3371 -0.4501  0.8073
  364MOL0     H49102  13.131   5.393  -0.295  2.3149 -0.2028  1.0561
  364MOL0     H49103  13.365   5.365  -0.295  0.4527 -1.9206  1.1303
  364MOL0     H49104  13.653   5.149  -0.561  0.5524  1.6426 -1.9312
  364MOL0     H49105  13.503   5.101  -0.634 -0.1448  0.4627 -0.9702
  364MOL0     H49106  13.570   5.288  -0.739  0.7746 -2.6693  0.1351
  364MOL0     H49107  13.441   5.346  -0.629 -0.6986  0.7907  0.2303
  364MOL0     H49108  13.608   5.403  -0.461 -1.7688  1.6960 -0.9746
  364MOL0     H49109  13.744   5.351  -0.570 -0.3074 -0.9415 -1.1160
  364MOL0     H49110  13.669   5.522  -0.737  0.6501 -0.2383  0.6252
  364MOL0     H49111  13.741   5.585  -0.587 -0.1241 -0.7209  0.7778
  364MOL0     H49112  13.488   5.609  -0.519 -1.9175  0.9071 -0.6680
  364MOL0     H49113  13.449   5.594  -0.684 -1.3874  0.5401  0.1731
  364MOL0     H49114  13.444   5.822  -0.631 -0.1477  0.1854 -1.3286
  364MOL0     H49115  13.609   5.821  -0.563 -0.2691 -1.0467  1.0867
  364MOL0     H49116  13.685   5.754  -0.786 -0.9262 -1.1149 -0.6268
  364MOL0     H49117  13.609   5.910  -0.802 -1.2540  0.9243 -1.2520
  364MOL0     H49118  13.479   5.647  -0.899  2.1023  0.0230 -0.5304
  364MOL0     H49119  13.386   5.788  -0.879  1.2074  3.8436 -0.0554
  364MOL0     H49120  13.323   4.994  -0.515  1.7136 -0.0785  0.0158
  364MOL0     H49121  13.070   5.037  -0.528 -0.2347 -0.3169  0.8848
  364MOL0     H49122  12.789   5.395  -0.300  1.4465 -1.3601  1.2284
  364MOL0     H49123  12.571   5.498  -0.265 -1.4611  0.3200  0.4446
  364MOL0     H49124  10.835   5.969  -0.361 -1.7650  0.1585  0.8830
  364MOL0     H49125  10.807   6.083  -0.167 -0.2719  0.0717 -0.3743
  364MOL0     H49126  10.871   5.859   0.317  1.9072  0.6196 -1.8628
  364MOL0     H49127  10.871   5.861   0.567 -2.7982  0.4422 -0.3489
  364MOL0     H49128  10.991   6.006   0.880  0.1873  0.3424 -0.4333
  364MOL0     H49129  10.950   5.884   0.761 -2.5629 -1.3392  0.4435
  364MOL0     H49130  10.724   5.889   0.775 -0.0850  1.0098 -0.6083
  364MOL0     H49131  10.731   6.059   0.829 -0.7154 -0.0921  0.6036
  364MOL0     H49132  10.643   5.884   0.996  0.1270 -2.8416 -1.7757
  364MOL0     H49133  10.780   5.999   1.041 -2.6573  2.4939 -1.3978
  364MOL0     H49134  10.820   5.706   0.946  2.2532  0.6376 -1.6302
  364MOL0     H49135  10.935   5.808   1.032 -1.0536  0.7117 -1.1919
  364MOL0     H49136  10.718   5.610   1.345 -2.4824  2.5718  1.1888
  364MOL0     H49137  11.017   6.269   0.544  0.2241  2.1652 -3.0570
  364MOL0     H49138  11.079   6.368   0.376 -1.9014  1.2105 -0.3584
  364MOL0     H49139  11.183   6.241   0.291  0.1962  0.5651 -1.8224
  364MOL0     H49140  11.053   6.324   0.211 -1.9486 -4.1268 -1.4832
  365MOL0     O49141   0.013  10.438   5.968  0.0559  0.3566 -0.2567
  365MOL0     C49142   0.056  10.548   5.938 -0.5725  0.2670  0.1256
  365MOL0     O49143   0.175  10.604   5.986 -0.1521  0.0101  0.1359
  365MOL0     C49144   0.256  10.516   6.055 -0.5088 -0.4920 -0.3466
  365MOL0     C49145   0.225  10.475   6.189 -0.5005  0.7599  0.5812
  365MOL0     C49146   0.333  10.417   6.251  0.5864 -0.3846 -0.5271
  365MOL0     C49147   0.463  10.407   6.193 -0.4430  0.2422 -0.8192
  365MOL0     O49148   0.572  10.354   6.267 -0.1392 -0.1045  0.4339
  365MOL0     C49149   0.565  10.278   6.395 -0.1105 -1.3687  0.3404
  365MOL0     C49150   0.587  10.355   6.519 -0.2494  0.2988 -0.2982
  365MOL0     C49151   0.723  10.422   6.508  0.4698 -0.2344 -0.1865
  365MOL0     C49152   0.755  10.493   6.634 -0.4238 -0.4292 -0.3285
  365MOL0     C49153   0.831  10.397   6.729 -0.5161 -0.1268 -0.3429
  365MOL0     C49154   0.854  10.451   6.866 -0.2242  0.4145  0.0151
  365MOL0     C49155   0.945  10.355   6.950  0.6464  0.0907 -0.2870
  365MOL0     C49156   0.918  10.390   7.101 -0.4468  0.5396  0.7287
  365MOL0     N49157   1.013  10.308   7.179 -0.8087  0.0722  0.3859
  365MOL0     C49158   0.962  10.227   7.272 -0.6297  0.1594 -0.7817
  365MOL0     C49159   1.068  10.186   7.345 -0.1007 -0.7935  0.3246
  365MOL0     C49160   1.058  10.089   7.454 -0.5197 -0.2660  0.6745
  365MOL0     C49161   0.998  10.147   7.578  0.6481  0.2914  0.0487
  365MOL0     C49162   0.847  10.129   7.593 -0.0826  1.2064  0.2981
  365MOL0     C49163   0.798   9.986   7.554 -0.7123  0.7575 -0.3489
  365MOL0     O49164   0.759   9.964   7.418 -0.1212 -0.7598 -0.2231
  365MOL0     C49165   0.644  10.026   7.373  0.6114  0.1831 -0.0428
  365MOL0     C49166   0.605  10.032   7.233 -0.0751  0.4362 -0.7577
  365MOL0     C49167   0.491  10.097   7.187  0.2602  0.0218 -1.4547
  365MOL0     C49168   0.415  10.165   7.276  0.2390 -0.0586 -0.6470
  365MOL0     C49169   0.303  10.257   7.216 -0.3736  0.0363  0.1212
  365MOL0     O49170   0.192  10.286   7.293 -0.1084  0.3500 -0.5325
  365MOL0     C49171   0.127  10.407   7.262 -0.3478 -0.1433  0.3631
  365MOL0     C49172   0.199  10.524   7.244 -0.1916  0.0599  0.5605
  365MOL0     C49173   0.131  10.647   7.237 -0.5972 -0.0324  0.2085
  365MOL0     C49174  -0.002  10.660   7.264 -1.0482  0.0464 -0.2822
  365MOL0     O49175  -0.072  10.774   7.253 -0.5958 -0.6422 -0.4832
  365MOL0     C49176  -0.151  10.808   7.136  0.1570  0.0932 -0.9310
  365MOL0     C49177  -0.064  10.849   7.017  0.7337  0.0808 -0.7165
  365MOL0     C49178  -0.130  10.931   6.908 -0.3818  0.0229  0.9404
  365MOL0     C49179  -0.257  10.888   6.855  0.7565  0.2085  0.2386
  365MOL0     C49180  -0.309  11.006   6.756  0.5709  0.3272 -0.9399
  365MOL0     C49181  -0.438  10.956   6.676 -0.0500 -0.5981 -0.6080
  365MOL0     C49182  -0.521  11.075   6.630 -0.3362  0.8696  0.2861
  365MOL0     C49183  -0.622  11.036   6.518  0.5153 -0.2701  0.1774
  365MOL0    Cl49184  -0.722  11.173   6.465 -0.8970 -0.1796  0.0557
  365MOL0     C49185  -0.078  10.543   7.268  0.2166 -0.5270 -0.2311
  365MOL0     C49186  -0.016  10.417   7.266 -0.2112 -1.0337 -0.3134
  365MOL0     O49187   0.336  10.302   7.110  0.3084 -0.2038 -0.2629
  365MOL0     C49188   0.436  10.165   7.415  0.7407 -0.2580 -0.7461
  365MOL0     C49189   0.554  10.096   7.460  0.1055  0.2050  0.3078
  365MOL0     N49190   1.174  10.260   7.300  0.7696 -0.1343 -0.3498
  365MOL0     N49191   1.144  10.327   7.197 -0.6611 -0.7855 -0.7605
  365MOL0     C49192   0.493  10.461   6.073 -0.1814  0.6133  0.1960
  365MOL0     C49193   0.389  10.517   6.004 -0.5123  0.2616 -0.1126
  365MOL0     C49194  -0.034  10.640   5.852 -0.8835 -0.3072 -0.3789
  365MOL0     C49195   0.019  10.768   5.829 -0.2421 -0.6002 -0.0497
  365MOL0     C49196  -0.045  10.876   5.763 -0.0759 -0.4476  1.1685
  365MOL0     C49197  -0.178  10.849   5.739  0.5982 -0.0653 -0.3139
  365MOL0     O49198  -0.259  10.941   5.665 -0.4134  0.0247  1.0363
  365MOL0     C49199  -0.240  11.085   5.685 -0.5690  0.7787 -1.0249
  365MOL0     C49200  -0.367  11.173   5.631 -0.6219 -0.3077 -0.2941
  365MOL0     C49201  -0.499  11.117   5.679 -0.0963  0.4560 -0.4025
  365MOL0     C49202  -0.623  11.179   5.618  0.6155  0.5344 -0.0535
  365MOL0     C49203  -0.648  11.304   5.692 -0.8931  1.3156 -1.0743
  365MOL0     C49204  -0.664  11.410   5.745 -0.1877  0.3346  0.1029
  365MOL0     C49205  -0.240  10.727   5.779 -0.6150  1.6836  1.1170
  365MOL0     C49206  -0.162  10.617   5.818  0.5453 -1.3220 -0.9719
  365MOL0     C49207  -0.256  10.490   5.843 -0.3438  0.8986 -0.0963
  365MOL0     H49208   0.124  10.483   6.227  0.9523  2.4306  4.6953
  365MOL0     H49209   0.307  10.391   6.353 -0.7435  1.2359 -0.3971
  365MOL0     H49210   0.463  10.241   6.401 -0.9591  0.5091 -1.3830
  365MOL0     H49211   0.647  10.205   6.394 -1.3512 -2.8139  0.8623
  365MOL0     H49212   0.583  10.277   6.596  1.3402  0.3783 -0.0966
  365MOL0     H49213   0.509  10.429   6.540  0.2464  1.2088 -1.5573
  365MOL0     H49214   0.722  10.500   6.431 -0.6694 -0.5476 -0.5084
  365MOL0     H49215   0.796  10.343   6.491  2.7326  1.9913 -1.5048
  365MOL0     H49216   0.817  10.580   6.614  1.5048 -1.7515 -0.3128
  365MOL0     H49217   0.660  10.521   6.680 -0.4614  1.6909 -1.5932
  365MOL0     H49218   0.789  10.298   6.745  4.1197 -1.9890  2.1884
  365MOL0     H49219   0.930  10.386   6.684  0.2324  0.9585  0.9832
  365MOL0     H49220   0.914  10.541   6.853  0.5920 -0.3247 -1.5945
  365MOL0     H49221   0.758  10.471   6.913  0.4186 -2.2763  2.7981
  365MOL0     H49222   1.049  10.367   6.919  0.8045 -2.8411 -1.1846
  365MOL0     H49223   0.904  10.255   6.933  2.9045 -0.9930  0.3536
  365MOL0     H49224   0.938  10.495   7.120  1.0752  0.2822  0.6856
  365MOL0     H49225   0.817  10.362   7.131 -0.2104  0.0431  1.0839
  365MOL0     H49226   0.863  10.185   7.287 -1.6220  2.4755 -0.3807
  365MOL0     H49227   1.020   9.993   7.420 -2.8251  0.8157 -0.0206
  365MOL0     H49228   1.160  10.059   7.481  0.2619 -0.2813 -1.9943
  365MOL0     H49229   1.050  10.113   7.668 -3.2543  0.1399  2.4438
  365MOL0     H49230   1.017  10.255   7.570  1.1025  0.1419 -1.1749
  365MOL0     H49231   0.802  10.202   7.525  1.7160  2.6503  0.5902
  365MOL0     H49232   0.820  10.150   7.697 -0.7549 -0.6155  0.5451
  365MOL0     H49233   0.720   9.946   7.620  0.6394  0.9286  1.4182
  365MOL0     H49234   0.883   9.922   7.578 -1.7072 -1.3042 -2.0117
  365MOL0     H49235   0.668   9.976   7.164  1.0968 -0.3668  0.8929
  365MOL0     H49236   0.491  10.096   7.079 -1.3310 -2.9530 -1.5177
  365MOL0     H49237   0.308  10.527   7.250 -0.1697 -0.0978  0.2686
  365MOL0     H49238   0.182  10.742   7.220 -1.4664  0.3128 -0.5418
  365MOL0     H49239  -0.212  10.721   7.108  0.7798 -0.0461 -1.9302
  365MOL0     H49240  -0.218  10.888   7.169  0.0733 -0.9936  1.7599
  365MOL0     H49241   0.025  10.904   7.050  0.7111 -0.7568  0.8353
  365MOL0     H49242  -0.025  10.755   6.979  1.1348  0.0584 -0.2607
  365MOL0     H49243  -0.136  11.032   6.950  0.1948  0.0411  0.9889
  365MOL0     H49244  -0.060  10.945   6.825 -1.1830  2.6407  0.5987
  365MOL0     H49245  -0.319  10.868   6.943 -2.2727  1.0638 -1.5530
  365MOL0     H49246  -0.246  10.795   6.799  0.8472  0.4230 -0.0975
  365MOL0     H49247  -0.230  11.039   6.688  1.6115  1.3639  0.7141
  365MOL0     H49248  -0.342  11.095   6.810 -1.5720  0.1582 -1.8705
  365MOL0     H49249  -0.408  10.887   6.597  2.4766 -0.1806 -0.0935
  365MOL0     H49250  -0.510  10.910   6.744  0.0867  0.8071  0.5303
  365MOL0     H49251  -0.460  11.155   6.587 -2.7239  1.8285 -1.5427
  365MOL0     H49252  -0.578  11.107   6.717 -1.9312  0.3670 -0.5451
  365MOL0     H49253  -0.572  11.002   6.427  1.6344  1.0361  0.2790
  365MOL0     H49254  -0.690  10.960   6.558 -3.2666  4.3319  3.8572
  365MOL0     H49255  -0.187  10.546   7.269  0.2116  1.0583 -1.1518
  365MOL0     H49256  -0.064  10.320   7.280  0.4650 -1.5390 -1.4519
  365MOL0     H49257   0.376  10.223   7.484  2.4282  1.0976 -0.3353
  365MOL0     H49258   0.562  10.092   7.569 -0.7698 -0.8254  0.3436
  365MOL0     H49259   0.590  10.443   6.029  1.2652 -0.1781  3.4552
  365MOL0     H49260   0.393  10.553   5.902 -0.5835  0.6743  0.0280
  365MOL0     H49261   0.123  10.794   5.848  0.5410 -2.4187 -1.5020
  365MOL0     H49262  -0.001  10.970   5.732 -0.5842 -0.2585  1.0132
  365MOL0     H49263  -0.153  11.107   5.623  0.9548 -0.3886  0.5903
  365MOL0     H49264  -0.202  11.105   5.786 -1.5606  0.3878 -0.5630
  365MOL0     H49265  -0.369  11.177   5.521  2.0765  1.6818 -0.3711
  365MOL0     H49266  -0.353  11.273   5.672  1.1499 -1.3417  1.8065
  365MOL0     H49267  -0.505  11.114   5.788  2.2093  2.9686 -0.0973
  365MOL0     H49268  -0.498  11.014   5.643 -0.3071  0.6897 -1.1023
  365MOL0     H49269  -0.610  11.189   5.509 -0.2448  0.0435 -0.2165
  365MOL0     H49270  -0.706  11.110   5.637 -0.2705  2.3814  3.7574
  365MOL0     H49271  -0.666  11.507   5.791  0.9156  0.6486 -0.4789
  365MOL0     H49272  -0.345  10.719   5.753 -0.0063 -1.4915 -0.8601
  365MOL0     H49273  -0.299  10.491   5.944  0.2335  0.2238  0.1633
  365MOL0     H49274  -0.329  10.495   5.762 -0.3831 -3.1784 -0.4959
  365MOL0     H49275  -0.194  10.402   5.823  0.1614  1.1841  0.1837
  366MOL0     O49276   4.861   5.728   7.169 -0.2124 -0.9029 -0.0948
  366MOL0     C49277   4.778   5.644   7.125 -0.9430  0.9497 -0.5316
  366MOL0     O49278   4.802   5.508   7.137  0.1993  0.3889 -0.5245
  366MOL0     C49279   4.924   5.464   7.189  0.7024  0.1318 -0.4412
  366MOL0     C49280   5.010   5.394   7.099 -0.0198 -0.8204  1.0449
  366MOL0     C49281   5.137   5.357   7.145 -0.9822  0.0908 -0.0693
  366MOL0     C49282   5.180   5.396   7.276 -0.1419  0.0030  0.1828
  366MOL0     O49283   5.299   5.345   7.304  0.1512  0.5318  0.0321
  366MOL0     C49284   5.340   5.341   7.436 -0.9111  0.3839 -0.6664
  366MOL0     C49285   5.468   5.256   7.438  0.0259  0.6800 -0.3558
  366MOL0     C49286   5.578   5.318   7.363 -0.1403 -0.1467 -0.3361
  366MOL0     C49287   5.716   5.290   7.428 -0.6399 -0.8495 -0.3125
  366MOL0     C49288   5.838   5.346   7.355 -0.0666 -0.5517 -0.2837
  366MOL0     C49289   5.872   5.304   7.211 -0.1085 -0.0981 -0.0983
  366MOL0     C49290   5.898   5.152   7.185 -0.2077  0.0596  0.0300
  366MOL0     C49291   6.042   5.109   7.250  0.5738  0.4367  0.7004
  366MOL0     N49292   6.082   4.963   7.225 -0.0433  0.5951 -0.5051
  366MOL0     C49293   6.047   4.890   7.116  0.0389  0.7640  0.5073
  366MOL0     C49294   6.094   4.766   7.129 -0.4531  0.0133 -0.2705
  366MOL0     C49295   6.086   4.655   7.023 -0.6667  0.6812 -1.0513
  366MOL0     C49296   6.230   4.589   6.992  0.1879 -0.1207  0.4907
  366MOL0     C49297   6.306   4.651   6.869  0.0248  0.5371 -0.7064
  366MOL0     C49298   6.426   4.563   6.832 -0.4904  0.1712 -0.4067
  366MOL0     O49299   6.512   4.616   6.730 -0.4229 -0.3168 -0.7130
  366MOL0     C49300   6.639   4.669   6.758  0.3492  0.7917 -0.2090
  366MOL0     C49301   6.749   4.584   6.734 -0.1893 -0.1255 -0.7434
  366MOL0     C49302   6.882   4.621   6.752  0.5307 -0.0366  0.2794
  366MOL0     C49303   6.907   4.764   6.766  0.2035  0.8875 -0.8442
  366MOL0     C49304   7.044   4.810   6.753 -0.2252 -0.2774 -0.4445
  366MOL0     O49305   7.142   4.712   6.746 -0.3200 -0.6224 -0.1566
  366MOL0     C49306   7.268   4.750   6.691  0.3354  0.1715  0.1617
  366MOL0     C49307   7.374   4.679   6.729 -1.0840 -0.5232 -0.2818
  366MOL0     C49308   7.506   4.693   6.667  0.0313  0.1564  0.1575
  366MOL0     C49309   7.530   4.786   6.572 -0.1394 -0.7407  0.4839
  366MOL0     O49310   7.647   4.797   6.497  0.0059  0.5131 -0.2302
  366MOL0     C49311   7.764   4.721   6.535 -0.2113 -0.4299  0.0869
  366MOL0     C49312   7.876   4.755   6.443 -0.1034  0.4144  0.2786
  366MOL0     C49313   7.891   4.684   6.306 -0.6597  0.1995  0.3743
  366MOL0     C49314   8.035   4.704   6.254 -0.4494  0.1243  0.2441
  366MOL0     C49315   8.037   4.630   6.122 -0.1357 -0.3721 -0.1219
  366MOL0     C49316   8.156   4.644   6.029  0.4648 -0.0499 -0.1456
  366MOL0     C49317   8.149   4.547   5.917 -0.6044  0.6321  0.0027
  366MOL0     C49318   8.216   4.409   5.955  0.1415 -0.6881 -0.4249
  366MOL0    Cl49319   8.237   4.313   5.812 -0.1481  0.3651 -0.0804
  366MOL0     C49320   7.422   4.864   6.532  0.3674 -0.2135  0.7409
  366MOL0     C49321   7.295   4.848   6.591  0.1347 -0.5413  0.1698
  366MOL0     O49322   7.067   4.933   6.746 -0.3689  0.1190  0.3137
  366MOL0     C49323   6.795   4.852   6.765  1.1715 -0.6063  0.1628
  366MOL0     C49324   6.659   4.803   6.772  0.1334 -0.3977 -0.0956
  366MOL0     N49325   6.178   4.775   7.240  0.2181  0.4618 -0.4454
  366MOL0     N49326   6.174   4.890   7.292 -0.1967  0.9186 -0.5771
  366MOL0     C49327   5.094   5.473   7.357 -0.3506 -0.3130  0.2969
  366MOL0     C49328   4.963   5.506   7.316  0.2782  0.1307  0.8277
  366MOL0     C49329   4.653   5.685   7.062  1.1500  0.3670 -0.0210
  366MOL0     C49330   4.575   5.778   7.129 -0.0872 -0.2442 -1.0426
  366MOL0     C49331   4.455   5.824   7.071 -0.5600  0.3819 -0.5038
  366MOL0     C49332   4.419   5.774   6.943  0.3604 -0.8029 -0.0265
  366MOL0     O49333   4.310   5.832   6.884  0.3940  0.5716  0.0021
  366MOL0     C49334   4.325   5.971   6.845  0.3223  1.3767 -0.0465
  366MOL0     C49335   4.189   6.032   6.828 -0.1674  0.5914  0.0353
  366MOL0     C49336   4.195   6.183   6.817 -0.1311  0.8693 -0.1015
  366MOL0     C49337   4.082   6.245   6.890  0.0977 -0.7785 -0.0411
  366MOL0     C49338   4.121   6.257   7.031  0.0226  0.3622 -0.5922
  366MOL0     C49339   4.153   6.263   7.147 -0.1573  0.1171 -0.1556
  366MOL0     C49340   4.499   5.680   6.869  0.5957  0.2008  0.4792
  366MOL0     C49341   4.614   5.642   6.933 -0.0716  0.2108  0.5180
  366MOL0     C49342   4.702   5.551   6.845  0.1261 -0.7640 -1.2068
  366MOL0     H49343   4.977   5.362   7.000 -0.4498 -0.2488  0.9959
  366MOL0     H49344   5.203   5.306   7.076 -2.1466  0.7767 -1.7857
  366MOL0     H49345   5.368   5.439   7.474  0.9469  0.3831 -1.9280
  366MOL0     H49346   5.260   5.304   7.501  0.8882 -0.2828  1.2670
  366MOL0     H49347   5.446   5.158   7.393 -0.0851  0.3506  0.4004
  366MOL0     H49348   5.499   5.251   7.543  2.8022  0.0002 -1.1376
  366MOL0     H49349   5.562   5.426   7.368  1.1798  0.0414  0.4418
  366MOL0     H49350   5.583   5.279   7.261 -1.4683 -0.4994 -0.2740
  366MOL0     H49351   5.718   5.339   7.526 -1.9086  3.9846 -2.4139
  366MOL0     H49352   5.733   5.183   7.444  0.3067 -1.7535 -5.4031
  366MOL0     H49353   5.819   5.454   7.349 -0.5637 -0.7199 -2.4902
  366MOL0     H49354   5.927   5.323   7.414  2.2947  3.1515 -1.9721
  366MOL0     H49355   5.779   5.319   7.156 -0.0824  1.9659  0.3588
  366MOL0     H49356   5.950   5.368   7.168  0.9843  0.4706  2.5151
  366MOL0     H49357   5.901   5.138   7.076 -1.0070 -1.1517  0.1491
  366MOL0     H49358   5.825   5.085   7.231 -0.1224  0.6493  1.0632
  366MOL0     H49359   6.131   5.165   7.221  1.2385 -1.3561 -1.0081
  366MOL0     H49360   6.028   5.121   7.357 -1.1107  0.6654  0.4825
  366MOL0     H49361   5.995   4.921   7.026  1.5834 -0.6675 -0.9493
  366MOL0     H49362   6.010   4.583   7.051  0.4263  0.1328  0.6331
  366MOL0     H49363   6.052   4.698   6.928 -1.1914 -1.1790 -1.7476
  366MOL0     H49364   6.288   4.603   7.084 -0.3822  0.3589  0.7887
  366MOL0     H49365   6.211   4.482   6.983 -1.4096  0.2463 -1.1158
  366MOL0     H49366   6.343   4.749   6.901 -0.9576  0.9158 -0.7206
  366MOL0     H49367   6.246   4.659   6.778 -1.3385 -1.9221 -0.1017
  366MOL0     H49368   6.387   4.471   6.789 -1.1241 -1.2274  2.8523
  366MOL0     H49369   6.489   4.537   6.917  0.6657  0.1479 -1.2491
  366MOL0     H49370   6.734   4.478   6.715  2.2133 -1.0129  1.6045
  366MOL0     H49371   6.951   4.538   6.755  0.2408 -0.6168 -3.4726
  366MOL0     H49372   7.360   4.608   6.809 -3.1228  2.1950  1.9573
  366MOL0     H49373   7.585   4.626   6.699 -0.3656  0.6343  2.2851
  366MOL0     H49374   7.785   4.751   6.638  3.2090  0.6357 -0.7906
  366MOL0     H49375   7.746   4.614   6.530 -2.7586 -0.0222 -0.8163
  366MOL0     H49376   7.872   4.861   6.414  0.4150  0.4469  0.3091
  366MOL0     H49377   7.963   4.739   6.508 -0.5345 -1.0957  0.5276
  366MOL0     H49378   7.872   4.577   6.311  0.7153 -0.0161  1.5042
  366MOL0     H49379   7.823   4.740   6.240 -1.4883 -0.4343  0.6736
  366MOL0     H49380   8.107   4.651   6.317 -1.8940 -0.3173  1.5955
  366MOL0     H49381   8.064   4.808   6.237 -2.3808  0.4485 -1.4394
  366MOL0     H49382   7.950   4.659   6.063 -0.1731 -1.1865 -0.4826
  366MOL0     H49383   8.022   4.524   6.147 -0.8063 -0.2427  0.0449
  366MOL0     H49384   8.162   4.745   5.988 -0.3706 -0.4332 -1.2591
  366MOL0     H49385   8.246   4.629   6.090  1.3667  1.8978 -0.9152
  366MOL0     H49386   8.225   4.592   5.852 -0.1924 -0.4926 -0.3073
  366MOL0     H49387   8.049   4.544   5.874 -1.6151 -2.1618  2.2481
  366MOL0     H49388   8.316   4.430   5.995  0.7188 -0.0585 -2.1208
  366MOL0     H49389   8.163   4.353   6.033  0.4891 -0.1126  0.2351
  366MOL0     H49390   7.423   4.928   6.445 -1.9557 -0.6771  0.2957
  366MOL0     H49391   7.221   4.920   6.557 -1.0175 -0.7990  1.9703
  366MOL0     H49392   6.813   4.959   6.775 -0.7790 -0.2185 -0.0079
  366MOL0     H49393   6.583   4.880   6.782  2.0868  1.8092 -1.3114
  366MOL0     H49394   5.125   5.514   7.453  1.6645  3.7062 -1.8028
  366MOL0     H49395   4.905   5.579   7.371 -4.4114 -1.3026 -1.6300
  366MOL0     H49396   4.609   5.815   7.224 -1.6611 -0.9863 -0.1486
  366MOL0     H49397   4.390   5.894   7.121 -0.4059 -0.1788  0.5110
  366MOL0     H49398   4.395   5.976   6.761  0.3584 -1.7165 -0.2986
  366MOL0     H49399   4.374   6.033   6.921 -0.3211 -1.1833  2.6246
  366MOL0     H49400   4.138   6.013   6.923  0.3198  1.0201  0.3889
  366MOL0     H49401   4.137   5.992   6.741  0.0998 -0.4262  0.3283
  366MOL0     H49402   4.185   6.221   6.715 -2.7999 -1.0606 -0.6483
  366MOL0     H49403   4.294   6.215   6.851  0.5577 -2.8803  1.9208
  366MOL0     H49404   4.072   6.344   6.844 -0.2907 -1.0849 -0.6238
  366MOL0     H49405   3.992   6.183   6.889 -0.4669  0.0274 -0.1497
  366MOL0     H49406   4.192   6.269   7.247 -1.8760  0.9716  0.5072
  366MOL0     H49407   4.466   5.659   6.767  0.9779  1.4349  0.0890
  366MOL0     H49408   4.719   5.448   6.876  0.6833 -1.1898 -2.8250
  366MOL0     H49409   4.658   5.544   6.745 -1.7606 -0.7241 -0.4321
  366MOL0     H49410   4.797   5.604   6.845  0.1308 -0.2530  3.8204
  367MOL0     O49411   6.326   6.110   6.493 -0.2166  0.1419  0.1033
  367MOL0     C49412   6.411   6.087   6.408  0.0461  1.1874  0.6695
  367MOL0     O49413   6.385   6.061   6.282  0.6965 -0.9027  1.0483
  367MOL0     C49414   6.253   6.042   6.246  0.2519 -0.0354  0.1660
  367MOL0     C49415   6.161   5.942   6.301 -0.5897 -0.0172  0.6363
  367MOL0     C49416   6.031   5.922   6.248  0.5887  1.1434  0.2114
  367MOL0     C49417   5.983   6.000   6.144  0.1160 -0.9491  0.1992
  367MOL0     O49418   5.850   5.988   6.095 -0.5831  0.2187  0.1753
  367MOL0     C49419   5.812   6.010   5.953 -0.1317 -0.0282  0.2088
  367MOL0     C49420   5.671   6.070   5.949 -0.0771  0.4387  0.2276
  367MOL0     C49421   5.568   5.965   5.991 -1.1576 -0.7893  0.5921
  367MOL0     C49422   5.569   5.931   6.142  0.0737  0.0056  1.6903
  367MOL0     C49423   5.427   5.909   6.198 -0.3582  0.4096 -0.2841
  367MOL0     C49424   5.452   5.885   6.349 -0.1199 -1.0153  0.4031
  367MOL0     C49425   5.315   5.857   6.416 -0.3710  0.4731  0.3357
  367MOL0     C49426   5.229   5.982   6.431  1.2893 -0.1659 -0.2561
  367MOL0     N49427   5.282   6.066   6.547 -0.3009 -0.0656  0.0690
  367MOL0     C49428   5.303   6.025   6.676 -0.2794 -1.3881  0.3229
  367MOL0     C49429   5.348   6.140   6.741 -0.0171  0.0672 -0.2819
  367MOL0     C49430   5.390   6.138   6.879  0.4370  0.3421 -0.5810
  367MOL0     C49431   5.530   6.082   6.899 -0.4626 -0.3155 -0.6320
  367MOL0     C49432   5.638   6.173   6.841  0.4842  0.4180 -0.6310
  367MOL0     C49433   5.775   6.109   6.842 -0.1380 -0.2488 -0.1815
  367MOL0     O49434   5.781   6.000   6.754  0.4768 -0.1025 -0.8401
  367MOL0     C49435   5.901   5.928   6.732  0.1499  0.1549 -0.1139
  367MOL0     C49436   5.906   5.824   6.639  0.3449  0.1815 -0.0049
  367MOL0     C49437   6.026   5.747   6.621 -0.2196 -0.4706 -0.2073
  367MOL0     C49438   6.150   5.792   6.678  0.5554  0.4730 -0.0432
  367MOL0     C49439   6.276   5.725   6.629 -0.7959 -0.3060 -0.6978
  367MOL0     O49440   6.271   5.652   6.519 -0.6016  0.9332 -0.0295
  367MOL0     C49441   6.392   5.608   6.470  1.2218  0.6527  0.0871
  367MOL0     C49442   6.443   5.482   6.517 -0.1150 -0.0646 -0.3724
  367MOL0     C49443   6.562   5.434   6.463  0.7604 -0.6643 -0.0650
  367MOL0     C49444   6.625   5.500   6.358  0.0640  0.2486 -0.0722
  367MOL0     O49445   6.732   5.445   6.298 -0.4260  0.2037  0.6565
  367MOL0     C49446   6.704   5.355   6.191 -0.0723 -0.7041 -0.3603
  367MOL0     C49447   6.787   5.394   6.071  0.0451  0.6888  1.1950
  367MOL0     C49448   6.696   5.480   5.971  0.1780  0.7130  0.2453
  367MOL0     C49449   6.599   5.387   5.892 -0.8600  0.1268  0.1393
  367MOL0     C49450   6.532   5.457   5.778  0.7100 -0.0826  0.1427
  367MOL0     C49451   6.452   5.344   5.708  1.1316 -1.3698 -0.0208
  367MOL0     C49452   6.402   5.394   5.579 -0.5354  0.4656 -0.1907
  367MOL0     C49453   6.318   5.311   5.485 -0.6326  0.0327 -1.1741
  367MOL0    Cl49454   6.167   5.281   5.561 -0.1106  0.0777  0.5133
  367MOL0     C49455   6.576   5.631   6.324  0.2040 -0.0128  0.4675
  367MOL0     C49456   6.459   5.681   6.377  0.7276 -0.1879 -0.5679
  367MOL0     O49457   6.382   5.759   6.694  0.4479 -0.3794  0.6788
  367MOL0     C49458   6.145   5.897   6.766 -0.7569 -0.0177 -0.5119
  367MOL0     C49459   6.022   5.954   6.811 -0.2637  0.4135 -0.1677
  367MOL0     N49460   5.361   6.236   6.642 -0.5936 -0.2373 -0.1179
  367MOL0     N49461   5.320   6.192   6.530  0.1642 -0.2322 -0.2092
  367MOL0     C49462   6.073   6.101   6.100  0.4067 -0.6673 -0.3257
  367MOL0     C49463   6.200   6.124   6.153  0.4930 -0.6526 -0.7643
  367MOL0     C49464   6.558   6.078   6.455  1.6973 -0.7240 -0.3194
  367MOL0     C49465   6.577   6.057   6.593 -0.9455 -0.1095 -0.3024
  367MOL0     C49466   6.710   6.038   6.635  0.5687 -0.8592  0.0157
  367MOL0     C49467   6.820   6.029   6.550  0.4637 -0.6252  0.2032
  367MOL0     O49468   6.934   5.999   6.619 -0.4940  0.4306  0.3942
  367MOL0     C49469   7.053   5.998   6.538 -0.2893 -0.0559  0.7008
  367MOL0     C49470   7.181   5.949   6.608  0.5172  1.0505 -0.2616
  367MOL0     C49471   7.324   5.988   6.565  0.3649 -0.5863  0.1124
  367MOL0     C49472   7.431   5.965   6.682  0.2761 -0.9336  0.2992
  367MOL0     C49473   7.567   5.930   6.640  1.2751 -0.3138  0.3461
  367MOL0     C49474   7.680   5.885   6.617 -0.1024 -0.0947  0.7837
  367MOL0     C49475   6.801   6.051   6.411 -0.6945 -0.2368 -0.1621
  367MOL0     C49476   6.676   6.084   6.367  0.5899 -0.4504 -0.0451
  367MOL0     C49477   6.665   6.106   6.220  0.0703  0.7338 -0.0362
  367MOL0     H49478   6.200   5.882   6.383 -3.0961  0.9033  2.6572
  367MOL0     H49479   5.971   5.844   6.293  1.3556  1.4426  1.8254
  367MOL0     H49480   5.877   6.083   5.903 -0.3546  0.6246  0.8508
  367MOL0     H49481   5.813   5.913   5.904 -0.8489  0.2327 -0.3303
  367MOL0     H49482   5.637   6.095   5.848 -0.2404 -2.0509 -0.4007
  367MOL0     H49483   5.643   6.161   6.002 -0.3883  1.4022 -1.5160
  367MOL0     H49484   5.586   5.871   5.939  0.4129  0.4043 -1.1773
  367MOL0     H49485   5.470   6.005   5.966 -1.1750 -1.7749 -1.0388
  367MOL0     H49486   5.625   5.839   6.162  0.1845 -0.1953  0.5301
  367MOL0     H49487   5.608   6.018   6.196  0.4283  0.1050  1.2854
  367MOL0     H49488   5.360   5.996   6.186 -1.2067  0.0070  1.2965
  367MOL0     H49489   5.374   5.823   6.157  0.4851 -0.5890  0.6541
  367MOL0     H49490   5.525   5.803   6.356  3.4309  1.9135  0.3251
  367MOL0     H49491   5.493   5.975   6.394 -0.2330 -1.4895  1.4859
  367MOL0     H49492   5.341   5.819   6.515  1.5512 -1.2013 -0.7415
  367MOL0     H49493   5.267   5.776   6.360 -0.3812  0.2189  0.7095
  367MOL0     H49494   5.219   6.033   6.335 -0.5099  2.7002  1.3068
  367MOL0     H49495   5.127   5.954   6.459  1.6543 -1.0413  0.2360
  367MOL0     H49496   5.270   5.931   6.719 -2.7337 -0.9893 -0.5082
  367MOL0     H49497   5.386   6.240   6.919 -1.8140  0.9090 -2.1191
  367MOL0     H49498   5.319   6.074   6.932  0.9309  0.9854  0.9357
  367MOL0     H49499   5.547   6.066   7.006 -0.9753 -2.1850 -0.8040
  367MOL0     H49500   5.535   5.981   6.858  1.9562 -0.7146  0.4543
  367MOL0     H49501   5.643   6.262   6.904  2.1841  0.0249 -0.1653
  367MOL0     H49502   5.612   6.208   6.740  1.0517  2.0958 -0.2316
  367MOL0     H49503   5.788   6.087   6.949  3.7041  0.0602 -0.4691
  367MOL0     H49504   5.854   6.172   6.801 -1.2633  1.2207 -0.1803
  367MOL0     H49505   5.819   5.798   6.580 -0.3402  0.5001  0.8515
  367MOL0     H49506   6.028   5.671   6.543  0.8473  1.4450 -2.1809
  367MOL0     H49507   6.375   5.424   6.579 -0.9589 -0.3706 -1.5448
  367MOL0     H49508   6.609   5.341   6.491  0.6284 -0.1313  2.1400
  367MOL0     H49509   6.727   5.257   6.231 -0.5343 -0.1514  1.3335
  367MOL0     H49510   6.598   5.352   6.164 -0.1487  0.7886 -0.3405
  367MOL0     H49511   6.867   5.460   6.105 -0.0353  2.5992 -1.9334
  367MOL0     H49512   6.830   5.311   6.014 -2.2197  0.9409 -1.0541
  367MOL0     H49513   6.640   5.560   6.019  2.4019  1.8661  1.0960
  367MOL0     H49514   6.762   5.530   5.899 -0.8617  1.1520 -0.4285
  367MOL0     H49515   6.523   5.347   5.959  0.4754 -2.8060  0.0300
  367MOL0     H49516   6.660   5.310   5.844  0.4757  2.6172 -2.5150
  367MOL0     H49517   6.602   5.504   5.708  0.4622 -1.7573 -1.3289
  367MOL0     H49518   6.459   5.533   5.807 -0.1317 -0.6777 -0.3787
  367MOL0     H49519   6.527   5.266   5.693  3.1804 -0.1444  2.9396
  367MOL0     H49520   6.365   5.314   5.768  0.3269 -0.8476 -0.8919
  367MOL0     H49521   6.493   5.401   5.518  0.4973  1.4454  1.3703
  367MOL0     H49522   6.353   5.492   5.586 -2.8344 -0.7081  1.4861
  367MOL0     H49523   6.299   5.353   5.386 -0.7141  1.7470 -0.4638
  367MOL0     H49524   6.370   5.216   5.471  4.5788  2.1577  1.2575
  367MOL0     H49525   6.636   5.689   6.254 -0.9988  0.0360 -0.5452
  367MOL0     H49526   6.411   5.774   6.349  1.9114 -0.5098 -4.2123
  367MOL0     H49527   6.236   5.925   6.817 -0.6554 -3.1390  1.2261
  367MOL0     H49528   6.026   6.027   6.891  2.2075 -0.3625  0.4981
  367MOL0     H49529   6.054   6.164   6.014 -0.3058 -1.4222 -0.7359
  367MOL0     H49530   6.278   6.191   6.118  0.5631  1.0286  2.2440
  367MOL0     H49531   6.498   6.059   6.668  1.4564  0.0848  2.3860
  367MOL0     H49532   6.728   6.005   6.737  0.1088  0.5100  0.5601
  367MOL0     H49533   7.075   6.100   6.504 -0.1744 -0.4913 -0.5914
  367MOL0     H49534   7.043   5.945   6.443  0.2680  3.6748 -1.6424
  367MOL0     H49535   7.171   5.840   6.613 -2.6014  1.2491  0.0370
  367MOL0     H49536   7.165   5.983   6.711  2.6139 -3.4439  1.8233
  367MOL0     H49537   7.321   6.093   6.535  0.2410 -0.4442  0.6053
  367MOL0     H49538   7.346   5.941   6.469 -0.4806  4.5550 -2.9622
  367MOL0     H49539   7.446   6.056   6.740 -2.0417 -0.0413 -0.4066
  367MOL0     H49540   7.398   5.889   6.754  1.9278 -2.6277 -0.6235
  367MOL0     H49541   7.778   5.843   6.609  1.0475  2.6902 -1.2262
  367MOL0     H49542   6.888   6.053   6.345 -0.4389 -0.2053  0.1703
  367MOL0     H49543   6.754   6.161   6.190  1.4612 -2.2166 -1.7917
  367MOL0     H49544   6.658   6.008   6.171 -1.5263  0.7831  0.0295
  367MOL0     H49545   6.578   6.172   6.209 -0.0777  1.6087  4.4188
  368MOL0     O49546   7.482  11.014   4.277  0.8238 -0.2720 -0.9056
  368MOL0     C49547   7.460  11.076   4.177  0.1628  0.8004 -0.5599
  368MOL0     O49548   7.552  11.110   4.092 -0.1930  0.4262  0.3021
  368MOL0     C49549   7.686  11.059   4.104  0.4153 -0.4593  0.1367
  368MOL0     C49550   7.783  11.150   4.071  0.6421 -0.1339 -0.4148
  368MOL0     C49551   7.914  11.111   4.078  0.6853 -0.4426  0.2113
  368MOL0     C49552   7.955  10.982   4.119  0.1833 -0.3221 -0.0988
  368MOL0     O49553   8.089  10.953   4.092  0.2361  0.4657 -0.6623
  368MOL0     C49554   8.134  10.821   4.104  0.0268  0.2482  0.9896
  368MOL0     C49555   8.175  10.801   4.249 -0.7418 -0.4648 -0.1450
  368MOL0     C49556   8.268  10.683   4.263  0.0707  0.0334  0.2177
  368MOL0     C49557   8.307  10.669   4.402  0.6894 -0.2208  0.2519
  368MOL0     C49558   8.409  10.556   4.433 -0.7986  0.2235 -0.4659
  368MOL0     C49559   8.411  10.507   4.578  0.3844 -0.2226 -0.1287
  368MOL0     C49560   8.284  10.431   4.621  0.1771 -0.3348  1.3806
  368MOL0     C49561   8.258  10.442   4.774 -0.1555  0.8103  0.5680
  368MOL0     N49562   8.302  10.315   4.837  0.2215  0.0245  0.8584
  368MOL0     C49563   8.236  10.192   4.820  0.1714  0.5103  0.1757
  368MOL0     C49564   8.310  10.110   4.899 -0.3666 -0.0582  0.4269
  368MOL0     C49565   8.285   9.972   4.953 -0.1057 -0.0642  0.0958
  368MOL0     C49566   8.213   9.881   4.858  0.0337  0.7203  0.5234
  368MOL0     C49567   8.280   9.864   4.717  0.4062 -0.0546 -0.1704
  368MOL0     C49568   8.421   9.807   4.750  0.0418  0.9379  0.8938
  368MOL0     O49569   8.499   9.765   4.633  0.0530 -0.0316 -0.5790
  368MOL0     C49570   8.580   9.861   4.577  0.3858  0.0199  0.2162
  368MOL0     C49571   8.585   9.999   4.606  0.6853 -0.4250 -0.3643
  368MOL0     C49572   8.672  10.089   4.549  1.0322  0.3213  0.2713
  368MOL0     C49573   8.773  10.040   4.468  0.7479 -0.1758 -0.0213
  368MOL0     C49574   8.890  10.120   4.417 -0.1685  0.4395  0.9036
  368MOL0     O49575   8.954  10.063   4.311 -0.0754 -0.4694  0.1188
  368MOL0     C49576   9.056  10.125   4.240 -0.2276  0.6252 -0.5723
  368MOL0     C49577   9.101  10.254   4.259 -1.0682 -0.0223 -0.3566
  368MOL0     C49578   9.210  10.304   4.177 -0.4177 -0.2411  0.4135
  368MOL0     C49579   9.278  10.219   4.089  0.1014  0.6334  0.3222
  368MOL0     O49580   9.394  10.263   4.031 -0.2060 -0.5926  0.4707
  368MOL0     C49581   9.510  10.205   4.082  0.3354 -0.5492  0.3656
  368MOL0     C49582   9.638  10.240   4.011 -0.2587  0.1522  0.3398
  368MOL0     C49583   9.675  10.393   3.999  0.0989 -0.1338  0.0115
  368MOL0     C49584   9.793  10.421   3.909 -0.6172  0.0809  0.7662
  368MOL0     C49585   9.776  10.550   3.832  0.3371  0.5417 -0.1019
  368MOL0     C49586   9.767  10.677   3.906  0.3968 -0.4996  0.1125
  368MOL0     C49587   9.757  10.802   3.817 -0.1379  0.0180  0.2893
  368MOL0     C49588   9.762  10.933   3.903 -0.3963  1.1614 -1.2266
  368MOL0    Cl49589   9.639  10.927   4.038 -0.3036 -0.5039  0.1856
  368MOL0     C49590   9.223  10.094   4.059 -0.4143  0.8202  0.0758
  368MOL0     C49591   9.112  10.053   4.137  0.6303 -0.2730 -0.0029
  368MOL0     O49592   8.896  10.234   4.449  0.1734  0.1792  0.2078
  368MOL0     C49593   8.765   9.902   4.443 -0.7733  0.5726 -0.4036
  368MOL0     C49594   8.674   9.808   4.486  0.0310 -0.7477  0.0090
  368MOL0     N49595   8.420  10.179   4.946  0.2782  1.5432 -0.4975
  368MOL0     N49596   8.415  10.296   4.907  0.0833  0.4916  0.6515
  368MOL0     C49597   7.854  10.889   4.151 -0.3807 -0.4045 -0.0426
  368MOL0     C49598   7.717  10.926   4.137 -0.3704  0.1405  0.3359
  368MOL0     C49599   7.319  11.124   4.141 -0.5101 -0.0880  0.1827
  368MOL0     C49600   7.309  11.205   4.015  0.3496  0.3526  0.5277
  368MOL0     C49601   7.189  11.237   3.955  0.0687  0.2323  0.1832
  368MOL0     C49602   7.070  11.207   4.023  0.2092 -0.4546  0.5548
  368MOL0     O49603   6.945  11.233   3.964  0.1552 -0.1575  0.2332
  368MOL0     C49604   6.932  11.208   3.825 -0.1102  0.2501 -0.4823
  368MOL0     C49605   6.787  11.197   3.782  0.7261 -0.1764  0.0645
  368MOL0     C49606   6.713  11.331   3.774  0.0608  0.4727 -0.7035
  368MOL0     C49607   6.560  11.333   3.789  0.5891 -0.0005  0.1997
  368MOL0     C49608   6.502  11.470   3.780  0.1610 -0.3177  0.5640
  368MOL0     C49609   6.459  11.581   3.767  0.2053 -0.8643 -1.5154
  368MOL0     C49610   7.074  11.134   4.143 -0.1880  0.2110  0.7910
  368MOL0     C49611   7.193  11.094   4.204  0.1327 -0.5228 -0.5129
  368MOL0     C49612   7.189  11.024   4.332 -0.6804 -0.8325 -0.0865
  368MOL0     H49613   7.754  11.246   4.030 -0.9325 -0.6077 -0.5170
  368MOL0     H49614   7.991  11.180   4.045  1.3898 -0.7255  1.2357
  368MOL0     H49615   8.064  10.742   4.076 -1.2068  0.7698  2.4923
  368MOL0     H49616   8.213  10.808   4.029 -0.3961 -0.5680  0.6708
  368MOL0     H49617   8.081  10.784   4.303 -0.6949 -1.9544 -0.5088
  368MOL0     H49618   8.220  10.894   4.284 -1.6940  0.1476 -0.5112
  368MOL0     H49619   8.358  10.701   4.204  0.3734 -0.9543  0.3586
  368MOL0     H49620   8.211  10.595   4.233  0.3898 -0.5485  1.2432
  368MOL0     H49621   8.356  10.761   4.434  0.3032  0.2545 -0.4791
  368MOL0     H49622   8.219  10.650   4.464  0.3441  1.5598  0.3564
  368MOL0     H49623   8.396  10.469   4.369  2.7806 -1.3214  0.6578
  368MOL0     H49624   8.510  10.594   4.419 -0.0599 -1.9601 -1.4504
  368MOL0     H49625   8.494  10.436   4.578  0.1907 -0.4609 -1.2666
  368MOL0     H49626   8.429  10.584   4.653  1.6527  0.9157 -1.5387
  368MOL0     H49627   8.295  10.326   4.590  0.9702  0.0406  0.3414
  368MOL0     H49628   8.201  10.478   4.567  1.1419  0.8503  0.8990
  368MOL0     H49629   8.315  10.522   4.821  0.9844 -0.3279  1.1943
  368MOL0     H49630   8.149  10.452   4.787 -0.1756 -1.2290  2.7055
  368MOL0     H49631   8.146  10.171   4.762  1.6276  0.1965 -2.0819
  368MOL0     H49632   8.382   9.928   4.978 -1.6341 -3.8564 -0.0658
  368MOL0     H49633   8.220   9.974   5.041 -2.6974 -2.8670 -1.5424
  368MOL0     H49634   8.190   9.779   4.889 -2.9120  0.6391 -1.4932
  368MOL0     H49635   8.117   9.926   4.832 -0.0315 -0.4273 -1.3908
  368MOL0     H49636   8.283   9.962   4.668 -1.4707  1.8180  3.1073
  368MOL0     H49637   8.222   9.802   4.648 -0.3044  1.2488 -0.7830
  368MOL0     H49638   8.396   9.715   4.805 -1.9833 -0.0348 -1.4343
  368MOL0     H49639   8.479   9.876   4.812  1.1557 -0.2965  1.2625
  368MOL0     H49640   8.497  10.038   4.657  0.1004 -1.3474 -0.6264
  368MOL0     H49641   8.652  10.195   4.561  1.1569  0.1429  2.3725
  368MOL0     H49642   9.065  10.319   4.338  1.5228  2.4513 -1.0427
  368MOL0     H49643   9.246  10.404   4.201 -0.0793 -0.4908  0.9514
  368MOL0     H49644   9.524  10.227   4.189  0.7661 -1.9961  0.6196
  368MOL0     H49645   9.488  10.098   4.074 -2.6699 -0.2091  2.3842
  368MOL0     H49646   9.719  10.187   4.062 -1.0149  0.7126  2.2001
  368MOL0     H49647   9.632  10.197   3.910 -0.1324  1.8850 -0.4390
  368MOL0     H49648   9.600  10.461   3.958  2.5374  2.4253 -0.5517
  368MOL0     H49649   9.705  10.438   4.094  3.7981  1.5061 -1.7342
  368MOL0     H49650   9.808  10.337   3.840  0.6286  0.8798  0.0207
  368MOL0     H49651   9.886  10.420   3.967  1.2410 -0.8295 -1.9845
  368MOL0     H49652   9.685  10.547   3.772  2.2709 -1.4748 -3.1979
  368MOL0     H49653   9.861  10.550   3.763  0.9252 -1.0724  0.5648
  368MOL0     H49654   9.675  10.668   3.964  0.6171 -1.6294  0.3147
  368MOL0     H49655   9.851  10.694   3.973 -0.6374  3.3155  0.6668
  368MOL0     H49656   9.669  10.789   3.753  0.5219  1.7850 -1.0349
  368MOL0     H49657   9.854  10.801   3.766  0.0324 -0.4584  0.6071
  368MOL0     H49658   9.856  10.959   3.951 -0.8929 -1.5794  1.5253
  368MOL0     H49659   9.727  11.014   3.837  2.8053  3.9964  0.2469
  368MOL0     H49660   9.263  10.023   3.987  0.5123  1.3148  0.0887
  368MOL0     H49661   9.067   9.955   4.125 -0.5278 -0.1882  2.7232
  368MOL0     H49662   8.839   9.861   4.374  0.6863 -1.2064  2.0520
  368MOL0     H49663   8.680   9.702   4.464  2.0461 -0.6062 -0.2910
  368MOL0     H49664   7.880  10.789   4.183 -2.9585 -1.0961  0.0985
  368MOL0     H49665   7.644  10.846   4.125 -0.4221  0.6058 -4.8607
  368MOL0     H49666   7.395  11.241   3.960  0.6452 -1.2511 -0.1134
  368MOL0     H49667   7.186  11.308   3.873  0.1411  2.7973  2.2828
  368MOL0     H49668   6.950  11.103   3.802 -0.0065 -0.0078  0.7324
  368MOL0     H49669   6.991  11.280   3.767 -1.1599  1.8162  0.3234
  368MOL0     H49670   6.742  11.132   3.857  2.7304 -1.8542 -0.0998
  368MOL0     H49671   6.778  11.151   3.682  3.5056  1.4036 -1.0165
  368MOL0     H49672   6.740  11.393   3.688 -0.0269  0.0034 -1.0686
  368MOL0     H49673   6.748  11.381   3.865  1.1202 -0.1477 -0.7619
  368MOL0     H49674   6.515  11.272   3.711 -0.2934  1.1316 -0.2041
  368MOL0     H49675   6.511  11.292   3.878 -1.8278 -0.6786 -1.3427
  368MOL0     H49676   6.417  11.680   3.772  2.9867  0.5310 -3.5924
  368MOL0     H49677   6.974  11.100   4.170 -0.8816 -1.4208 -3.0897
  368MOL0     H49678   7.093  10.982   4.363 -0.3238 -1.2238  0.5300
  368MOL0     H49679   7.259  10.940   4.320 -1.2740 -1.7109  2.1784
  368MOL0     H49680   7.224  11.098   4.405 -1.5751  1.8207 -2.1899
  369MOL0     O49681   1.039   0.863   7.729  0.0583 -0.9279  0.1521
  369MOL0     C49682   0.958   0.906   7.641 -0.7886  0.3337 -0.5760
  369MOL0     O49683   1.001   0.967   7.526  0.5550 -0.6586 -1.4630
  369MOL0     C49684   1.127   0.982   7.489 -0.1547  0.6987  0.3385
  369MOL0     C49685   1.171   1.103   7.446  0.5194  0.5794 -1.0972
  369MOL0     C49686   1.307   1.120   7.412  1.1715  0.2783  0.7266
  369MOL0     C49687   1.401   1.022   7.427  0.3133  0.0986  0.7213
  369MOL0     O49688   1.533   1.036   7.389 -0.1341 -0.9592 -0.5587
  369MOL0     C49689   1.600   1.158   7.435  0.7619  0.2157  0.8158
  369MOL0     C49690   1.750   1.152   7.397  0.2222  0.2465  0.3933
  369MOL0     C49691   1.827   1.086   7.514 -0.7982  0.7385 -0.0351
  369MOL0     C49692   1.980   1.068   7.476  0.3865 -0.3268 -0.6817
  369MOL0     C49693   2.050   0.960   7.570 -0.3048 -0.4330 -0.3156
  369MOL0     C49694   2.199   1.005   7.581 -0.3492  0.0577  0.6998
  369MOL0     C49695   2.287   0.909   7.660 -0.0368  0.0499 -0.1840
  369MOL0     C49696   2.238   0.880   7.809  0.2741 -0.1208 -0.2570
  369MOL0     N49697   2.337   0.806   7.894  0.0238  0.9149 -0.3022
  369MOL0     C49698   2.445   0.732   7.855  0.7416 -0.4985  0.0384
  369MOL0     C49699   2.482   0.661   7.962 -0.1495  0.4679  0.1409
  369MOL0     C49700   2.600   0.572   7.950  0.6878  0.1694 -0.4727
  369MOL0     C49701   2.640   0.508   8.085 -0.1133  0.6664 -0.5134
  369MOL0     C49702   2.781   0.437   8.071  0.6623  0.3160  0.7835
  369MOL0     C49703   2.853   0.454   8.196  0.3484  0.4528 -0.2196
  369MOL0     O49704   2.929   0.569   8.230 -0.1740 -0.4558 -0.1629
  369MOL0     C49705   3.009   0.564   8.340  0.3186 -0.3618 -0.4828
  369MOL0     C49706   3.011   0.469   8.445  0.8408  0.0464  0.8446
  369MOL0     C49707   3.097   0.460   8.551  0.3355 -0.0796 -0.2826
  369MOL0     C49708   3.194   0.564   8.553  0.3449  0.4106  0.2161
  369MOL0     C49709   3.285   0.578   8.665 -0.1916  0.3959 -0.4381
  369MOL0     O49710   3.229   0.555   8.795  0.6646 -0.8021  0.1866
  369MOL0     C49711   3.298   0.567   8.911  0.7171  0.0043  0.1922
  369MOL0     C49712   3.409   0.646   8.925  0.2421 -1.0953 -0.2914
  369MOL0     C49713   3.478   0.649   9.042 -1.2162  0.6856 -0.3160
  369MOL0     C49714   3.429   0.577   9.152 -0.2217  0.1739 -0.0644
  369MOL0     O49715   3.488   0.574   9.278  0.0480  0.0266  0.4031
  369MOL0     C49716   3.560   0.689   9.317  0.4615 -0.1373 -0.3644
  369MOL0     C49717   3.714   0.656   9.313 -0.2921 -0.0403 -0.1843
  369MOL0     C49718   3.804   0.747   9.390  0.5501 -0.5092 -0.4602
  369MOL0     C49719   3.791   0.889   9.332  0.3950  0.1767 -0.2352
  369MOL0     C49720   3.869   1.002   9.404  0.1843 -0.7707 -0.1962
  369MOL0     C49721   4.023   0.994   9.379  0.9808 -0.3740 -0.5066
  369MOL0     C49722   4.060   1.023   9.237 -0.5366  0.5123  0.5531
  369MOL0     C49723   4.205   1.000   9.199 -0.5414  0.4928 -0.4349
  369MOL0    Cl49724   4.303   1.142   9.232 -0.2640 -0.0050  0.0106
  369MOL0     C49725   3.308   0.497   9.139 -0.8948 -0.4263  0.3725
  369MOL0     C49726   3.254   0.493   9.014 -0.2029  0.7934 -0.3516
  369MOL0     O49727   3.405   0.605   8.635  0.2027  0.3413  0.8721
  369MOL0     C49728   3.204   0.665   8.449  0.2830 -0.0667  0.6177
  369MOL0     C49729   3.108   0.662   8.346  0.1081  0.1826 -0.2201
  369MOL0     N49730   2.397   0.690   8.066 -0.5284 -0.8417  1.2678
  369MOL0     N49731   2.306   0.775   8.017 -0.4500  0.3233 -0.2130
  369MOL0     C49732   1.357   0.908   7.483  0.1541  0.0233  0.0785
  369MOL0     C49733   1.224   0.878   7.504  0.8988 -0.3912 -0.1309
  369MOL0     C49734   0.819   0.877   7.661  1.2275  0.3217 -0.1004
  369MOL0     C49735   0.767   0.813   7.776  0.5790 -0.4495 -0.0495
  369MOL0     C49736   0.642   0.763   7.785  0.1541  0.4548 -0.0703
  369MOL0     C49737   0.548   0.774   7.688  0.1757  0.8612 -0.0729
  369MOL0     O49738   0.414   0.739   7.709 -0.0727 -0.0880  0.5188
  369MOL0     C49739   0.313   0.782   7.616 -0.1878  0.5047 -0.6148
  369MOL0     C49740   0.178   0.734   7.656 -0.7773  0.1562 -0.5571
  369MOL0     C49741   0.167   0.582   7.633  0.5335  0.4052 -0.5454
  369MOL0     C49742   0.034   0.529   7.682 -0.4194  0.8521  0.0970
  369MOL0     C49743  -0.079   0.606   7.627  0.0053  0.4755  1.3904
  369MOL0     C49744  -0.166   0.673   7.571  0.3497 -0.0526 -0.0539
  369MOL0     C49745   0.595   0.848   7.578 -0.6938  0.1995  0.2168
  369MOL0     C49746   0.722   0.890   7.557 -0.6046 -0.1874 -0.5143
  369MOL0     C49747   0.744   0.976   7.429 -0.5057  0.2065 -0.5249
  369MOL0     H49748   1.100   1.185   7.451 -0.3879 -0.2579  1.0750
  369MOL0     H49749   1.331   1.220   7.376 -1.7743  0.8219  0.0601
  369MOL0     H49750   1.559   1.244   7.380 -2.5657  1.2873  4.4795
  369MOL0     H49751   1.593   1.178   7.542  1.6866 -1.0518  1.1319
  369MOL0     H49752   1.787   1.254   7.383 -2.7576  1.1876 -1.5002
  369MOL0     H49753   1.772   1.101   7.303 -0.8202  1.7985 -0.7462
  369MOL0     H49754   1.786   0.987   7.534  0.5860  0.0847 -0.2718
  369MOL0     H49755   1.818   1.147   7.604 -2.2000 -1.1657  1.1738
  369MOL0     H49756   1.988   1.039   7.371 -0.5329 -1.2128 -0.5298
  369MOL0     H49757   2.018   1.170   7.490  0.7890 -0.5235 -0.3100
  369MOL0     H49758   2.006   0.952   7.670 -1.7351  0.8704 -0.7966
  369MOL0     H49759   2.055   0.860   7.527  0.4408 -2.2947  3.6510
  369MOL0     H49760   2.238   1.012   7.480 -1.0437  0.7297  0.4682
  369MOL0     H49761   2.209   1.106   7.623 -0.5685  0.1590  0.5145
  369MOL0     H49762   2.386   0.956   7.666 -0.0514  0.0586  0.0120
  369MOL0     H49763   2.304   0.816   7.605  0.6785 -1.8324  2.9705
  369MOL0     H49764   2.218   0.974   7.861 -2.8412 -1.2657  0.8468
  369MOL0     H49765   2.138   0.837   7.806 -0.7477  1.9944  1.1340
  369MOL0     H49766   2.495   0.725   7.759 -2.9128 -3.3344 -1.9272
  369MOL0     H49767   2.580   0.497   7.872 -2.1341  0.2002  0.0840
  369MOL0     H49768   2.674   0.643   7.914  0.1238  1.0542  0.0750
  369MOL0     H49769   2.641   0.577   8.170  0.2401  0.1768 -0.1145
  369MOL0     H49770   2.570   0.428   8.109 -1.2473  0.9704 -2.5396
  369MOL0     H49771   2.836   0.489   7.992 -1.6495 -0.0543 -1.2221
  369MOL0     H49772   2.765   0.332   8.044 -0.6825  0.5643  0.5302
  369MOL0     H49773   2.938   0.385   8.194 -1.3109 -1.6907 -1.1663
  369MOL0     H49774   2.785   0.447   8.282  2.9539 -0.6374  1.8761
  369MOL0     H49775   2.939   0.389   8.428  3.1032 -2.1155  0.8296
  369MOL0     H49776   3.097   0.378   8.622  2.7296 -2.3537 -2.6510
  369MOL0     H49777   3.441   0.706   8.840 -4.1639  0.2030 -1.2920
  369MOL0     H49778   3.560   0.718   9.054 -0.2277 -0.4612 -0.2071
  369MOL0     H49779   3.535   0.777   9.257 -1.3317  1.9662  3.1396
  369MOL0     H49780   3.534   0.711   9.421  2.9882 -0.6159  0.4308
  369MOL0     H49781   3.732   0.556   9.354  2.0368 -0.4959 -2.1079
  369MOL0     H49782   3.753   0.668   9.212  0.4177  2.5738  0.3390
  369MOL0     H49783   3.787   0.757   9.497 -1.1098  1.1835 -0.8374
  369MOL0     H49784   3.905   0.711   9.367 -0.2267 -1.2376 -3.0681
  369MOL0     H49785   3.691   0.932   9.336  0.9217  1.3202  2.1243
  369MOL0     H49786   3.813   0.884   9.225 -0.3499 -1.4490 -0.3466
  369MOL0     H49787   3.859   1.000   9.513  3.1445 -1.8018  0.1415
  369MOL0     H49788   3.838   1.101   9.372  3.4662  0.3514 -0.2643
  369MOL0     H49789   4.076   1.065   9.443 -1.0700  0.9533 -0.1901
  369MOL0     H49790   4.061   0.898   9.414  1.8656  0.8924  2.3499
  369MOL0     H49791   4.046   1.130   9.219 -2.8688  0.0049 -1.0816
  369MOL0     H49792   3.997   0.973   9.163  1.1432  2.6563 -2.5507
  369MOL0     H49793   4.249   0.923   9.263 -1.2263  0.3721 -0.1007
  369MOL0     H49794   4.215   0.966   9.096 -0.6747  2.0818 -1.0045
  369MOL0     H49795   3.271   0.439   9.223  1.4437 -0.0626  1.7520
  369MOL0     H49796   3.166   0.431   9.002 -0.6722  1.7180 -2.0269
  369MOL0     H49797   3.272   0.748   8.462 -0.9980  0.8921  1.4407
  369MOL0     H49798   3.110   0.740   8.271  1.9287 -0.8634 -1.3398
  369MOL0     H49799   1.439   0.842   7.511  1.5011  2.2418  1.7120
  369MOL0     H49800   1.206   0.780   7.547 -0.2074  0.8945  2.5477
  369MOL0     H49801   0.837   0.769   7.846  2.4921  1.5902 -0.5451
  369MOL0     H49802   0.611   0.694   7.863 -2.2191 -2.1260 -3.0058
  369MOL0     H49803   0.332   0.742   7.516 -1.3091  0.8995 -0.9928
  369MOL0     H49804   0.298   0.890   7.612 -2.2902  0.3001  0.5400
  369MOL0     H49805   0.108   0.787   7.591 -1.4639 -0.1937 -0.1117
  369MOL0     H49806   0.161   0.768   7.758 -1.2674  0.2412 -0.6654
  369MOL0     H49807   0.246   0.531   7.691  0.9352  0.6672 -0.8589
  369MOL0     H49808   0.176   0.560   7.526  0.0715 -0.5324 -0.4047
  369MOL0     H49809   0.026   0.426   7.647  2.5445  1.1260 -1.6988
  369MOL0     H49810   0.016   0.528   7.790 -0.7390 -4.0800  0.2172
  369MOL0     H49811  -0.246   0.718   7.515  0.8373  0.5549 -0.2715
  369MOL0     H49812   0.514   0.861   7.507 -0.4543 -0.1194 -0.1178
  369MOL0     H49813   0.659   0.978   7.360  0.2785 -2.0594 -1.6838
  369MOL0     H49814   0.774   1.076   7.461  2.0727 -0.5811 -0.1616
  369MOL0     H49815   0.830   0.948   7.366 -1.1872  0.0467 -1.3981
  370MOL0     O49816   7.660   7.650   5.499 -0.3572  0.1664 -0.2173
  370MOL0     C49817   7.621   7.588   5.593  0.1963  0.1073 -0.1235
  370MOL0     O49818   7.693   7.519   5.677 -0.2224  0.7349  0.3500
  370MOL0     C49819   7.828   7.490   5.667 -0.2443 -0.3913 -0.2153
  370MOL0     C49820   7.869   7.364   5.708 -0.7557  0.3188 -0.8902
  370MOL0     C49821   8.010   7.325   5.711 -0.7133 -0.2782 -0.2935
  370MOL0     C49822   8.101   7.421   5.652  0.3724 -0.3535 -0.1631
  370MOL0     O49823   8.231   7.401   5.626 -0.1633 -0.1287 -0.3403
  370MOL0     C49824   8.307   7.311   5.705  0.1570 -0.4884 -0.5953
  370MOL0     C49825   8.338   7.374   5.843 -0.5188  0.4496  0.3213
  370MOL0     C49826   8.474   7.464   5.842 -0.3392 -0.2322  0.6826
  370MOL0     C49827   8.602   7.378   5.873  0.9348 -1.0485 -0.7503
  370MOL0     C49828   8.723   7.457   5.817  0.2866  0.2633  0.3391
  370MOL0     C49829   8.855   7.391   5.856 -0.9953  0.1970 -0.4173
  370MOL0     C49830   8.872   7.248   5.798 -0.1497  0.5808  0.0499
  370MOL0     C49831   9.026   7.216   5.786 -0.7036  0.2891  0.5144
  370MOL0     N49832   9.085   7.314   5.690  0.3096 -0.9157 -0.1348
  370MOL0     C49833   9.078   7.294   5.555 -0.0066  0.7340 -0.7557
  370MOL0     C49834   9.151   7.388   5.492  0.0652  1.4384  0.6907
  370MOL0     C49835   9.162   7.407   5.346  0.6731 -0.5679  0.0194
  370MOL0     C49836   9.032   7.381   5.274  0.7175 -0.6046  0.3288
  370MOL0     C49837   9.016   7.461   5.142  0.5238 -0.5197  0.1328
  370MOL0     C49838   8.884   7.449   5.068 -0.3421  0.3461 -0.5853
  370MOL0     O49839   8.877   7.338   4.985 -0.0942  0.5471 -0.6228
  370MOL0     C49840   8.976   7.310   4.892 -0.0391  0.3508  0.8132
  370MOL0     C49841   9.024   7.414   4.821 -0.8958 -0.5032  0.9753
  370MOL0     C49842   9.123   7.397   4.731  0.1502 -0.8879 -0.5965
  370MOL0     C49843   9.182   7.273   4.708  0.4398 -0.0919  0.0632
  370MOL0     C49844   9.304   7.256   4.632  0.3290 -0.0878  0.4458
  370MOL0     O49845   9.380   7.142   4.646  0.5869  0.2892 -0.0791
  370MOL0     C49846   9.477   7.132   4.554 -0.8971 -0.4161 -0.6535
  370MOL0     C49847   9.606   7.177   4.583  0.6260 -0.0768 -0.2199
  370MOL0     C49848   9.707   7.159   4.487 -0.5501 -0.5368 -0.3813
  370MOL0     C49849   9.682   7.092   4.363 -0.8248 -0.4122 -0.5944
  370MOL0     O49850   9.785   7.091   4.284 -0.8104  0.7022 -0.8539
  370MOL0     C49851   9.777   7.087   4.140  0.3043  0.2771  0.9892
  370MOL0     C49852   9.917   7.077   4.074  0.9707  0.2947  0.0277
  370MOL0     C49853  10.012   7.169   4.153  0.0604 -0.2890  0.1229
  370MOL0     C49854  10.135   7.204   4.064 -0.1663 -0.0475 -0.0247
  370MOL0     C49855  10.215   7.071   4.032  0.3308 -0.3870  0.0874
  370MOL0     C49856  10.341   7.104   3.945 -0.8528 -0.3549  0.4563
  370MOL0     C49857  10.406   6.989   3.875 -0.7975  0.7337 -0.3990
  370MOL0     C49858  10.450   6.876   3.968  0.4515 -0.2950  0.2084
  370MOL0    Cl49859  10.308   6.789   4.059 -0.1780 -0.2875 -0.1266
  370MOL0     C49860   9.550   7.058   4.326  0.1061 -0.1854  0.1038
  370MOL0     C49861   9.446   7.076   4.426  0.0813  0.2401  0.8963
  370MOL0     O49862   9.335   7.356   4.561 -0.8597 -0.0353  0.6082
  370MOL0     C49863   9.122   7.167   4.774 -1.0808  0.1026 -0.6754
  370MOL0     C49864   9.010   7.185   4.862  0.2249 -0.5049  1.3003
  370MOL0     N49865   9.192   7.471   5.594  0.2120 -0.6109 -0.2004
  370MOL0     N49866   9.160   7.428   5.715  0.2194 -0.7655  0.9751
  370MOL0     C49867   8.055   7.547   5.606  0.2792  0.4246 -0.1110
  370MOL0     C49868   7.923   7.588   5.627  0.0200  0.1581 -1.1160
  370MOL0     C49869   7.472   7.575   5.596 -0.0930  0.4380  0.1005
  370MOL0     C49870   7.424   7.468   5.665 -0.4204 -0.0081  0.3281
  370MOL0     C49871   7.288   7.450   5.689  0.3458  0.7661  0.0136
  370MOL0     C49872   7.187   7.524   5.622  0.4127 -0.5615 -0.3000
  370MOL0     O49873   7.053   7.513   5.642 -0.0696  0.1318  0.1023
  370MOL0     C49874   7.014   7.383   5.689 -0.1265 -0.6732 -0.2424
  370MOL0     C49875   6.866   7.361   5.725  0.0549 -0.3969 -0.6898
  370MOL0     C49876   6.807   7.458   5.830  0.6583  0.3041  0.5117
  370MOL0     C49877   6.655   7.449   5.839  0.0256  0.6895 -0.6744
  370MOL0     C49878   6.629   7.313   5.881 -0.4134 -0.4634 -0.0326
  370MOL0     C49879   6.607   7.201   5.910 -1.0685  1.0215 -0.1937
  370MOL0     C49880   7.228   7.633   5.551 -0.6916 -0.5440 -1.1807
  370MOL0     C49881   7.371   7.663   5.549  0.0397  0.3574 -1.0735
  370MOL0     C49882   7.404   7.803   5.494  0.5423 -0.3795 -0.3007
  370MOL0     H49883   7.801   7.293   5.753 -0.6662  0.6776 -0.1620
  370MOL0     H49884   8.033   7.223   5.743 -1.4522 -0.6241 -0.8377
  370MOL0     H49885   8.272   7.207   5.713 -0.9278 -0.1761 -1.0973
  370MOL0     H49886   8.404   7.291   5.659 -0.1375 -2.3576 -0.4968
  370MOL0     H49887   8.350   7.303   5.925  2.6529  1.7712  1.1398
  370MOL0     H49888   8.261   7.442   5.883  0.0486  1.1979  0.1671
  370MOL0     H49889   8.462   7.534   5.926  0.3502 -0.8415  1.3082
  370MOL0     H49890   8.489   7.521   5.750 -0.3988  0.0084  0.8216
  370MOL0     H49891   8.600   7.363   5.981 -0.9258  3.2566 -0.0027
  370MOL0     H49892   8.598   7.286   5.813 -1.1869  0.5286 -3.2481
  370MOL0     H49893   8.725   7.470   5.708  1.6236 -2.1915 -0.0182
  370MOL0     H49894   8.720   7.559   5.855  2.1940 -0.2311  1.9861
  370MOL0     H49895   8.932   7.459   5.819  2.0031 -1.4771  2.2262
  370MOL0     H49896   8.870   7.382   5.964  1.6213 -0.2535 -0.7337
  370MOL0     H49897   8.827   7.229   5.700  1.1005 -2.7187  0.0025
  370MOL0     H49898   8.815   7.177   5.859 -4.5668  0.2019 -3.9551
  370MOL0     H49899   9.062   7.212   5.889 -0.7070 -0.5503  0.4853
  370MOL0     H49900   9.039   7.114   5.750  0.7540  1.6106 -3.2649
  370MOL0     H49901   9.014   7.223   5.505  0.4329 -0.3748  0.2265
  370MOL0     H49902   9.183   7.513   5.329 -0.4685 -0.0963  1.3889
  370MOL0     H49903   9.249   7.346   5.319  3.1336  3.3684 -1.8202
  370MOL0     H49904   9.021   7.275   5.251 -1.8406 -1.1548  3.2572
  370MOL0     H49905   8.957   7.425   5.342  1.0456  2.0721 -0.9129
  370MOL0     H49906   9.102   7.434   5.079 -0.3841 -0.2593 -1.2810
  370MOL0     H49907   9.025   7.564   5.176 -2.3162 -0.3385  0.5689
  370MOL0     H49908   8.863   7.541   5.012  1.6230  2.7072  2.1907
  370MOL0     H49909   8.808   7.451   5.147  1.8137  0.4045  1.6158
  370MOL0     H49910   8.987   7.515   4.829 -1.2066  0.1218 -4.5137
  370MOL0     H49911   9.162   7.487   4.685 -1.0875 -0.1144 -0.1697
  370MOL0     H49912   9.631   7.234   4.671 -4.1592  0.6886  0.9079
  370MOL0     H49913   9.806   7.203   4.498 -1.1723  0.7518  0.3072
  370MOL0     H49914   9.722   7.000   4.103  0.5878  1.4308 -2.4810
  370MOL0     H49915   9.733   7.182   4.109 -0.0477 -0.3702 -0.6057
  370MOL0     H49916   9.940   6.971   4.080  2.2139  0.5418 -0.2033
  370MOL0     H49917   9.929   7.102   3.969  1.6573 -1.0920 -0.2427
  370MOL0     H49918   9.964   7.263   4.185  3.3493  1.6915 -0.2541
  370MOL0     H49919  10.043   7.118   4.244 -1.2792 -0.2285  0.6320
  370MOL0     H49920  10.193   7.282   4.114 -1.7624  0.1449  1.6260
  370MOL0     H49921  10.093   7.240   3.969 -0.2428 -0.5689 -0.1929
  370MOL0     H49922  10.160   7.003   3.967  0.7271  1.7379 -2.6373
  370MOL0     H49923  10.237   7.011   4.121 -1.3228 -0.4322  0.4935
  370MOL0     H49924  10.318   7.179   3.869 -0.1252  0.1640  0.7434
  370MOL0     H49925  10.418   7.134   4.017 -1.3381 -1.7452  1.6123
  370MOL0     H49926  10.500   7.018   3.826  0.7457 -1.9693  0.7746
  370MOL0     H49927  10.346   6.943   3.797  0.6246 -0.6713 -0.7201
  370MOL0     H49928  10.501   6.802   3.905 -0.8033 -0.3401 -0.8017
  370MOL0     H49929  10.520   6.902   4.048  0.5131 -2.2172  0.8292
  370MOL0     H49930   9.515   7.013   4.234 -0.7451 -2.8465  1.6244
  370MOL0     H49931   9.351   7.033   4.399 -0.5221  3.4282 -3.0141
  370MOL0     H49932   9.163   7.068   4.760  0.0995  0.5090 -0.2088
  370MOL0     H49933   8.950   7.101   4.893 -2.5999  1.4899  1.5622
  370MOL0     H49934   8.136   7.612   5.574  0.8751 -0.7744 -1.1029
  370MOL0     H49935   7.896   7.689   5.598 -1.1600 -0.3891 -2.0462
  370MOL0     H49936   7.474   7.392   5.724 -3.9564  0.3111  4.2727
  370MOL0     H49937   7.259   7.357   5.738 -0.0068  0.2832 -1.0612
  370MOL0     H49938   7.068   7.356   5.780  2.2632  1.1195 -1.0461
  370MOL0     H49939   7.053   7.305   5.623  0.4910  0.0916 -0.7982
  370MOL0     H49940   6.860   7.259   5.763 -1.3169 -0.4759 -1.0639
  370MOL0     H49941   6.807   7.376   5.634  0.9770  0.5074 -1.1592
  370MOL0     H49942   6.833   7.562   5.806  0.0041  0.2292 -0.6186
  370MOL0     H49943   6.839   7.431   5.931 -1.6263 -1.2616  0.8856
  370MOL0     H49944   6.624   7.520   5.916 -0.1475  0.3129 -0.3913
  370MOL0     H49945   6.591   7.468   5.753  0.7410  0.6573 -1.2144
  370MOL0     H49946   6.564   7.111   5.951  3.2750 -0.8976  0.7474
  370MOL0     H49947   7.155   7.704   5.512  0.0788  2.2760  1.9712
  370MOL0     H49948   7.420   7.799   5.386 -2.8065 -0.3288 -0.8868
  370MOL0     H49949   7.325   7.877   5.511 -0.1523 -1.1950  0.0807
  370MOL0     H49950   7.494   7.844   5.541  0.5526 -1.2781  0.5120
  371MOL0     O49951   0.238   1.418  10.398  0.6363  0.2131 -0.4059
  371MOL0     C49952   0.240   1.491  10.293  0.2843  0.7511 -0.0572
  371MOL0     O49953   0.131   1.508  10.212 -0.7475 -0.1672  0.1950
  371MOL0     C49954   0.009   1.462  10.248  0.0305 -0.4494 -0.4386
  371MOL0     C49955  -0.045   1.480  10.382 -0.1829  0.2701  0.2512
  371MOL0     C49956  -0.170   1.430  10.403  0.2044 -0.3504 -0.8298
  371MOL0     C49957  -0.255   1.376  10.303  1.0014 -0.2870  0.5795
  371MOL0     O49958  -0.363   1.300  10.334  0.2120 -0.1257  0.1941
  371MOL0     C49959  -0.448   1.358  10.431  0.7279 -0.4707 -0.5688
  371MOL0     C49960  -0.574   1.267  10.454 -0.1130  0.0947  0.2969
  371MOL0     C49961  -0.600   1.171  10.335  0.8998  0.4825 -0.3984
  371MOL0     C49962  -0.722   1.080  10.348 -0.3014 -0.4720 -1.4034
  371MOL0     C49963  -0.725   0.953  10.253  0.7614 -0.4428 -0.8861
  371MOL0     C49964  -0.841   0.861  10.284  0.8266 -0.1142 -0.2610
  371MOL0     C49965  -0.827   0.725  10.223  0.4989 -0.1865  0.3879
  371MOL0     C49966  -0.735   0.631  10.307  0.4866 -0.8100 -0.7011
  371MOL0     N49967  -0.706   0.512  10.225  0.3339 -0.7305  0.4676
  371MOL0     C49968  -0.606   0.503  10.133  0.4935  0.5256  1.1996
  371MOL0     C49969  -0.607   0.376  10.082 -0.4831  0.5602 -1.1393
  371MOL0     C49970  -0.513   0.341   9.968 -0.3419  0.8431  0.3069
  371MOL0     C49971  -0.531   0.433   9.842 -0.0293  0.1674 -0.3202
  371MOL0     C49972  -0.470   0.371   9.715  0.3520 -0.8854  0.6828
  371MOL0     C49973  -0.466   0.468   9.600 -0.4493 -0.4836  0.2260
  371MOL0     O49974  -0.379   0.582   9.632  0.3248  0.4127 -0.3019
  371MOL0     C49975  -0.297   0.618   9.528 -0.2990  0.8771 -0.2657
  371MOL0     C49976  -0.233   0.523   9.442  0.0219 -0.7643 -0.1791
  371MOL0     C49977  -0.159   0.583   9.337 -1.0118 -0.2769 -0.9168
  371MOL0     C49978  -0.138   0.722   9.317  0.5933  0.8379 -0.0425
  371MOL0     C49979  -0.054   0.764   9.207  0.0665  0.5404 -0.2287
  371MOL0     O49980   0.005   0.882   9.222 -0.4569 -0.7616 -0.8084
  371MOL0     C49981   0.114   0.912   9.138 -1.0587  0.3678  0.7294
  371MOL0     C49982   0.097   1.003   9.029  0.2354  0.1972 -0.0700
  371MOL0     C49983   0.207   1.061   8.960  0.2982 -0.0026 -0.6109
  371MOL0     C49984   0.333   1.022   8.992 -0.2963 -0.2694  0.6953
  371MOL0     O49985   0.420   1.092   8.907  0.4028 -0.5348 -0.5723
  371MOL0     C49986   0.561   1.061   8.940  0.9115 -0.1881  0.6426
  371MOL0     C49987   0.661   1.153   8.869 -0.0070 -0.1991  0.7590
  371MOL0     C49988   0.798   1.168   8.940  0.2863 -0.1630  0.1633
  371MOL0     C49989   0.881   1.042   8.938  0.1610  0.3233  0.1670
  371MOL0     C49990   1.029   1.064   8.978  0.2609  0.3368  0.4283
  371MOL0     C49991   1.119   0.942   8.949  0.3816 -0.4221 -0.4475
  371MOL0     C49992   1.253   0.974   9.016 -0.0934 -0.6809 -0.2283
  371MOL0     C49993   1.260   0.925   9.162 -1.0334  0.2090  0.7909
  371MOL0    Cl49994   1.388   1.011   9.259  0.3019 -0.1187 -0.1265
  371MOL0     C49995   0.354   0.919   9.084  0.2948  0.3119 -0.5990
  371MOL0     C49996   0.245   0.865   9.168  0.8671 -0.1190 -0.4462
  371MOL0     O49997  -0.029   0.682   9.117 -0.2773  0.1185 -0.3553
  371MOL0     C49998  -0.203   0.807   9.405 -0.1530 -0.6836 -0.4596
  371MOL0     C49999  -0.288   0.758   9.503  0.3268 -0.2077  0.7817
  371MOL0     N50000  -0.698   0.303  10.151  0.2011 -0.7581 -0.5356
  371MOL0     N50001  -0.761   0.389  10.229  0.8605 -0.0045  0.7044
  371MOL0     C50002  -0.208   1.386  10.172  0.3922 -0.6071 -0.1659
  371MOL0     C50003  -0.078   1.420  10.146  0.1601  0.2026 -0.4203
  371MOL0     C50004   0.366   1.569  10.266 -0.5724  0.4134 -0.0001
  371MOL0     C50005   0.360   1.709  10.257  0.4217  0.0127 -1.2714
  371MOL0     C50006   0.481   1.788  10.258  1.2577 -0.4113  0.0107
  371MOL0     C50007   0.602   1.728  10.239 -0.4082  0.3993  0.5301
  371MOL0     O50008   0.714   1.809  10.245  0.1914  0.7809 -0.3458
  371MOL0     C50009   0.840   1.768  10.201 -0.5956 -0.0938 -0.1307
  371MOL0     C50010   0.848   1.827  10.059 -0.3153  0.1117  0.0938
  371MOL0     C50011   0.983   1.796   9.981  0.4287 -0.0712  0.4329
  371MOL0     C50012   1.010   1.640   9.992  0.5430 -0.4615 -0.7787
  371MOL0     C50013   1.077   1.590   9.867  0.3046  0.4065 -0.9245
  371MOL0     C50014   1.117   1.552   9.760  0.1393 -0.4403 -0.2416
  371MOL0     C50015   0.600   1.591  10.237  0.1932 -0.1757 -0.2850
  371MOL0     C50016   0.494   1.513  10.259 -0.1976 -0.7374  0.5958
  371MOL0     C50017   0.511   1.358  10.264  0.4518  0.1411  0.5495
  371MOL0     H50018   0.004   1.526  10.467  0.5212  1.4084 -0.7406
  371MOL0     H50019  -0.200   1.428  10.508 -2.2216 -1.1148 -1.4749
  371MOL0     H50020  -0.397   1.375  10.526  0.0662  1.5169 -0.5319
  371MOL0     H50021  -0.476   1.458  10.397  2.1853  0.0200 -0.3934
  371MOL0     H50022  -0.662   1.327  10.478 -1.3374 -2.2628  2.2066
  371MOL0     H50023  -0.543   1.206  10.540  0.4745 -2.1273 -1.3898
  371MOL0     H50024  -0.510   1.111  10.317  0.6098  0.7052 -2.9244
  371MOL0     H50025  -0.626   1.234  10.249  0.1370  0.1307 -0.4266
  371MOL0     H50026  -0.722   1.041  10.450 -3.4112  1.2761 -0.5911
  371MOL0     H50027  -0.814   1.139  10.357  0.5973  0.7487  0.0981
  371MOL0     H50028  -0.741   0.986  10.150 -3.4563  2.2916  0.3358
  371MOL0     H50029  -0.630   0.900  10.256  0.3868 -1.5406 -4.2860
  371MOL0     H50030  -0.846   0.850  10.393 -1.1368 -2.5763 -0.5082
  371MOL0     H50031  -0.934   0.914  10.264  0.2867 -0.3855  1.3826
  371MOL0     H50032  -0.785   0.740  10.123 -0.6261 -1.4601 -0.3110
  371MOL0     H50033  -0.912   0.662  10.195  0.6448 -1.7041  3.0788
  371MOL0     H50034  -0.645   0.687  10.332 -0.8434  0.7430  0.8167
  371MOL0     H50035  -0.791   0.602  10.396  1.3925  0.8057  0.4457
  371MOL0     H50036  -0.544   0.583  10.095 -0.5078 -0.2973 -2.6683
  371MOL0     H50037  -0.410   0.358  10.001  0.8666 -1.3904 -1.9804
  371MOL0     H50038  -0.513   0.235   9.942 -0.1248  1.4121 -2.2354
  371MOL0     H50039  -0.639   0.434   9.828 -0.2047 -2.6448  0.1960
  371MOL0     H50040  -0.488   0.531   9.863 -2.8440  1.1465  1.2986
  371MOL0     H50041  -0.530   0.288   9.677  0.9177 -1.3720  0.8307
  371MOL0     H50042  -0.363   0.353   9.727  0.3858 -1.5898 -0.5778
  371MOL0     H50043  -0.568   0.494   9.571 -0.6374 -1.4699 -0.0632
  371MOL0     H50044  -0.425   0.419   9.512  2.0007 -2.2918  2.2022
  371MOL0     H50045  -0.220   0.418   9.466  3.3385 -1.4146 -3.7837
  371MOL0     H50046  -0.115   0.505   9.276 -0.7114 -1.1489  0.3690
  371MOL0     H50047  -0.003   1.033   9.000  1.5639  2.3680 -2.9826
  371MOL0     H50048   0.192   1.134   8.880 -2.7553 -0.5698 -0.6877
  371MOL0     H50049   0.575   1.070   9.048  1.3650 -0.6006  0.6192
  371MOL0     H50050   0.582   0.956   8.921 -1.8586 -0.6975 -0.1526
  371MOL0     H50051   0.670   1.120   8.766  0.2863  1.4921  0.1987
  371MOL0     H50052   0.625   1.256   8.858  1.6879  0.2813 -0.7731
  371MOL0     H50053   0.855   1.244   8.885  0.5196 -0.7359 -0.3997
  371MOL0     H50054   0.782   1.203   9.042  0.6036  0.6164 -0.0470
  371MOL0     H50055   0.883   0.993   8.840 -2.4535  0.9724 -0.2922
  371MOL0     H50056   0.851   0.968   9.014  0.8943 -0.6043 -0.4276
  371MOL0     H50057   1.049   1.075   9.085  2.6404 -4.0185  0.6892
  371MOL0     H50058   1.073   1.151   8.928  0.7084 -0.8221 -1.2953
  371MOL0     H50059   1.068   0.855   8.990 -2.7778  2.8822  3.5584
  371MOL0     H50060   1.135   0.935   8.841  2.7524  0.7343 -0.2439
  371MOL0     H50061   1.263   1.083   9.013  1.1478 -0.7786 -3.3618
  371MOL0     H50062   1.336   0.935   8.956  0.3142  1.6115 -1.2638
  371MOL0     H50063   1.164   0.954   9.207 -1.9516 -0.1105 -0.8657
  371MOL0     H50064   1.273   0.817   9.153  0.1239  0.4419 -0.9180
  371MOL0     H50065   0.445   0.864   9.104 -1.0072 -1.2780  1.3063
  371MOL0     H50066   0.271   0.796   9.248  2.0559  0.6712 -0.1157
  371MOL0     H50067  -0.180   0.913   9.404 -2.0760 -0.1592  1.7602
  371MOL0     H50068  -0.342   0.827   9.567 -0.0890  0.9582 -0.7655
  371MOL0     H50069  -0.275   1.357  10.092  0.0334 -1.3412  0.3851
  371MOL0     H50070  -0.052   1.421  10.041 -1.0278  0.4913 -0.7337
  371MOL0     H50071   0.263   1.756  10.272 -0.1250 -1.1835 -1.0005
  371MOL0     H50072   0.470   1.895  10.266  2.1029 -0.1700 -1.7020
  371MOL0     H50073   0.838   1.659  10.191  0.1617 -0.0734 -0.5274
  371MOL0     H50074   0.925   1.796  10.264 -1.9174 -0.8489  2.1421
  371MOL0     H50075   0.836   1.936  10.065 -0.8289 -0.0194  2.9745
  371MOL0     H50076   0.772   1.790   9.990 -2.8273  4.0346  0.4308
  371MOL0     H50077   1.068   1.855  10.017  2.1514 -2.3208  0.2786
  371MOL0     H50078   0.981   1.826   9.876 -0.0593  3.4619  1.3180
  371MOL0     H50079   1.070   1.627  10.082  1.1119  0.1866 -1.0584
  371MOL0     H50080   0.912   1.596  10.014  0.3580  1.7968  4.0426
  371MOL0     H50081   1.142   1.533   9.658 -0.1352 -0.3954 -0.3179
  371MOL0     H50082   0.693   1.537  10.218  0.3686 -1.1409  2.7216
  371MOL0     H50083   0.500   1.320  10.162  2.9498  0.1552  0.2128
  371MOL0     H50084   0.614   1.336  10.296  0.0267 -2.9324  0.1178
  371MOL0     H50085   0.450   1.300  10.334 -0.1003  0.8459  0.6564
  372MOL0     O50086   1.956   4.934   1.321 -0.0322 -1.3097  0.1935
  372MOL0     C50087   1.837   4.966   1.300 -0.8740  0.1161  0.2148
  372MOL0     O50088   1.780   5.075   1.352 -0.7525  0.1040  0.0521
  372MOL0     C50089   1.859   5.181   1.387 -0.5181 -0.7958  0.1056
  372MOL0     C50090   1.920   5.255   1.287 -0.9990 -0.3050  0.3974
  372MOL0     C50091   2.017   5.361   1.315  0.3782  0.1241 -0.4540
  372MOL0     C50092   2.032   5.399   1.452 -0.4302 -0.0231 -0.0515
  372MOL0     O50093   2.113   5.504   1.491 -1.4511 -0.0098 -0.0191
  372MOL0     C50094   2.250   5.484   1.448 -0.3808  0.7038 -0.1917
  372MOL0     C50095   2.343   5.567   1.527 -0.1465 -0.4159  0.0714
  372MOL0     C50096   2.353   5.538   1.682  0.2529  0.1135  0.0556
  372MOL0     C50097   2.416   5.400   1.711 -0.5512 -0.1607  0.6193
  372MOL0     C50098   2.441   5.380   1.870  0.6846  0.0827  0.5646
  372MOL0     C50099   2.319   5.351   1.961  0.5002 -0.2019  0.4650
  372MOL0     C50100   2.339   5.384   2.108  0.3312 -0.3612  0.7605
  372MOL0     C50101   2.209   5.370   2.193 -0.2196  0.1900  0.0516
  372MOL0     N50102   2.239   5.417   2.330 -0.0682  0.7686 -0.0364
  372MOL0     C50103   2.330   5.358   2.408 -0.5656 -0.4590 -0.2998
  372MOL0     C50104   2.331   5.427   2.525 -0.0451 -0.3636  0.8263
  372MOL0     C50105   2.418   5.399   2.649 -0.3246  0.8150 -0.0270
  372MOL0     C50106   2.543   5.500   2.651  0.4005 -0.3189 -0.0061
  372MOL0     C50107   2.619   5.505   2.514  0.2042  0.5114 -0.4610
  372MOL0     C50108   2.754   5.563   2.525 -1.0460 -0.9313  0.7530
  372MOL0     O50109   2.846   5.468   2.580  0.4428 -0.6861  0.1881
  372MOL0     C50110   2.961   5.445   2.514 -0.2557  0.3669 -0.3847
  372MOL0     C50111   2.974   5.345   2.418  0.0926 -0.0689  0.0333
  372MOL0     C50112   3.099   5.330   2.366  0.0306 -0.1221  0.5424
  372MOL0     C50113   3.208   5.417   2.383 -0.3071 -0.0596  1.1207
  372MOL0     C50114   3.335   5.408   2.305 -0.1107 -0.0217 -0.3171
  372MOL0     O50115   3.324   5.330   2.195  0.3884 -0.2582  0.6982
  372MOL0     C50116   3.429   5.324   2.101  0.2446 -0.3775  0.2000
  372MOL0     C50117   3.428   5.211   2.014  0.4794 -0.3207 -0.6254
  372MOL0     C50118   3.527   5.195   1.919 -0.4053 -0.6715  0.3518
  372MOL0     C50119   3.626   5.292   1.908 -0.3398 -0.0833 -1.0242
  372MOL0     O50120   3.726   5.280   1.806  0.9117 -0.5221  0.1194
  372MOL0     C50121   3.854   5.248   1.848  0.2409 -1.1221 -0.2503
  372MOL0     C50122   3.940   5.198   1.728  0.6387 -0.7065 -0.5555
  372MOL0     C50123   4.087   5.187   1.757  0.3533  0.3455  0.7264
  372MOL0     C50124   4.149   5.319   1.795 -0.1514 -0.6555  0.0746
  372MOL0     C50125   4.129   5.441   1.701 -0.6104  0.4879 -0.7466
  372MOL0     C50126   4.190   5.426   1.565  0.0323 -0.0095  0.1439
  372MOL0     C50127   4.339   5.399   1.558 -0.7107 -0.0870  0.2717
  372MOL0     C50128   4.393   5.388   1.421  0.7094 -0.1633  0.3767
  372MOL0    Cl50129   4.345   5.222   1.344  0.2070 -0.4535  0.0429
  372MOL0     C50130   3.627   5.404   1.988  0.8179 -0.2137 -0.5102
  372MOL0     C50131   3.533   5.422   2.088  1.0404  0.2659 -0.2928
  372MOL0     O50132   3.431   5.469   2.344 -1.0713 -0.0068 -0.1462
  372MOL0     C50133   3.187   5.520   2.480 -0.7287  0.5421  0.0861
  372MOL0     C50134   3.072   5.518   2.555  0.3685  0.2126 -0.0669
  372MOL0     N50135   2.251   5.539   2.507 -0.0609  0.2339  0.5108
  372MOL0     N50136   2.196   5.528   2.393  0.0480  0.4045 -0.1564
  372MOL0     C50137   1.970   5.325   1.550 -0.4342 -0.1022 -0.2856
  372MOL0     C50138   1.878   5.226   1.521 -0.6412  0.7430 -0.5101
  372MOL0     C50139   1.754   4.874   1.223  0.5000 -0.3728  0.3771
  372MOL0     C50140   1.613   4.893   1.235 -0.3734  0.3672  0.3448
  372MOL0     C50141   1.525   4.817   1.154 -0.6117 -0.2009  0.4732
  372MOL0     C50142   1.576   4.723   1.062 -0.4825  0.9185 -1.9014
  372MOL0     O50143   1.492   4.646   0.997  0.3933  1.0635 -1.0447
  372MOL0     C50144   1.497   4.674   0.850  0.5288  0.9412 -0.1516
  372MOL0     C50145   1.369   4.719   0.792 -0.4183  0.1575 -0.1374
  372MOL0     C50146   1.242   4.658   0.860  0.4504 -0.1846  0.7372
  372MOL0     C50147   1.116   4.674   0.768  0.4746  0.0136 -0.8184
  372MOL0     C50148   1.040   4.559   0.735  0.3923  1.0320 -0.7609
  372MOL0     C50149   0.993   4.443   0.724 -0.1745 -0.1077  0.0386
  372MOL0     C50150   1.711   4.703   1.046  0.6075  0.6325 -0.8034
  372MOL0     C50151   1.800   4.770   1.132  0.4079  0.4681 -0.7203
  372MOL0     C50152   1.940   4.731   1.115 -0.5921  0.1963  0.5707
  372MOL0     H50153   1.913   5.215   1.187  0.7432 -1.2576  0.6245
  372MOL0     H50154   2.057   5.425   1.237  4.1729  0.6223  1.6845
  372MOL0     H50155   2.283   5.380   1.457  1.2023  1.1867 -0.0816
  372MOL0     H50156   2.262   5.511   1.343 -0.7639  3.3172  0.3695
  372MOL0     H50157   2.300   5.667   1.518  0.0592 -0.1613  1.6421
  372MOL0     H50158   2.441   5.559   1.479 -0.5880 -0.1668 -0.9115
  372MOL0     H50159   2.250   5.531   1.720  0.3646  1.3763  0.6295
  372MOL0     H50160   2.409   5.615   1.735 -0.8156 -0.4133  2.0692
  372MOL0     H50161   2.364   5.312   1.672 -1.1870  0.2448  0.5296
  372MOL0     H50162   2.514   5.408   1.664  1.1008 -1.1285  3.6381
  372MOL0     H50163   2.523   5.310   1.886  1.0198  0.7245  1.7636
  372MOL0     H50164   2.475   5.478   1.903 -1.3093  0.7085  0.9053
  372MOL0     H50165   2.228   5.406   1.936  1.0665  0.8565  0.6789
  372MOL0     H50166   2.286   5.249   1.942 -2.1948  0.7811 -0.6452
  372MOL0     H50167   2.375   5.486   2.119 -0.0240  0.1034 -1.8523
  372MOL0     H50168   2.415   5.316   2.147  0.2988  0.2252  1.8963
  372MOL0     H50169   2.136   5.442   2.155  0.8204  1.8050  0.9953
  372MOL0     H50170   2.160   5.273   2.203  1.2113 -1.0083 -3.2625
  372MOL0     H50171   2.400   5.277   2.389 -0.6391 -0.7311  0.5377
  372MOL0     H50172   2.360   5.393   2.742 -1.4550  0.0185 -0.7658
  372MOL0     H50173   2.463   5.301   2.632 -1.8990  0.4998 -3.1662
  372MOL0     H50174   2.515   5.598   2.692  2.7898 -0.0327  1.1594
  372MOL0     H50175   2.607   5.459   2.730  0.9762 -0.0914 -0.3457
  372MOL0     H50176   2.563   5.569   2.446  0.2215 -0.3104 -1.2655
  372MOL0     H50177   2.631   5.410   2.460  0.2628 -0.1907  0.7501
  372MOL0     H50178   2.738   5.652   2.585  1.3437  0.9151 -1.1274
  372MOL0     H50179   2.797   5.599   2.431  0.5792 -0.3704  1.6746
  372MOL0     H50180   2.898   5.272   2.394  0.7897 -1.0668  0.7140
  372MOL0     H50181   3.113   5.251   2.293 -4.3728 -2.3986  1.8150
  372MOL0     H50182   3.344   5.143   2.009 -0.0479  0.3907 -2.7942
  372MOL0     H50183   3.519   5.123   1.839  3.2790  0.4064 -1.1950
  372MOL0     H50184   3.904   5.339   1.881  0.7924 -1.1077 -1.0891
  372MOL0     H50185   3.841   5.168   1.921 -0.5170 -0.7874 -0.0166
  372MOL0     H50186   3.913   5.100   1.689 -1.4019  0.4281 -2.2393
  372MOL0     H50187   3.919   5.266   1.645  0.9589 -0.2500 -0.2682
  372MOL0     H50188   4.103   5.109   1.831 -3.2073 -0.0714  1.2306
  372MOL0     H50189   4.120   5.148   1.660 -2.0144 -2.0088  0.7542
  372MOL0     H50190   4.254   5.294   1.813 -0.7132 -1.8475  1.9904
  372MOL0     H50191   4.131   5.344   1.900  2.7817 -0.3390  0.6085
  372MOL0     H50192   4.163   5.532   1.751 -1.1031  1.3787 -1.9586
  372MOL0     H50193   4.023   5.458   1.678 -1.2698 -0.0906  1.6288
  372MOL0     H50194   4.134   5.351   1.508 -2.8809 -1.2449  4.1754
  372MOL0     H50195   4.189   5.525   1.518  1.6379  1.2577  2.5984
  372MOL0     H50196   4.357   5.297   1.594 -0.6555 -2.0233 -4.4723
  372MOL0     H50197   4.396   5.475   1.613  1.3818  0.2726 -2.1921
  372MOL0     H50198   4.347   5.472   1.368  0.0041 -0.5070  0.4337
  372MOL0     H50199   4.502   5.396   1.418  0.5380  2.8610 -1.6442
  372MOL0     H50200   3.709   5.476   1.989  0.5470  0.0957  0.4797
  372MOL0     H50201   3.538   5.513   2.146  2.8411 -0.5536  0.9401
  372MOL0     H50202   3.265   5.595   2.485  4.0356 -3.3943 -4.3511
  372MOL0     H50203   3.063   5.596   2.629  1.2966  0.9871 -0.7411
  372MOL0     H50204   1.987   5.360   1.652 -3.4933  0.1739  0.2229
  372MOL0     H50205   1.816   5.182   1.598  0.7623  0.2296  0.3677
  372MOL0     H50206   1.569   4.964   1.303  0.9576  1.6865 -0.1254
  372MOL0     H50207   1.416   4.814   1.160 -0.6439  0.7450  0.4536
  372MOL0     H50208   1.505   4.575   0.804 -0.9116  1.2773 -1.1923
  372MOL0     H50209   1.579   4.741   0.824 -0.7421  2.0694 -1.4237
  372MOL0     H50210   1.362   4.693   0.686  0.0262 -1.2788  0.1646
  372MOL0     H50211   1.353   4.827   0.800 -2.6774 -0.2605  2.9212
  372MOL0     H50212   1.218   4.714   0.950  2.0322  2.2649 -0.2648
  372MOL0     H50213   1.259   4.551   0.879 -1.0580 -0.9132 -1.5849
  372MOL0     H50214   1.054   4.750   0.816 -1.9579  0.0129 -3.6644
  372MOL0     H50215   1.138   4.728   0.675  0.4862 -0.0326 -0.8429
  372MOL0     H50216   0.956   4.344   0.710  0.3308  0.0310 -2.9376
  372MOL0     H50217   1.741   4.629   0.973 -1.5469 -0.5038 -0.6226
  372MOL0     H50218   2.013   4.811   1.129  0.8554 -0.6571 -1.6825
  372MOL0     H50219   1.961   4.661   1.197  0.4208 -0.8892 -0.5712
  372MOL0     H50220   1.958   4.687   1.017  1.8904  0.0303  1.0363
  373MOL0     O50221   4.264   6.844   5.235  0.6540 -0.2425  0.3943
  373MOL0     C50222   4.241   6.804   5.115 -0.9094 -0.6211 -0.7853
  373MOL0     O50223   4.321   6.728   5.048 -0.7231 -0.4273 -0.1089
  373MOL0     C50224   4.456   6.734   5.069 -0.6212 -0.8806  1.0984
  373MOL0     C50225   4.543   6.825   5.140  0.4212  0.6802  0.5325
  373MOL0     C50226   4.676   6.798   5.173  0.2136 -0.1040 -0.4838
  373MOL0     C50227   4.745   6.696   5.109 -0.2347  0.3858  0.6284
  373MOL0     O50228   4.883   6.689   5.135  0.1167  0.4797 -0.1457
  373MOL0     C50229   4.956   6.632   5.017  0.2543 -1.2364  0.9641
  373MOL0     C50230   5.074   6.565   5.091  0.1263  1.1783  0.5505
  373MOL0     C50231   5.181   6.520   4.994  0.4869 -0.3914  0.2986
  373MOL0     C50232   5.239   6.392   5.048  0.7622  0.1814 -0.7645
  373MOL0     C50233   5.340   6.334   4.960  0.4923 -0.7955  0.2144
  373MOL0     C50234   5.427   6.226   5.027 -0.3603  0.0175 -0.7963
  373MOL0     C50235   5.534   6.170   4.945  0.8295 -0.2096  0.6091
  373MOL0     C50236   5.634   6.075   5.018  0.1458 -0.1915 -0.2064
  373MOL0     N50237   5.741   6.021   4.932 -0.7588  0.3622  0.0503
  373MOL0     C50238   5.701   5.916   4.848  1.4725 -1.1142  0.7786
  373MOL0     C50239   5.799   5.915   4.755  0.1711  0.9777 -0.1482
  373MOL0     C50240   5.824   5.821   4.643  0.0943 -0.2468 -0.5561
  373MOL0     C50241   5.773   5.869   4.512 -1.3408  0.9808  0.2289
  373MOL0     C50242   5.623   5.870   4.503  0.5578  0.0434 -0.3430
  373MOL0     C50243   5.585   5.912   4.363  0.1081 -0.4586 -0.1108
  373MOL0     O50244   5.438   5.916   4.349 -0.3878 -0.2259  0.5609
  373MOL0     C50245   5.382   5.821   4.271 -0.4422 -0.1829  1.0908
  373MOL0     C50246   5.267   5.782   4.338 -0.2224  0.8234 -0.1639
  373MOL0     C50247   5.195   5.675   4.285 -0.2321 -0.3509 -0.0671
  373MOL0     C50248   5.252   5.611   4.159 -0.0868 -0.2303  0.5074
  373MOL0     C50249   5.178   5.504   4.102  0.3261 -0.0577  0.0825
  373MOL0     O50250   5.063   5.471   4.171 -0.1560 -0.7341 -0.7403
  373MOL0     C50251   4.984   5.373   4.121  0.0950  0.1357  0.4311
  373MOL0     C50252   4.897   5.314   4.208 -0.0632 -0.4461 -0.7042
  373MOL0     C50253   4.807   5.217   4.169 -0.6245  1.2002  0.3100
  373MOL0     C50254   4.811   5.171   4.036 -0.4805  0.1017 -0.6252
  373MOL0     O50255   4.746   5.068   3.976  0.5253 -0.3347  0.6139
  373MOL0     C50256   4.701   4.963   4.060  0.4147 -0.0122  0.2553
  373MOL0     C50257   4.659   4.859   3.954  0.3942  0.4578  0.7843
  373MOL0     C50258   4.646   4.716   4.026  0.1711 -0.2657  0.0178
  373MOL0     C50259   4.782   4.645   4.041 -0.2558  0.1677 -0.2954
  373MOL0     C50260   4.786   4.519   4.118  0.2475 -0.1505 -0.3563
  373MOL0     C50261   4.729   4.398   4.047 -0.5421 -0.7822  0.1143
  373MOL0     C50262   4.694   4.282   4.142 -0.3238  0.5222 -0.4816
  373MOL0     C50263   4.685   4.140   4.089  0.2103 -0.7328  0.7860
  373MOL0    Cl50264   4.542   4.140   3.962 -0.1723  0.5221  0.3101
  373MOL0     C50265   4.891   5.235   3.946  0.4954  0.3028  0.4625
  373MOL0     C50266   4.974   5.337   3.986 -0.3616 -0.3845 -0.3437
  373MOL0     O50267   5.238   5.441   4.014 -0.4113  0.0172  0.0012
  373MOL0     C50268   5.365   5.655   4.100 -0.0196 -0.9182  0.3340
  373MOL0     C50269   5.428   5.765   4.153  0.2835 -0.9591  0.3617
  373MOL0     N50270   5.880   6.020   4.769 -0.3522 -0.0661  0.4144
  373MOL0     N50271   5.840   6.088   4.876  0.4614  0.3055  0.9480
  373MOL0     C50272   4.664   6.612   5.031 -0.7062  1.0388  0.2265
  373MOL0     C50273   4.526   6.632   5.013  0.7667  0.3092  0.0902
  373MOL0     C50274   4.110   6.833   5.055  0.1158  0.4540  0.3168
  373MOL0     C50275   4.003   6.867   5.144  1.0914  0.4113  0.4838
  373MOL0     C50276   3.878   6.900   5.093 -0.3951  0.1657  1.2249
  373MOL0     C50277   3.845   6.891   4.956 -0.1710  0.1906  0.0555
  373MOL0     O50278   3.725   6.917   4.898 -0.1538 -0.0572 -0.5387
  373MOL0     C50279   3.621   6.979   4.970  0.3630 -0.6446 -0.9489
  373MOL0     C50280   3.515   7.040   4.881  0.4157 -0.1526 -0.2990
  373MOL0     C50281   3.566   7.134   4.780 -0.3486 -0.6546  0.4756
  373MOL0     C50282   3.466   7.136   4.665 -0.0131  0.3758  0.0708
  373MOL0     C50283   3.501   7.023   4.575 -1.0447 -0.8687  0.5061
  373MOL0     C50284   3.531   6.930   4.497  0.4897  1.1165  0.5311
  373MOL0     C50285   3.945   6.854   4.869 -0.7122 -0.6742  0.7607
  373MOL0     C50286   4.077   6.825   4.918 -0.6014 -0.4289  0.6307
  373MOL0     C50287   4.186   6.804   4.816  1.0417  0.3271  0.4402
  373MOL0     H50288   4.491   6.906   5.191  0.5532  1.3805 -0.4294
  373MOL0     H50289   4.732   6.870   5.233  0.4489 -0.8161  0.1728
  373MOL0     H50290   4.898   6.577   4.943 -1.6045 -0.6168  1.9047
  373MOL0     H50291   5.000   6.711   4.955  0.1574 -0.3880  1.9434
  373MOL0     H50292   5.021   6.485   5.143  0.1599 -0.3972 -1.6821
  373MOL0     H50293   5.123   6.628   5.165 -0.2592 -1.1387  2.9345
  373MOL0     H50294   5.255   6.601   4.985 -0.7999  0.8997  0.8376
  373MOL0     H50295   5.132   6.505   4.898  1.4531 -3.9493  0.2275
  373MOL0     H50296   5.271   6.404   5.152  0.1510  0.2744 -0.5798
  373MOL0     H50297   5.157   6.319   5.053 -1.1532  2.2311 -0.6815
  373MOL0     H50298   5.281   6.285   4.883 -0.3399  0.1188  0.2619
  373MOL0     H50299   5.396   6.411   4.906  0.5605 -1.8561 -1.2747
  373MOL0     H50300   5.471   6.283   5.110  0.9371  1.1922 -2.2226
  373MOL0     H50301   5.382   6.134   5.063  0.9503 -0.9866 -1.6403
  373MOL0     H50302   5.578   6.256   4.894  1.5516 -1.1409 -0.4003
  373MOL0     H50303   5.480   6.121   4.864  0.1537  0.2206  0.7919
  373MOL0     H50304   5.689   6.127   5.096 -0.2314 -1.0779  0.6700
  373MOL0     H50305   5.578   5.992   5.063 -3.3621  1.6737 -0.7431
  373MOL0     H50306   5.620   5.845   4.860  2.1366 -1.9967  0.2235
  373MOL0     H50307   5.929   5.789   4.643 -0.2406 -1.5305  1.3558
  373MOL0     H50308   5.773   5.728   4.671  1.9214 -1.5342 -1.2926
  373MOL0     H50309   5.811   5.971   4.496  1.1969 -0.0330 -0.7120
  373MOL0     H50310   5.819   5.808   4.435 -3.9361  0.9783 -1.4326
  373MOL0     H50311   5.584   5.945   4.572  3.1124  0.5658  0.6697
  373MOL0     H50312   5.579   5.771   4.520 -0.1567  0.4724  0.3792
  373MOL0     H50313   5.629   5.841   4.292 -2.6837 -3.2647  0.7458
  373MOL0     H50314   5.627   6.013   4.353  0.1918 -0.2652  1.7605
  373MOL0     H50315   5.236   5.831   4.430  0.1669  0.3353  0.2350
  373MOL0     H50316   5.109   5.631   4.333  1.5340 -2.6202  1.2097
  373MOL0     H50317   4.898   5.366   4.303  0.9370 -0.0632 -0.9104
  373MOL0     H50318   4.743   5.167   4.240 -2.4420 -0.5490 -2.3992
  373MOL0     H50319   4.773   4.925   4.133  0.0092 -0.7370  0.2843
  373MOL0     H50320   4.613   4.998   4.115  0.8778  2.0403 -0.2223
  373MOL0     H50321   4.556   4.868   3.919  0.2751 -4.2963 -0.8195
  373MOL0     H50322   4.730   4.849   3.870 -0.1041  1.5228  0.2110
  373MOL0     H50323   4.600   4.748   4.120 -2.4916  3.5854 -2.3022
  373MOL0     H50324   4.581   4.653   3.965  0.7653 -0.7443 -0.1256
  373MOL0     H50325   4.851   4.713   4.093 -0.3247 -1.2703  1.8327
  373MOL0     H50326   4.822   4.620   3.943  2.3902 -3.2394  1.4291
  373MOL0     H50327   4.742   4.538   4.217  3.7029 -0.5388  1.4001
  373MOL0     H50328   4.891   4.508   4.149  0.2622 -0.3055 -0.4588
  373MOL0     H50329   4.635   4.423   3.997 -2.8421 -2.5044  3.1998
  373MOL0     H50330   4.807   4.371   3.976  0.7857 -0.0503  1.2642
  373MOL0     H50331   4.593   4.294   4.184 -1.0155 -2.1355 -1.2399
  373MOL0     H50332   4.767   4.272   4.223  1.4391  1.4436 -1.8865
  373MOL0     H50333   4.780   4.117   4.039  1.0029  3.5728 -0.1169
  373MOL0     H50334   4.679   4.064   4.168  1.4509 -2.3477 -0.5817
  373MOL0     H50335   4.905   5.181   3.853 -2.6054 -0.7802  0.5210
  373MOL0     H50336   5.047   5.381   3.919  0.1146 -1.8903 -0.8595
  373MOL0     H50337   5.405   5.599   4.016  0.6221  1.2287 -0.8953
  373MOL0     H50338   5.514   5.809   4.102  0.1549  0.0319  0.9793
  373MOL0     H50339   4.704   6.526   4.978  1.5715  1.8893  0.4859
  373MOL0     H50340   4.471   6.562   4.950 -1.4874  1.6931  0.4113
  373MOL0     H50341   4.016   6.864   5.252 -0.9713 -1.8125  0.7760
  373MOL0     H50342   3.795   6.921   5.159 -2.2612 -2.6386 -0.0262
  373MOL0     H50343   3.668   7.055   5.033  1.1760 -2.7939  1.1509
  373MOL0     H50344   3.570   6.913   5.040 -1.1760 -0.8044 -2.1578
  373MOL0     H50345   3.452   7.095   4.951  0.4380  0.1693 -0.5294
  373MOL0     H50346   3.457   6.964   4.827 -0.1374  1.0398 -1.4219
  373MOL0     H50347   3.660   7.096   4.738 -0.4468 -0.5168  0.1304
  373MOL0     H50348   3.573   7.238   4.813 -0.3776 -0.9910  1.5660
  373MOL0     H50349   3.362   7.118   4.694 -0.9386  2.4581 -1.7646
  373MOL0     H50350   3.472   7.229   4.610  0.7156  0.7079  0.6916
  373MOL0     H50351   3.544   6.845   4.433 -0.8715  0.8527  0.5761
  373MOL0     H50352   3.912   6.864   4.766 -2.3041  0.5568  1.3502
  373MOL0     H50353   4.212   6.699   4.805 -0.8270 -0.0334 -0.9607
  373MOL0     H50354   4.145   6.830   4.718  2.4121  1.1826  0.0610
  373MOL0     H50355   4.280   6.858   4.833  2.4920 -1.7237 -0.6493
  374MOL0     O50356   9.196   9.800   5.661 -0.0355  0.3912 -0.7888
  374MOL0     C50357   9.222   9.909   5.711  0.6668 -0.8326  0.1334
  374MOL0     O50358   9.293   9.934   5.819 -0.6151 -0.3479 -0.5408
  374MOL0     C50359   9.368   9.840   5.881  0.6511 -0.7247 -0.0182
  374MOL0     C50360   9.319   9.728   5.946  0.2592 -0.6683 -0.0788
  374MOL0     C50361   9.398   9.634   6.005 -0.5074  0.3969  0.2632
  374MOL0     C50362   9.529   9.656   6.015 -0.0549  0.5012 -0.0550
  374MOL0     O50363   9.615   9.573   6.089  0.2472  0.0688  0.3444
  374MOL0     C50364   9.561   9.449   6.138 -0.2987  0.8461  0.0184
  374MOL0     C50365   9.682   9.350   6.161 -0.7080 -0.0858  0.9174
  374MOL0     C50366   9.656   9.237   6.254 -0.4317  0.0186 -0.7289
  374MOL0     C50367   9.778   9.142   6.275  0.1658  0.4581  0.0399
  374MOL0     C50368   9.758   9.034   6.386  0.9927 -0.5177  0.0331
  374MOL0     C50369   9.894   8.999   6.446  0.0295 -0.1830 -0.3969
  374MOL0     C50370   9.879   8.907   6.570 -0.1258 -0.5959  0.0968
  374MOL0     C50371   9.824   8.980   6.695  0.1137 -0.2062  0.7906
  374MOL0     N50372   9.920   9.073   6.762  0.1625 -0.3343 -0.0891
  374MOL0     C50373   9.945   9.199   6.728  0.4613 -0.4311 -0.8098
  374MOL0     C50374  10.017   9.249   6.829 -0.3163  0.9919 -0.2607
  374MOL0     C50375  10.045   9.394   6.855 -0.7406 -0.4652 -0.2670
  374MOL0     C50376   9.926   9.491   6.836 -0.6673  0.1194 -0.4163
  374MOL0     C50377   9.982   9.623   6.787 -0.1626 -0.1427 -0.3479
  374MOL0     C50378   9.882   9.742   6.774  0.4798 -0.5959  0.2979
  374MOL0     O50379   9.770   9.694   6.704  0.0609  0.0132  0.3271
  374MOL0     C50380   9.717   9.789   6.621  0.8535 -0.0987 -0.4049
  374MOL0     C50381   9.728   9.928   6.639  0.1568 -0.6519 -0.7387
  374MOL0     C50382   9.662  10.015   6.550  0.3934 -0.1216  0.0898
  374MOL0     C50383   9.585   9.974   6.445  0.1832  0.5680 -0.9916
  374MOL0     C50384   9.517  10.078   6.366 -0.3187 -0.1427  1.0309
  374MOL0     O50385   9.472  10.044   6.246  0.2492  0.3340  0.2514
  374MOL0     C50386   9.391  10.123   6.177 -0.3077  0.3195 -1.2946
  374MOL0     C50387   9.260  10.067   6.169 -0.4406  0.2588 -0.8122
  374MOL0     C50388   9.162  10.148   6.111  0.3573 -0.2710  0.4167
  374MOL0     C50389   9.180  10.280   6.066 -0.7949 -0.7036  0.7571
  374MOL0     O50390   9.087  10.357   6.005 -0.0918  0.1275  0.0446
  374MOL0     C50391   8.951  10.318   5.976 -0.2654 -0.2287 -0.4100
  374MOL0     C50392   8.851  10.434   5.951 -1.0176  0.4834  0.8380
  374MOL0     C50393   8.708  10.392   5.994 -0.2604 -0.8159  0.0170
  374MOL0     C50394   8.635  10.322   5.882  0.2640  0.4627  0.9479
  374MOL0     C50395   8.514  10.243   5.932  0.0776 -0.7302  0.2864
  374MOL0     C50396   8.404  10.231   5.824 -0.1799 -0.2322  1.1700
  374MOL0     C50397   8.328  10.350   5.789  0.2639 -1.0042  0.3493
  374MOL0     C50398   8.189  10.330   5.720 -0.6054  0.1773  0.4763
  374MOL0    Cl50399   8.206  10.269   5.549  0.2547  0.2308  0.1399
  374MOL0     C50400   9.308  10.336   6.086 -0.4117  0.2052  0.3590
  374MOL0     C50401   9.415  10.257   6.135 -0.3619  0.5150  0.6274
  374MOL0     O50402   9.507  10.195   6.418 -0.6892  0.9524  0.1899
  374MOL0     C50403   9.564   9.831   6.436  0.4710 -0.6832 -1.0296
  374MOL0     C50404   9.633   9.737   6.518  0.2230 -0.9567 -0.4101
  374MOL0     N50405  10.043   9.153   6.933 -0.3652  0.8013 -0.0536
  374MOL0     N50406   9.968   9.059   6.889  0.0559  0.2836 -0.3934
  374MOL0     C50407   9.580   9.777   5.970  0.4713  0.3940  0.3902
  374MOL0     C50408   9.508   9.862   5.897  0.0304 -1.0501 -0.2579
  374MOL0     C50409   9.170  10.025   5.641 -0.1351  0.1723  0.0580
  374MOL0     C50410   9.170  10.154   5.708  0.4991  0.5998 -0.2507
  374MOL0     C50411   9.122  10.267   5.640 -0.7618  0.2083  0.6184
  374MOL0     C50412   9.071  10.261   5.513 -0.4245  1.0434  0.1520
  374MOL0     O50413   9.022  10.373   5.459  1.0462  0.2641  0.0548
  374MOL0     C50414   8.994  10.387   5.319  0.4834 -0.0987  1.1525
  374MOL0     C50415   9.014  10.534   5.277  0.7775  0.7704  0.3935
  374MOL0     C50416   9.149  10.609   5.308  0.6051  1.2879 -0.0404
  374MOL0     C50417   9.257  10.564   5.204 -0.2540  0.9318 -0.3434
  374MOL0     C50418   9.369  10.652   5.230 -0.3768  1.0986 -0.0712
  374MOL0     C50419   9.476  10.699   5.257  0.8646 -1.0861 -0.8228
  374MOL0     C50420   9.086  10.141   5.449 -0.0975 -0.1626 -1.0232
  374MOL0     C50421   9.130  10.019   5.508 -0.1128  0.0067  0.6519
  374MOL0     C50422   9.132   9.897   5.426 -0.3639  0.4774  0.2514
  374MOL0     H50423   9.213   9.706   5.941  0.5367 -1.6931 -2.3653
  374MOL0     H50424   9.354   9.543   6.043 -1.1672  1.1155  1.2879
  374MOL0     H50425   9.513   9.475   6.232 -0.7945  1.6378 -0.4447
  374MOL0     H50426   9.489   9.403   6.069 -1.1333  2.7966 -0.4660
  374MOL0     H50427   9.764   9.406   6.206 -0.0672  1.1996 -1.6735
  374MOL0     H50428   9.720   9.319   6.063 -0.0806  0.1841  1.0713
  374MOL0     H50429   9.569   9.181   6.219 -1.0833 -0.0610  0.9588
  374MOL0     H50430   9.622   9.280   6.349 -2.2560 -2.5634 -0.1186
  374MOL0     H50431   9.803   9.103   6.175 -0.9057  1.4933 -0.6603
  374MOL0     H50432   9.858   9.204   6.317 -2.5114  3.3634  1.2699
  374MOL0     H50433   9.693   9.088   6.455  1.4896 -0.4049  0.4176
  374MOL0     H50434   9.715   8.942   6.345 -1.4451  0.7237 -0.3935
  374MOL0     H50435   9.960   8.950   6.373  1.3229 -1.7383  1.6788
  374MOL0     H50436   9.940   9.094   6.475 -0.5767 -0.7001  2.5674
  374MOL0     H50437   9.980   8.869   6.589  1.0973  3.0265  1.6876
  374MOL0     H50438   9.816   8.821   6.550 -0.5952 -0.3448  0.4820
  374MOL0     H50439   9.726   9.024   6.674 -1.7494 -3.1821  2.5036
  374MOL0     H50440   9.800   8.901   6.767 -1.5809  0.9660  1.5718
  374MOL0     H50441   9.911   9.257   6.643  0.5069  0.9951  0.1258
  374MOL0     H50442  10.083   9.403   6.957 -0.6947  1.3324 -0.4098
  374MOL0     H50443  10.134   9.408   6.793 -0.0836  0.0813  0.7704
  374MOL0     H50444   9.849   9.458   6.765 -0.9437 -1.0011  0.3717
  374MOL0     H50445   9.879   9.511   6.933  0.5291  2.5784 -0.2886
  374MOL0     H50446  10.022   9.609   6.686 -0.2480 -0.3448 -0.3528
  374MOL0     H50447  10.071   9.652   6.843  0.5281  0.1030 -1.5343
  374MOL0     H50448   9.940   9.817   6.720 -2.1590  0.7404 -0.8216
  374MOL0     H50449   9.853   9.777   6.874  0.7553  4.0482 -1.0307
  374MOL0     H50450   9.784   9.978   6.718 -0.6798  0.5709 -0.8875
  374MOL0     H50451   9.668  10.122   6.566  2.1848 -0.1985  0.1347
  374MOL0     H50452   9.247   9.965   6.205  2.6284 -0.4154 -1.2925
  374MOL0     H50453   9.068  10.094   6.099  0.9819 -1.4430  0.6654
  374MOL0     H50454   8.941  10.256   5.886 -1.8055 -3.3252  1.7119
  374MOL0     H50455   8.918  10.269   6.068 -0.6211  0.9372  0.0973
  374MOL0     H50456   8.872  10.514   6.022 -1.1754  2.7185 -1.5076
  374MOL0     H50457   8.879  10.475   5.854  2.6838 -0.1152  1.5008
  374MOL0     H50458   8.716  10.333   6.086  1.6920  0.8705  1.0077
  374MOL0     H50459   8.646  10.480   6.013 -1.3448 -1.3230 -1.0408
  374MOL0     H50460   8.706  10.251   5.839  2.1882  1.1096  2.8910
  374MOL0     H50461   8.611  10.401   5.809  1.1462 -1.3941 -1.4841
  374MOL0     H50462   8.465  10.297   6.013  5.2705  3.7053  1.0528
  374MOL0     H50463   8.539  10.145   5.974  0.9051 -0.7878 -0.3255
  374MOL0     H50464   8.445  10.184   5.734 -0.0511  2.3511 -0.1976
  374MOL0     H50465   8.343  10.150   5.864  0.2825 -1.5669 -0.6750
  374MOL0     H50466   8.389  10.431   5.747 -1.5129  0.2957  0.1813
  374MOL0     H50467   8.304  10.394   5.886  0.1735 -1.3279  0.4765
  374MOL0     H50468   8.122  10.260   5.771  0.6535 -1.0048  0.5603
  374MOL0     H50469   8.144  10.429   5.729 -1.8786 -0.1259 -1.8652
  374MOL0     H50470   9.325  10.437   6.052  3.3581 -0.2137  0.5603
  374MOL0     H50471   9.518  10.288   6.152 -0.0121 -1.0851  1.5665
  374MOL0     H50472   9.505   9.797   6.352  1.6731 -2.6222 -1.1569
  374MOL0     H50473   9.631   9.633   6.484  0.1445 -1.0427 -0.1432
  374MOL0     H50474   9.688   9.791   5.964  0.5493  0.2852  1.3409
  374MOL0     H50475   9.557   9.946   5.848 -2.3439  0.8899  0.4486
  374MOL0     H50476   9.182  10.170   5.815  1.1478 -0.3555 -0.1678
  374MOL0     H50477   9.123  10.359   5.696  2.8478  0.5997  0.1451
  374MOL0     H50478   8.889  10.370   5.294 -0.1425  2.0686  2.0867
  374MOL0     H50479   9.069  10.324   5.270  0.9229  0.0165  1.6680
  374MOL0     H50480   8.941  10.591   5.336  1.7795 -0.1016  2.6046
  374MOL0     H50481   8.990  10.555   5.173  0.9550 -2.8126 -0.4797
  374MOL0     H50482   9.185  10.591   5.409 -0.0898 -0.2563 -0.0460
  374MOL0     H50483   9.119  10.714   5.307 -2.6986  0.4603  0.9600
  374MOL0     H50484   9.277  10.457   5.213 -1.7202  0.5955 -0.9027
  374MOL0     H50485   9.237  10.592   5.101  0.8350 -1.1951 -1.1958
  374MOL0     H50486   9.563  10.760   5.270  1.4306 -1.7931 -1.2309
  374MOL0     H50487   9.056  10.139   5.344 -1.9668  2.7275 -0.6642
  374MOL0     H50488   9.113   9.928   5.323  0.2583  2.5594  0.7013
  374MOL0     H50489   9.232   9.851   5.420  0.4326  2.3244 -2.3947
  374MOL0     H50490   9.056   9.825   5.456  1.4945 -0.9386  1.9109
  375MOL0     O50491  10.231   4.790   9.851 -0.0923  0.1337 -0.7120
  375MOL0     C50492  10.247   4.756   9.733 -1.0497 -0.6753 -0.3262
  375MOL0     O50493  10.155   4.721   9.647 -0.2402  0.3610  0.4537
  375MOL0     C50494  10.029   4.726   9.707 -0.6285  0.4196 -0.3692
  375MOL0     C50495   9.969   4.604   9.746 -1.2042  0.5920  0.3975
  375MOL0     C50496   9.848   4.617   9.823 -0.3861  1.5805  1.1129
  375MOL0     C50497   9.779   4.738   9.849  0.2225  0.1882 -0.1695
  375MOL0     O50498   9.659   4.733   9.911 -0.1963 -0.2195  0.1348
  375MOL0     C50499   9.650   4.689  10.046  0.6928 -0.0039 -0.6765
  375MOL0     C50500   9.516   4.711  10.117 -0.5545  1.2790  0.3925
  375MOL0     C50501   9.527   4.652  10.258  0.1405  0.3460  0.1858
  375MOL0     C50502   9.578   4.762  10.358 -0.6184 -0.9394  1.3326
  375MOL0     C50503   9.569   4.710  10.507 -0.3877 -0.2177  0.3692
  375MOL0     C50504   9.658   4.586  10.535  0.0354  0.4077  0.1497
  375MOL0     C50505   9.690   4.599  10.683  0.0495 -0.0528  0.9461
  375MOL0     C50506   9.776   4.486  10.738  0.1436  0.1036  1.1163
  375MOL0     N50507   9.918   4.486  10.700 -0.0400  0.1342  0.0028
  375MOL0     C50508  10.005   4.581  10.733  0.4710 -1.1756  0.8672
  375MOL0     C50509  10.120   4.540  10.678 -0.6840  0.4169 -0.7751
  375MOL0     C50510  10.254   4.599  10.689  0.0057 -0.2728  0.4949
  375MOL0     C50511  10.354   4.504  10.746 -0.7248 -0.1059  0.3016
  375MOL0     C50512  10.504   4.551  10.728 -0.2729  0.5540  1.4292
  375MOL0     C50513  10.560   4.539  10.581 -0.2870 -0.2521  0.8340
  375MOL0     O50514  10.691   4.576  10.565 -1.0933 -0.2999  0.4936
  375MOL0     C50515  10.793   4.489  10.603  0.5906 -0.2767  0.2646
  375MOL0     C50516  10.911   4.551  10.645  0.9864  0.2070  0.1513
  375MOL0     C50517  11.014   4.464  10.671  0.1166 -0.5651 -0.6348
  375MOL0     C50518  11.016   4.325  10.658 -0.0974  0.0873  0.5639
  375MOL0     C50519  11.139   4.262  10.697  0.4031  0.6017  0.3911
  375MOL0     O50520  11.256   4.321  10.691 -0.6917  0.4537  0.5455
  375MOL0     C50521  11.373   4.244  10.679 -0.4954  0.5065 -0.5231
  375MOL0     C50522  11.392   4.139  10.593 -0.3275  0.3299  0.4511
  375MOL0     C50523  11.504   4.062  10.592  0.2368 -0.2555  1.0499
  375MOL0     C50524  11.610   4.086  10.685  0.9138 -0.0750  0.0707
  375MOL0     O50525  11.725   4.010  10.668 -0.0555 -0.1874 -0.0685
  375MOL0     C50526  11.835   4.029  10.755  0.2353 -0.1726  0.1222
  375MOL0     C50527  11.924   3.906  10.776  0.0475  0.3457 -0.1055
  375MOL0     C50528  12.009   3.931  10.902  1.2423 -0.3121 -0.1692
  375MOL0     C50529  12.151   3.873  10.871  0.3941  0.3568 -0.3497
  375MOL0     C50530  12.212   3.820  11.000 -0.8524  0.4572  0.9236
  375MOL0     C50531  12.359   3.791  10.965  0.3669  0.1772  0.5015
  375MOL0     C50532  12.434   3.750  11.091  0.3305 -0.0310 -0.2078
  375MOL0     C50533  12.591   3.758  11.083  0.7404  0.5693  0.4215
  375MOL0    Cl50534  12.692   3.727  11.231  0.4523  0.3781  0.2839
  375MOL0     C50535  11.594   4.192  10.777 -0.8715  0.0781  0.6438
  375MOL0     C50536  11.471   4.261  10.779  0.0837  0.1714  0.4182
  375MOL0     O50537  11.117   4.154  10.745  0.2600  0.5694  0.4377
  375MOL0     C50538  10.899   4.269  10.607  0.0144  0.0548  0.3720
  375MOL0     C50539  10.794   4.350  10.583  0.1652 -0.3097 -0.2853
  375MOL0     N50540  10.092   4.415  10.623  0.0714 -0.2703  0.1452
  375MOL0     N50541   9.972   4.385  10.633  0.1210 -0.9704  0.1428
  375MOL0     C50542   9.839   4.855   9.792 -0.0539 -0.0564  0.4327
  375MOL0     C50543   9.958   4.843   9.716 -0.3517  1.2603 -0.4801
  375MOL0     C50544  10.399   4.743   9.711  0.2276 -0.0439  0.0607
  375MOL0     C50545  10.505   4.770   9.817  0.6359 -0.4880  0.4332
  375MOL0     C50546  10.635   4.764   9.786 -0.2958  0.1621 -1.3477
  375MOL0     C50547  10.677   4.734   9.660  0.5933  0.3153 -0.7751
  375MOL0     O50548  10.801   4.718   9.623 -0.0311 -0.4136 -0.6389
  375MOL0     C50549  10.923   4.753   9.693 -0.2871 -0.8688  0.4149
  375MOL0     C50550  10.945   4.898   9.709 -0.8586 -0.2965  0.5220
  375MOL0     C50551  11.080   4.937   9.776  0.5252 -0.0420 -0.1375
  375MOL0     C50552  11.171   5.002   9.672  0.4325  0.3111 -0.1202
  375MOL0     C50553  11.273   5.089   9.733  0.4944 -0.7414  0.5206
  375MOL0     C50554  11.359   5.160   9.783 -0.6249 -1.0997  0.0774
  375MOL0     C50555  10.580   4.715   9.559  0.1300 -0.5083 -0.4001
  375MOL0     C50556  10.443   4.716   9.582 -0.1809  0.5937  0.4522
  375MOL0     C50557  10.360   4.687   9.450  0.1831  0.7973  0.1225
  375MOL0     H50558  10.025   4.512   9.733 -0.9308  0.6862  0.8764
  375MOL0     H50559   9.805   4.528   9.868  2.5201 -1.4413 -1.5734
  375MOL0     H50560   9.656   4.580  10.053 -1.5775 -0.2904 -2.1502
  375MOL0     H50561   9.736   4.720  10.105 -0.9043  0.7574  1.3631
  375MOL0     H50562   9.446   4.641  10.070  0.3086  0.7252 -0.1201
  375MOL0     H50563   9.474   4.812  10.118 -3.1716  0.3066  2.9555
  375MOL0     H50564   9.600   4.572  10.272 -0.4115  0.0222  1.3307
  375MOL0     H50565   9.431   4.609  10.289  0.3609  0.5165  1.1491
  375MOL0     H50566   9.682   4.791  10.346 -0.5833  0.6709  4.4472
  375MOL0     H50567   9.520   4.853  10.342 -1.2784 -1.7418 -1.3422
  375MOL0     H50568   9.599   4.789  10.577 -0.3819 -1.1064  1.3986
  375MOL0     H50569   9.464   4.682  10.519  0.1352 -1.7609  1.6735
  375MOL0     H50570   9.610   4.490  10.517 -0.3846  0.4672  0.9611
  375MOL0     H50571   9.749   4.590  10.474  1.8006 -3.0437  2.2747
  375MOL0     H50572   9.598   4.618  10.739  0.5440 -1.7594  2.4025
  375MOL0     H50573   9.746   4.691  10.704 -0.4311  0.1141  1.5205
  375MOL0     H50574   9.778   4.499  10.846  1.1398  2.5293  0.8688
  375MOL0     H50575   9.737   4.389  10.704 -0.6481  1.2024 -1.3449
  375MOL0     H50576   9.989   4.669  10.795 -1.2353  0.4149 -1.6341
  375MOL0     H50577  10.289   4.636  10.592 -1.9355  0.0969 -0.1200
  375MOL0     H50578  10.242   4.690  10.749  1.9709  1.3746 -1.4748
  375MOL0     H50579  10.326   4.497  10.851  0.9265 -2.2880  0.6714
  375MOL0     H50580  10.346   4.412  10.687 -3.1698  0.9744 -1.1953
  375MOL0     H50581  10.567   4.487  10.791 -0.1217 -0.8233 -0.0794
  375MOL0     H50582  10.519   4.656  10.756  2.7762  0.1192  1.7549
  375MOL0     H50583  10.504   4.612  10.522  3.1481  1.7366 -0.1849
  375MOL0     H50584  10.546   4.443  10.529  3.2057 -0.6550  0.3881
  375MOL0     H50585  10.912   4.658  10.659  1.1635  0.3299 -0.7279
  375MOL0     H50586  11.089   4.535  10.703 -1.5188  0.7130  0.5605
  375MOL0     H50587  11.315   4.122  10.518 -1.8939 -0.9259  2.2220
  375MOL0     H50588  11.502   3.980  10.521 -3.9155  1.1628 -0.8341
  375MOL0     H50589  11.899   4.110  10.719 -1.2580  0.2767 -1.7277
  375MOL0     H50590  11.789   4.046  10.853 -2.3823  0.1654 -1.0752
  375MOL0     H50591  11.873   3.810  10.787  3.4652 -1.6113  0.0504
  375MOL0     H50592  11.976   3.895  10.680  0.2960 -2.2729  0.2524
  375MOL0     H50593  12.006   4.036  10.932  1.0669 -0.3194 -0.1595
  375MOL0     H50594  11.961   3.873  10.981 -0.5410  1.0395 -0.2007
  375MOL0     H50595  12.211   3.951  10.822  0.8878  0.1572 -0.0696
  375MOL0     H50596  12.137   3.789  10.802  0.0377  0.8460 -0.8804
  375MOL0     H50597  12.164   3.725  11.022 -2.4443  0.5741 -1.6501
  375MOL0     H50598  12.204   3.896  11.078  0.4969  1.0689  0.5051
  375MOL0     H50599  12.366   3.713  10.889 -0.9347 -0.6887  1.2328
  375MOL0     H50600  12.411   3.879  10.927 -2.7060  0.6414 -3.1870
  375MOL0     H50601  12.401   3.651  11.124 -1.9891  0.0514 -2.0236
  375MOL0     H50602  12.417   3.823  11.171  1.7630 -1.0124  1.0619
  375MOL0     H50603  12.619   3.673  11.019  0.3382  0.8051 -0.0826
  375MOL0     H50604  12.618   3.849  11.030  2.4291 -0.1135  0.0641
  375MOL0     H50605  11.669   4.214  10.851  1.9223  2.9943 -2.6770
  375MOL0     H50606  11.459   4.342  10.850  0.3376  1.1979 -0.6731
  375MOL0     H50607  10.902   4.165  10.576  0.3728  0.4829 -1.1213
  375MOL0     H50608  10.716   4.311  10.519  0.3104  0.5452 -0.9997
  375MOL0     H50609   9.786   4.949   9.801 -0.7374 -0.3751 -0.1126
  375MOL0     H50610  10.007   4.934   9.682  0.0951  1.3467  0.3610
  375MOL0     H50611  10.475   4.788   9.920 -3.7320 -2.4402 -0.2979
  375MOL0     H50612  10.709   4.777   9.864 -0.2552 -2.7663 -0.8051
  375MOL0     H50613  11.010   4.744   9.628  0.4465  1.8015  0.9095
  375MOL0     H50614  10.946   4.696   9.784 -0.0371  1.6152  1.9984
  375MOL0     H50615  10.875   4.923   9.789  0.4043  1.0978  1.2279
  375MOL0     H50616  10.921   4.952   9.617  2.0616  2.2271  1.1109
  375MOL0     H50617  11.135   4.850   9.815 -1.6097 -1.7932 -0.8102
  375MOL0     H50618  11.076   4.989   9.872 -1.8595 -0.2331 -0.0830
  375MOL0     H50619  11.215   4.926   9.607  0.2039 -1.6760  1.9017
  375MOL0     H50620  11.108   5.072   9.616  0.5408  1.3074  0.9710
  375MOL0     H50621  11.432   5.216   9.838  1.1789 -3.1739 -0.0849
  375MOL0     H50622  10.615   4.685   9.461  2.5033  0.7193  0.0037
  375MOL0     H50623  10.324   4.785   9.418 -0.7310  0.3639 -0.1961
  375MOL0     H50624  10.419   4.646   9.368  0.1237 -1.3779  1.1132
  375MOL0     H50625  10.276   4.619   9.467  2.0656 -0.8038  4.3147
  376MOL0     O50626   9.123   1.183   9.503  0.1408 -0.1816 -0.9301
  376MOL0     C50627   9.045   1.194   9.593 -0.8216 -0.2578  0.4779
  376MOL0     O50628   9.087   1.207   9.721  0.1096 -0.8808 -0.5037
  376MOL0     C50629   9.220   1.236   9.759  0.3560 -0.0778  0.1433
  376MOL0     C50630   9.313   1.318   9.694 -0.9846 -0.2614  0.2403
  376MOL0     C50631   9.442   1.352   9.749  0.8285 -0.0744  1.2285
  376MOL0     C50632   9.476   1.295   9.870  0.5621 -0.7775 -0.9108
  376MOL0     O50633   9.594   1.317   9.947 -0.1045 -0.5474  0.6957
  376MOL0     C50634   9.702   1.373   9.873 -0.7461 -0.4206 -0.0789
  376MOL0     C50635   9.808   1.413   9.977  0.0920 -0.2408 -0.6371
  376MOL0     C50636   9.855   1.291  10.054  0.5359  1.3384  0.8749
  376MOL0     C50637   9.933   1.328  10.174 -0.0410 -0.6268 -0.3523
  376MOL0     C50638  10.005   1.198  10.235  0.7926  0.1705 -0.2276
  376MOL0     C50639  10.124   1.172  10.142  0.7245 -0.4166 -0.8331
  376MOL0     C50640  10.246   1.148  10.227  0.0664  0.5767  0.0202
  376MOL0     C50641  10.295   1.275  10.307 -0.0316 -0.5356  0.1438
  376MOL0     N50642  10.309   1.393  10.220  0.1787  0.4495 -0.6904
  376MOL0     C50643  10.393   1.397  10.113 -0.2262 -0.5472  0.3769
  376MOL0     C50644  10.400   1.527  10.081 -0.8058  0.3552  0.7902
  376MOL0     C50645  10.453   1.584   9.946 -0.3645 -0.3370 -0.5585
  376MOL0     C50646  10.600   1.629   9.966  0.8108  0.3407  0.0596
  376MOL0     C50647  10.697   1.518  10.036  0.0317 -0.6554  0.3471
  376MOL0     C50648  10.838   1.565  10.010 -0.3715  0.1233 -0.5845
  376MOL0     O50649  10.889   1.678  10.084  0.4863 -0.0020  0.7443
  376MOL0     C50650  11.026   1.702  10.084  0.3061  0.1427  0.4279
  376MOL0     C50651  11.080   1.748  10.202  0.3517 -0.2552 -0.0494
  376MOL0     C50652  11.212   1.784  10.217  0.6947  0.6870 -0.3703
  376MOL0     C50653  11.300   1.772  10.115 -0.0992  0.0595  0.2891
  376MOL0     C50654  11.446   1.805  10.124 -0.1699  0.5803 -0.2938
  376MOL0     O50655  11.520   1.804  10.008 -0.1310 -0.0537 -0.1276
  376MOL0     C50656  11.651   1.860  10.009  0.4755  0.5130 -0.4245
  376MOL0     C50657  11.681   1.974  10.075  0.2260  0.5420  0.1790
  376MOL0     C50658  11.799   2.036  10.058 -0.4643 -0.4948  0.6566
  376MOL0     C50659  11.904   1.982   9.976  1.3321  0.2690 -0.2830
  376MOL0     O50660  12.032   2.032   9.960 -0.0126 -0.2670 -0.2090
  376MOL0     C50661  12.030   2.172   9.957 -0.0595 -0.5818  0.2328
  376MOL0     C50662  12.175   2.209   9.945 -0.1540 -0.2746  0.1181
  376MOL0     C50663  12.266   2.149   9.834  0.3010 -0.0483 -0.5511
  376MOL0     C50664  12.407   2.210   9.833 -0.2408 -0.2137  0.1307
  376MOL0     C50665  12.398   2.371   9.813 -0.1307  0.1618 -0.1463
  376MOL0     C50666  12.540   2.423   9.794 -0.0561  0.0192  0.1616
  376MOL0     C50667  12.539   2.569   9.756 -0.9816 -0.1150  0.9484
  376MOL0     C50668  12.676   2.623   9.718 -0.5054  0.1975 -0.4391
  376MOL0    Cl50669  12.814   2.571   9.814  0.2576 -0.3248 -0.0625
  376MOL0     C50670  11.880   1.858   9.916 -0.9869  1.0578 -0.5877
  376MOL0     C50671  11.754   1.793   9.939 -0.0163 -0.0531 -0.3582
  376MOL0     O50672  11.476   1.852  10.231  0.1280  0.4250 -0.9420
  376MOL0     C50673  11.252   1.703   9.993 -0.5258  0.0399 -1.3892
  376MOL0     C50674  11.126   1.672   9.984  0.7310 -0.0054  0.2104
  376MOL0     N50675  10.330   1.590  10.181 -0.0720  0.6790  0.3783
  376MOL0     N50676  10.272   1.511  10.258  0.7418  0.6573  0.4076
  376MOL0     C50677   9.386   1.208   9.930 -0.4534 -0.1062 -1.0737
  376MOL0     C50678   9.262   1.181   9.886 -0.2462 -0.1889 -0.3187
  376MOL0     C50679   8.895   1.193   9.578 -0.0273 -0.1880 -0.0125
  376MOL0     C50680   8.819   1.296   9.631  0.6572 -0.2129 -0.5952
  376MOL0     C50681   8.682   1.296   9.603 -0.3459  0.6770  0.2620
  376MOL0     C50682   8.610   1.198   9.545  0.1882 -0.0018  0.7229
  376MOL0     O50683   8.475   1.207   9.517  0.2378 -0.3839 -0.4770
  376MOL0     C50684   8.389   1.128   9.604  0.2583 -0.2822  0.0953
  376MOL0     C50685   8.240   1.145   9.569 -0.0732  0.5222  0.0238
  376MOL0     C50686   8.142   1.090   9.680 -1.1187 -0.6495  1.8194
  376MOL0     C50687   7.996   1.094   9.630  0.3227  0.1649 -0.1207
  376MOL0     C50688   7.920   1.041   9.742  0.9217 -0.3467  0.3749
  376MOL0     C50689   7.854   0.993   9.831 -0.3572 -0.5567  0.9051
  376MOL0     C50690   8.682   1.091   9.504 -0.0971  0.5209 -0.4931
  376MOL0     C50691   8.826   1.092   9.509  0.6467  0.2400 -0.0882
  376MOL0     C50692   8.892   0.973   9.435 -0.0657  0.4007 -0.0837
  376MOL0     H50693   9.287   1.380   9.609  1.6045 -0.3846 -0.7211
  376MOL0     H50694   9.495   1.425   9.690 -2.5136  1.0009 -0.7189
  376MOL0     H50695   9.740   1.293   9.809 -0.8674  1.2612 -2.3779
  376MOL0     H50696   9.668   1.454   9.808 -0.6282 -0.2373  0.0848
  376MOL0     H50697   9.757   1.485  10.040 -0.2625 -2.1581  1.3734
  376MOL0     H50698   9.897   1.466   9.940  0.2606  0.6689  0.9756
  376MOL0     H50699   9.911   1.217   9.996  1.0043  0.4043  2.4482
  376MOL0     H50700   9.771   1.235  10.097  3.1995 -3.6605  0.3602
  376MOL0     H50701  10.005   1.404  10.139 -0.1293 -0.6927 -0.6811
  376MOL0     H50702   9.876   1.375  10.254  0.8011 -2.2613  1.2654
  376MOL0     H50703  10.034   1.222  10.337 -3.2368  1.9945  0.6985
  376MOL0     H50704   9.937   1.112  10.232  0.6925  0.1631  1.4978
  376MOL0     H50705  10.117   1.071  10.101  4.3885 -0.0806 -2.7119
  376MOL0     H50706  10.137   1.251  10.067 -3.0837  1.3916  0.1639
  376MOL0     H50707  10.331   1.110  10.169 -0.6897 -0.7125 -0.2793
  376MOL0     H50708  10.226   1.071  10.303 -1.5440  2.4653  1.6284
  376MOL0     H50709  10.223   1.289  10.387  1.7940 -1.8825  2.1403
  376MOL0     H50710  10.397   1.249  10.338  0.3349 -1.3180 -1.5779
  376MOL0     H50711  10.428   1.309  10.060 -0.8931 -0.9430  0.5831
  376MOL0     H50712  10.444   1.510   9.866 -0.1671  0.2118 -1.0915
  376MOL0     H50713  10.389   1.670   9.924 -4.0227 -2.7483 -0.1447
  376MOL0     H50714  10.633   1.666   9.868 -1.7632  3.4984  0.2243
  376MOL0     H50715  10.600   1.717  10.031  0.9715  0.0457  0.4602
  376MOL0     H50716  10.677   1.422   9.989  1.8117 -2.1895  2.5367
  376MOL0     H50717  10.688   1.509  10.145  0.3255 -1.2502  0.3200
  376MOL0     H50718  10.850   1.594   9.905  1.4511  1.2123 -0.1171
  376MOL0     H50719  10.914   1.486  10.019  0.4466  0.9811  0.2754
  376MOL0     H50720  11.021   1.755  10.293  0.1059  0.8375 -0.2750
  376MOL0     H50721  11.245   1.812  10.317 -2.1554  0.1175  0.8368
  376MOL0     H50722  11.602   2.014  10.137 -2.8859 -1.8633 -1.9334
  376MOL0     H50723  11.821   2.121  10.121  1.2058 -1.3144  1.2365
  376MOL0     H50724  11.970   2.215   9.877 -2.6927 -1.1371  1.7800
  376MOL0     H50725  12.000   2.219  10.051 -0.9912  0.7833 -0.7077
  376MOL0     H50726  12.172   2.318   9.937 -0.2178 -0.3972 -3.2690
  376MOL0     H50727  12.217   2.179  10.041  0.9642 -1.6778 -0.7482
  376MOL0     H50728  12.276   2.041   9.853  0.1861  0.0606  0.1278
  376MOL0     H50729  12.218   2.171   9.738 -1.4439 -0.6231  0.1550
  376MOL0     H50730  12.461   2.168   9.747 -0.8942  1.0806 -0.9559
  376MOL0     H50731  12.469   2.177   9.916 -1.1902 -2.9950 -0.1609
  376MOL0     H50732  12.346   2.423   9.894 -1.9681 -0.2352 -1.0081
  376MOL0     H50733  12.361   2.389   9.712  2.4260 -1.3810 -1.4821
  376MOL0     H50734  12.595   2.417   9.889 -2.2057  3.5533  1.8813
  376MOL0     H50735  12.593   2.373   9.713 -1.0268 -1.0761  0.1746
  376MOL0     H50736  12.508   2.622   9.846 -0.8176 -0.7435  1.3849
  376MOL0     H50737  12.465   2.584   9.677  0.6302  0.1608 -0.5662
  376MOL0     H50738  12.699   2.594   9.615 -1.9267 -0.0304 -0.7195
  376MOL0     H50739  12.677   2.732   9.726 -1.6235  0.0819  4.7023
  376MOL0     H50740  11.960   1.806   9.864  1.2026  1.3078  2.3074
  376MOL0     H50741  11.736   1.705   9.878 -1.2315 -0.9907  1.2496
  376MOL0     H50742  11.310   1.685   9.903 -0.1768 -2.6302 -0.7308
  376MOL0     H50743  11.088   1.649   9.885 -0.7804  0.1523  0.7303
  376MOL0     H50744   9.396   1.179  10.034  0.1773 -2.0539 -1.6405
  376MOL0     H50745   9.187   1.130   9.946  1.2726 -2.6420 -0.3653
  376MOL0     H50746   8.858   1.378   9.689 -0.1320 -0.7385  0.7371
  376MOL0     H50747   8.617   1.375   9.636 -0.6972  1.1672 -1.4976
  376MOL0     H50748   8.412   1.134   9.711  0.4152  2.9651 -0.0200
  376MOL0     H50749   8.406   1.021   9.587  0.1308  0.0391 -2.4695
  376MOL0     H50750   8.215   1.095   9.475  1.6426 -0.1436 -0.1058
  376MOL0     H50751   8.225   1.254   9.566  1.9533  0.8731 -3.5982
  376MOL0     H50752   8.157   1.153   9.768  0.8341 -1.2641  1.9749
  376MOL0     H50753   8.179   0.988   9.692  0.3016 -0.5904 -1.1386
  376MOL0     H50754   7.972   1.200   9.624  2.2278  0.6178 -0.2817
  376MOL0     H50755   7.973   1.026   9.547  0.8958 -0.4952  0.2465
  376MOL0     H50756   7.789   0.937   9.895 -1.8014  1.0993  0.9652
  376MOL0     H50757   8.630   1.007   9.459 -2.9013  2.9570 -2.2242
  376MOL0     H50758   8.919   0.904   9.515  3.1977 -0.5933 -1.8487
  376MOL0     H50759   8.831   0.916   9.365 -0.5053  0.1237  0.5190
  376MOL0     H50760   8.980   1.005   9.379  2.0555 -1.5778  1.9347
  377MOL0     O50761   7.108   2.781   7.734 -0.3819  0.5790  0.6168
  377MOL0     C50762   7.143   2.671   7.694  0.1831  0.0176 -0.0726
  377MOL0     O50763   7.242   2.605   7.746 -0.2115 -0.2436  0.2341
  377MOL0     C50764   7.320   2.674   7.837 -0.0156 -0.9275  0.0345
  377MOL0     C50765   7.275   2.670   7.976 -0.7862  0.2797  0.8484
  377MOL0     C50766   7.354   2.743   8.066 -0.3377  0.4202 -0.4856
  377MOL0     C50767   7.470   2.810   8.033  0.5952  1.5358  0.5470
  377MOL0     O50768   7.534   2.867   8.141  0.4837  0.4336  0.5643
  377MOL0     C50769   7.579   3.001   8.131  0.5118  0.5332 -0.1865
  377MOL0     C50770   7.664   3.032   8.245 -0.0652  0.1447 -0.0376
  377MOL0     C50771   7.650   3.183   8.262 -0.4818 -0.1550 -0.1559
  377MOL0     C50772   7.728   3.235   8.389  1.3944 -0.6773  1.3240
  377MOL0     C50773   7.682   3.368   8.432 -1.2250 -0.0416  0.0991
  377MOL0     C50774   7.755   3.412   8.560 -0.5473 -0.1483  0.0850
  377MOL0     C50775   7.740   3.559   8.597  0.5315 -0.5467 -0.2332
  377MOL0     C50776   7.591   3.607   8.585  0.2808  0.4093  0.1509
  377MOL0     N50777   7.583   3.752   8.606 -1.0436 -0.1514  0.6281
  377MOL0     C50778   7.575   3.832   8.495 -0.3337  0.1557 -0.5782
  377MOL0     C50779   7.574   3.956   8.539  0.6200  0.2249 -0.7123
  377MOL0     C50780   7.553   4.078   8.460 -0.1722 -0.0503  0.2913
  377MOL0     C50781   7.626   4.207   8.522  0.4766  0.7368 -0.9373
  377MOL0     C50782   7.601   4.325   8.423 -0.4220  0.2048  0.2616
  377MOL0     C50783   7.461   4.323   8.366  0.5052  0.0191 -0.0363
  377MOL0     O50784   7.428   4.456   8.327  0.1328 -0.3024  0.3806
  377MOL0     C50785   7.324   4.483   8.244 -0.8165 -0.4505 -0.7056
  377MOL0     C50786   7.236   4.392   8.200  0.6761 -0.0524 -0.0443
  377MOL0     C50787   7.151   4.433   8.091 -0.3070 -0.5935  0.7159
  377MOL0     C50788   7.154   4.565   8.040 -0.2319 -0.1248 -0.0657
  377MOL0     C50789   7.077   4.593   7.907  0.7105  0.0151  0.2127
  377MOL0     O50790   7.087   4.717   7.865 -0.8387 -0.3236  0.3551
  377MOL0     C50791   7.028   4.747   7.746  0.7112  0.3335 -0.7129
  377MOL0     C50792   6.897   4.721   7.727  1.2745 -0.2689 -0.0008
  377MOL0     C50793   6.844   4.727   7.596 -0.0255  0.7731 -0.1478
  377MOL0     C50794   6.934   4.779   7.497 -0.0738 -0.0764 -0.0067
  377MOL0     O50795   6.888   4.798   7.366 -0.6953  0.2651 -0.4167
  377MOL0     C50796   6.754   4.848   7.348 -0.9618 -0.2471 -0.7187
  377MOL0     C50797   6.679   4.765   7.245  0.2380  0.5198  1.0976
  377MOL0     C50798   6.544   4.833   7.203  0.5986 -0.2650  0.8748
  377MOL0     C50799   6.581   4.955   7.119 -0.1790 -0.2815  0.1708
  377MOL0     C50800   6.449   5.020   7.077 -0.5584 -0.1017 -0.2147
  377MOL0     C50801   6.474   5.130   6.975  0.8326 -0.9849  0.7960
  377MOL0     C50802   6.336   5.200   6.954  0.1330  0.1273 -0.1930
  377MOL0     C50803   6.363   5.329   6.874  0.3545  0.3781 -0.2228
  377MOL0    Cl50804   6.205   5.392   6.821  0.1031  0.2720  0.3069
  377MOL0     C50805   7.060   4.822   7.517  0.0775  0.0734 -0.7683
  377MOL0     C50806   7.103   4.805   7.648 -0.1270  0.0333  0.2800
  377MOL0     O50807   7.040   4.496   7.838 -0.1487  0.5608 -0.1505
  377MOL0     C50808   7.221   4.662   8.110 -0.3270  0.6741 -0.0028
  377MOL0     C50809   7.313   4.612   8.206  0.0459 -0.5445 -0.3417
  377MOL0     N50810   7.566   3.951   8.682 -0.5931  0.5280  0.2702
  377MOL0     N50811   7.587   3.823   8.721  0.5135 -0.9016  0.3716
  377MOL0     C50812   7.502   2.819   7.900 -0.1800 -0.1552  0.6240
  377MOL0     C50813   7.431   2.744   7.804  0.5065  0.1077 -0.7151
  377MOL0     C50814   7.064   2.611   7.587 -0.6655 -0.9252  0.4711
  377MOL0     C50815   7.100   2.495   7.520  0.3995 -0.1799  1.2403
  377MOL0     C50816   7.029   2.431   7.410 -0.3747 -0.3346  0.3421
  377MOL0     C50817   6.913   2.487   7.366 -1.4940 -0.7120 -0.0957
  377MOL0     O50818   6.852   2.423   7.256 -0.0507 -0.6628  0.2639
  377MOL0     C50819   6.728   2.465   7.201 -0.4861 -0.3057  0.2655
  377MOL0     C50820   6.678   2.365   7.094  0.3156 -0.9088  0.2947
  377MOL0     C50821   6.563   2.425   7.000 -0.4224 -0.0503  0.6097
  377MOL0     C50822   6.437   2.462   7.078  0.0963  1.2738  0.2709
  377MOL0     C50823   6.451   2.583   7.163  0.9865 -0.5833 -0.4569
  377MOL0     C50824   6.451   2.690   7.233  0.4073 -0.6677 -0.1877
  377MOL0     C50825   6.871   2.596   7.431  0.2172 -0.3350 -1.6264
  377MOL0     C50826   6.929   2.656   7.552 -0.0200 -0.6370  0.9828
  377MOL0     C50827   6.844   2.762   7.623 -0.2749  0.2844  0.1637
  377MOL0     H50828   7.194   2.606   8.008  0.3353  0.6551  5.1731
  377MOL0     H50829   7.316   2.729   8.166  0.2449 -1.1750 -0.4511
  377MOL0     H50830   7.640   3.020   8.042  1.5258  1.3873  0.6578
  377MOL0     H50831   7.489   3.064   8.137  2.6097  3.6168  2.8519
  377MOL0     H50832   7.767   3.004   8.221 -0.9413 -0.4370 -3.6344
  377MOL0     H50833   7.633   2.979   8.336 -0.0061  1.0715  0.5382
  377MOL0     H50834   7.542   3.195   8.266 -0.4667 -0.0560 -0.0542
  377MOL0     H50835   7.693   3.231   8.173  1.4614 -0.2337  0.6799
  377MOL0     H50836   7.708   3.168   8.473 -3.6343 -1.9680 -0.5500
  377MOL0     H50837   7.836   3.234   8.367  1.0101  1.9723 -1.4071
  377MOL0     H50838   7.690   3.441   8.352 -0.5367 -0.2568 -0.0352
  377MOL0     H50839   7.574   3.370   8.452 -0.7096 -0.5700  3.5032
  377MOL0     H50840   7.726   3.351   8.646 -0.0282 -0.0830  0.3088
  377MOL0     H50841   7.863   3.394   8.558 -0.8061 -1.8948 -1.6668
  377MOL0     H50842   7.810   3.606   8.528  0.9035  0.3773  0.7448
  377MOL0     H50843   7.777   3.577   8.699  0.8619 -2.3159 -0.0070
  377MOL0     H50844   7.542   3.580   8.491 -1.2570  0.5941  0.8654
  377MOL0     H50845   7.542   3.549   8.664 -0.0799  2.1002  1.2421
  377MOL0     H50846   7.582   3.801   8.391  0.6761  0.2823 -0.5622
  377MOL0     H50847   7.601   4.063   8.363  2.2783  3.7451  0.6612
  377MOL0     H50848   7.444   4.075   8.453 -0.0960 -4.2148 -2.2616
  377MOL0     H50849   7.571   4.226   8.615  0.2031  0.2834 -0.9996
  377MOL0     H50850   7.732   4.194   8.546 -0.1938 -0.0814  2.0352
  377MOL0     H50851   7.670   4.317   8.338 -1.9021 -2.4667 -0.7891
  377MOL0     H50852   7.620   4.415   8.483 -2.9192  0.2958  1.0042
  377MOL0     H50853   7.394   4.293   8.448 -2.3412  2.8545 -1.1103
  377MOL0     H50854   7.451   4.257   8.280 -0.9744 -2.1224  1.6579
  377MOL0     H50855   7.249   4.294   8.245  0.1978 -1.0337 -1.9257
  377MOL0     H50856   7.080   4.371   8.037  1.3112  0.9871 -3.7203
  377MOL0     H50857   6.840   4.680   7.810 -1.6408  2.4309 -0.4818
  377MOL0     H50858   6.742   4.691   7.586  0.5282 -2.7042  3.7538
  377MOL0     H50859   6.698   4.848   7.442 -2.2243  2.2633 -1.3918
  377MOL0     H50860   6.774   4.954   7.329  1.1537  0.0367  2.4057
  377MOL0     H50861   6.746   4.748   7.160  0.1745 -0.4652  1.2333
  377MOL0     H50862   6.654   4.665   7.284 -0.1330 -0.4014 -1.3391
  377MOL0     H50863   6.474   4.774   7.144  0.9278  1.1455 -1.0215
  377MOL0     H50864   6.488   4.861   7.292 -1.7392 -1.1935 -0.2109
  377MOL0     H50865   6.635   4.915   7.033  0.0013 -0.8596  0.5471
  377MOL0     H50866   6.646   5.028   7.169  0.7808 -0.2889 -1.0408
  377MOL0     H50867   6.403   5.064   7.166  1.6667  2.3314 -0.1613
  377MOL0     H50868   6.376   4.946   7.043 -0.8359  0.1550 -0.1830
  377MOL0     H50869   6.545   5.205   7.013  0.9972  0.2889 -1.7926
  377MOL0     H50870   6.505   5.085   6.880 -0.4023  0.3279 -0.2741
  377MOL0     H50871   6.288   5.229   7.048  1.1992 -2.6855  1.3342
  377MOL0     H50872   6.267   5.136   6.897 -0.4787  1.2949 -0.8018
  377MOL0     H50873   6.412   5.410   6.930 -1.9796  0.0060  2.5586
  377MOL0     H50874   6.425   5.310   6.785  1.7915  1.0963  0.5778
  377MOL0     H50875   7.118   4.877   7.443  1.3009 -1.4934 -1.0312
  377MOL0     H50876   7.202   4.837   7.678 -0.4793  1.9749 -0.4964
  377MOL0     H50877   7.221   4.769   8.094  1.5648  1.1759  2.6537
  377MOL0     H50878   7.371   4.686   8.260 -0.9882  0.9367 -1.1731
  377MOL0     H50879   7.592   2.874   7.875 -0.3091  0.3598  1.2756
  377MOL0     H50880   7.458   2.765   7.701  1.7820  1.9342 -0.0706
  377MOL0     H50881   7.195   2.452   7.549  0.8984  1.6622  2.4999
  377MOL0     H50882   7.063   2.337   7.367  1.5168 -0.5515  2.1458
  377MOL0     H50883   6.743   2.563   7.156 -3.0734  0.5076  1.0028
  377MOL0     H50884   6.663   2.494   7.284  3.0900  0.5681  3.0086
  377MOL0     H50885   6.638   2.274   7.140 -0.1562 -1.3165 -0.8999
  377MOL0     H50886   6.756   2.315   7.035 -2.2386 -3.8566 -0.8547
  377MOL0     H50887   6.534   2.347   6.930  0.7025 -1.4885  1.6766
  377MOL0     H50888   6.608   2.508   6.944  0.9610 -2.7502 -2.6065
  377MOL0     H50889   6.362   2.486   7.002  2.5789  2.3352 -2.0143
  377MOL0     H50890   6.406   2.383   7.146  2.4939  0.0098  0.0086
  377MOL0     H50891   6.429   2.781   7.285 -0.2032 -1.3993  0.8833
  377MOL0     H50892   6.777   2.642   7.401  0.9232  3.3021  1.0034
  377MOL0     H50893   6.806   2.732   7.721  2.6730  0.6668  1.5217
  377MOL0     H50894   6.903   2.852   7.641 -0.3757  0.0333  1.9829
  377MOL0     H50895   6.759   2.781   7.557  0.2818 -1.5432 -1.1756
  378MOL0     O50896   5.023   7.156   4.502  0.1443  0.7971  0.4654
  378MOL0     C50897   4.976   7.053   4.457 -0.2044 -0.2019 -0.1980
  378MOL0     O50898   5.042   6.936   4.456 -0.4340 -0.0320  0.1490
  378MOL0     C50899   5.168   6.926   4.504 -0.6282  0.4710  0.0949
  378MOL0     C50900   5.268   6.886   4.410  0.2874  0.7433 -0.3807
  378MOL0     C50901   5.399   6.857   4.450  0.0311 -0.7896 -0.3279
  378MOL0     C50902   5.439   6.868   4.582 -0.9306  0.6196  1.5651
  378MOL0     O50903   5.564   6.826   4.622 -0.3733  0.3102 -0.1696
  378MOL0     C50904   5.623   6.708   4.560  0.4669  1.2445 -0.4401
  378MOL0     C50905   5.765   6.692   4.612 -0.7539 -0.2632  0.2115
  378MOL0     C50906   5.852   6.798   4.533 -0.0248 -0.2278 -0.3627
  378MOL0     C50907   5.915   6.911   4.620  0.0513 -0.2961  0.0398
  378MOL0     C50908   6.025   6.986   4.552 -0.4671  0.9452 -0.3160
  378MOL0     C50909   6.078   7.094   4.650  0.2374 -0.6448  0.3345
  378MOL0     C50910   6.223   7.118   4.603 -0.0367 -0.4567  0.0269
  378MOL0     C50911   6.283   7.258   4.641 -0.4175  0.8580  0.9153
  378MOL0     N50912   6.421   7.278   4.595  0.0248 -0.5418  0.1945
  378MOL0     C50913   6.530   7.228   4.660 -0.3240  0.6089 -0.4766
  378MOL0     C50914   6.641   7.286   4.604  0.4284  0.7026 -0.1945
  378MOL0     C50915   6.784   7.260   4.623 -0.4614  0.8360 -0.3451
  378MOL0     C50916   6.843   7.324   4.753  0.2708  1.4089 -0.1119
  378MOL0     C50917   6.998   7.323   4.773 -0.5254  0.7177 -0.3135
  378MOL0     C50918   7.042   7.175   4.775 -0.5728  0.4322 -0.4002
  378MOL0     O50919   7.001   7.105   4.900  0.4218 -0.4171 -0.3681
  378MOL0     C50920   7.003   6.970   4.903  0.1138  0.6037 -0.4276
  378MOL0     C50921   7.066   6.897   4.805  0.2817  1.1298  0.0517
  378MOL0     C50922   7.055   6.758   4.803  0.7362 -0.4426  0.1543
  378MOL0     C50923   6.984   6.693   4.904  0.8276  0.7450  0.7762
  378MOL0     C50924   6.965   6.550   4.893  0.9875  0.7504 -0.7519
  378MOL0     O50925   6.865   6.497   4.982 -0.4165  0.3282 -0.1285
  378MOL0     C50926   6.827   6.365   4.963 -0.7435  0.1452  0.2789
  378MOL0     C50927   6.907   6.265   5.025 -0.2962 -0.4282 -0.1842
  378MOL0     C50928   6.867   6.134   5.034 -0.2453  0.4418  0.3399
  378MOL0     C50929   6.752   6.096   4.978  0.5079 -0.3426  0.1167
  378MOL0     O50930   6.709   5.968   4.978 -0.3821 -0.4649 -0.1759
  378MOL0     C50931   6.798   5.857   5.013  0.0634 -0.3148  0.5449
  378MOL0     C50932   6.890   5.822   4.898 -0.3640  0.2037 -0.2481
  378MOL0     C50933   6.943   5.685   4.929  0.5701  0.2811  0.2484
  378MOL0     C50934   7.082   5.690   5.012  0.8762  0.4289 -0.0402
  378MOL0     C50935   7.134   5.548   5.030  0.1594 -0.0748  0.4302
  378MOL0     C50936   7.043   5.453   5.111  0.4485  0.5125  0.0815
  378MOL0     C50937   7.108   5.309   5.105  0.2805 -0.2610 -0.4530
  378MOL0     C50938   7.037   5.205   5.181  0.0629 -1.5297  0.4623
  378MOL0    Cl50939   7.120   5.040   5.173  0.5274  0.1408  0.0370
  378MOL0     C50940   6.671   6.188   4.906 -0.3159  0.0869 -0.0321
  378MOL0     C50941   6.710   6.322   4.903  0.5842 -0.1080  0.0111
  378MOL0     O50942   7.042   6.482   4.830  0.4643 -0.2752  0.3446
  378MOL0     C50943   6.918   6.767   4.993 -0.2894 -0.8279 -1.1587
  378MOL0     C50944   6.930   6.906   4.999  0.4164  0.2844 -0.1444
  378MOL0     N50945   6.593   7.369   4.503  0.0425  0.4071  0.0888
  378MOL0     N50946   6.465   7.365   4.500  0.7729  0.1344  0.1670
  378MOL0     C50947   5.342   6.917   4.672 -0.1375 -0.0286  0.5555
  378MOL0     C50948   5.214   6.958   4.635  0.5920 -0.1897  0.6555
  378MOL0     C50949   4.844   7.068   4.395  0.0111 -0.3823  0.2837
  378MOL0     C50950   4.778   7.189   4.388  0.4080 -0.5558  0.1234
  378MOL0     C50951   4.643   7.198   4.353  0.7478 -0.6348  0.4247
  378MOL0     C50952   4.564   7.101   4.323 -0.4198 -0.6248 -0.1484
  378MOL0     O50953   4.429   7.126   4.286 -0.1820  0.2039 -0.9280
  378MOL0     C50954   4.327   7.074   4.374  0.3255 -0.6262 -0.3747
  378MOL0     C50955   4.288   7.175   4.478 -0.3355 -0.2629 -0.2248
  378MOL0     C50956   4.207   7.289   4.418 -0.3076  0.0850  0.7440
  378MOL0     C50957   4.290   7.416   4.367 -0.0526  0.0484  0.5426
  378MOL0     C50958   4.205   7.488   4.270  0.3554  0.7671 -0.7052
  378MOL0     C50959   4.159   7.569   4.193 -0.5488  1.1825 -0.2917
  378MOL0     C50960   4.632   6.974   4.307  0.4751 -1.5283 -0.5972
  378MOL0     C50961   4.768   6.959   4.336 -0.0255 -0.2927 -0.0189
  378MOL0     C50962   4.820   6.820   4.329 -0.6387  0.2335  0.4436
  378MOL0     H50963   5.232   6.857   4.312 -3.1638  0.8329  0.7079
  378MOL0     H50964   5.461   6.827   4.365  2.9990  3.6365 -0.0252
  378MOL0     H50965   5.574   6.619   4.599  1.4223  1.6731  1.9137
  378MOL0     H50966   5.620   6.707   4.451  1.1746  1.2701 -0.4690
  378MOL0     H50967   5.804   6.591   4.594  1.9723  0.4510  1.5035
  378MOL0     H50968   5.769   6.708   4.720 -1.3191  0.4401  0.1334
  378MOL0     H50969   5.790   6.845   4.455 -4.0885 -2.1177  1.4257
  378MOL0     H50970   5.926   6.749   4.470 -1.0005 -0.8163 -1.0886
  378MOL0     H50971   5.833   6.976   4.652 -0.6508 -1.8441  1.5507
  378MOL0     H50972   5.954   6.868   4.713  2.2101 -1.7379 -1.4430
  378MOL0     H50973   6.109   6.921   4.525  1.8231  3.4967  0.1700
  378MOL0     H50974   5.996   7.036   4.460  2.7706  3.1263 -0.3309
  378MOL0     H50975   6.017   7.184   4.640 -0.0092 -1.0361 -2.5398
  378MOL0     H50976   6.079   7.058   4.753  1.0818  2.9281  1.7161
  378MOL0     H50977   6.233   7.103   4.495  1.1510 -1.0208  0.1996
  378MOL0     H50978   6.285   7.039   4.646  2.4278  0.9829 -0.6476
  378MOL0     H50979   6.223   7.341   4.603 -0.5841  1.0229  1.5157
  378MOL0     H50980   6.285   7.260   4.751  1.1314  1.4315  0.8963
  378MOL0     H50981   6.519   7.158   4.742  1.2532  1.4126  0.4579
  378MOL0     H50982   6.809   7.154   4.615 -1.7937  0.5489 -1.1060
  378MOL0     H50983   6.833   7.316   4.543  0.6694  2.9762  1.7327
  378MOL0     H50984   6.815   7.429   4.739 -0.8447  0.9455 -1.6335
  378MOL0     H50985   6.799   7.271   4.838  1.3425  0.0598 -0.3686
  378MOL0     H50986   7.026   7.373   4.866 -4.6068  3.3637 -0.2481
  378MOL0     H50987   7.045   7.377   4.690 -0.2329 -1.8947 -1.9826
  378MOL0     H50988   7.150   7.162   4.760 -0.9174 -0.9057 -1.9575
  378MOL0     H50989   6.994   7.128   4.689 -0.2870  1.9048 -1.4039
  378MOL0     H50990   7.122   6.945   4.726  0.2070 -0.1074 -0.7728
  378MOL0     H50991   7.105   6.708   4.721  0.2427 -1.2988  0.3643
  378MOL0     H50992   7.011   6.282   5.052 -0.0538 -1.8917 -0.0922
  378MOL0     H50993   6.924   6.063   5.093 -1.7179 -0.7697  0.3576
  378MOL0     H50994   6.849   5.883   5.106 -2.7638  1.7729  1.6633
  378MOL0     H50995   6.724   5.781   5.042 -4.0019  2.5170 -1.3613
  378MOL0     H50996   6.840   5.834   4.801  0.5338  1.0683 -0.6227
  378MOL0     H50997   6.974   5.890   4.914  1.9003 -2.7442  1.4672
  378MOL0     H50998   6.868   5.621   4.978  0.0175 -1.6335 -2.8629
  378MOL0     H50999   6.952   5.642   4.829  1.2510  0.0420  0.4088
  378MOL0     H51000   7.063   5.744   5.106  1.6877  1.0417 -0.2211
  378MOL0     H51001   7.168   5.737   4.964  1.7197 -0.0973  0.9149
  378MOL0     H51002   7.229   5.554   5.083  0.8805  1.2352 -0.9196
  378MOL0     H51003   7.141   5.513   4.926 -1.7978  3.7429 -1.1975
  378MOL0     H51004   7.044   5.477   5.218 -0.6310  1.4523 -0.1066
  378MOL0     H51005   6.938   5.448   5.082 -1.0062  0.0168  4.5421
  378MOL0     H51006   7.203   5.317   5.159  0.3162  0.9790 -0.6600
  378MOL0     H51007   7.124   5.279   5.002  3.4160 -2.1859  0.4546
  378MOL0     H51008   7.040   5.249   5.280  1.4867  0.3636 -0.3657
  378MOL0     H51009   6.933   5.200   5.147  0.2824 -0.6821 -0.3890
  378MOL0     H51010   6.578   6.159   4.860 -1.0348  1.9295  0.1653
  378MOL0     H51011   6.635   6.394   4.874  0.4513 -0.1778  0.1764
  378MOL0     H51012   6.844   6.727   5.062 -0.6433  1.9503  0.1900
  378MOL0     H51013   6.876   6.963   5.074  1.8083  2.4929 -0.7450
  378MOL0     H51014   5.370   6.916   4.776 -1.3339 -1.1341  0.8996
  378MOL0     H51015   5.137   6.985   4.707  0.3836  1.6007 -0.1961
  378MOL0     H51016   4.817   7.284   4.423 -1.2331  1.7036 -3.5950
  378MOL0     H51017   4.601   7.297   4.367  1.6265 -0.3865  1.4310
  378MOL0     H51018   4.364   6.987   4.430 -1.1731 -0.5945  0.7027
  378MOL0     H51019   4.244   7.049   4.307  2.3579 -0.1396 -3.2977
  378MOL0     H51020   4.376   7.211   4.532  2.7081 -2.9817 -2.8788
  378MOL0     H51021   4.223   7.114   4.541 -1.6345 -0.6469 -1.8481
  378MOL0     H51022   4.134   7.309   4.496  1.9878 -0.1249  3.0812
  378MOL0     H51023   4.158   7.258   4.325  3.4857  2.2775 -2.3173
  378MOL0     H51024   4.310   7.479   4.453 -0.7301 -2.6690  2.8537
  378MOL0     H51025   4.384   7.379   4.324 -0.7236 -1.5062  0.3114
  378MOL0     H51026   4.127   7.652   4.134 -0.8058  1.9303  0.8626
  378MOL0     H51027   4.570   6.887   4.284 -3.5434  0.7447  0.6286
  378MOL0     H51028   4.750   6.749   4.283  1.8002 -1.1331 -1.4483
  378MOL0     H51029   4.893   6.820   4.247 -1.8390  1.4669 -0.6599
  378MOL0     H51030   4.855   6.772   4.421 -0.9657 -2.7043 -0.8551
  379MOL0     O51031   1.551   5.854   5.301  0.1497 -0.2001 -0.3967
  379MOL0     C51032   1.455   5.919   5.248 -0.6391  0.0184  0.1561
  379MOL0     O51033   1.453   6.053   5.238  0.0222  1.0571 -0.0505
  379MOL0     C51034   1.565   6.128   5.265 -0.0458  0.5807  0.1034
  379MOL0     C51035   1.542   6.262   5.308 -0.0025 -0.1565 -0.8873
  379MOL0     C51036   1.645   6.346   5.340 -0.4256 -0.2654  0.1907
  379MOL0     C51037   1.777   6.297   5.334  0.2667 -0.5961  0.3528
  379MOL0     O51038   1.878   6.383   5.371  0.9276  0.6809 -0.0449
  379MOL0     C51039   1.939   6.445   5.253 -0.8232  1.2918  0.4045
  379MOL0     C51040   1.967   6.587   5.273 -0.6712  0.9109  0.0855
  379MOL0     C51041   2.038   6.636   5.145 -0.4466 -0.1330 -0.4282
  379MOL0     C51042   2.024   6.780   5.116 -0.6102  0.1770 -0.6236
  379MOL0     C51043   2.157   6.850   5.099 -0.1144 -0.7332 -0.0197
  379MOL0     C51044   2.228   6.836   4.966 -0.5628 -0.6021  0.9511
  379MOL0     C51045   2.324   6.961   4.949 -0.5803  0.1502 -0.7714
  379MOL0     C51046   2.427   7.000   5.054 -1.7315  0.0976 -0.1722
  379MOL0     N51047   2.538   6.905   5.049  0.0629 -0.0448  0.0094
  379MOL0     C51048   2.535   6.772   5.091  0.2753  0.4972 -0.7583
  379MOL0     C51049   2.664   6.737   5.095 -0.5341 -0.7130 -0.7903
  379MOL0     C51050   2.703   6.592   5.133  0.1793 -0.1133 -0.0821
  379MOL0     C51051   2.734   6.582   5.284  0.2769 -0.0664  0.1751
  379MOL0     C51052   2.803   6.449   5.315 -0.1613  0.1306 -0.3672
  379MOL0     C51053   2.947   6.436   5.263 -0.0895 -0.0024 -0.7301
  379MOL0     O51054   3.034   6.544   5.304 -0.6632 -0.1539 -0.6813
  379MOL0     C51055   3.153   6.500   5.354 -0.4177 -0.0208 -0.2460
  379MOL0     C51056   3.197   6.545   5.478  0.2759 -0.2793 -0.2161
  379MOL0     C51057   3.329   6.529   5.520  0.5561  0.5936 -0.4265
  379MOL0     C51058   3.411   6.435   5.457  0.2909  0.0195 -0.3846
  379MOL0     C51059   3.547   6.396   5.500  0.1106 -1.2271 -0.2082
  379MOL0     O51060   3.588   6.470   5.606 -0.3086 -0.3353 -1.1433
  379MOL0     C51061   3.702   6.436   5.679  0.6128 -0.5624 -0.2176
  379MOL0     C51062   3.721   6.499   5.802 -0.7939  0.5388  0.6504
  379MOL0     C51063   3.836   6.483   5.880  0.6079  0.4850 -0.2213
  379MOL0     C51064   3.942   6.415   5.824  0.1537  0.7235 -0.0844
  379MOL0     O51065   4.058   6.409   5.886  0.1027  0.2219 -0.4723
  379MOL0     C51066   4.080   6.451   6.019  0.2481 -0.2278  1.3997
  379MOL0     C51067   4.223   6.412   6.060  0.7299  0.0203  0.7108
  379MOL0     C51068   4.336   6.456   5.964  0.4889 -0.3225 -1.0918
  379MOL0     C51069   4.473   6.428   6.032 -0.1850 -0.0364 -0.7533
  379MOL0     C51070   4.578   6.423   5.935 -0.8841 -0.5114  0.4076
  379MOL0     C51071   4.727   6.417   6.000  0.9053 -0.1145  0.2929
  379MOL0     C51072   4.745   6.317   6.109  0.1368  0.4378  0.3011
  379MOL0     C51073   4.894   6.273   6.124 -0.2074 -0.2180 -0.0521
  379MOL0    Cl51074   4.977   6.426   6.178  0.2136  0.1718  0.0076
  379MOL0     C51075   3.938   6.358   5.698  0.0641 -0.2342  0.5907
  379MOL0     C51076   3.816   6.371   5.626 -0.7429 -0.2722 -0.8855
  379MOL0     O51077   3.600   6.298   5.448 -0.4623 -0.1753  0.3394
  379MOL0     C51078   3.360   6.382   5.340  0.4564  0.1318 -0.4932
  379MOL0     C51079   3.237   6.420   5.275  0.7717 -0.4190 -0.5067
  379MOL0     N51080   2.743   6.843   5.046  0.2787  0.4661  0.7162
  379MOL0     N51081   2.661   6.940   5.025 -0.9117  0.1536  0.5989
  379MOL0     C51082   1.810   6.170   5.282  0.1749  0.9301  0.4052
  379MOL0     C51083   1.699   6.090   5.244 -1.0036  0.4145 -0.5623
  379MOL0     C51084   1.346   5.850   5.184  0.7284  0.5103  0.3908
  379MOL0     C51085   1.367   5.722   5.125  0.8007  0.2783  0.3727
  379MOL0     C51086   1.261   5.651   5.065  0.0488  0.8240 -0.8105
  379MOL0     C51087   1.136   5.691   5.070  1.1385 -0.0707  0.4640
  379MOL0     O51088   1.039   5.608   5.019  0.3723  0.1059 -0.2715
  379MOL0     C51089   0.899   5.642   5.025  0.6451 -0.6748 -0.2259
  379MOL0     C51090   0.802   5.535   4.968 -0.7638  0.1389  0.2509
  379MOL0     C51091   0.824   5.387   5.022 -0.5142 -0.3506  0.2113
  379MOL0     C51092   0.703   5.292   4.979 -0.2586 -1.4683  0.3993
  379MOL0     C51093   0.739   5.150   4.977  0.0339 -0.2456 -0.0666
  379MOL0     C51094   0.780   5.031   4.970 -0.5832  0.0271 -0.1641
  379MOL0     C51095   1.109   5.820   5.130  0.2801  0.1335  0.5502
  379MOL0     C51096   1.210   5.898   5.185  0.8371  0.6268  0.1054
  379MOL0     C51097   1.169   6.014   5.271  0.3515 -0.3788  0.6155
  379MOL0     H51098   1.442   6.297   5.332  1.2808  1.9108  1.8778
  379MOL0     H51099   1.629   6.447   5.375  1.8524 -0.7211  2.9229
  379MOL0     H51100   2.022   6.381   5.223 -1.0873  1.9620 -1.9513
  379MOL0     H51101   1.878   6.453   5.163  2.1309  4.5812 -1.5180
  379MOL0     H51102   2.028   6.616   5.359 -0.7466  0.4123  0.3085
  379MOL0     H51103   1.873   6.643   5.284 -1.2749  0.3749 -2.0283
  379MOL0     H51104   2.017   6.576   5.057 -2.4494 -1.5996  0.9692
  379MOL0     H51105   2.144   6.620   5.168  0.4496  1.5236 -2.9460
  379MOL0     H51106   1.955   6.805   5.035 -1.0178 -1.0609 -0.6831
  379MOL0     H51107   1.980   6.832   5.201  0.8007  3.6542 -1.8637
  379MOL0     H51108   2.142   6.958   5.106 -0.5348 -0.8576  1.7123
  379MOL0     H51109   2.229   6.826   5.178  0.2223 -3.4121 -1.0366
  379MOL0     H51110   2.278   6.739   4.959  0.8622  0.1803 -0.3843
  379MOL0     H51111   2.155   6.825   4.886 -1.1978  2.2477  1.0329
  379MOL0     H51112   2.255   7.046   4.951 -1.3673 -0.4785 -0.3914
  379MOL0     H51113   2.360   6.953   4.846 -1.1320 -1.4205 -0.8712
  379MOL0     H51114   2.469   7.101   5.045 -0.4864 -0.3812  0.0222
  379MOL0     H51115   2.386   6.992   5.155  0.1257 -0.2291  0.6024
  379MOL0     H51116   2.449   6.708   5.109 -0.0351  0.4422 -2.3194
  379MOL0     H51117   2.628   6.523   5.093  1.5940 -1.9009  0.1827
  379MOL0     H51118   2.793   6.573   5.073 -0.4574 -2.9128 -0.2885
  379MOL0     H51119   2.772   6.674   5.329  1.2918 -1.1265  1.5622
  379MOL0     H51120   2.631   6.578   5.320  0.3087  1.0871  0.4291
  379MOL0     H51121   2.739   6.367   5.281 -3.3341  0.6512  3.5920
  379MOL0     H51122   2.810   6.437   5.424 -1.9128 -0.6413 -0.3147
  379MOL0     H51123   2.940   6.416   5.156  3.7451 -2.2493 -0.7429
  379MOL0     H51124   2.995   6.347   5.304  1.6641  0.1603 -2.3426
  379MOL0     H51125   3.127   6.621   5.511 -2.0237 -2.2635 -0.2433
  379MOL0     H51126   3.366   6.575   5.611 -4.0877  1.7729  1.1208
  379MOL0     H51127   3.648   6.566   5.845  1.8201  3.0146  1.5506
  379MOL0     H51128   3.844   6.539   5.973 -0.9909  1.9371 -0.8994
  379MOL0     H51129   4.088   6.560   6.027 -0.0514 -0.0434 -0.3673
  379MOL0     H51130   4.007   6.403   6.085 -1.4046  1.9049  1.2506
  379MOL0     H51131   4.254   6.449   6.159  3.8312  3.8447 -1.4133
  379MOL0     H51132   4.231   6.303   6.058  0.9384 -0.0029 -2.8685
  379MOL0     H51133   4.334   6.392   5.875 -0.3838  0.3711 -1.5864
  379MOL0     H51134   4.329   6.564   5.947  0.3126  0.5101  3.1187
  379MOL0     H51135   4.461   6.324   6.065 -0.3595 -0.8583 -3.2240
  379MOL0     H51136   4.488   6.497   6.116 -0.1063 -1.2292  0.2501
  379MOL0     H51137   4.574   6.514   5.874 -2.0965 -0.2403  0.8465
  379MOL0     H51138   4.572   6.337   5.867  2.1315 -1.2414  0.9266
  379MOL0     H51139   4.794   6.378   5.923  0.9722 -1.7778  1.1478
  379MOL0     H51140   4.751   6.518   6.035 -2.2055  1.8875 -2.7500
  379MOL0     H51141   4.688   6.227   6.081 -0.7036  1.3711 -1.1551
  379MOL0     H51142   4.701   6.346   6.204  0.1420 -1.7612  1.0368
  379MOL0     H51143   4.918   6.214   6.213  5.2370  2.0367  0.3915
  379MOL0     H51144   4.941   6.225   6.038 -0.2969 -2.6546  1.1701
  379MOL0     H51145   4.023   6.316   5.645 -0.8695  0.2521 -1.3696
  379MOL0     H51146   3.815   6.347   5.520 -3.6877 -2.6987 -0.4414
  379MOL0     H51147   3.410   6.307   5.281 -0.3861 -0.1191 -0.9042
  379MOL0     H51148   3.207   6.400   5.173  1.2988 -3.0221 -0.2204
  379MOL0     H51149   1.916   6.149   5.276 -0.1300 -0.8247  0.3750
  379MOL0     H51150   1.726   5.992   5.206 -0.0258  0.0208  1.0441
  379MOL0     H51151   1.460   5.668   5.141 -0.3511 -1.9723 -0.1476
  379MOL0     H51152   1.292   5.555   5.026  1.0368  0.9128 -0.2889
  379MOL0     H51153   0.875   5.735   4.973 -1.9391 -0.8270  0.5560
  379MOL0     H51154   0.866   5.643   5.130 -0.2955 -3.8111 -0.3849
  379MOL0     H51155   0.819   5.532   4.860  1.0941 -0.1062  0.5126
  379MOL0     H51156   0.697   5.555   4.989 -1.0226  0.3361 -1.1058
  379MOL0     H51157   0.835   5.397   5.130 -0.5756  2.5027  0.0395
  379MOL0     H51158   0.910   5.341   4.972 -0.0127 -1.2034  1.8038
  379MOL0     H51159   0.609   5.312   5.032  0.4320 -1.5586  1.6906
  379MOL0     H51160   0.681   5.324   4.876 -0.6094 -1.2770  0.5329
  379MOL0     H51161   0.804   4.927   4.969 -2.1886 -0.5217  3.0559
  379MOL0     H51162   1.006   5.851   5.141 -0.0971 -0.3144 -1.3518
  379MOL0     H51163   1.060   6.026   5.261 -0.1202 -1.2474  3.5341
  379MOL0     H51164   1.173   5.981   5.376  0.0475  0.1704  0.8038
  379MOL0     H51165   1.226   6.105   5.254 -1.6075  1.1663  1.7844
  380MOL0     O51166   6.648   3.510   7.746  0.2833  0.0873  0.1619
  380MOL0     C51167   6.704   3.404   7.780  0.5462  0.2334  1.1984
  380MOL0     O51168   6.804   3.396   7.868  0.2018 -0.5117  0.2739
  380MOL0     C51169   6.869   3.512   7.916  0.8415 -0.1983 -0.3074
  380MOL0     C51170   6.810   3.610   7.998  0.1816 -0.8747  0.1365
  380MOL0     C51171   6.889   3.715   8.059  0.1416  0.1915 -0.0413
  380MOL0     C51172   7.023   3.713   8.045 -0.0788 -0.1000 -0.0651
  380MOL0     O51173   7.088   3.806   8.124  0.0383 -0.1614  0.3686
  380MOL0     C51174   7.229   3.784   8.149  0.2252 -1.3365  0.4806
  380MOL0     C51175   7.288   3.880   8.254  0.8779 -0.1947  0.6099
  380MOL0     C51176   7.237   3.849   8.399  0.0251 -0.5069 -0.2326
  380MOL0     C51177   7.099   3.910   8.420  0.8315 -0.4658 -0.8414
  380MOL0     C51178   7.071   3.964   8.563  0.2202 -0.2245 -0.5541
  380MOL0     C51179   7.050   3.858   8.672 -0.2605 -0.4611 -0.8805
  380MOL0     C51180   7.172   3.792   8.732 -0.6920  0.1685 -0.1683
  380MOL0     C51181   7.120   3.704   8.847 -0.0561  0.0456  0.7374
  380MOL0     N51182   7.222   3.608   8.899 -0.2697 -0.2633  1.1058
  380MOL0     C51183   7.342   3.643   8.958  0.0686  0.2047  0.0641
  380MOL0     C51184   7.391   3.522   8.985 -0.6549 -0.9858  0.3705
  380MOL0     C51185   7.530   3.493   9.041 -0.3826 -0.2734  0.3151
  380MOL0     C51186   7.633   3.463   8.933  0.0080 -0.7164  0.2776
  380MOL0     C51187   7.762   3.407   8.997 -0.3083  0.2302  0.2683
  380MOL0     C51188   7.884   3.484   8.968 -0.6305  0.0168 -0.1532
  380MOL0     O51189   7.873   3.616   9.024 -0.3966  0.3683  0.1774
  380MOL0     C51190   7.985   3.695   9.019  0.4240  0.4817 -0.0551
  380MOL0     C51191   7.993   3.815   9.089 -0.6271 -0.1136  0.2513
  380MOL0     C51192   8.107   3.888   9.096  0.3915 -0.5162 -0.3209
  380MOL0     C51193   8.227   3.840   9.044 -0.1774  0.1885  0.0029
  380MOL0     C51194   8.358   3.916   9.062 -0.5679 -0.0473  0.1086
  380MOL0     O51195   8.356   4.046   9.094  0.4123  0.3745 -0.7961
  380MOL0     C51196   8.461   4.117   9.155 -0.2111 -0.0271  0.6512
  380MOL0     C51197   8.443   4.254   9.144 -0.0099  0.9622 -0.2410
  380MOL0     C51198   8.526   4.337   9.217 -0.6881 -0.2595 -0.3225
  380MOL0     C51199   8.637   4.288   9.285 -0.2414 -0.1239 -0.7081
  380MOL0     O51200   8.725   4.372   9.341 -0.2715 -0.1458  0.5778
  380MOL0     C51201   8.685   4.470   9.437  0.1114  0.1597 -0.0203
  380MOL0     C51202   8.800   4.541   9.502 -0.0849 -0.2091 -0.3232
  380MOL0     C51203   8.875   4.457   9.605 -0.5014 -0.0500 -0.1321
  380MOL0     C51204   8.992   4.528   9.659 -0.8227 -0.4762  0.2862
  380MOL0     C51205   9.053   4.441   9.771  0.9322 -0.9993 -0.4623
  380MOL0     C51206   9.194   4.500   9.805 -1.2718  0.1312  0.2014
  380MOL0     C51207   9.288   4.401   9.887  0.3957 -0.7515 -0.4202
  380MOL0     C51208   9.226   4.336  10.010 -0.7819  0.0086  0.4453
  380MOL0    Cl51209   9.354   4.331  10.145 -0.0425 -0.2187 -0.2921
  380MOL0     C51210   8.672   4.149   9.274 -0.1521  0.4249  0.4178
  380MOL0     C51211   8.579   4.063   9.219 -0.6705  0.3829  0.8771
  380MOL0     O51212   8.456   3.844   9.059  0.3713  0.0468 -0.6187
  380MOL0     C51213   8.222   3.709   8.983 -0.0321  0.9086 -0.6492
  380MOL0     C51214   8.104   3.641   8.969  0.1058 -0.5461 -0.1347
  380MOL0     N51215   7.305   3.426   8.945 -0.0271  0.0137  0.6676
  380MOL0     N51216   7.202   3.476   8.883  0.1809  0.7042  0.6746
  380MOL0     C51217   7.088   3.609   7.970 -0.5164 -0.5838  0.0920
  380MOL0     C51218   7.007   3.513   7.908 -0.7683 -0.5471 -0.3889
  380MOL0     C51219   6.656   3.286   7.711 -1.0933 -0.0003  0.3785
  380MOL0     C51220   6.603   3.303   7.575  0.0049 -0.3015 -0.0627
  380MOL0     C51221   6.527   3.210   7.508 -0.1622  1.1325 -0.5971
  380MOL0     C51222   6.523   3.084   7.563  0.4402  0.6897 -1.2063
  380MOL0     O51223   6.449   2.999   7.491 -0.0619 -0.4541 -0.3761
  380MOL0     C51224   6.381   2.889   7.554  0.3145  0.5476  0.0626
  380MOL0     C51225   6.237   2.906   7.502  0.4778  0.2977  0.7228
  380MOL0     C51226   6.159   3.038   7.540  0.9383 -0.0083  0.1055
  380MOL0     C51227   6.010   3.002   7.535 -0.1159  0.4146 -0.2722
  380MOL0     C51228   5.912   3.101   7.582  0.3082 -0.1274  0.3553
  380MOL0     C51229   5.823   3.173   7.625 -1.0572 -0.2363  0.2164
  380MOL0     C51230   6.576   3.053   7.692  0.2228 -0.7394 -0.9790
  380MOL0     C51231   6.641   3.156   7.770  1.0706 -0.1215  1.2770
  380MOL0     C51232   6.706   3.116   7.905  0.0240  0.1336 -0.2588
  380MOL0     H51233   6.702   3.609   8.007 -0.4890  1.6236 -4.3507
  380MOL0     H51234   6.844   3.806   8.098  1.1891  0.9658 -0.6013
  380MOL0     H51235   7.262   3.681   8.166  1.3841 -1.2348 -0.9483
  380MOL0     H51236   7.275   3.821   8.056 -0.9481 -1.8755 -0.3464
  380MOL0     H51237   7.288   3.987   8.234  0.1310 -0.2998 -0.0017
  380MOL0     H51238   7.396   3.866   8.246  0.5209 -4.1285  0.5417
  380MOL0     H51239   7.311   3.895   8.466  0.7717 -0.8536 -0.8119
  380MOL0     H51240   7.247   3.745   8.430 -3.0220 -0.7857  0.1151
  380MOL0     H51241   7.064   3.978   8.342 -2.4681  0.3752  1.1728
  380MOL0     H51242   7.017   3.839   8.403  0.2979  0.4458 -2.3262
  380MOL0     H51243   7.159   4.024   8.588 -1.7647  2.5986  0.0896
  380MOL0     H51244   6.986   4.032   8.553  0.6272  0.1359 -1.5597
  380MOL0     H51245   7.005   3.911   8.757 -0.5719 -0.9525 -0.7393
  380MOL0     H51246   6.971   3.787   8.646 -1.5101 -0.4088  2.3552
  380MOL0     H51247   7.241   3.858   8.787 -1.1266  0.6071 -0.1395
  380MOL0     H51248   7.221   3.729   8.658 -2.3532  0.1021 -1.2715
  380MOL0     H51249   7.084   3.753   8.938  1.4805 -0.9021  1.9071
  380MOL0     H51250   7.036   3.649   8.805 -0.5048 -1.0150  2.8877
  380MOL0     H51251   7.383   3.743   8.969  0.2360  0.1906 -0.4429
  380MOL0     H51252   7.560   3.578   9.102 -0.0937  0.1085 -0.3411
  380MOL0     H51253   7.526   3.410   9.112  0.1514 -0.7901 -0.2520
  380MOL0     H51254   7.587   3.391   8.865  1.2202  0.6001 -2.0737
  380MOL0     H51255   7.640   3.550   8.867 -1.7200 -1.4916 -1.0255
  380MOL0     H51256   7.771   3.306   8.954 -0.1911  0.4057 -0.1207
  380MOL0     H51257   7.752   3.404   9.106 -0.3172 -0.7810  0.2479
  380MOL0     H51258   7.892   3.490   8.859 -1.9685 -1.0510 -0.3273
  380MOL0     H51259   7.969   3.434   9.016  1.7812  2.3577 -1.6724
  380MOL0     H51260   7.903   3.863   9.128  0.6769  2.3664  0.3940
  380MOL0     H51261   8.111   3.990   9.134 -1.8937 -1.5820  3.2293
  380MOL0     H51262   8.362   4.292   9.082 -0.7307 -0.4068 -0.1836
  380MOL0     H51263   8.499   4.441   9.229 -4.6415 -1.0269 -1.3436
  380MOL0     H51264   8.619   4.547   9.395  0.4566  0.1452 -0.5941
  380MOL0     H51265   8.622   4.434   9.519  0.1262  1.5966  0.6473
  380MOL0     H51266   8.865   4.566   9.417  1.1939  4.1044  1.6392
  380MOL0     H51267   8.753   4.627   9.551 -3.0274 -2.9563  2.0419
  380MOL0     H51268   8.798   4.435   9.680 -1.7353  0.3684 -1.2200
  380MOL0     H51269   8.888   4.358   9.560 -0.9288  0.5280 -1.6115
  380MOL0     H51270   8.952   4.626   9.688 -2.0086 -1.0467  0.6364
  380MOL0     H51271   9.068   4.545   9.582 -1.1348  2.0291  0.4438
  380MOL0     H51272   9.067   4.335   9.747 -2.9440 -0.8886 -4.5553
  380MOL0     H51273   8.985   4.442   9.856  0.9380 -2.3499 -0.4157
  380MOL0     H51274   9.248   4.517   9.712 -1.2342 -0.3481  0.1338
  380MOL0     H51275   9.185   4.603   9.839 -0.6695  0.8313 -1.6549
  380MOL0     H51276   9.372   4.459   9.925  0.0778 -0.5263 -0.0504
  380MOL0     H51277   9.320   4.321   9.820 -0.2914 -1.0298 -0.4298
  380MOL0     H51278   9.138   4.385  10.052 -2.8359 -0.1498 -3.2773
  380MOL0     H51279   9.200   4.235   9.977  2.6316 -1.1879  1.0301
  380MOL0     H51280   8.757   4.107   9.328 -2.6671  1.0388  5.4735
  380MOL0     H51281   8.594   3.956   9.218  1.7091  0.6744  0.2934
  380MOL0     H51282   8.312   3.660   8.948 -0.0132  1.1426 -0.9312
  380MOL0     H51283   8.095   3.545   8.918  1.8011  0.5855 -2.7592
  380MOL0     H51284   7.196   3.601   7.964 -0.5323 -0.5543 -0.2520
  380MOL0     H51285   7.066   3.435   7.861 -0.1668 -0.1208 -0.3583
  380MOL0     H51286   6.632   3.396   7.527 -0.5997 -1.3256 -2.5598
  380MOL0     H51287   6.479   3.216   7.411 -0.3895  1.4235 -0.4656
  380MOL0     H51288   6.377   2.902   7.663  3.3880  3.6852 -0.0210
  380MOL0     H51289   6.427   2.793   7.529  1.9802  2.0428 -3.2432
  380MOL0     H51290   6.181   2.821   7.542  0.7703 -1.1259 -1.7065
  380MOL0     H51291   6.240   2.904   7.393  2.3064 -1.5082  0.7546
  380MOL0     H51292   6.186   3.118   7.470 -2.0359  0.3197 -0.8066
  380MOL0     H51293   6.181   3.067   7.643  0.1757  0.4854  0.1353
  380MOL0     H51294   5.965   2.989   7.436 -1.7611 -2.7927  0.7665
  380MOL0     H51295   5.992   2.906   7.583 -1.4281  0.3678 -0.7948
  380MOL0     H51296   5.756   3.253   7.650  1.7695  4.1058 -4.2231
  380MOL0     H51297   6.562   2.958   7.742  2.7463 -1.6074 -1.7486
  380MOL0     H51298   6.814   3.111   7.888  0.4211  2.8429  0.9926
  380MOL0     H51299   6.680   3.189   7.982 -0.0004 -0.8848  0.7366
  380MOL0     H51300   6.663   3.021   7.939 -3.1538  1.0684 -1.3705
  381MOL0     O51301   3.230   8.395   1.430 -0.4805  0.5494  0.0025
  381MOL0     C51302   3.228   8.427   1.310  0.3427  0.2844 -0.1776
  381MOL0     O51303   3.331   8.494   1.242  0.0287 -0.6692  0.1199
  381MOL0     C51304   3.428   8.570   1.306 -0.0163  0.9693 -0.4964
  381MOL0     C51305   3.515   8.503   1.400  0.8361 -0.1353  0.7809
  381MOL0     C51306   3.599   8.578   1.477  0.1136 -1.1844 -0.4352
  381MOL0     C51307   3.614   8.721   1.470 -0.2889  0.2436  0.3929
  381MOL0     O51308   3.714   8.800   1.530  0.0981  0.2365 -0.5339
  381MOL0     C51309   3.762   8.759   1.660 -0.4164  0.1544  0.1219
  381MOL0     C51310   3.819   8.865   1.759  0.2965 -0.1111 -0.0059
  381MOL0     C51311   3.855   8.797   1.891 -0.3717  0.4845  0.5270
  381MOL0     C51312   3.925   8.889   1.991 -0.0629  0.2495  0.8118
  381MOL0     C51313   3.905   8.857   2.140  1.3925  0.3631  1.0321
  381MOL0     C51314   4.006   8.920   2.244 -0.4648  0.1199 -0.0748
  381MOL0     C51315   4.142   8.865   2.218 -0.9469 -1.3222  0.4812
  381MOL0     C51316   4.257   8.931   2.308 -0.2643  0.3867 -0.5114
  381MOL0     N51317   4.373   8.843   2.294 -0.4669  0.7029 -0.0589
  381MOL0     C51318   4.455   8.827   2.189 -0.3094  0.2014 -0.2770
  381MOL0     C51319   4.555   8.745   2.237  0.4706 -0.7729  1.0505
  381MOL0     C51320   4.666   8.706   2.146  0.4201  0.1344 -0.7512
  381MOL0     C51321   4.727   8.828   2.081 -0.0021  0.1765 -0.9193
  381MOL0     C51322   4.787   8.801   1.944  0.3818 -0.0587  0.2056
  381MOL0     C51323   4.860   8.926   1.883  0.3884  0.4560 -0.2914
  381MOL0     O51324   4.983   8.933   1.951 -0.5131 -0.1873  0.0443
  381MOL0     C51325   5.071   9.034   1.919  0.1863  0.7726 -0.9647
  381MOL0     C51326   5.198   9.004   1.965  0.4160 -0.6653  0.1076
  381MOL0     C51327   5.291   9.114   1.948 -0.5415 -0.4367 -0.2120
  381MOL0     C51328   5.273   9.224   1.871  0.2516 -0.2387  0.4324
  381MOL0     C51329   5.380   9.324   1.843 -0.4665 -0.0290  0.0483
  381MOL0     O51330   5.491   9.273   1.785 -1.0483 -0.2643 -0.3958
  381MOL0     C51331   5.589   9.352   1.738  0.1888 -0.1358 -0.8883
  381MOL0     C51332   5.559   9.463   1.653  0.4955 -0.1286  1.4620
  381MOL0     C51333   5.658   9.557   1.623 -0.2109 -0.8741  0.2262
  381MOL0     C51334   5.790   9.537   1.661  0.5768 -0.4626  0.2116
  381MOL0     O51335   5.883   9.622   1.613 -0.1167  0.6271  0.8653
  381MOL0     C51336   6.007   9.565   1.565  0.0089  0.2756  0.3344
  381MOL0     C51337   6.105   9.672   1.500  0.3309  0.1941 -0.2211
  381MOL0     C51338   6.075   9.737   1.365  0.8933  0.0080  0.4153
  381MOL0     C51339   6.154   9.870   1.336  0.0997  0.3958  0.3938
  381MOL0     C51340   6.100   9.950   1.213 -0.7666 -0.1734  0.1754
  381MOL0     C51341   5.946   9.991   1.224 -0.0455  0.2353  0.3167
  381MOL0     C51342   5.893  10.085   1.111  0.2851 -0.1780  0.5085
  381MOL0     C51343   5.742  10.119   1.139  0.2618 -0.7618 -0.5257
  381MOL0    Cl51344   5.680  10.187   0.994  0.0466 -0.3243  0.0389
  381MOL0     C51345   5.817   9.428   1.743  0.5867  0.8812 -0.2042
  381MOL0     C51346   5.714   9.337   1.786 -0.2037 -0.7130  0.5742
  381MOL0     O51347   5.356   9.442   1.865 -0.5640 -0.2565 -0.7665
  381MOL0     C51348   5.139   9.256   1.831 -0.7000 -0.3154  0.8274
  381MOL0     C51349   5.041   9.155   1.854  0.8524  0.3656  1.1199
  381MOL0     N51350   4.530   8.719   2.370  0.1211 -0.3567  0.2693
  381MOL0     N51351   4.426   8.780   2.399  0.6373  0.2744 -1.0751
  381MOL0     C51352   3.533   8.779   1.370 -1.8780  0.2841 -0.0995
  381MOL0     C51353   3.448   8.704   1.290 -1.0428 -0.5373 -0.5361
  381MOL0     C51354   3.109   8.397   1.232 -0.2958 -0.8735  0.3312
  381MOL0     C51355   3.129   8.383   1.086  0.2826 -0.1127  0.1683
  381MOL0     C51356   3.017   8.371   1.007  0.1747  0.2001 -0.1085
  381MOL0     C51357   2.890   8.360   1.053 -0.5507  0.8186 -0.9818
  381MOL0     O51358   2.789   8.338   0.962 -0.3163  0.0002 -0.8775
  381MOL0     C51359   2.729   8.454   0.919  0.4581 -0.6809  0.8665
  381MOL0     C51360   2.595   8.430   0.851  0.2664  0.1216  0.1926
  381MOL0     C51361   2.612   8.342   0.726 -0.4614  1.2899 -0.5079
  381MOL0     C51362   2.485   8.332   0.637  0.8508  0.0444  0.5224
  381MOL0     C51363   2.377   8.253   0.700 -1.2887  0.5062  0.4644
  381MOL0     C51364   2.292   8.180   0.743 -0.2623  0.2149  0.6492
  381MOL0     C51365   2.873   8.352   1.189  0.5585 -0.4080 -0.3350
  381MOL0     C51366   2.975   8.386   1.276  0.0494 -0.3944 -0.0875
  381MOL0     C51367   2.935   8.432   1.416 -0.3684  0.2719  0.2137
  381MOL0     H51368   3.520   8.395   1.414  0.7161 -0.1160  0.9752
  381MOL0     H51369   3.675   8.528   1.537 -1.1447 -0.9368  1.4513
  381MOL0     H51370   3.682   8.696   1.701  0.2618  0.0855  1.4043
  381MOL0     H51371   3.852   8.697   1.646  1.5062  2.9907 -1.0571
  381MOL0     H51372   3.746   8.946   1.769  0.9611  0.4324  0.6891
  381MOL0     H51373   3.907   8.916   1.718 -0.2868  1.2581  0.3801
  381MOL0     H51374   3.919   8.713   1.863  2.2574  2.3076  0.7584
  381MOL0     H51375   3.766   8.750   1.936  1.4180 -2.1870  1.5453
  381MOL0     H51376   4.027   8.881   1.950 -0.2659  0.1982  0.3107
  381MOL0     H51377   3.892   8.992   1.979  3.4133  1.3329 -0.9769
  381MOL0     H51378   3.802   8.875   2.172  1.2923  0.8188  0.4622
  381MOL0     H51379   3.911   8.748   2.149  1.0245  0.4926  3.4501
  381MOL0     H51380   4.013   9.029   2.238 -1.6252  0.2957  1.3391
  381MOL0     H51381   3.987   8.880   2.344  0.2806 -0.6213 -0.2125
  381MOL0     H51382   4.180   8.895   2.120  1.1929 -2.9054  0.7543
  381MOL0     H51383   4.152   8.756   2.223 -1.2887 -1.4321 -0.8946
  381MOL0     H51384   4.281   9.034   2.283  4.0943  0.0401  1.3902
  381MOL0     H51385   4.224   8.913   2.411 -0.6825  0.2826 -0.6612
  381MOL0     H51386   4.442   8.857   2.086  2.6484  1.2042 -0.4578
  381MOL0     H51387   4.748   8.652   2.195  1.6785 -0.4821 -3.3531
  381MOL0     H51388   4.615   8.644   2.071 -2.2092  0.9765  0.2346
  381MOL0     H51389   4.644   8.896   2.061  0.0068  0.7579  0.8890
  381MOL0     H51390   4.796   8.878   2.150  0.0215 -0.7690 -0.2387
  381MOL0     H51391   4.709   8.771   1.873 -0.5637  2.5629  0.0246
  381MOL0     H51392   4.853   8.715   1.961  0.4896  0.1059  0.6351
  381MOL0     H51393   4.803   9.020   1.883 -0.7141 -0.1613  1.1393
  381MOL0     H51394   4.883   8.901   1.779 -0.5310 -0.7341 -0.2225
  381MOL0     H51395   5.215   8.918   2.029 -2.4728  0.4991  2.7377
  381MOL0     H51396   5.385   9.098   2.001  0.1042 -0.0692 -1.2141
  381MOL0     H51397   5.455   9.475   1.624  0.4786 -2.2800  0.4402
  381MOL0     H51398   5.634   9.642   1.561  1.0156  0.5444  1.5976
  381MOL0     H51399   6.062   9.507   1.640 -0.6751 -1.8841 -0.7601
  381MOL0     H51400   5.992   9.487   1.490  2.5026 -2.1614  2.1473
  381MOL0     H51401   6.132   9.745   1.576 -0.7005  0.4203 -0.0567
  381MOL0     H51402   6.197   9.617   1.479  0.4268  0.7563 -1.3472
  381MOL0     H51403   6.107   9.659   1.295  0.5400 -1.6545  1.9999
  381MOL0     H51404   5.968   9.749   1.346  0.9513 -0.3246 -0.1287
  381MOL0     H51405   6.257   9.837   1.320  0.5541  2.3678 -1.2269
  381MOL0     H51406   6.156   9.946   1.415  1.4369  0.3839  0.3815
  381MOL0     H51407   6.111   9.881   1.129  0.6602 -0.0574  0.2449
  381MOL0     H51408   6.154  10.042   1.192  1.0972 -1.3902 -0.5981
  381MOL0     H51409   5.897   9.894   1.209 -1.6259  1.0277  0.1071
  381MOL0     H51410   5.921  10.032   1.323 -1.1404  0.2469  0.0554
  381MOL0     H51411   5.902  10.034   1.014  2.7432 -0.3712  0.7744
  381MOL0     H51412   5.942  10.181   1.122  0.0980 -0.1100  0.7478
  381MOL0     H51413   5.682  10.030   1.161 -1.5826  0.4368 -0.4948
  381MOL0     H51414   5.717  10.178   1.228 -2.7743 -5.3692  2.1566
  381MOL0     H51415   5.918   9.399   1.772  1.2966  2.2400 -1.1836
  381MOL0     H51416   5.741   9.253   1.849  4.1605  1.8442  2.6115
  381MOL0     H51417   5.112   9.348   1.781 -1.0022  0.1497  1.8275
  381MOL0     H51418   4.942   9.170   1.811  0.1136  1.3502  3.0461
  381MOL0     H51419   3.544   8.883   1.339  1.1604 -0.2664 -1.2095
  381MOL0     H51420   3.380   8.749   1.218 -2.8473 -3.3255 -0.7476
  381MOL0     H51421   3.222   8.405   1.034  1.1778  1.7678  2.3627
  381MOL0     H51422   3.030   8.371   0.899 -1.2775  0.1843 -0.2975
  381MOL0     H51423   2.800   8.497   0.848  0.2541 -1.5263  0.1287
  381MOL0     H51424   2.713   8.524   1.002 -0.7295  1.3069 -0.9361
  381MOL0     H51425   2.546   8.522   0.817  0.9408  0.3128 -0.2831
  381MOL0     H51426   2.528   8.364   0.907 -1.4105 -0.2168 -2.0766
  381MOL0     H51427   2.646   8.244   0.759 -1.4204  1.3026  0.5655
  381MOL0     H51428   2.693   8.382   0.663 -0.0131  2.3179  0.6708
  381MOL0     H51429   2.448   8.425   0.594  2.4805 -0.3711 -1.9711
  381MOL0     H51430   2.518   8.275   0.550 -0.4508  2.9645 -2.0450
  381MOL0     H51431   2.220   8.107   0.774  0.9662 -1.9062 -1.1853
  381MOL0     H51432   2.772   8.353   1.228  1.7202  2.3773  3.2228
  381MOL0     H51433   2.838   8.478   1.397 -0.9397 -1.3710 -1.0168
  381MOL0     H51434   2.929   8.354   1.492 -3.6164  0.0320 -0.1766
  381MOL0     H51435   3.002   8.514   1.444 -0.2406  1.0653 -2.1660
  382MOL0     O51436  11.313   2.764   9.933  0.5406 -0.3536 -0.4585
  382MOL0     C51437  11.242   2.784  10.030 -0.1153 -0.1774 -0.3262
  382MOL0     O51438  11.294   2.815  10.151 -0.1458 -0.6182 -0.1373
  382MOL0     C51439  11.428   2.853  10.150  0.5483  0.2263 -0.2839
  382MOL0     C51440  11.535   2.766  10.138 -0.2978 -0.0638  0.0264
  382MOL0     C51441  11.665   2.836  10.140 -1.3034  0.2157  0.0728
  382MOL0     C51442  11.679   2.972  10.158  0.3306  0.0144  0.4275
  382MOL0     O51443  11.798   3.033  10.145 -0.2076  1.0732 -0.7726
  382MOL0     C51444  11.916   2.978  10.209 -1.1489  0.2986 -0.0438
  382MOL0     C51445  12.001   3.100  10.266  0.2131  0.1166 -0.1579
  382MOL0     C51446  12.145   3.057  10.275  0.3873  0.7536 -0.3405
  382MOL0     C51447  12.227   3.164  10.325  0.4545  0.1637 -0.0681
  382MOL0     C51448  12.367   3.104  10.331 -0.0891 -0.1382  0.4144
  382MOL0     C51449  12.443   3.227  10.384 -0.0445 -0.5605  0.8316
  382MOL0     C51450  12.602   3.214  10.366  0.1074 -0.3114  1.4762
  382MOL0     C51451  12.667   3.133  10.478  0.2903 -0.0368 -0.1150
  382MOL0     N51452  12.813   3.129  10.462 -0.1671 -0.1217 -0.5524
  382MOL0     C51453  12.911   3.218  10.526  1.4587  0.0854  0.2031
  382MOL0     C51454  13.025   3.190  10.464  0.1403 -0.2111 -0.7176
  382MOL0     C51455  13.161   3.240  10.508  0.0411  0.0904 -0.2673
  382MOL0     C51456  13.206   3.157  10.626 -0.5601  0.0437  0.2729
  382MOL0     C51457  13.211   3.000  10.617 -1.7766 -0.8261  0.1692
  382MOL0     C51458  13.317   2.954  10.507 -0.3295 -1.1784 -0.4984
  382MOL0     O51459  13.447   2.999  10.545  0.0873  0.3004  0.0755
  382MOL0     C51460  13.552   2.912  10.507  0.3174 -0.0525  0.8650
  382MOL0     C51461  13.542   2.782  10.448 -1.2761  0.3219  0.0701
  382MOL0     C51462  13.663   2.716  10.395  0.5396  0.4745 -1.1933
  382MOL0     C51463  13.782   2.779  10.416  0.2969  1.2369 -0.1612
  382MOL0     C51464  13.916   2.728  10.365  0.7122 -0.5667  0.3594
  382MOL0     O51465  14.029   2.811  10.384  0.5354 -0.4658  0.2309
  382MOL0     C51466  14.141   2.796  10.304 -0.1087 -0.0320  0.0288
  382MOL0     C51467  14.163   2.872  10.189  0.0087 -0.2058 -0.5688
  382MOL0     C51468  14.279   2.863  10.115 -0.1367 -0.0945 -0.2390
  382MOL0     C51469  14.395   2.792  10.169 -0.2306 -0.6966  0.0687
  382MOL0     O51470  14.502   2.809  10.080  0.2110  0.3744  0.0545
  382MOL0     C51471  14.639   2.783  10.133  0.7165 -0.0054  0.3598
  382MOL0     C51472  14.673   2.636  10.098 -0.3165 -0.7992 -0.5636
  382MOL0     C51473  14.807   2.588  10.162 -0.0240 -0.5240  0.3156
  382MOL0     C51474  14.942   2.651  10.118 -0.2403 -0.5027  0.1853
  382MOL0     C51475  15.058   2.591  10.197 -0.6067 -0.9226  0.7638
  382MOL0     C51476  15.193   2.612  10.136  0.0620 -0.1097 -0.5781
  382MOL0     C51477  15.304   2.602  10.236  0.3466  0.4649 -0.4803
  382MOL0     C51478  15.430   2.625  10.149 -1.5911  0.4174 -0.4047
  382MOL0    Cl51479  15.585   2.598  10.260 -0.3088 -0.2874  0.3885
  382MOL0     C51480  14.374   2.722  10.292  0.2032 -0.6647  0.2369
  382MOL0     C51481  14.255   2.731  10.358 -0.9358  0.1263  0.4497
  382MOL0     O51482  13.914   2.626  10.295  0.1418  0.1501 -0.4728
  382MOL0     C51483  13.789   2.907  10.484 -0.1609  0.1138 -0.8639
  382MOL0     C51484  13.679   2.971  10.537 -0.3447  0.0690  0.4877
  382MOL0     N51485  13.001   3.100  10.357 -0.2855 -0.5952  0.0329
  382MOL0     N51486  12.877   3.061  10.361 -0.1753  0.4163 -0.4564
  382MOL0     C51487  11.570   3.050  10.172 -0.0254 -0.2449  0.5685
  382MOL0     C51488  11.440   2.992  10.158  0.1053  0.3071  0.0285
  382MOL0     C51489  11.097   2.751  10.013 -0.3592 -0.3277 -0.9890
  382MOL0     C51490  11.042   2.666  10.106  0.2864  0.3308  0.3475
  382MOL0     C51491  10.907   2.620  10.105 -0.6347  1.6183  0.3295
  382MOL0     C51492  10.822   2.653   9.994  0.1904  0.6665 -0.3457
  382MOL0     O51493  10.691   2.594   9.991 -0.5230 -0.0878  0.1665
  382MOL0     C51494  10.611   2.622   9.882  0.1568  0.3283  0.0071
  382MOL0     C51495  10.639   2.519   9.766 -0.0074  0.5432 -0.0002
  382MOL0     C51496  10.538   2.530   9.656 -0.0564 -0.4180 -0.3633
  382MOL0     C51497  10.574   2.439   9.539 -0.1537 -0.0728 -0.0270
  382MOL0     C51498  10.476   2.457   9.437  0.4302  0.1249 -0.3988
  382MOL0     C51499  10.399   2.453   9.349  0.6744  0.2183  0.1597
  382MOL0     C51500  10.880   2.738   9.900 -0.1025 -0.6701 -0.7257
  382MOL0     C51501  11.013   2.790   9.908  0.9020 -0.6375 -0.0638
  382MOL0     C51502  11.066   2.881   9.794 -0.0082 -0.1706  0.2578
  382MOL0     H51503  11.524   2.658  10.130  0.5578 -0.2456  1.0216
  382MOL0     H51504  11.753   2.774  10.122 -2.6366 -1.1464 -2.3719
  382MOL0     H51505  11.888   2.922  10.298  0.2085  1.0026  0.8585
  382MOL0     H51506  11.978   2.918  10.142 -0.2292 -0.2835  1.2957
  382MOL0     H51507  11.973   3.124  10.369 -1.0493 -0.4944 -0.3443
  382MOL0     H51508  11.976   3.194  10.217 -0.9745  0.1169  0.4140
  382MOL0     H51509  12.177   3.030  10.174  2.3408  0.8513  0.2015
  382MOL0     H51510  12.157   2.972  10.343  2.2422  1.2361  0.0079
  382MOL0     H51511  12.220   3.253  10.262  3.1756 -0.0315 -0.7985
  382MOL0     H51512  12.201   3.177  10.430  1.0594 -0.8578  0.2221
  382MOL0     H51513  12.381   3.021  10.401  1.0450 -1.5648 -1.4203
  382MOL0     H51514  12.405   3.079  10.231  0.5698  0.7986  0.4181
  382MOL0     H51515  12.409   3.314  10.327 -0.7659 -0.0678  1.9763
  382MOL0     H51516  12.413   3.245  10.487  0.5924  2.0256  0.6311
  382MOL0     H51517  12.638   3.317  10.373  0.2931 -0.2416 -0.1532
  382MOL0     H51518  12.624   3.167  10.269  1.5459  3.6991 -0.3518
  382MOL0     H51519  12.639   3.184  10.571 -2.0898  2.0179 -1.7941
  382MOL0     H51520  12.635   3.029  10.485  0.6909 -0.0628  1.6881
  382MOL0     H51521  12.882   3.288  10.604  0.3998 -2.5296  2.3341
  382MOL0     H51522  13.236   3.236  10.428  1.6004  2.0489  1.0144
  382MOL0     H51523  13.150   3.344  10.541 -1.6803 -0.0968 -0.1482
  382MOL0     H51524  13.303   3.193  10.663 -1.0594  1.8543 -0.1052
  382MOL0     H51525  13.132   3.173  10.705 -2.0139  1.1210 -1.2437
  382MOL0     H51526  13.111   2.962  10.596 -1.7719 -0.7469  0.0004
  382MOL0     H51527  13.254   2.979  10.715  0.0988  2.3088  0.1464
  382MOL0     H51528  13.292   2.993  10.408  2.2905 -0.1388 -0.8325
  382MOL0     H51529  13.307   2.845  10.506 -1.4308 -1.0951 -2.5488
  382MOL0     H51530  13.446   2.736  10.428 -1.3865  0.8192 -0.5617
  382MOL0     H51531  13.665   2.616  10.353 -0.0740  1.6425 -4.2175
  382MOL0     H51532  14.090   2.946  10.158  0.4164  1.4374  2.0863
  382MOL0     H51533  14.290   2.926  10.027 -0.9166 -0.4426 -0.5943
  382MOL0     H51534  14.724   2.843  10.099  2.3469 -1.5776  1.4471
  382MOL0     H51535  14.641   2.790  10.242  1.2453 -2.0550  0.5158
  382MOL0     H51536  14.586   2.577  10.131  1.4325 -2.4716  1.3885
  382MOL0     H51537  14.687   2.628   9.990 -2.4050 -2.3355 -0.7958
  382MOL0     H51538  14.795   2.592  10.271  1.0485 -1.6123  0.4994
  382MOL0     H51539  14.814   2.481  10.140 -0.5454 -0.3567 -0.7127
  382MOL0     H51540  14.931   2.758  10.138 -2.8583  0.1789 -3.7539
  382MOL0     H51541  14.952   2.634  10.011 -0.5758  3.1994 -0.5594
  382MOL0     H51542  15.031   2.485  10.206  0.2877 -1.1113  1.3818
  382MOL0     H51543  15.059   2.629  10.300  1.3450  1.1824  0.0351
  382MOL0     H51544  15.209   2.545  10.051 -0.8294  1.0020 -1.6635
  382MOL0     H51545  15.192   2.713  10.096  2.4125  0.8884  1.6110
  382MOL0     H51546  15.312   2.509  10.291 -0.4060  0.7676  0.1594
  382MOL0     H51547  15.308   2.684  10.309  2.7634 -0.8541  0.9766
  382MOL0     H51548  15.450   2.540  10.083 -1.0634 -2.5086  3.2252
  382MOL0     H51549  15.429   2.724  10.103  2.2452  0.1999 -1.3586
  382MOL0     H51550  14.461   2.669  10.330  1.2959  0.5491 -0.4467
  382MOL0     H51551  14.268   2.688  10.457  0.8405  1.6826  0.9652
  382MOL0     H51552  13.885   2.954  10.501  0.0254 -1.1130  2.0251
  382MOL0     H51553  13.690   3.070  10.579  2.2435 -0.0635  0.2826
  382MOL0     H51554  11.575   3.158  10.177 -0.8128 -0.0368 -1.6532
  382MOL0     H51555  11.356   3.058  10.173  0.9055  1.1398  1.0226
  382MOL0     H51556  11.111   2.630  10.182 -0.9245 -3.1003  0.0070
  382MOL0     H51557  10.874   2.546  10.177  0.8927  0.9707  0.4215
  382MOL0     H51558  10.615   2.723   9.840 -0.5762  0.8780  1.1934
  382MOL0     H51559  10.504   2.603   9.896 -0.6452  2.4072 -2.5315
  382MOL0     H51560  10.630   2.415   9.798  0.9813 -0.2532 -2.1384
  382MOL0     H51561  10.742   2.539   9.735  1.3965 -5.3877 -0.2772
  382MOL0     H51562  10.531   2.636   9.630 -2.7990  0.0537  1.7898
  382MOL0     H51563  10.438   2.514   9.698 -0.1597  2.0284  0.4858
  382MOL0     H51564  10.670   2.473   9.501 -0.1509  0.2643  0.2854
  382MOL0     H51565  10.593   2.334   9.562 -0.8089  0.0436  1.1247
  382MOL0     H51566  10.339   2.446   9.260  2.5833  0.6467 -1.2245
  382MOL0     H51567  10.828   2.763   9.808  1.2791 -1.4256 -1.7655
  382MOL0     H51568  11.125   2.960   9.842 -2.4602  2.6360 -1.0864
  382MOL0     H51569  11.125   2.813   9.732 -1.7430 -1.9728  0.4716
  382MOL0     H51570  10.980   2.915   9.736 -0.1116 -1.2818 -0.2568
  383MOL0     O51571   0.527   0.670   2.025 -0.1632  0.0263  0.2433
  383MOL0     C51572   0.448   0.610   1.954 -0.2487 -0.4921  0.1400
  383MOL0     O51573   0.480   0.564   1.828  0.1620  1.0589 -0.0691
  383MOL0     C51574   0.620   0.561   1.792  0.7288 -0.6286 -0.2806
  383MOL0     C51575   0.681   0.683   1.767 -0.2349 -0.1188  0.0888
  383MOL0     C51576   0.801   0.695   1.700  0.7386  1.2898 -0.1919
  383MOL0     C51577   0.866   0.579   1.658  0.2098  0.1507  0.2669
  383MOL0     O51578   0.985   0.599   1.595  0.5210 -0.1235 -0.1685
  383MOL0     C51579   1.019   0.511   1.494  0.6253  0.3345  1.0479
  383MOL0     C51580   1.146   0.563   1.419  0.5952  0.1243  0.4296
  383MOL0     C51581   1.273   0.500   1.485  0.0506 -0.0197  0.7018
  383MOL0     C51582   1.395   0.602   1.503  0.4024  0.5167 -0.4039
  383MOL0     C51583   1.523   0.520   1.556 -0.0884 -0.5309  0.5863
  383MOL0     C51584   1.607   0.612   1.633 -0.2257  0.3311  0.7070
  383MOL0     C51585   1.681   0.722   1.544  0.4242  0.4627  0.5798
  383MOL0     C51586   1.772   0.803   1.634  0.0807 -1.0147 -0.0979
  383MOL0     N51587   1.905   0.742   1.645 -0.5832 -0.0644  0.4549
  383MOL0     C51588   2.023   0.798   1.587  0.4969  0.3825 -0.5308
  383MOL0     C51589   2.116   0.707   1.641  0.2162  0.8831 -0.6294
  383MOL0     C51590   2.270   0.719   1.617 -0.0767  0.0791 -0.2168
  383MOL0     C51591   2.351   0.600   1.651  0.0694  0.1988  0.3967
  383MOL0     C51592   2.350   0.566   1.804  0.5114 -1.0179  0.5836
  383MOL0     C51593   2.496   0.572   1.857  0.4557 -0.1115 -1.0299
  383MOL0     O51594   2.584   0.463   1.824  0.1370  0.3669  0.0182
  383MOL0     C51595   2.723   0.484   1.810  0.7982 -0.9330  0.7128
  383MOL0     C51596   2.795   0.603   1.810  0.1077 -0.7153 -0.8107
  383MOL0     C51597   2.931   0.608   1.778 -0.0392  0.2368 -0.3344
  383MOL0     C51598   3.007   0.493   1.746 -0.0279 -0.7628 -0.5320
  383MOL0     C51599   3.154   0.503   1.728  0.3538 -0.6644 -0.2185
  383MOL0     O51600   3.216   0.608   1.778 -0.4834 -0.0175 -0.3900
  383MOL0     C51601   3.358   0.611   1.773  0.8040  0.6423  0.1773
  383MOL0     C51602   3.434   0.518   1.829  0.1324  0.6292  0.1851
  383MOL0     C51603   3.576   0.527   1.810 -0.2259  0.4172  0.1330
  383MOL0     C51604   3.633   0.630   1.731  1.0177  0.1262  0.0268
  383MOL0     O51605   3.765   0.639   1.691 -0.0445  0.2863  0.7024
  383MOL0     C51606   3.816   0.501   1.648  0.4020 -0.6732 -1.0526
  383MOL0     C51607   3.949   0.510   1.571  0.4731  0.0747 -0.8824
  383MOL0     C51608   4.011   0.368   1.549  0.4377 -0.0650 -0.4898
  383MOL0     C51609   4.140   0.388   1.472 -0.7079 -0.6897 -0.1936
  383MOL0     C51610   4.107   0.437   1.325  1.1719 -0.4578  0.1932
  383MOL0     C51611   4.216   0.404   1.225 -0.2364 -0.4169 -0.6009
  383MOL0     C51612   4.192   0.457   1.084  0.1582 -0.3248 -0.0627
  383MOL0     C51613   4.285   0.382   0.987  0.3513 -0.2737 -0.8667
  383MOL0    Cl51614   4.265   0.427   0.816  0.2698 -0.2007  0.0289
  383MOL0     C51615   3.544   0.728   1.673  0.1347  0.3202 -0.1142
  383MOL0     C51616   3.408   0.709   1.695 -0.5441 -0.8695 -0.0646
  383MOL0     O51617   3.210   0.405   1.676  0.5493 -0.3442 -0.3236
  383MOL0     C51618   2.926   0.371   1.730 -0.6375 -0.1911 -0.5200
  383MOL0     C51619   2.793   0.369   1.766  0.1250  0.1651 -1.2624
  383MOL0     N51620   2.055   0.605   1.714 -0.3435 -0.3513 -0.5091
  383MOL0     N51621   1.931   0.628   1.713  0.6410  1.1140  0.0210
  383MOL0     C51622   0.813   0.451   1.689  0.3808  0.9326 -0.0721
  383MOL0     C51623   0.685   0.443   1.761  0.3434 -0.2801  0.8621
  383MOL0     C51624   0.311   0.596   2.005 -0.2501  0.2079  0.2197
  383MOL0     C51625   0.242   0.490   1.958 -0.6641 -1.0517 -0.8397
  383MOL0     C51626   0.110   0.462   2.010 -0.9827 -0.6476  0.0289
  383MOL0     C51627   0.051   0.541   2.108 -0.3963 -0.4454  0.3195
  383MOL0     O51628  -0.071   0.517   2.157  0.1061 -0.8899 -0.2306
  383MOL0     C51629  -0.163   0.423   2.108 -0.0668  0.0403  0.0647
  383MOL0     C51630  -0.266   0.418   2.209  1.2247 -0.9540 -1.2302
  383MOL0     C51631  -0.344   0.551   2.222  0.8795 -1.2535 -0.6987
  383MOL0     C51632  -0.471   0.530   2.293  0.4997 -0.0268  0.0915
  383MOL0     C51633  -0.556   0.660   2.294  0.3373  0.4326  0.5007
  383MOL0     C51634  -0.619   0.762   2.293  0.1134 -0.7471  0.5746
  383MOL0     C51635   0.130   0.644   2.162 -0.2185 -0.4408  0.5957
  383MOL0     C51636   0.248   0.687   2.100 -0.1076  0.7470 -0.9028
  383MOL0     C51637   0.318   0.810   2.145  0.4793  1.2174 -0.4882
  383MOL0     H51638   0.618   0.770   1.783 -0.4668 -0.2924  0.1167
  383MOL0     H51639   0.844   0.791   1.673 -0.4591  1.2924 -2.3213
  383MOL0     H51640   1.044   0.410   1.528 -1.3806 -0.1243  1.2744
  383MOL0     H51641   0.930   0.510   1.430 -0.4367  1.8398  2.4096
  383MOL0     H51642   1.150   0.672   1.411 -0.8655  0.0768 -1.3405
  383MOL0     H51643   1.135   0.523   1.318  1.2644  1.5315 -0.2282
  383MOL0     H51644   1.307   0.422   1.415 -2.1561 -0.8814  0.4966
  383MOL0     H51645   1.244   0.460   1.582  0.8878  0.6928  1.2627
  383MOL0     H51646   1.422   0.655   1.411  1.8467 -0.9559 -0.8776
  383MOL0     H51647   1.366   0.684   1.569 -0.5853  0.6106 -0.9350
  383MOL0     H51648   1.505   0.436   1.624 -0.2615 -1.0821 -0.1255
  383MOL0     H51649   1.572   0.484   1.465  0.4154  1.9941 -0.2268
  383MOL0     H51650   1.541   0.655   1.709 -0.6446  0.7690  0.1012
  383MOL0     H51651   1.683   0.557   1.690 -1.4058  0.2740  2.3076
  383MOL0     H51652   1.609   0.777   1.484  1.8782 -1.1061 -2.8886
  383MOL0     H51653   1.740   0.670   1.468 -0.5779  2.2591 -1.5272
  383MOL0     H51654   1.787   0.906   1.601 -2.0849 -0.2993  0.9481
  383MOL0     H51655   1.727   0.813   1.733  0.5560 -0.3774  0.0618
  383MOL0     H51656   2.039   0.898   1.548  0.1663  0.2521 -1.0161
  383MOL0     H51657   2.283   0.727   1.509  3.6403 -4.0665 -0.3595
  383MOL0     H51658   2.317   0.796   1.678 -0.6086  1.9987 -2.1058
  383MOL0     H51659   2.315   0.513   1.596  1.7290  0.4232 -1.1135
  383MOL0     H51660   2.451   0.605   1.609  0.8586  0.4152  2.1843
  383MOL0     H51661   2.306   0.468   1.822  0.8333 -0.9882  1.5985
  383MOL0     H51662   2.280   0.640   1.844 -0.2956  0.6083 -3.3277
  383MOL0     H51663   2.486   0.570   1.966 -1.9888 -0.4356 -1.2003
  383MOL0     H51664   2.530   0.670   1.821 -1.8274  0.9590 -0.4325
  383MOL0     H51665   2.748   0.698   1.833  1.4703 -0.2387  0.1968
  383MOL0     H51666   2.972   0.708   1.779  2.9309 -0.8502 -0.5721
  383MOL0     H51667   3.383   0.434   1.875  0.6255  0.0237 -0.3572
  383MOL0     H51668   3.647   0.460   1.860  3.1310  1.0527 -3.3126
  383MOL0     H51669   3.825   0.458   1.748 -0.6480  0.1999 -0.5554
  383MOL0     H51670   3.742   0.448   1.586  0.7733 -0.4720 -1.6831
  383MOL0     H51671   3.926   0.559   1.475 -0.9225 -0.8744 -1.0633
  383MOL0     H51672   4.013   0.574   1.632  0.2281 -0.4260 -0.0952
  383MOL0     H51673   4.025   0.317   1.645  1.1551  2.2324  0.7178
  383MOL0     H51674   3.950   0.296   1.495 -1.1644 -0.2687  1.4612
  383MOL0     H51675   4.192   0.292   1.464  1.7382  0.4471  1.2095
  383MOL0     H51676   4.197   0.461   1.529  0.4818 -1.5086 -0.3126
  383MOL0     H51677   4.096   0.546   1.324 -1.3457 -0.5710 -3.1477
  383MOL0     H51678   4.012   0.395   1.292  0.0991  1.6181  0.4845
  383MOL0     H51679   4.305   0.458   1.257  1.9092 -3.6089 -0.6384
  383MOL0     H51680   4.246   0.298   1.227  1.9342  0.1555  1.5120
  383MOL0     H51681   4.200   0.566   1.077 -4.0211  0.3146  2.1568
  383MOL0     H51682   4.093   0.416   1.062  0.5382 -2.8277  2.4370
  383MOL0     H51683   4.380   0.428   1.017 -0.7640  3.1965 -2.1815
  383MOL0     H51684   4.273   0.274   1.002 -2.1325 -0.2145 -2.0005
  383MOL0     H51685   3.590   0.786   1.594  0.5995  0.0674 -0.0378
  383MOL0     H51686   3.331   0.777   1.660 -1.2274 -2.0070 -0.8044
  383MOL0     H51687   2.958   0.281   1.677 -1.4029 -0.2156 -0.9552
  383MOL0     H51688   2.731   0.280   1.753  1.3870 -0.7945 -0.9248
  383MOL0     H51689   0.859   0.361   1.650  1.4435  0.8416  1.3296
  383MOL0     H51690   0.638   0.347   1.779  2.3380 -1.4411  0.2953
  383MOL0     H51691   0.286   0.424   1.884  0.6027  0.4005 -1.4442
  383MOL0     H51692   0.075   0.369   1.967 -1.0895 -0.4608 -0.2934
  383MOL0     H51693  -0.113   0.328   2.089  1.6021  0.9548 -0.3857
  383MOL0     H51694  -0.214   0.451   2.015 -1.7913 -3.0161 -0.0273
  383MOL0     H51695  -0.217   0.402   2.306  1.5610 -1.0832 -1.4200
  383MOL0     H51696  -0.330   0.334   2.181 -1.5743 -0.7007  3.3523
  383MOL0     H51697  -0.368   0.604   2.129 -2.8784  1.6609  1.6244
  383MOL0     H51698  -0.290   0.627   2.279  0.6360 -2.1857  0.8569
  383MOL0     H51699  -0.536   0.455   2.247  2.3070 -0.8900 -1.1973
  383MOL0     H51700  -0.440   0.501   2.393 -0.3434  1.6517  0.8801
  383MOL0     H51701  -0.661   0.861   2.290  1.1112 -0.2999  0.8376
  383MOL0     H51702   0.082   0.703   2.240  0.4932  2.2099 -0.8703
  383MOL0     H51703   0.362   0.864   2.060  1.6260 -0.8281 -1.2675
  383MOL0     H51704   0.237   0.874   2.180 -1.2567 -1.4473  0.6844
  383MOL0     H51705   0.389   0.790   2.226 -0.1497  1.5193  0.1495
  384MOL0     O51706   7.094   6.292   7.576  0.3936  0.7160 -0.1517
  384MOL0     C51707   7.124   6.377   7.494 -0.0092  0.3172  0.0941
  384MOL0     O51708   7.231   6.459   7.505 -0.1315  0.4227  0.6964
  384MOL0     C51709   7.343   6.413   7.573 -0.5153 -0.1857 -0.0868
  384MOL0     C51710   7.455   6.372   7.505  1.0620  0.3901 -0.4582
  384MOL0     C51711   7.564   6.319   7.583 -0.7068 -0.3403  0.0437
  384MOL0     C51712   7.565   6.303   7.723  0.5030  0.3029  0.5542
  384MOL0     O51713   7.667   6.268   7.802 -0.0989 -0.6610  0.0365
  384MOL0     C51714   7.800   6.302   7.772 -0.5786  0.1072  0.9690
  384MOL0     C51715   7.873   6.187   7.705 -0.3322  0.0638 -0.6999
  384MOL0     C51716   8.030   6.199   7.726  0.6797 -0.5860 -0.1595
  384MOL0     C51717   8.078   6.325   7.658 -0.1497 -0.0892  0.3409
  384MOL0     C51718   8.035   6.336   7.508 -0.8238  0.3772  0.1002
  384MOL0     C51719   8.084   6.226   7.418  0.7745  0.4592  0.6454
  384MOL0     C51720   8.058   6.261   7.263  0.8289 -0.1311 -0.8385
  384MOL0     C51721   8.152   6.359   7.196 -0.7525 -0.0481 -0.1317
  384MOL0     N51722   8.298   6.329   7.229  0.1463  0.3104 -0.2392
  384MOL0     C51723   8.363   6.216   7.201 -0.4920  0.9541  0.3738
  384MOL0     C51724   8.469   6.210   7.286  0.5297 -0.0602 -0.1866
  384MOL0     C51725   8.566   6.097   7.315  0.7794  0.0703 -0.3916
  384MOL0     C51726   8.672   6.121   7.421  0.2518  1.1089 -0.3585
  384MOL0     C51727   8.622   6.110   7.565  0.5178  0.0629  0.2145
  384MOL0     C51728   8.729   6.174   7.664  0.9049 -0.0091  0.2878
  384MOL0     O51729   8.844   6.103   7.658  0.3061 -0.5054 -0.0195
  384MOL0     C51730   8.955   6.140   7.720  0.3608 -0.1265  0.8628
  384MOL0     C51731   8.955   6.218   7.833 -0.1602 -1.3278 -0.2124
  384MOL0     C51732   9.081   6.251   7.892 -0.1078  0.3305  0.2737
  384MOL0     C51733   9.203   6.203   7.853  0.7610  0.0546  0.7056
  384MOL0     C51734   9.335   6.228   7.915  0.5074 -0.0868 -0.5327
  384MOL0     O51735   9.447   6.167   7.866  0.3857  0.3259  0.5128
  384MOL0     C51736   9.575   6.191   7.921 -0.1775  0.4346 -0.2165
  384MOL0     C51737   9.664   6.078   7.930 -0.1487 -1.0212  0.1868
  384MOL0     C51738   9.779   6.080   8.005  0.3898 -0.8724 -0.1587
  384MOL0     C51739   9.816   6.199   8.073  0.3741 -0.0914  0.2498
  384MOL0     O51740   9.934   6.185   8.141 -0.4466 -0.5067 -0.5665
  384MOL0     C51741  10.003   6.307   8.190 -0.0252  0.3981  0.6858
  384MOL0     C51742   9.972   6.342   8.329  0.0685  0.9940 -0.3573
  384MOL0     C51743   9.838   6.404   8.346  0.5460 -0.1153  0.1746
  384MOL0     C51744   9.805   6.444   8.495 -0.3802 -0.7086  0.7427
  384MOL0     C51745   9.651   6.467   8.504  0.4021  0.0290  0.9155
  384MOL0     C51746   9.626   6.519   8.650 -0.3286  0.4637  0.8560
  384MOL0     C51747   9.487   6.585   8.654  0.5147 -0.1322 -0.3401
  384MOL0     C51748   9.373   6.480   8.695 -0.4059 -1.3979 -0.1238
  384MOL0    Cl51749   9.206   6.556   8.705 -0.7308 -0.1853  0.4943
  384MOL0     C51750   9.749   6.325   8.050  0.3500  0.1346  0.9828
  384MOL0     C51751   9.626   6.316   7.970  0.0139 -0.2886  0.6983
  384MOL0     O51752   9.330   6.299   8.016 -0.1912 -0.5468 -1.0893
  384MOL0     C51753   9.200   6.117   7.741 -0.6199 -0.2938  0.7341
  384MOL0     C51754   9.079   6.086   7.679 -0.2087  0.0673 -0.4991
  384MOL0     N51755   8.466   6.330   7.360 -0.8661  0.6491 -0.1533
  384MOL0     N51756   8.367   6.405   7.324 -0.1927  0.0342 -0.4619
  384MOL0     C51757   7.445   6.346   7.789  0.6768 -0.6062 -0.3962
  384MOL0     C51758   7.343   6.409   7.717  0.0143  0.0955  0.1722
  384MOL0     C51759   7.027   6.400   7.385  0.1553  0.1542 -0.1875
  384MOL0     C51760   7.057   6.499   7.295 -0.2743  0.0104  0.8634
  384MOL0     C51761   6.971   6.541   7.193  0.3634  0.4677  0.0697
  384MOL0     C51762   6.850   6.475   7.179 -0.7358 -0.5895 -0.4218
  384MOL0     O51763   6.756   6.519   7.095  0.3651  0.6870  0.2567
  384MOL0     C51764   6.681   6.634   7.121  1.0824  0.4419 -0.5916
  384MOL0     C51765   6.536   6.598   7.150  0.4254  0.0797 -0.0825
  384MOL0     C51766   6.442   6.720   7.184  0.3679 -0.6738  0.3870
  384MOL0     C51767   6.298   6.666   7.186 -0.3997  0.4641 -0.3155
  384MOL0     C51768   6.218   6.766   7.252  0.4324  0.2050 -0.4480
  384MOL0     C51769   6.143   6.850   7.299 -1.2245 -0.4247 -0.2377
  384MOL0     C51770   6.815   6.370   7.270  0.7689  0.5801 -0.3543
  384MOL0     C51771   6.905   6.326   7.361 -0.1548  0.1003 -0.2937
  384MOL0     C51772   6.866   6.204   7.430  0.0871 -0.1105 -0.3885
  384MOL0     H51773   7.457   6.383   7.397 -0.6060 -2.4350 -0.8638
  384MOL0     H51774   7.659   6.300   7.534 -0.4304  2.1882 -0.5162
  384MOL0     H51775   7.800   6.392   7.710 -1.3426 -0.9791 -0.6859
  384MOL0     H51776   7.852   6.339   7.861 -1.5629  2.4168  0.6385
  384MOL0     H51777   7.845   6.179   7.600 -0.5236  2.3109 -0.8529
  384MOL0     H51778   7.835   6.097   7.756  2.0774 -0.5770  0.1258
  384MOL0     H51779   8.087   6.108   7.703  1.8901 -0.4961  2.2130
  384MOL0     H51780   8.048   6.211   7.833 -0.8340 -3.0609  0.4653
  384MOL0     H51781   8.050   6.420   7.704 -0.3574 -0.4031  0.8761
  384MOL0     H51782   8.187   6.326   7.658  0.1286  3.7487 -4.1080
  384MOL0     H51783   7.928   6.356   7.501 -0.2511  3.5017 -1.3514
  384MOL0     H51784   8.076   6.432   7.476 -1.2477  0.4833 -0.1320
  384MOL0     H51785   8.184   6.189   7.439  0.0231 -1.3645  1.1771
  384MOL0     H51786   8.026   6.135   7.434  0.6686 -0.0082 -1.9682
  384MOL0     H51787   7.959   6.303   7.248  1.2570  0.9389 -0.7112
  384MOL0     H51788   8.055   6.166   7.208 -1.7590 -1.1914  0.9334
  384MOL0     H51789   8.148   6.344   7.088  1.9655  2.1340 -0.6349
  384MOL0     H51790   8.125   6.461   7.226  1.3584  0.1435  1.3329
  384MOL0     H51791   8.336   6.139   7.131  3.5762 -0.1216 -0.2450
  384MOL0     H51792   8.509   6.005   7.328  1.1937 -0.8515 -4.0116
  384MOL0     H51793   8.622   6.073   7.224  3.8220  0.2363  1.2991
  384MOL0     H51794   8.747   6.041   7.427  0.5108  1.4320  4.1989
  384MOL0     H51795   8.715   6.218   7.398 -1.1680  2.6207  2.8060
  384MOL0     H51796   8.581   6.011   7.584 -2.6455  0.9709 -1.1505
  384MOL0     H51797   8.539   6.181   7.561  0.2197 -0.3286 -0.6260
  384MOL0     H51798   8.682   6.171   7.763 -0.8420 -1.0120 -0.5289
  384MOL0     H51799   8.757   6.279   7.650  4.1519 -0.6002  1.4499
  384MOL0     H51800   8.860   6.258   7.867  0.6057  2.5132 -1.9994
  384MOL0     H51801   9.093   6.323   7.972  2.2867  3.9968 -3.0109
  384MOL0     H51802   9.632   5.987   7.880 -2.9695  1.1724 -2.4082
  384MOL0     H51803   9.859   6.006   8.006  1.3796  0.1836  1.1936
  384MOL0     H51804  10.110   6.286   8.189 -0.3725 -1.5215  0.4596
  384MOL0     H51805   9.993   6.399   8.131  1.8970  2.2763  3.0564
  384MOL0     H51806   9.978   6.248   8.386 -1.4716  0.6717 -0.6757
  384MOL0     H51807  10.048   6.407   8.373 -1.7432  3.2526 -0.3855
  384MOL0     H51808   9.830   6.498   8.291  0.7001  1.9768  3.4285
  384MOL0     H51809   9.759   6.337   8.312 -0.3389 -0.3154  2.3951
  384MOL0     H51810   9.857   6.537   8.516 -2.3302  0.2894  1.4738
  384MOL0     H51811   9.828   6.372   8.574 -1.7705 -2.1457 -0.1003
  384MOL0     H51812   9.591   6.376   8.510  1.2552 -0.5909  0.2919
  384MOL0     H51813   9.618   6.535   8.425 -0.5700 -0.7780  0.6203
  384MOL0     H51814   9.643   6.435   8.718 -2.0989 -0.4007  0.2926
  384MOL0     H51815   9.690   6.606   8.668 -0.4874  0.7990 -0.1427
  384MOL0     H51816   9.455   6.639   8.564  0.0046 -0.2295 -0.2176
  384MOL0     H51817   9.492   6.656   8.737  1.0168  0.6429 -1.0102
  384MOL0     H51818   9.379   6.390   8.634  2.7202 -1.0419 -0.5139
  384MOL0     H51819   9.396   6.439   8.794 -1.4806 -2.1317 -0.1608
  384MOL0     H51820   9.770   6.425   8.087 -2.3414  2.1910 -2.4020
  384MOL0     H51821   9.562   6.403   7.968 -1.0094 -0.7585 -4.8159
  384MOL0     H51822   9.279   6.075   7.680  0.1851  0.9115  0.9231
  384MOL0     H51823   9.086   6.019   7.594  0.2222  0.2347 -0.5995
  384MOL0     H51824   7.427   6.324   7.894  0.4336 -1.9101 -0.6940
  384MOL0     H51825   7.253   6.439   7.771  0.4792  0.2816  0.8560
  384MOL0     H51826   7.154   6.544   7.311 -0.1628 -0.6957  2.2532
  384MOL0     H51827   6.995   6.623   7.125 -3.3418 -0.9190 -3.3042
  384MOL0     H51828   6.674   6.707   7.039 -0.6864  1.2037  0.1720
  384MOL0     H51829   6.719   6.684   7.210 -1.4186 -0.0718  0.8737
  384MOL0     H51830   6.525   6.525   7.231  0.4998  0.6817  0.4875
  384MOL0     H51831   6.498   6.558   7.056 -1.1757  0.9126  0.1686
  384MOL0     H51832   6.461   6.797   7.109  2.0138 -0.8830  0.5441
  384MOL0     H51833   6.476   6.766   7.277  1.3114  0.6442 -0.5696
  384MOL0     H51834   6.260   6.632   7.090  1.1044 -0.5904 -0.5626
  384MOL0     H51835   6.288   6.587   7.261 -0.1670  0.8625  0.1430
  384MOL0     H51836   6.099   6.938   7.341  1.9231  0.7211  0.9590
  384MOL0     H51837   6.723   6.319   7.243 -0.3396  1.2922  1.8970
  384MOL0     H51838   6.943   6.126   7.424  0.6099  0.0673  2.5904
  384MOL0     H51839   6.845   6.224   7.536  0.5181 -1.3068 -0.0620
  384MOL0     H51840   6.771   6.158   7.401 -0.9362  0.4095  1.9235
  385MOL0     O51841   1.638   0.208   6.741  0.8975 -0.1735 -0.1215
  385MOL0     C51842   1.561   0.262   6.818  0.4291 -0.3316  0.1301
  385MOL0     O51843   1.551   0.243   6.946  0.2691  0.0805  0.4271
  385MOL0     C51844   1.645   0.156   7.002  0.4357  0.4337  0.7095
  385MOL0     C51845   1.626   0.016   6.992  0.8832  0.3238  0.3155
  385MOL0     C51846   1.730  -0.075   7.031 -0.1976 -0.0888 -0.5895
  385MOL0     C51847   1.845  -0.022   7.095  0.7824  0.1492  0.0323
  385MOL0     O51848   1.933  -0.118   7.145  0.1154  0.0003 -0.5848
  385MOL0     C51849   2.066  -0.099   7.202 -0.2901  0.5616 -1.0182
  385MOL0     C51850   2.170  -0.183   7.124  1.2801 -0.1560  0.0287
  385MOL0     C51851   2.306  -0.168   7.194 -0.4056 -0.4834  0.3688
  385MOL0     C51852   2.408  -0.275   7.191 -0.1841  0.1172 -0.4694
  385MOL0     C51853   2.493  -0.308   7.063 -0.6016  0.1550 -0.1126
  385MOL0     C51854   2.551  -0.190   6.992 -0.7028 -0.4984 -0.6178
  385MOL0     C51855   2.619  -0.204   6.853  0.1096 -0.3203 -0.6181
  385MOL0     C51856   2.525  -0.251   6.743  0.0192 -0.9645  0.2886
  385MOL0     N51857   2.606  -0.287   6.626  0.3585  0.0578 -0.0487
  385MOL0     C51858   2.690  -0.399   6.616  0.2047 -0.3753  0.1191
  385MOL0     C51859   2.750  -0.389   6.492 -0.2680 -0.5439 -1.0697
  385MOL0     C51860   2.867  -0.473   6.436  0.1205  0.0574  0.0191
  385MOL0     C51861   2.827  -0.622   6.407  0.0060 -0.2961  0.0097
  385MOL0     C51862   2.934  -0.704   6.327 -0.6699 -0.4146  0.1797
  385MOL0     C51863   2.904  -0.853   6.339 -0.2972  0.1152 -0.3814
  385MOL0     O51864   2.971  -0.932   6.237  0.7172  0.0284  0.6260
  385MOL0     C51865   3.105  -0.960   6.241 -0.0304 -0.1272 -0.0898
  385MOL0     C51866   3.201  -0.911   6.340  0.8946  0.1833  0.5287
  385MOL0     C51867   3.326  -0.969   6.330  0.0119 -1.0422  0.5234
  385MOL0     C51868   3.366  -1.073   6.247  0.2120 -0.4696  1.1796
  385MOL0     C51869   3.501  -1.128   6.250 -0.0540  0.3661 -0.5541
  385MOL0     O51870   3.599  -1.038   6.281  1.2447 -0.2411 -0.7146
  385MOL0     C51871   3.732  -1.053   6.275  0.1282 -0.0154  0.0582
  385MOL0     C51872   3.807  -0.989   6.375  0.6443 -0.6722  0.6288
  385MOL0     C51873   3.945  -1.001   6.371 -0.0952 -0.1948  0.6023
  385MOL0     C51874   4.014  -1.078   6.278 -1.1478  0.1926  0.0102
  385MOL0     O51875   4.155  -1.087   6.272  1.5040 -0.2453  0.6659
  385MOL0     C51876   4.236  -1.041   6.374  0.4344 -0.6120 -0.1437
  385MOL0     C51877   4.383  -1.065   6.336 -0.4259  0.4404  0.9221
  385MOL0     C51878   4.486  -1.007   6.437  0.0032  0.7321  0.2856
  385MOL0     C51879   4.631  -1.039   6.414  0.3742 -0.5124  0.9348
  385MOL0     C51880   4.724  -1.012   6.528  0.0818  0.1050  0.8494
  385MOL0     C51881   4.710  -0.870   6.589 -0.7068 -0.4839  0.1281
  385MOL0     C51882   4.823  -0.860   6.688 -0.5150 -0.5303 -0.5932
  385MOL0     C51883   4.853  -0.710   6.706 -0.2197 -1.1089  0.2314
  385MOL0    Cl51884   4.724  -0.617   6.778  0.4018  0.1318  0.3848
  385MOL0     C51885   3.934  -1.146   6.185 -0.8744  0.1333 -0.3787
  385MOL0     C51886   3.795  -1.129   6.180 -0.4565  1.1984 -0.7778
  385MOL0     O51887   3.521  -1.238   6.193 -0.0441 -0.2343  0.4473
  385MOL0     C51888   3.264  -1.118   6.154 -0.6381 -0.7953 -1.2417
  385MOL0     C51889   3.142  -1.062   6.149  0.9028 -0.3332 -0.6311
  385MOL0     N51890   2.711  -0.273   6.437 -1.0869 -0.0841  0.3020
  385MOL0     N51891   2.615  -0.216   6.510 -0.2292 -0.9761 -0.5772
  385MOL0     C51892   1.849   0.117   7.118  0.2397  0.8080  0.0030
  385MOL0     C51893   1.755   0.205   7.069 -0.4971  0.3229  0.5859
  385MOL0     C51894   1.476   0.374   6.758  0.2711  0.5691  0.0318
  385MOL0     C51895   1.506   0.406   6.629  0.3925 -0.3922  0.0313
  385MOL0     C51896   1.437   0.505   6.557  0.2820 -1.8143 -0.7215
  385MOL0     C51897   1.340   0.581   6.629 -0.3748  0.0460 -0.1588
  385MOL0     O51898   1.308   0.703   6.580  0.1226 -0.0952  0.8582
  385MOL0     C51899   1.342   0.826   6.651 -0.1122  0.2259  0.0061
  385MOL0     C51900   1.400   0.934   6.559  0.4675  0.3453  0.3875
  385MOL0     C51901   1.540   0.897   6.501 -0.2868  0.6314 -0.5411
  385MOL0     C51902   1.654   0.874   6.610 -0.5357 -0.4853  0.2293
  385MOL0     C51903   1.761   0.778   6.563  0.4052 -1.1599 -0.1429
  385MOL0     C51904   1.826   0.687   6.520 -0.2354  0.3074 -0.5560
  385MOL0     C51905   1.299   0.549   6.757  0.3247  0.7026 -0.3036
  385MOL0     C51906   1.374   0.444   6.828 -0.4603 -0.3463 -0.5028
  385MOL0     C51907   1.339   0.428   6.975 -0.4990  0.1625  0.4749
  385MOL0     H51908   1.540  -0.027   6.941 -0.3274  4.0991 -1.1022
  385MOL0     H51909   1.733  -0.183   7.019  4.0593 -0.2946  0.8119
  385MOL0     H51910   2.091   0.006   7.216  2.1617 -0.1931  0.8470
  385MOL0     H51911   2.063  -0.142   7.303 -2.0462  0.7223 -0.9696
  385MOL0     H51912   2.186  -0.153   7.020  3.0623 -1.1024 -0.0165
  385MOL0     H51913   2.138  -0.288   7.128  3.7288 -0.9505  0.6853
  385MOL0     H51914   2.277  -0.146   7.297  1.4732 -0.2802  0.8903
  385MOL0     H51915   2.362  -0.085   7.150 -0.2221 -1.2733 -0.9349
  385MOL0     H51916   2.483  -0.252   7.267 -0.7849  2.3647 -0.4774
  385MOL0     H51917   2.354  -0.366   7.219  0.9448 -0.5854 -0.5152
  385MOL0     H51918   2.568  -0.386   7.079  0.8414  1.7102  1.2004
  385MOL0     H51919   2.422  -0.344   6.989 -1.1618  0.1471  0.4219
  385MOL0     H51920   2.473  -0.114   6.974 -0.1846 -0.1333 -1.3981
  385MOL0     H51921   2.613  -0.133   7.061 -1.9062  0.1384 -0.0182
  385MOL0     H51922   2.703  -0.273   6.866  1.9082  1.4956 -2.0148
  385MOL0     H51923   2.660  -0.108   6.819  1.2455 -0.7473 -0.5044
  385MOL0     H51924   2.459  -0.333   6.772  1.0082 -1.6649  0.6127
  385MOL0     H51925   2.458  -0.172   6.707  1.4138  1.0800  1.9776
  385MOL0     H51926   2.688  -0.477   6.691 -2.8764  0.1301  0.7147
  385MOL0     H51927   2.906  -0.428   6.345  0.6184 -0.7077 -0.1577
  385MOL0     H51928   2.947  -0.480   6.510  0.3965 -0.7349 -0.3377
  385MOL0     H51929   2.806  -0.673   6.502 -2.1003  0.9999  0.3017
  385MOL0     H51930   2.733  -0.626   6.351  0.1935 -2.1718 -0.2418
  385MOL0     H51931   3.035  -0.673   6.354  0.4715 -2.9962 -0.8037
  385MOL0     H51932   2.922  -0.672   6.222  0.7817 -0.1857  0.0715
  385MOL0     H51933   2.796  -0.871   6.336 -0.0326 -1.5941 -0.3631
  385MOL0     H51934   2.942  -0.873   6.439  3.8800 -2.8071 -2.2345
  385MOL0     H51935   3.178  -0.836   6.416  1.2554  1.3144 -0.4521
  385MOL0     H51936   3.394  -0.937   6.408 -0.0839  0.6757 -0.0673
  385MOL0     H51937   3.756  -0.926   6.448  3.4178  0.1876  1.9392
  385MOL0     H51938   4.003  -0.948   6.446 -0.0673  0.5561  0.0634
  385MOL0     H51939   4.220  -0.934   6.386  0.3086 -0.5429 -0.9067
  385MOL0     H51940   4.221  -1.098   6.466  4.3811 -2.7736 -0.6007
  385MOL0     H51941   4.407  -1.171   6.327 -0.2261  0.6110 -1.3025
  385MOL0     H51942   4.408  -1.014   6.242  1.0226  2.3375  2.2587
  385MOL0     H51943   4.473  -0.898   6.440  1.1352  0.9775 -1.7112
  385MOL0     H51944   4.464  -1.045   6.537 -0.9760 -2.7609 -1.1317
  385MOL0     H51945   4.661  -0.989   6.321 -1.9664 -3.4929 -1.6932
  385MOL0     H51946   4.637  -1.144   6.385  2.9203  0.2207 -1.7598
  385MOL0     H51947   4.827  -1.024   6.494 -0.0868  3.2092 -1.0668
  385MOL0     H51948   4.704  -1.082   6.611 -0.6762 -1.2160 -0.4018
  385MOL0     H51949   4.723  -0.793   6.513  1.9301 -0.5453  0.4503
  385MOL0     H51950   4.618  -0.852   6.646 -0.0203  2.1476  0.5458
  385MOL0     H51951   4.911  -0.917   6.658  0.4006 -0.3086  1.5185
  385MOL0     H51952   4.792  -0.910   6.780  0.4496 -1.0166 -0.5269
  385MOL0     H51953   4.943  -0.694   6.767  0.7271 -0.2240 -1.3227
  385MOL0     H51954   4.885  -0.678   6.606  1.9853 -2.4063  0.4546
  385MOL0     H51955   3.988  -1.199   6.107  0.1983 -0.2346  0.5840
  385MOL0     H51956   3.737  -1.166   6.097  3.7249 -3.1890 -2.2259
  385MOL0     H51957   3.277  -1.210   6.098  4.4689 -0.5356 -0.9442
  385MOL0     H51958   3.076  -1.091   6.067 -0.2957  1.0747 -0.2078
  385MOL0     H51959   1.909   0.155   7.200  1.9598 -1.6405 -0.0122
  385MOL0     H51960   1.762   0.312   7.088  0.0485  0.5804 -0.9624
  385MOL0     H51961   1.595   0.362   6.584 -0.4361 -1.1640 -0.8883
  385MOL0     H51962   1.474   0.547   6.465  0.0724 -0.4861 -0.2254
  385MOL0     H51963   1.414   0.805   6.731  2.7683 -2.0574 -2.9633
  385MOL0     H51964   1.244   0.864   6.684 -0.4487 -0.3636 -0.3106
  385MOL0     H51965   1.400   1.030   6.611 -0.0826 -0.3652  1.7319
  385MOL0     H51966   1.332   0.934   6.473  1.5623  2.1180 -0.5335
  385MOL0     H51967   1.561   0.978   6.431 -3.2823  2.0733  0.0511
  385MOL0     H51968   1.531   0.814   6.430  0.4241  0.9174 -0.9669
  385MOL0     H51969   1.724   0.958   6.611  3.7372 -3.6653 -2.5123
  385MOL0     H51970   1.614   0.845   6.708 -2.7217  1.1323 -0.0966
  385MOL0     H51971   1.873   0.600   6.479  3.8001  1.6153  0.7980
  385MOL0     H51972   1.219   0.604   6.805 -0.1875  1.1233 -1.5923
  385MOL0     H51973   1.432   0.430   7.032  0.4711 -3.0259 -0.7690
  385MOL0     H51974   1.280   0.512   7.012 -0.9425 -0.0632  0.2947
  385MOL0     H51975   1.282   0.334   6.978 -0.9541  0.2609 -2.2364
  386MOL0     O51976   6.801   2.007   8.338 -0.0184 -0.0540 -0.0274
  386MOL0     C51977   6.700   1.955   8.377  0.3791 -0.6031 -0.2517
  386MOL0     O51978   6.680   1.814   8.378  0.1012 -0.0019 -0.0541
  386MOL0     C51979   6.787   1.730   8.376  0.5325 -0.0087  0.2335
  386MOL0     C51980   6.919   1.758   8.323  0.4835  0.3461 -0.5548
  386MOL0     C51981   7.006   1.657   8.322  0.2542  1.1452 -0.7281
  386MOL0     C51982   6.975   1.529   8.373 -0.0394 -0.0609 -0.1262
  386MOL0     O51983   7.075   1.443   8.367 -0.3461  0.1143  0.0866
  386MOL0     C51984   7.109   1.388   8.492  0.2348 -0.9546 -0.1688
  386MOL0     C51985   7.217   1.288   8.462  0.2629 -0.0703 -0.2711
  386MOL0     C51986   7.276   1.230   8.594  0.2840 -0.3476  0.1292
  386MOL0     C51987   7.185   1.126   8.663 -0.0818  0.2215  0.3283
  386MOL0     C51988   7.264   1.039   8.763 -0.1496  0.3416 -0.0380
  386MOL0     C51989   7.180   0.932   8.836  0.3221  0.1623 -0.6915
  386MOL0     C51990   7.238   0.900   8.981  0.3306 -0.1854  0.2801
  386MOL0     C51991   7.381   0.830   8.983  0.2412  0.2970  0.2768
  386MOL0     N51992   7.389   0.720   9.081 -0.2018  0.3729  0.2520
  386MOL0     C51993   7.452   0.719   9.206  0.4928 -0.1325  0.3563
  386MOL0     C51994   7.459   0.598   9.249  0.1979  0.3613 -0.0957
  386MOL0     C51995   7.530   0.560   9.380 -0.5912  0.3028 -0.2568
  386MOL0     C51996   7.670   0.522   9.337 -0.3848 -0.1275 -0.0702
  386MOL0     C51997   7.752   0.517   9.466  0.3269 -0.1711 -0.0619
  386MOL0     C51998   7.903   0.492   9.432 -0.1989 -1.0170  1.4211
  386MOL0     O51999   7.968   0.615   9.411  0.3820  0.3033  0.9403
  386MOL0     C52000   8.108   0.618   9.402 -0.3681  0.1140  0.9852
  386MOL0     C52001   8.178   0.743   9.403  0.4021 -0.0778  0.6512
  386MOL0     C52002   8.316   0.747   9.411 -0.1580  0.1974  0.3365
  386MOL0     C52003   8.386   0.627   9.400  0.5111  0.0588  0.7758
  386MOL0     C52004   8.534   0.628   9.413  0.0098 -0.0041  0.4500
  386MOL0     O52005   8.604   0.533   9.471 -0.7465  0.8152  0.2951
  386MOL0     C52006   8.741   0.541   9.473  0.2193  0.1535  0.6804
  386MOL0     C52007   8.811   0.518   9.351  0.1911  0.6532 -0.0335
  386MOL0     C52008   8.953   0.502   9.340 -0.7172  0.1217 -0.7911
  386MOL0     C52009   9.029   0.495   9.466 -0.1190  0.2121  0.8530
  386MOL0     O52010   9.161   0.464   9.454 -0.4930 -0.1733 -0.8802
  386MOL0     C52011   9.258   0.529   9.539 -0.6298  0.2893  0.2967
  386MOL0     C52012   9.395   0.478   9.529  0.3565 -0.4763  0.0066
  386MOL0     C52013   9.437   0.462   9.385 -0.7599  1.0411 -0.3903
  386MOL0     C52014   9.583   0.398   9.379 -0.2247 -0.5451 -0.1427
  386MOL0     C52015   9.690   0.506   9.379 -0.6498  0.4280 -0.0541
  386MOL0     C52016   9.823   0.438   9.378  0.4516 -0.8911  0.5989
  386MOL0     C52017   9.939   0.539   9.365 -0.4690  0.6744  0.5084
  386MOL0     C52018  10.041   0.491   9.464  1.2114 -0.2653 -0.0358
  386MOL0    Cl52019   9.993   0.505   9.645 -0.1624 -0.2403  0.1727
  386MOL0     C52020   8.957   0.490   9.581  1.0310  0.0577 -0.6573
  386MOL0     C52021   8.818   0.520   9.590  0.6886  0.3535  1.2520
  386MOL0     O52022   8.581   0.716   9.343 -0.5817 -0.2810  0.4230
  386MOL0     C52023   8.323   0.500   9.395  0.0044 -0.8951  0.7364
  386MOL0     C52024   8.187   0.497   9.395  0.9670  0.2008  0.4512
  386MOL0     N52025   7.395   0.516   9.154  0.7009 -0.3212  0.0033
  386MOL0     N52026   7.356   0.591   9.055  0.3319  0.8898 -0.0953
  386MOL0     C52027   6.847   1.494   8.404 -0.2943  0.9931  0.5828
  386MOL0     C52028   6.753   1.595   8.416  0.7144  0.6822 -0.6579
  386MOL0     C52029   6.592   2.033   8.439 -0.1342  0.9495  0.6307
  386MOL0     C52030   6.481   1.960   8.486  0.6143 -0.4645 -0.1391
  386MOL0     C52031   6.385   2.025   8.560  0.5883  0.7441  0.9298
  386MOL0     C52032   6.393   2.152   8.602 -0.7780 -0.3929  0.1103
  386MOL0     O52033   6.302   2.223   8.676 -0.2676  0.0914 -0.7291
  386MOL0     C52034   6.195   2.143   8.734 -0.4042  0.5993 -0.2784
  386MOL0     C52035   6.138   2.205   8.861  0.5996  0.4468  0.0554
  386MOL0     C52036   6.018   2.296   8.828  0.3411  0.6247  0.3972
  386MOL0     C52037   6.079   2.435   8.783  0.3907  0.2869  0.2731
  386MOL0     C52038   5.968   2.523   8.756 -0.0606 -0.0734  0.3100
  386MOL0     C52039   5.861   2.579   8.736 -0.3052  0.2906 -0.1825
  386MOL0     C52040   6.500   2.232   8.554  0.6039 -0.2400 -0.8256
  386MOL0     C52041   6.591   2.174   8.465 -0.2284  0.3024 -0.4090
  386MOL0     C52042   6.706   2.263   8.409  0.9820 -0.8045  0.2994
  386MOL0     H52043   6.951   1.844   8.267  0.3401  1.5516  1.1399
  386MOL0     H52044   7.111   1.669   8.296  0.8462 -0.3731  0.7704
  386MOL0     H52045   7.148   1.469   8.554  0.8663  0.4020 -2.2099
  386MOL0     H52046   7.027   1.338   8.544 -2.3823 -0.4709 -3.4304
  386MOL0     H52047   7.294   1.333   8.399 -0.5753  0.2168 -1.1207
  386MOL0     H52048   7.172   1.207   8.403  3.6480  0.2579 -3.6726
  386MOL0     H52049   7.315   1.313   8.653  2.2289 -0.3090 -1.1297
  386MOL0     H52050   7.362   1.168   8.566  0.4845 -0.6884  1.4535
  386MOL0     H52051   7.109   1.181   8.720 -0.4282 -1.5400  1.6858
  386MOL0     H52052   7.135   1.055   8.596 -2.8958  1.3722  1.0368
  386MOL0     H52053   7.342   0.981   8.712 -0.1643  0.1534  0.1522
  386MOL0     H52054   7.314   1.100   8.838 -1.5270  1.0434  0.3391
  386MOL0     H52055   7.076   0.965   8.846 -0.4027 -2.2719  0.8918
  386MOL0     H52056   7.168   0.840   8.777 -1.6135 -1.3077  1.7907
  386MOL0     H52057   7.163   0.840   9.034  2.0596 -1.5485  1.2998
  386MOL0     H52058   7.244   0.992   9.039  0.9746  0.8492 -1.3640
  386MOL0     H52059   7.403   0.799   8.881 -3.0576 -0.4401 -0.3333
  386MOL0     H52060   7.456   0.905   9.010  1.1594  0.0039 -1.3850
  386MOL0     H52061   7.483   0.805   9.265  1.3201 -2.6645  4.0119
  386MOL0     H52062   7.533   0.633   9.462  0.1102 -0.0404  0.0424
  386MOL0     H52063   7.490   0.474   9.435 -0.5013  0.7667  0.5517
  386MOL0     H52064   7.667   0.421   9.297 -0.1497  0.7161 -2.3911
  386MOL0     H52065   7.711   0.597   9.268  1.1676  0.8877  1.8692
  386MOL0     H52066   7.720   0.435   9.531  0.7786 -0.5621 -0.3226
  386MOL0     H52067   7.754   0.615   9.515  1.2852 -0.3910  0.3669
  386MOL0     H52068   7.919   0.432   9.342  1.4995 -0.2092  1.1401
  386MOL0     H52069   7.958   0.447   9.515 -0.4702 -3.7472  0.2250
  386MOL0     H52070   8.114   0.830   9.414  3.2143  2.0297  1.5618
  386MOL0     H52071   8.359   0.844   9.432 -1.8997  1.1314 -0.1813
  386MOL0     H52072   8.750   0.520   9.261 -0.1346 -0.6813  0.1339
  386MOL0     H52073   8.994   0.486   9.242 -0.5944  2.9851 -1.2981
  386MOL0     H52074   9.268   0.630   9.497  0.7870 -1.1441 -3.1590
  386MOL0     H52075   9.230   0.528   9.645 -0.2083 -2.0924  0.4490
  386MOL0     H52076   9.468   0.542   9.580  2.9741 -0.8698 -2.8888
  386MOL0     H52077   9.403   0.383   9.583  2.3724 -0.3079  0.0990
  386MOL0     H52078   9.372   0.391   9.334  0.2423 -0.1050 -0.1282
  386MOL0     H52079   9.439   0.556   9.330  2.5243  3.6303  3.5586
  386MOL0     H52080   9.589   0.340   9.286  1.9186  0.6665 -0.8380
  386MOL0     H52081   9.584   0.339   9.471 -0.5713  1.8159  1.4657
  386MOL0     H52082   9.683   0.570   9.467  0.5941 -0.2476  0.5457
  386MOL0     H52083   9.672   0.562   9.286  1.0954 -3.7264 -3.2311
  386MOL0     H52084   9.833   0.369   9.462  0.6334 -0.8022  0.6514
  386MOL0     H52085   9.815   0.385   9.282 -2.3640 -0.3970  0.5077
  386MOL0     H52086   9.912   0.644   9.377  2.8942  1.8746 -1.0302
  386MOL0     H52087   9.974   0.522   9.262  0.7365 -0.5397  1.0852
  386MOL0     H52088  10.055   0.385   9.438  2.3822 -0.5715  1.6494
  386MOL0     H52089  10.129   0.554   9.446 -0.2882  1.5960 -1.2658
  386MOL0     H52090   9.016   0.451   9.664  3.6074 -0.9647 -2.8125
  386MOL0     H52091   8.775   0.514   9.690 -0.2942  0.0860  0.8232
  386MOL0     H52092   8.374   0.407   9.373  2.6122 -0.2104  3.2458
  386MOL0     H52093   8.146   0.397   9.383  1.3940 -0.1981  2.0865
  386MOL0     H52094   6.814   1.392   8.425 -1.0644  1.1841  0.3319
  386MOL0     H52095   6.651   1.572   8.445 -0.0491  1.7002 -2.3952
  386MOL0     H52096   6.464   1.860   8.446 -0.7445  1.1596 -4.1741
  386MOL0     H52097   6.296   1.964   8.576 -0.2102  0.6253 -2.9478
  386MOL0     H52098   6.234   2.042   8.754 -0.4307  0.7705  0.6848
  386MOL0     H52099   6.116   2.124   8.662 -1.3985  2.4314  0.2939
  386MOL0     H52100   6.212   2.267   8.914  0.7298  2.9131 -2.7207
  386MOL0     H52101   6.115   2.117   8.921 -4.3152 -0.2987 -2.4306
  386MOL0     H52102   5.966   2.300   8.924 -0.7208 -0.5470 -0.1045
  386MOL0     H52103   5.948   2.256   8.754  3.4679  2.4440 -4.0412
  386MOL0     H52104   6.137   2.483   8.863 -0.8582  3.6236 -0.6571
  386MOL0     H52105   6.152   2.422   8.703  1.9080  1.7956  1.3395
  386MOL0     H52106   5.766   2.628   8.735  1.9759  5.2947  0.5357
  386MOL0     H52107   6.506   2.339   8.569  0.4152  0.4160 -4.5778
  386MOL0     H52108   6.712   2.256   8.300  0.7955 -4.3791  0.4181
  386MOL0     H52109   6.687   2.366   8.441 -2.5333 -0.6006 -1.9090
  386MOL0     H52110   6.803   2.222   8.439 -0.2137 -2.9824  1.3944
  387MOL0     O52111   1.133  10.872   2.055  0.0617  0.2093 -0.2255
  387MOL0     C52112   1.126  10.891   1.936 -0.5245 -0.1809  0.3917
  387MOL0     O52113   1.202  10.829   1.839  0.5290  0.3213 -0.4674
  387MOL0     C52114   1.314  10.765   1.894 -0.5379  0.2922  0.2993
  387MOL0     C52115   1.335  10.625   1.902  1.0406  0.2877  0.0696
  387MOL0     C52116   1.447  10.561   1.933 -0.5292 -0.6657  0.6574
  387MOL0     C52117   1.566  10.631   1.948  0.4332 -0.2659 -0.4628
  387MOL0     O52118   1.688  10.576   1.986  0.6737 -0.0971  0.1369
  387MOL0     C52119   1.733  10.447   1.960  0.0095  0.1475 -0.3063
  387MOL0     C52120   1.881  10.450   1.998 -0.5393  0.6952 -0.6178
  387MOL0     C52121   1.944  10.308   1.991 -0.0485 -0.0434 -0.3621
  387MOL0     C52122   2.078  10.295   2.065  0.0296  0.4743  0.1664
  387MOL0     C52123   2.131  10.146   2.058  0.5507 -0.8530  0.8609
  387MOL0     C52124   2.246  10.127   2.156 -0.7726  0.2265  0.0617
  387MOL0     C52125   2.303   9.979   2.150 -0.1331 -0.0876  0.3943
  387MOL0     C52126   2.208   9.856   2.188 -0.5755 -0.6070 -0.4127
  387MOL0     N52127   2.292   9.753   2.245  0.8260  0.6008 -0.3528
  387MOL0     C52128   2.318   9.723   2.381 -1.4311 -0.7172 -0.3611
  387MOL0     C52129   2.430   9.649   2.380  0.4961 -0.1735  0.0570
  387MOL0     C52130   2.495   9.603   2.505  0.5466  0.7798 -0.2866
  387MOL0     C52131   2.642   9.562   2.480  0.1051 -0.5335 -0.7488
  387MOL0     C52132   2.718   9.542   2.618 -0.9218  0.6988 -0.9435
  387MOL0     C52133   2.870   9.557   2.601 -0.2666 -0.9293 -0.7374
  387MOL0     O52134   2.926   9.557   2.734 -0.4100  0.3225  0.7933
  387MOL0     C52135   3.057   9.596   2.742 -0.5175  0.6172  0.5294
  387MOL0     C52136   3.138   9.615   2.629  1.0530  0.1715 -0.3389
  387MOL0     C52137   3.267   9.645   2.648 -0.1825 -0.8637  0.2114
  387MOL0     C52138   3.326   9.669   2.782  1.1467  0.1779  0.8127
  387MOL0     C52139   3.469   9.722   2.800  0.9197 -0.7602  0.0938
  387MOL0     O52140   3.530   9.666   2.909 -0.4557 -0.0265  0.1379
  387MOL0     C52141   3.665   9.680   2.949  0.2636  0.7948  0.0786
  387MOL0     C52142   3.778   9.687   2.859 -0.1324 -0.3775  0.7393
  387MOL0     C52143   3.910   9.689   2.910 -0.0503  0.1770 -0.2567
  387MOL0     C52144   3.936   9.681   3.048  0.1588 -0.1485  0.2718
  387MOL0     O52145   4.053   9.711   3.105 -0.1159 -0.3812  0.3966
  387MOL0     C52146   4.154   9.794   3.037  0.6823 -0.0710  0.3895
  387MOL0     C52147   4.266   9.788   3.136 -0.3822  0.4292 -0.5093
  387MOL0     C52148   4.335   9.650   3.122  0.2840 -1.1608 -0.6735
  387MOL0     C52149   4.453   9.639   3.027 -1.1247  0.3394 -0.4717
  387MOL0     C52150   4.496   9.489   2.994  0.4126  0.7168  0.2934
  387MOL0     C52151   4.598   9.467   2.893  0.3782  0.2959 -0.6506
  387MOL0     C52152   4.666   9.331   2.894 -0.5132 -0.2599 -0.4816
  387MOL0     C52153   4.819   9.337   2.906 -0.4640 -0.1335 -0.4591
  387MOL0    Cl52154   4.851   9.392   3.073  0.2061  0.0737 -0.4131
  387MOL0     C52155   3.829   9.674   3.134  0.5975  0.0295 -0.9508
  387MOL0     C52156   3.688   9.675   3.082 -0.5961  1.1982 -0.2963
  387MOL0     O52157   3.524   9.784   2.711 -0.2976  0.9677 -0.3595
  387MOL0     C52158   3.240   9.657   2.890  0.6624  0.2509  0.6037
  387MOL0     C52159   3.112   9.618   2.879  0.1691  0.6290  0.3894
  387MOL0     N52160   2.455   9.620   2.250 -0.1760  0.6531  0.3568
  387MOL0     N52161   2.362   9.667   2.172  0.2447  0.3093 -0.9594
  387MOL0     C52162   1.557  10.770   1.925 -0.2615  0.4032  0.8068
  387MOL0     C52163   1.439  10.841   1.898 -0.3832 -0.6647  0.0408
  387MOL0     C52164   1.014  10.975   1.878 -0.4023 -0.0402  0.0457
  387MOL0     C52165   0.987  10.968   1.742 -0.1376 -0.2555  0.5351
  387MOL0     C52166   0.882  11.042   1.690  0.2557  0.3112 -0.0836
  387MOL0     C52167   0.801  11.118   1.775  0.0989 -0.4679  0.3220
  387MOL0     O52168   0.700  11.183   1.705  0.5825  0.1442  0.4087
  387MOL0     C52169   0.639  11.306   1.764  0.1869  0.0415  0.0925
  387MOL0     C52170   0.736  11.415   1.794 -0.2554  0.1174 -0.1681
  387MOL0     C52171   0.857  11.450   1.691 -0.1886  0.3632 -0.6420
  387MOL0     C52172   1.002  11.481   1.751 -0.9656  0.6006 -0.4537
  387MOL0     C52173   1.085  11.354   1.766  0.0607 -0.4602 -0.8357
  387MOL0     C52174   1.163  11.264   1.789  0.1604 -0.4598  0.6398
  387MOL0     C52175   0.817  11.130   1.913  0.6807  0.0392 -0.0290
  387MOL0     C52176   0.928  11.060   1.964 -0.2315  0.5869 -0.1189
  387MOL0     C52177   0.941  11.073   2.112 -0.7155  0.0804  0.4917
  387MOL0     H52178   1.249  10.566   1.872  2.8504 -2.0834 -0.7187
  387MOL0     H52179   1.455  10.453   1.923  1.4522 -0.4419 -0.9830
  387MOL0     H52180   1.679  10.369   2.014  1.8726 -1.3828 -0.5410
  387MOL0     H52181   1.718  10.434   1.852  1.6036  1.4260 -0.7257
  387MOL0     H52182   1.896  10.480   2.102 -4.1629 -0.5314  0.4230
  387MOL0     H52183   1.931  10.523   1.934  1.3595  1.1919  1.3161
  387MOL0     H52184   1.957  10.291   1.884  0.9752 -1.7792 -0.0060
  387MOL0     H52185   1.880  10.227   2.028 -1.4298  1.9332  1.7947
  387MOL0     H52186   2.144  10.369   2.019  1.2689  1.5889  3.4314
  387MOL0     H52187   2.079  10.330   2.169  3.9778 -0.0457  0.4351
  387MOL0     H52188   2.053  10.081   2.099  1.5466 -2.0600  0.8905
  387MOL0     H52189   2.171  10.129   1.958 -2.0748  1.2491 -0.6836
  387MOL0     H52190   2.324  10.199   2.132  0.2752 -1.0084 -0.3378
  387MOL0     H52191   2.216  10.154   2.258  0.3125  0.4633  0.3238
  387MOL0     H52192   2.399   9.985   2.204  0.3196 -2.2840 -0.0670
  387MOL0     H52193   2.328   9.966   2.044  0.3992  3.9209 -0.1392
  387MOL0     H52194   2.136   9.883   2.266  0.4947  0.9616  0.0725
  387MOL0     H52195   2.152   9.830   2.097  0.3224 -1.5598 -0.7124
  387MOL0     H52196   2.272   9.746   2.476 -1.3312 -0.2521 -0.4260
  387MOL0     H52197   2.485   9.672   2.590  0.0788 -1.8099  1.8886
  387MOL0     H52198   2.446   9.512   2.541 -1.0522  1.6118 -0.2871
  387MOL0     H52199   2.640   9.472   2.417 -0.6281  0.0276 -1.5390
  387MOL0     H52200   2.685   9.651   2.435  0.3235  1.3851  2.8942
  387MOL0     H52201   2.693   9.442   2.654  0.8445 -0.7190 -3.3661
  387MOL0     H52202   2.695   9.616   2.695  1.2844  1.0025 -0.5199
  387MOL0     H52203   2.886   9.650   2.545 -1.5024 -1.7982 -2.6198
  387MOL0     H52204   2.899   9.476   2.535 -0.3310  0.9168 -3.1724
  387MOL0     H52205   3.097   9.594   2.531  1.3840  1.0692 -0.6729
  387MOL0     H52206   3.343   9.657   2.571  0.0328 -2.9977  0.0313
  387MOL0     H52207   3.769   9.678   2.751  0.7747 -2.1748  0.7730
  387MOL0     H52208   3.985   9.705   2.833 -0.8670  3.0999 -0.5708
  387MOL0     H52209   4.181   9.745   2.943 -0.3089  1.7115 -0.9152
  387MOL0     H52210   4.116   9.895   3.015 -3.7936 -1.5868  0.1737
  387MOL0     H52211   4.337   9.871   3.121  1.4638 -0.6272  1.6953
  387MOL0     H52212   4.234   9.798   3.240  4.4765  0.7648  1.2395
  387MOL0     H52213   4.373   9.630   3.222  0.2404  0.1410 -0.3784
  387MOL0     H52214   4.255   9.578   3.100 -1.9518  1.4482 -1.6294
  387MOL0     H52215   4.545   9.669   3.078 -2.2967 -0.4510  2.3421
  387MOL0     H52216   4.452   9.699   2.936  1.3749 -0.8115 -1.3588
  387MOL0     H52217   4.405   9.432   2.972 -1.9621  3.8664  1.3366
  387MOL0     H52218   4.532   9.446   3.088 -1.6452  0.0721  0.8338
  387MOL0     H52219   4.553   9.484   2.795 -0.2164 -0.6537 -0.5558
  387MOL0     H52220   4.680   9.539   2.896  1.6846 -1.1643 -0.0158
  387MOL0     H52221   4.641   9.292   2.794 -1.2021 -2.5211  0.4991
  387MOL0     H52222   4.609   9.277   2.970 -3.1346  1.7319 -0.8849
  387MOL0     H52223   4.871   9.242   2.892 -0.1626 -0.4299  2.1547
  387MOL0     H52224   4.859   9.410   2.834 -2.1242  4.0726  2.4793
  387MOL0     H52225   3.849   9.673   3.240  1.7806 -1.3542 -1.1678
  387MOL0     H52226   3.605   9.682   3.151  1.8279 -1.1110  3.1972
  387MOL0     H52227   3.284   9.665   2.989  2.8640 -1.8531 -0.1048
  387MOL0     H52228   3.041   9.595   2.957 -2.5082 -0.5480 -2.1719
  387MOL0     H52229   1.651  10.823   1.935 -0.5530  0.6023  3.1451
  387MOL0     H52230   1.446  10.949   1.889  0.1538 -0.6593  0.4724
  387MOL0     H52231   1.043  10.900   1.679 -0.8706  0.4396 -0.9028
  387MOL0     H52232   0.859  11.036   1.584  2.5561 -6.2179 -0.6766
  387MOL0     H52233   0.572  11.285   1.848 -1.7176  1.2036 -1.0423
  387MOL0     H52234   0.561  11.329   1.690 -3.2321  0.4217  3.4767
  387MOL0     H52235   0.788  11.397   1.888 -0.9412  1.8796  0.5934
  387MOL0     H52236   0.680  11.508   1.809 -1.5262 -0.5272 -0.7251
  387MOL0     H52237   0.832  11.533   1.624 -0.1473 -0.6847 -2.0028
  387MOL0     H52238   0.864  11.357   1.633  3.0903 -0.2977  0.6144
  387MOL0     H52239   1.066  11.547   1.691 -0.1572  1.2306  1.0437
  387MOL0     H52240   0.989  11.527   1.849  1.8752 -1.1030  0.8325
  387MOL0     H52241   1.245  11.196   1.783  2.4602  2.2307 -3.0732
  387MOL0     H52242   0.753  11.183   1.983 -1.3172 -1.7047 -0.4589
  387MOL0     H52243   1.039  11.119   2.124 -1.1149  1.0030  0.2650
  387MOL0     H52244   0.872  11.143   2.160  0.0589 -0.7720  2.9519
  387MOL0     H52245   0.921  10.980   2.166 -1.5723 -0.7764 -1.1961
  388MOL0     O52246   0.250   0.459  10.001 -1.3462 -0.7226  0.4000
  388MOL0     C52247   0.342   0.516  10.069  0.1805  0.0134 -0.8431
  388MOL0     O52248   0.467   0.550  10.027 -1.2695 -0.1585  0.6850
  388MOL0     C52249   0.512   0.548   9.896 -0.8546  0.4742  0.3818
  388MOL0     C52250   0.618   0.618   9.857  0.2078 -0.5856  0.2288
  388MOL0     C52251   0.651   0.623   9.720 -0.3085  1.1439 -0.3717
  388MOL0     C52252   0.596   0.536   9.630 -0.1200  0.8121  0.2928
  388MOL0     O52253   0.609   0.523   9.495 -0.2289 -0.9836 -0.1817
  388MOL0     C52254   0.610   0.640   9.413 -0.2260  0.3825 -0.4669
  388MOL0     C52255   0.492   0.641   9.316  0.9366 -0.8863  0.2341
  388MOL0     C52256   0.487   0.513   9.230 -0.1063 -0.1456  0.2469
  388MOL0     C52257   0.405   0.544   9.104 -0.6852 -0.2252  0.0824
  388MOL0     C52258   0.357   0.421   9.012 -0.3713  0.6790 -0.1683
  388MOL0     C52259   0.238   0.472   8.930 -0.2032  0.2764  0.4844
  388MOL0     C52260   0.270   0.574   8.818  0.5664 -0.0740 -0.1066
  388MOL0     C52261   0.152   0.676   8.822 -0.0411 -0.2677  0.4920
  388MOL0     N52262   0.155   0.774   8.707 -0.2149 -0.5861  1.0243
  388MOL0     C52263   0.254   0.862   8.683 -0.0978  0.0373  1.4316
  388MOL0     C52264   0.245   0.884   8.548 -0.3197 -0.0520  0.4232
  388MOL0     C52265   0.347   0.951   8.459 -0.8450  0.5602 -0.3973
  388MOL0     C52266   0.442   0.845   8.405 -0.3154 -0.5203 -0.2482
  388MOL0     C52267   0.564   0.909   8.334 -0.8228 -0.1230 -0.4908
  388MOL0     C52268   0.653   0.800   8.282  0.1654  0.1881  0.6481
  388MOL0     O52269   0.762   0.863   8.200  0.1075 -0.5439  0.1777
  388MOL0     C52270   0.881   0.898   8.262  0.5865 -0.5623  0.6906
  388MOL0     C52271   0.895   0.939   8.398 -0.2265  0.0732 -0.1165
  388MOL0     C52272   1.021   0.952   8.456 -0.6569 -0.4215  0.9330
  388MOL0     C52273   1.135   0.924   8.377  0.8444  0.5474 -0.3806
  388MOL0     C52274   1.273   0.912   8.441 -0.4535  0.1097 -0.2602
  388MOL0     O52275   1.368   0.861   8.360  0.5112 -0.9628 -0.2364
  388MOL0     C52276   1.503   0.840   8.399 -0.2414  0.7935  0.4773
  388MOL0     C52277   1.566   0.895   8.513 -0.1725  0.9743 -0.0887
  388MOL0     C52278   1.688   0.850   8.547 -0.8754 -0.1979 -0.1333
  388MOL0     C52279   1.759   0.760   8.471 -0.3939  0.5591 -0.4685
  388MOL0     O52280   1.867   0.689   8.507 -0.0559  0.2064 -0.5698
  388MOL0     C52281   1.968   0.757   8.578 -0.1578 -0.0046  0.1355
  388MOL0     C52282   2.097   0.696   8.553 -0.2629  0.9888 -0.2259
  388MOL0     C52283   2.214   0.763   8.635  1.2838 -0.1213  0.6141
  388MOL0     C52284   2.331   0.672   8.627 -0.6044  0.0145 -0.1697
  388MOL0     C52285   2.457   0.737   8.678  0.5371 -0.5027 -0.7307
  388MOL0     C52286   2.569   0.634   8.679  0.5413  0.2152 -0.6219
  388MOL0     C52287   2.688   0.694   8.749 -0.3925  0.5294 -1.1785
  388MOL0     C52288   2.802   0.596   8.758 -0.4458 -0.2763 -0.3774
  388MOL0    Cl52289   2.776   0.453   8.870 -0.2862 -0.2534 -0.5128
  388MOL0     C52290   1.703   0.719   8.346  0.2063 -0.3222 -0.1976
  388MOL0     C52291   1.572   0.753   8.308 -0.2265 -0.4941  0.7183
  388MOL0     O52292   1.283   0.960   8.554  0.0452  0.6312  0.4107
  388MOL0     C52293   1.114   0.908   8.241  0.3642 -0.4919 -0.7234
  388MOL0     C52294   0.994   0.900   8.185  0.2398 -1.0806 -0.5768
  388MOL0     N52295   0.143   0.816   8.495  0.4106  1.1969 -0.1907
  388MOL0     N52296   0.085   0.749   8.593 -0.5040  0.2411 -0.1603
  388MOL0     C52297   0.497   0.445   9.677  0.5664 -0.5641 -0.1375
  388MOL0     C52298   0.448   0.465   9.801  0.1099  1.0540  0.2789
  388MOL0     C52299   0.308   0.545  10.210 -0.3863 -0.6589  0.4358
  388MOL0     C52300   0.378   0.651  10.267  0.4584 -0.8574  0.5359
  388MOL0     C52301   0.363   0.691  10.398  0.9786 -0.4002 -0.1420
  388MOL0     C52302   0.269   0.621  10.479  0.3382 -1.3907  0.2989
  388MOL0     O52303   0.243   0.647  10.610  0.8963  0.2035 -0.3934
  388MOL0     C52304   0.316   0.755  10.677  0.2058  0.2903  0.4177
  388MOL0     C52305   0.230   0.808  10.795  1.1259  0.2028 -1.0249
  388MOL0     C52306   0.218   0.705  10.903 -0.3652  0.6173  0.0981
  388MOL0     C52307   0.210   0.745  11.046  0.1664 -0.4108 -0.1847
  388MOL0     C52308   0.326   0.832  11.088  0.8056  0.1424  0.6487
  388MOL0     C52309   0.427   0.893  11.118 -0.5510 -0.6839 -0.3106
  388MOL0     C52310   0.199   0.523  10.414  0.3685 -0.4344 -0.0906
  388MOL0     C52311   0.221   0.471  10.288 -0.3130 -0.1476 -0.0784
  388MOL0     C52312   0.165   0.335  10.254 -0.2276 -0.5003 -0.0431
  388MOL0     H52313   0.666   0.684   9.929  1.5094  0.3765 -1.4565
  388MOL0     H52314   0.740   0.680   9.697  0.5570  1.6689  3.6078
  388MOL0     H52315   0.594   0.733   9.469  0.0901 -1.0986  2.2735
  388MOL0     H52316   0.700   0.638   9.352  0.6659  0.7306  0.7999
  388MOL0     H52317   0.499   0.736   9.262  1.3950 -1.7232 -1.2169
  388MOL0     H52318   0.398   0.650   9.372  1.3598  4.4457  0.6356
  388MOL0     H52319   0.441   0.427   9.280 -4.0087  1.0078 -1.0015
  388MOL0     H52320   0.587   0.483   9.198  0.2017  0.3011  0.7816
  388MOL0     H52321   0.316   0.597   9.141 -0.7106  0.2441 -0.6444
  388MOL0     H52322   0.467   0.612   9.046  1.7335  0.8602  3.6040
  388MOL0     H52323   0.428   0.383   8.938 -0.0466  0.4956  0.2309
  388MOL0     H52324   0.322   0.336   9.071 -0.3502  1.8377  1.5936
  388MOL0     H52325   0.205   0.381   8.880  1.0872  0.6363 -1.0941
  388MOL0     H52326   0.173   0.511   9.008  0.4403 -1.2473  1.8485
  388MOL0     H52327   0.266   0.518   8.724 -0.3243 -0.0668 -0.0830
  388MOL0     H52328   0.367   0.624   8.832  0.1963  1.5378 -2.6143
  388MOL0     H52329   0.064   0.615   8.800  0.2042 -0.0544 -1.3082
  388MOL0     H52330   0.155   0.722   8.921  1.0979 -0.5322  0.5880
  388MOL0     H52331   0.331   0.898   8.751 -0.2575 -1.1111  2.2502
  388MOL0     H52332   0.291   1.002   8.380 -0.8875 -1.2758 -1.6089
  388MOL0     H52333   0.402   1.025   8.517  0.2193  0.6864 -1.5314
  388MOL0     H52334   0.459   0.775   8.487 -0.6240 -0.7294 -0.3573
  388MOL0     H52335   0.392   0.794   8.322 -1.5962 -1.0493  0.8156
  388MOL0     H52336   0.612   0.964   8.415  0.7077 -3.7914  1.3187
  388MOL0     H52337   0.532   0.971   8.249 -0.9850 -2.5225 -2.2694
  388MOL0     H52338   0.596   0.731   8.220  2.1842  0.1696 -1.3147
  388MOL0     H52339   0.698   0.757   8.372 -0.1805 -1.3671  0.1048
  388MOL0     H52340   0.808   0.943   8.462  0.1288 -1.0572  0.4733
  388MOL0     H52341   1.027   0.967   8.563  0.9587 -0.5040  0.8767
  388MOL0     H52342   1.522   0.976   8.572 -1.6280  0.2917 -0.1821
  388MOL0     H52343   1.735   0.902   8.629 -1.2771  1.8718 -1.1567
  388MOL0     H52344   1.989   0.856   8.536  2.5935 -0.8455 -0.7024
  388MOL0     H52345   1.944   0.747   8.684 -0.4779  1.4181  0.2125
  388MOL0     H52346   2.093   0.588   8.571 -1.3758  1.1922  0.8365
  388MOL0     H52347   2.119   0.713   8.447 -2.8064  4.4304 -0.3649
  388MOL0     H52348   2.234   0.857   8.583 -2.5094  1.4033  1.5466
  388MOL0     H52349   2.187   0.785   8.739 -3.5328 -1.4159 -0.0857
  388MOL0     H52350   2.353   0.643   8.524  1.6572 -0.8191  0.4886
  388MOL0     H52351   2.311   0.583   8.687 -1.9133  1.6126  1.9288
  388MOL0     H52352   2.432   0.766   8.781 -3.6419 -1.1523 -1.3794
  388MOL0     H52353   2.488   0.820   8.613  2.9750 -0.8655 -0.1152
  388MOL0     H52354   2.547   0.544   8.737 -2.1868  0.1424 -1.6417
  388MOL0     H52355   2.596   0.591   8.582  0.5014 -2.5480  0.4821
  388MOL0     H52356   2.667   0.705   8.856  2.0343 -0.0753 -0.5759
  388MOL0     H52357   2.723   0.793   8.716  4.0801  0.3971  2.1744
  388MOL0     H52358   2.827   0.569   8.655  2.3470 -0.0990  0.1770
  388MOL0     H52359   2.898   0.644   8.782 -0.5355  0.2975 -1.1185
  388MOL0     H52360   1.757   0.653   8.279 -0.3462  1.2492 -2.2881
  388MOL0     H52361   1.522   0.712   8.220 -1.6861  2.9325 -0.2154
  388MOL0     H52362   1.207   0.897   8.187  1.1890 -0.3078  0.6087
  388MOL0     H52363   0.979   0.879   8.080  0.7933  0.4249 -0.9821
  388MOL0     H52364   0.446   0.368   9.620  2.1610 -0.7755 -1.3428
  388MOL0     H52365   0.378   0.387   9.830  0.6367  0.9549  1.3408
  388MOL0     H52366   0.460   0.695  10.212 -0.5008 -1.1250 -1.1632
  388MOL0     H52367   0.429   0.772  10.426  0.1216  1.3402 -2.7634
  388MOL0     H52368   0.338   0.836  10.606 -0.2468  0.6247  0.6549
  388MOL0     H52369   0.415   0.720  10.708 -0.4757 -0.6280  1.6173
  388MOL0     H52370   0.130   0.839  10.762  0.2359 -1.4249 -0.0075
  388MOL0     H52371   0.282   0.896  10.832  0.0802  0.6850 -0.6471
  388MOL0     H52372   0.311   0.648  10.906  1.0369  2.8193  3.4912
  388MOL0     H52373   0.129   0.641  10.901 -0.6096  0.9314  0.7633
  388MOL0     H52374   0.117   0.794  11.076 -0.0724 -1.0364  0.1031
  388MOL0     H52375   0.204   0.654  11.106 -2.8495 -0.6177 -0.6297
  388MOL0     H52376   0.510   0.947  11.158 -2.8473  1.7584  1.4856
  388MOL0     H52377   0.122   0.480  10.477 -1.1618  0.4052 -1.3251
  388MOL0     H52378   0.079   0.352  10.189 -0.6317  2.7380  1.1484
  388MOL0     H52379   0.246   0.278  10.207 -0.7918 -0.3206 -1.2709
  388MOL0     H52380   0.126   0.281  10.340 -2.2298 -1.0863 -1.2755
  389MOL0     O52381   7.155   1.916   8.869 -0.0666 -0.0480 -0.9453
  389MOL0     C52382   7.105   1.975   8.777  0.7492  0.0772  0.3081
  389MOL0     O52383   7.123   1.929   8.648 -1.4153 -0.1977  0.4151
  389MOL0     C52384   7.203   1.827   8.616  0.3901 -0.1660  0.0389
  389MOL0     C52385   7.261   1.729   8.697 -0.1103 -0.0051  0.1545
  389MOL0     C52386   7.356   1.643   8.648 -0.6122  0.5520 -0.7850
  389MOL0     C52387   7.404   1.654   8.515 -0.2223  0.9652  0.3030
  389MOL0     O52388   7.487   1.550   8.477  0.0543  0.2369 -0.1673
  389MOL0     C52389   7.523   1.527   8.335 -0.0374  0.4263  0.5182
  389MOL0     C52390   7.659   1.589   8.316 -0.8632 -0.0261  0.3562
  389MOL0     C52391   7.643   1.736   8.288 -0.0763 -0.7357 -0.2891
  389MOL0     C52392   7.779   1.807   8.285 -0.4647 -0.1870  0.0762
  389MOL0     C52393   7.758   1.953   8.240 -0.2844 -0.8463  0.0911
  389MOL0     C52394   7.829   2.038   8.346  0.0645 -0.0515  0.2608
  389MOL0     C52395   7.810   2.185   8.312  0.5016  0.7362 -0.0413
  389MOL0     C52396   7.862   2.282   8.427 -0.2275  0.1357 -0.1965
  389MOL0     N52397   8.003   2.277   8.457  0.2559  0.1179  0.3720
  389MOL0     C52398   8.102   2.356   8.400 -0.5767 -0.3934 -0.7724
  389MOL0     C52399   8.220   2.334   8.476  0.6170 -0.9336 -0.0416
  389MOL0     C52400   8.350   2.410   8.469 -0.3453 -0.6882 -0.4384
  389MOL0     C52401   8.437   2.420   8.600 -0.3168  0.6184  0.1709
  389MOL0     C52402   8.569   2.505   8.595  0.5966 -0.0846  0.2435
  389MOL0     C52403   8.656   2.485   8.713 -0.6814  0.7075 -0.0711
  389MOL0     O52404   8.789   2.538   8.674 -0.6109  0.8397  0.4561
  389MOL0     C52405   8.895   2.535   8.754  0.1380 -0.4775  0.2907
  389MOL0     C52406   9.020   2.559   8.683  0.0481  0.6580 -1.0241
  389MOL0     C52407   9.145   2.542   8.756  0.0343 -0.4894  0.3445
  389MOL0     C52408   9.147   2.501   8.886  0.3550 -0.5637 -0.4370
  389MOL0     C52409   9.267   2.469   8.965 -0.5912  0.3077  0.4188
  389MOL0     O52410   9.263   2.428   9.095 -0.2529 -0.7353  0.6199
  389MOL0     C52411   9.386   2.398   9.163  0.0409  0.0049 -0.3151
  389MOL0     C52412   9.391   2.452   9.295 -0.4063  0.1226 -0.1529
  389MOL0     C52413   9.500   2.421   9.377 -0.1844  0.2983  0.4447
  389MOL0     C52414   9.606   2.339   9.334 -0.3043 -0.3662  0.5254
  389MOL0     O52415   9.706   2.315   9.422  0.3146  0.1231 -0.3141
  389MOL0     C52416   9.831   2.298   9.380  0.7947  1.7055 -0.1591
  389MOL0     C52417   9.916   2.252   9.500 -0.3818 -0.3207  0.1222
  389MOL0     C52418   9.899   2.346   9.618  0.2040  0.0218 -0.8437
  389MOL0     C52419  10.028   2.347   9.704  1.0372  0.8586  0.5264
  389MOL0     C52420  10.005   2.429   9.829 -0.3718 -0.4688  0.4479
  389MOL0     C52421  10.112   2.426   9.941  0.5303 -0.1710 -0.4488
  389MOL0     C52422  10.257   2.438   9.902  0.4914 -0.2222  0.5414
  389MOL0     C52423  10.345   2.393  10.016 -0.1062 -0.4482  0.0537
  389MOL0    Cl52424  10.318   2.515  10.144 -0.0727  0.0174 -0.2815
  389MOL0     C52425   9.608   2.305   9.193 -0.0343  0.1006 -0.5442
  389MOL0     C52426   9.494   2.318   9.120  0.3982 -0.2832  0.8187
  389MOL0     O52427   9.371   2.489   8.903 -0.5488  0.4184  0.3503
  389MOL0     C52428   9.018   2.491   8.950  0.1649 -0.1452 -0.3562
  389MOL0     C52429   8.897   2.494   8.885 -0.1471  0.0798 -0.5718
  389MOL0     N52430   8.192   2.234   8.570 -0.0103  0.3352  0.2038
  389MOL0     N52431   8.066   2.207   8.556  0.1700  1.4071 -0.6070
  389MOL0     C52432   7.331   1.734   8.427 -0.3487  0.6709 -0.2361
  389MOL0     C52433   7.241   1.823   8.482  0.0271  0.0967  0.3043
  389MOL0     C52434   7.031   2.099   8.801  0.2167  0.4293  0.7371
  389MOL0     C52435   7.110   2.215   8.834  0.6379  0.7716  0.4119
  389MOL0     C52436   7.043   2.333   8.861 -0.2838 -0.2389 -0.3846
  389MOL0     C52437   6.908   2.345   8.820 -0.8125 -0.1165 -0.2160
  389MOL0     O52438   6.861   2.477   8.815  0.3659  0.2837  0.2727
  389MOL0     C52439   6.730   2.484   8.758 -0.1050 -0.4128  0.2398
  389MOL0     C52440   6.696   2.634   8.732 -1.0281  1.0567  0.1393
  389MOL0     C52441   6.561   2.655   8.667 -0.5881  0.5407 -0.2485
  389MOL0     C52442   6.525   2.807   8.690 -0.0438  0.6603 -0.7588
  389MOL0     C52443   6.400   2.837   8.623  0.0063 -0.4555  0.5244
  389MOL0     C52444   6.290   2.856   8.572 -0.2740 -0.9109  0.5051
  389MOL0     C52445   6.831   2.227   8.788  0.9359 -0.7374 -0.4156
  389MOL0     C52446   6.891   2.109   8.787  0.8062  0.9226  0.3154
  389MOL0     C52447   6.800   1.986   8.764 -0.2967 -0.1985 -0.5741
  389MOL0     H52448   7.239   1.722   8.803  1.0232  1.2556  0.4995
  389MOL0     H52449   7.395   1.570   8.718  1.1290  1.6074 -0.5870
  389MOL0     H52450   7.528   1.419   8.315 -1.1657  0.8450 -2.6617
  389MOL0     H52451   7.441   1.551   8.266  0.8480  0.2126 -0.6335
  389MOL0     H52452   7.709   1.547   8.228 -1.5778  1.4144 -0.7956
  389MOL0     H52453   7.715   1.570   8.408  0.6438  1.7020 -0.1339
  389MOL0     H52454   7.587   1.784   8.369  0.8421 -1.6297  0.9003
  389MOL0     H52455   7.593   1.744   8.191  0.0963 -0.3335 -0.3451
  389MOL0     H52456   7.825   1.800   8.384  1.2556 -3.2745 -0.7925
  389MOL0     H52457   7.835   1.754   8.208  1.6331  0.4712  1.0963
  389MOL0     H52458   7.818   1.967   8.150  4.3694 -2.4131  2.5681
  389MOL0     H52459   7.654   1.982   8.226  0.1836  1.3880  0.8661
  389MOL0     H52460   7.784   2.026   8.445  1.0418  0.9138  0.8430
  389MOL0     H52461   7.936   2.016   8.349  0.2614  0.9364  1.5014
  389MOL0     H52462   7.704   2.206   8.299  0.0719 -0.9135  0.6176
  389MOL0     H52463   7.862   2.204   8.217  2.2708 -0.5791  0.6196
  389MOL0     H52464   7.843   2.385   8.393 -2.0858  0.7256  2.3314
  389MOL0     H52465   7.797   2.276   8.515 -2.0653  1.1478 -1.4055
  389MOL0     H52466   8.098   2.417   8.310  2.0610 -0.6634 -1.1575
  389MOL0     H52467   8.415   2.362   8.395 -0.7162 -1.9454  0.0080
  389MOL0     H52468   8.328   2.514   8.445 -0.0958  0.4655  3.5977
  389MOL0     H52469   8.383   2.459   8.687  1.4565  0.5461  1.3462
  389MOL0     H52470   8.462   2.315   8.622 -2.2526  0.2418  0.7767
  389MOL0     H52471   8.535   2.609   8.598  2.2812  0.4768  2.0640
  389MOL0     H52472   8.619   2.493   8.499  1.1584  2.3912  0.1715
  389MOL0     H52473   8.666   2.377   8.733  0.3247  0.8435  0.2430
  389MOL0     H52474   8.615   2.543   8.796 -0.3135 -0.9384  1.3171
  389MOL0     H52475   9.014   2.575   8.576 -1.0719  1.5085 -0.8544
  389MOL0     H52476   9.240   2.552   8.705 -0.0152 -1.4841  0.0313
  389MOL0     H52477   9.298   2.502   9.320 -0.3069  0.5586 -0.6360
  389MOL0     H52478   9.490   2.472   9.472  0.4605 -0.3939  0.9005
  389MOL0     H52479   9.849   2.227   9.298  2.9082  2.6180 -0.5564
  389MOL0     H52480   9.874   2.393   9.346  2.8416  1.1613  0.7448
  389MOL0     H52481   9.871   2.158   9.532 -4.0333  1.2485  0.1626
  389MOL0     H52482  10.022   2.253   9.472 -0.3406  1.0238  0.2710
  389MOL0     H52483   9.879   2.451   9.596  5.4075  1.5239  0.1611
  389MOL0     H52484   9.819   2.305   9.680  0.1408  1.9995  0.4429
  389MOL0     H52485  10.102   2.389   9.634  0.3868  0.5910 -0.3466
  389MOL0     H52486  10.058   2.246   9.731  0.6318  1.1115  1.9862
  389MOL0     H52487   9.912   2.399   9.877 -0.5853  0.3339  0.5572
  389MOL0     H52488   9.989   2.536   9.808  1.1986  0.7839  4.5960
  389MOL0     H52489  10.084   2.507  10.009 -0.9632 -0.2382 -0.9317
  389MOL0     H52490  10.106   2.333   9.999  1.2065 -0.5020 -0.8971
  389MOL0     H52491  10.274   2.544   9.880 -2.4580  0.2239 -0.0041
  389MOL0     H52492  10.289   2.387   9.811  2.8820  1.2004  0.4906
  389MOL0     H52493  10.318   2.290  10.041 -0.4326 -0.2418  0.5613
  389MOL0     H52494  10.447   2.388   9.976  1.0443 -1.1855  2.8531
  389MOL0     H52495   9.700   2.269   9.150  1.2480  2.0845  0.4013
  389MOL0     H52496   9.473   2.279   9.020 -2.6295 -4.1950  2.6880
  389MOL0     H52497   9.006   2.459   9.053  2.3233  0.6444  0.1751
  389MOL0     H52498   8.805   2.467   8.935 -0.4209 -1.5382 -1.8650
  389MOL0     H52499   7.355   1.721   8.322 -3.4757 -1.0896 -0.8574
  389MOL0     H52500   7.192   1.894   8.416 -3.0440  0.3574  2.6418
  389MOL0     H52501   7.217   2.202   8.843  0.6348  0.7532  0.4194
  389MOL0     H52502   7.102   2.419   8.891  0.8629 -1.0324 -0.2778
  389MOL0     H52503   6.654   2.438   8.822 -3.8478  1.7153 -2.3019
  389MOL0     H52504   6.719   2.438   8.659 -2.2558  2.8853 -1.2245
  389MOL0     H52505   6.769   2.688   8.672 -0.8476  0.4857 -0.1605
  389MOL0     H52506   6.703   2.681   8.831  2.4094  0.2946  0.3865
  389MOL0     H52507   6.492   2.586   8.718  1.5043 -0.6803  1.0848
  389MOL0     H52508   6.555   2.634   8.560 -0.6711  2.4602 -0.6427
  389MOL0     H52509   6.525   2.843   8.793 -0.8788  0.6475 -0.7461
  389MOL0     H52510   6.607   2.864   8.647 -1.1749  3.1829  0.2274
  389MOL0     H52511   6.195   2.879   8.528  0.6875  2.3982 -0.1129
  389MOL0     H52512   6.725   2.247   8.775  0.8087  1.4587  2.7995
  389MOL0     H52513   6.860   1.916   8.704  1.9885 -0.4284  1.8029
  389MOL0     H52514   6.788   1.921   8.851  1.6330  0.2234  0.0468
  389MOL0     H52515   6.700   2.019   8.733  0.9161  2.9296 -1.5336
  390MOL0     O52516   6.553   4.885   4.315  0.6565  0.4542 -0.2246
  390MOL0     C52517   6.560   4.986   4.383 -0.3492  0.5354 -0.0517
  390MOL0     O52518   6.677   5.033   4.436 -0.5621 -0.2019  0.0740
  390MOL0     C52519   6.798   4.981   4.400 -0.1231  0.5265  0.7350
  390MOL0     C52520   6.837   4.845   4.398 -0.2827  0.4938 -0.8992
  390MOL0     C52521   6.965   4.802   4.345  0.3243 -0.1561 -0.8416
  390MOL0     C52522   7.057   4.895   4.305 -0.1404  0.0822  0.2052
  390MOL0     O52523   7.191   4.868   4.268  0.3824 -0.4340  0.0623
  390MOL0     C52524   7.229   4.744   4.217 -0.0741 -0.2465  0.2500
  390MOL0     C52525   7.385   4.741   4.206  0.2643 -0.4651  0.1601
  390MOL0     C52526   7.428   4.599   4.184 -0.4268 -0.0372  0.0616
  390MOL0     C52527   7.585   4.600   4.166  0.6188  0.1343  1.4120
  390MOL0     C52528   7.611   4.467   4.104 -0.5596  0.0704  0.7976
  390MOL0     C52529   7.754   4.429   4.110 -0.4451 -0.2941  0.4113
  390MOL0     C52530   7.791   4.323   3.997  0.5652 -0.0852 -0.1345
  390MOL0     C52531   7.938   4.293   4.019 -0.1842  0.4695  0.1479
  390MOL0     N52532   7.969   4.155   3.977 -0.5859 -0.4513 -0.2654
  390MOL0     C52533   7.919   4.088   3.872  0.2362  0.0768 -0.1691
  390MOL0     C52534   7.977   3.966   3.882  1.0939  0.0948  0.2195
  390MOL0     C52535   7.944   3.846   3.797  0.4250  0.9888  0.4525
  390MOL0     C52536   8.068   3.763   3.764 -0.8012  0.6292  0.7442
  390MOL0     C52537   8.031   3.645   3.671  0.1489  0.3383 -0.6927
  390MOL0     C52538   8.143   3.565   3.610 -0.7814 -0.2997  0.5319
  390MOL0     O52539   8.189   3.468   3.707  1.2767  0.3059  0.7111
  390MOL0     C52540   8.319   3.483   3.752  0.3879  0.1958  0.7351
  390MOL0     C52541   8.424   3.548   3.686  0.1199 -0.4121 -0.4479
  390MOL0     C52542   8.552   3.557   3.749 -0.1078  0.1767  0.3938
  390MOL0     C52543   8.570   3.497   3.875 -0.0471 -0.7698 -0.5244
  390MOL0     C52544   8.710   3.467   3.930  0.0424 -0.1321  0.0555
  390MOL0     O52545   8.715   3.388   4.041 -1.1626  0.5565  0.2320
  390MOL0     C52546   8.837   3.340   4.083 -0.9085  0.1089 -0.7988
  390MOL0     C52547   8.907   3.276   3.980  0.2714  1.1577 -0.4345
  390MOL0     C52548   9.036   3.240   4.013  0.0616 -0.4595  0.1262
  390MOL0     C52549   9.098   3.267   4.132  1.2594  0.4623  0.1970
  390MOL0     O52550   9.223   3.214   4.161 -0.1486  0.2418  0.3247
  390MOL0     C52551   9.323   3.303   4.214  0.4557 -0.6079 -0.1666
  390MOL0     C52552   9.468   3.252   4.172 -0.2899  0.6555 -0.2310
  390MOL0     C52553   9.572   3.328   4.270  0.1902 -0.6834 -0.0928
  390MOL0     C52554   9.726   3.316   4.244 -0.4811  0.5852 -0.3335
  390MOL0     C52555   9.807   3.380   4.362 -0.5759 -0.1850  0.1186
  390MOL0     C52556   9.949   3.334   4.369 -0.3885 -0.2735 -0.4271
  390MOL0     C52557  10.021   3.373   4.242 -0.0796 -0.0220 -0.6571
  390MOL0     C52558  10.179   3.366   4.263 -0.1514  0.1429  0.9553
  390MOL0    Cl52559  10.216   3.515   4.359  0.1408 -0.0495  0.0431
  390MOL0     C52560   9.028   3.337   4.228 -0.0762 -0.7461 -0.2367
  390MOL0     C52561   8.891   3.374   4.208 -1.2257  1.0308 -0.3950
  390MOL0     O52562   8.802   3.513   3.871 -0.3200 -1.3055  0.1240
  390MOL0     C52563   8.463   3.442   3.944  0.7124  1.0184  0.5589
  390MOL0     C52564   8.343   3.433   3.883  0.4918 -0.4198  0.3661
  390MOL0     N52565   8.073   3.973   3.989  0.3880  0.2457  0.8394
  390MOL0     N52566   8.063   4.085   4.050 -0.0192 -0.8154  0.4682
  390MOL0     C52567   7.025   5.034   4.308 -0.2989 -0.3906  0.0800
  390MOL0     C52568   6.896   5.073   4.355  0.5593  0.7020  0.1013
  390MOL0     C52569   6.437   5.073   4.392 -0.2032 -0.6833  0.0411
  390MOL0     C52570   6.453   5.211   4.417 -1.0795 -0.4922  0.0615
  390MOL0     C52571   6.345   5.295   4.412 -0.1718 -0.8425  0.1791
  390MOL0     C52572   6.218   5.242   4.392 -0.3749  0.2052 -0.0180
  390MOL0     O52573   6.108   5.313   4.390 -0.4766 -0.1557 -0.1204
  390MOL0     C52574   6.102   5.457   4.395  0.6397  0.5329 -0.8975
  390MOL0     C52575   6.000   5.498   4.495  0.1668  0.0484  0.3929
  390MOL0     C52576   5.862   5.451   4.442  0.6999  1.1528  0.9845
  390MOL0     C52577   5.814   5.521   4.314  0.1010 -0.4722  0.1721
  390MOL0     C52578   5.672   5.483   4.296 -0.1766  0.1756  0.0997
  390MOL0     C52579   5.573   5.424   4.263  0.5642 -0.3403 -0.2483
  390MOL0     C52580   6.203   5.113   4.358 -0.1842  0.8273 -0.1354
  390MOL0     C52581   6.305   5.024   4.373 -0.1613  0.1888  0.0097
  390MOL0     C52582   6.285   4.877   4.343 -0.5336  0.1675  0.2664
  390MOL0     H52583   6.762   4.774   4.432 -0.4863  1.2145  0.2352
  390MOL0     H52584   7.002   4.701   4.330 -0.6868 -0.2467 -3.2191
  390MOL0     H52585   7.200   4.673   4.295 -0.3329  0.3145  0.6794
  390MOL0     H52586   7.182   4.719   4.122 -1.4064  2.4472  0.1096
  390MOL0     H52587   7.417   4.779   4.304  1.8134 -2.8894  0.6940
  390MOL0     H52588   7.421   4.804   4.125  1.2250 -2.0620 -0.7168
  390MOL0     H52589   7.378   4.561   4.095  0.0997 -1.2555  0.2558
  390MOL0     H52590   7.399   4.529   4.263  2.1162  0.5205  1.6240
  390MOL0     H52591   7.615   4.686   4.105  1.1998  0.7872  2.5892
  390MOL0     H52592   7.643   4.598   4.259  2.2017  0.0041  0.4653
  390MOL0     H52593   7.546   4.390   4.146 -0.2966  0.5836  2.2037
  390MOL0     H52594   7.584   4.479   3.999  0.3359 -0.6380  0.4692
  390MOL0     H52595   7.818   4.514   4.083  0.5074 -1.5394 -1.4879
  390MOL0     H52596   7.784   4.391   4.208  3.0362  0.0570 -0.3805
  390MOL0     H52597   7.778   4.362   3.896 -1.9341  1.1268  0.5782
  390MOL0     H52598   7.724   4.236   4.001 -1.1156  1.1901  0.5120
  390MOL0     H52599   7.994   4.375   3.973  0.4521  0.5883  1.1046
  390MOL0     H52600   7.977   4.304   4.121 -1.2218 -0.0569  0.6226
  390MOL0     H52601   7.840   4.129   3.810  0.9631  0.0837 -1.1201
  390MOL0     H52602   7.872   3.790   3.857 -3.1145  3.3704 -1.1985
  390MOL0     H52603   7.890   3.881   3.708  1.1107 -0.0928 -0.4191
  390MOL0     H52604   8.145   3.821   3.711  1.5949 -2.1066  0.9947
  390MOL0     H52605   8.112   3.724   3.856  3.2077 -2.0990 -2.0132
  390MOL0     H52606   7.973   3.685   3.588  2.0803  2.0108 -1.3224
  390MOL0     H52607   7.977   3.568   3.728 -4.4555  0.9151 -3.8210
  390MOL0     H52608   8.215   3.638   3.573 -0.4428 -1.2718 -0.7988
  390MOL0     H52609   8.098   3.526   3.518  3.3761  1.5349 -2.5685
  390MOL0     H52610   8.419   3.607   3.595  0.2109 -0.8337 -0.7290
  390MOL0     H52611   8.640   3.591   3.696  0.0265 -0.2822  0.3121
  390MOL0     H52612   8.865   3.270   3.881  0.4084  2.7890 -0.6168
  390MOL0     H52613   9.087   3.190   3.931 -2.2113 -1.1736 -0.9417
  390MOL0     H52614   9.317   3.408   4.183  3.0536 -0.9546 -2.1640
  390MOL0     H52615   9.314   3.303   4.323 -1.3376 -0.4117 -0.2822
  390MOL0     H52616   9.474   3.146   4.199  2.2472  0.4086 -1.5070
  390MOL0     H52617   9.481   3.273   4.065  1.9651 -0.3206 -0.2032
  390MOL0     H52618   9.547   3.435   4.273 -1.0811 -0.9931  1.5594
  390MOL0     H52619   9.556   3.295   4.373  0.3219  0.0289  0.1644
  390MOL0     H52620   9.749   3.364   4.149  0.9080 -0.2510 -0.4501
  390MOL0     H52621   9.746   3.208   4.237 -0.0025  0.5797  0.8675
  390MOL0     H52622   9.769   3.346   4.459  0.6392 -0.9690  0.3356
  390MOL0     H52623   9.795   3.489   4.362  0.3795 -0.0718 -0.0988
  390MOL0     H52624  10.002   3.389   4.447  1.0406 -2.1622  0.0185
  390MOL0     H52625   9.957   3.227   4.392 -1.4552 -0.0809  0.9246
  390MOL0     H52626  10.003   3.477   4.215  4.0373  0.7728 -0.8919
  390MOL0     H52627   9.993   3.309   4.158 -0.9656 -1.9917  1.0364
  390MOL0     H52628  10.205   3.275   4.318 -0.6228 -2.5896 -2.9682
  390MOL0     H52629  10.237   3.360   4.170  0.0320 -1.9353  1.1638
  390MOL0     H52630   9.071   3.353   4.326 -0.6086  0.3686 -0.1749
  390MOL0     H52631   8.833   3.426   4.284 -1.7947 -2.4292  1.7946
  390MOL0     H52632   8.480   3.397   4.041 -1.7219 -4.1580 -1.0573
  390MOL0     H52633   8.255   3.392   3.932 -0.3180  2.3137  1.3515
  390MOL0     H52634   7.103   5.105   4.283 -1.5758  0.9153 -0.3258
  390MOL0     H52635   6.857   5.173   4.367 -2.2784 -0.2827 -0.1846
  390MOL0     H52636   6.557   5.240   4.419 -0.6275 -1.8764 -1.2524
  390MOL0     H52637   6.375   5.399   4.422  0.1056 -0.7272 -1.6719
  390MOL0     H52638   6.088   5.512   4.302  2.1672  1.5311 -0.5724
  390MOL0     H52639   6.201   5.490   4.427 -0.1853  1.5422  0.7432
  390MOL0     H52640   6.005   5.607   4.498  0.3103  0.1027 -0.9737
  390MOL0     H52641   6.003   5.468   4.600 -5.6938  1.9287  1.4805
  390MOL0     H52642   5.791   5.464   4.523  0.9001  0.5127  1.2721
  390MOL0     H52643   5.869   5.344   4.419  2.2677  0.9243  2.3249
  390MOL0     H52644   5.834   5.629   4.316  1.5621 -0.6034 -2.7771
  390MOL0     H52645   5.865   5.479   4.227  0.3357 -0.0878  0.1167
  390MOL0     H52646   5.489   5.369   4.224  0.5806  1.0029 -2.3019
  390MOL0     H52647   6.107   5.066   4.345 -1.5074  2.3949  2.9246
  390MOL0     H52648   6.343   4.817   4.413  0.7900  2.0707  0.8768
  390MOL0     H52649   6.181   4.845   4.357 -0.7692  0.5928 -0.4601
  390MOL0     H52650   6.319   4.868   4.240 -0.6879  0.6129  0.1728
  391MOL0     O52651   1.641   6.389   1.935  0.0175 -0.2175 -0.3793
  391MOL0     C52652   1.573   6.490   1.903 -0.5736  0.2883  0.2546
  391MOL0     O52653   1.485   6.555   1.974  0.5394  0.1548  0.1550
  391MOL0     C52654   1.469   6.512   2.103 -0.1178  0.1153  0.5258
  391MOL0     C52655   1.406   6.393   2.143 -0.9800  1.2094  0.3353
  391MOL0     C52656   1.388   6.356   2.277 -0.3758  0.0770  0.1203
  391MOL0     C52657   1.435   6.447   2.377  0.4980 -0.3791  0.1165
  391MOL0     O52658   1.424   6.408   2.514 -0.4256  0.0278  0.4979
  391MOL0     C52659   1.324   6.493   2.570  0.0824  0.2512 -1.0493
  391MOL0     C52660   1.224   6.423   2.653  0.1940  0.7610  1.2638
  391MOL0     C52661   1.112   6.348   2.571 -0.3641  0.4365 -0.3999
  391MOL0     C52662   1.023   6.261   2.662  1.2674 -0.0095  0.4526
  391MOL0     C52663   0.965   6.337   2.780  0.4697  0.2605 -0.0723
  391MOL0     C52664   0.850   6.255   2.850  1.0171  0.1914 -0.4277
  391MOL0     C52665   0.764   6.342   2.937 -0.2298  0.7556 -0.9145
  391MOL0     C52666   0.699   6.265   3.043  0.1943  0.3582 -0.1485
  391MOL0     N52667   0.619   6.353   3.133 -0.2350 -0.2211 -0.5063
  391MOL0     C52668   0.669   6.464   3.197  0.1852  0.2559  1.3983
  391MOL0     C52669   0.567   6.539   3.232 -0.2615 -1.3672 -1.0946
  391MOL0     C52670   0.578   6.685   3.269 -0.1901 -0.6727 -0.0661
  391MOL0     C52671   0.555   6.777   3.145  0.1491 -0.4453 -0.0110
  391MOL0     C52672   0.613   6.739   3.009  0.3539 -1.2929 -1.0054
  391MOL0     C52673   0.762   6.745   2.998  0.0803  0.2488  0.2231
  391MOL0     O52674   0.814   6.737   2.860 -0.8556  0.3701  0.2240
  391MOL0     C52675   0.953   6.750   2.850 -0.5008 -0.4394  0.6151
  391MOL0     C52676   0.999   6.752   2.719  0.2919 -0.5668 -0.2842
  391MOL0     C52677   1.135   6.787   2.692  0.4387  0.2353  0.5171
  391MOL0     C52678   1.227   6.808   2.802  0.1294 -0.2979  0.5279
  391MOL0     C52679   1.361   6.854   2.785 -0.8409  0.0510 -0.8069
  391MOL0     O52680   1.401   6.862   2.657 -0.4551 -0.8898 -0.1167
  391MOL0     C52681   1.530   6.894   2.605  0.5742 -0.3183  0.6904
  391MOL0     C52682   1.544   6.913   2.470  0.2360 -0.1391  0.8703
  391MOL0     C52683   1.666   6.944   2.413 -0.2982  0.4104 -0.0330
  391MOL0     C52684   1.789   6.947   2.499 -0.1589  0.1917 -0.1591
  391MOL0     O52685   1.918   6.955   2.455 -0.1473 -0.0406  0.0556
  391MOL0     C52686   1.958   6.871   2.345 -0.3757  0.7160 -0.8304
  391MOL0     C52687   2.093   6.932   2.302  0.0001 -0.4101  0.3340
  391MOL0     C52688   2.215   6.919   2.383  0.3328 -0.4012 -0.4241
  391MOL0     C52689   2.340   6.993   2.330  0.7043  0.6820  0.2755
  391MOL0     C52690   2.467   6.933   2.376 -0.9455  0.0356 -1.1688
  391MOL0     C52691   2.490   6.904   2.532 -0.6008 -0.0254 -0.6956
  391MOL0     C52692   2.603   6.796   2.536  0.0772  0.0936  0.0543
  391MOL0     C52693   2.733   6.859   2.478 -0.5511 -0.3294 -0.8572
  391MOL0    Cl52694   2.787   6.995   2.582 -0.1124 -0.0842 -0.0446
  391MOL0     C52695   1.774   6.924   2.630  1.3025 -1.3113  0.8290
  391MOL0     C52696   1.651   6.901   2.678  0.6712 -0.5307 -0.3859
  391MOL0     O52697   1.430   6.869   2.889 -0.2569 -0.4322 -0.0508
  391MOL0     C52698   1.175   6.803   2.934  0.0432  0.0853 -0.8757
  391MOL0     C52699   1.039   6.775   2.953 -0.0601 -0.3220  0.1247
  391MOL0     N52700   0.447   6.470   3.203  0.1453  0.0936  0.0527
  391MOL0     N52701   0.480   6.359   3.149 -0.6133  0.5267  0.0198
  391MOL0     C52702   1.496   6.571   2.336 -0.0790 -0.2376 -0.5251
  391MOL0     C52703   1.517   6.594   2.199  0.2394  0.4004  0.0186
  391MOL0     C52704   1.603   6.554   1.768 -0.6048  0.6782 -0.7037
  391MOL0     C52705   1.528   6.661   1.729  1.2878  0.3710  0.7224
  391MOL0     C52706   1.569   6.746   1.625  0.2772  0.2877  0.3535
  391MOL0     C52707   1.685   6.718   1.548 -0.6697  0.6976 -0.7244
  391MOL0     O52708   1.725   6.814   1.458 -0.1939 -0.4823  0.0913
  391MOL0     C52709   1.847   6.804   1.384  0.0836 -0.7316  0.2258
  391MOL0     C52710   1.843   6.916   1.278 -0.3766  0.3348 -0.0926
  391MOL0     C52711   1.842   7.064   1.338 -0.5592  0.5693  0.1858
  391MOL0     C52712   1.700   7.121   1.354 -0.1259  0.1708  1.0852
  391MOL0     C52713   1.706   7.248   1.427  0.6453 -0.4575 -0.6156
  391MOL0     C52714   1.720   7.357   1.465 -0.4643 -0.4636 -0.0268
  391MOL0     C52715   1.754   6.596   1.581  0.1272 -0.1804 -0.9848
  391MOL0     C52716   1.717   6.525   1.696  0.1819  0.1679 -0.1612
  391MOL0     C52717   1.813   6.406   1.722 -0.8987 -0.0734  0.5629
  391MOL0     H52718   1.376   6.332   2.059  2.8937 -2.1769  1.0556
  391MOL0     H52719   1.344   6.257   2.282  1.4803 -0.7280  2.7627
  391MOL0     H52720   1.368   6.569   2.635 -1.3260  0.6492 -0.5223
  391MOL0     H52721   1.277   6.550   2.490 -0.3200 -2.0781 -2.5693
  391MOL0     H52722   1.191   6.499   2.725  0.1582  3.3888 -1.3121
  391MOL0     H52723   1.282   6.347   2.707 -1.5944 -1.7878 -0.2084
  391MOL0     H52724   1.155   6.277   2.500  0.5284 -0.3383  0.8682
  391MOL0     H52725   1.049   6.425   2.526 -0.3828  2.1534  2.2879
  391MOL0     H52726   0.939   6.221   2.604  1.2607 -2.4911  2.0603
  391MOL0     H52727   1.074   6.171   2.697 -0.9122 -1.9063 -0.9184
  391MOL0     H52728   1.042   6.352   2.856  1.3763 -2.0090 -0.4680
  391MOL0     H52729   0.914   6.422   2.733  0.2624 -0.1682 -0.6358
  391MOL0     H52730   0.779   6.215   2.777 -0.3525 -0.2676  1.0894
  391MOL0     H52731   0.886   6.172   2.912 -1.3864 -0.5163  0.1130
  391MOL0     H52732   0.686   6.391   2.878 -0.9253  1.1657  0.2934
  391MOL0     H52733   0.828   6.415   2.987 -1.3381 -0.3773  2.4481
  391MOL0     H52734   0.627   6.200   2.991 -0.6322  2.4682 -1.8127
  391MOL0     H52735   0.781   6.211   3.091 -0.9587 -2.1149 -0.7930
  391MOL0     H52736   0.773   6.488   3.217  0.0628  1.1383  1.0144
  391MOL0     H52737   0.505   6.717   3.343  0.6126  0.1650  0.3793
  391MOL0     H52738   0.669   6.717   3.321 -0.3959 -1.7126  0.9747
  391MOL0     H52739   0.447   6.779   3.133  0.1140 -1.9688 -0.1893
  391MOL0     H52740   0.590   6.880   3.158 -1.0912 -0.0006 -0.1317
  391MOL0     H52741   0.566   6.809   2.940  1.2239 -0.1478 -0.4621
  391MOL0     H52742   0.580   6.637   2.987 -2.5398 -0.6288 -0.2723
  391MOL0     H52743   0.808   6.686   3.078  3.5539 -0.9754 -2.4193
  391MOL0     H52744   0.781   6.851   3.018  1.5378  0.1143 -0.2856
  391MOL0     H52745   0.922   6.731   2.644 -0.0233 -1.3388  0.2475
  391MOL0     H52746   1.154   6.784   2.585  0.3062 -2.7238  0.4693
  391MOL0     H52747   1.455   6.918   2.408  0.3279 -0.5330  0.7019
  391MOL0     H52748   1.691   6.968   2.310  1.4780 -0.7300  0.0836
  391MOL0     H52749   1.973   6.768   2.379 -1.8674  1.0214  0.8904
  391MOL0     H52750   1.888   6.862   2.262  0.5847 -0.3136 -1.5712
  391MOL0     H52751   2.123   6.900   2.202  1.4827  4.4707 -1.0523
  391MOL0     H52752   2.073   7.038   2.284 -2.2856 -0.4369  2.2496
  391MOL0     H52753   2.185   6.954   2.482  1.1173 -2.4791  0.6136
  391MOL0     H52754   2.239   6.812   2.389 -0.2332 -0.5855 -1.2476
  391MOL0     H52755   2.336   7.101   2.349 -2.0668  1.0002 -1.4760
  391MOL0     H52756   2.332   6.977   2.222 -1.0528 -1.3312  0.6412
  391MOL0     H52757   2.539   6.997   2.325  0.3237 -0.6797 -0.3254
  391MOL0     H52758   2.470   6.843   2.314 -0.8969 -0.0190 -1.0864
  391MOL0     H52759   2.520   6.992   2.589 -0.3345 -0.5756  0.0332
  391MOL0     H52760   2.406   6.859   2.585 -1.3157  1.0007 -0.9354
  391MOL0     H52761   2.582   6.704   2.481 -2.5351  2.1022 -2.6106
  391MOL0     H52762   2.624   6.775   2.642 -0.4766  0.2120  0.1894
  391MOL0     H52763   2.815   6.788   2.461  1.3659  1.1714  1.4743
  391MOL0     H52764   2.719   6.897   2.376 -2.8042  0.7130 -0.2224
  391MOL0     H52765   1.864   6.923   2.690  1.7143 -1.6647  0.2225
  391MOL0     H52766   1.639   6.898   2.786  4.2705  1.1482  0.2098
  391MOL0     H52767   1.238   6.832   3.017  0.0251  0.5695 -1.0267
  391MOL0     H52768   1.018   6.769   3.059  2.4318 -0.1567  0.6737
  391MOL0     H52769   1.518   6.647   2.410  0.7671  1.8741 -2.7848
  391MOL0     H52770   1.543   6.691   2.157 -2.7448  1.3884  0.2166
  391MOL0     H52771   1.442   6.698   1.784  1.6382  1.1764  0.7573
  391MOL0     H52772   1.525   6.845   1.629  0.5436  0.4050  3.9521
  391MOL0     H52773   1.861   6.706   1.338 -0.8783  0.2628 -2.3816
  391MOL0     H52774   1.933   6.824   1.448 -2.4599 -1.5410  4.2169
  391MOL0     H52775   1.746   6.898   1.229  0.1604 -0.0647 -1.0302
  391MOL0     H52776   1.920   6.891   1.204 -1.4474 -2.1332 -0.4477
  391MOL0     H52777   1.896   7.122   1.263 -0.2082  0.0321  0.0122
  391MOL0     H52778   1.907   7.057   1.426  0.5934 -4.2072 -0.7440
  391MOL0     H52779   1.646   7.121   1.258 -1.7573  0.2625  1.9578
  391MOL0     H52780   1.641   7.051   1.414  1.1762 -0.4903  1.6138
  391MOL0     H52781   1.740   7.460   1.483  1.8099 -1.0187  1.0264
  391MOL0     H52782   1.839   6.573   1.518  2.4529  1.0770  1.4913
  391MOL0     H52783   1.841   6.397   1.827 -2.0617  0.3990  0.9296
  391MOL0     H52784   1.771   6.314   1.680  0.6133 -0.4555 -0.1604
  391MOL0     H52785   1.907   6.412   1.666 -0.9647  0.8488  0.5259
  392MOL0     O52786   3.767  10.347   0.859  0.7287  0.3229  0.0389
  392MOL0     C52787   3.766  10.355   0.739 -0.1962  0.0693  0.3087
  392MOL0     O52788   3.878  10.370   0.663 -0.9042  0.1513  0.0455
  392MOL0     C52789   3.961  10.463   0.707  0.5913  0.0830  0.2161
  392MOL0     C52790   3.933  10.596   0.670  0.3239  0.0481  0.5587
  392MOL0     C52791   4.022  10.685   0.728 -0.9476  0.1548 -0.3122
  392MOL0     C52792   4.132  10.645   0.804  0.5710  0.1640 -0.7545
  392MOL0     O52793   4.218  10.749   0.845 -0.3363 -0.8895  0.5368
  392MOL0     C52794   4.316  10.725   0.939  0.7876  0.2512 -0.3851
  392MOL0     C52795   4.422  10.836   0.942 -0.3781 -0.0003  0.3944
  392MOL0     C52796   4.496  10.845   0.806 -0.6175  0.0939  0.0666
  392MOL0     C52797   4.602  10.950   0.803  0.0286  0.3902  0.0204
  392MOL0     C52798   4.729  10.887   0.745 -0.0344  0.0415  0.4641
  392MOL0     C52799   4.718  10.870   0.596 -0.2547  0.3215  0.4606
  392MOL0     C52800   4.859  10.841   0.542 -0.2777  0.0992  0.1807
  392MOL0     C52801   4.855  10.841   0.390 -0.1321  0.0232  0.4314
  392MOL0     N52802   4.976  10.765   0.342  0.4438  0.7523 -0.0513
  392MOL0     C52803   4.978  10.626   0.306 -0.7276 -0.2448 -0.5307
  392MOL0     C52804   5.113  10.609   0.303  0.0046  0.3892 -0.4271
  392MOL0     C52805   5.181  10.478   0.291 -0.6779  0.7267 -0.5568
  392MOL0     C52806   5.280  10.488   0.179 -0.1107  0.6338 -0.8899
  392MOL0     C52807   5.326  10.354   0.135 -0.8338  0.2914 -0.0763
  392MOL0     C52808   5.419  10.286   0.234 -0.3290 -0.2925  0.6334
  392MOL0     O52809   5.446  10.147   0.222  0.0341  0.0415  0.2633
  392MOL0     C52810   5.493  10.058   0.313  0.1856 -0.5359 -0.2351
  392MOL0     C52811   5.516  10.100   0.445 -0.3603  0.4324  0.3758
  392MOL0     C52812   5.567  10.007   0.539 -0.2719  0.7332 -0.0469
  392MOL0     C52813   5.608   9.872   0.492 -0.3248 -0.3758 -1.0479
  392MOL0     C52814   5.669   9.770   0.578 -0.4774  0.4945  0.2213
  392MOL0     O52815   5.721   9.813   0.694 -0.0211 -0.8513  0.1734
  392MOL0     C52816   5.811   9.733   0.760 -0.6346 -0.1919 -0.2127
  392MOL0     C52817   5.918   9.667   0.702  0.1704  0.2411  0.0408
  392MOL0     C52818   6.010   9.602   0.780  0.1053 -0.4166  0.4939
  392MOL0     C52819   5.990   9.588   0.913  0.6596 -0.0417  0.3874
  392MOL0     O52820   6.076   9.521   0.996  0.3902 -1.0133 -0.7817
  392MOL0     C52821   6.154   9.413   0.943  1.0304 -0.4364  1.2667
  392MOL0     C52822   6.245   9.333   1.047  1.7373  0.0935  0.0416
  392MOL0     C52823   6.152   9.287   1.158  0.7435  0.3710  0.0795
  392MOL0     C52824   6.043   9.174   1.122 -0.7284  0.5640 -0.4793
  392MOL0     C52825   5.962   9.111   1.242  0.1968  0.0242 -0.5277
  392MOL0     C52826   5.882   9.215   1.327 -0.0704  0.2231 -0.2001
  392MOL0     C52827   5.784   9.148   1.423  0.3474  0.2862 -0.3843
  392MOL0     C52828   5.649   9.118   1.355  0.3363 -0.1254 -0.2166
  392MOL0    Cl52829   5.525   9.088   1.471  0.1668  0.2829  0.5590
  392MOL0     C52830   5.876   9.655   0.974 -1.3776  0.1553  0.0440
  392MOL0     C52831   5.797   9.736   0.891 -0.0800  0.5325 -0.1471
  392MOL0     O52832   5.687   9.657   0.530  0.0502  0.0153 -0.2376
  392MOL0     C52833   5.588   9.832   0.359  0.0664  0.1314 -0.5434
  392MOL0     C52834   5.523   9.924   0.266 -0.3713  0.8636 -0.3176
  392MOL0     N52835   5.181  10.729   0.321  0.1756  0.1266  0.1288
  392MOL0     N52836   5.098  10.821   0.330  1.0148 -0.0417  0.1513
  392MOL0     C52837   4.157  10.510   0.832  0.0928 -0.9313  0.9274
  392MOL0     C52838   4.070  10.418   0.778 -0.1202 -0.8611  0.3520
  392MOL0     C52839   3.643  10.312   0.674  0.0039 -0.1439  1.5075
  392MOL0     C52840   3.655  10.276   0.537  0.3187  0.5493  0.0523
  392MOL0     C52841   3.543  10.225   0.463 -0.3299 -0.2330  0.1702
  392MOL0     C52842   3.416  10.215   0.519 -0.2514 -0.5508  0.0722
  392MOL0     O52843   3.298  10.173   0.457 -0.0586  0.2510 -0.5831
  392MOL0     C52844   3.290  10.209   0.318 -0.5609  0.1941 -0.3531
  392MOL0     C52845   3.146  10.188   0.271  0.4306 -0.3916  0.2691
  392MOL0     C52846   3.131  10.200   0.113  0.1974 -0.6370 -0.7869
  392MOL0     C52847   2.979  10.179   0.075  0.7409  0.3940 -0.1676
  392MOL0     C52848   2.987  10.147  -0.065 -0.0818 -0.0964  0.2935
  392MOL0     C52849   2.978  10.127  -0.189 -0.0707  0.4978 -0.1905
  392MOL0     C52850   3.407  10.248   0.656  0.6020  0.3814 -0.2358
  392MOL0     C52851   3.513  10.287   0.730 -0.5171  0.5129 -0.1317
  392MOL0     C52852   3.480  10.317   0.877 -0.7498  0.4434  0.4401
  392MOL0     H52853   3.845  10.623   0.614  1.0035  5.3421  1.5679
  392MOL0     H52854   4.029  10.792   0.708  0.0368  0.8975  3.2038
  392MOL0     H52855   4.271  10.735   1.038  1.6982 -1.3214  0.2185
  392MOL0     H52856   4.368  10.629   0.940  0.5443  0.1213  0.2577
  392MOL0     H52857   4.490  10.813   1.024  0.3889  2.4593  0.5244
  392MOL0     H52858   4.371  10.932   0.955  1.0881  1.0459 -1.1722
  392MOL0     H52859   4.423  10.855   0.725  1.5509 -1.3154 -2.2180
  392MOL0     H52860   4.525  10.744   0.777 -5.6916 -2.3243  2.0560
  392MOL0     H52861   4.567  11.029   0.736  2.1309 -0.0347 -1.6934
  392MOL0     H52862   4.623  10.986   0.904 -2.9210 -1.0708  1.2764
  392MOL0     H52863   4.819  10.946   0.769  0.6120 -1.1638  1.1305
  392MOL0     H52864   4.748  10.787   0.785 -1.9064 -2.1231 -3.5150
  392MOL0     H52865   4.657  10.781   0.575  0.8398 -0.4918  0.6460
  392MOL0     H52866   4.676  10.950   0.535 -0.7237 -0.8101 -0.7488
  392MOL0     H52867   4.900  10.747   0.580 -1.9094 -0.2558  1.1645
  392MOL0     H52868   4.929  10.920   0.571  1.4996  0.0554 -3.4336
  392MOL0     H52869   4.763  10.804   0.344  0.8595  0.9292 -2.4706
  392MOL0     H52870   4.860  10.942   0.348  1.3532 -0.4724 -0.6363
  392MOL0     H52871   4.888  10.569   0.287 -0.7643  0.3743 -2.4290
  392MOL0     H52872   5.240  10.449   0.379  2.7283 -2.2683 -3.4871
  392MOL0     H52873   5.108  10.398   0.276 -0.7223  0.4695  0.8687
  392MOL0     H52874   5.221  10.530   0.097  1.4878  2.9075 -0.9655
  392MOL0     H52875   5.362  10.553   0.208 -0.2190 -0.9452  3.6710
  392MOL0     H52876   5.383  10.363   0.043  0.3129 -1.4374  0.4236
  392MOL0     H52877   5.250  10.280   0.107  1.5756 -2.0250 -0.9096
  392MOL0     H52878   5.368  10.300   0.330 -0.4455  0.2679  0.4922
  392MOL0     H52879   5.514  10.341   0.227 -0.5738  0.2395  1.4022
  392MOL0     H52880   5.495  10.197   0.489  2.9044  0.9171  1.1289
  392MOL0     H52881   5.575  10.020   0.647 -2.5985  0.9821  0.1529
  392MOL0     H52882   5.941   9.665   0.596  1.4410 -0.2959  0.3076
  392MOL0     H52883   6.095   9.564   0.725 -0.0937  1.1577 -0.9786
  392MOL0     H52884   6.075   9.353   0.898 -0.5907 -0.2675  3.6815
  392MOL0     H52885   6.226   9.450   0.870 -0.8236 -0.2205 -0.5701
  392MOL0     H52886   6.290   9.250   0.991  0.6314 -0.4959  0.0176
  392MOL0     H52887   6.318   9.395   1.101 -0.4537  1.2316  1.8355
  392MOL0     H52888   6.218   9.231   1.225  0.5026  2.5154  2.2514
  392MOL0     H52889   6.108   9.371   1.213 -2.2985 -1.0619  0.0452
  392MOL0     H52890   6.101   9.099   1.068 -2.2532 -1.4584  0.5440
  392MOL0     H52891   5.965   9.221   1.062 -1.2906  0.9318  0.5013
  392MOL0     H52892   6.024   9.041   1.298 -0.6960  0.4290  1.0297
  392MOL0     H52893   5.891   9.042   1.196 -1.3144  0.5839  0.9035
  392MOL0     H52894   5.957   9.266   1.388  0.4984 -2.9411  1.9394
  392MOL0     H52895   5.842   9.288   1.255  1.7539  2.0117  0.5143
  392MOL0     H52896   5.764   9.207   1.513  0.5247 -1.5828  0.9352
  392MOL0     H52897   5.843   9.061   1.454 -1.3184 -1.3980 -1.6816
  392MOL0     H52898   5.614   9.214   1.316  2.0494  1.3107  1.5883
  392MOL0     H52899   5.663   9.045   1.275 -1.0007 -0.4110 -0.2169
  392MOL0     H52900   5.859   9.646   1.081 -1.9547  2.7915  0.2559
  392MOL0     H52901   5.715   9.793   0.933  0.2430 -0.0636  1.3647
  392MOL0     H52902   5.620   9.739   0.313  0.3252  0.1357 -0.3723
  392MOL0     H52903   5.514   9.892   0.163 -2.6208 -1.7020  0.5380
  392MOL0     H52904   4.239  10.476   0.894 -1.1660 -2.5114  1.8155
  392MOL0     H52905   4.090  10.311   0.777  0.8075 -0.7285  2.0066
  392MOL0     H52906   3.746  10.285   0.478  0.0579  0.5701 -0.3462
  392MOL0     H52907   3.541  10.196   0.359  0.7748 -0.7327  0.2781
  392MOL0     H52908   3.360  10.145   0.263 -0.0677  1.6300 -1.4479
  392MOL0     H52909   3.325  10.312   0.309  0.3012 -0.0072  0.5471
  392MOL0     H52910   3.077  10.254   0.325 -0.8692 -2.1063  0.8136
  392MOL0     H52911   3.106  10.091   0.300 -5.0995  0.7313 -2.2508
  392MOL0     H52912   3.204  10.132   0.070  2.7264  1.0098  0.6833
  392MOL0     H52913   3.163  10.298   0.077  0.6663 -0.5066 -0.0407
  392MOL0     H52914   2.945  10.086   0.122 -2.4056  0.8126 -1.4152
  392MOL0     H52915   2.918  10.268   0.091 -0.4406 -0.5141  0.4565
  392MOL0     H52916   2.964  10.109  -0.293  2.9617  0.6023 -0.6914
  392MOL0     H52917   3.308  10.241   0.699  0.4868  1.6824 -0.2718
  392MOL0     H52918   3.554  10.383   0.923 -2.2124  1.9469  0.7386
  392MOL0     H52919   3.388  10.377   0.886 -0.9936  0.1177  0.1315
  392MOL0     H52920   3.464  10.226   0.935 -1.9496  0.3042 -0.0761
  393MOL0     O52921   1.616   8.775   3.439 -0.4833 -1.1842  0.7722
  393MOL0     C52922   1.703   8.729   3.506  0.4198 -0.0400 -1.0223
  393MOL0     O52923   1.696   8.707   3.637  0.6700  0.9290  0.2778
  393MOL0     C52924   1.582   8.717   3.705  0.4709  0.4167 -0.1205
  393MOL0     C52925   1.534   8.608   3.780 -0.6297 -0.7728  0.3631
  393MOL0     C52926   1.431   8.625   3.868  0.1340 -0.8165  0.0147
  393MOL0     C52927   1.366   8.747   3.879 -0.4505  0.0714 -0.0744
  393MOL0     O52928   1.250   8.752   3.954 -0.2165 -0.0075 -0.2308
  393MOL0     C52929   1.193   8.873   3.980  0.6517 -0.6925  0.3253
  393MOL0     C52930   1.082   8.854   4.089 -0.8506 -0.0927  0.7150
  393MOL0     C52931   1.150   8.794   4.211 -0.3130 -0.5117  0.2277
  393MOL0     C52932   1.074   8.839   4.339 -0.5044  0.7680  0.4087
  393MOL0     C52933   1.133   8.815   4.473 -0.4450 -0.4654 -0.5994
  393MOL0     C52934   1.132   8.664   4.504 -0.1272 -0.0688  0.6648
  393MOL0     C52935   1.152   8.645   4.651  0.5963  0.6470  0.1561
  393MOL0     C52936   1.198   8.509   4.684  0.1297  0.0395  0.3451
  393MOL0     N52937   1.204   8.493   4.832  0.3113  0.7941  0.2563
  393MOL0     C52938   1.304   8.445   4.910 -0.0784 -0.4883 -0.1704
  393MOL0     C52939   1.249   8.439   5.038 -0.1321  0.1998  0.4462
  393MOL0     C52940   1.329   8.385   5.145  0.0993 -0.7608  0.3298
  393MOL0     C52941   1.287   8.239   5.168 -0.3545  0.9164 -0.0332
  393MOL0     C52942   1.376   8.197   5.283  0.3961  0.5105 -0.6338
  393MOL0     C52943   1.530   8.173   5.244  0.0247  0.6791 -0.4950
  393MOL0     O52944   1.578   8.077   5.339 -0.2601 -0.5100  0.4171
  393MOL0     C52945   1.699   8.007   5.325  0.0700  0.4543 -0.1281
  393MOL0     C52946   1.734   7.924   5.435 -0.0944  0.0150  0.6185
  393MOL0     C52947   1.856   7.847   5.420  0.2153 -0.3796 -0.2455
  393MOL0     C52948   1.935   7.850   5.298 -0.3506 -0.1651 -0.3176
  393MOL0     C52949   2.054   7.766   5.282  0.6577  1.4517 -0.5955
  393MOL0     O52950   2.137   7.797   5.180 -1.3650  0.5011  0.4450
  393MOL0     C52951   2.241   7.719   5.143  0.8007  0.6007 -0.6617
  393MOL0     C52952   2.294   7.604   5.202  0.1752  0.2424  0.1816
  393MOL0     C52953   2.404   7.541   5.153 -0.4790  0.6544 -0.0809
  393MOL0     C52954   2.471   7.588   5.030  0.1787 -0.8183 -0.6164
  393MOL0     O52955   2.578   7.528   4.966  0.3373  0.0463 -0.4385
  393MOL0     C52956   2.615   7.397   5.016  0.0693 -0.4873 -0.3201
  393MOL0     C52957   2.748   7.355   4.957 -0.2470  0.5979  1.2582
  393MOL0     C52958   2.875   7.412   5.023 -1.3928  0.6153  0.7429
  393MOL0     C52959   3.003   7.343   4.969 -0.8557 -0.0988 -0.2456
  393MOL0     C52960   3.117   7.403   5.052 -0.0051 -0.4441 -1.0195
  393MOL0     C52961   3.254   7.352   5.011  0.7033  1.0182  0.0481
  393MOL0     C52962   3.362   7.418   5.086 -0.4367  0.2867  0.0409
  393MOL0     C52963   3.397   7.344   5.213  0.4237 -0.7018 -0.0050
  393MOL0    Cl52964   3.482   7.182   5.195 -0.2411 -0.3628  0.0079
  393MOL0     C52965   2.415   7.701   4.965 -0.0834 -0.0873  0.0530
  393MOL0     C52966   2.307   7.773   5.032 -0.5241 -1.4865 -0.4547
  393MOL0     O52967   2.074   7.675   5.365 -0.0640 -0.6170 -0.2453
  393MOL0     C52968   1.893   7.933   5.199 -1.1741  0.0615  0.3601
  393MOL0     C52969   1.784   8.015   5.211 -0.1037  0.1435 -0.5465
  393MOL0     N52970   1.115   8.470   5.032 -0.7570 -0.5740 -0.1781
  393MOL0     N52971   1.087   8.491   4.912 -0.8878 -0.4690  0.8511
  393MOL0     C52972   1.426   8.858   3.821 -0.4263 -0.6082 -0.4140
  393MOL0     C52973   1.532   8.847   3.730  0.5385  0.1071  0.0859
  393MOL0     C52974   1.840   8.722   3.449 -0.6877  0.1129  0.0318
  393MOL0     C52975   1.953   8.739   3.541  0.6913 -0.1535  0.1087
  393MOL0     C52976   2.077   8.710   3.503  0.1635 -0.6071  0.0635
  393MOL0     C52977   2.121   8.693   3.371  0.5660  1.3669  0.2184
  393MOL0     O52978   2.251   8.642   3.356  0.1207 -0.0143 -0.9150
  393MOL0     C52979   2.307   8.619   3.227  0.4017 -0.1562  0.2112
  393MOL0     C52980   2.339   8.751   3.165 -0.5719 -0.1848 -0.0635
  393MOL0     C52981   2.416   8.722   3.036  0.0791 -0.6528  0.0413
  393MOL0     C52982   2.538   8.632   3.038  0.0418 -0.4070 -0.2072
  393MOL0     C52983   2.636   8.651   2.934 -0.4904  0.0880 -0.1488
  393MOL0     C52984   2.732   8.642   2.855  0.1327 -0.0516 -0.4919
  393MOL0     C52985   2.020   8.690   3.277 -0.0986 -0.1492 -0.2914
  393MOL0     C52986   1.882   8.710   3.305  0.4480 -0.1073 -0.6502
  393MOL0     C52987   1.779   8.680   3.209 -0.6217  0.2874  0.1077
  393MOL0     H52988   1.594   8.519   3.762  1.0934  0.6419 -1.3791
  393MOL0     H52989   1.398   8.533   3.914 -1.2297 -1.4293 -2.0131
  393MOL0     H52990   1.256   8.954   4.017  1.0363 -1.0101  0.3762
  393MOL0     H52991   1.138   8.910   3.893 -0.9856  0.9118  1.9503
  393MOL0     H52992   0.999   8.792   4.055 -1.3314  0.8171  0.1637
  393MOL0     H52993   1.036   8.950   4.116 -0.3861 -0.6165  3.7308
  393MOL0     H52994   1.252   8.832   4.221 -0.2034 -0.6237 -0.3891
  393MOL0     H52995   1.159   8.685   4.208  0.3788 -0.4639  0.5031
  393MOL0     H52996   1.065   8.947   4.326 -0.1443  0.9972  1.8931
  393MOL0     H52997   0.978   8.787   4.348 -0.0899  0.1160  1.2419
  393MOL0     H52998   1.236   8.849   4.487 -0.8924  0.5752  0.3115
  393MOL0     H52999   1.063   8.875   4.533 -0.5545 -1.6312  0.4831
  393MOL0     H53000   1.038   8.618   4.472  1.4119 -2.7739 -0.3171
  393MOL0     H53001   1.215   8.626   4.443  0.1113  0.3743  0.7142
  393MOL0     H53002   1.056   8.654   4.701  1.3490  1.5355  1.4830
  393MOL0     H53003   1.214   8.716   4.706  3.2427 -0.8776 -0.6671
  393MOL0     H53004   1.134   8.428   4.647  0.6460 -0.5338  0.6952
  393MOL0     H53005   1.298   8.502   4.642 -0.3064 -1.4595 -0.4916
  393MOL0     H53006   1.403   8.414   4.880  0.2382  0.0919  0.2578
  393MOL0     H53007   1.438   8.392   5.134  0.1594  0.4788  1.5465
  393MOL0     H53008   1.314   8.447   5.234  2.2281 -0.1492  0.3257
  393MOL0     H53009   1.181   8.236   5.196  0.0844  0.0981  1.6731
  393MOL0     H53010   1.300   8.180   5.077  1.3562  0.1915  0.6305
  393MOL0     H53011   1.335   8.101   5.315  2.2622 -0.8531 -2.0646
  393MOL0     H53012   1.375   8.267   5.367 -0.0627  1.5481 -1.4844
  393MOL0     H53013   1.585   8.268   5.243  1.6919 -0.2417 -0.1639
  393MOL0     H53014   1.536   8.123   5.148 -3.0063 -1.7412  0.3997
  393MOL0     H53015   1.669   7.928   5.522 -2.4792 -1.1421 -0.9815
  393MOL0     H53016   1.877   7.785   5.506 -0.3707 -3.0896 -1.9354
  393MOL0     H53017   2.243   7.560   5.286  1.5015  1.5532  1.7407
  393MOL0     H53018   2.440   7.447   5.194 -2.1932 -0.5705 -1.2033
  393MOL0     H53019   2.630   7.396   5.125  1.7765 -0.6277 -0.5364
  393MOL0     H53020   2.535   7.328   4.985  0.8308 -0.1466 -3.3758
  393MOL0     H53021   2.760   7.247   4.970  2.2038  0.6188 -0.2167
  393MOL0     H53022   2.734   7.374   4.850 -0.4974 -0.9839  0.9816
  393MOL0     H53023   2.877   7.518   4.997 -0.7320  0.3579 -0.2954
  393MOL0     H53024   2.879   7.402   5.132  2.1555 -2.0855  0.5506
  393MOL0     H53025   3.007   7.363   4.861 -4.4087  2.1395 -0.1476
  393MOL0     H53026   3.002   7.236   4.990  3.3415 -0.7807 -2.5091
  393MOL0     H53027   3.094   7.379   5.156 -1.2931 -2.4651 -1.7174
  393MOL0     H53028   3.110   7.512   5.041 -1.4502 -0.3067  0.7530
  393MOL0     H53029   3.248   7.243   5.013  0.7379  0.9954 -0.6755
  393MOL0     H53030   3.266   7.378   4.905  0.2571 -0.6463 -0.4464
  393MOL0     H53031   3.337   7.521   5.114 -1.9476  0.4822 -1.8571
  393MOL0     H53032   3.450   7.426   5.022  1.8621 -1.1194  2.7950
  393MOL0     H53033   3.458   7.412   5.274 -1.4516 -1.1374  2.5025
  393MOL0     H53034   3.313   7.325   5.279  1.2726 -0.1724  1.2645
  393MOL0     H53035   2.452   7.736   4.870 -0.3068 -0.7915 -0.3026
  393MOL0     H53036   2.278   7.872   5.001  0.1665  0.1256  3.4310
  393MOL0     H53037   1.941   7.943   5.102  0.0483 -3.5464  0.4271
  393MOL0     H53038   1.763   8.088   5.133 -1.0601 -0.0344 -0.4683
  393MOL0     H53039   1.386   8.957   3.837 -2.0978 -0.6826 -3.3926
  393MOL0     H53040   1.568   8.938   3.684  2.5637 -1.2750 -1.2121
  393MOL0     H53041   1.954   8.755   3.648  0.8806  1.9815 -0.1525
  393MOL0     H53042   2.150   8.702   3.583 -0.3512  0.2118  0.6311
  393MOL0     H53043   2.241   8.556   3.167 -0.4136 -0.1347  1.0607
  393MOL0     H53044   2.397   8.557   3.228 -0.3441 -1.2698  0.0571
  393MOL0     H53045   2.411   8.798   3.232  0.3131 -0.3775 -0.8507
  393MOL0     H53046   2.251   8.815   3.161 -0.0654  0.8660  2.9624
  393MOL0     H53047   2.449   8.816   2.990  2.1100 -2.1516 -1.8332
  393MOL0     H53048   2.348   8.683   2.960 -0.2180  0.6739 -0.4057
  393MOL0     H53049   2.573   8.648   3.141 -1.6440  3.4642 -0.0754
  393MOL0     H53050   2.507   8.528   3.031  2.3388 -1.1010 -1.0945
  393MOL0     H53051   2.822   8.653   2.799 -0.9857  0.2421 -2.2903
  393MOL0     H53052   2.058   8.667   3.178  0.7772 -2.1817  0.4845
  393MOL0     H53053   1.818   8.672   3.107  0.9498 -0.3508  0.7245
  393MOL0     H53054   1.733   8.584   3.235 -0.7394  1.3630  4.4867
  393MOL0     H53055   1.701   8.756   3.205 -0.6899  0.1843 -2.1517
  394MOL0     O53056   5.749   2.027   6.342  0.2575  0.0630  0.4497
  394MOL0     C53057   5.782   1.985   6.234 -0.1208 -0.1143  0.3637
  394MOL0     O53058   5.706   1.917   6.149  0.0854  0.3317  0.0372
  394MOL0     C53059   5.582   1.887   6.195  1.2899 -0.0182 -0.1094
  394MOL0     C53060   5.555   1.778   6.281  0.3985 -0.4464 -0.7184
  394MOL0     C53061   5.420   1.747   6.304 -0.4626  0.0110 -0.5691
  394MOL0     C53062   5.319   1.823   6.250  0.3325 -0.2672  0.2976
  394MOL0     O53063   5.187   1.807   6.262 -0.5643  0.0653  0.4413
  394MOL0     C53064   5.140   1.703   6.349 -0.6528  0.0957  0.5567
  394MOL0     C53065   4.994   1.682   6.351  0.4474  0.0971  0.0286
  394MOL0     C53066   4.913   1.807   6.395 -0.0062 -0.1762 -0.0527
  394MOL0     C53067   4.883   1.904   6.287 -0.1967 -0.4414 -0.0681
  394MOL0     C53068   4.791   2.021   6.324  0.0057  0.6834 -0.0639
  394MOL0     C53069   4.752   2.098   6.193  0.1017  0.0615  0.0058
  394MOL0     C53070   4.655   2.214   6.232  0.6044  0.7854  0.4904
  394MOL0     C53071   4.506   2.172   6.213  0.2000 -0.4050 -0.2598
  394MOL0     N53072   4.421   2.283   6.267 -0.1808 -0.0973 -0.5528
  394MOL0     C53073   4.440   2.348   6.387  0.4686 -0.5629  0.0254
  394MOL0     C53074   4.317   2.396   6.417  0.4606 -0.3442  0.5567
  394MOL0     C53075   4.277   2.459   6.548  1.1195  0.1620 -0.6475
  394MOL0     C53076   4.142   2.511   6.564  0.8458  0.0824 -0.1753
  394MOL0     C53077   4.101   2.636   6.487 -0.3945  0.5599 -0.3182
  394MOL0     C53078   3.954   2.666   6.503  0.2672 -0.1006 -0.1388
  394MOL0     O53079   3.915   2.666   6.638 -0.0572  0.9228 -0.4960
  394MOL0     C53080   3.783   2.670   6.671  0.7361 -0.2081  0.3947
  394MOL0     C53081   3.753   2.664   6.811  0.5438  0.6029  0.2778
  394MOL0     C53082   3.624   2.673   6.864  0.7705  0.4937  0.4235
  394MOL0     C53083   3.515   2.709   6.780  0.0536 -0.3846  0.3591
  394MOL0     C53084   3.375   2.727   6.830  0.0428 -0.2869  0.8927
  394MOL0     O53085   3.274   2.701   6.739 -0.2734 -0.5734 -0.4709
  394MOL0     C53086   3.150   2.705   6.783  0.3862 -0.3089 -0.5254
  394MOL0     C53087   3.062   2.611   6.728  0.6658  0.2353 -0.9038
  394MOL0     C53088   2.925   2.617   6.760  0.3260 -0.2504 -0.0626
  394MOL0     C53089   2.871   2.720   6.847  0.5547 -0.2141  0.1915
  394MOL0     O53090   2.734   2.727   6.863  0.9772  0.1569  0.0608
  394MOL0     C53091   2.701   2.720   7.002  0.0336  0.0004 -0.0026
  394MOL0     C53092   2.567   2.645   7.017 -0.0738  0.2456  0.3830
  394MOL0     C53093   2.441   2.733   7.003  0.0873  0.3910 -1.1213
  394MOL0     C53094   2.310   2.646   7.023 -0.6517 -0.4037 -0.4263
  394MOL0     C53095   2.264   2.570   6.900  0.2909  0.5557 -0.4900
  394MOL0     C53096   2.153   2.477   6.939  0.3816 -1.2057  0.5044
  394MOL0     C53097   2.117   2.376   6.829 -0.2358  0.0574 -0.9236
  394MOL0     C53098   2.017   2.276   6.883 -0.3850  0.3637  0.5295
  394MOL0    Cl53099   1.849   2.358   6.883 -0.5606 -0.4108  0.0290
  394MOL0     C53100   2.961   2.810   6.905  0.7069  0.0489 -0.7489
  394MOL0     C53101   3.098   2.803   6.869 -0.5188  0.2216 -0.0465
  394MOL0     O53102   3.359   2.756   6.945 -0.0858  0.2167 -0.5611
  394MOL0     C53103   3.546   2.713   6.638  0.6956 -0.7827  0.0295
  394MOL0     C53104   3.672   2.692   6.586 -0.5728 -0.0761  0.7349
  394MOL0     N53105   4.243   2.383   6.303 -0.5018  0.2499  0.2681
  394MOL0     N53106   4.300   2.306   6.220  0.0564  0.7057  0.0954
  394MOL0     C53107   5.347   1.933   6.170 -0.7322  0.0656  0.1373
  394MOL0     C53108   5.479   1.963   6.145 -0.1467 -0.1034  0.4183
  394MOL0     C53109   5.923   2.015   6.182  0.0727  0.5774  0.3758
  394MOL0     C53110   5.969   1.931   6.076 -0.0560  0.1952  0.3300
  394MOL0     C53111   6.099   1.943   6.029 -0.1143  0.0527  0.4515
  394MOL0     C53112   6.189   2.036   6.089 -0.6239 -0.0238  0.1548
  394MOL0     O53113   6.316   2.066   6.040 -0.1228  0.0494  0.6258
  394MOL0     C53114   6.346   2.020   5.905 -0.2492  0.3336  0.0653
  394MOL0     C53115   6.467   2.088   5.835 -0.5571 -0.2981 -0.1876
  394MOL0     C53116   6.600   2.072   5.895  0.1491  0.0736  0.5005
  394MOL0     C53117   6.698   2.146   5.808 -0.3064  1.0056  0.3587
  394MOL0     C53118   6.830   2.141   5.865  0.6268  0.5905  0.0508
  394MOL0     C53119   6.947   2.111   5.889  0.0435 -1.1260  0.8609
  394MOL0     C53120   6.142   2.125   6.186 -0.4979  0.4192 -0.0654
  394MOL0     C53121   6.008   2.123   6.223 -0.5310  0.3524  0.4024
  394MOL0     C53122   5.964   2.237   6.315  0.2825  0.3976  0.0051
  394MOL0     H53123   5.639   1.717   6.315  0.0798 -2.5396 -3.3603
  394MOL0     H53124   5.400   1.675   6.382 -1.0005  2.0572  1.2833
  394MOL0     H53125   5.196   1.614   6.319  1.6729  1.5410  0.3502
  394MOL0     H53126   5.170   1.717   6.453  1.2615 -0.2860  0.0951
  394MOL0     H53127   4.964   1.604   6.421 -2.8495  0.2856 -0.9984
  394MOL0     H53128   4.965   1.655   6.249  2.7680 -0.6380 -0.5154
  394MOL0     H53129   4.952   1.856   6.485  1.0600  1.6566 -1.4385
  394MOL0     H53130   4.818   1.769   6.433  0.6970 -0.3836  1.5661
  394MOL0     H53131   4.973   1.954   6.251  0.1448 -2.5498 -2.4493
  394MOL0     H53132   4.844   1.851   6.199 -0.8099  0.6858 -0.4919
  394MOL0     H53133   4.701   1.975   6.365  0.2230  0.7581  0.5179
  394MOL0     H53134   4.839   2.090   6.395 -1.1968  2.1676 -0.6402
  394MOL0     H53135   4.833   2.147   6.138  2.1625 -1.5670  1.4470
  394MOL0     H53136   4.708   2.026   6.124 -1.7126  0.8875  0.2256
  394MOL0     H53137   4.685   2.297   6.167  1.8823 -0.0578 -0.0412
  394MOL0     H53138   4.676   2.246   6.334 -0.5667  1.9614  0.3889
  394MOL0     H53139   4.485   2.155   6.107  2.4445 -1.7524 -0.5567
  394MOL0     H53140   4.479   2.088   6.277 -3.9694  1.7754  1.2102
  394MOL0     H53141   4.530   2.340   6.447 -0.0146 -0.8959  0.7216
  394MOL0     H53142   4.293   2.388   6.630 -0.7426 -0.6197 -0.9042
  394MOL0     H53143   4.344   2.543   6.569 -0.4646  1.5252 -0.8039
  394MOL0     H53144   4.070   2.431   6.549  1.0397 -0.4274  1.3799
  394MOL0     H53145   4.137   2.544   6.669 -0.4743  0.5122 -0.3498
  394MOL0     H53146   4.133   2.616   6.384  0.9909  3.1485 -0.4798
  394MOL0     H53147   4.154   2.717   6.539 -1.8576 -1.8525  5.7364
  394MOL0     H53148   3.904   2.586   6.448  1.8936  1.7763 -4.9182
  394MOL0     H53149   3.937   2.762   6.452  2.6015  0.7832  0.6024
  394MOL0     H53150   3.827   2.641   6.887  1.6320  0.8497 -0.6660
  394MOL0     H53151   3.607   2.650   6.969  0.2774 -1.3375 -0.0205
  394MOL0     H53152   3.089   2.535   6.655 -3.8467 -1.6567 -0.9025
  394MOL0     H53153   2.853   2.544   6.723  2.1385 -3.1002  1.5837
  394MOL0     H53154   2.778   2.665   7.056 -0.1896  0.2640  0.5970
  394MOL0     H53155   2.685   2.820   7.045  1.4549  2.0513 -3.7414
  394MOL0     H53156   2.562   2.583   6.926 -0.7261 -0.1088  0.6498
  394MOL0     H53157   2.566   2.586   7.109 -1.2357 -1.8339 -0.8503
  394MOL0     H53158   2.445   2.808   7.083  2.2559 -0.3622 -0.4512
  394MOL0     H53159   2.445   2.796   6.913 -0.5723  2.1166 -0.0043
  394MOL0     H53160   2.230   2.712   7.057 -1.0606  0.0647 -2.2138
  394MOL0     H53161   2.320   2.581   7.111 -1.3061  0.7620  0.5356
  394MOL0     H53162   2.353   2.514   6.870 -1.1840 -2.6451  0.6423
  394MOL0     H53163   2.238   2.638   6.818  1.0415  4.0010  1.8777
  394MOL0     H53164   2.195   2.424   7.025  3.4808  2.1837  1.3619
  394MOL0     H53165   2.060   2.527   6.966  0.1634 -0.1435 -1.9623
  394MOL0     H53166   2.208   2.324   6.799  1.3706  0.6600  2.3544
  394MOL0     H53167   2.072   2.418   6.739 -0.3979  0.0174 -0.8607
  394MOL0     H53168   2.030   2.198   6.808  1.8430  0.8825  0.2942
  394MOL0     H53169   2.032   2.231   6.981 -0.5760 -0.6986  0.0874
  394MOL0     H53170   2.925   2.895   6.961 -0.3111  0.5688 -2.1527
  394MOL0     H53171   3.158   2.879   6.917  1.5543 -1.6968  0.5550
  394MOL0     H53172   3.465   2.740   6.571  0.5921  3.6676  1.5732
  394MOL0     H53173   3.666   2.697   6.478 -1.7954  1.4654  0.8384
  394MOL0     H53174   5.278   2.000   6.120  0.5822 -0.3568 -2.4293
  394MOL0     H53175   5.500   2.052   6.087 -4.0551 -0.1130 -1.3534
  394MOL0     H53176   5.899   1.865   6.026 -0.6050  0.6128  0.5244
  394MOL0     H53177   6.136   1.901   5.937  1.9673  2.7485 -0.0641
  394MOL0     H53178   6.261   2.031   5.838  3.0627  0.1622 -4.6154
  394MOL0     H53179   6.378   1.916   5.921 -0.1875  0.2086 -0.8298
  394MOL0     H53180   6.456   2.196   5.824  1.7223  0.1973  1.6341
  394MOL0     H53181   6.473   2.056   5.730 -1.9506  0.7725 -0.6352
  394MOL0     H53182   6.635   1.970   5.912 -1.0346 -0.1705  1.6856
  394MOL0     H53183   6.594   2.114   5.996 -1.1911  1.0744  0.0359
  394MOL0     H53184   6.709   2.100   5.709  0.1551  2.0955 -0.1170
  394MOL0     H53185   6.671   2.250   5.784 -2.1207  0.1762 -1.5359
  394MOL0     H53186   7.044   2.086   5.927  0.8121 -1.6375 -1.2818
  394MOL0     H53187   6.207   2.205   6.219  1.8987 -1.4945  0.1074
  394MOL0     H53188   5.957   2.210   6.421 -1.0082  0.0842 -0.1510
  394MOL0     H53189   6.029   2.325   6.306  1.0082 -0.0355  0.8079
  394MOL0     H53190   5.861   2.267   6.295  0.2078 -0.4363 -0.9142
  395MOL0     O53191   2.027   9.204   2.924  0.0388  0.5307  0.2180
  395MOL0     C53192   1.937   9.260   2.983  0.4758 -0.3025  0.9763
  395MOL0     O53193   1.928   9.284   3.117 -1.3870  0.0171  0.9206
  395MOL0     C53194   2.023   9.236   3.202  0.2068 -0.0047 -0.3150
  395MOL0     C53195   2.055   9.103   3.221  0.0010 -0.2611  0.2167
  395MOL0     C53196   2.155   9.060   3.302  0.6402  0.8169  0.0330
  395MOL0     C53197   2.210   9.157   3.394  0.2452 -0.2719  0.3280
  395MOL0     O53198   2.296   9.112   3.499 -0.0219  0.3776  0.0642
  395MOL0     C53199   2.427   9.164   3.502 -0.0271 -0.1036 -0.2896
  395MOL0     C53200   2.446   9.280   3.605  0.3806 -0.2562  0.6131
  395MOL0     C53201   2.569   9.373   3.586 -0.5157  0.7345  0.0823
  395MOL0     C53202   2.547   9.474   3.469  0.6727  0.3708 -0.4184
  395MOL0     C53203   2.662   9.571   3.467  0.6543  0.5273 -0.4747
  395MOL0     C53204   2.690   9.617   3.326 -0.3446  0.8832  0.2781
  395MOL0     C53205   2.767   9.752   3.331  0.7851 -0.4819 -0.7840
  395MOL0     C53206   2.795   9.797   3.187  0.9886  0.5266 -0.3867
  395MOL0     N53207   2.676   9.854   3.115 -0.6607 -0.0682 -0.1957
  395MOL0     C53208   2.683   9.979   3.067  0.2556 -0.1311 -0.0777
  395MOL0     C53209   2.592   9.976   2.968  0.4639  0.1585 -0.6286
  395MOL0     C53210   2.568  10.090   2.871 -1.0152  0.8127 -0.0522
  395MOL0     C53211   2.559  10.040   2.729  0.4045  0.8046  0.2789
  395MOL0     C53212   2.537  10.146   2.626  0.4927 -0.0608 -0.4465
  395MOL0     C53213   2.550  10.088   2.490  1.4395  0.0101  1.1919
  395MOL0     O53214   2.673  10.022   2.450 -0.4266  0.1810  0.2835
  395MOL0     C53215   2.801  10.076   2.464  0.5473 -0.6152  0.2183
  395MOL0     C53216   2.823  10.204   2.422  0.8042 -0.2787 -0.1595
  395MOL0     C53217   2.952  10.269   2.423 -0.3038  0.0122 -0.5003
  395MOL0     C53218   3.065  10.189   2.451 -0.7812  0.3441  0.8779
  395MOL0     C53219   3.205  10.246   2.463  0.2586 -0.7218  0.7703
  395MOL0     O53220   3.305  10.160   2.496 -0.2808 -0.1362  0.4845
  395MOL0     C53221   3.432  10.206   2.537  0.6512 -1.3188  0.3201
  395MOL0     C53222   3.500  10.320   2.494 -0.1575 -0.2146 -0.1110
  395MOL0     C53223   3.629  10.349   2.522  0.6378  0.3156  0.5463
  395MOL0     C53224   3.704  10.261   2.606  1.0949  0.8119 -0.6492
  395MOL0     O53225   3.838  10.299   2.627 -0.1112 -0.4788  0.3932
  395MOL0     C53226   3.875  10.266   2.765 -1.5316  0.6549  0.0667
  395MOL0     C53227   4.020  10.312   2.765  0.1669  0.0291 -0.1327
  395MOL0     C53228   4.083  10.287   2.895 -1.2729  0.1358 -0.2423
  395MOL0     C53229   4.229  10.315   2.886  0.2600  0.9515  0.0997
  395MOL0     C53230   4.304  10.304   3.024  0.5038 -0.2379  0.0289
  395MOL0     C53231   4.261  10.415   3.118  1.0808  0.5791 -0.3330
  395MOL0     C53232   4.354  10.442   3.238  0.4375 -0.2049  0.1388
  395MOL0     C53233   4.497  10.490   3.194 -0.2377  0.6139 -0.4414
  395MOL0    Cl53234   4.609  10.538   3.327 -0.2347 -0.0129 -0.3962
  395MOL0     C53235   3.637  10.143   2.658 -0.0281  0.0466 -0.1006
  395MOL0     C53236   3.504  10.116   2.622 -0.0808 -0.0954 -0.1218
  395MOL0     O53237   3.220  10.368   2.432 -0.9716 -0.4833  0.3140
  395MOL0     C53238   3.043  10.055   2.491 -0.3135 -0.5698 -0.1655
  395MOL0     C53239   2.921  10.003   2.501 -0.6365 -0.6906  0.5255
  395MOL0     N53240   2.524   9.851   2.970  0.6568  0.3206 -0.3001
  395MOL0     N53241   2.587   9.780   3.048  0.4948 -0.2122  0.1346
  395MOL0     C53242   2.164   9.288   3.392 -0.6800  0.3925  0.4462
  395MOL0     C53243   2.082   9.325   3.285  0.5521 -0.6168  0.3484
  395MOL0     C53244   1.826   9.315   2.897 -0.2727 -0.0527  0.2423
  395MOL0     C53245   1.735   9.398   2.959  0.4381 -0.3558 -0.8268
  395MOL0     C53246   1.629   9.466   2.899 -0.0671  0.4714  0.1407
  395MOL0     C53247   1.599   9.436   2.765 -0.3543  0.4123  0.1610
  395MOL0     O53248   1.489   9.496   2.706 -0.3981  1.0184 -0.8055
  395MOL0     C53249   1.374   9.416   2.709 -0.3476  1.0652 -0.1740
  395MOL0     C53250   1.247   9.496   2.732 -0.2922 -0.4940  0.0443
  395MOL0     C53251   1.249   9.576   2.854 -0.0334 -0.1433 -0.7264
  395MOL0     C53252   1.107   9.602   2.908  0.9687 -0.5700  0.7800
  395MOL0     C53253   1.015   9.688   2.828 -0.2410 -0.2203 -0.3062
  395MOL0     C53254   0.959   9.763   2.756 -0.7045 -0.6825 -0.4187
  395MOL0     C53255   1.692   9.357   2.697 -0.5430  0.2188 -1.2107
  395MOL0     C53256   1.814   9.307   2.755 -0.9627 -0.5139  0.1006
  395MOL0     C53257   1.897   9.217   2.660  0.0776 -1.0034  0.3570
  395MOL0     H53258   1.995   9.033   3.164 -2.4431  1.7371  0.1514
  395MOL0     H53259   2.182   8.955   3.310 -2.9938 -0.5926 -3.0944
  395MOL0     H53260   2.502   9.090   3.533  0.9457  1.5533  1.5671
  395MOL0     H53261   2.453   9.202   3.403 -1.0278  1.6181  0.0625
  395MOL0     H53262   2.444   9.239   3.706 -0.2935  1.2787  1.2605
  395MOL0     H53263   2.354   9.338   3.597  0.1897 -0.6878 -0.4998
  395MOL0     H53264   2.665   9.320   3.578 -0.9024  0.2693 -4.0177
  395MOL0     H53265   2.562   9.434   3.676 -1.1265 -0.3183  0.7727
  395MOL0     H53266   2.534   9.426   3.371  0.3115  0.0295 -0.2056
  395MOL0     H53267   2.456   9.527   3.498  2.0401  1.5215  2.1047
  395MOL0     H53268   2.640   9.658   3.531  4.2894  1.4049 -0.2054
  395MOL0     H53269   2.744   9.518   3.515 -0.4258  0.6573  1.6372
  395MOL0     H53270   2.756   9.551   3.270 -2.2134  1.8162 -3.3320
  395MOL0     H53271   2.596   9.634   3.272  0.3454  4.7494  0.0103
  395MOL0     H53272   2.860   9.739   3.386  1.0069 -0.0256 -1.0436
  395MOL0     H53273   2.702   9.823   3.383  0.2576 -1.2301 -0.4039
  395MOL0     H53274   2.877   9.870   3.189  0.2810  1.5351 -3.4944
  395MOL0     H53275   2.825   9.710   3.128 -0.7981 -1.4953  1.4821
  395MOL0     H53276   2.757  10.059   3.072  1.7495 -1.4886  0.6455
  395MOL0     H53277   2.479  10.132   2.918 -2.7862 -1.6944 -0.9348
  395MOL0     H53278   2.648  10.164   2.882 -2.4458  2.6089 -1.1278
  395MOL0     H53279   2.656   9.996   2.706  0.9493  1.3210  1.4943
  395MOL0     H53280   2.486   9.959   2.720  2.3863 -1.2024  1.4738
  395MOL0     H53281   2.616  10.222   2.627  0.8213 -0.3771 -1.2713
  395MOL0     H53282   2.446  10.203   2.644  1.2885  0.9054  0.6846
  395MOL0     H53283   2.521  10.166   2.419 -0.3806  0.0423  1.9193
  395MOL0     H53284   2.471  10.013   2.495  2.5666 -1.2248  1.3170
  395MOL0     H53285   2.739  10.259   2.380  0.9138 -1.7401 -2.4521
  395MOL0     H53286   2.962  10.375   2.406  0.2516  0.0764  0.1875
  395MOL0     H53287   3.459  10.389   2.420 -0.3730 -1.7165 -1.4541
  395MOL0     H53288   3.672  10.435   2.473 -1.9293  0.1552 -2.3295
  395MOL0     H53289   3.817  10.323   2.838  0.8035  3.7862 -0.2898
  395MOL0     H53290   3.872  10.158   2.782 -4.6037  0.8156  1.0553
  395MOL0     H53291   4.059  10.250   2.684 -0.7364  0.7354 -1.1257
  395MOL0     H53292   4.026  10.416   2.734  1.2088 -0.4741 -1.7733
  395MOL0     H53293   4.044  10.350   2.976 -1.3612 -0.5430  0.2517
  395MOL0     H53294   4.080  10.182   2.923  1.2458  0.0713  0.0113
  395MOL0     H53295   4.243  10.417   2.849  0.7888  0.3500 -1.4042
  395MOL0     H53296   4.269  10.250   2.808 -1.2245 -0.7750  0.7089
  395MOL0     H53297   4.411  10.310   3.001  0.7828 -0.7482  1.1523
  395MOL0     H53298   4.276  10.208   3.069 -2.9567  0.4482 -0.3502
  395MOL0     H53299   4.253  10.509   3.062 -0.5453 -0.5945 -2.2182
  395MOL0     H53300   4.156  10.407   3.148  0.9475 -2.2431 -1.2317
  395MOL0     H53301   4.363  10.346   3.290  0.3152 -0.4353 -0.2551
  395MOL0     H53302   4.307  10.513   3.307  0.2420 -2.1113  2.0917
  395MOL0     H53303   4.538  10.402   3.143  0.7521  1.6014 -1.4057
  395MOL0     H53304   4.494  10.567   3.116 -2.4362  1.4923  0.4453
  395MOL0     H53305   3.685  10.068   2.720  2.4397 -1.1766 -3.2344
  395MOL0     H53306   3.451  10.029   2.660 -0.3282 -0.1850 -0.6628
  395MOL0     H53307   3.125   9.996   2.531  0.8897 -0.2278 -2.0359
  395MOL0     H53308   2.912   9.906   2.548 -1.0094 -1.3591 -0.8851
  395MOL0     H53309   2.201   9.355   3.469  0.7212  0.4844 -0.2558
  395MOL0     H53310   2.054   9.430   3.282 -1.6814 -0.9161  4.3902
  395MOL0     H53311   1.746   9.428   3.062  1.9622  1.9904 -1.6028
  395MOL0     H53312   1.564   9.531   2.956  0.6991  2.8769 -1.5377
  395MOL0     H53313   1.378   9.334   2.782 -2.1025  0.8208 -0.2954
  395MOL0     H53314   1.373   9.365   2.612  1.9519 -2.5912  1.5075
  395MOL0     H53315   1.165   9.424   2.732  0.2833 -1.1787  0.9921
  395MOL0     H53316   1.222   9.558   2.645  0.4282 -0.7450 -0.3527
  395MOL0     H53317   1.306   9.669   2.845  2.3559 -1.2677  1.4259
  395MOL0     H53318   1.297   9.519   2.934 -1.3095  1.8361  1.5505
  395MOL0     H53319   1.057   9.507   2.930  2.1084 -1.4083 -0.1436
  395MOL0     H53320   1.128   9.654   3.002  0.3414 -0.9411  1.1261
  395MOL0     H53321   0.899   9.823   2.692 -0.6956  1.2675  1.3003
  395MOL0     H53322   1.666   9.339   2.594  1.0921  0.1992 -1.6470
  395MOL0     H53323   1.851   9.215   2.560 -2.2149 -2.5838  1.3588
  395MOL0     H53324   1.998   9.258   2.653 -1.0445  1.7666 -1.3073
  395MOL0     H53325   1.899   9.114   2.696  1.6407 -0.5340  1.7288
  396MOL0     O53326   4.694   7.177   3.008  0.4313 -0.0429  0.1585
  396MOL0     C53327   4.599   7.144   3.086  0.0982 -0.0671  0.1742
  396MOL0     O53328   4.604   7.179   3.221  1.1562 -0.3318  0.3640
  396MOL0     C53329   4.715   7.243   3.266  0.4998  0.4400 -0.9077
  396MOL0     C53330   4.800   7.165   3.354 -0.4337 -0.5462  0.8676
  396MOL0     C53331   4.908   7.228   3.408  0.7571 -0.6995 -0.1808
  396MOL0     C53332   4.932   7.369   3.377  0.2707 -1.2680 -1.1542
  396MOL0     O53333   5.054   7.414   3.420 -0.1407  1.1488  0.8507
  396MOL0     C53334   5.084   7.555   3.429  0.4181  0.5969  0.1529
  396MOL0     C53335   5.231   7.559   3.483 -0.2824 -0.1981 -0.2604
  396MOL0     C53336   5.255   7.705   3.508 -0.5687  0.4644  0.3025
  396MOL0     C53337   5.384   7.728   3.584  0.1899  0.6803  0.1481
  396MOL0     C53338   5.387   7.877   3.609  0.6422  0.0114  0.2168
  396MOL0     C53339   5.493   7.893   3.714 -0.6430 -0.9419  0.7822
  396MOL0     C53340   5.501   8.043   3.750 -0.1180  0.2037  0.1521
  396MOL0     C53341   5.601   8.069   3.858  0.0282  0.6179 -0.3004
  396MOL0     N53342   5.734   8.019   3.824  0.1050 -0.0388 -0.6135
  396MOL0     C53343   5.815   8.063   3.725  0.4765 -0.2253  0.1267
  396MOL0     C53344   5.927   7.984   3.723  0.8572  0.0358 -1.0512
  396MOL0     C53345   6.035   7.998   3.623  1.0750 -0.7731 -0.1999
  396MOL0     C53346   6.166   7.949   3.674 -0.2624  1.0912 -0.1741
  396MOL0     C53347   6.183   7.787   3.664  0.7661  0.2533  0.3592
  396MOL0     C53348   6.303   7.737   3.728 -0.1621 -0.2992  0.6530
  396MOL0     O53349   6.419   7.791   3.662 -0.0760 -0.4813  0.3784
  396MOL0     C53350   6.545   7.756   3.703  0.7769  0.9008 -0.8697
  396MOL0     C53351   6.584   7.663   3.807 -0.4459 -0.0159  1.0400
  396MOL0     C53352   6.714   7.627   3.832  0.5910 -0.3773  0.2766
  396MOL0     C53353   6.818   7.700   3.765  0.3382  0.0746  0.2285
  396MOL0     C53354   6.963   7.688   3.794 -0.1658 -0.8787  0.2421
  396MOL0     O53355   6.995   7.608   3.903 -0.3135 -0.5326  0.1955
  396MOL0     C53356   7.113   7.646   3.964  0.5020 -0.4195  0.8422
  396MOL0     C53357   7.118   7.766   4.035  0.4670 -0.2657 -0.2931
  396MOL0     C53358   7.238   7.810   4.083 -0.0377 -0.1703 -0.8564
  396MOL0     C53359   7.359   7.733   4.082  0.1581  0.4475  0.8900
  396MOL0     O53360   7.473   7.773   4.149  0.3171 -0.3919  0.2002
  396MOL0     C53361   7.518   7.684   4.248  0.0609 -1.1012  0.2677
  396MOL0     C53362   7.648   7.613   4.188  0.5738 -2.0482  0.5775
  396MOL0     C53363   7.668   7.486   4.259  0.2276 -0.5225  0.2773
  396MOL0     C53364   7.802   7.418   4.222  0.4027  0.2836 -0.3133
  396MOL0     C53365   7.855   7.330   4.333 -0.3807  0.2794 -0.2856
  396MOL0     C53366   7.991   7.275   4.287 -0.3349 -0.3466 -1.0520
  396MOL0     C53367   8.061   7.207   4.405 -1.1192 -0.7455  0.5370
  396MOL0     C53368   8.184   7.294   4.465  0.1826 -0.3804 -0.3076
  396MOL0    Cl53369   8.313   7.317   4.358  0.0773  0.0293  0.1485
  396MOL0     C53370   7.347   7.601   4.016  0.0223  0.1348  0.0032
  396MOL0     C53371   7.225   7.576   3.953 -0.4256  0.6278  0.0944
  396MOL0     O53372   7.042   7.760   3.733 -0.1329  0.3667  0.0366
  396MOL0     C53373   6.774   7.802   3.672 -0.6271  0.4196 -0.5855
  396MOL0     C53374   6.640   7.809   3.627  0.0981  0.3864  1.2712
  396MOL0     N53375   5.900   7.883   3.813  0.2210 -0.0594  0.0027
  396MOL0     N53376   5.792   7.905   3.876  0.0478  0.2766 -0.1878
  396MOL0     C53377   4.843   7.447   3.297 -0.2977  1.0431  0.5427
  396MOL0     C53378   4.734   7.376   3.241  0.2404 -0.9895 -0.9598
  396MOL0     C53379   4.482   7.055   3.046  0.9860  0.4228  0.4422
  396MOL0     C53380   4.363   7.042   3.121 -1.3385 -0.5289 -0.0830
  396MOL0     C53381   4.260   6.956   3.087 -0.4919 -0.7655  0.0350
  396MOL0     C53382   4.270   6.867   2.977  0.1379  0.2630  0.5088
  396MOL0     O53383   4.185   6.768   2.935 -0.3783  0.7384  0.6636
  396MOL0     C53384   4.087   6.718   3.023 -0.4983  0.6117  0.2312
  396MOL0     C53385   3.961   6.762   2.959 -0.3380  0.2477 -0.3915
  396MOL0     C53386   3.916   6.691   2.829 -0.7381 -0.5411 -0.8410
  396MOL0     C53387   3.850   6.557   2.866 -0.5183 -0.5804  0.2040
  396MOL0     C53388   3.791   6.492   2.746 -0.0447  0.3575 -0.3239
  396MOL0     C53389   3.740   6.426   2.658  0.5024 -0.1579 -0.3208
  396MOL0     C53390   4.384   6.888   2.898 -0.2994 -0.0536  0.8478
  396MOL0     C53391   4.485   6.974   2.932 -0.1068  0.3538  0.3396
  396MOL0     C53392   4.597   6.972   2.831 -0.6685  0.3342 -0.3927
  396MOL0     H53393   4.792   7.057   3.353  2.4003 -1.0317 -3.9538
  396MOL0     H53394   4.968   7.165   3.474  1.0976  0.3540  0.5577
  396MOL0     H53395   5.080   7.601   3.329 -2.5947 -0.3983 -0.2705
  396MOL0     H53396   5.015   7.618   3.487 -1.2420  0.6210 -1.7430
  396MOL0     H53397   5.299   7.525   3.405 -1.8565  0.7693 -2.1569
  396MOL0     H53398   5.234   7.492   3.569  0.3118  0.8387  0.5394
  396MOL0     H53399   5.176   7.745   3.571 -2.2707 -1.2330 -0.6411
  396MOL0     H53400   5.262   7.768   3.419 -2.4124  1.5122  0.8578
  396MOL0     H53401   5.374   7.685   3.684  2.8410  1.0975  0.6711
  396MOL0     H53402   5.470   7.669   3.550 -1.4871 -1.0620 -1.3064
  396MOL0     H53403   5.405   7.935   3.518 -2.2698  0.0646 -0.4212
  396MOL0     H53404   5.288   7.898   3.651  0.5391 -1.0171  0.5186
  396MOL0     H53405   5.476   7.829   3.801  1.1598  0.4565  2.2615
  396MOL0     H53406   5.589   7.861   3.672 -0.7731 -0.2930 -0.0291
  396MOL0     H53407   5.405   8.077   3.790 -0.2812  2.1517 -1.7142
  396MOL0     H53408   5.530   8.103   3.663  1.7695 -0.6004  0.1654
  396MOL0     H53409   5.610   8.174   3.885 -1.2746  0.5425  0.4859
  396MOL0     H53410   5.561   8.028   3.951 -2.4773 -1.0654 -1.9851
  396MOL0     H53411   5.790   8.145   3.658  0.7574  0.1911  0.5258
  396MOL0     H53412   5.999   7.944   3.536  2.8010 -2.2621 -0.0483
  396MOL0     H53413   6.033   8.102   3.589 -4.8647 -0.2704  0.6962
  396MOL0     H53414   6.243   7.996   3.612 -0.2640  1.8243  0.3744
  396MOL0     H53415   6.182   7.981   3.777 -0.1650  2.8512 -0.7054
  396MOL0     H53416   6.179   7.758   3.559 -1.0244  1.8228 -0.0460
  396MOL0     H53417   6.094   7.742   3.709  1.7202 -0.7277  1.3225
  396MOL0     H53418   6.317   7.629   3.719  0.9871 -0.2005  1.1611
  396MOL0     H53419   6.302   7.763   3.834  2.1894  3.3743 -0.0706
  396MOL0     H53420   6.508   7.625   3.874 -1.3279 -1.2115 -0.5607
  396MOL0     H53421   6.736   7.542   3.897 -0.1805 -1.0721 -0.3539
  396MOL0     H53422   7.033   7.830   4.057  0.7890  0.0794 -0.0433
  396MOL0     H53423   7.238   7.910   4.125  0.9475  0.0589 -1.3558
  396MOL0     H53424   7.535   7.733   4.344 -2.1606  0.0609  0.1361
  396MOL0     H53425   7.441   7.609   4.268 -2.3830  1.2195  0.1647
  396MOL0     H53426   7.647   7.591   4.081 -0.8253  0.2203  0.0552
  396MOL0     H53427   7.732   7.683   4.192 -2.2325  1.6185  0.4867
  396MOL0     H53428   7.675   7.509   4.366 -3.0135 -2.2532  1.0137
  396MOL0     H53429   7.588   7.413   4.244  1.6035 -1.9507 -0.3039
  396MOL0     H53430   7.872   7.495   4.189 -1.3844  0.7154 -3.4343
  396MOL0     H53431   7.795   7.351   4.136 -2.0593  1.2159 -0.8948
  396MOL0     H53432   7.781   7.254   4.359  1.9785 -1.1692  2.9020
  396MOL0     H53433   7.877   7.385   4.425 -2.1503 -0.3736  0.5769
  396MOL0     H53434   7.975   7.194   4.215 -2.1133 -2.2447  1.3041
  396MOL0     H53435   8.058   7.352   4.248  2.1443 -1.4819  0.7356
  396MOL0     H53436   8.085   7.105   4.373 -0.2051 -0.1327 -0.8704
  396MOL0     H53437   7.998   7.206   4.494 -1.3476  1.0125  0.4275
  396MOL0     H53438   8.140   7.393   4.480 -0.7496 -0.8199 -0.1196
  396MOL0     H53439   8.221   7.256   4.561  2.6341  1.1982 -0.5393
  396MOL0     H53440   7.442   7.551   4.001 -0.3903 -1.0108  1.0053
  396MOL0     H53441   7.222   7.480   3.903 -0.9989  1.7516 -2.1649
  396MOL0     H53442   6.848   7.859   3.617  1.2914 -1.5094 -0.1668
  396MOL0     H53443   6.617   7.882   3.550 -0.5644 -0.1352  0.9688
  396MOL0     H53444   4.855   7.554   3.280 -2.8000  1.5530  1.6402
  396MOL0     H53445   4.667   7.435   3.181 -2.0194  1.8188  3.7434
  396MOL0     H53446   4.353   7.108   3.206 -0.5914 -0.1879 -0.2521
  396MOL0     H53447   4.167   6.964   3.143  0.1910 -0.8806  1.2053
  396MOL0     H53448   4.088   6.753   3.126  1.0899 -0.4152  0.5898
  396MOL0     H53449   4.094   6.610   3.032  0.5881  0.7695  1.6276
  396MOL0     H53450   3.964   6.871   2.946 -1.7801  0.5174  1.1111
  396MOL0     H53451   3.878   6.749   3.030  0.9422  3.1398  1.8945
  396MOL0     H53452   4.004   6.688   2.764 -1.6473 -1.2174 -2.0781
  396MOL0     H53453   3.847   6.760   2.779  2.0440  1.3225 -2.3835
  396MOL0     H53454   3.925   6.491   2.910 -0.8436 -0.0571  1.5732
  396MOL0     H53455   3.768   6.565   2.938 -1.3080  1.9013 -0.8797
  396MOL0     H53456   3.681   6.360   2.599  1.3314  0.8541 -2.3937
  396MOL0     H53457   4.398   6.815   2.818 -1.1939 -0.4010  0.9877
  396MOL0     H53458   4.624   7.074   2.805  1.0396  1.4973  4.8716
  396MOL0     H53459   4.686   6.933   2.881 -1.0580  0.3490  0.3376
  396MOL0     H53460   4.583   6.912   2.740  2.0502 -1.1234  0.0431
  397MOL0     O53461   5.828  10.317   3.426 -0.0061 -0.9314 -0.7112
  397MOL0     C53462   5.732  10.384   3.384 -0.7499 -0.1952  0.2096
  397MOL0     O53463   5.728  10.514   3.355 -0.6391 -0.2570 -0.4898
  397MOL0     C53464   5.832  10.589   3.392  0.5289  0.1068 -0.1307
  397MOL0     C53465   5.962  10.584   3.346  0.0633 -0.9058 -0.3240
  397MOL0     C53466   6.056  10.676   3.402  0.3891  0.8318  0.6645
  397MOL0     C53467   6.022  10.775   3.489  0.7883 -0.6984 -0.3903
  397MOL0     O53468   6.111  10.873   3.541  0.3347 -0.2952 -0.2264
  397MOL0     C53469   6.251  10.850   3.554 -0.1026 -0.5345 -0.1920
  397MOL0     C53470   6.319  10.961   3.633  0.2631  0.0550 -0.6302
  397MOL0     C53471   6.473  10.963   3.666 -0.4358  0.5818 -0.8777
  397MOL0     C53472   6.556  10.889   3.554 -0.1596 -0.1694  0.0389
  397MOL0     C53473   6.714  10.867   3.575 -0.3465 -0.2139 -0.0538
  397MOL0     C53474   6.792  10.841   3.450 -0.3451 -0.3274 -0.0792
  397MOL0     C53475   6.779  10.708   3.381 -0.6427 -0.5666  0.6150
  397MOL0     C53476   6.844  10.707   3.243 -0.2733  1.0215  0.5813
  397MOL0     N53477   6.815  10.581   3.164  0.6302  0.5948  0.9863
  397MOL0     C53478   6.736  10.580   3.053  0.3311  0.1370 -0.6207
  397MOL0     C53479   6.750  10.455   2.995  0.8136  0.0245 -1.2633
  397MOL0     C53480   6.675  10.391   2.877  0.5574 -0.5334  0.2647
  397MOL0     C53481   6.735  10.422   2.737 -0.0228  0.5859 -0.5900
  397MOL0     C53482   6.677  10.331   2.632 -0.8638 -0.8485 -0.5105
  397MOL0     C53483   6.541  10.372   2.577 -0.3308 -0.8638 -0.0629
  397MOL0     O53484   6.562  10.487   2.495 -0.4734  0.6594  0.2775
  397MOL0     C53485   6.457  10.545   2.439  1.1933 -0.0088 -0.2613
  397MOL0     C53486   6.485  10.675   2.398  0.4719  0.2548  0.4680
  397MOL0     C53487   6.389  10.738   2.315  0.3851 -0.2535 -0.8422
  397MOL0     C53488   6.268  10.668   2.281 -0.4598  0.2630 -0.1944
  397MOL0     C53489   6.172  10.736   2.198 -0.6430 -0.5102  0.1771
  397MOL0     O53490   6.040  10.703   2.221 -0.0395 -0.4170 -0.4430
  397MOL0     C53491   5.932  10.749   2.152  0.0118 -0.1670 -0.1562
  397MOL0     C53492   5.813  10.767   2.221 -0.1326 -0.2553 -0.2379
  397MOL0     C53493   5.696  10.813   2.154 -0.3226  1.1560  0.0340
  397MOL0     C53494   5.691  10.839   2.018  0.0086  0.1869  0.7297
  397MOL0     O53495   5.566  10.859   1.959  0.5876  0.3051  0.3842
  397MOL0     C53496   5.567  10.967   1.859  0.9472  0.2745 -0.5920
  397MOL0     C53497   5.426  10.979   1.815 -0.4216  0.8784  0.1243
  397MOL0     C53498   5.413  11.064   1.686 -0.8541 -0.4069 -0.2081
  397MOL0     C53499   5.269  11.098   1.643 -1.3589  0.1574 -0.2275
  397MOL0     C53500   5.228  11.218   1.722  0.3751 -0.6487 -0.2441
  397MOL0     C53501   5.087  11.274   1.683 -0.2250  0.5408  0.2681
  397MOL0     C53502   5.063  11.414   1.745  0.6938 -0.0801  1.1189
  397MOL0     C53503   4.917  11.478   1.717  0.5413  0.0008  0.1634
  397MOL0    Cl53504   4.898  11.487   1.538 -0.1589  0.5807 -0.5279
  397MOL0     C53505   5.815  10.820   1.945 -0.4591 -1.2517 -0.1508
  397MOL0     C53506   5.934  10.774   2.014  0.0639 -0.5018 -0.0291
  397MOL0     O53507   6.208  10.830   2.117  0.2375 -0.5108 -0.0397
  397MOL0     C53508   6.248  10.538   2.329 -0.7691  0.2343  0.6641
  397MOL0     C53509   6.339  10.480   2.412 -0.0236  0.5077  1.2621
  397MOL0     N53510   6.836  10.390   3.080 -0.2064 -0.5963 -0.9329
  397MOL0     N53511   6.871  10.460   3.180 -0.1838  0.5114  0.3492
  397MOL0     C53512   5.886  10.781   3.521  0.3436 -0.2654  0.6489
  397MOL0     C53513   5.795  10.694   3.476  0.5386 -1.1238 -0.1808
  397MOL0     C53514   5.613  10.321   3.361  0.1289 -0.1564  0.3120
  397MOL0     C53515   5.500  10.360   3.432 -0.8925 -1.1190 -0.4052
  397MOL0     C53516   5.372  10.309   3.415 -0.0919  0.0097 -0.5339
  397MOL0     C53517   5.357  10.221   3.310  0.1244  0.6897 -0.0865
  397MOL0     O53518   5.237  10.163   3.273  0.3453 -0.1164 -0.2019
  397MOL0     C53519   5.124  10.152   3.359 -0.2416  0.2200  0.5029
  397MOL0     C53520   5.040  10.278   3.331  1.3118  0.0368  0.2909
  397MOL0     C53521   4.989  10.308   3.194  0.6351 -0.2611  0.7533
  397MOL0     C53522   4.927  10.443   3.182  0.2817  0.5351 -0.1934
  397MOL0     C53523   4.847  10.458   3.068 -0.4271  0.1255  0.7208
  397MOL0     C53524   4.789  10.476   2.964 -0.2842 -0.3980  0.4121
  397MOL0     C53525   5.467  10.174   3.240 -0.7587  0.0825 -0.2308
  397MOL0     C53526   5.596  10.226   3.264 -0.1318  0.1506  0.0427
  397MOL0     C53527   5.708  10.179   3.168 -0.1053  1.2104  0.4963
  397MOL0     H53528   6.000  10.517   3.270 -0.0533  0.6624 -1.8253
  397MOL0     H53529   6.147  10.694   3.347 -0.8350  2.4586 -0.9608
  397MOL0     H53530   6.269  10.758   3.610 -1.1602 -1.1498 -0.8056
  397MOL0     H53531   6.289  10.844   3.451 -1.2225  0.1839 -0.6635
  397MOL0     H53532   6.267  10.980   3.727 -0.5207  2.2800 -1.4514
  397MOL0     H53533   6.301  11.050   3.572  2.4044  1.7670  1.0695
  397MOL0     H53534   6.491  10.913   3.762  5.1655  0.8986 -1.3854
  397MOL0     H53535   6.501  11.068   3.682 -0.9788  0.6709 -0.4828
  397MOL0     H53536   6.513  10.790   3.536  1.2063 -0.6822 -0.5161
  397MOL0     H53537   6.551  10.948   3.461 -0.3233  1.5136  1.0636
  397MOL0     H53538   6.761  10.954   3.623 -0.8119  0.2095 -0.3580
  397MOL0     H53539   6.732  10.792   3.652  1.4064  2.3975  2.2992
  397MOL0     H53540   6.754  10.917   3.382  2.7476 -0.9066 -2.6560
  397MOL0     H53541   6.893  10.877   3.473 -0.0837 -0.3456 -1.1795
  397MOL0     H53542   6.670  10.699   3.370 -1.7897  5.0942  3.5379
  397MOL0     H53543   6.828  10.632   3.442  3.2551 -4.4595 -6.1594
  397MOL0     H53544   6.817  10.788   3.175 -0.0662  1.9447  1.5725
  397MOL0     H53545   6.952  10.725   3.244 -0.0721  0.5945 -2.5663
  397MOL0     H53546   6.658  10.654   3.036  0.4499  1.3515  3.1529
  397MOL0     H53547   6.680  10.282   2.882 -2.0379 -0.6946  1.2891
  397MOL0     H53548   6.569  10.418   2.882 -0.1442 -3.1641  1.2373
  397MOL0     H53549   6.735  10.528   2.711  0.2371  1.1078  1.3888
  397MOL0     H53550   6.839  10.393   2.752 -0.3861  0.5857  2.7393
  397MOL0     H53551   6.654  10.232   2.675  2.9776 -0.1500  4.0137
  397MOL0     H53552   6.744  10.317   2.548  0.3092 -3.7626  0.7528
  397MOL0     H53553   6.470  10.392   2.658  2.6317  0.1315  2.4589
  397MOL0     H53554   6.496  10.299   2.508  1.0174  0.7867 -2.8331
  397MOL0     H53555   6.577  10.730   2.415  0.0230  0.9798  0.6095
  397MOL0     H53556   6.405  10.839   2.279 -0.5999 -0.3498 -1.5896
  397MOL0     H53557   5.815  10.742   2.327 -0.6026  2.3632  0.4651
  397MOL0     H53558   5.602  10.821   2.207  0.0166 -1.1291  1.1126
  397MOL0     H53559   5.619  11.059   1.889 -1.5265  1.8787 -0.8859
  397MOL0     H53560   5.630  10.931   1.777  2.9602  1.0512  0.5603
  397MOL0     H53561   5.389  10.878   1.790  1.7275  0.2237 -0.6090
  397MOL0     H53562   5.358  11.002   1.898  1.1210 -1.8196  2.3177
  397MOL0     H53563   5.470  11.156   1.696 -1.3433 -0.1556  0.3578
  397MOL0     H53564   5.448  11.005   1.601 -2.8748 -2.9886  0.5955
  397MOL0     H53565   5.192  11.021   1.651 -1.9195  0.8216  0.9584
  397MOL0     H53566   5.260  11.125   1.537 -4.0808 -0.8003 -0.3153
  397MOL0     H53567   5.302  11.294   1.700  0.1868 -0.5456 -0.5248
  397MOL0     H53568   5.229  11.198   1.830  0.3531 -0.6210 -0.2390
  397MOL0     H53569   5.103  11.280   1.575 -0.0980 -1.8391  0.1077
  397MOL0     H53570   5.011  11.203   1.718  0.4309 -0.7384 -0.8466
  397MOL0     H53571   5.135  11.485   1.704  2.0317 -3.5080 -3.3100
  397MOL0     H53572   5.088  11.415   1.851  1.8541  0.1802  0.8627
  397MOL0     H53573   4.843  11.410   1.759  0.2305  1.0999  1.4742
  397MOL0     H53574   4.904  11.573   1.770  2.2557  0.9035 -0.9161
  397MOL0     H53575   5.817  10.849   1.841  1.5218  4.9242  1.2139
  397MOL0     H53576   6.032  10.777   1.968  0.8447 -4.8884  0.9369
  397MOL0     H53577   6.163  10.477   2.301 -3.1807  4.2801 -1.9504
  397MOL0     H53578   6.314  10.379   2.444 -0.9948 -0.7428 -2.9317
  397MOL0     H53579   5.852  10.864   3.582 -2.6594  1.6379 -3.2123
  397MOL0     H53580   5.689  10.698   3.497  0.8153  2.0774  1.1608
  397MOL0     H53581   5.514  10.445   3.498  3.8276 -0.9954 -1.2195
  397MOL0     H53582   5.285  10.343   3.471  0.4857 -0.3135  0.5640
  397MOL0     H53583   5.142  10.160   3.467  0.3001 -0.8504  0.5093
  397MOL0     H53584   5.067  10.062   3.333 -0.6309  1.1975 -2.3817
  397MOL0     H53585   5.089  10.372   3.361  0.1291  0.9930 -0.6931
  397MOL0     H53586   4.952  10.280   3.396  0.0458  0.1505 -1.3809
  397MOL0     H53587   4.921  10.227   3.165 -0.0998  1.1521 -1.7866
  397MOL0     H53588   5.080  10.301   3.134  0.2623 -1.9330  0.3354
  397MOL0     H53589   4.864  10.473   3.266  0.9300 -2.0545  1.3373
  397MOL0     H53590   5.008  10.516   3.182  1.0477 -0.1895  2.9618
  397MOL0     H53591   4.729  10.484   2.876  0.9464 -1.2279 -0.5278
  397MOL0     H53592   5.457  10.105   3.158 -0.9141 -0.3362  0.1361
  397MOL0     H53593   5.793  10.240   3.138 -0.5168 -0.6110 -5.8406
  397MOL0     H53594   5.750  10.087   3.210 -0.5608  0.9487  0.3840
  397MOL0     H53595   5.665  10.154   3.071 -1.5698  0.0082  1.4022
  398MOL0     O53596   6.936   8.785   8.188  0.2614  0.1891 -0.0144
  398MOL0     C53597   6.950   8.737   8.300 -0.0769 -0.2600  0.0521
  398MOL0     O53598   7.032   8.634   8.325  0.1706  0.3039 -0.0270
  398MOL0     C53599   7.119   8.595   8.226  0.2152  0.4922 -0.7477
  398MOL0     C53600   7.118   8.461   8.193  0.5475 -0.0909 -0.0077
  398MOL0     C53601   7.232   8.405   8.137  0.2410  0.0284  0.3522
  398MOL0     C53602   7.342   8.480   8.099 -0.2630 -0.8654 -0.1773
  398MOL0     O53603   7.457   8.427   8.059 -0.3675 -0.2199  0.6064
  398MOL0     C53604   7.478   8.286   8.066  0.3326 -0.5997  0.3836
  398MOL0     C53605   7.623   8.261   8.038 -1.1480  1.5552  1.3957
  398MOL0     C53606   7.663   8.120   8.026  0.9455  0.4686 -0.0119
  398MOL0     C53607   7.818   8.098   8.026  0.2804  0.0232  0.1335
  398MOL0     C53608   7.895   8.173   7.920  0.6114  1.0297  0.1980
  398MOL0     C53609   8.046   8.172   7.963  0.1223  0.1348 -0.8825
  398MOL0     C53610   8.136   8.201   7.851  0.0474 -0.6292 -0.0926
  398MOL0     C53611   8.281   8.216   7.892  0.7271 -0.7031 -0.5901
  398MOL0     N53612   8.338   8.114   7.986 -0.0534  0.1613  0.5588
  398MOL0     C53613   8.327   8.134   8.119  0.9681 -0.5321  0.5374
  398MOL0     C53614   8.421   8.048   8.164  0.2422  0.2635 -1.0130
  398MOL0     C53615   8.448   8.018   8.307 -0.8612  0.6193 -0.7254
  398MOL0     C53616   8.577   8.088   8.347  0.4456 -0.2997  0.5676
  398MOL0     C53617   8.687   7.998   8.386 -0.6860  0.1326  0.6679
  398MOL0     C53618   8.766   8.033   8.504 -0.1315  0.1874 -0.6178
  398MOL0     O53619   8.867   8.127   8.459 -0.3042  0.1598 -0.3906
  398MOL0     C53620   8.984   8.134   8.525 -0.1693 -0.9384 -0.2614
  398MOL0     C53621   9.068   8.237   8.481 -0.4026 -0.7467 -0.0017
  398MOL0     C53622   9.190   8.268   8.550 -0.7489 -0.5891  0.3107
  398MOL0     C53623   9.222   8.208   8.669 -0.4308  0.2867 -0.2930
  398MOL0     C53624   9.351   8.242   8.742 -0.4174 -0.6203 -0.0501
  398MOL0     O53625   9.381   8.168   8.847  0.3936 -0.1855 -0.2008
  398MOL0     C53626   9.496   8.189   8.913 -0.6139 -0.0659  0.4764
  398MOL0     C53627   9.522   8.318   8.958 -0.0036  0.5125  0.3672
  398MOL0     C53628   9.637   8.347   9.023 -0.9288  1.1837 -0.8427
  398MOL0     C53629   9.740   8.247   9.039 -0.1078 -0.6190 -0.0866
  398MOL0     O53630   9.854   8.254   9.113 -1.0201 -0.6129 -0.2645
  398MOL0     C53631   9.878   8.386   9.177 -0.3334 -0.4545 -0.0451
  398MOL0     C53632  10.024   8.382   9.220 -0.7836  0.4039 -0.9534
  398MOL0     C53633  10.116   8.405   9.106  1.2464 -0.0488  0.1278
  398MOL0     C53634  10.258   8.447   9.145  0.5283 -0.5501  0.5621
  398MOL0     C53635  10.350   8.441   9.030 -0.4304 -0.3719 -0.5134
  398MOL0     C53636  10.491   8.476   9.081  0.0258  0.2328 -0.7424
  398MOL0     C53637  10.586   8.474   8.959 -0.1033 -0.4303 -0.6120
  398MOL0     C53638  10.728   8.509   9.005  0.1902 -0.4496  0.4265
  398MOL0    Cl53639  10.838   8.486   8.868 -0.0980  0.4094  0.1019
  398MOL0     C53640   9.719   8.121   8.997 -0.3438  0.7562 -0.6718
  398MOL0     C53641   9.594   8.087   8.941 -0.1212  0.0899 -0.0778
  398MOL0     O53642   9.409   8.348   8.705 -0.8174  0.7063  0.2269
  398MOL0     C53643   9.145   8.099   8.709  0.2313  0.0599 -0.3215
  398MOL0     C53644   9.024   8.067   8.646  0.1535  0.5505 -0.2270
  398MOL0     N53645   8.491   7.987   8.065 -1.1793 -0.9914  0.2753
  398MOL0     N53646   8.444   8.041   7.958 -0.5116  0.6343  0.6503
  398MOL0     C53647   7.335   8.612   8.113 -0.4589  0.4706  0.3613
  398MOL0     C53648   7.229   8.673   8.179  1.0993 -0.2567 -0.2597
  398MOL0     C53649   6.855   8.773   8.410 -0.3600 -1.0415 -0.1660
  398MOL0     C53650   6.904   8.856   8.509 -0.2259  0.2879  0.4218
  398MOL0     C53651   6.826   8.906   8.608  1.0340 -0.9166  0.8061
  398MOL0     C53652   6.689   8.866   8.616  0.2979 -0.0734  0.2771
  398MOL0     O53653   6.604   8.927   8.705 -0.9629 -0.9301  0.4257
  398MOL0     C53654   6.478   8.876   8.727 -0.3311 -0.5934  0.9135
  398MOL0     C53655   6.421   8.944   8.859 -0.1623  0.5910 -0.5564
  398MOL0     C53656   6.516   8.926   8.978  0.5959 -0.3175 -0.5949
  398MOL0     C53657   6.455   8.987   9.107  0.9351  0.5542  1.0081
  398MOL0     C53658   6.336   8.906   9.149  0.0654 -0.9675 -0.3176
  398MOL0     C53659   6.231   8.855   9.178 -0.0214  0.3437 -0.9919
  398MOL0     C53660   6.637   8.771   8.518 -0.7314  0.2625 -0.1387
  398MOL0     C53661   6.724   8.725   8.413  0.0963 -0.1672 -0.1898
  398MOL0     C53662   6.664   8.629   8.319  0.0829  0.5461  0.6762
  398MOL0     H53663   7.041   8.389   8.218 -0.1372  0.1606 -1.2982
  398MOL0     H53664   7.237   8.300   8.111 -0.4831 -0.2898  1.4414
  398MOL0     H53665   7.459   8.267   8.172  0.8746  0.8872  0.7609
  398MOL0     H53666   7.427   8.219   7.996  0.9389 -0.3718 -0.2923
  398MOL0     H53667   7.701   8.318   8.090  0.1024  0.7982  0.4198
  398MOL0     H53668   7.636   8.298   7.936 -1.2314  0.0337  0.8095
  398MOL0     H53669   7.622   8.085   7.931  2.2265  0.2600 -0.5127
  398MOL0     H53670   7.616   8.066   8.108  0.2441  0.7613 -0.2133
  398MOL0     H53671   7.852   8.138   8.122  2.3305  1.2881 -1.0318
  398MOL0     H53672   7.841   7.991   8.032  1.6444  0.3041  0.3362
  398MOL0     H53673   7.882   8.114   7.829 -1.6181 -2.3449  2.4189
  398MOL0     H53674   7.851   8.270   7.896 -3.0247 -0.1806  1.1665
  398MOL0     H53675   8.050   8.254   8.036  0.6061 -0.6062 -0.0428
  398MOL0     H53676   8.086   8.080   8.008  0.2967  0.8967  0.5821
  398MOL0     H53677   8.102   8.294   7.804 -1.3728 -1.4416 -0.7363
  398MOL0     H53678   8.134   8.127   7.771  0.7992 -0.9966  0.2239
  398MOL0     H53679   8.333   8.215   7.796  1.2589  2.7895 -0.4615
  398MOL0     H53680   8.293   8.315   7.938  1.8160 -1.3349  0.5565
  398MOL0     H53681   8.266   8.206   8.173 -2.3876  0.8193 -4.3698
  398MOL0     H53682   8.368   8.058   8.370 -1.9044 -1.9208 -0.3456
  398MOL0     H53683   8.457   7.910   8.316  1.0871  0.9156  2.6870
  398MOL0     H53684   8.615   8.151   8.266 -1.8913  0.2372 -0.1738
  398MOL0     H53685   8.541   8.146   8.432  0.0200 -2.1539  1.7306
  398MOL0     H53686   8.749   7.979   8.297  2.7402  1.4971  2.5541
  398MOL0     H53687   8.636   7.906   8.416  2.0119 -1.2638  1.3531
  398MOL0     H53688   8.807   7.944   8.554  0.4595  1.0391  0.4570
  398MOL0     H53689   8.703   8.060   8.589 -1.6120 -1.3548 -1.1601
  398MOL0     H53690   9.054   8.292   8.389  4.1408  1.7045  0.4459
  398MOL0     H53691   9.254   8.355   8.533 -0.5450 -0.8667 -0.4089
  398MOL0     H53692   9.458   8.406   8.951 -0.3285  0.2967  0.5889
  398MOL0     H53693   9.651   8.451   9.049 -2.6181  1.6573 -1.6763
  398MOL0     H53694   9.876   8.462   9.099 -2.0131  1.5974  1.8524
  398MOL0     H53695   9.810   8.415   9.258  0.1658 -1.8491  0.9113
  398MOL0     H53696  10.030   8.464   9.292  0.4888 -0.7477  0.3302
  398MOL0     H53697  10.054   8.290   9.272 -0.6230 -0.4665 -2.5393
  398MOL0     H53698  10.116   8.311   9.049 -1.7569 -0.0853  0.0484
  398MOL0     H53699  10.074   8.484   9.044  1.2600  3.2925  3.9886
  398MOL0     H53700  10.284   8.379   9.227 -1.5629  0.5779  2.2608
  398MOL0     H53701  10.242   8.548   9.182 -0.8287 -0.6913  0.4070
  398MOL0     H53702  10.328   8.513   8.951  0.1901 -0.0328 -0.3845
  398MOL0     H53703  10.340   8.342   8.985 -1.5343 -0.0196 -1.0681
  398MOL0     H53704  10.487   8.577   9.122  2.4168  0.2193 -0.3196
  398MOL0     H53705  10.522   8.396   9.150  2.1321  2.1325  0.6727
  398MOL0     H53706  10.552   8.544   8.882 -3.0674 -1.2708 -0.2072
  398MOL0     H53707  10.588   8.370   8.923 -0.9670  0.3904 -3.2646
  398MOL0     H53708  10.747   8.604   9.056  2.6714 -2.3145  3.3570
  398MOL0     H53709  10.758   8.431   9.076  0.8044  1.4012  2.3031
  398MOL0     H53710   9.799   8.050   9.017  1.8132  2.3629 -3.0517
  398MOL0     H53711   9.575   7.983   8.916  0.0230  0.5691 -2.3784
  398MOL0     H53712   9.168   8.033   8.792  0.5863  2.3652  1.5097
  398MOL0     H53713   8.968   7.989   8.695  0.0194 -1.8672 -3.8477
  398MOL0     H53714   7.420   8.667   8.073 -1.0015  0.7110 -0.4874
  398MOL0     H53715   7.222   8.779   8.203 -2.0712 -0.4159 -0.0557
  398MOL0     H53716   7.007   8.890   8.517  0.4114 -1.9337  5.0937
  398MOL0     H53717   6.876   8.970   8.680  0.2816  0.1178  0.4346
  398MOL0     H53718   6.492   8.772   8.756 -0.8584 -0.4417  1.7494
  398MOL0     H53719   6.410   8.886   8.643  0.5990 -0.1921  0.1915
  398MOL0     H53720   6.328   8.897   8.889 -0.4129  0.8328 -0.9415
  398MOL0     H53721   6.403   9.051   8.841  0.1422  0.4450 -1.8421
  398MOL0     H53722   6.606   8.984   8.956 -1.1546  1.7176 -2.9676
  398MOL0     H53723   6.525   8.818   8.994  0.2390 -0.0855  1.4663
  398MOL0     H53724   6.524   8.996   9.192  2.0207  1.0912  0.1040
  398MOL0     H53725   6.419   9.088   9.084 -2.3976 -0.7058  0.1788
  398MOL0     H53726   6.132   8.822   9.200 -0.6127  1.4842 -1.8193
  398MOL0     H53727   6.533   8.740   8.510 -1.4313  2.3639  0.2838
  398MOL0     H53728   6.683   8.662   8.216  1.7206 -1.3727  0.3081
  398MOL0     H53729   6.717   8.535   8.336  3.0986  1.8634 -0.7988
  398MOL0     H53730   6.556   8.636   8.334 -0.3790 -0.6833 -1.5126
  399MOL0     O53731   1.098   5.680   2.665 -0.2747  0.2214 -0.5968
  399MOL0     C53732   1.035   5.788   2.669 -0.2531  0.1104  0.6141
  399MOL0     O53733   1.065   5.896   2.738 -0.6473  0.5282 -0.5160
  399MOL0     C53734   1.184   5.900   2.805 -0.4497  0.3721 -0.5872
  399MOL0     C53735   1.211   5.822   2.913 -0.2883 -0.1080 -0.0565
  399MOL0     C53736   1.333   5.819   2.972  0.0520 -0.5292 -0.2208
  399MOL0     C53737   1.434   5.909   2.932 -0.7987 -0.4941 -0.7031
  399MOL0     O53738   1.551   5.921   2.998 -0.6164 -0.1938  0.0026
  399MOL0     C53739   1.611   5.801   3.037  0.3367  0.4293  0.6008
  399MOL0     C53740   1.767   5.827   3.058  0.1275 -0.1672 -0.0917
  399MOL0     C53741   1.857   5.701   3.044 -0.6697 -0.3605  0.1020
  399MOL0     C53742   2.008   5.738   3.029  0.3272 -0.3076  0.3939
  399MOL0     C53743   2.086   5.605   3.023  0.5604  0.0037  0.8051
  399MOL0     C53744   2.240   5.626   3.024  0.4423 -0.1371 -0.4298
  399MOL0     C53745   2.274   5.738   2.923  0.5972 -0.1560  0.5959
  399MOL0     C53746   2.420   5.752   2.918  0.1032 -0.4742  0.4509
  399MOL0     N53747   2.464   5.857   2.828  0.0424 -0.5632 -0.5752
  399MOL0     C53748   2.465   5.991   2.866  0.6986 -0.4534 -0.1000
  399MOL0     C53749   2.550   6.051   2.788  0.3096 -0.2424 -0.2726
  399MOL0     C53750   2.575   6.193   2.803  0.6243 -0.3394 -0.3047
  399MOL0     C53751   2.654   6.228   2.933  0.7010  0.3785  0.4286
  399MOL0     C53752   2.799   6.187   2.917  0.1080  0.6607  0.1877
  399MOL0     C53753   2.896   6.247   3.014 -0.6432 -0.4036  0.1465
  399MOL0     O53754   3.034   6.221   3.000 -0.2162  0.2585 -0.0706
  399MOL0     C53755   3.125   6.317   2.995 -0.2963  1.4171  0.5078
  399MOL0     C53756   3.243   6.310   3.075 -0.4124  0.6206 -0.6960
  399MOL0     C53757   3.350   6.400   3.069 -0.7066  0.4072 -0.9648
  399MOL0     C53758   3.343   6.502   2.962  0.4112  0.5213 -0.2405
  399MOL0     C53759   3.456   6.601   2.962  0.0066  0.6010 -0.4471
  399MOL0     O53760   3.453   6.698   2.856 -0.0380 -0.5741 -0.1001
  399MOL0     C53761   3.543   6.809   2.842 -0.0443  0.0762  0.0841
  399MOL0     C53762   3.569   6.859   2.717  1.4298  0.7378  0.1705
  399MOL0     C53763   3.656   6.959   2.700 -0.5410 -0.1508  0.5983
  399MOL0     C53764   3.727   7.019   2.809  0.3031 -0.8821  0.0807
  399MOL0     O53765   3.820   7.118   2.791 -0.0574 -1.3614 -1.1399
  399MOL0     C53766   3.936   7.147   2.872 -0.1648 -0.0189 -0.4566
  399MOL0     C53767   4.014   7.273   2.846  0.3813 -0.7772 -0.0001
  399MOL0     C53768   4.155   7.268   2.914  1.2110  0.0281  0.1188
  399MOL0     C53769   4.257   7.370   2.862 -0.0919 -1.0020  0.3514
  399MOL0     C53770   4.214   7.508   2.913 -0.0360  0.3657 -0.8722
  399MOL0     C53771   4.319   7.617   2.904 -0.1690  0.4545  0.2482
  399MOL0     C53772   4.459   7.587   2.970  0.1267  0.5575 -0.2403
  399MOL0     C53773   4.537   7.714   2.996  0.5721  0.2060  0.4554
  399MOL0    Cl53774   4.688   7.680   3.085 -0.1369 -0.1329  0.3057
  399MOL0     C53775   3.695   6.978   2.935  0.3574  0.4819 -0.0667
  399MOL0     C53776   3.610   6.867   2.946  0.4575  0.1869 -0.3507
  399MOL0     O53777   3.541   6.598   3.051 -0.5657  0.4909  0.4382
  399MOL0     C53778   3.234   6.503   2.877  0.6764 -0.6051  0.2439
  399MOL0     C53779   3.127   6.416   2.890  0.5035  0.4188 -0.2089
  399MOL0     N53780   2.593   5.965   2.689  0.6948  0.0037  0.4649
  399MOL0     N53781   2.543   5.848   2.718  0.1647 -0.9744 -0.9092
  399MOL0     C53782   1.402   6.004   2.832 -0.0797 -0.3759 -0.7851
  399MOL0     C53783   1.279   5.992   2.770  0.0011 -1.2280  0.4179
  399MOL0     C53784   0.896   5.783   2.617 -0.9904 -0.7599 -0.5800
  399MOL0     C53785   0.803   5.886   2.655 -0.7101 -0.0234  0.7542
  399MOL0     C53786   0.671   5.885   2.616  0.6080 -0.0684  0.3207
  399MOL0     C53787   0.621   5.779   2.541  0.3035  0.2235 -0.2278
  399MOL0     O53788   0.484   5.752   2.523  0.7366 -0.0637  0.9839
  399MOL0     C53789   0.379   5.833   2.567 -1.2576  0.0631  0.0191
  399MOL0     C53790   0.248   5.803   2.504 -0.0822 -0.8662 -0.9328
  399MOL0     C53791   0.239   5.826   2.357 -1.0285  0.6460 -0.4546
  399MOL0     C53792   0.265   5.970   2.308 -0.0739 -0.0569  0.7703
  399MOL0     C53793   0.185   6.059   2.393  0.0872 -0.4639  0.2578
  399MOL0     C53794   0.123   6.128   2.465 -0.6413 -0.1925 -0.4235
  399MOL0     C53795   0.706   5.680   2.498 -0.1219 -0.0387  1.0464
  399MOL0     C53796   0.839   5.680   2.535 -0.1699  0.1015 -0.0329
  399MOL0     C53797   0.925   5.566   2.478 -0.3623 -0.6013 -0.0161
  399MOL0     H53798   1.146   5.747   2.958  0.6040 -1.9810 -1.7537
  399MOL0     H53799   1.349   5.754   3.057  1.9536  0.7526  0.4461
  399MOL0     H53800   1.580   5.765   3.136  0.0196 -0.0667  0.3231
  399MOL0     H53801   1.599   5.714   2.972  0.6210 -1.0144  2.3785
  399MOL0     H53802   1.781   5.877   3.154 -2.0749  2.9207 -1.2468
  399MOL0     H53803   1.796   5.895   2.977  1.1741 -0.1650  0.2649
  399MOL0     H53804   1.832   5.644   2.954  1.9133  0.9132 -1.5596
  399MOL0     H53805   1.853   5.628   3.125 -2.2282  0.6769  1.0091
  399MOL0     H53806   2.029   5.775   2.929 -0.4041  0.2636  0.4385
  399MOL0     H53807   2.046   5.814   3.099 -0.8339  1.7733 -1.1259
  399MOL0     H53808   2.052   5.540   3.104  0.4095  0.6218  1.2448
  399MOL0     H53809   2.040   5.560   2.934 -0.6762  2.4060  0.1505
  399MOL0     H53810   2.255   5.643   3.131 -0.5546  0.8235 -0.4169
  399MOL0     H53811   2.285   5.529   3.001 -0.1324 -0.3517 -0.6715
  399MOL0     H53812   2.222   5.829   2.955 -0.1164 -0.4851  0.3923
  399MOL0     H53813   2.237   5.708   2.825 -1.7358  0.9294  1.0820
  399MOL0     H53814   2.448   5.774   3.022 -1.9525  1.0087  0.7446
  399MOL0     H53815   2.473   5.659   2.893 -0.3193  0.1121 -3.0542
  399MOL0     H53816   2.413   6.041   2.948  0.4726 -0.1350 -0.4324
  399MOL0     H53817   2.618   6.221   2.707  3.3378 -2.1939  0.2678
  399MOL0     H53818   2.474   6.234   2.813  0.6863 -0.2582  0.0177
  399MOL0     H53819   2.658   6.337   2.943 -0.6714  0.3411  1.8393
  399MOL0     H53820   2.601   6.190   3.021  0.0844  0.0071 -0.0944
  399MOL0     H53821   2.833   6.206   2.815 -1.3277 -0.3325 -0.4940
  399MOL0     H53822   2.811   6.080   2.931 -1.7618 -0.2016 -3.6317
  399MOL0     H53823   2.856   6.215   3.112 -3.0421  1.0341 -0.2792
  399MOL0     H53824   2.889   6.356   3.013  1.4372 -0.2460 -0.4247
  399MOL0     H53825   3.252   6.226   3.143  2.1661 -1.8559 -3.7699
  399MOL0     H53826   3.427   6.401   3.145 -0.6484  0.3521 -1.0231
  399MOL0     H53827   3.503   6.824   2.639  0.4090  3.2604 -0.1788
  399MOL0     H53828   3.694   6.991   2.603 -1.1680 -2.5057 -0.5025
  399MOL0     H53829   3.916   7.141   2.979  0.5323  1.9168 -0.1756
  399MOL0     H53830   4.005   7.063   2.859  0.8389  0.1533  2.8116
  399MOL0     H53831   4.032   7.278   2.738  0.7111 -1.0526  0.0415
  399MOL0     H53832   3.960   7.358   2.888 -0.3671 -2.0887  1.8182
  399MOL0     H53833   4.130   7.292   3.018 -0.9704  2.1767 -0.7883
  399MOL0     H53834   4.196   7.167   2.909  0.0960 -0.3843 -1.6665
  399MOL0     H53835   4.270   7.376   2.754  1.5686  1.2919  0.6089
  399MOL0     H53836   4.357   7.352   2.903  1.1495 -1.8231 -2.7831
  399MOL0     H53837   4.187   7.505   3.019 -3.7723 -0.2449 -1.6947
  399MOL0     H53838   4.128   7.533   2.850  0.4175  1.7036 -1.0052
  399MOL0     H53839   4.328   7.650   2.800 -2.4501  1.0596  0.1995
  399MOL0     H53840   4.289   7.705   2.961  3.0748  1.4232  0.6928
  399MOL0     H53841   4.521   7.512   2.921 -0.5850 -2.5013  3.1030
  399MOL0     H53842   4.437   7.552   3.072  3.3256  0.9356  0.6941
  399MOL0     H53843   4.560   7.763   2.901 -0.6050 -2.1963 -1.1416
  399MOL0     H53844   4.468   7.777   3.054 -1.4943 -2.0793  0.6226
  399MOL0     H53845   3.734   7.017   3.028  1.9493 -0.4916 -0.2831
  399MOL0     H53846   3.590   6.822   3.043  0.1581  0.4106 -0.3061
  399MOL0     H53847   3.240   6.574   2.796  2.9844  0.8377  1.5952
  399MOL0     H53848   3.047   6.412   2.816 -0.8339  2.6948  0.9885
  399MOL0     H53849   1.481   6.076   2.814 -3.1520  3.3503 -0.5249
  399MOL0     H53850   1.248   6.059   2.690  2.4707 -0.8293 -0.2970
  399MOL0     H53851   0.825   5.960   2.730 -1.5855  0.5454  0.4744
  399MOL0     H53852   0.598   5.945   2.669 -0.5785 -1.2536  0.0991
  399MOL0     H53853   0.390   5.942   2.566 -1.3098  0.0719  0.2383
  399MOL0     H53854   0.381   5.829   2.676 -1.2454  0.9606  0.0595
  399MOL0     H53855   0.174   5.859   2.562  0.6356 -0.0291 -0.8107
  399MOL0     H53856   0.234   5.696   2.521  0.9577 -1.0863 -1.3974
  399MOL0     H53857   0.138   5.798   2.325 -1.5068 -0.1482  1.6053
  399MOL0     H53858   0.308   5.758   2.307  0.9275  1.5104  0.9522
  399MOL0     H53859   0.371   5.996   2.301 -0.7612  2.4649 -2.7379
  399MOL0     H53860   0.231   5.981   2.205  1.5733  0.2397  0.2154
  399MOL0     H53861   0.060   6.197   2.517 -0.3068  1.1227 -1.6771
  399MOL0     H53862   0.663   5.596   2.443 -1.2685  1.7667 -1.0101
  399MOL0     H53863   1.024   5.609   2.458 -0.9657  1.3295  0.9686
  399MOL0     H53864   0.922   5.475   2.539  1.0190 -0.4068  0.3771
  399MOL0     H53865   0.884   5.553   2.377  0.0262  1.2608 -0.4529
  400MOL0     O53866   9.626   1.226   7.702 -0.0460  0.3429  0.0488
  400MOL0     C53867   9.675   1.121   7.661  0.2188  0.2431 -0.1636
  400MOL0     O53868   9.604   1.003   7.633 -0.0867  0.2524 -0.6973
  400MOL0     C53869   9.468   1.003   7.603 -0.1914 -0.4046  0.0042
  400MOL0     C53870   9.434   0.951   7.483  0.8505  0.0132  0.6196
  400MOL0     C53871   9.301   0.935   7.449  0.8625  0.9664 -0.0220
  400MOL0     C53872   9.195   0.958   7.541  0.5699  0.0940  0.0959
  400MOL0     O53873   9.066   0.929   7.500 -0.1002  0.0208 -0.1296
  400MOL0     C53874   8.970   0.911   7.604 -0.2706 -0.8095  0.0327
  400MOL0     C53875   8.837   0.886   7.528 -0.2989 -0.4211  0.1308
  400MOL0     C53876   8.802   1.012   7.452 -0.0151 -0.0957 -0.1774
  400MOL0     C53877   8.670   0.983   7.370 -0.2581  0.6333  0.4762
  400MOL0     C53878   8.628   1.107   7.288  0.5825 -0.7926 -0.0838
  400MOL0     C53879   8.629   1.255   7.342  0.4248  0.6487 -0.8796
  400MOL0     C53880   8.625   1.367   7.232 -0.0752  0.6009  0.0559
  400MOL0     C53881   8.763   1.394   7.165 -0.6728 -1.0406  0.1332
  400MOL0     N53882   8.749   1.516   7.070  0.0125  0.2126 -0.9982
  400MOL0     C53883   8.811   1.520   6.949  0.3172 -0.0030  0.5421
  400MOL0     C53884   8.807   1.651   6.906  0.0909 -0.7188 -0.5998
  400MOL0     C53885   8.867   1.715   6.770  0.5227 -0.0055  0.2607
  400MOL0     C53886   8.955   1.837   6.804  0.3559  0.1430 -0.2025
  400MOL0     C53887   9.002   1.898   6.675  0.0850  0.2065  0.0972
  400MOL0     C53888   9.075   2.029   6.703 -0.1478 -0.2821 -0.4947
  400MOL0     O53889   9.203   1.991   6.754  0.0498 -0.5065 -0.0569
  400MOL0     C53890   9.313   2.069   6.743 -0.9340  0.0835 -0.2770
  400MOL0     C53891   9.435   2.012   6.701  0.0164  0.3609 -0.0706
  400MOL0     C53892   9.550   2.096   6.675  0.6237  0.5760 -0.9122
  400MOL0     C53893   9.537   2.232   6.712 -0.9912 -0.4061  0.0664
  400MOL0     C53894   9.655   2.311   6.709 -1.0201 -0.1632  0.1291
  400MOL0     O53895   9.762   2.262   6.638 -0.2633 -0.9999 -0.5571
  400MOL0     C53896   9.866   2.351   6.615 -0.6475  0.1350 -0.4365
  400MOL0     C53897   9.997   2.333   6.657 -1.1035 -0.6354 -0.4486
  400MOL0     C53898  10.098   2.430   6.628 -0.0041  0.3133  0.7192
  400MOL0     C53899  10.068   2.547   6.550 -0.2431 -0.4770 -0.5097
  400MOL0     O53900  10.179   2.613   6.499  0.5442 -0.1464 -0.6222
  400MOL0     C53901  10.165   2.755   6.481  0.0559  0.7324 -0.3460
  400MOL0     C53902  10.295   2.808   6.433 -0.0957  0.3966  0.7265
  400MOL0     C53903  10.411   2.809   6.531 -0.3733 -0.1040 -0.4628
  400MOL0     C53904  10.435   2.687   6.619 -0.5112  0.1470  0.1793
  400MOL0     C53905  10.561   2.707   6.706  0.3036 -0.1807  0.9574
  400MOL0     C53906  10.605   2.563   6.757 -0.1886  0.1608  0.4055
  400MOL0     C53907  10.714   2.585   6.863 -0.0461  0.5535 -0.1807
  400MOL0     C53908  10.855   2.612   6.815 -0.4558 -0.7176 -0.2230
  400MOL0    Cl53909  10.989   2.630   6.943  0.2209 -0.2437 -0.0843
  400MOL0     C53910   9.943   2.563   6.503 -0.0847  0.5461  0.1277
  400MOL0     C53911   9.838   2.468   6.534 -0.7911 -1.1595  0.3457
  400MOL0     O53912   9.661   2.406   6.782 -0.2621  0.0195 -0.2341
  400MOL0     C53913   9.418   2.287   6.750 -0.2371 -0.5547  0.1284
  400MOL0     C53914   9.308   2.207   6.770 -0.0607  0.1778  0.2601
  400MOL0     N53915   8.730   1.717   6.999 -0.7741 -0.2317  0.2796
  400MOL0     N53916   8.699   1.640   7.095 -0.1831  0.6680 -0.4981
  400MOL0     C53917   9.231   1.017   7.664  0.7418 -0.0674  0.3676
  400MOL0     C53918   9.365   1.030   7.698  1.0440  0.4213  1.0281
  400MOL0     C53919   9.824   1.115   7.645 -0.0209  0.1256 -0.2963
  400MOL0     C53920   9.900   1.232   7.646 -0.3032  0.8669 -0.2262
  400MOL0     C53921  10.037   1.231   7.640 -1.1854  0.6351 -0.2752
  400MOL0     C53922  10.100   1.111   7.632 -1.5974  0.8312 -0.7309
  400MOL0     O53923  10.238   1.091   7.629  0.6502  0.1987 -0.0967
  400MOL0     C53924  10.316   1.181   7.709  0.1996  0.2936 -0.0359
  400MOL0     C53925  10.415   1.090   7.786 -0.2965 -0.5045  0.4526
  400MOL0     C53926  10.520   1.065   7.686 -0.3322  0.0185  0.0724
  400MOL0     C53927  10.646   1.024   7.754  0.2149  0.1608  0.3395
  400MOL0     C53928  10.751   0.965   7.673  0.1725 -0.2377 -0.8630
  400MOL0     C53929  10.842   0.913   7.607  0.4959 -0.1438  0.3901
  400MOL0     C53930  10.035   0.997   7.609  0.8036 -0.5730  0.6497
  400MOL0     C53931   9.894   0.994   7.623 -0.4972  0.1778 -0.1369
  400MOL0     C53932   9.838   0.855   7.623 -0.7834 -0.1626 -0.1414
  400MOL0     H53933   9.512   0.907   7.421 -1.8329 -1.7229 -1.7659
  400MOL0     H53934   9.271   0.898   7.352  0.2689  0.5459  0.3207
  400MOL0     H53935   8.999   0.826   7.667 -1.7231 -0.7104  0.8519
  400MOL0     H53936   8.952   0.997   7.669  1.1551 -0.5354  0.1074
  400MOL0     H53937   8.754   0.870   7.598  0.9219  1.1110  2.0376
  400MOL0     H53938   8.847   0.795   7.466 -3.6350 -1.5094  0.9990
  400MOL0     H53939   8.884   1.047   7.388 -0.3848  3.2319  0.9761
  400MOL0     H53940   8.781   1.097   7.517  1.8161  0.6139 -0.4499
  400MOL0     H53941   8.686   0.909   7.292  4.5913  2.4723 -0.6028
  400MOL0     H53942   8.586   0.947   7.431 -1.4862 -1.3727 -2.1565
  400MOL0     H53943   8.698   1.129   7.207 -1.3491  0.5296 -1.4741
  400MOL0     H53944   8.526   1.091   7.251  1.0051 -1.7917 -0.8576
  400MOL0     H53945   8.532   1.268   7.390  0.3721 -1.0719 -0.4681
  400MOL0     H53946   8.706   1.273   7.418  1.2995  0.5862 -1.7250
  400MOL0     H53947   8.594   1.455   7.288  0.3046  0.4274  0.5514
  400MOL0     H53948   8.551   1.329   7.161  2.0949 -3.0154 -0.5678
  400MOL0     H53949   8.829   1.421   7.248 -0.5177 -1.2542  0.0811
  400MOL0     H53950   8.798   1.308   7.108  1.8707  0.0362 -0.0776
  400MOL0     H53951   8.865   1.444   6.894 -2.1823  0.3629 -2.7151
  400MOL0     H53952   8.930   1.648   6.711  1.6345  2.1272 -1.1319
  400MOL0     H53953   8.774   1.744   6.722  0.8879  1.4140  0.3432
  400MOL0     H53954   8.894   1.917   6.847  0.0935  0.5402 -1.2598
  400MOL0     H53955   9.043   1.826   6.868  0.7282  1.0535 -0.5311
  400MOL0     H53956   8.912   1.911   6.614  0.3251 -1.5887 -0.7148
  400MOL0     H53957   9.064   1.829   6.617 -2.7616 -1.3406 -1.3163
  400MOL0     H53958   9.031   2.089   6.784 -0.8828 -0.2366 -0.9188
  400MOL0     H53959   9.082   2.098   6.618 -1.4052  0.4331 -0.0525
  400MOL0     H53960   9.434   1.904   6.693 -2.5093 -0.0037  3.2649
  400MOL0     H53961   9.633   2.040   6.633 -1.1456 -2.5485 -0.5731
  400MOL0     H53962  10.025   2.245   6.713 -1.4492  0.9933  2.4823
  400MOL0     H53963  10.199   2.401   6.654  0.3618  0.1885 -0.7295
  400MOL0     H53964  10.082   2.773   6.412  0.1768 -1.6883 -1.2297
  400MOL0     H53965  10.153   2.807   6.576 -2.2944 -2.6724  1.3981
  400MOL0     H53966  10.327   2.749   6.346 -0.3185 -1.2600  1.7248
  400MOL0     H53967  10.272   2.910   6.403 -2.6280 -0.6368 -1.2225
  400MOL0     H53968  10.506   2.825   6.479  1.2116 -2.9153  1.3155
  400MOL0     H53969  10.413   2.883   6.612  2.2366 -3.0353  2.4559
  400MOL0     H53970  10.454   2.602   6.553  0.0514  0.6823 -0.3546
  400MOL0     H53971  10.343   2.672   6.677 -0.1333  1.8517  1.2965
  400MOL0     H53972  10.538   2.775   6.789 -3.1659  0.0566 -0.0724
  400MOL0     H53973  10.638   2.748   6.639 -0.5419 -2.2170 -1.4063
  400MOL0     H53974  10.523   2.518   6.814 -0.1085  0.5958  0.8749
  400MOL0     H53975  10.641   2.501   6.674 -0.0401 -1.0568  1.3508
  400MOL0     H53976  10.721   2.507   6.940  4.5584  3.1050  2.3865
  400MOL0     H53977  10.695   2.671   6.927  1.0001 -0.0290  0.9639
  400MOL0     H53978  10.872   2.520   6.759 -0.9781 -0.6854 -0.4389
  400MOL0     H53979  10.859   2.690   6.738  0.8221 -0.1629  0.3864
  400MOL0     H53980   9.935   2.643   6.429  2.0824 -0.4790 -1.3241
  400MOL0     H53981   9.736   2.472   6.497  0.0260 -1.7064 -2.2355
  400MOL0     H53982   9.406   2.391   6.779  0.0715 -0.2844 -0.6905
  400MOL0     H53983   9.218   2.242   6.820  0.2250  0.4992  0.5550
  400MOL0     H53984   9.151   1.024   7.737 -3.1252 -4.1050 -2.9625
  400MOL0     H53985   9.384   1.074   7.796 -0.1418  1.3726  0.8493
  400MOL0     H53986   9.844   1.322   7.670 -1.3982  0.4764 -1.2215
  400MOL0     H53987  10.091   1.325   7.648  0.7350 -0.1325 -2.9073
  400MOL0     H53988  10.256   1.224   7.790 -0.0342 -1.2504  0.6487
  400MOL0     H53989  10.360   1.263   7.653 -2.5114  2.9369  1.3745
  400MOL0     H53990  10.371   0.995   7.816  0.6384 -0.7727  1.0100
  400MOL0     H53991  10.463   1.149   7.865  3.0910  0.2576 -1.9543
  400MOL0     H53992  10.537   1.158   7.631 -1.5822 -0.1139 -0.5626
  400MOL0     H53993  10.485   0.991   7.614  1.3068 -0.3823 -0.3449
  400MOL0     H53994  10.683   1.113   7.806  0.7724 -0.5666  1.2192
  400MOL0     H53995  10.614   0.962   7.838 -1.2478  0.2589 -0.1253
  400MOL0     H53996  10.928   0.867   7.563  0.3419  1.3175 -1.5984
  400MOL0     H53997  10.089   0.906   7.584 -0.1937 -1.5528  1.9238
  400MOL0     H53998   9.782   0.833   7.714 -2.5154 -0.8881 -1.3302
  400MOL0     H53999   9.769   0.858   7.538  1.1313  0.0377 -1.7616
  400MOL0     H54000   9.916   0.778   7.616 -0.6056  0.0786 -0.9874
  401MOL0     O54001   6.267   9.439   7.027  0.5790  0.2661 -0.1011
  401MOL0     C54002   6.186   9.503   6.958 -0.1439  0.8353 -0.5774
  401MOL0     O54003   6.229   9.566   6.842  0.6596  0.0443 -0.2701
  401MOL0     C54004   6.354   9.551   6.788  0.7665  0.2724 -0.6762
  401MOL0     C54005   6.430   9.436   6.777  0.8046  0.8151  0.2347
  401MOL0     C54006   6.538   9.429   6.695 -0.3687  0.1123  0.1455
  401MOL0     C54007   6.590   9.540   6.640  0.8384 -0.5172  0.4662
  401MOL0     O54008   6.707   9.520   6.565  1.0316  0.0192  0.5698
  401MOL0     C54009   6.792   9.626   6.520 -0.0879  1.3609  0.4041
  401MOL0     C54010   6.919   9.563   6.468  0.3639  0.2151 -0.8320
  401MOL0     C54011   6.919   9.473   6.340 -0.0230 -0.1745 -0.6489
  401MOL0     C54012   7.065   9.409   6.312  0.3637  0.0931  0.1982
  401MOL0     C54013   7.076   9.388   6.162  0.4829 -0.4001  0.5766
  401MOL0     C54014   7.198   9.295   6.136  0.1799  0.0949  0.6830
  401MOL0     C54015   7.254   9.291   5.989 -0.0010 -0.5797  0.3663
  401MOL0     C54016   7.396   9.255   5.979  0.0329  0.2716  0.2672
  401MOL0     N54017   7.409   9.120   6.034  0.1829 -0.0351 -0.3608
  401MOL0     C54018   7.375   8.997   5.976  0.7361 -0.1154  0.5728
  401MOL0     C54019   7.438   8.908   6.050  0.8829  1.3036 -0.6903
  401MOL0     C54020   7.448   8.753   6.033 -0.2948 -0.4227  0.1683
  401MOL0     C54021   7.596   8.697   6.048  0.9021  1.2148  0.2659
  401MOL0     C54022   7.674   8.733   5.925  0.6497 -0.4281  0.1638
  401MOL0     C54023   7.825   8.695   5.935 -0.7194 -0.2711 -0.3551
  401MOL0     O54024   7.841   8.559   5.954 -0.5976 -0.2989  0.0714
  401MOL0     C54025   7.965   8.510   5.956 -0.0482  0.2528  0.2169
  401MOL0     C54026   8.085   8.580   5.951  0.4984 -0.3110  0.5390
  401MOL0     C54027   8.203   8.520   5.949 -1.0315 -0.3231  1.1509
  401MOL0     C54028   8.219   8.376   5.946  0.5237 -0.0010 -0.8583
  401MOL0     C54029   8.352   8.314   5.935  0.5087  0.4428 -1.1728
  401MOL0     O54030   8.363   8.183   5.953 -0.1525  0.5051 -0.1072
  401MOL0     C54031   8.487   8.134   5.950  0.0792 -0.0291 -0.1324
  401MOL0     C54032   8.558   8.110   5.826 -0.0638 -0.3107 -0.2000
  401MOL0     C54033   8.686   8.057   5.814  0.2897  0.1281 -0.0400
  401MOL0     C54034   8.756   8.013   5.926 -0.2276  0.1848 -0.6912
  401MOL0     O54035   8.883   7.964   5.925 -0.4999 -0.1377  0.0743
  401MOL0     C54036   8.938   7.895   5.815  0.8209  0.8370  0.3527
  401MOL0     C54037   9.090   7.911   5.827  1.2686 -0.4192  0.1942
  401MOL0     C54038   9.133   8.056   5.828  0.2356 -0.5446  0.9162
  401MOL0     C54039   9.241   8.080   5.720 -0.2072 -0.2201 -0.1460
  401MOL0     C54040   9.259   8.224   5.677 -0.8904 -0.2098 -0.1175
  401MOL0     C54041   9.338   8.239   5.546  0.4605 -0.1368 -0.2164
  401MOL0     C54042   9.473   8.165   5.538  0.0098  0.1437 -1.3967
  401MOL0     C54043   9.591   8.241   5.607  0.3770  0.4490  0.1116
  401MOL0    Cl54044   9.582   8.261   5.788  0.3726 -0.0622 -0.4579
  401MOL0     C54045   8.697   8.041   6.052  0.3627 -0.2945  0.0524
  401MOL0     C54046   8.563   8.098   6.063 -0.5050 -0.6753  0.0730
  401MOL0     O54047   8.447   8.400   5.931  0.5290 -0.0494 -0.8051
  401MOL0     C54048   8.100   8.301   5.943 -0.1738 -0.5019 -0.3002
  401MOL0     C54049   7.976   8.372   5.951  0.1369  0.5500 -0.5588
  401MOL0     N54050   7.501   8.975   6.155  0.1756 -0.4314  0.7683
  401MOL0     N54051   7.481   9.100   6.148  0.1994  0.1133 -0.3999
  401MOL0     C54052   6.515   9.658   6.654  0.2827 -0.7035  0.6029
  401MOL0     C54053   6.396   9.663   6.719 -0.9927  0.9484 -0.0527
  401MOL0     C54054   6.046   9.505   7.012  0.6067  0.6339  0.7181
  401MOL0     C54055   6.009   9.442   7.138 -0.9225 -0.5813  0.3750
  401MOL0     C54056   5.876   9.425   7.175 -0.0225 -0.6256 -0.4136
  401MOL0     C54057   5.763   9.476   7.103  0.0828 -0.8433  0.1520
  401MOL0     O54058   5.632   9.448   7.124  0.1885 -0.4162  0.3105
  401MOL0     C54059   5.606   9.368   7.235 -0.6469  0.0941  0.2565
  401MOL0     C54060   5.461   9.335   7.230  0.1848 -0.5370 -0.1362
  401MOL0     C54061   5.383   9.444   7.311  0.1286 -0.4567  0.5030
  401MOL0     C54062   5.241   9.402   7.347 -0.7991 -0.3802  0.6638
  401MOL0     C54063   5.175   9.384   7.221 -0.6526  0.0927  0.6009
  401MOL0     C54064   5.114   9.360   7.117  0.6426  0.1426 -0.3347
  401MOL0     C54065   5.803   9.543   6.984 -0.2480  1.0752  0.7850
  401MOL0     C54066   5.935   9.557   6.937 -0.3114 -0.0769 -0.2671
  401MOL0     C54067   5.954   9.628   6.811  0.0252  0.1883  0.7449
  401MOL0     H54068   6.385   9.351   6.829 -0.9088  2.1073  0.9595
  401MOL0     H54069   6.597   9.340   6.676 -0.2044  0.3047 -0.2507
  401MOL0     H54070   6.745   9.679   6.437 -4.3990  0.8278  2.2655
  401MOL0     H54071   6.819   9.702   6.594 -0.2961  0.0750  1.8540
  401MOL0     H54072   6.957   9.505   6.552 -0.3551  0.8909 -0.0202
  401MOL0     H54073   6.981   9.652   6.461 -2.0539  2.1915  1.0784
  401MOL0     H54074   6.874   9.534   6.261 -1.2094  0.3541  0.4051
  401MOL0     H54075   6.850   9.388   6.336  0.4419 -0.5443 -0.9880
  401MOL0     H54076   7.141   9.481   6.344  0.0191  0.5552 -0.0136
  401MOL0     H54077   7.085   9.317   6.368  3.9747  0.4184 -0.3087
  401MOL0     H54078   6.979   9.357   6.124  2.7570 -3.8067 -3.3947
  401MOL0     H54079   7.102   9.483   6.114 -0.7767 -0.9256 -1.2634
  401MOL0     H54080   7.277   9.335   6.200 -1.7342  2.5507  1.7250
  401MOL0     H54081   7.178   9.191   6.163  0.7107 -0.6854 -1.6779
  401MOL0     H54082   7.253   9.390   5.943  1.3251 -0.0850  1.3425
  401MOL0     H54083   7.200   9.223   5.921 -0.8930  0.4691  0.0004
  401MOL0     H54084   7.417   9.240   5.873 -0.3131 -1.5713  0.4251
  401MOL0     H54085   7.463   9.324   6.030  0.5758  1.6691 -2.1695
  401MOL0     H54086   7.336   8.973   5.877 -2.7965  5.3183  0.1649
  401MOL0     H54087   7.382   8.713   6.111  0.1341 -0.5373  0.4773
  401MOL0     H54088   7.417   8.726   5.932  4.0241  1.0190 -1.7755
  401MOL0     H54089   7.641   8.737   6.139  1.4011 -2.8206  2.0069
  401MOL0     H54090   7.589   8.588   6.055 -1.0263  1.1892 -1.2094
  401MOL0     H54091   7.662   8.838   5.898 -0.9272 -0.4117  0.8152
  401MOL0     H54092   7.632   8.676   5.841 -0.3591 -0.7607  0.8822
  401MOL0     H54093   7.861   8.759   6.016 -2.4712  2.3318 -1.5123
  401MOL0     H54094   7.871   8.729   5.842 -2.0012  3.4048  0.1928
  401MOL0     H54095   8.081   8.688   5.949  0.5659 -0.2657 -2.6620
  401MOL0     H54096   8.292   8.578   5.968  1.1687 -1.2586 -4.3496
  401MOL0     H54097   8.506   8.157   5.743 -1.1424  0.9969  1.1748
  401MOL0     H54098   8.736   8.051   5.718  0.9245 -5.3121  0.2988
  401MOL0     H54099   8.914   7.788   5.819 -1.8674  1.3502 -0.0727
  401MOL0     H54100   8.902   7.935   5.720  0.1667 -0.6191 -0.0388
  401MOL0     H54101   9.122   7.869   5.923  1.3562 -2.3448 -0.6339
  401MOL0     H54102   9.141   7.841   5.760  0.5568 -3.1329  2.3060
  401MOL0     H54103   9.049   8.123   5.808  2.0499  1.4424 -0.6059
  401MOL0     H54104   9.169   8.076   5.930  2.0005  1.0915  0.0445
  401MOL0     H54105   9.206   8.024   5.633  0.0460  1.3091 -1.2732
  401MOL0     H54106   9.336   8.033   5.747  1.5807  0.6828 -4.1348
  401MOL0     H54107   9.300   8.286   5.757 -1.9141  0.8103 -0.3462
  401MOL0     H54108   9.162   8.267   5.652  0.1596  0.5315 -3.6120
  401MOL0     H54109   9.273   8.204   5.466 -1.4763  3.9212 -0.6940
  401MOL0     H54110   9.342   8.346   5.522  2.3758  0.4304  2.1266
  401MOL0     H54111   9.501   8.143   5.435 -1.3283 -4.1276 -1.0669
  401MOL0     H54112   9.463   8.063   5.577  0.1168  0.1549 -1.3393
  401MOL0     H54113   9.674   8.173   5.586  0.1647  0.7738 -2.0166
  401MOL0     H54114   9.608   8.340   5.563 -0.2920  0.6149  0.2142
  401MOL0     H54115   8.754   8.034   6.144  2.1668  2.5346 -0.7100
  401MOL0     H54116   8.521   8.099   6.163 -0.3822 -0.7994  0.1273
  401MOL0     H54117   8.100   8.193   5.940 -0.4318 -0.5853  1.7437
  401MOL0     H54118   7.884   8.317   5.933  1.8776 -2.0742 -2.1955
  401MOL0     H54119   6.544   9.756   6.618  0.6222 -1.3878 -1.0354
  401MOL0     H54120   6.336   9.754   6.722 -1.4112  0.7377 -1.2816
  401MOL0     H54121   6.090   9.394   7.192 -0.7597  1.7934  2.4882
  401MOL0     H54122   5.849   9.357   7.256 -1.1409 -0.6887 -0.8223
  401MOL0     H54123   5.631   9.404   7.336 -4.8464 -1.0941  1.9259
  401MOL0     H54124   5.657   9.275   7.210  1.9201  1.1956  1.0035
  401MOL0     H54125   5.436   9.234   7.265 -1.8372 -0.5112 -1.3721
  401MOL0     H54126   5.430   9.332   7.125  3.0903 -0.9871 -1.0911
  401MOL0     H54127   5.372   9.539   7.257 -0.6570 -0.9917 -0.3024
  401MOL0     H54128   5.440   9.474   7.399  0.7297 -0.4370  0.1122
  401MOL0     H54129   5.259   9.312   7.407 -1.0479  0.5662  2.2181
  401MOL0     H54130   5.191   9.482   7.402 -1.7645  0.8495 -1.8606
  401MOL0     H54131   5.061   9.325   7.031 -0.4259 -1.4218  0.8884
  401MOL0     H54132   5.720   9.569   6.920 -0.3622 -2.3626 -0.6514
  401MOL0     H54133   5.988   9.729   6.837  1.3614 -0.1436  0.4149
  401MOL0     H54134   6.011   9.578   6.731 -2.9474  0.8013 -1.9470
  401MOL0     H54135   5.852   9.620   6.773 -0.7475  1.0158  2.5542
  402MOL0     O54136  10.114   9.475  10.624  0.2479  0.1616 -0.0796
  402MOL0     C54137  10.181   9.440  10.726  0.0624  0.0351  0.5708
  402MOL0     O54138  10.151   9.461  10.861  0.3863  0.8354  0.3606
  402MOL0     C54139  10.029   9.449  10.913  0.1560 -0.7710  0.5919
  402MOL0     C54140   9.927   9.389  10.848 -0.8663  0.3358  0.0564
  402MOL0     C54141   9.800   9.364  10.899 -0.0362 -0.7272 -0.7674
  402MOL0     C54142   9.778   9.414  11.025 -0.1652  0.6938  0.0187
  402MOL0     O54143   9.657   9.374  11.085 -0.6007 -0.6860 -0.2894
  402MOL0     C54144   9.581   9.493  11.129  0.1051  0.3505  0.5508
  402MOL0     C54145   9.436   9.435  11.162 -0.1506 -0.3266 -0.2878
  402MOL0     C54146   9.396   9.541  11.282  1.8888  0.2675 -0.1461
  402MOL0     C54147   9.252   9.502  11.317 -0.0470 -0.3844 -0.6969
  402MOL0     C54148   9.210   9.582  11.434 -0.1603 -0.5175 -0.2248
  402MOL0     C54149   9.051   9.568  11.461 -0.6240  0.5831 -0.1959
  402MOL0     C54150   9.000   9.425  11.463  0.6473  1.3226 -0.2486
  402MOL0     C54151   8.852   9.432  11.497 -0.5923  0.1778 -0.1857
  402MOL0     N54152   8.766   9.309  11.487 -0.2453 -0.3055  0.2685
  402MOL0     C54153   8.682   9.281  11.384 -1.5103  0.3445  0.1768
  402MOL0     C54154   8.611   9.177  11.431 -0.1201  0.6564  0.6595
  402MOL0     C54155   8.497   9.103  11.369 -0.2142 -0.8751  0.0479
  402MOL0     C54156   8.368   9.183  11.393 -0.6473  0.4066  1.5084
  402MOL0     C54157   8.320   9.178  11.538  0.5435  0.4791 -0.1976
  402MOL0     C54158   8.170   9.207  11.559 -0.8765  0.2343 -0.1989
  402MOL0     O54159   8.140   9.214  11.701 -0.8167  0.4726 -0.1402
  402MOL0     C54160   8.009   9.229  11.742 -0.9676 -0.3780  0.3112
  402MOL0     C54161   7.909   9.257  11.653 -0.2985  0.2881  0.1557
  402MOL0     C54162   7.770   9.273  11.693 -0.4744  0.1302  0.1702
  402MOL0     C54163   7.743   9.246  11.834 -0.1506  0.5836 -0.0743
  402MOL0     C54164   7.610   9.261  11.885 -0.1509 -0.0777  0.2314
  402MOL0     O54165   7.530   9.323  11.798  0.7864  0.5925 -0.3537
  402MOL0     C54166   7.405   9.371  11.840 -0.4727  0.5494  1.3845
  402MOL0     C54167   7.365   9.480  11.776 -0.6042  0.1030  0.6535
  402MOL0     C54168   7.244   9.543  11.801  0.8452  0.9201 -0.1346
  402MOL0     C54169   7.153   9.489  11.890  0.2596 -0.8243  0.3327
  402MOL0     O54170   7.029   9.546  11.899  0.0809 -0.6438 -1.0209
  402MOL0     C54171   6.958   9.527  12.023 -0.6024  0.7137  0.7817
  402MOL0     C54172   6.902   9.656  12.071  0.3466 -0.0813  0.1372
  402MOL0     C54173   6.805   9.706  11.968  0.1931  1.3228  0.3044
  402MOL0     C54174   6.736   9.842  12.012  0.8561  0.7589 -0.3837
  402MOL0     C54175   6.671   9.911  11.896 -0.0880  0.6095  0.6679
  402MOL0     C54176   6.544   9.850  11.853  0.8322  0.5517  0.4020
  402MOL0     C54177   6.421   9.878  11.942 -0.8134 -0.2270  0.4605
  402MOL0     C54178   6.348   9.754  11.997 -0.0830 -0.7922 -0.8259
  402MOL0    Cl54179   6.461   9.653  12.101  0.0138  0.4002 -0.0395
  402MOL0     C54180   7.190   9.367  11.956 -0.4397 -0.9826 -0.7699
  402MOL0     C54181   7.314   9.311  11.933 -1.1343  0.3996  0.6190
  402MOL0     O54182   7.590   9.223  11.997 -0.8263 -0.1346 -1.0887
  402MOL0     C54183   7.848   9.225  11.926  0.9197  0.0807 -0.7662
  402MOL0     C54184   7.981   9.214  11.882 -0.1079  0.1396  0.1771
  402MOL0     N54185   8.673   9.132  11.547  0.9593 -0.3622 -0.0872
  402MOL0     N54186   8.758   9.212  11.587  0.2450 -0.8501 -0.2647
  402MOL0     C54187   9.884   9.478  11.099  0.3450  0.0107  0.2100
  402MOL0     C54188  10.005   9.504  11.038  0.2174  0.2268 -0.0775
  402MOL0     C54189  10.308   9.360  10.696 -0.2583 -0.0254  0.1090
  402MOL0     C54190  10.313   9.273  10.583  0.5340 -1.1638 -0.7344
  402MOL0     C54191  10.431   9.210  10.546  0.6655  0.7277 -0.6093
  402MOL0     C54192  10.551   9.226  10.617  0.8544 -0.5981 -0.1676
  402MOL0     O54193  10.660   9.143  10.580  0.5888 -0.2325 -0.1065
  402MOL0     C54194  10.782   9.136  10.651  0.8964  0.9357 -0.9260
  402MOL0     C54195  10.865   9.250  10.625 -0.9849  0.3592 -0.2589
  402MOL0     C54196  11.005   9.240  10.699  0.1833  0.2057  0.4058
  402MOL0     C54197  11.002   9.205  10.851  0.0200 -0.4692 -0.1431
  402MOL0     C54198  11.138   9.217  10.905 -0.3557  0.3788  1.0772
  402MOL0     C54199  11.247   9.223  10.956  0.2345  0.0200  0.0873
  402MOL0     C54200  10.552   9.320  10.725  0.7135  1.2402 -0.0072
  402MOL0     C54201  10.432   9.382  10.762  0.0100 -1.1164 -0.5248
  402MOL0     C54202  10.440   9.481  10.885  0.1350  0.4139  0.8197
  402MOL0     H54203   9.949   9.337  10.755 -0.5938  1.3344 -0.4466
  402MOL0     H54204   9.720   9.311  10.848  0.8827 -1.2363 -1.6982
  402MOL0     H54205   9.624   9.518  11.226 -0.5667 -2.3416  1.6574
  402MOL0     H54206   9.585   9.579  11.062 -2.6893 -0.5152 -0.9076
  402MOL0     H54207   9.439   9.337  11.211 -1.0598 -0.7321 -1.0144
  402MOL0     H54208   9.362   9.422  11.082 -2.7311 -1.3324  2.0993
  402MOL0     H54209   9.401   9.639  11.234  2.0489  0.8297  0.9778
  402MOL0     H54210   9.469   9.535  11.363  1.7696  1.9940  0.1216
  402MOL0     H54211   9.189   9.522  11.229 -0.4040 -1.9427 -0.8154
  402MOL0     H54212   9.238   9.397  11.342 -0.1860 -0.3251 -0.5254
  402MOL0     H54213   9.269   9.552  11.521  0.4637 -2.5266 -1.2899
  402MOL0     H54214   9.236   9.686  11.411 -0.3328 -0.4465 -0.1070
  402MOL0     H54215   9.034   9.616  11.558  0.4024 -0.3687  0.4813
  402MOL0     H54216   8.999   9.623  11.382  0.2749  1.0990 -0.4496
  402MOL0     H54217   9.052   9.362  11.535 -0.4225  2.4642  1.6092
  402MOL0     H54218   9.005   9.384  11.362  1.9344 -1.4318  0.8441
  402MOL0     H54219   8.851   9.481  11.595  2.5381  4.4441 -1.9998
  402MOL0     H54220   8.811   9.515  11.438 -2.2935  0.4282  1.2705
  402MOL0     H54221   8.663   9.348  11.301  0.4058  3.0318  1.7665
  402MOL0     H54222   8.519   9.093  11.263  1.7776  2.2167  0.0451
  402MOL0     H54223   8.475   9.003  11.408 -0.6344 -1.7888 -2.3559
  402MOL0     H54224   8.375   9.289  11.367 -0.3736  0.3267  1.2560
  402MOL0     H54225   8.290   9.146  11.326 -1.3592  1.6955  1.6055
  402MOL0     H54226   8.384   9.246  11.596 -0.5185  1.5350 -0.2308
  402MOL0     H54227   8.337   9.076  11.573 -0.3697  0.0498 -0.9485
  402MOL0     H54228   8.107   9.126  11.523  0.7977  0.3165 -3.7257
  402MOL0     H54229   8.143   9.295  11.500  0.4185  1.2677  0.6745
  402MOL0     H54230   7.923   9.252  11.546 -1.2870  1.8514 -0.0707
  402MOL0     H54231   7.693   9.301  11.622 -2.5976  1.1916  2.7202
  402MOL0     H54232   7.430   9.530  11.704 -0.7409  0.4789  0.7931
  402MOL0     H54233   7.221   9.630  11.739 -0.6522  1.0218  0.5107
  402MOL0     H54234   6.884   9.448  12.009  1.0926 -1.0323  1.2869
  402MOL0     H54235   7.017   9.489  12.106 -0.6812  0.8240  0.8879
  402MOL0     H54236   6.838   9.635  12.157 -1.5949 -2.7307 -1.7796
  402MOL0     H54237   6.978   9.728  12.102 -0.0425  1.1427 -1.5868
  402MOL0     H54238   6.852   9.718  11.870  2.7031 -0.2188  1.2441
  402MOL0     H54239   6.725   9.632  11.952  1.3139  0.6432 -2.8169
  402MOL0     H54240   6.818   9.897  12.059  0.3995 -0.3034  1.8200
  402MOL0     H54241   6.659   9.826  12.089 -1.1144 -1.5411 -2.6106
  402MOL0     H54242   6.734   9.911  11.806 -0.8354  0.9671  0.1337
  402MOL0     H54243   6.657  10.018  11.915  2.6158  1.2943 -0.6993
  402MOL0     H54244   6.525   9.886  11.751  0.2303 -0.9483 -0.0417
  402MOL0     H54245   6.562   9.742  11.842 -0.1683  0.4135 -0.0121
  402MOL0     H54246   6.346   9.930  11.882 -1.1787 -2.9891 -1.7361
  402MOL0     H54247   6.455   9.936  12.028  0.9149 -0.1522 -0.2325
  402MOL0     H54248   6.261   9.790  12.053  0.1678 -1.5077  0.0490
  402MOL0     H54249   6.311   9.695  11.912  1.5524 -0.5522 -1.7570
  402MOL0     H54250   7.126   9.317  12.028  0.3763 -1.6868 -0.5115
  402MOL0     H54251   7.339   9.212  11.971  4.2349  1.0013 -0.5562
  402MOL0     H54252   7.828   9.203  12.031  2.3023 -1.9202 -0.8550
  402MOL0     H54253   8.051   9.185  11.959  1.1779  0.9104 -0.6779
  402MOL0     H54254   9.888   9.499  11.205  1.5188 -1.6096  0.5315
  402MOL0     H54255  10.080   9.560  11.093  2.5502 -0.6494 -2.2014
  402MOL0     H54256  10.221   9.251  10.530 -1.8736 -0.1063  2.6513
  402MOL0     H54257  10.417   9.127  10.477 -2.0451  1.5002 -1.0997
  402MOL0     H54258  10.840   9.056  10.605 -1.2195 -0.5323 -1.1802
  402MOL0     H54259  10.760   9.108  10.755 -1.3664 -0.2894 -1.6505
  402MOL0     H54260  10.816   9.338  10.667  1.4567  0.4026  2.9478
  402MOL0     H54261  10.885   9.255  10.518  2.8590 -0.2499  0.2690
  402MOL0     H54262  11.053   9.338  10.692  0.6529 -0.1207 -1.7399
  402MOL0     H54263  11.071   9.174  10.642 -1.1651 -1.9926  1.2645
  402MOL0     H54264  10.929   9.267  10.905  1.4539  2.1072 -0.9685
  402MOL0     H54265  10.964   9.103  10.856 -1.0711 -0.2866 -2.7672
  402MOL0     H54266  11.345   9.200  10.992  1.0073 -1.0790 -2.4901
  402MOL0     H54267  10.645   9.335  10.779  0.0310  0.4442  1.4423
  402MOL0     H54268  10.409   9.583  10.863 -0.7488 -0.3362 -1.8521
  402MOL0     H54269  10.380   9.437  10.965 -0.1138  0.9877  0.9515
  402MOL0     H54270  10.547   9.492  10.906  0.6019 -2.0434  0.0438
  403MOL0     O54271  10.321  10.218   6.227 -0.3685 -0.6590 -0.1202
  403MOL0     C54272  10.433  10.181   6.220 -0.0900  0.9919 -0.3475
  403MOL0     O54273  10.532  10.247   6.151 -0.4289 -0.4502  0.4432
  403MOL0     C54274  10.512  10.387   6.134  0.3894  0.5355 -0.4611
  403MOL0     C54275  10.566  10.468   6.236  0.1881  0.6147 -0.1238
  403MOL0     C54276  10.559  10.608   6.230 -0.0432 -0.3668 -1.1391
  403MOL0     C54277  10.499  10.672   6.117  0.1290  0.6756  0.1100
  403MOL0     O54278  10.509  10.811   6.115 -0.2160 -0.5324  0.4951
  403MOL0     C54279  10.525  10.863   5.983  0.4616 -0.2264 -0.2896
  403MOL0     C54280  10.517  11.011   5.968 -0.1008  0.5759 -0.9329
  403MOL0     C54281  10.609  11.091   6.060 -1.1474  0.0032  0.4473
  403MOL0     C54282  10.761  11.042   6.059  0.2213 -0.3646  0.1026
  403MOL0     C54283  10.852  11.172   6.074 -0.3416 -0.0824 -0.8501
  403MOL0     C54284  10.999  11.124   6.074  0.0461  0.1180 -0.0914
  403MOL0     C54285  11.091  11.218   6.154 -0.1756  0.0294  0.9371
  403MOL0     C54286  11.077  11.187   6.298 -0.2705  0.7546  0.9743
  403MOL0     N54287  11.188  11.238   6.377  0.1809 -0.3377 -0.6899
  403MOL0     C54288  11.303  11.171   6.406  0.9339 -0.4252 -0.5924
  403MOL0     C54289  11.397  11.270   6.428 -0.7565 -0.5850  0.0664
  403MOL0     C54290  11.546  11.247   6.450 -0.7165 -0.2276  0.1213
  403MOL0     C54291  11.635  11.349   6.391  0.0907 -0.9456  1.0996
  403MOL0     C54292  11.779  11.312   6.429  0.1487  0.0613  0.7471
  403MOL0     C54293  11.875  11.316   6.301  0.3755 -0.3067 -0.0770
  403MOL0     O54294  12.002  11.359   6.355  0.8035  0.2262  0.8240
  403MOL0     C54295  12.059  11.299   6.465 -0.6727  0.1402 -0.3372
  403MOL0     C54296  12.043  11.162   6.490 -0.0979  0.4424 -0.6180
  403MOL0     C54297  12.093  11.103   6.609  0.1730  0.7481  0.1200
  403MOL0     C54298  12.183  11.178   6.687 -0.1499  0.0323 -0.5341
  403MOL0     C54299  12.269  11.117   6.781  0.2118  0.4248  0.2009
  403MOL0     O54300  12.323  11.199   6.872 -0.3612  0.4017  0.0745
  403MOL0     C54301  12.425  11.147   6.950 -0.4310  0.5572  0.2952
  403MOL0     C54302  12.424  11.121   7.088  0.2592  0.3227 -1.1870
  403MOL0     C54303  12.535  11.045   7.134 -0.5086  0.9017 -0.8596
  403MOL0     C54304  12.649  11.010   7.068  1.7227 -0.4064 -1.3231
  403MOL0     O54305  12.750  10.960   7.147 -0.7415 -0.1742  1.0305
  403MOL0     C54306  12.863  10.904   7.074 -0.5147 -1.0603  0.7824
  403MOL0     C54307  12.946  10.812   7.172  0.1281  0.4675  1.6879
  403MOL0     C54308  13.008  10.880   7.297  0.2498 -0.1065  0.5924
  403MOL0     C54309  13.157  10.859   7.302 -0.3320 -0.6122 -0.5122
  403MOL0     C54310  13.238  10.956   7.389  0.7491  0.2141  0.1257
  403MOL0     C54311  13.392  10.931   7.379  0.3667 -0.6507  0.2147
  403MOL0     C54312  13.449  10.798   7.416  0.2591 -0.0007 -0.0999
  403MOL0     C54313  13.600  10.795   7.386 -0.2068  0.5967 -0.4783
  403MOL0    Cl54314  13.698  10.894   7.495  0.8042 -0.1434  0.3358
  403MOL0     C54315  12.639  11.036   6.935 -0.8082  0.9248 -0.4726
  403MOL0     C54316  12.544  11.111   6.874  0.0106  0.7968 -0.2505
  403MOL0     O54317  12.272  10.997   6.773  0.2926  0.3521 -0.4727
  403MOL0     C54318  12.199  11.319   6.658  0.5508  0.1002 -0.3179
  403MOL0     C54319  12.134  11.377   6.546 -0.3028  0.4118 -0.5651
  403MOL0     N54320  11.333  11.389   6.435  0.3364  0.4284  0.2951
  403MOL0     N54321  11.206  11.372   6.402 -0.0604  0.6328  1.0058
  403MOL0     C54322  10.425  10.584   6.033 -0.2483  0.2714 -0.8840
  403MOL0     C54323  10.426  10.445   6.038  0.6029  0.8012  0.7800
  403MOL0     C54324  10.462  10.042   6.253 -0.7674  0.1733 -0.0434
  403MOL0     C54325  10.377   9.944   6.211 -0.3918 -0.1206  1.1669
  403MOL0     C54326  10.394   9.810   6.246 -0.4689 -0.7653 -0.1185
  403MOL0     C54327  10.511   9.765   6.315  0.7032 -0.1757 -0.2745
  403MOL0     O54328  10.524   9.629   6.329  1.0555 -0.4110  0.1356
  403MOL0     C54329  10.649   9.567   6.365  0.6019  0.2578 -0.6740
  403MOL0     C54330  10.676   9.567   6.516  0.4577 -0.1350 -0.2981
  403MOL0     C54331  10.604   9.445   6.592 -0.8406 -1.3756 -0.4211
  403MOL0     C54332  10.449   9.451   6.594 -0.5367 -0.5288 -0.5078
  403MOL0     C54333  10.380   9.326   6.632 -0.6762  0.0318  1.3880
  403MOL0     C54334  10.319   9.226   6.644  0.1547 -0.8880 -0.7189
  403MOL0     C54335  10.605   9.862   6.357 -1.1271 -0.5499  0.4196
  403MOL0     C54336  10.582  10.002   6.322  0.2319  0.0020 -0.2931
  403MOL0     C54337  10.676  10.114   6.364 -0.7301  0.2204  0.2645
  403MOL0     H54338  10.607  10.420   6.324 -4.3872  0.7784  2.4033
  403MOL0     H54339  10.616  10.660   6.307 -0.6474  0.4656 -1.2424
  403MOL0     H54340  10.600  10.806   5.928  2.4237 -0.8777  2.7962
  403MOL0     H54341  10.434  10.830   5.930  1.8195 -1.6089 -1.8733
  403MOL0     H54342  10.417  11.043   5.999 -0.1327  2.6089 -2.8854
  403MOL0     H54343  10.540  11.037   5.864  2.3783 -5.2238 -2.2427
  403MOL0     H54344  10.560  11.090   6.158 -3.9520  1.7363 -0.8298
  403MOL0     H54345  10.600  11.195   6.029 -1.2018 -0.0689  0.2246
  403MOL0     H54346  10.779  10.975   6.143 -2.1781 -0.4102  0.6663
  403MOL0     H54347  10.785  10.985   5.969 -0.6566 -1.2807  0.4258
  403MOL0     H54348  10.835  11.242   5.991  2.0956  0.3274 -1.0738
  403MOL0     H54349  10.813  11.213   6.168 -1.3698 -2.5055 -0.1450
  403MOL0     H54350  11.000  11.021   6.112  0.8687 -0.0979 -0.6838
  403MOL0     H54351  11.025  11.146   5.970  1.1075 -0.0829  0.1198
  403MOL0     H54352  11.057  11.321   6.140 -1.1500 -0.1433  1.9161
  403MOL0     H54353  11.192  11.198   6.116 -0.0924 -1.8658  2.0580
  403MOL0     H54354  10.990  11.235   6.343 -0.4897  0.0367  1.3416
  403MOL0     H54355  11.063  11.079   6.312 -1.8361  0.8960  0.7355
  403MOL0     H54356  11.327  11.070   6.374 -0.9178 -1.3977  0.8697
  403MOL0     H54357  11.557  11.260   6.559 -0.9596 -1.0401  0.2417
  403MOL0     H54358  11.569  11.144   6.423  1.6122  0.4172 -0.6609
  403MOL0     H54359  11.626  11.348   6.282 -1.9157 -1.2513  1.2170
  403MOL0     H54360  11.606  11.448   6.428 -1.5629 -0.4914 -1.1744
  403MOL0     H54361  11.775  11.206   6.456 -4.1199 -0.2989 -0.6093
  403MOL0     H54362  11.808  11.369   6.518  0.3841  0.9856  0.0862
  403MOL0     H54363  11.842  11.381   6.219 -1.2873  1.0280  1.5563
  403MOL0     H54364  11.870  11.216   6.257 -3.9534  0.7008 -2.3789
  403MOL0     H54365  12.000  11.089   6.421 -0.5436  1.5600 -1.5531
  403MOL0     H54366  12.066  10.999   6.623 -1.0716  0.7824 -1.6324
  403MOL0     H54367  12.335  11.146   7.146  0.3979  0.5540 -1.0714
  403MOL0     H54368  12.530  11.000   7.233 -2.2499  0.3766 -1.1462
  403MOL0     H54369  12.816  10.849   6.992 -2.5771  0.8194  0.5946
  403MOL0     H54370  12.912  10.993   7.035 -1.0571 -2.3818 -3.3728
  403MOL0     H54371  12.866  10.747   7.209 -0.5265  0.7738  0.8537
  403MOL0     H54372  13.013  10.744   7.120  0.2027  1.4583  0.4181
  403MOL0     H54373  12.979  10.985   7.283  3.0438  0.4069 -2.4724
  403MOL0     H54374  12.963  10.828   7.382 -0.1201  0.8301  0.9875
  403MOL0     H54375  13.199  10.873   7.201  0.3969  5.1345  0.2635
  403MOL0     H54376  13.172  10.755   7.332 -4.0431 -0.6021  1.9563
  403MOL0     H54377  13.205  10.945   7.493 -1.3810  0.3765 -0.5031
  403MOL0     H54378  13.210  11.058   7.364 -1.0274 -0.6037 -1.4150
  403MOL0     H54379  13.410  10.946   7.272 -0.4649 -1.7057 -0.1008
  403MOL0     H54380  13.434  11.004   7.448 -0.7464  0.3850 -0.1594
  403MOL0     H54381  13.393  10.732   7.350 -1.3634  3.6348 -2.7401
  403MOL0     H54382  13.429  10.779   7.521  0.3169  3.8447  0.7737
  403MOL0     H54383  13.639  10.694   7.398 -1.1769  0.3313  0.6263
  403MOL0     H54384  13.615  10.822   7.281 -2.0078 -0.8770 -1.1513
  403MOL0     H54385  12.729  11.015   6.878 -1.3235 -3.1134 -0.1068
  403MOL0     H54386  12.548  11.142   6.770 -0.4848 -1.5668 -1.0427
  403MOL0     H54387  12.250  11.390   6.722  0.1228  0.3013 -0.1968
  403MOL0     H54388  12.161  11.478   6.519 -2.2575  0.4475 -2.6669
  403MOL0     H54389  10.361  10.623   5.955  1.0932  0.8179 -1.7483
  403MOL0     H54390  10.370  10.387   5.966  0.2025 -1.6024  2.8864
  403MOL0     H54391  10.296   9.978   6.147  0.3278 -1.0949 -0.3159
  403MOL0     H54392  10.320   9.739   6.211 -1.1766  0.5267 -1.3366
  403MOL0     H54393  10.733   9.627   6.328  0.1816  2.1142  1.2015
  403MOL0     H54394  10.665   9.462   6.340  4.8000  0.0974  1.6144
  403MOL0     H54395  10.637   9.653   6.572 -0.0136 -0.6958  0.2453
  403MOL0     H54396  10.782   9.559   6.542 -0.4323  3.0053  6.5979
  403MOL0     H54397  10.631   9.450   6.698 -1.5758  3.9360 -0.1892
  403MOL0     H54398  10.641   9.352   6.549  2.6062 -0.6722  0.7032
  403MOL0     H54399  10.413   9.533   6.656 -0.1007  0.8777 -2.0311
  403MOL0     H54400  10.400   9.473   6.499 -4.8039  0.6909  1.7196
  403MOL0     H54401  10.256   9.140   6.653 -0.7707 -0.0296  2.6917
  403MOL0     H54402  10.696   9.836   6.410  0.1893  2.1124 -0.3662
  403MOL0     H54403  10.627  10.192   6.423 -2.0565 -0.5157  0.1690
  403MOL0     H54404  10.758  10.075   6.425  0.5818  1.0054 -0.9303
  403MOL0     H54405  10.728  10.157   6.277 -0.4573  0.3968  0.5157
  404MOL0     O54406   3.922   8.756   0.929  0.3675 -0.2598 -0.4344
  404MOL0     C54407   3.859   8.672   0.997 -0.4481  0.4174 -1.2137
  404MOL0     O54408   3.900   8.629   1.127 -0.4695  0.3230  0.4224
  404MOL0     C54409   4.036   8.636   1.167 -0.4387 -0.6887 -0.6838
  404MOL0     C54410   4.144   8.590   1.099 -1.0678  0.3976 -0.1429
  404MOL0     C54411   4.273   8.589   1.156 -0.1907 -0.6506 -0.0718
  404MOL0     C54412   4.297   8.642   1.285 -0.5336 -0.5449  0.1667
  404MOL0     O54413   4.425   8.637   1.336 -0.1872 -0.6244 -0.9530
  404MOL0     C54414   4.453   8.524   1.419  0.0698  0.1946 -0.3666
  404MOL0     C54415   4.587   8.550   1.494  0.4433  0.0098 -0.4691
  404MOL0     C54416   4.717   8.551   1.406  0.0819  0.4242  0.1668
  404MOL0     C54417   4.840   8.594   1.481  0.9093 -0.0148  1.1712
  404MOL0     C54418   4.956   8.589   1.386 -0.3356 -0.3538  0.4834
  404MOL0     C54419   5.100   8.624   1.448  0.8555 -0.1794  0.8217
  404MOL0     C54420   5.194   8.685   1.340  0.2503 -1.3276 -1.2061
  404MOL0     C54421   5.240   8.582   1.238  0.0130  0.7764 -1.0846
  404MOL0     N54422   5.381   8.602   1.216 -0.4536  0.2465 -0.4230
  404MOL0     C54423   5.436   8.707   1.139 -0.8124  0.2383  0.1508
  404MOL0     C54424   5.567   8.692   1.151 -0.0299 -0.3913 -0.5105
  404MOL0     C54425   5.666   8.776   1.059  0.5951  0.2362  0.4868
  404MOL0     C54426   5.813   8.720   1.055  0.1182  0.0403 -0.1579
  404MOL0     C54427   5.889   8.795   0.945 -0.0056  0.5531  0.5486
  404MOL0     C54428   6.024   8.726   0.911 -0.2426  0.2138  0.6237
  404MOL0     O54429   6.071   8.787   0.787  0.2978 -0.3942 -0.3418
  404MOL0     C54430   6.188   8.740   0.728  0.1097  0.3305 -0.7752
  404MOL0     C54431   6.309   8.731   0.790 -0.4520 -0.1697 -0.8171
  404MOL0     C54432   6.427   8.686   0.726  0.5285  0.4664 -0.3111
  404MOL0     C54433   6.416   8.631   0.599 -0.5659 -0.8830  0.1623
  404MOL0     C54434   6.533   8.582   0.524  0.4073 -0.1231  0.1626
  404MOL0     O54435   6.651   8.553   0.597  0.5864 -0.0353 -0.5319
  404MOL0     C54436   6.769   8.517   0.538  0.5633 -0.4008  0.4729
  404MOL0     C54437   6.837   8.407   0.587  1.0366 -0.2264 -0.2720
  404MOL0     C54438   6.964   8.374   0.533  0.4290  0.7170  0.8213
  404MOL0     C54439   7.016   8.441   0.424  0.5570 -0.5463  0.0076
  404MOL0     O54440   7.136   8.407   0.371  0.6738  0.9376 -0.9415
  404MOL0     C54441   7.187   8.468   0.245  0.3713  0.1781 -0.5136
  404MOL0     C54442   7.296   8.385   0.191  0.3856  0.7179  1.1597
  404MOL0     C54443   7.437   8.433   0.239 -0.7332  1.1920  0.0506
  404MOL0     C54444   7.543   8.363   0.143 -0.0190  0.2028 -0.2983
  404MOL0     C54445   7.688   8.374   0.194 -0.3684 -0.1550  0.3225
  404MOL0     C54446   7.785   8.346   0.083 -0.3329  0.0991  0.0435
  404MOL0     C54447   7.929   8.334   0.141  0.9061 -0.3751  0.3912
  404MOL0     C54448   8.020   8.295   0.019 -0.2848 -0.6512 -0.5886
  404MOL0    Cl54449   7.978   8.132  -0.030 -0.1997  0.0507 -0.1439
  404MOL0     C54450   6.941   8.546   0.368 -0.4897  0.4696 -0.6154
  404MOL0     C54451   6.819   8.588   0.426  0.2532  0.0002 -0.2128
  404MOL0     O54452   6.532   8.584   0.398  0.2434  0.9336  0.0373
  404MOL0     C54453   6.294   8.648   0.539  0.2264 -0.0356  0.2036
  404MOL0     C54454   6.184   8.698   0.597 -0.9222 -0.7320  0.6567
  404MOL0     N54455   5.595   8.600   1.244  0.0047 -1.0004  0.4782
  404MOL0     N54456   5.483   8.548   1.287 -0.8525  0.4403  0.4709
  404MOL0     C54457   4.192   8.698   1.351  0.5346  0.0137 -0.4746
  404MOL0     C54458   4.065   8.700   1.292  0.2234 -0.7529 -0.5127
  404MOL0     C54459   3.728   8.615   0.953 -0.3063 -0.5255  0.2090
  404MOL0     C54460   3.652   8.546   1.046 -0.3281 -0.7069 -0.1577
  404MOL0     C54461   3.533   8.475   1.011 -0.4625  0.0789  0.2415
  404MOL0     C54462   3.492   8.485   0.878 -0.4853 -0.8733 -0.0667
  404MOL0     O54463   3.396   8.391   0.836  0.2875  0.0121  0.1463
  404MOL0     C54464   3.363   8.392   0.702  0.1731 -0.3585  0.1893
  404MOL0     C54465   3.237   8.315   0.671 -0.3972  0.1364 -0.5335
  404MOL0     C54466   3.239   8.179   0.760 -0.4167 -0.4214  0.1088
  404MOL0     C54467   3.180   8.052   0.686  0.4380  0.1308 -0.2202
  404MOL0     C54468   3.039   8.079   0.637  0.0600  0.3004  0.9574
  404MOL0     C54469   2.916   8.101   0.626 -0.0790  1.3368  0.5599
  404MOL0     C54470   3.563   8.570   0.786  0.3893 -0.2165  0.7317
  404MOL0     C54471   3.676   8.637   0.825  0.9592  0.6218  0.5127
  404MOL0     C54472   3.745   8.725   0.723 -0.0249  0.0410  0.2259
  404MOL0     H54473   4.134   8.526   1.012  0.5396 -2.4487  1.6115
  404MOL0     H54474   4.361   8.538   1.116 -1.0446 -2.5936  0.4182
  404MOL0     H54475   4.376   8.514   1.496 -0.3586  1.4984 -0.5868
  404MOL0     H54476   4.451   8.432   1.360 -1.3254 -0.0736  0.0546
  404MOL0     H54477   4.600   8.465   1.560 -2.1396 -2.1911 -2.5238
  404MOL0     H54478   4.580   8.638   1.558 -2.7877  0.0127 -0.6611
  404MOL0     H54479   4.702   8.624   1.326  0.4780 -1.4324 -1.6875
  404MOL0     H54480   4.728   8.455   1.355  2.6112  0.8824 -0.2510
  404MOL0     H54481   4.837   8.693   1.528  2.3632 -0.5630  2.4957
  404MOL0     H54482   4.852   8.536   1.573 -0.2719 -1.3081  0.5413
  404MOL0     H54483   4.970   8.493   1.337 -2.5854 -0.0641 -0.8612
  404MOL0     H54484   4.932   8.663   1.309 -1.6320 -2.5228 -1.2979
  404MOL0     H54485   5.082   8.698   1.527  1.7754  1.8811 -0.8242
  404MOL0     H54486   5.141   8.537   1.500 -0.7209 -1.1628  0.5040
  404MOL0     H54487   5.278   8.714   1.403 -0.2812 -0.2100 -0.9856
  404MOL0     H54488   5.154   8.772   1.288  0.5450 -0.2076  0.3888
  404MOL0     H54489   5.231   8.483   1.284  0.7813  0.1277 -2.2826
  404MOL0     H54490   5.191   8.581   1.140  0.5796  1.1665 -1.3748
  404MOL0     H54491   5.382   8.760   1.061 -0.4917 -0.7069 -0.7379
  404MOL0     H54492   5.620   8.778   0.959  2.5979 -0.9324 -0.5175
  404MOL0     H54493   5.674   8.876   1.103  0.4668  0.7422 -0.5866
  404MOL0     H54494   5.863   8.737   1.150  1.3812  1.8530 -1.0957
  404MOL0     H54495   5.819   8.613   1.029 -0.8574 -0.2110  0.5941
  404MOL0     H54496   5.903   8.898   0.980 -3.0934  1.8493 -1.5794
  404MOL0     H54497   5.829   8.788   0.854  1.0032 -0.7704 -0.0473
  404MOL0     H54498   6.009   8.619   0.897  0.9455 -0.6293  4.5000
  404MOL0     H54499   6.091   8.737   0.997 -0.0750  1.1257  0.3836
  404MOL0     H54500   6.325   8.775   0.887 -0.5258 -0.7831 -0.5195
  404MOL0     H54501   6.524   8.693   0.775 -1.0798 -1.5223  3.6617
  404MOL0     H54502   6.797   8.349   0.669  1.2634 -2.1544 -1.4490
  404MOL0     H54503   7.028   8.298   0.575  1.3272  0.5049 -0.8559
  404MOL0     H54504   7.111   8.462   0.167  0.8808 -1.3681 -0.9218
  404MOL0     H54505   7.217   8.573   0.253  0.6136  0.2056 -1.6843
  404MOL0     H54506   7.261   8.286   0.223 -1.5926  1.2166  0.6730
  404MOL0     H54507   7.290   8.387   0.082 -2.1369  1.7916  1.2507
  404MOL0     H54508   7.435   8.541   0.225 -1.3950  1.5323  2.4195
  404MOL0     H54509   7.462   8.402   0.341  2.8003 -3.0908 -1.7718
  404MOL0     H54510   7.535   8.412   0.046 -3.3715  3.4612  1.3904
  404MOL0     H54511   7.514   8.257   0.139  0.0579  0.2205 -2.3344
  404MOL0     H54512   7.698   8.312   0.283 -1.1565 -0.2550  0.3503
  404MOL0     H54513   7.704   8.477   0.225 -0.8176 -0.6234  2.2140
  404MOL0     H54514   7.750   8.248   0.049  0.9968 -0.9173  1.4458
  404MOL0     H54515   7.782   8.426   0.009 -2.0556  1.5533  1.5757
  404MOL0     H54516   7.934   8.257   0.220 -1.6494 -0.2174  0.7698
  404MOL0     H54517   7.955   8.432   0.182 -2.0931  1.0492 -0.8700
  404MOL0     H54518   8.014   8.363  -0.067  2.6406 -2.1454 -2.1144
  404MOL0     H54519   8.126   8.298   0.044 -1.1589  0.1894  4.0059
  404MOL0     H54520   6.984   8.610   0.292  2.4840  1.0759  1.4183
  404MOL0     H54521   6.756   8.668   0.389 -3.1188 -1.3753  2.1269
  404MOL0     H54522   6.284   8.623   0.434  3.6443 -2.2756  0.2299
  404MOL0     H54523   6.092   8.701   0.540 -1.6660  2.7062  1.7839
  404MOL0     H54524   4.218   8.737   1.449 -0.6794 -0.4524  0.0553
  404MOL0     H54525   3.987   8.758   1.341  1.4385 -0.7553  1.5776
  404MOL0     H54526   3.689   8.538   1.148  2.1494  0.6435 -0.8745
  404MOL0     H54527   3.490   8.406   1.083 -0.0213 -1.0118 -0.5177
  404MOL0     H54528   3.445   8.347   0.646 -0.6281 -2.0281  0.2910
  404MOL0     H54529   3.332   8.491   0.665 -2.5971 -0.8103  1.0148
  404MOL0     H54530   3.218   8.302   0.564 -1.9088  0.9209 -0.3994
  404MOL0     H54531   3.151   8.375   0.703  0.8643  1.9742 -0.4051
  404MOL0     H54532   3.176   8.191   0.848 -0.0153  2.9329  0.0856
  404MOL0     H54533   3.343   8.157   0.786  0.4132 -0.3726 -2.8112
  404MOL0     H54534   3.248   8.038   0.602 -3.5826  1.4701 -4.0748
  404MOL0     H54535   3.204   7.960   0.740  2.9081  0.5948 -0.3791
  404MOL0     H54536   2.809   8.101   0.619 -0.3370 -2.5063  2.0275
  404MOL0     H54537   3.539   8.571   0.680  1.7810  2.0746  0.3730
  404MOL0     H54538   3.845   8.684   0.703  1.4218  2.0183  2.6473
  404MOL0     H54539   3.693   8.733   0.627  4.4783  1.1809 -2.4450
  404MOL0     H54540   3.756   8.827   0.761 -3.0536  1.1776 -1.6033
  405MOL0     O54541   7.086   4.369   4.235 -0.1980  0.3758  0.2961
  405MOL0     C54542   6.982   4.406   4.170  0.0132 -0.3044 -0.8184
  405MOL0     O54543   6.977   4.453   4.040  0.1328 -0.4214  0.1396
  405MOL0     C54544   7.106   4.462   3.977 -0.1404  0.4678  0.5479
  405MOL0     C54545   7.131   4.585   3.912 -0.4524  0.7889  0.5009
  405MOL0     C54546   7.246   4.611   3.836  0.3384 -0.4378 -0.1712
  405MOL0     C54547   7.341   4.505   3.818 -0.5124 -0.3454  0.7516
  405MOL0     O54548   7.455   4.518   3.738 -0.0125 -0.3566  0.2954
  405MOL0     C54549   7.511   4.649   3.733  0.8603 -0.1981 -0.2351
  405MOL0     C54550   7.628   4.647   3.645 -0.2782 -1.2764 -0.0628
  405MOL0     C54551   7.748   4.581   3.711 -0.5064 -0.0060 -0.4508
  405MOL0     C54552   7.855   4.553   3.610 -0.2046  0.2560 -0.0979
  405MOL0     C54553   7.997   4.522   3.679 -0.4126  0.7545 -0.2756
  405MOL0     C54554   8.075   4.433   3.587 -0.5133  0.0611 -0.2210
  405MOL0     C54555   8.207   4.374   3.640 -0.5615  0.0928  0.3713
  405MOL0     C54556   8.203   4.278   3.760  0.3518 -0.6812 -0.6688
  405MOL0     N54557   8.329   4.205   3.772 -0.3178 -0.4301 -0.3882
  405MOL0     C54558   8.351   4.076   3.810 -0.3793 -0.6639 -0.3580
  405MOL0     C54559   8.487   4.056   3.823  0.3969 -0.0275  0.4912
  405MOL0     C54560   8.555   3.918   3.846  0.1708  0.1681 -0.3958
  405MOL0     C54561   8.701   3.938   3.907  0.1583  1.3477  0.1051
  405MOL0     C54562   8.802   3.833   3.852  0.1903  0.0171  0.3568
  405MOL0     C54563   8.914   3.782   3.942 -0.7897  0.0052  0.0447
  405MOL0     O54564   8.963   3.892   4.012 -0.1401  0.3320  0.4237
  405MOL0     C54565   9.077   3.864   4.087  0.8090 -0.3028  0.6346
  405MOL0     C54566   9.125   3.972   4.154 -0.3059  0.0120  1.2307
  405MOL0     C54567   9.212   3.972   4.258 -0.1116  0.3253 -0.1050
  405MOL0     C54568   9.281   3.849   4.283  0.6778 -0.3654 -0.6302
  405MOL0     C54569   9.368   3.831   4.404  0.0330 -1.1068 -0.0791
  405MOL0     O54570   9.414   3.944   4.464  0.8769 -0.7924  0.2069
  405MOL0     C54571   9.482   3.926   4.577 -0.4152 -0.1062  0.2596
  405MOL0     C54572   9.393   3.929   4.687  0.7434  0.7234  1.3292
  405MOL0     C54573   9.443   3.898   4.816  0.3975  0.8859  0.6025
  405MOL0     C54574   9.579   3.882   4.831  0.7879 -0.0841  0.5532
  405MOL0     O54575   9.637   3.895   4.955  0.5149 -0.2996 -0.2149
  405MOL0     C54576   9.618   3.787   5.036 -0.3960  0.8841 -0.5494
  405MOL0     C54577   9.682   3.815   5.175 -0.8285 -0.6066 -0.0583
  405MOL0     C54578   9.829   3.851   5.167  0.2751  0.0767 -0.3156
  405MOL0     C54579   9.879   3.884   5.312  0.1531 -0.4818 -0.3602
  405MOL0     C54580  10.033   3.908   5.322  0.3592 -0.3826 -0.0317
  405MOL0     C54581  10.068   4.028   5.237  0.1716 -1.0538  0.2194
  405MOL0     C54582  10.221   4.038   5.211 -1.0154  0.7042 -0.8378
  405MOL0     C54583  10.266   4.177   5.178  0.4660  0.2418  0.5742
  405MOL0    Cl54584  10.442   4.193   5.155 -0.1248  0.0969 -0.6863
  405MOL0     C54585   9.667   3.872   4.723 -0.4805 -0.6078 -0.3249
  405MOL0     C54586   9.621   3.898   4.595  0.3333 -0.2764  1.0439
  405MOL0     O54587   9.395   3.713   4.431 -0.4000 -0.1730 -0.1079
  405MOL0     C54588   9.252   3.737   4.205  0.3831 -0.6570  0.9594
  405MOL0     C54589   9.160   3.746   4.100 -0.0109  0.3247  0.3657
  405MOL0     N54590   8.543   4.180   3.800 -0.4278 -0.1321  0.8147
  405MOL0     N54591   8.447   4.269   3.775 -0.0153 -0.1786 -0.0130
  405MOL0     C54592   7.315   4.384   3.878  0.4727  0.2986 -0.4826
  405MOL0     C54593   7.194   4.360   3.950  0.0038  0.3243  0.2356
  405MOL0     C54594   6.850   4.405   4.243 -0.9920  0.4267  1.2091
  405MOL0     C54595   6.835   4.314   4.343  0.4601 -0.3117  0.7937
  405MOL0     C54596   6.707   4.293   4.406  0.9327  0.1229 -0.4947
  405MOL0     C54597   6.596   4.374   4.366  0.0467  0.3357 -0.6199
  405MOL0     O54598   6.475   4.344   4.434  0.7136  0.4236  0.4920
  405MOL0     C54599   6.349   4.404   4.386  0.1997  0.3684  0.2190
  405MOL0     C54600   6.297   4.337   4.259  0.1627 -0.5098 -0.1921
  405MOL0     C54601   6.279   4.187   4.290  0.1837  0.3505 -0.2764
  405MOL0     C54602   6.198   4.115   4.181 -0.8953  0.3826  0.2404
  405MOL0     C54603   6.229   3.970   4.157 -0.9527  0.7483 -0.4345
  405MOL0     C54604   6.245   3.854   4.142  0.5649  0.7982 -0.6086
  405MOL0     C54605   6.619   4.468   4.271 -0.1683 -0.3681  0.2539
  405MOL0     C54606   6.740   4.486   4.208  0.4012 -0.4131 -0.5855
  405MOL0     C54607   6.759   4.592   4.110 -0.0675 -0.6810  0.0154
  405MOL0     H54608   7.046   4.649   3.933 -0.4961  0.4308  1.4571
  405MOL0     H54609   7.266   4.706   3.786 -0.6504  2.2359  3.9994
  405MOL0     H54610   7.438   4.723   3.700  0.2435 -1.6343 -2.2836
  405MOL0     H54611   7.539   4.689   3.831  0.6658 -0.5612 -0.0300
  405MOL0     H54612   7.657   4.748   3.613  1.1200 -2.3868 -2.6071
  405MOL0     H54613   7.613   4.587   3.555  0.2983 -4.0109  1.5482
  405MOL0     H54614   7.716   4.485   3.753  1.5108 -0.1894  0.7691
  405MOL0     H54615   7.785   4.653   3.784 -0.9203  0.6159 -0.8437
  405MOL0     H54616   7.822   4.466   3.551  0.4386 -0.1876  0.1902
  405MOL0     H54617   7.871   4.642   3.549 -0.5597  1.9718  2.1644
  405MOL0     H54618   8.052   4.615   3.695 -0.3713  0.2526  3.1171
  405MOL0     H54619   7.986   4.467   3.772 -1.6882  0.1916 -0.7327
  405MOL0     H54620   8.014   4.348   3.555  1.6573 -2.4830  1.8747
  405MOL0     H54621   8.110   4.493   3.503  0.4032  0.1567  0.2228
  405MOL0     H54622   8.280   4.451   3.665 -0.6643  0.5091 -0.5977
  405MOL0     H54623   8.248   4.321   3.553 -0.9152  2.2376 -1.1847
  405MOL0     H54624   8.190   4.335   3.853  0.2558 -2.4045  0.4326
  405MOL0     H54625   8.127   4.199   3.756  0.9827 -1.2876 -0.9226
  405MOL0     H54626   8.275   3.999   3.823 -1.3072 -0.0920 -2.0614
  405MOL0     H54627   8.491   3.862   3.915  0.4865  0.1864 -0.0818
  405MOL0     H54628   8.574   3.863   3.754 -0.1958  0.8129 -0.8683
  405MOL0     H54629   8.735   4.041   3.894 -0.4923  1.7634  1.5648
  405MOL0     H54630   8.694   3.913   4.013  0.0451  3.4852  0.6282
  405MOL0     H54631   8.842   3.863   3.755 -0.0124 -0.7472  0.0307
  405MOL0     H54632   8.755   3.739   3.822 -2.1335  0.6157  1.8328
  405MOL0     H54633   8.988   3.726   3.884  0.9072  1.1782  0.9915
  405MOL0     H54634   8.878   3.715   4.021  0.5690  0.6212  1.2425
  405MOL0     H54635   9.087   4.072   4.138  1.8923  0.4961 -1.8949
  405MOL0     H54636   9.231   4.068   4.307 -0.7756  0.2037  0.4059
  405MOL0     H54637   9.287   3.945   4.673  0.7825  1.1790  1.5452
  405MOL0     H54638   9.362   3.895   4.888  1.3700 -0.2362  1.7090
  405MOL0     H54639   9.514   3.764   5.062  0.2267  0.7653  2.1489
  405MOL0     H54640   9.669   3.699   4.995 -3.4165 -0.8889 -0.7694
  405MOL0     H54641   9.631   3.898   5.225  1.3847  0.0378  1.2433
  405MOL0     H54642   9.666   3.727   5.238  0.3213  0.8410  2.4120
  405MOL0     H54643   9.878   3.760   5.130 -3.2969 -2.0309 -0.2673
  405MOL0     H54644   9.854   3.915   5.082 -2.2041  0.1175 -1.0892
  405MOL0     H54645   9.856   3.803   5.382  2.4230  0.3945  1.5488
  405MOL0     H54646   9.817   3.971   5.334 -0.2311 -0.7983 -0.1735
  405MOL0     H54647  10.081   3.817   5.285 -2.0983 -1.4226 -0.8759
  405MOL0     H54648  10.051   3.937   5.426  0.4462  0.1008 -0.1772
  405MOL0     H54649  10.020   4.018   5.140 -0.2302  3.7324 -0.3239
  405MOL0     H54650  10.031   4.114   5.295  0.0690 -0.7946 -0.2294
  405MOL0     H54651  10.255   3.968   5.134 -0.4923 -0.3084  0.2762
  405MOL0     H54652  10.262   4.009   5.309  1.5697  1.0435 -1.7571
  405MOL0     H54653  10.226   4.211   5.082  0.0256 -1.7260  0.0126
  405MOL0     H54654  10.225   4.236   5.260  3.9011  1.7107  1.3903
  405MOL0     H54655   9.770   3.841   4.740 -0.5460  0.4243  2.3326
  405MOL0     H54656   9.695   3.891   4.516 -0.1604  0.8935  0.4597
  405MOL0     H54657   9.310   3.646   4.213 -0.7594 -1.4950  0.1301
  405MOL0     H54658   9.132   3.653   4.053 -0.5854 -1.0000  3.1113
  405MOL0     H54659   7.383   4.299   3.880  1.0579  0.7699  0.8546
  405MOL0     H54660   7.182   4.261   3.993  0.3078  0.4768  0.6791
  405MOL0     H54661   6.914   4.264   4.397  1.6891 -0.6485 -1.2273
  405MOL0     H54662   6.709   4.225   4.490 -1.4708 -0.4590 -0.8137
  405MOL0     H54663   6.365   4.511   4.376  1.0345  0.1533 -0.9097
  405MOL0     H54664   6.274   4.394   4.465  1.1342  0.4242  1.1447
  405MOL0     H54665   6.373   4.347   4.181 -0.1226  1.2269 -0.2805
  405MOL0     H54666   6.203   4.384   4.227  1.7898  2.1669 -1.3497
  405MOL0     H54667   6.225   4.166   4.382  0.2733 -1.0478 -0.5175
  405MOL0     H54668   6.379   4.141   4.292  0.0819  0.0723 -1.0014
  405MOL0     H54669   6.096   4.126   4.219 -0.5558 -1.3802  1.8338
  405MOL0     H54670   6.207   4.164   4.084  0.5101 -0.9460 -0.3405
  405MOL0     H54671   6.271   3.751   4.130  0.4778  0.5984  0.7653
  405MOL0     H54672   6.545   4.546   4.255 -0.9253 -0.5180  2.6583
  405MOL0     H54673   6.738   4.561   4.007 -0.0756 -2.5552  0.5381
  405MOL0     H54674   6.683   4.665   4.139 -0.8227 -1.9634  1.3778
  405MOL0     H54675   6.854   4.645   4.105 -0.1260 -0.6705 -1.7701
  406MOL0     O54676   7.144   4.963  11.000  0.6598  0.1820  0.3360
  406MOL0     C54677   7.193   4.888  11.074 -0.5875  0.3911 -0.5592
  406MOL0     O54678   7.336   4.858  11.071  0.2966  0.2641  0.0313
  406MOL0     C54679   7.419   4.927  10.986  0.0539 -0.5759  0.4243
  406MOL0     C54680   7.435   5.063  10.980  0.4171 -0.9526  0.7336
  406MOL0     C54681   7.535   5.115  10.889  0.0146  0.5858 -0.1806
  406MOL0     C54682   7.598   5.022  10.794 -0.5023  0.9922 -0.0718
  406MOL0     O54683   7.696   5.057  10.703  0.1183  0.4845  0.4243
  406MOL0     C54684   7.781   5.163  10.735 -0.1300 -0.0938  0.2889
  406MOL0     C54685   7.878   5.109  10.853  0.0025  0.5845  0.1186
  406MOL0     C54686   7.974   5.222  10.877 -0.1666 -0.1797 -0.2794
  406MOL0     C54687   8.028   5.207  11.018 -0.0965  0.1605  0.2995
  406MOL0     C54688   8.119   5.318  11.065 -0.2390  0.4285 -0.6963
  406MOL0     C54689   8.155   5.299  11.214  0.7760  0.5831 -0.5635
  406MOL0     C54690   8.280   5.390  11.252 -0.2527 -0.5310  0.0577
  406MOL0     C54691   8.350   5.337  11.371  0.1952  0.3925 -0.1542
  406MOL0     N54692   8.476   5.399  11.390  0.3193  0.2671  0.0718
  406MOL0     C54693   8.492   5.533  11.407  0.6303 -0.1911 -0.3179
  406MOL0     C54694   8.637   5.549  11.421  0.8331  0.3721  0.2377
  406MOL0     C54695   8.717   5.675  11.445  0.7209 -0.2867  0.0273
  406MOL0     C54696   8.667   5.779  11.351 -0.6833  0.3225  0.2581
  406MOL0     C54697   8.708   5.917  11.411 -0.5379  0.7822 -0.0412
  406MOL0     C54698   8.646   6.039  11.352 -0.1327  0.7768  0.0337
  406MOL0     O54699   8.535   6.091  11.427 -0.0414  0.0331 -0.3263
  406MOL0     C54700   8.475   6.197  11.366  0.2752 -0.7232 -0.3561
  406MOL0     C54701   8.381   6.262  11.435 -0.3442 -0.0068  0.2497
  406MOL0     C54702   8.329   6.383  11.402  1.1000  0.7046  0.6220
  406MOL0     C54703   8.356   6.439  11.275 -0.1188  0.4434 -0.4505
  406MOL0     C54704   8.314   6.578  11.232  0.6740 -0.1917 -0.3043
  406MOL0     O54705   8.234   6.649  11.313  0.2797 -0.1422  0.0296
  406MOL0     C54706   8.183   6.770  11.274  0.4653  0.2246  0.5382
  406MOL0     C54707   8.226   6.891  11.335  0.2466 -0.6058  0.2265
  406MOL0     C54708   8.160   7.009  11.317 -0.1782  0.1958  0.0783
  406MOL0     C54709   8.037   7.013  11.244 -0.4615 -0.7384 -0.5789
  406MOL0     O54710   7.959   7.122  11.238 -0.1338 -0.0525 -0.4038
  406MOL0     C54711   7.858   7.115  11.337 -0.0278 -0.8097 -0.4912
  406MOL0     C54712   7.744   7.204  11.314 -0.0978 -0.2427 -0.0763
  406MOL0     C54713   7.688   7.180  11.172  0.7562 -0.3757 -0.5240
  406MOL0     C54714   7.548   7.233  11.156 -0.4763 -0.6167 -0.0434
  406MOL0     C54715   7.537   7.384  11.142  0.0195  0.3672  0.3040
  406MOL0     C54716   7.397   7.438  11.149  0.1040  0.4203  0.1333
  406MOL0     C54717   7.305   7.416  11.261  0.2178 -0.2694  0.0134
  406MOL0     C54718   7.212   7.298  11.241  0.2450  0.6220  0.6871
  406MOL0    Cl54719   7.104   7.345  11.106  0.1839  0.1539 -0.2141
  406MOL0     C54720   7.991   6.901  11.182 -0.2239  0.9784  0.4501
  406MOL0     C54721   8.068   6.779  11.188  0.1136 -0.4757  0.5665
  406MOL0     O54722   8.350   6.622  11.125  0.1283  0.6131  0.8755
  406MOL0     C54723   8.445   6.369  11.195  0.3691  0.3874 -0.7238
  406MOL0     C54724   8.498   6.247  11.236  0.7700  0.1417  0.5166
  406MOL0     N54725   8.687   5.424  11.415  0.6546  0.1885 -0.1171
  406MOL0     N54726   8.595   5.337  11.403 -0.1125 -0.4495 -0.1798
  406MOL0     C54727   7.576   4.888  10.800  0.7821  0.7293  0.4123
  406MOL0     C54728   7.487   4.839  10.897 -1.1561 -0.3874  0.5665
  406MOL0     C54729   7.104   4.825  11.179 -0.2412 -1.4708  0.0410
  406MOL0     C54730   6.999   4.898  11.235  0.9437  0.1783  0.1629
  406MOL0     C54731   6.905   4.834  11.321 -0.3194 -0.4335  0.0785
  406MOL0     C54732   6.902   4.706  11.363 -0.2079  0.4138  0.3545
  406MOL0     O54733   6.812   4.643  11.441 -0.5068  0.5866 -0.2850
  406MOL0     C54734   6.729   4.723  11.526 -0.6715  0.4226  0.3835
  406MOL0     C54735   6.658   4.644  11.638 -0.4572  0.2505  0.2465
  406MOL0     C54736   6.557   4.535  11.589 -0.1361 -0.8438  0.0591
  406MOL0     C54737   6.429   4.598  11.517  0.6361  0.3060 -0.2282
  406MOL0     C54738   6.341   4.685  11.593  0.3826  0.1144 -0.2001
  406MOL0     C54739   6.265   4.750  11.664 -0.3468  1.0135  0.5980
  406MOL0     C54740   7.006   4.627  11.307 -1.0881  0.3217 -0.5076
  406MOL0     C54741   7.106   4.681  11.219 -0.0275 -0.8355  0.5972
  406MOL0     C54742   7.211   4.586  11.172 -0.3970  0.2968  0.1725
  406MOL0     H54743   7.388   5.123  11.058  0.2890 -0.0659  0.0020
  406MOL0     H54744   7.556   5.221  10.896  0.7396  0.7844 -3.8212
  406MOL0     H54745   7.839   5.198  10.649 -0.3412  0.6252  0.4384
  406MOL0     H54746   7.722   5.244  10.779 -0.0344  0.4718 -0.6045
  406MOL0     H54747   7.921   5.012  10.829 -2.0704 -0.6072  0.9000
  406MOL0     H54748   7.813   5.087  10.939 -0.7131 -1.5424 -0.8798
  406MOL0     H54749   7.928   5.321  10.869 -1.1313 -0.6295 -0.4279
  406MOL0     H54750   8.064   5.225  10.815  0.8133 -1.0897  1.0576
  406MOL0     H54751   7.937   5.203  11.078 -0.4979 -1.5462 -0.3534
  406MOL0     H54752   8.083   5.112  11.024 -0.3966 -0.3053 -2.8595
  406MOL0     H54753   8.207   5.318  11.000  0.9631  0.5363  0.8671
  406MOL0     H54754   8.077   5.418  11.051  0.2195  0.3208 -3.2473
  406MOL0     H54755   8.076   5.325  11.285  0.9570 -1.2637  0.3892
  406MOL0     H54756   8.172   5.191  11.218 -2.7899 -0.0958 -0.4436
  406MOL0     H54757   8.244   5.492  11.269  2.1459 -0.1335  4.1486
  406MOL0     H54758   8.348   5.396  11.167 -0.3225  2.9943  0.0769
  406MOL0     H54759   8.295   5.342  11.465  1.9083 -2.4578  1.1429
  406MOL0     H54760   8.366   5.231  11.350 -0.6875  0.1002  0.6006
  406MOL0     H54761   8.416   5.611  11.407  1.2110  0.4395 -1.8383
  406MOL0     H54762   8.713   5.705  11.550 -0.4573  1.3479 -0.4606
  406MOL0     H54763   8.824   5.658  11.429  1.0321  1.3195  0.2170
  406MOL0     H54764   8.722   5.768  11.257  0.1768  0.4105  0.7393
  406MOL0     H54765   8.559   5.777  11.336 -0.5178  0.7462 -1.1701
  406MOL0     H54766   8.817   5.912  11.403 -0.6069 -1.9113 -0.4700
  406MOL0     H54767   8.703   5.912  11.520  0.1608  2.3414  0.0795
  406MOL0     H54768   8.618   5.998  11.255  1.1238 -1.6899  0.6386
  406MOL0     H54769   8.720   6.118  11.341  0.2816  0.4400  0.3781
  406MOL0     H54770   8.363   6.236  11.539  0.9051 -1.2247  0.1865
  406MOL0     H54771   8.273   6.445  11.473  1.6384 -1.2526  2.8942
  406MOL0     H54772   8.318   6.892  11.391  0.2886 -1.5176  0.1927
  406MOL0     H54773   8.207   7.094  11.365 -0.6580 -0.3391  1.5482
  406MOL0     H54774   7.812   7.017  11.353 -2.7185  0.5666  0.8399
  406MOL0     H54775   7.897   7.139  11.437 -2.2180 -0.4612  0.3284
  406MOL0     H54776   7.661   7.184  11.382 -0.7249  1.0548 -0.4341
  406MOL0     H54777   7.776   7.308  11.329  2.4138 -0.9354 -0.1042
  406MOL0     H54778   7.761   7.212  11.097 -0.4340  1.9500 -0.7865
  406MOL0     H54779   7.675   7.072  11.161  2.9816 -1.0069  2.1340
  406MOL0     H54780   7.498   7.208  11.250  1.1523 -1.0388  0.7511
  406MOL0     H54781   7.504   7.192  11.064 -2.7386 -0.3033  0.8548
  406MOL0     H54782   7.576   7.394  11.040 -0.8189 -1.3199 -0.2183
  406MOL0     H54783   7.610   7.439  11.203 -0.3326  2.5014 -1.0959
  406MOL0     H54784   7.419   7.545  11.154 -0.2944  0.4834  4.1182
  406MOL0     H54785   7.346   7.415  11.056 -0.9819  0.7057  0.6414
  406MOL0     H54786   7.258   7.509  11.292  0.8508 -0.4660  1.6261
  406MOL0     H54787   7.370   7.389  11.344 -1.4286 -1.6694  0.9251
  406MOL0     H54788   7.279   7.217  11.212 -1.2409  0.2086 -1.9598
  406MOL0     H54789   7.156   7.256  11.325 -2.9195  0.2528 -1.4239
  406MOL0     H54790   7.901   6.900  11.121  0.3951  1.1574 -0.4889
  406MOL0     H54791   8.036   6.698  11.123  1.3057 -1.9374  1.7272
  406MOL0     H54792   8.482   6.426  11.111  0.9412 -0.8745 -1.3623
  406MOL0     H54793   8.566   6.195  11.170  0.2080 -0.7393  0.6038
  406MOL0     H54794   7.631   4.823  10.733 -2.1680 -2.1705  0.5059
  406MOL0     H54795   7.486   4.731  10.907  2.3659 -0.5049  0.7796
  406MOL0     H54796   6.976   5.003  11.217  3.5082  1.0913  1.6455
  406MOL0     H54797   6.825   4.896  11.360  1.6259  0.7636  2.5101
  406MOL0     H54798   6.652   4.775  11.467 -3.0860  2.5868  4.8567
  406MOL0     H54799   6.791   4.801  11.572 -1.2081  1.1934 -0.1684
  406MOL0     H54800   6.599   4.705  11.707 -2.2189 -1.7751  0.6166
  406MOL0     H54801   6.739   4.599  11.694  0.9854  0.8361 -1.2737
  406MOL0     H54802   6.522   4.465  11.666  1.0384 -1.3580  0.1451
  406MOL0     H54803   6.613   4.477  11.515  1.4663  0.5811  0.1045
  406MOL0     H54804   6.443   4.661  11.429 -2.0013 -0.2009 -1.0997
  406MOL0     H54805   6.369   4.518  11.474  1.3380  1.0271 -2.6666
  406MOL0     H54806   6.204   4.818  11.719  3.2034  1.9124  3.7880
  406MOL0     H54807   7.004   4.520  11.327 -0.1378  0.6513  1.6212
  406MOL0     H54808   7.306   4.594  11.226  1.1535 -3.3572 -1.6463
  406MOL0     H54809   7.175   4.482  11.172  1.6104 -0.4568  0.1218
  406MOL0     H54810   7.232   4.607  11.067  3.6677  1.8982  1.1349
  407MOL0     O54811  10.043   3.348   7.937 -0.7713  0.1928  0.1662
  407MOL0     C54812  10.104   3.407   8.022 -0.7763 -0.0728  0.5092
  407MOL0     O54813  10.087   3.542   8.065  0.0135  0.9837 -0.7215
  407MOL0     C54814  10.024   3.629   7.982 -0.4519 -0.7606 -1.2947
  407MOL0     C54815  10.001   3.624   7.844 -0.3171 -0.2129  0.8342
  407MOL0     C54816   9.936   3.726   7.775  0.2996 -1.3704 -0.7506
  407MOL0     C54817   9.891   3.833   7.838 -0.1436 -0.8392 -0.6133
  407MOL0     O54818   9.814   3.923   7.768  0.0461  0.7506 -0.4194
  407MOL0     C54819   9.858   4.063   7.781  0.4452 -0.2010  0.0159
  407MOL0     C54820   9.835   4.145   7.656 -0.1704  0.1486 -0.2758
  407MOL0     C54821   9.685   4.144   7.612 -0.0755 -0.1095 -1.0497
  407MOL0     C54822   9.667   4.221   7.483 -0.5727  1.0462  0.7359
  407MOL0     C54823   9.521   4.206   7.423 -0.1565 -0.3909 -0.2486
  407MOL0     C54824   9.502   4.281   7.289  0.7684 -0.2537 -0.5146
  407MOL0     C54825   9.358   4.284   7.234  0.2474  0.1667 -0.4356
  407MOL0     C54826   9.307   4.146   7.170 -0.3219 -0.3676  0.4520
  407MOL0     N54827   9.172   4.150   7.122  0.3420  0.4955  0.3373
  407MOL0     C54828   9.070   4.245   7.145 -0.9607 -0.3852 -0.3123
  407MOL0     C54829   8.960   4.186   7.088 -0.9979 -0.6684 -0.1858
  407MOL0     C54830   8.827   4.250   7.092 -0.5888 -0.0593  0.6328
  407MOL0     C54831   8.790   4.316   6.960 -0.7705 -0.3071  0.0525
  407MOL0     C54832   8.869   4.446   6.949  1.0687 -0.3186 -0.2276
  407MOL0     C54833   8.997   4.434   6.868  0.4595 -0.1790  0.3816
  407MOL0     O54834   9.068   4.560   6.881  0.7353 -0.4104  0.1978
  407MOL0     C54835   9.201   4.548   6.884 -0.4555 -0.3436  0.3874
  407MOL0     C54836   9.265   4.585   7.002  0.5741  0.1525  0.5291
  407MOL0     C54837   9.396   4.577   7.028 -1.2350 -0.0325  0.6142
  407MOL0     C54838   9.483   4.532   6.919 -0.1456  0.4970 -0.0748
  407MOL0     C54839   9.626   4.529   6.950 -0.4902 -0.2039  0.0909
  407MOL0     O54840   9.656   4.490   7.083  0.5319  0.5662  0.2722
  407MOL0     C54841   9.789   4.468   7.107  0.1257  1.0674 -0.3337
  407MOL0     C54842   9.884   4.576   7.118  0.2167  0.1293  0.1205
  407MOL0     C54843  10.022   4.550   7.149  0.9123 -0.1765 -0.9699
  407MOL0     C54844  10.061   4.418   7.151 -0.5112  0.3572 -0.1410
  407MOL0     O54845  10.193   4.369   7.158 -0.0242 -0.5267 -0.2623
  407MOL0     C54846  10.297   4.429   7.077 -0.2387 -0.8541  0.4531
  407MOL0     C54847  10.364   4.320   7.003  0.6211  0.8007 -0.4120
  407MOL0     C54848  10.271   4.267   6.889 -0.8564 -0.3307 -1.0944
  407MOL0     C54849  10.335   4.162   6.808 -0.5193  0.0457 -0.5046
  407MOL0     C54850  10.354   4.043   6.897 -0.2003  0.7379 -0.2588
  407MOL0     C54851  10.391   3.917   6.817  0.8852  0.0510  0.6102
  407MOL0     C54852  10.514   3.935   6.726 -0.3810 -0.0165 -0.0880
  407MOL0     C54853  10.651   3.956   6.801  0.4213  0.2193 -0.1420
  407MOL0    Cl54854  10.693   4.123   6.844 -0.2020 -0.4960 -0.1340
  407MOL0     C54855   9.970   4.318   7.154  0.2788  0.4344  0.2870
  407MOL0     C54856   9.833   4.334   7.119 -0.3660 -0.1547  0.1187
  407MOL0     O54857   9.710   4.553   6.864 -0.4032  1.3219  0.3621
  407MOL0     C54858   9.428   4.491   6.795  0.1438  0.2704  0.4808
  407MOL0     C54859   9.285   4.503   6.777 -0.0728  0.5954  0.2196
  407MOL0     N54860   8.990   4.058   7.046  0.2855 -0.7316  0.7893
  407MOL0     N54861   9.119   4.039   7.066  0.1252 -0.3684  0.0253
  407MOL0     C54862   9.918   3.848   7.980 -0.7381  0.2351 -0.9914
  407MOL0     C54863   9.990   3.748   8.053 -1.0873 -0.9582 -0.7168
  407MOL0     C54864  10.182   3.324   8.107 -0.1557  0.1055 -0.1515
  407MOL0     C54865  10.264   3.385   8.214 -0.5292 -0.5229  0.1952
  407MOL0     C54866  10.331   3.320   8.318 -0.3982 -0.2683  0.6320
  407MOL0     C54867  10.332   3.182   8.319  0.9353 -0.1099  0.6252
  407MOL0     O54868  10.426   3.137   8.410  0.2823  1.1052  0.0359
  407MOL0     C54869  10.489   2.999   8.403 -0.1527 -0.7632  0.7015
  407MOL0     C54870  10.643   3.015   8.407  0.4495  0.8768 -0.2145
  407MOL0     C54871  10.698   2.876   8.386 -0.6618  0.4931 -0.0042
  407MOL0     C54872  10.852   2.877   8.372  0.0169 -0.6987  0.1832
  407MOL0     C54873  10.908   2.870   8.503  0.8603 -0.1738 -0.6587
  407MOL0     C54874  10.973   2.846   8.603 -0.1560 -0.9508 -0.1081
  407MOL0     C54875  10.251   3.114   8.230  0.2151 -0.2720 -0.4061
  407MOL0     C54876  10.191   3.175   8.120 -0.5587 -0.5449 -1.1341
  407MOL0     C54877  10.110   3.079   8.041 -0.3216 -0.4754  0.3718
  407MOL0     H54878  10.032   3.542   7.780 -0.1611  2.0665 -2.2775
  407MOL0     H54879   9.906   3.716   7.671  1.2071  1.3141 -1.3406
  407MOL0     H54880   9.799   4.107   7.862 -0.0211 -0.8422  0.0447
  407MOL0     H54881   9.963   4.064   7.810  0.2558  2.0405  0.7467
  407MOL0     H54882   9.886   4.095   7.573 -0.5119  0.1578 -0.4952
  407MOL0     H54883   9.873   4.245   7.680 -1.3257  0.4044  0.6124
  407MOL0     H54884   9.621   4.195   7.685  3.5109  3.2592  0.0800
  407MOL0     H54885   9.654   4.042   7.589 -0.2720  0.1617 -2.0248
  407MOL0     H54886   9.699   4.324   7.502  0.4784  0.5022  2.0658
  407MOL0     H54887   9.731   4.181   7.404 -1.6856 -0.0544  0.3485
  407MOL0     H54888   9.505   4.102   7.391 -0.5813  0.4925 -3.1883
  407MOL0     H54889   9.445   4.227   7.500  0.4229  1.1217 -0.0611
  407MOL0     H54890   9.537   4.384   7.296  6.1495 -1.9189  2.5333
  407MOL0     H54891   9.560   4.229   7.213 -0.9795  0.2802 -2.3067
  407MOL0     H54892   9.351   4.362   7.158  0.2221  0.1799 -0.4196
  407MOL0     H54893   9.297   4.314   7.319  1.9296 -0.4083  1.0497
  407MOL0     H54894   9.369   4.124   7.083 -1.8994  3.3384 -1.8417
  407MOL0     H54895   9.308   4.068   7.247  0.6987 -0.8552 -0.0364
  407MOL0     H54896   9.081   4.332   7.210  3.2328 -2.0611  1.5535
  407MOL0     H54897   8.761   4.167   7.117 -0.6125  0.4686  2.4294
  407MOL0     H54898   8.819   4.323   7.173  0.2264 -2.1085  2.6724
  407MOL0     H54899   8.815   4.253   6.875  0.6689 -0.1407  0.3208
  407MOL0     H54900   8.683   4.339   6.968 -0.3708  2.0173 -0.7551
  407MOL0     H54901   8.894   4.489   7.046  1.6069  0.4511 -0.6959
  407MOL0     H54902   8.818   4.522   6.889 -0.8306  0.4815  2.2361
  407MOL0     H54903   8.975   4.419   6.761  2.3400 -1.0564  0.0755
  407MOL0     H54904   9.046   4.346   6.911 -1.3200 -1.1665  0.5083
  407MOL0     H54905   9.194   4.619   7.077  1.2868 -0.8068  1.6807
  407MOL0     H54906   9.436   4.600   7.126 -2.6503  3.3102  0.5415
  407MOL0     H54907   9.853   4.680   7.109  3.5133  1.5283  2.4370
  407MOL0     H54908  10.090   4.635   7.157  2.4126 -1.5007  1.1747
  407MOL0     H54909  10.265   4.514   7.017  2.6674  1.7390  2.2406
  407MOL0     H54910  10.376   4.467   7.143 -0.1848 -1.3116  0.6584
  407MOL0     H54911  10.461   4.352   6.961  2.4439 -1.0125  2.1443
  407MOL0     H54912  10.392   4.239   7.071 -0.2558  0.1934 -0.7600
  407MOL0     H54913  10.177   4.223   6.923  0.7865 -3.1945  0.1823
  407MOL0     H54914  10.256   4.354   6.826  1.7421  1.8451  1.0291
  407MOL0     H54915  10.424   4.206   6.763 -0.8392  0.5034 -0.7003
  407MOL0     H54916  10.269   4.138   6.724 -1.5796  0.2089  0.2590
  407MOL0     H54917  10.266   4.025   6.960  0.9399  1.4539  1.6205
  407MOL0     H54918  10.440   4.058   6.963 -1.0581  0.9814  0.8548
  407MOL0     H54919  10.396   3.831   6.884  0.2413 -1.9184 -1.7089
  407MOL0     H54920  10.304   3.908   6.751  2.2046 -0.2252 -1.1696
  407MOL0     H54921  10.504   4.017   6.654 -2.7813 -1.1284 -1.1556
  407MOL0     H54922  10.511   3.841   6.671 -2.2385 -0.2071  0.2567
  407MOL0     H54923  10.633   3.899   6.893  0.6900 -0.1884 -0.3380
  407MOL0     H54924  10.732   3.912   6.742 -0.5228 -2.8653  0.6364
  407MOL0     H54925   9.990   4.212   7.163  0.8895  0.4317 -0.8680
  407MOL0     H54926   9.778   4.242   7.102  2.5040 -2.1605  0.8133
  407MOL0     H54927   9.499   4.461   6.719  0.0256  0.4175  0.3085
  407MOL0     H54928   9.239   4.470   6.685  1.0122 -1.5682  0.3822
  407MOL0     H54929   9.887   3.937   8.034 -4.9013 -0.6203 -1.6599
  407MOL0     H54930  10.019   3.772   8.155  1.5774 -2.0086 -1.1325
  407MOL0     H54931  10.267   3.493   8.225  0.0140 -0.6847  1.8048
  407MOL0     H54932  10.371   3.371   8.405 -2.3399  2.2089  0.2138
  407MOL0     H54933  10.461   2.958   8.306  2.7398 -3.0430  0.7209
  407MOL0     H54934  10.453   2.933   8.482 -1.9948 -1.9560 -1.0267
  407MOL0     H54935  10.668   3.044   8.509 -1.7884 -1.2748  1.0553
  407MOL0     H54936  10.700   3.074   8.335  2.9736 -1.6288 -0.4407
  407MOL0     H54937  10.653   2.827   8.299  3.1120 -3.6184 -0.0032
  407MOL0     H54938  10.661   2.808   8.464  1.5888 -0.5855  0.1947
  407MOL0     H54939  10.884   2.790   8.314  2.1386  0.4379 -0.4377
  407MOL0     H54940  10.889   2.961   8.313 -1.2040 -0.3053 -0.0509
  407MOL0     H54941  11.017   2.835   8.700 -2.4278 -0.5883  1.0354
  407MOL0     H54942  10.250   3.006   8.221  0.1988 -0.1125 -4.1375
  407MOL0     H54943  10.165   3.055   7.949  0.2875 -2.0417  1.1132
  407MOL0     H54944  10.103   2.977   8.079  1.3768 -0.4547  0.7945
  407MOL0     H54945  10.012   3.121   8.017  0.4640  0.8876 -0.5564
  408MOL0     O54946   3.653   0.906   6.974 -0.4049  0.3200  0.3172
  408MOL0     C54947   3.628   0.804   6.900  0.2301  0.3727 -0.2654
  408MOL0     O54948   3.709   0.696   6.901  0.1385  0.2266  0.6164
  408MOL0     C54949   3.821   0.700   6.983  0.2571  0.8429 -0.0818
  408MOL0     C54950   3.932   0.781   6.939 -0.2543 -0.2713 -0.5643
  408MOL0     C54951   4.048   0.788   7.021 -0.4991  0.3591  0.2714
  408MOL0     C54952   4.056   0.718   7.142 -0.6194 -0.7960 -0.0715
  408MOL0     O54953   4.167   0.749   7.217  1.1718  0.3253 -0.3287
  408MOL0     C54954   4.231   0.628   7.265  0.1589 -0.5205  0.2156
  408MOL0     C54955   4.383   0.644   7.285  0.3913  0.3415 -0.4147
  408MOL0     C54956   4.457   0.525   7.341 -1.0297  0.1324 -1.0923
  408MOL0     C54957   4.433   0.496   7.496 -0.0333 -0.0750  0.0748
  408MOL0     C54958   4.479   0.360   7.525 -0.1618 -0.2312 -0.7146
  408MOL0     C54959   4.492   0.327   7.679  0.2786 -0.0965  1.0481
  408MOL0     C54960   4.566   0.197   7.701 -0.1764  0.2146 -1.3355
  408MOL0     C54961   4.619   0.192   7.847 -0.9101  0.1722 -0.0028
  408MOL0     N54962   4.721   0.087   7.862  0.5147 -0.1116 -1.4209
  408MOL0     C54963   4.690  -0.042   7.885 -0.5410  0.0927  0.8954
  408MOL0     C54964   4.813  -0.097   7.897 -0.1566  0.6680  0.9296
  408MOL0     C54965   4.845  -0.241   7.947  0.2615 -0.4249  0.6855
  408MOL0     C54966   4.906  -0.229   8.082  0.1729 -0.1820 -0.1616
  408MOL0     C54967   4.941  -0.365   8.135  0.0153  0.7062  0.1232
  408MOL0     C54968   4.966  -0.349   8.289 -0.1197  0.4509  0.5243
  408MOL0     O54969   5.011  -0.474   8.340 -0.1655  0.6223 -0.2695
  408MOL0     C54970   5.138  -0.523   8.326  0.4860  0.3225 -0.7195
  408MOL0     C54971   5.236  -0.469   8.248 -0.3399 -0.1957  0.1310
  408MOL0     C54972   5.368  -0.521   8.245  0.0058 -0.1598 -0.0422
  408MOL0     C54973   5.391  -0.637   8.322 -0.1262  0.4445  0.9514
  408MOL0     C54974   5.530  -0.688   8.333  1.1279 -0.6408  0.0641
  408MOL0     O54975   5.552  -0.786   8.427 -0.8280 -0.0744  0.6655
  408MOL0     C54976   5.684  -0.821   8.452 -1.2057 -0.1890 -0.9274
  408MOL0     C54977   5.743  -0.910   8.364  0.7143  0.5507 -0.2716
  408MOL0     C54978   5.879  -0.963   8.388  0.0600 -0.3990  0.6105
  408MOL0     C54979   5.950  -0.916   8.493 -0.1236  0.5998  0.3994
  408MOL0     O54980   6.075  -0.970   8.502 -0.0575 -0.6010  0.3225
  408MOL0     C54981   6.147  -0.933   8.618  0.3102 -0.2244  1.0618
  408MOL0     C54982   6.283  -1.003   8.616  0.4448 -0.3813  0.2075
  408MOL0     C54983   6.376  -0.938   8.514 -0.2775 -0.2457 -0.3242
  408MOL0     C54984   6.506  -1.023   8.506  0.1194 -0.0108  0.1838
  408MOL0     C54985   6.622  -0.962   8.424  0.6089 -0.0578  0.3145
  408MOL0     C54986   6.721  -1.048   8.365 -0.5321  0.2101 -0.5105
  408MOL0     C54987   6.764  -1.167   8.456  0.7395  0.4684 -0.1814
  408MOL0     C54988   6.879  -1.241   8.385  0.1739  0.5843 -0.6997
  408MOL0    Cl54989   7.021  -1.133   8.373  0.3205  0.1634  0.3719
  408MOL0     C54990   5.898  -0.821   8.581 -0.9417 -0.5807  0.2847
  408MOL0     C54991   5.762  -0.776   8.559  0.2756  0.0387 -0.1416
  408MOL0     O54992   5.613  -0.644   8.259 -0.3830  0.4003  0.1023
  408MOL0     C54993   5.290  -0.699   8.398  0.7061  0.3312 -0.3209
  408MOL0     C54994   5.172  -0.635   8.401  0.6275 -0.8988 -0.6608
  408MOL0     N54995   4.908  -0.002   7.867  0.0219  0.8611  0.1888
  408MOL0     N54996   4.853   0.108   7.842  0.2389 -0.3060  0.2859
  408MOL0     C54997   3.947   0.631   7.178 -0.9035 -0.6831  0.0639
  408MOL0     C54998   3.836   0.614   7.093 -1.1065 -1.4590  0.4355
  408MOL0     C54999   3.515   0.815   6.812  1.4034 -1.1600 -0.3748
  408MOL0     C55000   3.523   0.760   6.681  1.3261 -0.4321  0.5169
  408MOL0     C55001   3.415   0.752   6.595  0.0754  0.6866 -0.3471
  408MOL0     C55002   3.293   0.803   6.633  0.6176 -1.2751 -0.6210
  408MOL0     O55003   3.184   0.782   6.560  0.3936 -1.1679  0.5534
  408MOL0     C55004   3.049   0.793   6.611 -0.6323 -0.4741 -0.3552
  408MOL0     C55005   2.949   0.719   6.528  0.3064 -0.1119 -0.0453
  408MOL0     C55006   2.911   0.797   6.408 -0.0054 -1.6808 -0.1803
  408MOL0     C55007   2.928   0.719   6.270  0.4368 -0.8415  0.0172
  408MOL0     C55008   3.071   0.697   6.244 -0.8086  0.3162 -0.0558
  408MOL0     C55009   3.185   0.681   6.205 -0.1238  0.8284 -0.5352
  408MOL0     C55010   3.282   0.866   6.767 -0.2502 -0.1136 -0.0937
  408MOL0     C55011   3.393   0.883   6.847 -0.5154  1.0717 -0.2358
  408MOL0     C55012   3.379   0.972   6.960 -0.3062  0.7187 -0.0929
  408MOL0     H55013   3.916   0.840   6.850 -1.4224  1.8182  0.9303
  408MOL0     H55014   4.132   0.851   6.995 -0.9800  1.6938  1.7921
  408MOL0     H55015   4.197   0.607   7.367  4.3197  0.9876  2.1499
  408MOL0     H55016   4.220   0.538   7.204 -0.4358  1.5597 -2.9638
  408MOL0     H55017   4.391   0.726   7.357  1.3850  3.0504 -3.3725
  408MOL0     H55018   4.422   0.694   7.196 -0.4667  1.9113  0.0466
  408MOL0     H55019   4.565   0.537   7.329 -0.9745  0.2549 -0.4991
  408MOL0     H55020   4.437   0.437   7.279  4.1190 -0.6108 -2.0775
  408MOL0     H55021   4.483   0.567   7.562  0.1675 -2.3612  2.5453
  408MOL0     H55022   4.327   0.523   7.507  0.0468 -0.3141  1.5563
  408MOL0     H55023   4.412   0.290   7.473  0.1557 -1.1294  0.0648
  408MOL0     H55024   4.576   0.349   7.476  1.1687 -0.3113  1.7730
  408MOL0     H55025   4.547   0.407   7.729  0.0268  0.2709  0.7445
  408MOL0     H55026   4.394   0.326   7.727  0.1767 -2.5992  0.8776
  408MOL0     H55027   4.645   0.182   7.627 -1.0581 -0.8011 -2.1175
  408MOL0     H55028   4.494   0.115   7.693 -1.8995  1.7808 -2.9529
  408MOL0     H55029   4.662   0.288   7.876 -0.7096  0.0164  0.2188
  408MOL0     H55030   4.536   0.175   7.916 -2.4478 -0.6328 -1.9666
  408MOL0     H55031   4.595  -0.088   7.908 -0.9727  1.3588  1.7927
  408MOL0     H55032   4.761  -0.311   7.952 -0.6416  0.7067  2.9222
  408MOL0     H55033   4.918  -0.280   7.875 -0.9595  0.4372 -1.0837
  408MOL0     H55034   4.988  -0.157   8.075 -3.0990  3.8187 -1.1680
  408MOL0     H55035   4.837  -0.180   8.151 -2.3678 -2.6811 -0.7524
  408MOL0     H55036   5.029  -0.404   8.083 -1.5816 -0.4802 -1.8288
  408MOL0     H55037   4.857  -0.435   8.130 -0.1045  0.5545  2.7795
  408MOL0     H55038   4.878  -0.314   8.344  0.4624  1.3638  0.9008
  408MOL0     H55039   5.045  -0.276   8.312  1.4004 -0.3806 -1.7109
  408MOL0     H55040   5.225  -0.379   8.189  1.0149 -0.2640 -0.2655
  408MOL0     H55041   5.442  -0.464   8.189 -2.1175  2.0686 -0.7271
  408MOL0     H55042   5.681  -0.931   8.278  1.3375 -0.5946 -0.4501
  408MOL0     H55043   5.920  -1.042   8.325  3.3496  2.3014 -0.9747
  408MOL0     H55044   6.165  -0.825   8.624 -1.3863  0.1085  0.6261
  408MOL0     H55045   6.094  -0.952   8.711  0.8301 -3.4749  0.8143
  408MOL0     H55046   6.324  -0.979   8.715 -1.6394  1.6171  0.6576
  408MOL0     H55047   6.268  -1.108   8.590  1.3497 -0.4135 -0.2259
  408MOL0     H55048   6.336  -0.926   8.413  0.4521 -2.4039 -0.9337
  408MOL0     H55049   6.419  -0.842   8.543 -4.1271  1.9758 -1.3055
  408MOL0     H55050   6.481  -1.110   8.445 -3.1652  1.3720 -0.6511
  408MOL0     H55051   6.542  -1.045   8.607  0.2375 -0.4542  0.0465
  408MOL0     H55052   6.679  -0.889   8.482  2.6524 -1.4828  0.2058
  408MOL0     H55053   6.580  -0.899   8.345  0.0093  0.0536  0.7090
  408MOL0     H55054   6.667  -1.092   8.281  1.2570  0.9174 -2.1084
  408MOL0     H55055   6.807  -0.990   8.331 -0.0334 -0.2646 -0.0923
  408MOL0     H55056   6.686  -1.242   8.465  0.9293  0.2683 -0.2022
  408MOL0     H55057   6.796  -1.123   8.551  1.3248  0.6557 -0.4577
  408MOL0     H55058   6.906  -1.334   8.434  2.0680  2.3052  1.7681
  408MOL0     H55059   6.850  -1.265   8.282 -1.0367  2.6031 -0.8973
  408MOL0     H55060   5.940  -0.798   8.678  1.2758  0.3163 -0.8202
  408MOL0     H55061   5.705  -0.709   8.624  1.4802  0.5274  0.4354
  408MOL0     H55062   5.308  -0.786   8.460  0.8687  0.6435  0.0699
  408MOL0     H55063   5.088  -0.675   8.456 -1.5494  0.1654 -2.9888
  408MOL0     H55064   3.956   0.571   7.267 -1.8564 -0.7307  0.1354
  408MOL0     H55065   3.756   0.543   7.112 -1.1358 -2.5956 -3.1602
  408MOL0     H55066   3.617   0.719   6.645  1.2491 -0.0587 -0.1360
  408MOL0     H55067   3.418   0.711   6.494 -1.2531 -2.3705  0.7454
  408MOL0     H55068   3.016   0.893   6.637  3.7411  0.9316  0.6176
  408MOL0     H55069   3.047   0.739   6.706  0.5146  3.3677  2.0358
  408MOL0     H55070   2.863   0.695   6.590  0.4837  0.2288  0.3370
  408MOL0     H55071   2.994   0.621   6.509 -1.5740 -1.2720  1.1881
  408MOL0     H55072   2.973   0.887   6.398 -2.7925  0.6323  1.7767
  408MOL0     H55073   2.807   0.828   6.420  0.6684  0.4519  0.7784
  408MOL0     H55074   2.876   0.623   6.285 -0.6579 -0.2183  0.2863
  408MOL0     H55075   2.874   0.768   6.188 -2.2489 -0.3807  1.9187
  408MOL0     H55076   3.288   0.656   6.192 -0.4138 -2.3584  1.9654
  408MOL0     H55077   3.190   0.913   6.800  0.2979  0.7149  0.2805
  408MOL0     H55078   3.410   0.919   7.051  1.9520  0.2868 -1.0275
  408MOL0     H55079   3.457   1.048   6.941 -1.6306  1.6810 -1.9925
  408MOL0     H55080   3.279   1.012   6.978 -1.1470 -1.8099  1.2077
  409MOL0     O55081   4.929   2.862   2.515 -0.4549 -0.8374 -0.5541
  409MOL0     C55082   4.892   2.980   2.517  0.0251  0.3636 -0.3234
  409MOL0     O55083   4.978   3.087   2.495 -0.8300 -0.3248 -0.4537
  409MOL0     C55084   5.113   3.059   2.499  0.1674  0.7060  0.8350
  409MOL0     C55085   5.177   2.986   2.398 -0.5373 -0.1640 -0.1791
  409MOL0     C55086   5.313   2.992   2.389 -0.3312 -0.1530 -0.4478
  409MOL0     C55087   5.390   3.072   2.478  1.2201  0.3988  0.1031
  409MOL0     O55088   5.526   3.064   2.471  0.2110 -0.2157  0.1342
  409MOL0     C55089   5.623   3.134   2.564  0.3575  1.0336  0.2692
  409MOL0     C55090   5.754   3.153   2.492 -0.3608  0.6845 -0.2899
  409MOL0     C55091   5.870   3.191   2.592  0.1176  0.3380  0.4649
  409MOL0     C55092   5.898   3.075   2.686 -0.6021 -0.2029  0.2330
  409MOL0     C55093   6.020   3.119   2.763 -0.2573  0.2171 -0.3246
  409MOL0     C55094   6.077   3.008   2.856 -0.2772 -0.0965 -0.7294
  409MOL0     C55095   6.121   2.878   2.785  0.4005 -0.5042 -0.7210
  409MOL0     C55096   6.203   2.796   2.883 -0.0398 -0.5761  0.3619
  409MOL0     N55097   6.346   2.834   2.878 -0.2841  0.0601  0.2219
  409MOL0     C55098   6.438   2.805   2.976  0.1263  0.6501  0.2965
  409MOL0     C55099   6.560   2.847   2.931  0.7739 -0.6316 -0.5325
  409MOL0     C55100   6.692   2.863   2.988  0.7695  0.2629  0.0407
  409MOL0     C55101   6.776   2.751   2.930 -0.3105 -0.1434  0.2899
  409MOL0     C55102   6.904   2.749   3.005  0.1858 -0.5095 -0.7648
  409MOL0     C55103   6.982   2.623   2.996  0.4781 -0.2117 -0.4387
  409MOL0     O55104   6.993   2.589   2.862 -0.7337  0.3529 -0.1465
  409MOL0     C55105   7.102   2.511   2.828  0.1597 -1.1853 -0.6766
  409MOL0     C55106   7.167   2.544   2.706  0.8720  0.2488 -0.3550
  409MOL0     C55107   7.277   2.466   2.669  0.7926 -0.7116 -0.2055
  409MOL0     C55108   7.334   2.371   2.757  0.0728  0.0413  0.6543
  409MOL0     C55109   7.453   2.298   2.717  1.0588 -0.2260 -0.0052
  409MOL0     O55110   7.555   2.369   2.669 -0.0750  0.6699 -0.1478
  409MOL0     C55111   7.678   2.307   2.641 -0.2931  0.4137  0.0618
  409MOL0     C55112   7.721   2.329   2.513  0.4055  0.2633 -0.0393
  409MOL0     C55113   7.844   2.267   2.479 -0.4976 -0.1451  0.5281
  409MOL0     C55114   7.910   2.180   2.572 -0.5622  0.4540  0.3381
  409MOL0     O55115   8.026   2.112   2.538  0.0340  0.6563  0.1033
  409MOL0     C55116   8.008   2.015   2.429 -0.6313  0.3532  0.2641
  409MOL0     C55117   8.129   2.020   2.333 -0.3793 -0.9688 -0.5753
  409MOL0     C55118   8.267   2.000   2.392 -0.0614  0.5510  0.4508
  409MOL0     C55119   8.364   2.010   2.271  0.4475 -0.5149 -1.0078
  409MOL0     C55120   8.517   1.979   2.313  0.6580  0.4412 -0.2988
  409MOL0     C55121   8.599   1.999   2.186 -0.0719 -0.3705 -0.1194
  409MOL0     C55122   8.749   2.014   2.215 -0.1374  0.6013 -0.0627
  409MOL0     C55123   8.838   2.005   2.092 -0.4584 -0.2467 -0.0873
  409MOL0    Cl55124   8.858   1.828   2.022 -0.0410  0.0070 -0.3780
  409MOL0     C55125   7.861   2.163   2.699  0.1471  0.4191 -0.1382
  409MOL0     C55126   7.744   2.226   2.735  1.0855 -0.3829  0.2146
  409MOL0     O55127   7.453   2.179   2.747 -0.1634  0.2053  0.1574
  409MOL0     C55128   7.268   2.343   2.869 -0.5627 -0.0567  0.7379
  409MOL0     C55129   7.151   2.405   2.904 -0.6528  0.3438  0.2129
  409MOL0     N55130   6.541   2.898   2.810  0.3614  0.0340  0.2319
  409MOL0     N55131   6.420   2.888   2.772  0.1866  0.2843  0.2295
  409MOL0     C55132   5.320   3.156   2.561 -0.8056  0.4261  0.1663
  409MOL0     C55133   5.188   3.146   2.570 -0.4390 -0.6942 -0.3615
  409MOL0     C55134   4.758   3.012   2.546  1.4229  0.5689  0.5266
  409MOL0     C55135   4.666   2.904   2.549 -0.0707 -0.2427 -0.2401
  409MOL0     C55136   4.535   2.911   2.569  0.2516  0.5952  0.5368
  409MOL0     C55137   4.476   3.032   2.572  0.5421 -0.0111 -0.0898
  409MOL0     O55138   4.344   3.047   2.608 -0.3857 -0.1203  0.4043
  409MOL0     C55139   4.264   2.928   2.619  0.1946 -0.9024 -0.4156
  409MOL0     C55140   4.121   2.962   2.669 -0.2453 -0.0733  0.0832
  409MOL0     C55141   4.015   2.973   2.556  0.4730 -0.3514  0.1136
  409MOL0     C55142   4.002   3.123   2.525 -0.6349 -0.0598 -0.1996
  409MOL0     C55143   3.926   3.165   2.406  0.1504  0.4438 -1.1072
  409MOL0     C55144   3.888   3.198   2.293 -0.3149 -0.1701 -0.2053
  409MOL0     C55145   4.561   3.139   2.569 -0.0175 -0.2624  0.3728
  409MOL0     C55146   4.696   3.134   2.568 -0.0295  0.4988 -0.4744
  409MOL0     C55147   4.773   3.261   2.580 -0.2303  0.4199 -0.2113
  409MOL0     H55148   5.122   2.921   2.331 -0.5938 -1.0922  0.7382
  409MOL0     H55149   5.363   2.928   2.316 -0.4121 -1.2424  0.4278
  409MOL0     H55150   5.596   3.234   2.599  3.1149  2.1465 -0.4855
  409MOL0     H55151   5.627   3.071   2.653 -2.3511 -1.0814 -0.9674
  409MOL0     H55152   5.742   3.239   2.427 -0.3700  0.4269 -0.6335
  409MOL0     H55153   5.785   3.061   2.440  1.8388 -1.7082  4.6085
  409MOL0     H55154   5.844   3.283   2.646 -2.0358  1.0410 -1.5364
  409MOL0     H55155   5.954   3.223   2.530 -0.8805  0.3835 -0.9406
  409MOL0     H55156   5.816   3.057   2.756 -1.8752  1.4794 -0.7417
  409MOL0     H55157   5.926   2.987   2.628  3.6228 -1.1240  3.1918
  409MOL0     H55158   6.097   3.147   2.690 -1.1977  1.9231 -0.7223
  409MOL0     H55159   5.992   3.203   2.827 -0.5407  0.0632 -0.2445
  409MOL0     H55160   6.168   3.054   2.897  1.1244 -1.3099 -2.3806
  409MOL0     H55161   6.008   2.988   2.939  0.7895 -1.2160 -0.0823
  409MOL0     H55162   6.177   2.901   2.694 -0.2894 -0.1888 -1.0834
  409MOL0     H55163   6.037   2.836   2.728  1.4556  1.0964 -3.6804
  409MOL0     H55164   6.179   2.792   2.990  0.1767  2.8121  0.6257
  409MOL0     H55165   6.190   2.692   2.851 -0.2276 -0.5635  0.3918
  409MOL0     H55166   6.415   2.786   3.081 -1.4554 -0.4117 -0.1963
  409MOL0     H55167   6.731   2.962   2.966  3.7054 -0.3782  1.8005
  409MOL0     H55168   6.683   2.850   3.097 -0.7490 -4.3162 -0.4007
  409MOL0     H55169   6.717   2.659   2.940 -2.3108  1.0682  0.1981
  409MOL0     H55170   6.791   2.773   2.824 -1.1114 -0.5571  0.0814
  409MOL0     H55171   6.871   2.757   3.109 -0.0671  0.4972 -0.9126
  409MOL0     H55172   6.962   2.834   2.971 -1.4414  2.5115  3.2223
  409MOL0     H55173   6.943   2.536   3.050  2.5077 -1.2467 -0.5480
  409MOL0     H55174   7.073   2.643   3.053 -1.0991  0.4122  2.0480
  409MOL0     H55175   7.137   2.624   2.639 -0.0222 -1.0160 -1.5081
  409MOL0     H55176   7.323   2.491   2.574 -3.4012  2.2538 -1.7608
  409MOL0     H55177   7.663   2.396   2.451  0.4608 -1.2089 -1.7613
  409MOL0     H55178   7.899   2.277   2.386 -0.9537  0.9043  0.3654
  409MOL0     H55179   8.002   1.920   2.484 -1.3353  1.1916  1.6888
  409MOL0     H55180   7.913   2.033   2.378 -0.5793 -2.0658 -0.8377
  409MOL0     H55181   8.111   1.949   2.253  0.5830 -2.7493  0.7185
  409MOL0     H55182   8.126   2.123   2.296 -4.6402 -0.2928  1.1106
  409MOL0     H55183   8.289   2.079   2.465  3.0565 -1.1641  1.5942
  409MOL0     H55184   8.278   1.900   2.435  1.2446 -0.4289 -1.9330
  409MOL0     H55185   8.347   2.102   2.215 -3.0067 -1.1019 -1.1611
  409MOL0     H55186   8.331   1.931   2.202 -0.1695 -1.4484  0.3155
  409MOL0     H55187   8.536   1.877   2.350 -2.3558  0.1084  0.5933
  409MOL0     H55188   8.549   2.048   2.391  0.2946  1.6476 -1.1928
  409MOL0     H55189   8.565   1.922   2.117 -1.7070 -0.5737  0.8629
  409MOL0     H55190   8.573   2.098   2.146  0.1864 -1.0072 -1.9147
  409MOL0     H55191   8.774   1.934   2.286 -0.7244  0.5770  0.1169
  409MOL0     H55192   8.771   2.106   2.270  0.3526 -0.6462  1.9632
  409MOL0     H55193   8.796   2.063   2.009 -1.4571 -0.3843  0.3026
  409MOL0     H55194   8.936   2.041   2.123 -0.0048 -2.2882  1.0202
  409MOL0     H55195   7.903   2.089   2.766 -0.9715  2.0072  2.4921
  409MOL0     H55196   7.701   2.214   2.834  1.7353  2.1574  0.8769
  409MOL0     H55197   7.301   2.268   2.941 -0.9363 -0.6895  0.2542
  409MOL0     H55198   7.108   2.379   3.000 -0.1115 -0.2213  0.3072
  409MOL0     H55199   5.377   3.229   2.618  1.1041 -2.1079  1.7059
  409MOL0     H55200   5.127   3.206   2.637  0.2868  0.1933 -0.4616
  409MOL0     H55201   4.700   2.802   2.539 -2.0431 -0.9171 -0.6671
  409MOL0     H55202   4.485   2.815   2.562  2.1641 -0.3849 -0.5145
  409MOL0     H55203   4.304   2.877   2.707  3.5092  2.1564  0.0960
  409MOL0     H55204   4.258   2.874   2.524 -0.3808  0.3664 -1.1193
  409MOL0     H55205   4.127   3.056   2.725 -3.4169  0.2043  0.1358
  409MOL0     H55206   4.094   2.882   2.738  1.0013  0.5817  1.3823
  409MOL0     H55207   3.915   2.942   2.588 -0.4655  2.1238 -0.2121
  409MOL0     H55208   4.030   2.905   2.472 -0.7503  0.2973 -0.6616
  409MOL0     H55209   3.952   3.166   2.612  1.5330 -0.1490  1.1799
  409MOL0     H55210   4.108   3.151   2.517 -0.4586 -0.0954  1.5938
  409MOL0     H55211   3.866   3.228   2.193  0.7212 -1.0973 -0.7286
  409MOL0     H55212   4.498   3.228   2.570  1.4138  0.7809  1.0031
  409MOL0     H55213   4.815   3.305   2.489  0.2595  2.5350  0.9810
  409MOL0     H55214   4.716   3.334   2.637  0.7692  0.9561  0.1152
  409MOL0     H55215   4.860   3.237   2.641 -1.0184 -0.8598  0.4652
  410MOL0     O55216   1.087   7.483   6.659 -0.3685  0.6621  1.4624
  410MOL0     C55217   0.977   7.458   6.615  0.2837  0.1208 -0.4174
  410MOL0     O55218   0.924   7.503   6.503  0.0823  0.8891  0.7910
  410MOL0     C55219   1.002   7.586   6.427  0.1869  0.5027 -0.7219
  410MOL0     C55220   1.118   7.539   6.365  0.5255  0.1183 -0.0534
  410MOL0     C55221   1.194   7.631   6.290  0.8154  0.8227 -0.6858
  410MOL0     C55222   1.146   7.759   6.260  0.4702  0.3602 -0.2699
  410MOL0     O55223   1.209   7.833   6.167 -0.4582 -0.4955  0.2679
  410MOL0     C55224   1.241   7.765   6.048 -0.4247 -0.0911  0.1089
  410MOL0     C55225   1.309   7.870   5.964  0.4449  0.5538 -0.3079
  410MOL0     C55226   1.231   7.957   5.873  0.3240  0.6427  0.3803
  410MOL0     C55227   1.139   7.887   5.775 -0.7585 -0.2539 -0.8216
  410MOL0     C55228   1.033   7.978   5.712 -0.6922 -0.1486 -1.1670
  410MOL0     C55229   1.089   8.081   5.617  0.3331 -0.5963  0.1890
  410MOL0     C55230   0.975   8.164   5.542  0.6705 -0.4008 -0.6528
  410MOL0     C55231   1.012   8.309   5.524 -0.0549  1.7131  1.4982
  410MOL0     N55232   0.911   8.398   5.464  0.8142 -0.0186  1.0938
  410MOL0     C55233   0.868   8.396   5.332  0.6897  0.4546 -0.4364
  410MOL0     C55234   0.790   8.504   5.327  0.2610 -0.1248  1.0418
  410MOL0     C55235   0.718   8.546   5.200 -0.1197 -0.3964 -0.1348
  410MOL0     C55236   0.587   8.469   5.174  0.7326 -0.2070 -0.1266
  410MOL0     C55237   0.596   8.335   5.091 -0.5738  0.8904  0.1963
  410MOL0     C55238   0.465   8.256   5.080  0.0278 -0.4448 -0.3990
  410MOL0     O55239   0.407   8.248   5.212 -0.0366  0.4323 -0.3888
  410MOL0     C55240   0.461   8.160   5.305 -0.7253  0.6750  0.0399
  410MOL0     C55241   0.531   8.045   5.266  0.2065  0.0284 -0.0445
  410MOL0     C55242   0.596   7.968   5.363 -0.2607 -0.9935 -1.1899
  410MOL0     C55243   0.574   7.995   5.505  0.6782  0.3253  0.0924
  410MOL0     C55244   0.638   7.912   5.611 -0.4184  0.2499 -0.6072
  410MOL0     O55245   0.616   7.951   5.739 -0.0788  0.5859 -0.1592
  410MOL0     C55246   0.637   7.871   5.849 -0.0859 -0.5748 -0.0929
  410MOL0     C55247   0.731   7.763   5.861 -0.2088  0.7526  0.1067
  410MOL0     C55248   0.739   7.686   5.978 -0.3660 -0.1734  0.4416
  410MOL0     C55249   0.653   7.716   6.081  0.6097  0.6889  0.5016
  410MOL0     O55250   0.670   7.639   6.196  0.6060 -0.5499  0.9965
  410MOL0     C55251   0.565   7.609   6.285 -0.6003  0.1931  0.4420
  410MOL0     C55252   0.459   7.517   6.227  1.0866  0.4555  0.3584
  410MOL0     C55253   0.519   7.381   6.161  0.3245  0.0566 -0.2588
  410MOL0     C55254   0.500   7.365   6.009  0.4250 -0.2136  0.2639
  410MOL0     C55255   0.466   7.225   5.962 -0.5218  0.4697 -0.1185
  410MOL0     C55256   0.550   7.198   5.834  0.7280 -0.1288 -0.3775
  410MOL0     C55257   0.513   7.066   5.769 -0.7517  0.7440 -1.3055
  410MOL0     C55258   0.609   7.042   5.649  0.1189  0.1024  0.3486
  410MOL0    Cl55259   0.610   6.870   5.597  0.4336  0.2980  0.1085
  410MOL0     C55260   0.562   7.823   6.081  0.1122 -0.6999 -0.0527
  410MOL0     C55261   0.557   7.903   5.966 -0.7367 -0.1448 -0.4773
  410MOL0     O55262   0.699   7.810   5.570 -0.0541 -0.2889 -0.0546
  410MOL0     C55263   0.508   8.110   5.541 -0.8531 -0.3543  0.0058
  410MOL0     C55264   0.456   8.196   5.443 -0.2663  0.3675  0.9856
  410MOL0     N55265   0.772   8.556   5.460 -0.0368  0.2989  1.0218
  410MOL0     N55266   0.846   8.491   5.534 -0.4136  0.6365 -0.7723
  410MOL0     C55267   1.018   7.791   6.310 -0.5429 -0.3811 -0.2338
  410MOL0     C55268   0.957   7.709   6.397  0.8182  0.0164  0.3064
  410MOL0     C55269   0.895   7.362   6.694 -0.3239  0.3238  0.1826
  410MOL0     C55270   0.919   7.354   6.832 -0.8342 -0.8175  0.6676
  410MOL0     C55271   0.828   7.298   6.919  0.1766  0.4691  0.2883
  410MOL0     C55272   0.720   7.227   6.869 -0.3739  0.4302  0.4541
  410MOL0     O55273   0.620   7.181   6.952 -0.3981 -0.2874  0.5987
  410MOL0     C55274   0.508   7.273   6.959 -0.2358  0.1165 -0.7812
  410MOL0     C55275   0.374   7.199   6.989  1.4002  0.1564  0.5252
  410MOL0     C55276   0.247   7.287   6.976  0.6561 -0.7754  0.9697
  410MOL0     C55277   0.135   7.206   6.903  0.1324  0.4692 -0.6365
  410MOL0     C55278   0.105   7.071   6.969  0.1724 -0.0795 -0.4998
  410MOL0     C55279   0.103   6.963   7.020  0.5185 -0.0071  0.3278
  410MOL0     C55280   0.714   7.204   6.733  0.3102  0.0612  0.0313
  410MOL0     C55281   0.794   7.279   6.644  1.3384  0.2424 -0.6995
  410MOL0     C55282   0.762   7.267   6.498 -0.0608 -0.3917 -0.1569
  410MOL0     H55283   1.143   7.435   6.384  0.1841  0.3465  1.8529
  410MOL0     H55284   1.281   7.586   6.245  1.6798  0.2451  1.4409
  410MOL0     H55285   1.312   7.685   6.070 -2.6792 -2.8691 -1.8979
  410MOL0     H55286   1.151   7.724   6.000  0.4228 -0.5950 -1.1050
  410MOL0     H55287   1.381   7.813   5.905 -1.8871 -1.4054 -1.4791
  410MOL0     H55288   1.367   7.927   6.037  0.7872  1.7945 -1.5033
  410MOL0     H55289   1.303   8.025   5.828  0.8826  1.2548  2.1304
  410MOL0     H55290   1.171   8.020   5.939 -2.2106 -0.7916 -0.3895
  410MOL0     H55291   1.210   7.853   5.699 -0.0858  2.8415 -1.7084
  410MOL0     H55292   1.090   7.806   5.830  0.2645  0.8756  1.9564
  410MOL0     H55293   0.947   7.929   5.666  0.5671 -0.0595 -3.8366
  410MOL0     H55294   0.985   8.040   5.788 -4.4574 -2.0445 -1.7399
  410MOL0     H55295   1.155   8.143   5.677  0.4331  0.0179 -0.5483
  410MOL0     H55296   1.146   8.023   5.544  1.1010  1.9332 -1.3364
  410MOL0     H55297   0.880   8.167   5.596  0.6170  2.4566 -0.7530
  410MOL0     H55298   0.948   8.117   5.447  2.7168 -0.9324 -1.0045
  410MOL0     H55299   1.054   8.341   5.620  3.1534  0.9085  0.4897
  410MOL0     H55300   1.094   8.308   5.452 -1.0377 -1.1121  0.2429
  410MOL0     H55301   0.882   8.332   5.246 -1.4372 -0.1081 -0.4213
  410MOL0     H55302   0.694   8.650   5.221  0.9366 -0.3480  1.0095
  410MOL0     H55303   0.788   8.540   5.116 -0.1429 -2.8707 -0.0752
  410MOL0     H55304   0.552   8.450   5.275  0.1224  2.3052  0.1831
  410MOL0     H55305   0.511   8.517   5.112 -0.4693 -0.7918  0.8725
  410MOL0     H55306   0.677   8.274   5.133 -1.2795 -1.3908 -1.5643
  410MOL0     H55307   0.622   8.345   4.985 -0.0594 -0.5655  0.1644
  410MOL0     H55308   0.482   8.158   5.035 -1.3183 -1.0601  0.3757
  410MOL0     H55309   0.403   8.319   5.016 -1.9061 -1.0916  0.7695
  410MOL0     H55310   0.554   8.025   5.162  1.8237  0.7808  0.1457
  410MOL0     H55311   0.659   7.882   5.339  1.9604 -0.2585  1.4345
  410MOL0     H55312   0.795   7.731   5.780  0.5161  0.4079  0.8026
  410MOL0     H55313   0.801   7.598   5.985  0.6875  0.5277  0.2055
  410MOL0     H55314   0.620   7.555   6.363  0.7668 -0.3165 -0.8295
  410MOL0     H55315   0.520   7.703   6.319  0.8122  1.2092 -0.3577
  410MOL0     H55316   0.395   7.483   6.308  2.9626 -0.0626  1.6950
  410MOL0     H55317   0.404   7.578   6.155  0.7317  0.2141  0.4224
  410MOL0     H55318   0.625   7.375   6.188 -0.8703 -2.8278  5.5070
  410MOL0     H55319   0.470   7.300   6.217  2.2313  0.2713  1.8703
  410MOL0     H55320   0.592   7.395   5.957  1.7074 -2.5477  1.0334
  410MOL0     H55321   0.416   7.431   5.985  1.3547  2.0215  2.6188
  410MOL0     H55322   0.358   7.218   5.946 -0.4323  1.6730 -1.4207
  410MOL0     H55323   0.483   7.149   6.039 -1.3437  0.3144 -0.0751
  410MOL0     H55324   0.515   7.277   5.767  0.3847 -0.5990 -0.7562
  410MOL0     H55325   0.655   7.200   5.865  0.1349 -1.0574  1.8656
  410MOL0     H55326   0.404   7.061   5.754 -1.1401  0.0681  1.3021
  410MOL0     H55327   0.526   6.985   5.841  0.3898 -1.1919 -3.5439
  410MOL0     H55328   0.591   7.109   5.565  1.0577 -0.1264 -0.0504
  410MOL0     H55329   0.707   7.079   5.682  0.6296 -0.9885  0.1054
  410MOL0     H55330   0.495   7.840   6.165 -1.4850  0.8127 -1.5635
  410MOL0     H55331   0.477   7.977   5.963 -0.2197  0.5968  2.0252
  410MOL0     H55332   0.501   8.147   5.642  1.4885 -1.4681  0.6506
  410MOL0     H55333   0.402   8.290   5.449 -2.9227 -0.9673 -0.1715
  410MOL0     H55334   0.972   7.886   6.287 -0.3951 -0.2879 -0.1468
  410MOL0     H55335   0.862   7.747   6.434  0.2331 -0.0799 -1.0605
  410MOL0     H55336   1.006   7.396   6.880 -0.4448 -1.2655  0.3635
  410MOL0     H55337   0.835   7.311   7.027 -0.9987  0.9885  0.3213
  410MOL0     H55338   0.480   7.333   6.873 -3.2183  3.9640  2.4713
  410MOL0     H55339   0.530   7.346   7.038  1.0553 -0.3089 -0.7257
  410MOL0     H55340   0.374   7.165   7.093  2.1459 -2.4353 -0.2384
  410MOL0     H55341   0.370   7.108   6.928 -0.1315 -1.2582  2.6004
  410MOL0     H55342   0.266   7.376   6.915 -0.5734 -1.1827 -0.0585
  410MOL0     H55343   0.233   7.324   7.078 -0.3947 -0.8967  0.8803
  410MOL0     H55344   0.040   7.260   6.912 -1.4356 -2.4723  2.3770
  410MOL0     H55345   0.151   7.197   6.795  1.0863 -0.6310 -0.4196
  410MOL0     H55346   0.115   6.866   7.066 -3.0398 -1.9530 -2.3583
  410MOL0     H55347   0.627   7.150   6.696 -0.4400  2.4663 -2.0354
  410MOL0     H55348   0.852   7.250   6.438  1.4933 -0.3261  2.0385
  410MOL0     H55349   0.682   7.195   6.478  0.7006 -0.9365 -1.3322
  410MOL0     H55350   0.717   7.360   6.462 -2.9834 -1.4850  0.4021
  411MOL0     O55351   1.624   4.779   4.659 -0.1759 -0.8704  0.4157
  411MOL0     C55352   1.609   4.802   4.781  0.8950  0.1278  1.2166
  411MOL0     O55353   1.522   4.731   4.854  0.3443 -0.3892  0.0209
  411MOL0     C55354   1.462   4.622   4.800  0.4776  0.0245 -0.2846
  411MOL0     C55355   1.342   4.647   4.733 -0.2539 -0.0241  0.6148
  411MOL0     C55356   1.272   4.542   4.677  0.8744 -0.0621 -1.0191
  411MOL0     C55357   1.303   4.408   4.705 -0.2220  0.1555  0.3158
  411MOL0     O55358   1.231   4.296   4.659 -0.4637 -0.1286  0.1900
  411MOL0     C55359   1.109   4.317   4.581  0.2257  0.1185  0.2067
  411MOL0     C55360   1.057   4.182   4.529  0.0189  0.1595 -0.0903
  411MOL0     C55361   1.033   4.088   4.648 -0.0661  0.8525  0.3467
  411MOL0     C55362   0.937   3.980   4.593  0.4054 -0.5400 -0.7319
  411MOL0     C55363   0.872   3.893   4.710 -0.1589 -1.0172  0.7006
  411MOL0     C55364   0.835   3.749   4.676  0.2873  0.6956  0.3849
  411MOL0     C55365   0.709   3.756   4.589 -0.0576  0.4676  1.3278
  411MOL0     C55366   0.611   3.633   4.605 -0.7130  0.0665  0.3404
  411MOL0     N55367   0.630   3.529   4.509 -0.0537  0.0757 -0.6952
  411MOL0     C55368   0.699   3.409   4.533  0.6389 -0.1969 -0.5015
  411MOL0     C55369   0.683   3.345   4.420 -0.5826  0.5063 -0.7228
  411MOL0     C55370   0.714   3.198   4.388 -0.4703 -0.6415 -0.9426
  411MOL0     C55371   0.827   3.185   4.285  0.2477  0.6814 -0.2170
  411MOL0     C55372   0.853   3.035   4.258 -1.1316  0.3194  0.1181
  411MOL0     C55373   0.952   2.978   4.357  0.4048  0.5377 -0.1490
  411MOL0     O55374   1.091   3.010   4.326  0.6142  0.0016  0.0066
  411MOL0     C55375   1.152   2.952   4.219  0.5148  0.1352  0.4251
  411MOL0     C55376   1.222   3.033   4.128  0.0943  0.6074  0.2347
  411MOL0     C55377   1.275   2.968   4.007 -0.3499 -0.4562  0.7363
  411MOL0     C55378   1.265   2.831   3.991 -0.2669 -0.5624  0.2702
  411MOL0     C55379   1.319   2.777   3.859  0.8211  0.1552  0.7606
  411MOL0     O55380   1.258   2.661   3.818  0.2169 -0.4909 -0.9369
  411MOL0     C55381   1.296   2.593   3.710 -0.1073  0.1117  1.8464
  411MOL0     C55382   1.383   2.482   3.709 -1.3202  0.3026 -0.3730
  411MOL0     C55383   1.384   2.393   3.600  0.3250  0.9609  0.1275
  411MOL0     C55384   1.326   2.425   3.482 -0.3430 -0.5783 -0.6623
  411MOL0     O55385   1.325   2.334   3.382  0.5937  0.7937 -0.6609
  411MOL0     C55386   1.388   2.375   3.258  1.4461  0.3055 -0.3045
  411MOL0     C55387   1.524   2.307   3.256  0.0820  0.4725  0.5082
  411MOL0     C55388   1.525   2.149   3.285 -0.2381  0.0545  0.2059
  411MOL0     C55389   1.414   2.051   3.225  0.5013 -0.1081  0.8084
  411MOL0     C55390   1.402   2.068   3.072  0.1474  0.4085 -0.6716
  411MOL0     C55391   1.529   2.028   2.995 -0.2498  0.4893 -0.0745
  411MOL0     C55392   1.590   1.890   3.033 -0.5824  1.1875  0.0405
  411MOL0     C55393   1.715   1.853   2.952  0.5913  0.9829 -0.2265
  411MOL0    Cl55394   1.750   1.675   2.982  0.1239 -0.0265 -0.3368
  411MOL0     C55395   1.248   2.544   3.481  0.9735  0.2634  0.3263
  411MOL0     C55396   1.228   2.628   3.591  0.1732  0.9827 -0.0972
  411MOL0     O55397   1.405   2.837   3.793  0.7609  0.2297 -0.4760
  411MOL0     C55398   1.194   2.760   4.084 -0.3588 -0.5147 -0.0188
  411MOL0     C55399   1.140   2.815   4.200  0.1189 -0.4588  1.2269
  411MOL0     N55400   0.618   3.424   4.329  0.0511 -0.4936 -0.4625
  411MOL0     N55401   0.590   3.537   4.375 -0.5337 -0.2180  0.2183
  411MOL0     C55402   1.428   4.377   4.760 -0.8064  0.3572  0.0699
  411MOL0     C55403   1.503   4.488   4.817 -0.3725 -0.4589 -0.3024
  411MOL0     C55404   1.685   4.907   4.851 -1.0037  0.5721 -0.7039
  411MOL0     C55405   1.655   4.927   4.982  0.0988  0.1807 -0.1090
  411MOL0     C55406   1.727   5.017   5.062  0.6646  0.1065 -0.0889
  411MOL0     C55407   1.826   5.098   5.004 -0.1329 -0.7664 -0.0505
  411MOL0     O55408   1.897   5.196   5.076 -0.1304 -0.3954 -0.4636
  411MOL0     C55409   1.886   5.200   5.221 -0.6792 -0.5140 -0.3408
  411MOL0     C55410   1.989   5.294   5.293 -0.3451 -0.2760  0.3172
  411MOL0     C55411   1.984   5.270   5.444  0.9323  0.7673 -0.3130
  411MOL0     C55412   2.091   5.325   5.524  0.3040  0.4745 -0.7704
  411MOL0     C55413   2.044   5.324   5.665  0.3820  0.4355 -0.1129
  411MOL0     C55414   1.987   5.315   5.770 -0.7582 -0.2146 -0.2846
  411MOL0     C55415   1.859   5.079   4.875 -0.1788 -0.2243 -0.1189
  411MOL0     C55416   1.786   4.985   4.795 -0.4936 -0.3232 -0.0985
  411MOL0     C55417   1.839   4.962   4.653  0.1270  0.0291 -0.2797
  411MOL0     H55418   1.294   4.738   4.699  2.8137  0.6048 -2.7330
  411MOL0     H55419   1.174   4.561   4.636 -0.3849  1.9329  2.4961
  411MOL0     H55420   1.034   4.358   4.649 -1.0905 -1.0804 -0.4881
  411MOL0     H55421   1.131   4.374   4.491 -4.9904  0.2661 -1.2874
  411MOL0     H55422   1.132   4.150   4.457  1.6542 -1.0252  2.0455
  411MOL0     H55423   0.968   4.197   4.467 -1.0433 -1.9981  0.7925
  411MOL0     H55424   0.985   4.147   4.726  0.0376  2.6138 -0.8610
  411MOL0     H55425   1.124   4.036   4.681 -0.2670 -1.4383 -2.3249
  411MOL0     H55426   0.857   4.039   4.549  2.5009  4.3509  1.3103
  411MOL0     H55427   0.977   3.919   4.512  3.0919 -0.3601  0.3396
  411MOL0     H55428   0.943   3.884   4.793 -0.5853 -2.1910  0.9482
  411MOL0     H55429   0.783   3.945   4.749  0.1802  1.4120 -1.4401
  411MOL0     H55430   0.916   3.689   4.633  1.2621  3.3220 -1.7552
  411MOL0     H55431   0.818   3.693   4.768  0.9101 -0.1227  0.0087
  411MOL0     H55432   0.737   3.772   4.484 -0.9852 -0.2254  0.9564
  411MOL0     H55433   0.664   3.851   4.620 -1.5833  0.3500 -0.3395
  411MOL0     H55434   0.604   3.591   4.706  2.0931 -0.5648  0.3515
  411MOL0     H55435   0.509   3.669   4.592 -0.0316  2.6584  1.4964
  411MOL0     H55436   0.749   3.376   4.624 -1.9399 -0.1259  1.0490
  411MOL0     H55437   0.747   3.150   4.481 -0.9885  0.1348 -0.3469
  411MOL0     H55438   0.618   3.157   4.353 -1.2971 -0.1463  0.6415
  411MOL0     H55439   0.798   3.238   4.194  0.5665  0.2151 -0.5915
  411MOL0     H55440   0.914   3.230   4.332  0.3082 -0.4642  0.8459
  411MOL0     H55441   0.900   3.004   4.164 -0.5967 -1.2489  0.8605
  411MOL0     H55442   0.762   2.974   4.266 -0.9510  0.3248  4.2657
  411MOL0     H55443   0.934   2.870   4.358 -2.5786  0.9477  0.1938
  411MOL0     H55444   0.937   3.005   4.462 -1.3606 -1.0434  0.0634
  411MOL0     H55445   1.228   3.141   4.140  2.5494  0.7279 -1.2958
  411MOL0     H55446   1.313   3.035   3.931 -0.8822 -2.2798 -1.2187
  411MOL0     H55447   1.430   2.456   3.803 -0.5307 -0.6533 -1.0140
  411MOL0     H55448   1.449   2.307   3.608  0.5953  1.2042  0.5891
  411MOL0     H55449   1.312   2.350   3.183 -0.7167 -2.1132  2.4244
  411MOL0     H55450   1.410   2.482   3.259  3.1236 -0.0042  0.8428
  411MOL0     H55451   1.568   2.313   3.156 -0.1151 -0.8107  0.3254
  411MOL0     H55452   1.597   2.360   3.319 -2.4600  3.6234  1.0560
  411MOL0     H55453   1.626   2.115   3.260 -0.7402  0.4068 -2.6717
  411MOL0     H55454   1.509   2.137   3.392 -0.7375  1.6227  0.3284
  411MOL0     H55455   1.324   2.086   3.276  0.3733  1.3638 -0.3680
  411MOL0     H55456   1.436   1.946   3.248  0.4700 -0.3626 -0.2791
  411MOL0     H55457   1.369   2.172   3.059 -2.6772 -0.4786 -1.4252
  411MOL0     H55458   1.316   2.012   3.034  1.3305 -1.1720 -1.0931
  411MOL0     H55459   1.499   2.032   2.889 -3.2940 -4.2591  0.3111
  411MOL0     H55460   1.611   2.097   3.015  1.3493 -0.7509 -1.9645
  411MOL0     H55461   1.509   1.825   2.999 -0.4149  0.6067  0.7199
  411MOL0     H55462   1.616   1.883   3.139  1.3804  2.3158 -0.3066
  411MOL0     H55463   1.713   1.888   2.848 -1.0483  0.8860 -0.2552
  411MOL0     H55464   1.796   1.910   2.998  1.4734  0.2484 -0.8288
  411MOL0     H55465   1.188   2.582   3.399  1.4074  1.1209  0.4032
  411MOL0     H55466   1.155   2.709   3.592  1.4411  2.2419 -2.2096
  411MOL0     H55467   1.190   2.652   4.074  1.1868 -0.4714 -1.3746
  411MOL0     H55468   1.090   2.760   4.280  0.5622  1.4928  2.9200
  411MOL0     H55469   1.466   4.277   4.772 -0.1997  0.7690  2.0446
  411MOL0     H55470   1.601   4.471   4.860 -0.6970  1.0424  1.1248
  411MOL0     H55471   1.571   4.878   5.029  0.6422  1.4169  2.3032
  411MOL0     H55472   1.689   5.050   5.159  0.1603  2.9716 -1.1584
  411MOL0     H55473   1.901   5.099   5.263  0.5235 -0.1117  0.2438
  411MOL0     H55474   1.789   5.235   5.257 -0.0667 -0.6463  1.6092
  411MOL0     H55475   1.980   5.402   5.276  0.3168 -0.2183  0.3171
  411MOL0     H55476   2.087   5.276   5.248 -0.1618 -2.2940  1.4433
  411MOL0     H55477   1.983   5.166   5.476  2.7791  1.5153  2.5051
  411MOL0     H55478   1.894   5.331   5.460  0.1720  0.9735 -4.2661
  411MOL0     H55479   2.190   5.278   5.518  0.2172  0.3737 -1.4921
  411MOL0     H55480   2.111   5.423   5.481  2.6004  0.6319  0.4985
  411MOL0     H55481   1.938   5.318   5.866 -2.4442  0.3421 -1.1145
  411MOL0     H55482   1.943   5.135   4.835 -0.5998  1.2347  0.9740
  411MOL0     H55483   1.768   4.995   4.577  1.6564  1.5049 -1.1276
  411MOL0     H55484   1.926   5.019   4.619 -0.2997  0.4476 -0.6849
  411MOL0     H55485   1.851   4.856   4.627 -0.0503  0.5394 -2.6115
  412MOL0     O55486  11.049   7.704   2.994 -0.0021 -0.9250  0.2806
  412MOL0     C55487  11.091   7.681   3.107  0.4438 -0.1901 -0.0984
  412MOL0     O55488  11.026   7.711   3.229 -0.4610  0.3871 -0.4970
  412MOL0     C55489  10.901   7.771   3.241  0.0684 -0.2805 -0.2286
  412MOL0     C55490  10.826   7.753   3.357 -0.4708  0.1310 -0.1772
  412MOL0     C55491  10.700   7.809   3.375 -0.1501 -0.1273 -0.3776
  412MOL0     C55492  10.649   7.897   3.278  0.1136 -0.0598  0.6332
  412MOL0     O55493  10.524   7.960   3.282  0.6066 -0.1209  0.3204
  412MOL0     C55494  10.441   7.934   3.396  0.5106 -0.9150  0.4387
  412MOL0     C55495  10.492   8.002   3.526  0.1165  0.4630 -1.0716
  412MOL0     C55496  10.420   7.946   3.651  0.2303  0.0761 -0.5432
  412MOL0     C55497  10.452   8.015   3.787  0.0069 -0.3985 -0.5400
  412MOL0     C55498  10.367   7.945   3.893  0.1158 -0.2001  0.3017
  412MOL0     C55499  10.385   8.016   4.029 -0.9062  0.0697 -0.6856
  412MOL0     C55500  10.519   8.008   4.090 -0.5414  0.2821 -0.2877
  412MOL0     C55501  10.535   8.053   4.243 -0.2483 -1.2062 -0.6711
  412MOL0     N55502  10.649   8.148   4.277 -0.8922  1.0101  0.5263
  412MOL0     C55503  10.777   8.105   4.309  0.2669 -0.1992  0.1485
  412MOL0     C55504  10.842   8.217   4.352  0.9134  0.7701 -0.3162
  412MOL0     C55505  10.988   8.221   4.390  0.5242 -0.0631 -0.3096
  412MOL0     C55506  11.056   8.355   4.397  0.0707 -0.0262  0.4003
  412MOL0     C55507  11.207   8.341   4.435 -0.3171 -0.2243 -0.0502
  412MOL0     C55508  11.306   8.269   4.343 -0.6264 -0.8153  0.3778
  412MOL0     O55509  11.428   8.259   4.418 -0.3675 -0.5864  0.0737
  412MOL0     C55510  11.541   8.213   4.355 -0.0169  1.2568  0.5410
  412MOL0     C55511  11.546   8.178   4.212  0.3447  0.3499 -0.8972
  412MOL0     C55512  11.670   8.130   4.163 -1.0416  0.2837  1.4584
  412MOL0     C55513  11.787   8.114   4.235 -0.2325  0.4954 -0.2616
  412MOL0     C55514  11.910   8.062   4.178 -0.6886  0.1363  0.7415
  412MOL0     O55515  12.015   8.024   4.264  0.1378 -0.4931  0.1876
  412MOL0     C55516  12.117   7.961   4.210  0.2000  0.2542  0.1634
  412MOL0     C55517  12.234   8.025   4.177  0.0057  0.8664  1.0020
  412MOL0     C55518  12.349   7.965   4.112  1.3220  0.5278  0.1996
  412MOL0     C55519  12.335   7.831   4.075  0.3048  0.3529  0.5065
  412MOL0     O55520  12.438   7.784   4.004  0.1695 -0.2005 -0.3535
  412MOL0     C55521  12.477   7.647   3.966  0.3833 -0.4776 -0.2848
  412MOL0     C55522  12.536   7.650   3.828 -0.4766  0.1192  0.2981
  412MOL0     C55523  12.660   7.743   3.805  0.4834  0.5864  0.3914
  412MOL0     C55524  12.734   7.685   3.682  0.6229 -0.7388  0.1288
  412MOL0     C55525  12.847   7.778   3.661  0.3026  0.2293  0.9128
  412MOL0     C55526  12.927   7.754   3.535 -0.3929  0.0707  1.5280
  412MOL0     C55527  13.031   7.872   3.521 -0.3211  0.3861 -0.2927
  412MOL0     C55528  13.156   7.814   3.446 -0.2693  0.0326  0.6142
  412MOL0    Cl55529  13.282   7.944   3.418 -0.2150  0.4307 -0.2510
  412MOL0     C55530  12.220   7.761   4.110  0.7701  0.0117  0.2736
  412MOL0     C55531  12.121   7.823   4.177 -0.4642 -0.0956  0.3132
  412MOL0     O55532  11.917   8.071   4.051  0.1191 -0.5100 -0.3877
  412MOL0     C55533  11.782   8.154   4.374  0.0274 -0.4671  0.5681
  412MOL0     C55534  11.657   8.196   4.433 -0.0403  0.4015 -0.5614
  412MOL0     N55535  10.756   8.326   4.320 -0.1305  0.5760 -0.7074
  412MOL0     N55536  10.640   8.283   4.280  0.0224 -0.3268  0.1228
  412MOL0     C55537  10.733   7.936   3.177  0.2731  1.6697 -0.2197
  412MOL0     C55538  10.851   7.870   3.155 -1.0656 -0.4487 -0.0613
  412MOL0     C55539  11.228   7.623   3.108  0.3364  0.2785  0.1036
  412MOL0     C55540  11.291   7.599   2.986  0.4317 -0.4675  0.3514
  412MOL0     C55541  11.419   7.552   2.979 -0.5061  0.0454 -0.0746
  412MOL0     C55542  11.491   7.525   3.096  0.2345 -0.2534 -0.0415
  412MOL0     O55543  11.616   7.470   3.105  0.2422 -0.3864 -0.0841
  412MOL0     C55544  11.666   7.387   2.997  0.5463 -1.0924  1.2881
  412MOL0     C55545  11.811   7.360   3.035  0.0363 -0.2019  0.1151
  412MOL0     C55546  11.908   7.469   3.003 -0.1507 -0.1670  0.2196
  412MOL0     C55547  12.051   7.420   3.053  0.7482 -0.0183  0.4536
  412MOL0     C55548  12.171   7.491   2.996  0.8242  0.0216  0.5123
  412MOL0     C55549  12.260   7.556   2.945 -1.2335 -0.2075 -0.0695
  412MOL0     C55550  11.426   7.541   3.224 -1.2856 -0.1722  0.3010
  412MOL0     C55551  11.292   7.580   3.227  0.6614  0.0941  0.3158
  412MOL0     C55552  11.226   7.570   3.363  0.2311 -0.2653  0.4984
  412MOL0     H55553  10.865   7.683   3.430 -0.5386  0.5187  0.2308
  412MOL0     H55554  10.637   7.769   3.454 -2.0382  1.4245 -1.0185
  412MOL0     H55555  10.342   7.978   3.382 -0.1610 -1.1828  3.5442
  412MOL0     H55556  10.426   7.826   3.401 -2.2977 -0.5390  2.0399
  412MOL0     H55557  10.469   8.108   3.514  0.9419  0.6454 -1.0549
  412MOL0     H55558  10.601   7.997   3.531  0.3290  0.9454 -3.8620
  412MOL0     H55559  10.450   7.841   3.657  0.4724  0.2309  1.8112
  412MOL0     H55560  10.311   7.954   3.641 -0.0046 -3.2838 -2.0422
  412MOL0     H55561  10.557   8.012   3.817 -0.5065  0.4852  1.5696
  412MOL0     H55562  10.424   8.120   3.789  2.2824  0.3252  3.1729
  412MOL0     H55563  10.261   7.946   3.866  0.0668  1.8629  0.3942
  412MOL0     H55564  10.388   7.839   3.907 -1.0297 -0.2536  1.8514
  412MOL0     H55565  10.357   8.121   4.023 -0.7769  0.4296  2.8732
  412MOL0     H55566  10.310   7.974   4.097 -0.1116  0.5345  0.5045
  412MOL0     H55567  10.581   8.074   4.028 -0.7699  1.3225  0.5424
  412MOL0     H55568  10.561   7.908   4.080  0.3505  0.6796 -0.6632
  412MOL0     H55569  10.439   8.101   4.268 -0.8573 -0.5326 -3.8128
  412MOL0     H55570  10.546   7.967   4.309  0.2950 -0.5461  0.1126
  412MOL0     H55571  10.808   8.002   4.324 -0.8905 -0.4537  0.9033
  412MOL0     H55572  11.003   8.158   4.478 -0.6304  0.8636  0.5856
  412MOL0     H55573  11.046   8.165   4.316  2.7012  0.4045  0.9550
  412MOL0     H55574  11.047   8.397   4.296  3.6424  2.7443  1.0352
  412MOL0     H55575  10.996   8.416   4.464 -0.7812 -0.1520 -0.2344
  412MOL0     H55576  11.201   8.294   4.533 -3.6653 -2.3499 -1.1051
  412MOL0     H55577  11.254   8.440   4.442 -2.6880  1.3111 -3.3088
  412MOL0     H55578  11.327   8.321   4.249 -2.4833 -0.9698 -0.1643
  412MOL0     H55579  11.254   8.176   4.320 -0.4465 -0.9118  0.3658
  412MOL0     H55580  11.458   8.181   4.149 -2.2113  0.0047  2.4095
  412MOL0     H55581  11.665   8.093   4.061 -1.8140  0.0830  1.5606
  412MOL0     H55582  12.238   8.132   4.191 -0.4806  1.0308  0.0165
  412MOL0     H55583  12.440   8.017   4.085  1.8507 -1.8692 -3.1091
  412MOL0     H55584  12.553   7.617   4.039  0.5628  1.2632  0.3112
  412MOL0     H55585  12.389   7.584   3.951 -0.5341  1.2159 -2.7495
  412MOL0     H55586  12.558   7.546   3.802 -1.5479  0.0116 -0.2359
  412MOL0     H55587  12.472   7.690   3.749  2.3070  2.5933 -0.8965
  412MOL0     H55588  12.624   7.844   3.784 -0.6858 -0.1337 -1.2864
  412MOL0     H55589  12.723   7.741   3.894  2.3221  3.3968 -0.7165
  412MOL0     H55590  12.684   7.681   3.585 -0.3302  0.9996  0.5069
  412MOL0     H55591  12.767   7.582   3.696  1.1553 -1.1477 -3.3123
  412MOL0     H55592  12.925   7.778   3.738  1.8600  2.1710 -0.5384
  412MOL0     H55593  12.809   7.880   3.649 -0.0566 -0.0285 -0.2298
  412MOL0     H55594  12.991   7.665   3.538  0.5894  0.5232 -1.8346
  412MOL0     H55595  12.867   7.762   3.445  0.4285  0.8210  1.0297
  412MOL0     H55596  13.074   7.922   3.608  0.9244 -0.2034 -0.5589
  412MOL0     H55597  12.994   7.946   3.449  0.2256 -0.0251 -1.0082
  412MOL0     H55598  13.204   7.722   3.479  0.9432 -0.5347 -2.4076
  412MOL0     H55599  13.125   7.783   3.346  0.8944  1.6793 -0.2983
  412MOL0     H55600  12.228   7.659   4.076  2.0160  1.0916 -3.0440
  412MOL0     H55601  12.029   7.768   4.191 -0.4811  0.1123  1.0771
  412MOL0     H55602  11.865   8.150   4.443  0.5040 -0.9312 -0.0235
  412MOL0     H55603  11.664   8.222   4.538 -0.8573  0.5961 -0.5485
  412MOL0     H55604  10.680   7.990   3.100 -1.3564 -0.1130 -0.4202
  412MOL0     H55605  10.911   7.895   3.069 -0.2936  1.5860  1.0106
  412MOL0     H55606  11.240   7.612   2.891 -2.7263 -0.0639  1.9661
  412MOL0     H55607  11.459   7.528   2.881  0.6158 -0.2974  0.4499
  412MOL0     H55608  11.660   7.442   2.902  1.2619 -1.1998  1.1740
  412MOL0     H55609  11.605   7.296   2.988  1.0949 -1.5554  2.1415
  412MOL0     H55610  11.850   7.276   2.977  1.1521  0.2020  0.2531
  412MOL0     H55611  11.817   7.343   3.143 -0.0693  0.1570  0.1794
  412MOL0     H55612  11.871   7.560   3.052 -1.4516  1.0731 -2.7569
  412MOL0     H55613  11.910   7.505   2.899 -0.7401  0.4681  0.4170
  412MOL0     H55614  12.043   7.433   3.162  1.2314  1.6888  0.3113
  412MOL0     H55615  12.053   7.313   3.030 -2.1243  0.3369 -2.0275
  412MOL0     H55616  12.347   7.593   2.894 -0.3636 -1.9072  0.1117
  412MOL0     H55617  11.489   7.515   3.308  0.7602  1.2090 -0.7050
  412MOL0     H55618  11.215   7.668   3.411  1.1553 -0.8717  2.0105
  412MOL0     H55619  11.127   7.525   3.354  0.0476  0.3269 -0.7550
  412MOL0     H55620  11.284   7.507   3.430  2.2310  2.6463  1.7232
  413MOL0     O55621   3.265   0.995   7.364 -0.0884  0.4439  0.1173
  413MOL0     C55622   3.291   1.107   7.317  0.1935  0.7720  0.3099
  413MOL0     O55623   3.416   1.153   7.296 -0.3083 -0.6561  0.3383
  413MOL0     C55624   3.526   1.097   7.356  0.3569 -0.2661 -0.1503
  413MOL0     C55625   3.605   1.178   7.439  0.4889 -0.4453 -0.8006
  413MOL0     C55626   3.711   1.121   7.511  0.3314 -0.8431  0.3190
  413MOL0     C55627   3.748   0.986   7.483 -1.1185  0.2888  0.5543
  413MOL0     O55628   3.855   0.917   7.546 -0.1200 -0.0891 -0.2635
  413MOL0     C55629   3.968   0.998   7.594 -0.0707  0.6095  0.0202
  413MOL0     C55630   4.072   0.878   7.621  0.0712 -0.6149  0.4876
  413MOL0     C55631   4.197   0.938   7.692  0.1499 -0.3464 -0.3016
  413MOL0     C55632   4.329   0.852   7.690 -1.1355  0.4153  0.0229
  413MOL0     C55633   4.434   0.917   7.781 -0.5452  0.4401 -0.2540
  413MOL0     C55634   4.556   0.838   7.759 -1.0975  0.0855  0.2126
  413MOL0     C55635   4.676   0.884   7.848  0.4342  1.0091  0.9041
  413MOL0     C55636   4.664   0.846   8.000  0.0521  0.0851  0.0044
  413MOL0     N55637   4.775   0.760   8.050  0.2074 -0.0610  0.8307
  413MOL0     C55638   4.889   0.813   8.089 -0.9072  0.1024 -0.4435
  413MOL0     C55639   4.968   0.703   8.117 -0.8072 -0.5566 -0.7374
  413MOL0     C55640   5.108   0.719   8.177  0.4047  0.0064  1.0337
  413MOL0     C55641   5.200   0.816   8.098  0.0680  0.1021 -0.4817
  413MOL0     C55642   5.343   0.781   8.148  0.0412 -0.4570 -0.2182
  413MOL0     C55643   5.447   0.865   8.079  0.1010 -0.3282 -0.8804
  413MOL0     O55644   5.572   0.792   8.063 -0.1238  0.5002 -0.4405
  413MOL0     C55645   5.664   0.827   8.162  0.3227 -0.9514  0.3009
  413MOL0     C55646   5.795   0.793   8.137  0.3945 -0.4124 -0.1862
  413MOL0     C55647   5.895   0.811   8.236 -1.2641 -0.3620 -0.6809
  413MOL0     C55648   5.879   0.869   8.355 -0.1890 -0.2468 -1.1327
  413MOL0     C55649   5.991   0.903   8.437 -0.2334 -0.0152 -0.7577
  413MOL0     O55650   6.111   0.930   8.374  0.1571 -0.0774 -0.1188
  413MOL0     C55651   6.221   0.976   8.438 -0.1943  0.2067  0.3002
  413MOL0     C55652   6.313   1.053   8.363  0.1026  0.6207  0.1950
  413MOL0     C55653   6.419   1.116   8.417  0.5131 -0.3744  0.8754
  413MOL0     C55654   6.453   1.100   8.558 -0.3171  0.3411  0.8196
  413MOL0     O55655   6.564   1.165   8.609  0.0288 -0.7429  0.0362
  413MOL0     C55656   6.621   1.104   8.730  1.0193  0.5593  0.2473
  413MOL0     C55657   6.739   1.178   8.789 -0.1541  0.0521 -0.1198
  413MOL0     C55658   6.784   1.106   8.921  0.9630 -0.3251 -0.0558
  413MOL0     C55659   6.901   1.176   8.989  0.4827 -0.5054 -0.0998
  413MOL0     C55660   6.931   1.105   9.116  0.0303  0.2219 -0.5117
  413MOL0     C55661   7.022   1.180   9.207 -1.7312 -0.1658 -0.0904
  413MOL0     C55662   7.029   1.124   9.348 -0.7997 -0.7994 -0.5191
  413MOL0     C55663   7.072   0.982   9.361 -0.5445  0.1569  0.1693
  413MOL0    Cl55664   7.230   0.963   9.296 -0.1846  0.1467 -0.1580
  413MOL0     C55665   6.364   1.026   8.641 -0.5337  1.1718 -0.5101
  413MOL0     C55666   6.254   0.968   8.581  0.4904  0.4139  0.1503
  413MOL0     O55667   5.966   0.923   8.555 -0.4868  0.0433  0.5910
  413MOL0     C55668   5.744   0.904   8.387  0.1600  0.1343  0.3911
  413MOL0     C55669   5.638   0.887   8.291  0.2541 -0.1025  0.3007
  413MOL0     N55670   4.885   0.591   8.094 -0.0122 -0.4220  0.5656
  413MOL0     N55671   4.768   0.627   8.063  0.2261  0.1625  0.3669
  413MOL0     C55672   3.668   0.908   7.397 -0.5169 -0.0389 -0.0702
  413MOL0     C55673   3.556   0.961   7.333 -0.1261  0.1923 -0.9332
  413MOL0     C55674   3.184   1.188   7.267  0.8635  0.7861 -0.0210
  413MOL0     C55675   3.218   1.306   7.204  1.1580 -1.2275  0.7739
  413MOL0     C55676   3.115   1.402   7.171 -0.4357 -0.6401  0.4515
  413MOL0     C55677   2.980   1.374   7.188 -1.3976 -0.9186 -0.3054
  413MOL0     O55678   2.893   1.465   7.139  0.1341  0.3130 -0.3995
  413MOL0     C55679   2.751   1.450   7.156 -0.3511 -0.0009 -0.4414
  413MOL0     C55680   2.700   1.352   7.048 -0.8391  0.3362 -0.3244
  413MOL0     C55681   2.729   1.410   6.912  0.2761 -0.3953  0.2422
  413MOL0     C55682   2.661   1.352   6.794 -0.1612  0.5843 -1.0322
  413MOL0     C55683   2.522   1.381   6.808 -0.3297 -0.5193  0.4520
  413MOL0     C55684   2.406   1.415   6.834 -0.0782  0.4578  0.1109
  413MOL0     C55685   2.941   1.254   7.253  0.1209  0.3352 -0.2463
  413MOL0     C55686   3.039   1.161   7.295  0.2636  0.2047  1.0802
  413MOL0     C55687   2.988   1.032   7.358  0.2463  0.1857 -0.4951
  413MOL0     H55688   3.570   1.278   7.460 -1.2057 -0.8473 -1.5192
  413MOL0     H55689   3.766   1.178   7.585 -1.2804  1.7020 -0.3056
  413MOL0     H55690   3.995   1.072   7.518 -0.5228  0.5516 -0.1998
  413MOL0     H55691   3.952   1.057   7.685 -0.9817  1.2840 -0.5565
  413MOL0     H55692   4.107   0.832   7.528 -0.0743 -0.7074  0.4780
  413MOL0     H55693   4.021   0.794   7.670  1.9773 -1.8433  0.5109
  413MOL0     H55694   4.171   0.952   7.797 -1.0866 -2.5433 -0.2452
  413MOL0     H55695   4.219   1.029   7.636 -1.2221 -0.4228 -1.0049
  413MOL0     H55696   4.313   0.745   7.710  1.0238 -0.3671 -1.8853
  413MOL0     H55697   4.364   0.844   7.586  1.1229  0.0554  0.7571
  413MOL0     H55698   4.451   1.024   7.765 -3.0062  0.9322  0.1070
  413MOL0     H55699   4.403   0.907   7.885 -2.4166  3.0377 -0.4524
  413MOL0     H55700   4.533   0.732   7.774 -2.6977  0.1496 -1.4862
  413MOL0     H55701   4.585   0.847   7.654 -1.1391  1.7118  0.3254
  413MOL0     H55702   4.694   0.992   7.842  2.5269  0.6346 -0.3131
  413MOL0     H55703   4.771   0.839   7.817 -0.3215 -0.0451  0.0496
  413MOL0     H55704   4.657   0.935   8.062  4.5142 -0.1932  1.2488
  413MOL0     H55705   4.571   0.790   8.015  0.0883  0.1596  0.5240
  413MOL0     H55706   4.916   0.918   8.100 -1.8436  0.0841  4.6647
  413MOL0     H55707   5.097   0.760   8.278 -1.2084  2.5443 -0.0777
  413MOL0     H55708   5.157   0.621   8.181  0.6821  0.1061  0.2004
  413MOL0     H55709   5.196   0.803   7.990 -0.5617 -0.0892 -0.4406
  413MOL0     H55710   5.168   0.919   8.121 -1.0895  0.1582 -2.1611
  413MOL0     H55711   5.367   0.676   8.126 -0.9466 -1.2967  2.3540
  413MOL0     H55712   5.348   0.798   8.255  1.3948  2.6010 -0.6688
  413MOL0     H55713   5.467   0.968   8.109  1.5128 -1.0777  0.9690
  413MOL0     H55714   5.407   0.881   7.978 -0.5893  0.4219 -0.4922
  413MOL0     H55715   5.811   0.743   8.042  2.5749 -0.0527 -0.0662
  413MOL0     H55716   5.995   0.784   8.206 -1.2514  1.0091 -1.9302
  413MOL0     H55717   6.296   1.062   8.256  0.9002 -3.5921 -0.4651
  413MOL0     H55718   6.487   1.170   8.351 -2.2292  1.7259 -0.4243
  413MOL0     H55719   6.542   1.099   8.805  0.9775  0.0577  0.1720
  413MOL0     H55720   6.657   1.003   8.705  1.0849  0.8844 -1.0840
  413MOL0     H55721   6.821   1.189   8.718  0.1720  0.4079  0.3112
  413MOL0     H55722   6.699   1.279   8.802 -0.8837 -0.1841 -0.4552
  413MOL0     H55723   6.698   1.106   8.989 -0.9229  0.8118 -2.2796
  413MOL0     H55724   6.828   1.007   8.905  0.2307 -1.2119  2.9043
  413MOL0     H55725   6.865   1.278   9.008  0.7259 -0.5156  0.4146
  413MOL0     H55726   6.985   1.178   8.919  0.5816  0.8518  0.0224
  413MOL0     H55727   6.975   1.009   9.088 -1.2116  0.4391 -3.6360
  413MOL0     H55728   6.837   1.089   9.171  0.1263  1.3560  0.0027
  413MOL0     H55729   7.123   1.177   9.167 -1.3262  1.5388  0.7182
  413MOL0     H55730   6.998   1.285   9.221  0.8669  0.1728  3.1023
  413MOL0     H55731   6.932   1.150   9.391 -1.1757 -1.2463 -1.0705
  413MOL0     H55732   7.102   1.186   9.401  1.0611 -1.1038 -2.5623
  413MOL0     H55733   7.072   0.949   9.465  0.4410  0.7008  0.3573
  413MOL0     H55734   7.002   0.919   9.305 -0.0741 -1.1368  0.9841
  413MOL0     H55735   6.372   1.028   8.749  0.0509  0.1040 -0.5154
  413MOL0     H55736   6.182   0.925   8.650  0.1132 -0.5738 -0.8389
  413MOL0     H55737   5.718   0.953   8.481  1.0277  1.3574  0.0154
  413MOL0     H55738   5.538   0.905   8.328  1.1400 -1.5444  3.8705
  413MOL0     H55739   3.687   0.802   7.390 -1.1812 -0.2244  0.7565
  413MOL0     H55740   3.492   0.910   7.263 -0.8178  0.7594 -0.7193
  413MOL0     H55741   3.318   1.340   7.181  0.5666  0.3695  0.4512
  413MOL0     H55742   3.148   1.493   7.121  0.4783 -0.5491  1.1937
  413MOL0     H55743   2.701   1.547   7.146 -3.3116 -1.3322  0.1692
  413MOL0     H55744   2.733   1.414   7.257  1.5318  1.2326  0.3854
  413MOL0     H55745   2.592   1.342   7.065 -1.4216 -0.0535 -3.5662
  413MOL0     H55746   2.751   1.255   7.054 -0.4172  0.4786 -1.3145
  413MOL0     H55747   2.837   1.400   6.894  0.1990  0.4584 -0.7714
  413MOL0     H55748   2.704   1.516   6.918  1.1018 -0.2790  2.3478
  413MOL0     H55749   2.705   1.399   6.705  1.1423  1.6030  0.1117
  413MOL0     H55750   2.687   1.246   6.790  5.9813  1.6407  0.4363
  413MOL0     H55751   2.310   1.459   6.853 -1.3890 -2.0904 -0.2861
  413MOL0     H55752   2.838   1.223   7.266 -0.6947  0.8344 -4.2044
  413MOL0     H55753   3.003   0.941   7.299  0.5248 -0.8361  1.0846
  413MOL0     H55754   3.039   1.005   7.451 -0.3561  1.2371  0.1504
  413MOL0     H55755   2.886   1.027   7.397  1.0279 -2.5762  1.5470
  414MOL0     O55756   2.542  10.935   4.844  0.8588  0.1981 -0.3587
  414MOL0     C55757   2.524  11.026   4.924  0.3558 -1.3027 -0.0426
  414MOL0     O55758   2.626  11.086   4.997 -0.4886 -0.4745 -0.6972
  414MOL0     C55759   2.758  11.066   4.976  0.5432 -0.4525 -0.4699
  414MOL0     C55760   2.826  10.975   4.887  0.1822  0.2093  1.0791
  414MOL0     C55761   2.962  10.988   4.859  0.1342  0.0777  0.3569
  414MOL0     C55762   3.040  11.087   4.928 -0.2562  0.0079  0.3487
  414MOL0     O55763   3.179  11.073   4.902 -0.2827 -0.1531 -0.3090
  414MOL0     C55764   3.276  11.163   4.958  0.6068 -0.4294  0.1397
  414MOL0     C55765   3.416  11.134   4.912  0.2125 -0.1327 -0.0171
  414MOL0     C55766   3.520  11.201   5.000 -0.0881  0.0399 -0.3106
  414MOL0     C55767   3.515  11.357   5.011  1.0313 -0.3489  0.9132
  414MOL0     C55768   3.661  11.418   5.016  0.0606  0.2387  0.2632
  414MOL0     C55769   3.657  11.568   5.049 -0.3834 -0.3316  0.1396
  414MOL0     C55770   3.802  11.613   5.063 -0.3390  0.7468 -0.0489
  414MOL0     C55771   3.808  11.757   5.111  0.3305 -0.5655  0.4585
  414MOL0     N55772   3.946  11.805   5.109 -0.0183 -0.3870  0.5808
  414MOL0     C55773   4.046  11.761   5.199 -0.3484 -0.9753 -0.2510
  414MOL0     C55774   4.134  11.866   5.201  0.6581 -1.0559 -0.1714
  414MOL0     C55775   4.250  11.899   5.284  0.2254  0.7685  0.0708
  414MOL0     C55776   4.346  11.782   5.290  0.4505 -0.1838  0.1528
  414MOL0     C55777   4.472  11.834   5.353 -0.1289  0.4301 -0.1935
  414MOL0     C55778   4.578  11.717   5.374  0.2427  0.5415  0.0923
  414MOL0     O55779   4.607  11.656   5.244 -0.0206  0.0016 -0.5462
  414MOL0     C55780   4.731  11.686   5.190  0.4735 -1.7910 -0.1924
  414MOL0     C55781   4.799  11.808   5.211 -0.9954  0.2375 -0.4605
  414MOL0     C55782   4.928  11.821   5.147  1.1573 -0.0945  0.1530
  414MOL0     C55783   4.982  11.713   5.082  0.9658 -0.4185 -0.0770
  414MOL0     C55784   5.126  11.715   5.032  0.6685 -0.9900 -0.4484
  414MOL0     O55785   5.182  11.837   5.016 -0.0197 -0.3053  1.0423
  414MOL0     C55786   5.319  11.856   4.993 -0.6516 -0.2580 -0.0508
  414MOL0     C55787   5.356  11.949   4.898  0.1137 -0.0985  1.2272
  414MOL0     C55788   5.496  11.981   4.876  0.5311  0.3262  0.2192
  414MOL0     C55789   5.598  11.912   4.942 -0.5275  0.0872  0.5887
  414MOL0     O55790   5.734  11.946   4.915 -0.2234 -0.0983 -0.1476
  414MOL0     C55791   5.775  12.077   4.956 -0.4633 -0.1188  0.8859
  414MOL0     C55792   5.931  12.062   4.987 -0.0947  0.8481 -0.0294
  414MOL0     C55793   5.999  12.189   5.032  1.0295  1.0239  0.1839
  414MOL0     C55794   6.153  12.178   5.018 -0.3907  0.5144 -0.1679
  414MOL0     C55795   6.223  12.280   5.108 -0.2226 -0.2590 -0.2861
  414MOL0     C55796   6.382  12.265   5.097 -0.0680  0.1183 -1.0682
  414MOL0     C55797   6.461  12.397   5.115  0.4004  0.6319 -0.6547
  414MOL0     C55798   6.603  12.364   5.156  0.7146  0.4876 -0.1630
  414MOL0    Cl55799   6.675  12.508   5.233 -0.2326  0.0909 -0.2792
  414MOL0     C55800   5.561  11.814   5.039  1.2227  0.2701  0.1669
  414MOL0     C55801   5.426  11.795   5.065  0.1478  0.8115 -0.2494
  414MOL0     O55802   5.185  11.608   5.017  0.0010  0.0623 -0.7026
  414MOL0     C55803   4.913  11.593   5.074  1.0795 -0.9022  0.0215
  414MOL0     C55804   4.784  11.585   5.121  1.1303 -0.0402  0.8917
  414MOL0     N55805   4.087  11.964   5.124  0.3931  0.4772 -0.0763
  414MOL0     N55806   3.980  11.922   5.058  0.3330 -0.2752 -0.0660
  414MOL0     C55807   2.977  11.173   5.017  0.5779 -0.7164  0.0608
  414MOL0     C55808   2.835  11.168   5.041 -0.8112  0.1021  0.7165
  414MOL0     C55809   2.386  11.070   4.961 -0.3072 -0.6864 -0.2009
  414MOL0     C55810   2.363  11.142   5.082  0.1794 -0.1194  0.0707
  414MOL0     C55811   2.234  11.166   5.125  0.9301 -0.3774  0.0150
  414MOL0     C55812   2.119  11.119   5.051  0.7251 -0.0897  0.6671
  414MOL0     O55813   1.992  11.131   5.102 -0.3450  0.3473  0.1872
  414MOL0     C55814   1.964  11.228   5.202  0.4981 -0.0629  0.9283
  414MOL0     C55815   1.819  11.211   5.236 -0.6884  0.9486 -0.2341
  414MOL0     C55816   1.792  11.066   5.286 -0.7420 -0.8204  0.5060
  414MOL0     C55817   1.645  11.034   5.308  0.1419  0.1661  1.2279
  414MOL0     C55818   1.636  10.902   5.378 -0.2515  0.3961 -0.3648
  414MOL0     C55819   1.623  10.798   5.437 -0.0857  0.5399 -0.7679
  414MOL0     C55820   2.141  11.054   4.927 -0.5498 -0.3944  0.4390
  414MOL0     C55821   2.276  11.041   4.875 -0.2600  0.4359  0.0763
  414MOL0     C55822   2.297  10.982   4.740  0.0820  0.3761  0.3021
  414MOL0     H55823   2.775  10.890   4.844  3.1333 -1.2881  0.2534
  414MOL0     H55824   3.013  10.918   4.793  2.8051 -0.9710  3.3124
  414MOL0     H55825   3.254  11.269   4.942 -2.7985 -0.5193  2.9174
  414MOL0     H55826   3.276  11.149   5.067 -1.4721 -0.2768  0.1952
  414MOL0     H55827   3.435  11.160   4.807  1.7813  1.2663  0.5633
  414MOL0     H55828   3.431  11.025   4.915  1.6553  0.0606  1.6714
  414MOL0     H55829   3.617  11.173   4.958  0.1236 -0.2108  0.3360
  414MOL0     H55830   3.532  11.151   5.096  3.5338  0.3795 -0.4320
  414MOL0     H55831   3.463  11.408   4.929  0.6787 -1.7595  0.2270
  414MOL0     H55832   3.455  11.381   5.099 -0.7398  1.2397 -0.6357
  414MOL0     H55833   3.715  11.370   5.099  0.2590 -1.0518 -0.5908
  414MOL0     H55834   3.719  11.407   4.924  3.9081 -1.0004  2.5861
  414MOL0     H55835   3.608  11.624   4.969  1.2985 -0.2581 -0.8804
  414MOL0     H55836   3.603  11.597   5.139 -2.5151  0.3983 -1.2960
  414MOL0     H55837   3.856  11.597   4.969  1.1139 -0.8790  0.9946
  414MOL0     H55838   3.849  11.557   5.144 -0.4700  0.8657  0.1091
  414MOL0     H55839   3.744  11.823   5.052  0.5119 -0.4151  0.4274
  414MOL0     H55840   3.780  11.758   5.217 -1.8067 -0.6816 -0.0661
  414MOL0     H55841   4.053  11.668   5.254  0.5681  0.2702  1.8277
  414MOL0     H55842   4.304  11.988   5.248 -0.5168  1.1791 -0.0407
  414MOL0     H55843   4.213  11.919   5.385 -0.4928 -0.0697 -0.0153
  414MOL0     H55844   4.297  11.697   5.337 -1.3382  0.9268  0.4153
  414MOL0     H55845   4.362  11.748   5.187  2.1660  1.1906 -0.0781
  414MOL0     H55846   4.453  11.885   5.448 -1.3301 -0.8767  0.2986
  414MOL0     H55847   4.508  11.911   5.284  1.5778 -0.6379 -0.5424
  414MOL0     H55848   4.520  11.640   5.427  0.0704 -0.7435 -1.8515
  414MOL0     H55849   4.667  11.739   5.433  1.3689 -1.0346 -0.9417
  414MOL0     H55850   4.757  11.892   5.265  1.3644  0.1830  1.6631
  414MOL0     H55851   4.989  11.909   5.167  1.7624 -0.2227 -1.0327
  414MOL0     H55852   5.287  12.015   4.848 -0.9706 -1.7312  0.4628
  414MOL0     H55853   5.534  12.053   4.805  1.8925  0.0425  0.6165
  414MOL0     H55854   5.760  12.152   4.877 -0.1210  0.7822  1.6469
  414MOL0     H55855   5.719  12.117   5.041  0.0381 -0.9668  1.6252
  414MOL0     H55856   5.940  11.968   5.043 -2.1943  0.7595  0.2381
  414MOL0     H55857   5.967  12.034   4.888 -1.7168  0.1380 -0.4539
  414MOL0     H55858   5.978  12.266   4.956  1.9770 -1.3802 -2.6952
  414MOL0     H55859   5.970  12.214   5.135  1.1059 -1.5197  0.8899
  414MOL0     H55860   6.180  12.184   4.912  0.9710  2.2736  0.2289
  414MOL0     H55861   6.178  12.080   5.057  0.7740 -1.0408 -4.2585
  414MOL0     H55862   6.188  12.282   5.211 -0.4244 -1.1989 -0.3255
  414MOL0     H55863   6.199  12.378   5.067  1.1734 -0.0524 -0.6553
  414MOL0     H55864   6.416  12.187   5.167  1.9366 -0.9176 -3.0566
  414MOL0     H55865   6.411  12.226   4.999  2.2026 -0.4192 -0.2478
  414MOL0     H55866   6.413  12.458   5.192 -2.3258 -0.7954 -1.0960
  414MOL0     H55867   6.465  12.454   5.023  0.3414 -0.3642 -1.2938
  414MOL0     H55868   6.603  12.283   5.230  0.0229 -2.1182 -2.8335
  414MOL0     H55869   6.648  12.331   5.062 -0.4238  1.0507 -0.9303
  414MOL0     H55870   5.642  11.771   5.096 -1.5352 -1.2235  3.3131
  414MOL0     H55871   5.411  11.719   5.141 -0.9211  1.2281 -0.0256
  414MOL0     H55872   4.958  11.513   5.017  0.5531 -0.3394 -1.2355
  414MOL0     H55873   4.716  11.501   5.107  1.8813 -0.5246  0.1355
  414MOL0     H55874   3.030  11.254   5.066 -1.6857 -0.0567  1.5832
  414MOL0     H55875   2.782  11.227   5.115 -0.4310  0.9831  0.2916
  414MOL0     H55876   2.454  11.164   5.137  1.3972  0.2649 -1.9719
  414MOL0     H55877   2.226  11.215   5.221 -1.5407  0.1719 -0.3955
  414MOL0     H55878   1.988  11.327   5.162 -1.7421  0.2465  0.1930
  414MOL0     H55879   2.020  11.214   5.295 -0.4414 -0.3175  1.4657
  414MOL0     H55880   1.762  11.237   5.147 -2.3642 -1.8197 -0.0769
  414MOL0     H55881   1.790  11.292   5.304 -1.1512  1.4971 -1.0743
  414MOL0     H55882   1.853  11.046   5.375 -1.0392 -0.5428  0.7756
  414MOL0     H55883   1.835  10.988   5.222  0.6438 -0.7459  1.3091
  414MOL0     H55884   1.603  11.112   5.374  1.7828  0.4848  1.9397
  414MOL0     H55885   1.582  11.029   5.219 -0.9257  2.9435  1.7137
  414MOL0     H55886   1.636  10.701   5.481  0.8028  0.5386 -1.0230
  414MOL0     H55887   2.056  11.027   4.865  2.2198 -4.7188 -1.9600
  414MOL0     H55888   2.339  10.881   4.742 -0.9673 -0.1777 -2.2616
  414MOL0     H55889   2.199  10.965   4.694  0.4644  0.1768 -0.4536
  414MOL0     H55890   2.356  11.034   4.664 -0.6109  1.2581  0.3588
  415MOL0     O55891   5.381   6.940  10.164 -0.0036  0.3273  0.3205
  415MOL0     C55892   5.470   6.972  10.077  1.1830 -0.1293 -0.3714
  415MOL0     O55893   5.597   7.034  10.103 -0.0015 -0.3563  0.5944
  415MOL0     C55894   5.637   7.080  10.223  0.2535 -0.3954 -0.3615
  415MOL0     C55895   5.737   7.185  10.216 -0.5970  0.6881  0.2368
  415MOL0     C55896   5.783   7.232  10.341  1.0651  0.6537  1.1586
  415MOL0     C55897   5.732   7.179  10.459 -0.8693  0.3569  0.0677
  415MOL0     O55898   5.764   7.230  10.584 -0.5961  0.1381  0.4833
  415MOL0     C55899   5.911   7.232  10.595  0.2639 -0.0328 -0.0772
  415MOL0     C55900   5.955   7.246  10.735 -0.1725 -0.5029 -0.0360
  415MOL0     C55901   6.115   7.244  10.737 -0.0522  0.5462  0.3315
  415MOL0     C55902   6.171   7.305  10.871 -0.9555 -1.0145  0.2831
  415MOL0     C55903   6.327   7.313  10.863  0.3281 -0.0220  0.5477
  415MOL0     C55904   6.398   7.388  10.969  0.2108 -0.1878 -0.2174
  415MOL0     C55905   6.531   7.444  10.914  0.7682  0.5325 -0.6271
  415MOL0     C55906   6.627   7.327  10.858  0.3648  0.3444 -0.0586
  415MOL0     N55907   6.663   7.242  10.969 -0.8502 -1.0435  0.1106
  415MOL0     C55908   6.751   7.258  11.063 -0.3376 -0.2310  0.2730
  415MOL0     C55909   6.754   7.144  11.136 -0.7500  0.4488  0.1752
  415MOL0     C55910   6.834   7.133  11.261 -0.4019  0.4584  0.0485
  415MOL0     C55911   6.758   7.219  11.370 -0.4964 -0.7824  0.6779
  415MOL0     C55912   6.821   7.206  11.512  0.2437 -0.7590  0.1987
  415MOL0     C55913   6.846   7.069  11.564  0.3370 -0.7031  0.3027
  415MOL0     O55914   6.954   7.001  11.510  0.2641  0.8882 -0.6145
  415MOL0     C55915   7.082   7.026  11.534  0.1812 -0.1410  0.0808
  415MOL0     C55916   7.128   7.134  11.609  1.4390 -0.4104 -0.0867
  415MOL0     C55917   7.264   7.152  11.618  0.7469  0.6275  0.6965
  415MOL0     C55918   7.356   7.054  11.576 -0.5646 -0.2213 -0.0144
  415MOL0     C55919   7.504   7.067  11.622  0.1512 -0.1626  0.1169
  415MOL0     O55920   7.576   6.950  11.638 -1.0585 -0.2946 -0.1564
  415MOL0     C55921   7.710   6.960  11.667 -0.0843 -0.7203  1.7483
  415MOL0     C55922   7.767   7.044  11.764  0.0121  0.4465 -0.2493
  415MOL0     C55923   7.909   7.053  11.774  0.1202  0.2876 -0.3171
  415MOL0     C55924   7.988   6.974  11.684 -0.1263 -0.2067  1.1531
  415MOL0     O55925   8.124   6.988  11.682  0.7121 -0.2699  0.7291
  415MOL0     C55926   8.202   7.069  11.768 -0.7267  0.4953  0.0736
  415MOL0     C55927   8.346   7.059  11.741 -0.1220  0.9516 -0.4169
  415MOL0     C55928   8.389   6.915  11.767 -0.1027 -0.1821 -0.9154
  415MOL0     C55929   8.536   6.894  11.781 -0.1696 -0.5017 -1.1607
  415MOL0     C55930   8.584   6.908  11.933 -0.1410 -0.2218 -0.4488
  415MOL0     C55931   8.739   6.899  11.940  0.3117  0.1872  0.5607
  415MOL0     C55932   8.791   6.757  11.901  0.2435  0.2558  0.2695
  415MOL0     C55933   8.942   6.753  11.891  0.1326 -0.5572  0.5217
  415MOL0    Cl55934   9.015   6.595  11.893  0.1112  0.2756  0.2128
  415MOL0     C55935   7.927   6.886  11.584 -0.5017 -0.1366 -0.2310
  415MOL0     C55936   7.791   6.881  11.578 -0.0780  0.2802 -1.1648
  415MOL0     O55937   7.537   7.182  11.645 -0.8477 -0.3121  0.2060
  415MOL0     C55938   7.310   6.945  11.503 -0.0318  0.3792  0.4849
  415MOL0     C55939   7.172   6.928  11.478 -0.3192 -0.1367 -0.8344
  415MOL0     N55940   6.681   7.047  11.077 -0.2989 -0.3278  0.5235
  415MOL0     N55941   6.626   7.103  10.978  0.1466  0.2380  0.1141
  415MOL0     C55942   5.649   7.065  10.459 -0.2471 -0.4713  0.6254
  415MOL0     C55943   5.597   7.022  10.340  0.4788 -1.3427 -0.5280
  415MOL0     C55944   5.437   6.937   9.936  0.2511 -0.1759  0.1910
  415MOL0     C55945   5.310   6.977   9.894  0.9957 -0.4162 -0.3528
  415MOL0     C55946   5.276   6.973   9.756 -0.3969  0.7275 -0.1483
  415MOL0     C55947   5.366   6.919   9.661 -0.1671 -0.0996  0.1467
  415MOL0     O55948   5.305   6.905   9.534  0.4058 -0.2276 -0.0731
  415MOL0     C55949   5.392   6.924   9.427  0.4834  0.1759  0.5607
  415MOL0     C55950   5.384   6.810   9.333  0.1446 -0.3818  0.7614
  415MOL0     C55951   5.488   6.842   9.216 -0.1508 -0.6039 -0.4579
  415MOL0     C55952   5.548   6.715   9.161  0.5365  0.6490 -0.1707
  415MOL0     C55953   5.620   6.644   9.259  0.2722  0.6697 -0.4835
  415MOL0     C55954   5.697   6.591   9.336 -0.5145  0.2264 -0.4574
  415MOL0     C55955   5.493   6.874   9.706 -1.0350  0.0023 -0.1275
  415MOL0     C55956   5.531   6.884   9.845 -1.3460 -0.0409 -0.1922
  415MOL0     C55957   5.665   6.840   9.885 -0.2136  0.7734 -0.7979
  415MOL0     H55958   5.775   7.241  10.131 -2.1681  0.0855 -0.9162
  415MOL0     H55959   5.846   7.320  10.341 -0.8305  2.0800  0.2870
  415MOL0     H55960   5.945   7.130  10.575  0.0524  0.0386 -0.8389
  415MOL0     H55961   5.956   7.298  10.521 -1.0960 -0.0229 -0.9332
  415MOL0     H55962   5.919   7.162  10.796 -0.9337 -1.4273 -1.6940
  415MOL0     H55963   5.922   7.341  10.779 -0.6196  0.4177 -2.2488
  415MOL0     H55964   6.147   7.318  10.663  0.5466  1.2849  1.2960
  415MOL0     H55965   6.153   7.143  10.718 -1.2650  0.1353  0.0257
  415MOL0     H55966   6.135   7.408  10.867  2.4102  0.3925  2.2674
  415MOL0     H55967   6.131   7.246  10.954  0.2614 -2.8804 -0.3840
  415MOL0     H55968   6.366   7.211  10.858 -0.8288 -0.4287 -1.5251
  415MOL0     H55969   6.353   7.358  10.766 -3.3697 -1.7063 -1.4561
  415MOL0     H55970   6.332   7.464  11.012  0.9352 -0.4736  1.4938
  415MOL0     H55971   6.423   7.322  11.052  1.1225  0.6614  0.2048
  415MOL0     H55972   6.575   7.494  11.002  1.8391  0.6301 -1.1951
  415MOL0     H55973   6.519   7.521  10.837 -1.2838 -0.2694 -1.1627
  415MOL0     H55974   6.569   7.265  10.789 -1.2854  0.2958  1.2996
  415MOL0     H55975   6.713   7.367  10.804 -1.1457  0.5737 -2.4267
  415MOL0     H55976   6.823   7.334  11.092  0.4024  0.0568 -2.0812
  415MOL0     H55977   6.833   7.028  11.292 -0.1072  0.7733  1.1800
  415MOL0     H55978   6.937   7.167  11.247 -0.1950  0.4630  1.4903
  415MOL0     H55979   6.761   7.324  11.340  1.1105 -1.2956 -1.1542
  415MOL0     H55980   6.655   7.183  11.376 -0.0963 -2.3851 -1.0004
  415MOL0     H55981   6.754   7.265  11.575  2.0474  0.5358  0.9913
  415MOL0     H55982   6.913   7.266  11.506 -1.2919  1.5912 -2.5077
  415MOL0     H55983   6.758   7.006  11.548  1.2712 -1.9807  0.0369
  415MOL0     H55984   6.859   7.080  11.672 -2.3342  3.3029  0.4402
  415MOL0     H55985   7.075   7.200  11.678  0.2337 -2.4478  1.0258
  415MOL0     H55986   7.296   7.236  11.679 -2.4606  1.1299  1.8602
  415MOL0     H55987   7.702   7.104  11.827 -0.5120 -0.2106 -0.1612
  415MOL0     H55988   7.956   7.115  11.850 -1.9635  4.4205 -2.0934
  415MOL0     H55989   8.180   7.176  11.755 -1.3037  0.6029  1.6529
  415MOL0     H55990   8.176   7.043  11.871  0.1970 -1.5265 -0.1679
  415MOL0     H55991   8.378   7.088  11.641 -2.0332 -1.8307 -1.9621
  415MOL0     H55992   8.399   7.123  11.813 -1.8368  2.7797 -0.6830
  415MOL0     H55993   8.333   6.883  11.855  1.1797  1.9373  0.7689
  415MOL0     H55994   8.357   6.855  11.681  2.1584 -0.4675 -1.6228
  415MOL0     H55995   8.598   6.956  11.715 -0.1950 -2.2765 -2.9430
  415MOL0     H55996   8.542   6.789  11.753 -0.3037 -0.5875 -0.8730
  415MOL0     H55997   8.542   6.826  11.992 -2.5748  1.2112 -0.0039
  415MOL0     H55998   8.549   7.003  11.975  0.5388  2.1608 -4.6951
  415MOL0     H55999   8.780   6.968  11.865  1.4329 -1.3421 -0.2711
  415MOL0     H56000   8.761   6.925  12.044  0.5647  1.7248  0.1626
  415MOL0     H56001   8.758   6.749  11.797  4.8836  2.2425 -1.6035
  415MOL0     H56002   8.756   6.680  11.971  0.5655 -0.8497 -0.7459
  415MOL0     H56003   8.965   6.807  11.798  0.6286 -0.9744  0.3968
  415MOL0     H56004   8.994   6.813  11.966  0.0794  1.6271 -1.0796
  415MOL0     H56005   7.985   6.835  11.508  0.9280 -2.4083  2.2313
  415MOL0     H56006   7.743   6.809  11.512  1.4715 -2.0744  0.1250
  415MOL0     H56007   7.391   6.883  11.467  0.1135 -0.4266  2.1139
  415MOL0     H56008   7.144   6.832  11.436 -1.0169 -1.4343  2.2934
  415MOL0     H56009   5.635   7.023  10.558  0.9989  1.9931  1.9275
  415MOL0     H56010   5.541   6.929  10.340 -3.2686  0.7104  1.2552
  415MOL0     H56011   5.234   7.004   9.966 -0.1250 -0.5363 -1.4441
  415MOL0     H56012   5.187   7.025   9.724 -1.0306  1.1875  2.1511
  415MOL0     H56013   5.495   6.954   9.450  1.2681 -0.3684 -1.8496
  415MOL0     H56014   5.345   7.014   9.387 -2.0707 -1.1011  0.4636
  415MOL0     H56015   5.279   6.795   9.306 -0.4670  0.1600  2.6790
  415MOL0     H56016   5.414   6.719   9.386 -0.8247 -1.3209 -0.2515
  415MOL0     H56017   5.564   6.903   9.266  1.2729 -2.5759 -0.0971
  415MOL0     H56018   5.437   6.901   9.140 -1.5103  0.3847  1.1272
  415MOL0     H56019   5.472   6.651   9.114 -0.1891  1.1407  0.3067
  415MOL0     H56020   5.617   6.729   9.078 -1.0921 -1.5810 -2.0627
  415MOL0     H56021   5.763   6.542   9.404 -0.5419 -0.2360 -0.7614
  415MOL0     H56022   5.560   6.822   9.638 -3.2238 -1.0318 -1.6047
  415MOL0     H56023   5.708   6.783   9.802 -3.2857 -1.0494 -1.2562
  415MOL0     H56024   5.728   6.923   9.918 -1.3446  0.8273  1.4133
  415MOL0     H56025   5.655   6.767   9.966 -0.2492  1.4285 -0.2047
  416MOL0     O56026   5.755  10.214   8.893  1.1697  1.1132  0.7266
  416MOL0     C56027   5.861  10.244   8.947  0.0830  0.6563  0.0421
  416MOL0     O56028   5.877  10.315   9.069 -0.2576 -0.1641  0.4489
  416MOL0     C56029   5.764  10.356   9.143 -1.0365 -0.2453  0.5154
  416MOL0     C56030   5.647  10.294   9.145 -0.6277 -0.2089 -0.8020
  416MOL0     C56031   5.543  10.335   9.227  0.3689  0.7210 -0.8736
  416MOL0     C56032   5.554  10.448   9.309 -0.4712  0.1203 -0.0834
  416MOL0     O56033   5.447  10.507   9.378 -0.1849 -0.6398  0.2349
  416MOL0     C56034   5.360  10.584   9.297 -0.5212  1.2936 -0.8036
  416MOL0     C56035   5.269  10.637   9.399 -0.6276  1.3292  0.2668
  416MOL0     C56036   5.296  10.780   9.440  0.1420 -0.0686 -0.2455
  416MOL0     C56037   5.402  10.778   9.553 -0.1524  0.7749  0.3998
  416MOL0     C56038   5.415  10.915   9.615 -0.1604  1.1963 -1.5858
  416MOL0     C56039   5.499  10.908   9.748  0.0877 -0.0149  0.7851
  416MOL0     C56040   5.644  10.879   9.730 -0.5426 -0.8471  0.0224
  416MOL0     C56041   5.728  10.908   9.855  0.9849 -0.7358 -0.1837
  416MOL0     N56042   5.872  10.902   9.823  0.1323 -1.1293 -0.2211
  416MOL0     C56043   5.950  11.007   9.790 -0.5889  0.3816  0.5659
  416MOL0     C56044   6.075  10.951   9.785 -0.3801  0.5525  0.9815
  416MOL0     C56045   6.198  11.035   9.751  0.2129 -0.5615  0.4071
  416MOL0     C56046   6.175  11.185   9.706  0.3180  0.1902  0.0263
  416MOL0     C56047   6.302  11.275   9.702 -0.8776  0.5050  0.4870
  416MOL0     C56048   6.416  11.220   9.796 -0.3914 -0.9234 -0.0546
  416MOL0     O56049   6.509  11.325   9.794 -0.3317 -0.5028  0.0383
  416MOL0     C56050   6.598  11.347   9.899 -1.2135  0.4237  1.3215
  416MOL0     C56051   6.626  11.240   9.984 -0.1234 -0.1611  0.3647
  416MOL0     C56052   6.728  11.247  10.079 -1.1475  0.6933 -0.3610
  416MOL0     C56053   6.810  11.366  10.090 -0.1727 -0.2380  0.0886
  416MOL0     C56054   6.930  11.366  10.180 -0.5733  0.2103  0.3637
  416MOL0     O56055   7.009  11.479  10.164  0.0628  0.4691 -0.3553
  416MOL0     C56056   7.123  11.478  10.234 -0.2655  0.3873  0.0316
  416MOL0     C56057   7.230  11.384  10.213 -0.3977  0.7388  0.0112
  416MOL0     C56058   7.348  11.379  10.291 -0.2456  0.5796 -1.1041
  416MOL0     C56059   7.365  11.484  10.386 -0.5704 -0.4648  0.8321
  416MOL0     O56060   7.470  11.502  10.473 -0.0768 -0.4467  0.7623
  416MOL0     C56061   7.594  11.430  10.450  0.2387  0.3951 -0.2743
  416MOL0     C56062   7.659  11.484  10.326 -0.8227 -0.2283 -0.0299
  416MOL0     C56063   7.757  11.377  10.289 -0.1209 -0.7822 -0.3044
  416MOL0     C56064   7.858  11.432  10.192 -0.1859 -0.3242 -0.6078
  416MOL0     C56065   7.931  11.305  10.148 -0.5680 -0.5536 -0.2450
  416MOL0     C56066   8.068  11.352  10.089 -0.4528 -0.6113  0.2082
  416MOL0     C56067   8.148  11.225  10.065  0.3187 -0.4971  0.5516
  416MOL0     C56068   8.282  11.262  10.006 -0.1569  0.6549  0.4424
  416MOL0    Cl56069   8.267  11.366   9.857 -0.0666 -0.3516 -0.0013
  416MOL0     C56070   7.274  11.581  10.387 -0.5771 -0.4437 -0.3082
  416MOL0     C56071   7.157  11.583  10.314 -0.3369  0.1196 -0.4700
  416MOL0     O56072   6.954  11.269  10.249  0.3872  0.1332  0.1955
  416MOL0     C56073   6.774  11.481  10.016 -0.3607  0.4872  0.7489
  416MOL0     C56074   6.670  11.463   9.917 -0.2567 -0.4450  0.7854
  416MOL0     N56075   6.076  10.813   9.811  0.1517 -0.3192  0.4584
  416MOL0     N56076   5.947  10.789   9.834 -0.2784  0.0777  0.0455
  416MOL0     C56077   5.679  10.509   9.317 -0.0266 -0.8203 -0.1530
  416MOL0     C56078   5.781  10.461   9.231 -0.1304 -0.1330 -0.2081
  416MOL0     C56079   5.985  10.200   8.878  0.7634  0.4020 -0.3428
  416MOL0     C56080   6.097  10.201   8.957  0.4310 -0.9421 -1.0060
  416MOL0     C56081   6.227  10.165   8.918 -0.2700 -0.6812  0.1607
  416MOL0     C56082   6.243  10.109   8.790  0.7667  0.1112  0.1263
  416MOL0     O56083   6.363  10.079   8.739  0.5545 -0.5701 -0.0640
  416MOL0     C56084   6.476  10.071   8.829  0.1731  0.8124  0.4205
  416MOL0     C56085   6.607  10.071   8.743  0.5294  0.2047 -0.8052
  416MOL0     C56086   6.734  10.079   8.838  0.0034 -0.7860  0.9619
  416MOL0     C56087   6.873  10.075   8.785  0.4929  0.8498 -0.4103
  416MOL0     C56088   6.905   9.950   8.716 -0.4698 -1.4097 -0.4431
  416MOL0     C56089   6.940   9.849   8.664 -0.8375 -0.2697  0.1957
  416MOL0     C56090   6.128  10.098   8.710 -0.4237 -0.1370  0.6558
  416MOL0     C56091   5.997  10.139   8.747 -0.6537 -0.9196  1.1140
  416MOL0     C56092   5.883  10.128   8.644 -0.0018 -0.7237 -0.6004
  416MOL0     H56093   5.612  10.204   9.096  0.1243 -0.7288 -0.4206
  416MOL0     H56094   5.449  10.282   9.230 -0.1105  1.1305 -4.5938
  416MOL0     H56095   5.406  10.674   9.257 -1.5731  2.8700  1.2741
  416MOL0     H56096   5.301  10.530   9.223 -2.5245 -0.2090  1.7031
  416MOL0     H56097   5.273  10.563   9.480  1.1719 -0.7105 -1.5607
  416MOL0     H56098   5.167  10.639   9.359 -0.1973  2.5435 -0.8320
  416MOL0     H56099   5.201  10.825   9.470  0.2271  2.7236 -3.6318
  416MOL0     H56100   5.335  10.838   9.356  0.5289 -2.4450 -1.8082
  416MOL0     H56101   5.380  10.704   9.630  3.8814 -2.8526 -1.5218
  416MOL0     H56102   5.498  10.742   9.517 -1.1026 -0.0407 -1.4453
  416MOL0     H56103   5.451  10.989   9.542  0.7533  1.3235 -1.0269
  416MOL0     H56104   5.317  10.954   9.644 -0.7800  0.7586 -2.9806
  416MOL0     H56105   5.503  11.010   9.787  0.9173 -0.3189  1.5307
  416MOL0     H56106   5.455  10.845   9.826 -0.7839  0.3739  0.6189
  416MOL0     H56107   5.694  10.932   9.648  0.4664 -0.4086  0.8940
  416MOL0     H56108   5.648  10.773   9.705  2.6204 -1.0415  0.9381
  416MOL0     H56109   5.714  11.010   9.892  1.6719 -0.5890 -0.2980
  416MOL0     H56110   5.693  10.838   9.931  0.9461 -0.9125 -0.3647
  416MOL0     H56111   5.919  11.111   9.792 -3.7918 -0.3956 -1.2000
  416MOL0     H56112   6.256  11.049   9.843  3.3989  2.4396 -1.7944
  416MOL0     H56113   6.266  10.987   9.679  0.6670 -0.2862  0.6464
  416MOL0     H56114   6.124  11.186   9.609 -2.6162  0.7628  1.4464
  416MOL0     H56115   6.109  11.226   9.783 -2.6978 -2.7176 -0.7310
  416MOL0     H56116   6.276  11.379   9.725 -0.7975  0.0196  3.0277
  416MOL0     H56117   6.344  11.281   9.601  2.6411  2.4987  1.9035
  416MOL0     H56118   6.464  11.134   9.748  0.3940 -0.2419 -0.5075
  416MOL0     H56119   6.373  11.192   9.893 -1.5429  0.9168  0.0123
  416MOL0     H56120   6.593  11.141   9.952  1.1022 -0.0062 -1.4864
  416MOL0     H56121   6.774  11.157  10.118 -1.7467  0.6456  0.2432
  416MOL0     H56122   7.213  11.298  10.149 -0.7952 -0.4246  1.5888
  416MOL0     H56123   7.431  11.310  10.283  1.2719  1.9522  1.2663
  416MOL0     H56124   7.669  11.439  10.529  1.0707  0.8713 -1.1041
  416MOL0     H56125   7.569  11.324  10.441 -1.3465  0.5751  1.2939
  416MOL0     H56126   7.594  11.492  10.238 -0.4140  1.7246 -0.1852
  416MOL0     H56127   7.701  11.584  10.340 -2.0311  0.3434 -0.3678
  416MOL0     H56128   7.797  11.332  10.381 -3.4380  1.7095  2.6467
  416MOL0     H56129   7.703  11.297  10.238 -1.6447  0.5784 -0.8924
  416MOL0     H56130   7.924  11.502  10.243  0.9874 -1.5333 -0.4215
  416MOL0     H56131   7.800  11.478  10.111  1.0321  0.1587 -1.2246
  416MOL0     H56132   7.862  11.264  10.074  1.1582 -2.0410 -1.1123
  416MOL0     H56133   7.946  11.240  10.234  1.2670 -1.8490 -1.4712
  416MOL0     H56134   8.047  11.412  10.000  0.6077  1.8887  1.5501
  416MOL0     H56135   8.119  11.408  10.168 -0.9292 -1.3128  1.0313
  416MOL0     H56136   8.094  11.160   9.996  0.2877  0.1438 -0.0363
  416MOL0     H56137   8.166  11.161  10.152  1.8396  0.4997  1.0038
  416MOL0     H56138   8.341  11.317  10.080  3.4240  0.0058 -1.7218
  416MOL0     H56139   8.328  11.164   9.990  2.2181  1.8804 -0.7330
  416MOL0     H56140   7.291  11.662  10.457  2.0364  1.1434 -2.5790
  416MOL0     H56141   7.089  11.667  10.325 -1.1190 -0.4105 -1.1162
  416MOL0     H56142   6.826  11.576  10.021 -0.7534  0.7713 -0.2093
  416MOL0     H56143   6.648  11.554   9.862  1.0355  0.0323  1.0204
  416MOL0     H56144   5.708  10.598   9.372  0.6680 -0.3603 -1.2228
  416MOL0     H56145   5.878  10.507   9.245  0.7895 -0.6630 -3.8757
  416MOL0     H56146   6.080  10.221   9.062  3.5083 -1.5454 -0.2699
  416MOL0     H56147   6.306  10.169   8.991 -1.9632 -4.9860  2.5404
  416MOL0     H56148   6.459   9.981   8.888 -1.5989  0.1635 -0.9980
  416MOL0     H56149   6.476  10.159   8.895 -0.9688  0.2374  1.2086
  416MOL0     H56150   6.601  10.160   8.681 -1.3932  0.3228 -0.5207
  416MOL0     H56151   6.607   9.982   8.679  2.0526  0.3690 -1.0648
  416MOL0     H56152   6.729  10.005   8.919  1.6721  0.5287  2.3254
  416MOL0     H56153   6.732  10.178   8.885  0.3051  1.1893 -2.8150
  416MOL0     H56154   6.879  10.163   8.721 -1.4905  1.0051 -0.4302
  416MOL0     H56155   6.943  10.081   8.870  1.9311 -1.1398 -1.3623
  416MOL0     H56156   6.983   9.767   8.610 -1.1836 -1.0685  1.1267
  416MOL0     H56157   6.156  10.055   8.614 -1.2011  1.2663 -0.2293
  416MOL0     H56158   5.818  10.044   8.671  0.4728 -0.0667  3.1584
  416MOL0     H56159   5.819  10.216   8.637 -1.0360 -1.2273  1.6624
  416MOL0     H56160   5.926  10.113   8.545  1.7382  0.7514 -0.1113
  417MOL0     O56161   6.809  11.020   2.157  0.0302  0.2442 -0.4456
  417MOL0     C56162   6.712  10.957   2.113 -0.0950 -1.0327 -0.8480
  417MOL0     O56163   6.704  10.819   2.094  0.5228  0.2028 -0.8683
  417MOL0     C56164   6.814  10.737   2.078 -1.0882 -0.4835 -0.0682
  417MOL0     C56165   6.926  10.777   2.005 -0.6016 -0.4977 -0.2100
  417MOL0     C56166   7.034  10.696   1.978 -0.0804 -0.1487 -0.1942
  417MOL0     C56167   7.037  10.566   2.028  0.3856 -0.0688  0.1485
  417MOL0     O56168   7.137  10.492   1.976  0.1557 -0.6738  0.1582
  417MOL0     C56169   7.128  10.346   1.960 -0.0261  0.5198 -0.0162
  417MOL0     C56170   7.224  10.306   1.847  0.6942  0.3845 -0.8043
  417MOL0     C56171   7.272  10.162   1.859  0.1201 -0.3572  0.3712
  417MOL0     C56172   7.374  10.131   1.974 -0.1491 -0.0054  0.6770
  417MOL0     C56173   7.519  10.109   1.926 -0.6349 -0.2345  0.1567
  417MOL0     C56174   7.567  10.222   1.821 -0.1896  0.0678  0.1617
  417MOL0     C56175   7.705  10.219   1.755 -0.5024  0.5315  0.3376
  417MOL0     C56176   7.823  10.230   1.847  0.0507  0.0127  0.5339
  417MOL0     N56177   7.949  10.244   1.768 -0.8077 -0.2968 -0.8971
  417MOL0     C56178   8.078  10.198   1.805  1.0731  0.3850  0.8498
  417MOL0     C56179   8.161  10.229   1.696  0.2792  0.2602 -0.3284
  417MOL0     C56180   8.303  10.184   1.703 -0.4203  0.5368 -0.0238
  417MOL0     C56181   8.383  10.264   1.793 -0.4961 -0.0564 -0.5940
  417MOL0     C56182   8.421  10.398   1.730 -0.9503  0.3890  1.4004
  417MOL0     C56183   8.543  10.398   1.642 -0.7362  0.1039  0.4309
  417MOL0     O56184   8.669  10.391   1.717 -0.1262  0.3996  0.4736
  417MOL0     C56185   8.777  10.433   1.647  0.1365 -0.9497 -0.0726
  417MOL0     C56186   8.899  10.386   1.695 -0.2603 -0.2295 -0.6579
  417MOL0     C56187   9.017  10.431   1.652 -0.1494  0.3235  1.1653
  417MOL0     C56188   9.029  10.516   1.539 -0.2979  0.7900 -0.2720
  417MOL0     C56189   9.158  10.565   1.490 -0.3375  0.8056  0.0051
  417MOL0     O56190   9.264  10.513   1.560 -0.7937 -0.6283  0.4369
  417MOL0     C56191   9.388  10.535   1.516 -0.0046  0.2071  0.0101
  417MOL0     C56192   9.467  10.430   1.462  0.3533  0.3783 -0.8541
  417MOL0     C56193   9.605  10.459   1.420  0.8967  0.6358 -0.3449
  417MOL0     C56194   9.654  10.589   1.428 -0.5707  0.6324 -0.4072
  417MOL0     O56195   9.779  10.620   1.381  0.0120 -0.0677 -0.1905
  417MOL0     C56196   9.879  10.513   1.351  0.0983  1.2460 -0.1550
  417MOL0     C56197  10.021  10.554   1.336 -0.3964 -0.5950 -0.2765
  417MOL0     C56198  10.047  10.580   1.189  0.6075 -0.3005 -0.0366
  417MOL0     C56199  10.190  10.605   1.150  0.4262 -0.0272 -1.0168
  417MOL0     C56200  10.276  10.479   1.154  1.2959  0.2179 -0.4219
  417MOL0     C56201  10.415  10.483   1.096 -0.3287  0.6828  0.8637
  417MOL0     C56202  10.483  10.618   1.140  0.1241  0.0772  0.4998
  417MOL0     C56203  10.612  10.643   1.072  0.4443  0.0400  0.3518
  417MOL0    Cl56204  10.721  10.502   1.077 -0.1917 -0.6977 -0.1053
  417MOL0     C56205   9.574  10.691   1.477  0.6635  0.1981 -0.3301
  417MOL0     C56206   9.442  10.669   1.517  0.1242 -0.0518 -0.7064
  417MOL0     O56207   9.160  10.636   1.396 -0.0195 -1.3298 -0.6545
  417MOL0     C56208   8.914  10.559   1.483  0.0490  0.2046 -0.6511
  417MOL0     C56209   8.782  10.531   1.540 -0.2754 -0.2366 -0.5747
  417MOL0     N56210   8.087  10.300   1.605  0.3014 -0.1186 -0.8790
  417MOL0     N56211   7.970  10.315   1.652  0.5666 -0.2655  0.5751
  417MOL0     C56212   6.935  10.526   2.120  1.1664  1.1768 -0.5577
  417MOL0     C56213   6.822  10.615   2.143 -0.4017  0.4442 -0.3829
  417MOL0     C56214   6.581  11.032   2.130 -0.6432 -0.1473 -0.5452
  417MOL0     C56215   6.554  11.086   2.258  0.1598 -0.0609  0.6879
  417MOL0     C56216   6.422  11.135   2.284 -0.5513 -0.0381 -0.4513
  417MOL0     C56217   6.328  11.138   2.182  0.0959  1.0151  0.8931
  417MOL0     O56218   6.204  11.192   2.191  0.1443 -0.5183  0.4531
  417MOL0     C56219   6.105  11.105   2.246  0.6259 -0.8034  0.0563
  417MOL0     C56220   5.990  11.187   2.301 -0.5196  0.1937  0.0569
  417MOL0     C56221   6.004  11.247   2.431 -0.5577  0.8282 -0.2539
  417MOL0     C56222   5.900  11.361   2.476 -0.0288  0.5090 -0.2281
  417MOL0     C56223   5.772  11.298   2.461  0.1635  0.1037  0.7108
  417MOL0     C56224   5.670  11.231   2.472 -0.2982  0.2011 -0.7458
  417MOL0     C56225   6.361  11.086   2.057 -0.0705  0.3460  0.8386
  417MOL0     C56226   6.483  11.022   2.026 -0.3699 -0.7295  0.3353
  417MOL0     C56227   6.494  10.959   1.887  0.6893 -0.3094 -0.7776
  417MOL0     H56228   6.918  10.872   1.953  1.4121 -0.2991 -0.2278
  417MOL0     H56229   7.112  10.716   1.905  1.1360 -2.1616  0.4718
  417MOL0     H56230   7.169  10.303   2.051  0.5986 -0.6505 -0.8287
  417MOL0     H56231   7.024  10.314   1.947  0.1917 -0.7355  1.2336
  417MOL0     H56232   7.313  10.369   1.834  1.0832  0.2149  0.8781
  417MOL0     H56233   7.168  10.320   1.754 -0.5182  0.1341 -0.1265
  417MOL0     H56234   7.299  10.120   1.762  0.0564  0.3065  0.0628
  417MOL0     H56235   7.181  10.104   1.878 -2.3227  2.9746 -0.3616
  417MOL0     H56236   7.369  10.218   2.040  0.9630  1.7608 -1.4275
  417MOL0     H56237   7.336  10.057   2.044 -1.7524  2.4204  2.5640
  417MOL0     H56238   7.583  10.105   2.015 -0.1567  2.6420  0.0407
  417MOL0     H56239   7.520  10.007   1.888 -0.8795  0.6429 -2.4097
  417MOL0     H56240   7.493  10.205   1.742 -2.1042 -0.2902  1.9245
  417MOL0     H56241   7.557  10.321   1.866 -0.6806  0.5608 -0.9910
  417MOL0     H56242   7.713  10.313   1.699 -2.1052  0.2012 -0.4960
  417MOL0     H56243   7.710  10.130   1.691 -1.7924  0.5385  0.2034
  417MOL0     H56244   7.808  10.318   1.910  0.5867  0.3005  0.2661
  417MOL0     H56245   7.815  10.142   1.911 -2.6394 -0.9720 -0.9750
  417MOL0     H56246   8.102  10.140   1.894 -0.7512 -1.0191  0.4974
  417MOL0     H56247   8.298  10.082   1.743  2.3621  0.2190 -0.2790
  417MOL0     H56248   8.338  10.182   1.600 -1.0111  1.8868 -0.2685
  417MOL0     H56249   8.329  10.279   1.887 -0.7761  2.0356 -1.0468
  417MOL0     H56250   8.476  10.210   1.814  1.0972  1.9851 -2.0609
  417MOL0     H56251   8.457  10.469   1.806  3.4494  0.3972 -0.3787
  417MOL0     H56252   8.340  10.453   1.681  0.0833  0.8951  0.2144
  417MOL0     H56253   8.540  10.492   1.586 -1.7190 -0.3263 -0.2677
  417MOL0     H56254   8.535  10.320   1.566 -1.0769 -0.2911  0.8714
  417MOL0     H56255   8.892  10.318   1.779  1.5987 -0.3452 -0.5585
  417MOL0     H56256   9.106  10.388   1.697 -0.3554 -3.6284 -1.6225
  417MOL0     H56257   9.433  10.327   1.470  1.8114 -0.2794 -2.4400
  417MOL0     H56258   9.669  10.380   1.382  1.1429  0.9993 -0.6968
  417MOL0     H56259   9.882  10.440   1.432 -2.4020 -2.3078 -2.9150
  417MOL0     H56260   9.855  10.453   1.262 -1.2160 -1.4161  1.8418
  417MOL0     H56261  10.033  10.651   1.385  3.6705 -0.8983 -0.3264
  417MOL0     H56262  10.084  10.473   1.373 -0.2542 -0.2254  0.3113
  417MOL0     H56263  10.014  10.497   1.126 -2.5934  0.4176  0.5060
  417MOL0     H56264   9.993  10.672   1.167 -0.6833 -1.3633 -1.5214
  417MOL0     H56265  10.227  10.680   1.220  0.3043 -1.9408  1.1981
  417MOL0     H56266  10.196  10.655   1.052  0.4563 -2.8746 -2.5688
  417MOL0     H56267  10.216  10.404   1.100 -0.8105  0.9206  0.8486
  417MOL0     H56268  10.282  10.436   1.254 -0.8619  0.7310 -0.0291
  417MOL0     H56269  10.473  10.395   1.126 -1.5432 -0.7604 -0.7773
  417MOL0     H56270  10.414  10.478   0.986  1.7098  2.8170  0.6518
  417MOL0     H56271  10.499  10.608   1.248  0.7158 -4.2165  0.1804
  417MOL0     H56272  10.419  10.706   1.130  0.4884  0.4235  1.1261
  417MOL0     H56273  10.596  10.662   0.965  0.0242 -4.1107 -0.4833
  417MOL0     H56274  10.659  10.731   1.117 -1.0446  1.5340 -0.8714
  417MOL0     H56275   9.620  10.788   1.489 -2.9903  1.8243  2.6743
  417MOL0     H56276   9.376  10.745   1.556 -0.7803 -0.2231 -1.8758
  417MOL0     H56277   8.916  10.617   1.391 -2.8444 -1.7260 -2.0962
  417MOL0     H56278   8.692  10.586   1.514 -0.4755 -1.2574 -2.2215
  417MOL0     H56279   6.946  10.430   2.171  0.9157  1.2893 -0.2870
  417MOL0     H56280   6.749  10.591   2.221  2.6643 -0.0315  2.5824
  417MOL0     H56281   6.636  11.088   2.329  1.2190  0.6561 -0.5210
  417MOL0     H56282   6.400  11.185   2.378 -2.6111 -3.4293  1.0289
  417MOL0     H56283   6.144  11.040   2.326  1.7928 -1.5644 -1.1032
  417MOL0     H56284   6.078  11.034   2.167  1.2976  0.4144 -1.3055
  417MOL0     H56285   5.909  11.114   2.306 -1.0551  0.8442  2.0226
  417MOL0     H56286   5.967  11.260   2.223 -2.4355 -0.0494  0.3463
  417MOL0     H56287   6.098  11.301   2.447  0.2537 -0.1806 -1.4165
  417MOL0     H56288   6.004  11.168   2.507 -1.2946 -1.5788 -2.6176
  417MOL0     H56289   5.923  11.388   2.579  1.7558 -1.6900  0.0520
  417MOL0     H56290   5.907  11.441   2.401 -2.1539  0.3316 -0.6561
  417MOL0     H56291   5.579  11.181   2.497 -0.5173  1.1817  0.4518
  417MOL0     H56292   6.288  11.074   1.977 -1.9030 -0.6113  2.5593
  417MOL0     H56293   6.573  10.884   1.884  0.7311 -0.3129 -4.6912
  417MOL0     H56294   6.404  10.906   1.856 -1.1793  1.5386  1.0402
  417MOL0     H56295   6.516  11.038   1.815 -1.0750  1.1745  0.2107
  418MOL0     O56296   0.915   7.720   8.762  0.2311  0.6448  0.1729
  418MOL0     C56297   0.922   7.841   8.746 -0.3062  0.3414  0.2021
  418MOL0     O56298   0.864   7.907   8.643  0.0554 -1.0623  0.4080
  418MOL0     C56299   0.781   7.854   8.555  0.6789  0.3097  0.0132
  418MOL0     C56300   0.791   7.725   8.501  0.2014  0.0066  0.4128
  418MOL0     C56301   0.696   7.683   8.406  0.8417  0.1178  0.4489
  418MOL0     C56302   0.584   7.754   8.368 -0.0003  0.4199 -0.3253
  418MOL0     O56303   0.494   7.688   8.283 -0.6801  0.2655 -0.0281
  418MOL0     C56304   0.420   7.762   8.186  0.5317 -0.5675 -0.8323
  418MOL0     C56305   0.501   7.802   8.061 -0.4485 -0.7801  0.0964
  418MOL0     C56306   0.555   7.677   7.986  0.3349  0.0498  0.2925
  418MOL0     C56307   0.653   7.706   7.876  0.2125 -0.5127 -0.0448
  418MOL0     C56308   0.727   7.581   7.830  0.0101 -0.4302 -0.7690
  418MOL0     C56309   0.833   7.618   7.722  0.5632 -0.0224 -0.0212
  418MOL0     C56310   0.904   7.481   7.686  0.4009 -0.7035  0.6326
  418MOL0     C56311   1.020   7.513   7.579  0.0425  0.0686 -0.7571
  418MOL0     N56312   1.117   7.607   7.634 -0.5247 -0.4179  0.2735
  418MOL0     C56313   1.207   7.594   7.746  0.2015 -0.4178 -0.2925
  418MOL0     C56314   1.282   7.708   7.734  0.0647 -0.5992  0.4169
  418MOL0     C56315   1.398   7.749   7.820 -0.1073  0.0677  0.4763
  418MOL0     C56316   1.326   7.815   7.942  0.4322 -0.3956 -0.2416
  418MOL0     C56317   1.410   7.932   7.991 -0.2997  0.4401 -0.2342
  418MOL0     C56318   1.349   7.989   8.119  0.4602 -0.0722  0.1305
  418MOL0     O56319   1.452   8.078   8.172  0.5410  0.5743  0.1996
  418MOL0     C56320   1.447   8.148   8.293  0.5524 -0.0949  1.3987
  418MOL0     C56321   1.560   8.206   8.343  0.3877 -1.0319  0.3133
  418MOL0     C56322   1.557   8.278   8.457 -0.4646 -0.2844 -0.7608
  418MOL0     C56323   1.439   8.283   8.527  0.8407 -0.6438 -0.4366
  418MOL0     C56324   1.440   8.362   8.658 -1.1735 -0.3282 -0.3824
  418MOL0     O56325   1.554   8.419   8.715 -0.3599 -0.2752 -0.6562
  418MOL0     C56326   1.546   8.486   8.833 -0.0885  0.8703 -0.7084
  418MOL0     C56327   1.572   8.625   8.830  0.3064  0.7883 -0.5637
  418MOL0     C56328   1.568   8.701   8.951  0.2155 -0.5701 -0.8948
  418MOL0     C56329   1.544   8.641   9.074 -0.3795 -0.1266 -0.1702
  418MOL0     O56330   1.537   8.704   9.197 -0.4679 -0.3037 -0.6978
  418MOL0     C56331   1.516   8.848   9.205  0.1719  0.1107  0.5110
  418MOL0     C56332   1.515   8.889   9.343 -0.6399 -0.8875  0.1409
  418MOL0     C56333   1.413   9.008   9.352 -0.0852  0.2401 -0.3527
  418MOL0     C56334   1.357   9.024   9.498  0.4116 -0.5693  0.9549
  418MOL0     C56335   1.320   9.171   9.520 -0.0983  0.4781 -0.9349
  418MOL0     C56336   1.330   9.206   9.671 -0.1703 -0.2857 -0.8462
  418MOL0     C56337   1.249   9.333   9.710  0.1054  0.5732  0.7931
  418MOL0     C56338   1.105   9.288   9.753 -0.1757  0.4009 -0.2054
  418MOL0    Cl56339   1.106   9.265   9.931 -0.4797  0.0866 -0.2997
  418MOL0     C56340   1.515   8.506   9.076 -0.1070 -0.1033 -0.4650
  418MOL0     C56341   1.505   8.437   8.960 -0.1097 -0.9901  0.0187
  418MOL0     O56342   1.332   8.373   8.712 -0.7066 -0.3416 -0.0183
  418MOL0     C56343   1.317   8.231   8.477 -0.4095 -0.0399  0.3912
  418MOL0     C56344   1.324   8.153   8.359  0.2387 -0.6332  0.1039
  418MOL0     N56345   1.229   7.794   7.639 -0.1261  0.3802  0.3752
  418MOL0     N56346   1.135   7.729   7.573 -0.2970  1.1651  0.3753
  418MOL0     C56347   0.582   7.887   8.419 -0.0880  0.8675  0.3157
  418MOL0     C56348   0.680   7.939   8.504  0.6707  0.0360  0.4550
  418MOL0     C56349   0.994   7.912   8.841 -1.6081 -0.6282  0.1595
  418MOL0     C56350   1.057   7.846   8.950  0.7148  0.0293  0.5053
  418MOL0     C56351   1.143   7.900   9.048  0.4523  0.6716  0.8683
  418MOL0     C56352   1.172   8.037   9.041  0.1111 -0.0329  0.0570
  418MOL0     O56353   1.278   8.085   9.108  0.2719 -0.5703  0.4279
  418MOL0     C56354   1.238   8.189   9.204  0.3595 -0.0995  0.6320
  418MOL0     C56355   1.190   8.139   9.336  0.9730 -1.1578 -0.1856
  418MOL0     C56356   1.294   8.043   9.405 -0.4861 -0.0041  0.8662
  418MOL0     C56357   1.254   8.032   9.547 -0.0301  0.4497  0.5868
  418MOL0     C56358   1.134   7.957   9.575  0.5801  0.3787  0.0884
  418MOL0     C56359   1.031   7.915   9.621 -0.4327 -0.2162  0.0478
  418MOL0     C56360   1.113   8.106   8.937 -0.7709 -0.9597  0.0365
  418MOL0     C56361   1.030   8.054   8.842  0.1694  1.1862 -0.3375
  418MOL0     C56362   0.972   8.151   8.742 -0.6629 -0.8272 -0.1379
  418MOL0     H56363   0.882   7.668   8.517  0.4611  0.8679  2.1878
  418MOL0     H56364   0.711   7.579   8.377  0.0866  0.2290 -0.3812
  418MOL0     H56365   0.325   7.708   8.174 -1.1891  2.1748 -0.3929
  418MOL0     H56366   0.391   7.859   8.227  2.2692  0.2495 -1.4713
  418MOL0     H56367   0.577   7.874   8.092 -2.9541  2.0546  0.0072
  418MOL0     H56368   0.439   7.854   7.987 -2.1693  0.4342  2.2675
  418MOL0     H56369   0.478   7.613   7.942  0.9605 -2.1121  2.1787
  418MOL0     H56370   0.616   7.614   8.052  0.0815 -1.8215 -1.1893
  418MOL0     H56371   0.597   7.750   7.792 -0.7996 -3.9103 -1.2987
  418MOL0     H56372   0.725   7.780   7.913  0.4904 -0.8669  0.1313
  418MOL0     H56373   0.785   7.549   7.917  1.8079  1.0585 -1.3545
  418MOL0     H56374   0.659   7.503   7.793 -0.8264 -0.7387  1.3122
  418MOL0     H56375   0.784   7.655   7.631  0.1598 -1.2703 -0.3309
  418MOL0     H56376   0.904   7.697   7.748 -0.1017  1.0122 -1.2473
  418MOL0     H56377   0.835   7.406   7.646  0.3388  0.2255 -1.1096
  418MOL0     H56378   0.949   7.436   7.775  1.7916 -0.2086  0.2078
  418MOL0     H56379   1.076   7.419   7.576  0.2208  0.0603  1.0988
  418MOL0     H56380   0.991   7.558   7.484  2.3058  0.0240 -1.5401
  418MOL0     H56381   1.228   7.510   7.811 -1.0564  0.7426  1.6939
  418MOL0     H56382   1.458   7.664   7.852  3.0781  2.2747  0.8091
  418MOL0     H56383   1.455   7.824   7.765  0.2915 -1.3163 -1.0523
  418MOL0     H56384   1.219   7.835   7.926 -0.0408 -2.2450  0.3387
  418MOL0     H56385   1.326   7.740   8.022 -1.2988  1.5855  1.7496
  418MOL0     H56386   1.438   8.015   7.925  0.3319  0.2588 -0.2000
  418MOL0     H56387   1.503   7.887   8.026 -0.4756  0.9162  0.9078
  418MOL0     H56388   1.324   7.913   8.194 -0.1265  2.1212  2.2868
  418MOL0     H56389   1.262   8.048   8.089  0.6936 -0.6342 -1.7911
  418MOL0     H56390   1.646   8.202   8.277  0.6663  1.6414  0.4037
  418MOL0     H56391   1.649   8.322   8.496  0.5594 -2.9085  0.0064
  418MOL0     H56392   1.603   8.656   8.731  1.9011 -0.9577 -0.6699
  418MOL0     H56393   1.611   8.801   8.947  0.0768 -0.5222 -1.2221
  418MOL0     H56394   1.585   8.904   9.141 -1.8482 -0.7108 -2.5729
  418MOL0     H56395   1.421   8.876   9.159  0.5751  1.2649  0.3502
  418MOL0     H56396   1.491   8.806   9.411 -2.7695  0.5750  1.2604
  418MOL0     H56397   1.613   8.926   9.375 -0.6278 -0.8125  0.0162
  418MOL0     H56398   1.467   9.098   9.324  0.0390 -0.0406 -1.0229
  418MOL0     H56399   1.322   8.997   9.292 -0.7740  1.4473  0.4329
  418MOL0     H56400   1.435   8.992   9.568  1.8310 -2.3697 -1.2854
  418MOL0     H56401   1.267   8.963   9.510 -1.6385  2.2757  0.9878
  418MOL0     H56402   1.219   9.182   9.479 -0.0288 -0.2777 -1.3211
  418MOL0     H56403   1.366   9.248   9.457 -2.0948  2.0872 -0.5110
  418MOL0     H56404   1.304   9.115   9.727 -1.1540  0.1625 -0.5623
  418MOL0     H56405   1.434   9.232   9.693 -0.0189 -1.0636 -0.6192
  418MOL0     H56406   1.246   9.415   9.637 -2.0430 -0.6258 -0.6077
  418MOL0     H56407   1.298   9.373   9.799  3.5795  1.5338 -1.3617
  418MOL0     H56408   1.036   9.368   9.723  0.9912  1.1524 -1.0021
  418MOL0     H56409   1.073   9.194   9.708 -0.4910 -0.8974  2.5136
  418MOL0     H56410   1.493   8.453   9.168 -0.2862 -2.5936 -1.8427
  418MOL0     H56411   1.478   8.332   8.969 -1.5369 -0.9969 -2.9908
  418MOL0     H56412   1.222   8.248   8.528 -0.1791 -0.8072  1.0840
  418MOL0     H56413   1.238   8.091   8.336 -1.4038  0.4040  2.8257
  418MOL0     H56414   0.498   7.946   8.384 -0.4098 -0.2333 -0.8461
  418MOL0     H56415   0.680   8.043   8.536  0.2257  0.9958 -2.3681
  418MOL0     H56416   1.052   7.737   8.952  3.1887 -0.4338 -4.2486
  418MOL0     H56417   1.176   7.835   9.129 -1.2637 -1.6790 -0.1991
  418MOL0     H56418   1.151   8.237   9.159  0.7646 -0.7250 -0.8798
  418MOL0     H56419   1.325   8.254   9.215  0.3143 -0.2420  2.0331
  418MOL0     H56420   1.092   8.092   9.324 -1.0874  3.0744 -2.0607
  418MOL0     H56421   1.186   8.227   9.400  1.5984  0.2443 -1.9702
  418MOL0     H56422   1.394   8.084   9.390 -1.5434  2.4205 -0.2431
  418MOL0     H56423   1.281   7.949   9.351 -0.0628 -0.2506  1.1922
  418MOL0     H56424   1.325   7.986   9.616  0.2647  1.0445  0.6874
  418MOL0     H56425   1.240   8.136   9.578  1.7692  1.1307 -0.7192
  418MOL0     H56426   0.944   7.872   9.667 -0.4000  2.4407  2.8795
  418MOL0     H56427   1.135   8.212   8.936  0.1973 -1.0765 -3.1502
  418MOL0     H56428   1.026   8.246   8.730 -1.2334 -0.1549  2.1725
  418MOL0     H56429   0.954   8.100   8.647 -1.7212  0.0003 -0.3961
  418MOL0     H56430   0.870   8.184   8.761 -0.9789 -0.9826 -1.4437
  419MOL0     O56431   0.237   6.268   8.924  0.2745 -0.1596  1.1096
  419MOL0     C56432   0.341   6.328   8.938 -0.2806 -0.6531 -0.3798
  419MOL0     O56433   0.451   6.264   9.007  0.4284 -0.6337 -0.1034
  419MOL0     C56434   0.451   6.128   9.025 -0.1491 -0.6834 -0.3628
  419MOL0     C56435   0.488   6.090   9.155 -0.5722  0.0743 -0.2323
  419MOL0     C56436   0.472   5.955   9.191  0.1319  0.1932  0.1297
  419MOL0     C56437   0.441   5.855   9.100  0.5819 -0.6337 -0.0923
  419MOL0     O56438   0.417   5.729   9.155  0.0486  0.2071  0.1735
  419MOL0     C56439   0.317   5.649   9.092  0.2018 -0.6209 -0.2597
  419MOL0     C56440   0.274   5.555   9.201 -0.3321  0.8226 -0.1817
  419MOL0     C56441   0.389   5.459   9.246 -0.2121  0.7711  0.4691
  419MOL0     C56442   0.328   5.370   9.351 -0.1229  1.3774 -0.1438
  419MOL0     C56443   0.429   5.246   9.379  0.5213 -1.3273  0.4054
  419MOL0     C56444   0.560   5.288   9.434 -1.0847  0.2053  0.4950
  419MOL0     C56445   0.664   5.181   9.450  0.0223 -0.0699  0.7228
  419MOL0     C56446   0.796   5.232   9.508  0.2388  1.2500 -0.0703
  419MOL0     N56447   0.802   5.214   9.654  0.5708  0.2045 -0.5705
  419MOL0     C56448   0.788   5.095   9.719 -0.5925  0.0494 -1.1612
  419MOL0     C56449   0.828   5.117   9.850  0.3688 -0.0919 -0.5029
  419MOL0     C56450   0.841   5.013   9.954 -0.3687  0.7870  0.5351
  419MOL0     C56451   0.959   4.929   9.913  1.1091 -0.0729  0.4107
  419MOL0     C56452   0.990   4.816  10.011 -0.7552  0.1677 -0.3714
  419MOL0     C56453   1.137   4.781   9.989 -0.5424  0.1160  0.3317
  419MOL0     O56454   1.154   4.708   9.861  0.1229 -0.3683 -0.1014
  419MOL0     C56455   1.288   4.684   9.826 -0.9742  0.2650 -0.0238
  419MOL0     C56456   1.319   4.669   9.689 -0.0395  0.9208  0.2542
  419MOL0     C56457   1.451   4.637   9.648  0.6310 -0.5799 -0.7452
  419MOL0     C56458   1.557   4.619   9.740  0.4545 -0.3488 -0.7606
  419MOL0     C56459   1.691   4.593   9.698 -0.2969 -1.0510  1.0920
  419MOL0     O56460   1.775   4.544   9.797 -0.4397  0.0312 -0.0997
  419MOL0     C56461   1.913   4.529   9.777  0.3457  0.3759  0.7354
  419MOL0     C56462   2.008   4.629   9.816  0.1966  0.4956  0.2620
  419MOL0     C56463   2.138   4.602   9.785 -0.0450 -0.3250 -0.0998
  419MOL0     C56464   2.180   4.478   9.722  0.1792  0.3856 -0.0627
  419MOL0     O56465   2.312   4.467   9.689 -0.4808  0.4903 -0.1451
  419MOL0     C56466   2.380   4.341   9.668  1.1705 -0.4092 -0.0058
  419MOL0     C56467   2.399   4.303   9.519 -0.2394 -0.6725 -0.0605
  419MOL0     C56468   2.468   4.421   9.443  0.8621  0.1835 -0.8090
  419MOL0     C56469   2.376   4.464   9.314  0.2402  0.2739 -0.4712
  419MOL0     C56470   2.442   4.554   9.207  0.1907 -0.5078 -0.5789
  419MOL0     C56471   2.315   4.615   9.134 -0.7113  0.8939 -0.9247
  419MOL0     C56472   2.354   4.690   9.008 -0.4707 -0.3527 -0.0218
  419MOL0     C56473   2.237   4.748   8.931 -0.1765 -0.1317 -0.3987
  419MOL0    Cl56474   2.134   4.612   8.871 -0.3991  0.0933  0.4113
  419MOL0     C56475   2.086   4.382   9.688  0.9002 -0.1816 -0.2338
  419MOL0     C56476   1.953   4.410   9.713  0.0468  0.6395  0.4176
  419MOL0     O56477   1.719   4.613   9.581 -0.3137 -0.2720  0.9268
  419MOL0     C56478   1.519   4.624   9.877  0.7045  0.0242  0.1407
  419MOL0     C56479   1.390   4.663   9.921 -0.1146 -0.0362 -0.5605
  419MOL0     N56480   0.852   5.251   9.862 -0.7010 -0.8499 -0.3646
  419MOL0     N56481   0.848   5.307   9.742  0.9763 -0.1716 -0.8707
  419MOL0     C56482   0.421   5.895   8.970  0.5541  0.6669 -0.4596
  419MOL0     C56483   0.425   6.031   8.926 -1.4590  0.4570 -0.5374
  419MOL0     C56484   0.357   6.466   8.889  0.0044  0.1942  0.1013
  419MOL0     C56485   0.246   6.539   8.826 -0.2834  0.4961  0.3327
  419MOL0     C56486   0.253   6.661   8.770  0.3734 -1.2078 -0.4576
  419MOL0     C56487   0.370   6.728   8.793 -0.8810 -0.0310 -0.7302
  419MOL0     O56488   0.401   6.853   8.745 -0.3551 -0.1681 -0.1968
  419MOL0     C56489   0.410   6.959   8.842  0.0921  0.8284 -0.3803
  419MOL0     C56490   0.519   7.051   8.807  0.6637  0.5547 -0.3402
  419MOL0     C56491   0.511   7.191   8.875 -0.9351 -0.5706  0.1170
  419MOL0     C56492   0.655   7.255   8.854  0.2019 -0.1546  0.6611
  419MOL0     C56493   0.637   7.397   8.798 -0.0649  0.6511 -0.3218
  419MOL0     C56494   0.642   7.508   8.751  0.3328 -0.7129 -0.7954
  419MOL0     C56495   0.481   6.670   8.856  0.2449 -0.7196 -1.3088
  419MOL0     C56496   0.479   6.536   8.903 -0.4638 -0.6691 -0.1210
  419MOL0     C56497   0.606   6.473   8.957 -0.1951  0.2109  0.9109
  419MOL0     H56498   0.499   6.168   9.230 -1.4075  0.7045 -0.7414
  419MOL0     H56499   0.483   5.938   9.298  0.9563  2.1131  0.3836
  419MOL0     H56500   0.224   5.702   9.070 -0.6393 -2.0358 -0.2760
  419MOL0     H56501   0.349   5.594   9.003  1.4434  1.3945 -1.1294
  419MOL0     H56502   0.184   5.502   9.169  1.2235 -1.7934 -0.4718
  419MOL0     H56503   0.244   5.624   9.280 -0.6940 -0.0636  0.4596
  419MOL0     H56504   0.478   5.514   9.279 -0.9905  2.1925  0.3081
  419MOL0     H56505   0.426   5.400   9.162 -4.0810  0.0893 -0.9463
  419MOL0     H56506   0.307   5.435   9.436 -0.5398  3.1055 -1.5069
  419MOL0     H56507   0.231   5.338   9.312 -0.1469  1.2577  0.0177
  419MOL0     H56508   0.380   5.187   9.458 -1.7326  2.4111  2.0613
  419MOL0     H56509   0.426   5.186   9.287 -2.2925 -0.1902 -0.3476
  419MOL0     H56510   0.598   5.365   9.366  0.8370  0.7466  2.0835
  419MOL0     H56511   0.544   5.346   9.525  3.7013  0.7557  1.2627
  419MOL0     H56512   0.678   5.146   9.347 -0.3747  1.9088 -0.0621
  419MOL0     H56513   0.622   5.096   9.505  1.5557 -2.3240 -1.3584
  419MOL0     H56514   0.867   5.167   9.455 -2.3599 -1.0812 -0.9275
  419MOL0     H56515   0.829   5.334   9.490  3.4386  0.6630  1.7067
  419MOL0     H56516   0.766   5.000   9.671  0.3846 -1.9922  2.0830
  419MOL0     H56517   0.859   5.060  10.051 -0.1812  1.5502  0.1431
  419MOL0     H56518   0.746   4.960   9.968 -0.6134  1.2120  0.5155
  419MOL0     H56519   0.932   4.888   9.815  0.4312  1.4303 -0.0610
  419MOL0     H56520   1.048   4.993   9.907  1.1928 -0.3182 -2.1422
  419MOL0     H56521   0.939   4.720   9.998  4.2104 -2.9042  0.1608
  419MOL0     H56522   0.977   4.844  10.116 -0.8180 -4.6259  1.1290
  419MOL0     H56523   1.177   4.725  10.074 -0.5445  0.9104  0.8712
  419MOL0     H56524   1.212   4.859  10.002 -1.1855  0.9765 -0.9212
  419MOL0     H56525   1.231   4.674   9.626  1.1827 -1.4824 -1.8442
  419MOL0     H56526   1.463   4.632   9.540 -0.5359 -1.6532 -0.8455
  419MOL0     H56527   1.976   4.727   9.851  2.0760  1.5796 -0.8858
  419MOL0     H56528   2.218   4.674   9.800  0.7345 -0.7414 -1.9866
  419MOL0     H56529   2.481   4.352   9.707  0.9973 -1.6059  0.8485
  419MOL0     H56530   2.316   4.266   9.716 -1.0979 -0.6195 -3.0704
  419MOL0     H56531   2.457   4.211   9.507  0.8280 -0.4214  2.4899
  419MOL0     H56532   2.301   4.278   9.478 -0.6043  0.8227 -0.1482
  419MOL0     H56533   2.482   4.511   9.504  0.5755  0.3757 -1.0234
  419MOL0     H56534   2.564   4.390   9.401 -0.1256 -1.2958 -2.0762
  419MOL0     H56535   2.283   4.510   9.348  0.5216  1.2420 -0.9762
  419MOL0     H56536   2.354   4.373   9.257  1.7155  0.8095 -1.9731
  419MOL0     H56537   2.502   4.496   9.136  3.2949  0.3073  1.1855
  419MOL0     H56538   2.503   4.631   9.255 -1.0011  0.9165 -1.2765
  419MOL0     H56539   2.254   4.526   9.114  0.1375 -1.1753  4.2232
  419MOL0     H56540   2.263   4.690   9.195  2.0955  1.9654  0.3310
  419MOL0     H56541   2.394   4.612   8.942 -2.3599 -2.7517  1.5180
  419MOL0     H56542   2.422   4.769   9.042 -1.1639  1.0810 -1.7664
  419MOL0     H56543   2.179   4.821   8.988  2.3577 -0.4269  2.9295
  419MOL0     H56544   2.273   4.792   8.838 -0.7473 -0.7895 -0.9346
  419MOL0     H56545   2.129   4.297   9.634  1.8349  1.6936 -2.6372
  419MOL0     H56546   1.878   4.338   9.683  0.3752  1.2455 -2.0210
  419MOL0     H56547   1.580   4.574   9.952 -0.0773  1.0830  1.5461
  419MOL0     H56548   1.368   4.670  10.027  0.6639  0.2512 -0.4118
  419MOL0     H56549   0.397   5.810   8.907 -3.0881 -0.0517  1.6001
  419MOL0     H56550   0.417   6.055   8.820  0.9335  0.3339 -0.8102
  419MOL0     H56551   0.150   6.488   8.827  0.3597 -0.7880  2.3006
  419MOL0     H56552   0.185   6.714   8.704  0.4364 -1.5371 -0.7970
  419MOL0     H56553   0.405   6.931   8.948  1.2169  0.3531 -0.4281
  419MOL0     H56554   0.318   7.016   8.826 -1.2886 -1.2458 -0.1903
  419MOL0     H56555   0.516   7.074   8.700 -3.6326  2.6972  0.0306
  419MOL0     H56556   0.610   6.991   8.816  0.7307 -0.0695 -3.8069
  419MOL0     H56557   0.501   7.178   8.983 -0.1021 -3.4085 -0.0534
  419MOL0     H56558   0.444   7.270   8.841  0.4631  2.0659  3.0150
  419MOL0     H56559   0.714   7.265   8.946 -1.0676 -1.3339  1.6447
  419MOL0     H56560   0.711   7.191   8.786 -1.6270 -1.6659  0.4907
  419MOL0     H56561   0.645   7.604   8.702  1.6652 -0.6348 -0.5956
  419MOL0     H56562   0.568   6.735   8.866 -0.3943 -0.0368  0.0997
  419MOL0     H56563   0.643   6.390   8.896 -0.1273  2.5377 -2.5105
  419MOL0     H56564   0.685   6.549   8.959 -0.5390  0.7575 -1.9006
  419MOL0     H56565   0.582   6.442   9.059 -2.8084  0.4681  0.4464
  420MOL0     O56566   9.234   5.478   3.287 -0.1663  0.3405  0.5203
  420MOL0     C56567   9.245   5.428   3.396  0.0900  0.6977  0.0365
  420MOL0     O56568   9.342   5.343   3.434  0.2140 -0.2008  0.1896
  420MOL0     C56569   9.404   5.277   3.341  0.4664  0.2286 -0.3240
  420MOL0     C56570   9.543   5.273   3.330  1.2391  0.1393 -0.0457
  420MOL0     C56571   9.603   5.194   3.227  0.6252  0.4134 -0.2928
  420MOL0     C56572   9.525   5.100   3.159 -0.1013 -0.2308 -0.2541
  420MOL0     O56573   9.602   5.032   3.066 -0.3921  0.3313 -0.2719
  420MOL0     C56574   9.534   4.957   2.974  0.2352 -0.1809  0.6699
  420MOL0     C56575   9.642   4.889   2.889  0.2178 -0.3175  0.1088
  420MOL0     C56576   9.608   4.888   2.735  0.0102 -0.2822  0.6384
  420MOL0     C56577   9.732   4.820   2.668 -1.1544  0.5572 -0.5718
  420MOL0     C56578   9.703   4.793   2.518  0.9168 -0.1478  0.1236
  420MOL0     C56579   9.828   4.761   2.439  0.4361  0.0414 -0.0810
  420MOL0     C56580   9.892   4.637   2.484 -0.5881  0.0840  0.3400
  420MOL0     C56581  10.041   4.643   2.454  0.0212  0.2336 -0.7412
  420MOL0     N56582  10.110   4.539   2.533 -0.2972 -0.7605  0.0773
  420MOL0     C56583  10.112   4.408   2.499  0.3729  0.0506  0.5415
  420MOL0     C56584  10.181   4.352   2.607 -0.5117  0.7801  0.2417
  420MOL0     C56585  10.220   4.205   2.606 -0.5510  0.6562 -0.8581
  420MOL0     C56586  10.351   4.166   2.536 -0.0343 -0.3766  0.5687
  420MOL0     C56587  10.336   4.149   2.379 -0.0033  0.0135 -0.2781
  420MOL0     C56588  10.455   4.074   2.310 -0.1892 -0.5972  0.7798
  420MOL0     O56589  10.564   4.166   2.321 -0.1194 -0.2899  0.1837
  420MOL0     C56590  10.677   4.132   2.244  0.3135  0.0109 -0.7557
  420MOL0     C56591  10.783   4.227   2.237  0.1150  0.7145  0.3757
  420MOL0     C56592  10.913   4.209   2.183  0.2206  0.5393 -0.3342
  420MOL0     C56593  10.931   4.075   2.125 -0.1633 -1.1391 -0.3048
  420MOL0     C56594  11.056   4.033   2.071 -0.8069 -0.5359  0.1431
  420MOL0     O56595  11.146   4.134   2.062 -0.3838  0.1734 -0.3767
  420MOL0     C56596  11.267   4.098   2.002  0.3551 -0.6308 -0.8746
  420MOL0     C56597  11.290   4.108   1.866  0.5051 -0.6414  0.2185
  420MOL0     C56598  11.415   4.070   1.823  0.1360  0.0383 -0.7084
  420MOL0     C56599  11.518   4.030   1.914  0.4234  0.6378  0.2517
  420MOL0     O56600  11.633   3.977   1.865 -0.5051 -0.1305  0.3662
  420MOL0     C56601  11.705   4.049   1.756  0.5088  0.3172 -0.2972
  420MOL0     C56602  11.825   4.123   1.825  0.9685 -0.3698 -0.8645
  420MOL0     C56603  11.793   4.230   1.924  0.2046  0.0253 -0.1775
  420MOL0     C56604  11.727   4.359   1.882  0.4082  0.4547  0.0463
  420MOL0     C56605  11.755   4.473   1.979  0.1433 -0.4855  0.2317
  420MOL0     C56606  11.882   4.556   1.941  0.3387  0.3521 -0.3241
  420MOL0     C56607  12.013   4.490   2.000  0.7035 -0.1381 -0.6570
  420MOL0     C56608  12.124   4.595   1.964  0.7048 -1.0505  0.7936
  420MOL0    Cl56609  12.288   4.545   1.997  0.0186 -0.1444 -0.4227
  420MOL0     C56610  11.496   4.034   2.053 -0.5002  0.2002  0.3101
  420MOL0     C56611  11.367   4.074   2.094  1.2381 -0.5972 -0.7645
  420MOL0     O56612  11.072   3.923   2.019 -0.9273  0.0267 -0.3493
  420MOL0     C56613  10.827   3.983   2.118  0.0908 -0.7627  0.4500
  420MOL0     C56614  10.700   4.016   2.175  0.1690  0.3787  0.5126
  420MOL0     N56615  10.220   4.453   2.700 -0.2591 -0.4495  0.2720
  420MOL0     N56616  10.171   4.561   2.655  0.1968 -0.0090 -0.7483
  420MOL0     C56617   9.384   5.097   3.178 -0.0499 -0.4778 -0.1908
  420MOL0     C56618   9.330   5.184   3.271  0.0533  0.6153 -0.3673
  420MOL0     C56619   9.132   5.455   3.496  0.0155 -0.0328  0.5318
  420MOL0     C56620   9.144   5.397   3.621  0.9229  0.1623  0.1233
  420MOL0     C56621   9.055   5.406   3.722  1.6512 -0.4639 -0.0167
  420MOL0     C56622   8.933   5.474   3.705  0.7061 -1.1027  0.0314
  420MOL0     O56623   8.853   5.471   3.819  0.2250  0.0275 -0.8494
  420MOL0     C56624   8.716   5.511   3.808 -0.0828 -0.0469 -0.2456
  420MOL0     C56625   8.706   5.662   3.826 -0.3785 -0.1398 -0.3102
  420MOL0     C56626   8.725   5.711   3.972 -0.2792 -0.1411 -0.3955
  420MOL0     C56627   8.761   5.859   3.988  0.7773  0.4833 -0.1085
  420MOL0     C56628   8.656   5.941   3.919 -0.8089  0.2407 -0.4615
  420MOL0     C56629   8.594   6.020   3.848 -0.9299  0.2327  0.2547
  420MOL0     C56630   8.909   5.530   3.579 -0.3717  0.5237  0.1250
  420MOL0     C56631   8.999   5.518   3.475 -0.4972 -0.3501 -0.2315
  420MOL0     C56632   8.957   5.586   3.339 -0.1524 -0.5202 -0.8141
  420MOL0     H56633   9.611   5.342   3.379  0.2844  1.6405 -0.7902
  420MOL0     H56634   9.711   5.205   3.222  0.6128  0.5356 -0.2658
  420MOL0     H56635   9.479   4.877   3.024 -0.7587  0.1834  0.1893
  420MOL0     H56636   9.464   5.022   2.920 -0.4274  0.3775  2.1476
  420MOL0     H56637   9.645   4.789   2.933 -2.0279  0.6896  2.8285
  420MOL0     H56638   9.741   4.935   2.900 -0.6591  1.3394  1.5392
  420MOL0     H56639   9.588   4.984   2.686  0.2551 -1.1975 -1.3524
  420MOL0     H56640   9.521   4.822   2.732 -0.6566  0.5848  0.6114
  420MOL0     H56641   9.822   4.883   2.663 -1.1486  0.7492  1.3916
  420MOL0     H56642   9.748   4.720   2.709 -0.0775 -0.8744 -4.1048
  420MOL0     H56643   9.631   4.713   2.500  1.0534  0.5067 -4.7330
  420MOL0     H56644   9.659   4.879   2.467  0.1104  0.7255  2.1545
  420MOL0     H56645   9.801   4.749   2.334  0.9863 -2.3757 -0.0166
  420MOL0     H56646   9.896   4.845   2.457  1.0622 -0.0331 -1.9279
  420MOL0     H56647   9.853   4.555   2.424  1.3965 -1.1366  0.6067
  420MOL0     H56648   9.884   4.626   2.593  0.8755  0.7835  0.5541
  420MOL0     H56649  10.067   4.636   2.348  0.1717  0.1335 -0.6971
  420MOL0     H56650  10.082   4.738   2.492 -0.1632  0.1310 -0.2706
  420MOL0     H56651  10.076   4.365   2.406  1.1283  1.9913 -0.7266
  420MOL0     H56652  10.228   4.163   2.706 -0.0821 -1.2020 -1.6400
  420MOL0     H56653  10.139   4.140   2.572  0.0045  0.1959 -1.3097
  420MOL0     H56654  10.434   4.233   2.560  2.1855 -3.1325  1.0510
  420MOL0     H56655  10.369   4.071   2.586 -1.1528  0.0628  1.8918
  420MOL0     H56656  10.325   4.251   2.341  1.6421  1.7833  3.5151
  420MOL0     H56657  10.244   4.093   2.358  1.2353 -1.6272 -1.6017
  420MOL0     H56658  10.423   4.063   2.206  1.7021 -1.4161  0.2387
  420MOL0     H56659  10.471   3.975   2.355  0.5574 -3.1644 -4.3353
  420MOL0     H56660  10.754   4.315   2.293 -0.9590  1.6123 -1.4873
  420MOL0     H56661  10.992   4.283   2.177  0.2821  0.6047  1.1431
  420MOL0     H56662  11.217   4.130   1.789 -0.0095 -1.8408  0.3307
  420MOL0     H56663  11.453   4.073   1.721  3.9996  1.2712  0.6031
  420MOL0     H56664  11.745   3.972   1.690  1.1730 -0.8199  1.3598
  420MOL0     H56665  11.639   4.117   1.701  0.0947 -0.2864 -0.5557
  420MOL0     H56666  11.877   4.051   1.889  0.1685 -0.9264 -0.8147
  420MOL0     H56667  11.895   4.168   1.754  0.5028  1.3417 -0.2779
  420MOL0     H56668  11.728   4.176   1.993  2.6543 -1.1433  1.3686
  420MOL0     H56669  11.883   4.254   1.981 -0.4737  4.6173 -0.7170
  420MOL0     H56670  11.622   4.333   1.896  0.8377 -0.5718  1.5572
  420MOL0     H56671  11.755   4.388   1.780  0.3050  0.7211  0.0941
  420MOL0     H56672  11.759   4.439   2.083 -3.0755 -0.0711  0.5886
  420MOL0     H56673  11.665   4.536   1.979 -1.6224 -2.8248 -1.4959
  420MOL0     H56674  11.893   4.549   1.832  0.0335 -2.8205 -0.2568
  420MOL0     H56675  11.872   4.659   1.975  1.2263  0.1903  0.4790
  420MOL0     H56676  12.045   4.389   1.974  3.5199  0.0837  1.5371
  420MOL0     H56677  11.999   4.476   2.108 -0.8458 -2.9561 -1.1421
  420MOL0     H56678  12.101   4.631   1.863 -2.9191  1.5779  2.3493
  420MOL0     H56679  12.108   4.679   2.032  1.1578 -0.7509  0.5342
  420MOL0     H56680  11.570   4.008   2.129 -1.0755 -0.8092  0.5379
  420MOL0     H56681  11.339   4.063   2.199  4.0447  0.8135  0.2610
  420MOL0     H56682  10.846   3.887   2.070 -1.4749 -0.7318 -0.3132
  420MOL0     H56683  10.618   3.951   2.148  0.8621  0.1151 -1.0477
  420MOL0     H56684   9.320   5.026   3.126 -2.1573  0.8023  0.4970
  420MOL0     H56685   9.224   5.179   3.295  0.6265 -1.4532  2.2153
  420MOL0     H56686   9.242   5.356   3.645  0.5824  0.2339  1.7676
  420MOL0     H56687   9.075   5.385   3.827 -0.0293  2.1642  0.9450
  420MOL0     H56688   8.653   5.446   3.871  2.0163 -1.2662  0.7019
  420MOL0     H56689   8.675   5.486   3.709 -0.8004  3.1006 -0.8525
  420MOL0     H56690   8.607   5.699   3.797  1.1584  2.7093 -2.3230
  420MOL0     H56691   8.768   5.721   3.758 -2.8780  1.5526 -1.2640
  420MOL0     H56692   8.805   5.655   4.020 -2.5236 -0.6769  3.0611
  420MOL0     H56693   8.628   5.686   4.015 -0.0909 -1.4563 -0.7006
  420MOL0     H56694   8.771   5.891   4.092 -0.0925  1.4073 -0.2887
  420MOL0     H56695   8.859   5.885   3.948  1.0500 -1.8317 -1.0939
  420MOL0     H56696   8.527   6.072   3.783  1.3529  0.2319 -2.2809
  420MOL0     H56697   8.812   5.575   3.559 -1.5489 -0.8011  2.4295
  420MOL0     H56698   8.866   5.645   3.354 -0.0462  0.5742 -3.7527
  420MOL0     H56699   9.042   5.654   3.328  0.5307  0.1464  5.1698
  420MOL0     H56700   8.942   5.527   3.248  2.3651  2.2582 -3.2720
  421MOL0     O56701   0.664   0.906   5.700  0.1925  0.4812 -0.3706
  421MOL0     C56702   0.591   0.803   5.682 -0.5481  0.1311 -0.5691
  421MOL0     O56703   0.629   0.675   5.685 -0.0336  0.3504  0.1537
  421MOL0     C56704   0.762   0.650   5.681  0.8141  0.4329  0.3744
  421MOL0     C56705   0.848   0.683   5.782 -0.6848  0.2521 -0.7203
  421MOL0     C56706   0.983   0.651   5.761  0.5253  0.9996 -0.5191
  421MOL0     C56707   1.030   0.584   5.640 -0.1180  0.0514  0.1318
  421MOL0     O56708   1.166   0.561   5.627  0.0636 -0.7162 -1.0260
  421MOL0     C56709   1.209   0.448   5.546 -0.4596  0.5463  0.4887
  421MOL0     C56710   1.358   0.456   5.533 -0.3936 -0.4781  0.0536
  421MOL0     C56711   1.412   0.328   5.474  0.3222  0.0777  0.6685
  421MOL0     C56712   1.559   0.338   5.461  0.3224  0.7451 -0.1141
  421MOL0     C56713   1.611   0.200   5.407  0.0121 -0.7668  0.7964
  421MOL0     C56714   1.765   0.217   5.381 -0.2828 -0.6254  0.1034
  421MOL0     C56715   1.846   0.254   5.508 -0.5052  0.3597  0.6482
  421MOL0     C56716   1.996   0.271   5.480 -0.0975  0.1101  0.1335
  421MOL0     N56717   2.066   0.139   5.469  0.6004 -0.2684 -0.0896
  421MOL0     C56718   2.072   0.066   5.577  0.4558  0.3288  0.1458
  421MOL0     C56719   2.146  -0.041   5.541 -0.5658 -0.6991  0.1173
  421MOL0     C56720   2.187  -0.152   5.627 -0.9039 -0.5760 -0.4063
  421MOL0     C56721   2.338  -0.169   5.626 -0.2046 -0.0682  0.3381
  421MOL0     C56722   2.396  -0.075   5.723 -0.2094 -0.2125  0.2894
  421MOL0     C56723   2.547  -0.100   5.729  0.3167 -0.4766  0.3685
  421MOL0     O56724   2.615  -0.035   5.838  0.1755  0.0625 -0.4741
  421MOL0     C56725   2.749  -0.058   5.843 -0.1898  0.9091  0.1277
  421MOL0     C56726   2.838  -0.067   5.733 -0.2325  0.1690  0.7734
  421MOL0     C56727   2.968  -0.083   5.761 -0.4046 -0.5789  0.7346
  421MOL0     C56728   3.033  -0.082   5.889  0.3660 -0.3225  0.3602
  421MOL0     C56729   3.181  -0.079   5.920 -0.2852  0.0318  0.3913
  421MOL0     O56730   3.230  -0.013   6.034  0.3550  0.2960  0.6893
  421MOL0     C56731   3.364  -0.035   6.047 -0.0306  0.8033 -0.2902
  421MOL0     C56732   3.467   0.038   6.010 -0.6524 -0.0812  0.2614
  421MOL0     C56733   3.603  -0.003   6.030  0.4669 -0.0695  1.3898
  421MOL0     C56734   3.627  -0.130   6.096 -0.8507 -1.0194  0.3778
  421MOL0     O56735   3.757  -0.176   6.115 -0.1651  0.7652  0.3693
  421MOL0     C56736   3.780  -0.303   6.174  0.4964 -0.1944  0.7693
  421MOL0     C56737   3.929  -0.331   6.167  0.9339  0.7166  0.0527
  421MOL0     C56738   4.008  -0.236   6.252  0.6838  0.0882 -1.0142
  421MOL0     C56739   4.155  -0.263   6.222 -0.5686  0.4733  1.0479
  421MOL0     C56740   4.257  -0.175   6.291 -0.6541 -0.0938 -0.4507
  421MOL0     C56741   4.395  -0.167   6.237  0.4322  0.0178 -0.0274
  421MOL0     C56742   4.446  -0.303   6.184  0.1545  0.1388 -0.2757
  421MOL0     C56743   4.577  -0.294   6.092  0.0011  0.2444  0.1464
  421MOL0    Cl56744   4.609  -0.141   6.000  0.6315 -0.3308 -0.0617
  421MOL0     C56745   3.524  -0.199   6.146 -0.1654 -0.6187 -0.0680
  421MOL0     C56746   3.395  -0.154   6.117 -0.5028  0.3226  0.1737
  421MOL0     O56747   3.257  -0.102   5.826 -0.8840 -0.2441 -0.1964
  421MOL0     C56748   2.937  -0.064   6.000 -0.6874 -0.2674  0.0235
  421MOL0     C56749   2.801  -0.051   5.978  0.3890 -0.2666 -0.2849
  421MOL0     N56750   2.170  -0.026   5.405  0.2781  0.1860 -1.0435
  421MOL0     N56751   2.142   0.094   5.371  0.3924 -0.1548 -0.2013
  421MOL0     C56752   0.937   0.558   5.546 -0.3637  0.1451 -0.1096
  421MOL0     C56753   0.806   0.585   5.558 -0.2455 -0.8586  0.6402
  421MOL0     C56754   0.445   0.827   5.686  0.5546 -0.3203  0.6182
  421MOL0     C56755   0.391   0.932   5.759  1.3712  1.0505 -0.7270
  421MOL0     C56756   0.256   0.957   5.772  0.1882 -0.2117  0.7444
  421MOL0     C56757   0.157   0.885   5.697  0.4720  0.5859 -0.2481
  421MOL0     O56758   0.022   0.931   5.697  0.1943 -0.5958  0.8312
  421MOL0     C56759  -0.049   0.903   5.568  0.2108  0.0455 -0.0791
  421MOL0     C56760  -0.137   0.778   5.596 -0.3305  1.3336  0.4493
  421MOL0     C56761  -0.130   0.675   5.482 -0.1143  0.2052  0.0472
  421MOL0     C56762  -0.244   0.571   5.475  0.4232 -0.2224 -0.4667
  421MOL0     C56763  -0.255   0.505   5.606  0.6117  0.1607  0.3596
  421MOL0     C56764  -0.241   0.435   5.705 -0.3888  0.1780 -0.1250
  421MOL0     C56765   0.208   0.774   5.622 -0.4079  0.3968 -0.9931
  421MOL0     C56766   0.348   0.744   5.620  0.2137  0.3688 -1.3494
  421MOL0     C56767   0.383   0.633   5.530 -0.9407 -0.0637 -0.5144
  421MOL0     H56768   0.820   0.747   5.865  2.7958  1.4038 -0.2712
  421MOL0     H56769   1.055   0.669   5.840  0.5317  0.8136 -0.4811
  421MOL0     H56770   1.182   0.355   5.596  1.0336  0.3307  0.9470
  421MOL0     H56771   1.159   0.447   5.449 -0.7784  1.7195  0.6214
  421MOL0     H56772   1.397   0.476   5.633 -0.4444  0.1171 -0.0398
  421MOL0     H56773   1.382   0.540   5.466 -0.8352  0.2272  0.7681
  421MOL0     H56774   1.363   0.318   5.377  2.7324  0.7597 -0.7084
  421MOL0     H56775   1.389   0.241   5.536  1.2169 -1.0484 -0.5338
  421MOL0     H56776   1.589   0.417   5.392  1.2791  1.9559  1.5949
  421MOL0     H56777   1.601   0.356   5.561 -0.9648  0.1544  0.5623
  421MOL0     H56778   1.592   0.117   5.476 -2.1780 -1.6186 -0.6990
  421MOL0     H56779   1.557   0.167   5.317  0.9746  1.0992 -0.5259
  421MOL0     H56780   1.796   0.122   5.337 -1.5573 -1.6564  1.3436
  421MOL0     H56781   1.771   0.307   5.320  3.1698  0.5416  1.9516
  421MOL0     H56782   1.824   0.179   5.584  1.7561 -1.3396 -0.2670
  421MOL0     H56783   1.820   0.355   5.543 -0.6329  0.7811 -0.5930
  421MOL0     H56784   2.007   0.321   5.383 -0.4081  1.4425  0.7514
  421MOL0     H56785   2.032   0.330   5.565  0.7151  1.8778 -1.3636
  421MOL0     H56786   2.020   0.079   5.671 -2.6903 -3.1047 -0.9179
  421MOL0     H56787   2.151  -0.133   5.729  0.7506  1.5667 -0.1553
  421MOL0     H56788   2.138  -0.238   5.581 -0.0260 -1.0299 -0.5102
  421MOL0     H56789   2.372  -0.268   5.656  1.4972  0.9203  1.8799
  421MOL0     H56790   2.384  -0.151   5.529 -0.2836 -3.7508 -0.5302
  421MOL0     H56791   2.349  -0.086   5.821 -0.0596  0.3174  0.4233
  421MOL0     H56792   2.384   0.032   5.700  2.6859 -0.0659 -0.8495
  421MOL0     H56793   2.598  -0.073   5.636 -0.7281 -1.0567 -0.3936
  421MOL0     H56794   2.566  -0.207   5.738  1.9040 -0.1030  2.1761
  421MOL0     H56795   2.799  -0.060   5.632 -0.2228  0.1302  0.7669
  421MOL0     H56796   3.039  -0.080   5.679  2.1432  4.0146  2.6973
  421MOL0     H56797   3.445   0.134   5.965 -1.1805  0.1863  1.0577
  421MOL0     H56798   3.688   0.048   5.986  0.3672 -0.9934  0.0830
  421MOL0     H56799   3.751  -0.302   6.279 -1.2558  1.5483  0.3300
  421MOL0     H56800   3.723  -0.375   6.114  0.8564 -0.4102  0.6861
  421MOL0     H56801   3.941  -0.433   6.206  2.7703  0.7714 -0.2874
  421MOL0     H56802   3.965  -0.336   6.063 -2.0713  1.1057 -1.1147
  421MOL0     H56803   3.985  -0.132   6.228 -4.2968 -1.1544 -2.7714
  421MOL0     H56804   3.991  -0.253   6.359  0.7883 -2.6065 -1.3415
  421MOL0     H56805   4.166  -0.251   6.114 -0.6717  1.1458  1.1111
  421MOL0     H56806   4.181  -0.369   6.227  2.1592  0.9533 -0.6824
  421MOL0     H56807   4.264  -0.213   6.394  1.3057  3.9895  1.1307
  421MOL0     H56808   4.215  -0.075   6.303  0.4964  0.1136  2.8617
  421MOL0     H56809   4.387  -0.097   6.153  1.8956  0.3260  0.0655
  421MOL0     H56810   4.456  -0.131   6.320 -0.3267  0.0500  0.5330
  421MOL0     H56811   4.379  -0.349   6.111  0.2862 -0.9602  0.2660
  421MOL0     H56812   4.457  -0.361   6.277  0.8673  4.8813  2.9359
  421MOL0     H56813   4.664  -0.324   6.151 -0.8924 -0.4676  1.1579
  421MOL0     H56814   4.568  -0.375   6.020  0.3745  2.7035 -2.8393
  421MOL0     H56815   3.534  -0.291   6.204 -0.8295 -1.0764 -0.6702
  421MOL0     H56816   3.314  -0.216   6.155  0.3465  1.4830  4.4241
  421MOL0     H56817   2.978  -0.083   6.098  1.7367  1.8455 -0.4586
  421MOL0     H56818   2.739  -0.053   6.067 -0.5663 -1.5111 -0.9409
  421MOL0     H56819   0.963   0.524   5.446 -0.4634 -0.4027  0.0499
  421MOL0     H56820   0.736   0.578   5.475 -0.5146  1.9457  0.5169
  421MOL0     H56821   0.458   0.985   5.826 -0.0434 -0.2727  1.8636
  421MOL0     H56822   0.217   1.034   5.837 -3.1494 -1.0521 -0.0702
  421MOL0     H56823   0.020   0.880   5.487  1.1009 -1.3697  1.0203
  421MOL0     H56824  -0.113   0.986   5.537  1.3446  1.2306  0.6347
  421MOL0     H56825  -0.241   0.809   5.610 -0.9890 -0.0454 -0.9938
  421MOL0     H56826  -0.115   0.733   5.694  2.7542  2.4545  0.3651
  421MOL0     H56827  -0.037   0.617   5.482  0.3056  0.8404 -1.4966
  421MOL0     H56828  -0.135   0.734   5.390 -0.1608  2.2930  1.3184
  421MOL0     H56829  -0.342   0.614   5.451  1.0062  1.6304  0.2245
  421MOL0     H56830  -0.216   0.496   5.402 -0.0497  0.3042 -1.1966
  421MOL0     H56831  -0.233   0.370   5.790  0.2239  1.6804  1.0192
  421MOL0     H56832   0.138   0.709   5.569 -0.8973  0.0832  0.0106
  421MOL0     H56833   0.302   0.605   5.462 -0.9443 -0.0886 -0.5000
  421MOL0     H56834   0.468   0.664   5.468 -0.3226 -0.8018 -0.0604
  421MOL0     H56835   0.421   0.541   5.576 -0.0286 -0.7499 -2.4807
  422MOL0     O56836   7.324   8.238   9.767  0.9428 -0.0559 -0.4439
  422MOL0     C56837   7.369   8.169   9.859 -1.1731 -0.8480  0.1504
  422MOL0     O56838   7.480   8.205   9.930  0.4547  0.5740  0.4687
  422MOL0     C56839   7.560   8.303   9.887  0.4380 -0.3969 -0.3049
  422MOL0     C56840   7.593   8.398   9.989 -0.4622  0.4777 -0.3814
  422MOL0     C56841   7.675   8.505   9.966 -0.1288  0.3166  0.9851
  422MOL0     C56842   7.721   8.523   9.830  0.0136  0.1322 -0.5734
  422MOL0     O56843   7.819   8.620   9.811  0.5606  0.5812  0.1267
  422MOL0     C56844   7.786   8.745   9.859 -0.7981 -0.0600 -1.1732
  422MOL0     C56845   7.919   8.836   9.863  1.5335 -0.6655  0.0014
  422MOL0     C56846   7.990   8.855   9.731  0.5607  0.4864 -0.1711
  422MOL0     C56847   8.146   8.858   9.745  0.3161  0.2993  0.4848
  422MOL0     C56848   8.225   8.897   9.618  0.3156 -0.8232  0.1858
  422MOL0     C56849   8.189   9.032   9.572  0.6214  0.0941  1.0206
  422MOL0     C56850   8.284   9.088   9.465  0.2312  0.0233  0.1034
  422MOL0     C56851   8.431   9.088   9.521 -0.3814 -1.2449  0.0831
  422MOL0     N56852   8.539   9.145   9.432 -0.6470 -0.6918  0.4246
  422MOL0     C56853   8.664   9.166   9.471 -1.2922  0.0060  0.2827
  422MOL0     C56854   8.735   9.204   9.363 -0.0498  0.0811 -0.6010
  422MOL0     C56855   8.868   9.258   9.368 -0.5692 -0.7899  0.5611
  422MOL0     C56856   8.893   9.358   9.491  0.0921  0.0799  0.2559
  422MOL0     C56857   8.881   9.520   9.460 -0.9126  0.9063  0.4454
  422MOL0     C56858   9.005   9.576   9.377 -0.7142 -0.3263  0.6559
  422MOL0     O56859   9.131   9.557   9.452  0.3063 -0.1851 -0.4974
  422MOL0     C56860   9.198   9.681   9.456 -0.3853 -0.1752 -0.3037
  422MOL0     C56861   9.229   9.739   9.578 -0.9857  0.0754  0.4085
  422MOL0     C56862   9.303   9.860   9.592 -0.2593 -0.4995  0.2058
  422MOL0     C56863   9.347   9.913   9.476 -0.1975 -0.2244  0.2467
  422MOL0     C56864   9.441  10.030   9.473  0.1306  0.6118  0.2867
  422MOL0     O56865   9.472  10.075   9.592 -0.2127  0.8830 -0.1911
  422MOL0     C56866   9.565  10.173   9.618  0.4670 -0.3036  0.8942
  422MOL0     C56867   9.659  10.225   9.533 -0.4710  0.3348 -0.1367
  422MOL0     C56868   9.753  10.321   9.573 -0.7757 -0.2585 -0.9115
  422MOL0     C56869   9.744  10.385   9.700 -0.4702  0.1674 -0.5397
  422MOL0     O56870   9.818  10.496   9.745  0.5918  0.8450  0.1583
  422MOL0     C56871   9.937  10.534   9.666 -0.5166  0.9103 -0.1124
  422MOL0     C56872  10.005  10.645   9.742 -0.3147  0.0947  0.0682
  422MOL0     C56873   9.926  10.770   9.757  0.8604 -1.6064 -0.0449
  422MOL0     C56874  10.011  10.899   9.749  0.2272  1.1465  0.6359
  422MOL0     C56875   9.933  11.037   9.775  0.1763  0.6222 -0.2394
  422MOL0     C56876  10.014  11.163   9.742 -0.5172  0.5187 -0.1453
  422MOL0     C56877   9.927  11.288   9.764 -0.3446  0.2031  0.2277
  422MOL0     C56878   9.999  11.422   9.740 -0.2403 -0.3172  0.7541
  422MOL0    Cl56879   9.894  11.545   9.784  0.3728 -0.1905 -0.2400
  422MOL0     C56880   9.653  10.326   9.792 -0.4233  0.3699  0.7335
  422MOL0     C56881   9.571  10.218   9.749  0.2210 -0.5919 -1.0194
  422MOL0     O56882   9.493  10.061   9.367  0.1038  1.2603  0.4689
  422MOL0     C56883   9.320   9.853   9.348  0.5620 -0.6771 -0.1270
  422MOL0     C56884   9.240   9.738   9.334 -0.7495 -0.1451  0.0680
  422MOL0     N56885   8.655   9.185   9.254  1.0013  0.1463  0.7282
  422MOL0     N56886   8.536   9.163   9.296 -0.3237  0.7792 -0.3420
  422MOL0     C56887   7.705   8.425   9.741 -0.9295 -0.3006  0.0734
  422MOL0     C56888   7.626   8.312   9.765  0.2265  0.5097 -0.7341
  422MOL0     C56889   7.319   8.037   9.886  0.2246 -0.0592 -0.5369
  422MOL0     C56890   7.403   7.937   9.940  0.0233 -0.0531 -0.7377
  422MOL0     C56891   7.355   7.813   9.971 -0.1101  0.2836 -0.1743
  422MOL0     C56892   7.220   7.783   9.948 -0.6562  0.1685 -0.6357
  422MOL0     O56893   7.162   7.653   9.964 -0.1939 -0.2449  0.7405
  422MOL0     C56894   7.248   7.558  10.005 -0.2490  0.2875 -0.0775
  422MOL0     C56895   7.205   7.418   9.953 -0.2727 -0.7392 -0.0504
  422MOL0     C56896   7.242   7.397   9.804 -0.0715  0.2555 -0.2478
  422MOL0     C56897   7.223   7.264   9.733 -0.0368  0.0115  0.9897
  422MOL0     C56898   7.346   7.187   9.742 -0.0141  0.5432 -0.7032
  422MOL0     C56899   7.452   7.138   9.733  0.1880  0.3466  0.2578
  422MOL0     C56900   7.135   7.871   9.893  0.1515 -0.8566 -0.5637
  422MOL0     C56901   7.181   8.003   9.869  0.1678  0.1456 -0.7159
  422MOL0     C56902   7.074   8.101   9.821 -1.0263  0.2884  0.0074
  422MOL0     H56903   7.550   8.380  10.087  1.7512  0.2527  0.6072
  422MOL0     H56904   7.698   8.579  10.042 -0.1089  1.1134  0.2236
  422MOL0     H56905   7.708   8.790   9.797  1.3947  2.8534 -2.0831
  422MOL0     H56906   7.755   8.751   9.963  0.3317  1.6474 -0.8816
  422MOL0     H56907   7.984   8.776   9.928  0.5593 -2.0351 -0.2508
  422MOL0     H56908   7.903   8.936   9.905  0.5691 -1.5924  1.9302
  422MOL0     H56909   7.954   8.954   9.704 -0.4001  0.0677 -0.4364
  422MOL0     H56910   7.960   8.781   9.657 -1.1437  1.2568 -0.2904
  422MOL0     H56911   8.177   8.931   9.821  1.0222  1.1238 -0.5725
  422MOL0     H56912   8.180   8.764   9.789 -0.6064  0.6088  1.9430
  422MOL0     H56913   8.333   8.881   9.629  0.4110 -1.4558 -1.3920
  422MOL0     H56914   8.190   8.828   9.541 -2.0094 -0.9941  1.3201
  422MOL0     H56915   8.091   9.016   9.525  1.1594  1.1599 -0.5296
  422MOL0     H56916   8.180   9.107   9.651 -2.8224 -0.2105  1.0859
  422MOL0     H56917   8.248   9.190   9.446 -1.2015 -0.4917 -0.0811
  422MOL0     H56918   8.289   9.016   9.382  0.0411  0.1070  0.0186
  422MOL0     H56919   8.431   9.145   9.614  0.3515 -1.2527  0.0960
  422MOL0     H56920   8.467   8.991   9.555  1.7527 -1.2902 -2.0536
  422MOL0     H56921   8.688   9.198   9.572  1.7072 -2.8112  0.6145
  422MOL0     H56922   8.929   9.169   9.388 -2.6901 -2.2759  0.7903
  422MOL0     H56923   8.896   9.306   9.274 -1.4905 -2.1634 -0.4537
  422MOL0     H56924   8.825   9.340   9.574 -1.3790  0.0182 -0.9340
  422MOL0     H56925   8.998   9.345   9.519 -0.0640  0.7511  1.2006
  422MOL0     H56926   8.864   9.572   9.555 -3.2162  0.1547  0.5157
  422MOL0     H56927   8.790   9.518   9.400 -1.2361  0.2131  0.9360
  422MOL0     H56928   8.991   9.681   9.353  1.0106 -0.0075  0.8858
  422MOL0     H56929   9.014   9.531   9.278 -0.9201  1.7031 -0.3298
  422MOL0     H56930   9.184   9.686   9.661 -3.4484  1.0724 -0.2171
  422MOL0     H56931   9.333   9.903   9.687  2.3566 -0.3763 -0.6009
  422MOL0     H56932   9.668  10.180   9.435  1.1911 -0.4106  0.3276
  422MOL0     H56933   9.823  10.370   9.507 -1.3739  3.1693  0.7403
  422MOL0     H56934   9.995  10.448   9.633 -1.1638  0.9757 -1.5108
  422MOL0     H56935   9.903  10.579   9.571 -2.1091 -1.6144 -0.8538
  422MOL0     H56936  10.037  10.596   9.834  3.2671 -0.6743 -1.4245
  422MOL0     H56937  10.098  10.663   9.686  1.2368 -2.0956  1.7349
  422MOL0     H56938   9.848  10.794   9.684  0.3030  5.2758  2.1603
  422MOL0     H56939   9.864  10.766   9.847 -0.1299 -1.4912 -0.7024
  422MOL0     H56940  10.050  10.903   9.647  0.2928 -4.4870  0.1281
  422MOL0     H56941  10.092  10.882   9.820 -0.1746  1.7646  1.2501
  422MOL0     H56942   9.890  11.034   9.876  0.6754 -0.4516 -0.0393
  422MOL0     H56943   9.843  11.051   9.714 -1.1962  1.2808  1.8109
  422MOL0     H56944  10.108  11.156   9.796  0.3361 -0.0444 -1.6478
  422MOL0     H56945  10.042  11.155   9.636  1.1592 -0.5449  0.3478
  422MOL0     H56946   9.882  11.285   9.864  3.2090 -1.6778  1.9461
  422MOL0     H56947   9.854  11.280   9.683 -1.8551 -0.0478  1.5664
  422MOL0     H56948  10.087  11.428   9.804  1.1051  0.0480 -1.0679
  422MOL0     H56949  10.033  11.438   9.638 -0.1674  0.1912  0.8593
  422MOL0     H56950   9.650  10.370   9.891  4.4248 -4.1683  3.4264
  422MOL0     H56951   9.489  10.177   9.808 -0.5738  1.0225 -0.9352
  422MOL0     H56952   9.359   9.900   9.259 -1.5685  3.3632  0.8616
  422MOL0     H56953   9.193   9.687   9.251 -0.9579  1.8780 -1.1074
  422MOL0     H56954   7.751   8.446   9.645 -4.4193 -0.6044 -1.8445
  422MOL0     H56955   7.614   8.231   9.694  0.4714 -1.5099  1.4362
  422MOL0     H56956   7.505   7.957   9.971  0.2903  1.3688 -2.3910
  422MOL0     H56957   7.425   7.744  10.016 -1.0726  0.8701  2.4170
  422MOL0     H56958   7.244   7.555  10.114 -1.6118 -1.4798 -0.1200
  422MOL0     H56959   7.351   7.556   9.968 -0.0839 -2.7190  0.2647
  422MOL0     H56960   7.097   7.406   9.965 -0.8081  2.7726 -0.5312
  422MOL0     H56961   7.253   7.350  10.024  1.9513  0.9646  0.1848
  422MOL0     H56962   7.347   7.421   9.784  1.1270 -1.8248  2.7906
  422MOL0     H56963   7.171   7.463   9.754 -1.1745 -0.0269  0.8917
  422MOL0     H56964   7.150   7.193   9.774 -1.1764 -1.0283 -2.4775
  422MOL0     H56965   7.179   7.274   9.634 -1.2901 -0.5599  1.4637
  422MOL0     H56966   7.546   7.087   9.743 -1.3085 -2.0253  4.1165
  422MOL0     H56967   7.032   7.843   9.871 -0.1374 -0.2717  0.0222
  422MOL0     H56968   7.068   8.107   9.712 -1.5569  0.7102  0.0549
  422MOL0     H56969   6.978   8.067   9.861  0.1277 -1.0458  1.7787
  422MOL0     H56970   7.081   8.201   9.865 -0.9845 -0.4649  1.7558
  423MOL0     O56971   9.350   4.249   3.794 -0.1946 -0.0494  0.0792
  423MOL0     C56972   9.369   4.367   3.817  0.0136  0.1304  0.8019
  423MOL0     O56973   9.285   4.446   3.886  1.0596 -0.2054 -0.0650
  423MOL0     C56974   9.165   4.386   3.930 -0.6660  0.2574  0.6944
  423MOL0     C56975   9.154   4.347   4.056 -0.5966  0.4291 -0.7253
  423MOL0     C56976   9.028   4.302   4.108 -0.4017 -0.6306  0.1868
  423MOL0     C56977   8.913   4.302   4.029  0.2054 -0.6547 -0.2305
  423MOL0     O56978   8.787   4.258   4.066  0.0557  0.4197 -0.4221
  423MOL0     C56979   8.788   4.165   4.180 -0.1410 -0.2362 -0.3215
  423MOL0     C56980   8.657   4.187   4.261 -0.1217  0.1662  0.4537
  423MOL0     C56981   8.539   4.135   4.166  0.0898  0.7379 -1.0499
  423MOL0     C56982   8.402   4.194   4.206  0.3145 -0.2268  1.0065
  423MOL0     C56983   8.323   4.084   4.278  0.6478 -1.0918 -1.6658
  423MOL0     C56984   8.376   4.042   4.417  0.1792  0.5884  0.0380
  423MOL0     C56985   8.270   3.974   4.507 -0.1419 -0.1368 -0.2679
  423MOL0     C56986   8.307   4.006   4.657  0.0551 -0.0223  0.1680
  423MOL0     N56987   8.420   3.921   4.689 -0.5982  0.7751  0.2045
  423MOL0     C56988   8.427   3.787   4.658  0.4553 -0.3547 -0.3913
  423MOL0     C56989   8.540   3.742   4.712 -0.5323 -0.6026  0.7796
  423MOL0     C56990   8.577   3.603   4.729 -0.2661 -0.3089 -0.2593
  423MOL0     C56991   8.664   3.587   4.858 -0.4300 -0.6139  0.0094
  423MOL0     C56992   8.663   3.443   4.897  0.8179  0.8057  0.1146
  423MOL0     C56993   8.711   3.352   4.782  0.6655  0.6412  0.0838
  423MOL0     O56994   8.804   3.401   4.682 -0.3007 -0.6727 -0.3483
  423MOL0     C56995   8.938   3.421   4.713 -0.3530  0.2912 -0.3976
  423MOL0     C56996   9.025   3.459   4.603 -1.0290 -0.0912 -1.1510
  423MOL0     C56997   9.163   3.482   4.633  0.0244 -0.5127  0.3101
  423MOL0     C56998   9.213   3.455   4.759 -0.1108  0.3797 -0.5797
  423MOL0     C56999   9.353   3.478   4.790 -0.6939  0.1398  0.0214
  423MOL0     O57000   9.446   3.419   4.710  0.0829  0.8999 -0.5176
  423MOL0     C57001   9.572   3.462   4.731  0.3420  0.6709  0.0597
  423MOL0     C57002   9.621   3.540   4.634 -0.7447  0.1403  0.8415
  423MOL0     C57003   9.752   3.582   4.641  0.0700 -0.3322 -0.4341
  423MOL0     C57004   9.823   3.565   4.760 -0.6603 -0.6090 -0.2015
  423MOL0     O57005   9.949   3.633   4.766  0.0194 -0.9685  0.0059
  423MOL0     C57006  10.011   3.649   4.888 -0.3526 -0.7936 -0.7942
  423MOL0     C57007  10.080   3.787   4.895 -0.4479  0.1854 -0.2044
  423MOL0     C57008  10.228   3.782   4.856  0.7617  0.5352  0.5942
  423MOL0     C57009  10.311   3.725   4.967  0.0001 -0.9446  0.2417
  423MOL0     C57010  10.453   3.780   4.969  0.2780  0.7161  0.7135
  423MOL0     C57011  10.543   3.732   5.082  0.2501 -0.8715 -0.5214
  423MOL0     C57012  10.678   3.804   5.061  0.5326 -0.9388  0.6933
  423MOL0     C57013  10.774   3.779   5.175 -0.4796 -0.9813 -0.7919
  423MOL0    Cl57014  10.791   3.613   5.220 -0.2959 -0.4948  0.0777
  423MOL0     C57015   9.771   3.488   4.865  0.2122 -0.0417  0.5499
  423MOL0     C57016   9.644   3.427   4.850  0.0537  0.6058 -0.3418
  423MOL0     O57017   9.383   3.550   4.881 -0.5647  0.1380 -0.0687
  423MOL0     C57018   9.132   3.414   4.861  0.9493  0.1205  0.2060
  423MOL0     C57019   8.994   3.395   4.840 -1.1024  0.1169 -0.1449
  423MOL0     N57020   8.609   3.852   4.759 -0.0859 -0.3674 -0.3745
  423MOL0     N57021   8.533   3.953   4.744 -0.2425  1.1483 -0.5521
  423MOL0     C57022   8.929   4.331   3.891  0.2636 -0.4107  0.6453
  423MOL0     C57023   9.054   4.382   3.844  0.1064 -0.0154 -0.8137
  423MOL0     C57024   9.486   4.429   3.753  0.3103 -0.3571  0.2523
  423MOL0     C57025   9.520   4.409   3.620 -0.1973  0.4841  0.3547
  423MOL0     C57026   9.626   4.472   3.560 -0.6069  0.4753 -0.2207
  423MOL0     C57027   9.708   4.549   3.635  0.0171 -0.1053 -0.5587
  423MOL0     O57028   9.812   4.629   3.586  0.0127  0.2903 -0.6665
  423MOL0     C57029   9.799   4.704   3.464  0.4807 -0.9292  0.0672
  423MOL0     C57030   9.928   4.731   3.400 -0.4240 -0.6485 -0.3390
  423MOL0     C57031   9.920   4.749   3.252  0.4225 -0.4980 -0.0291
  423MOL0     C57032   9.923   4.616   3.173 -0.2393 -0.4521 -1.3847
  423MOL0     C57033   9.903   4.625   3.030  0.3938 -0.4296  0.0412
  423MOL0     C57034   9.903   4.630   2.908 -0.1295  0.5095  0.6036
  423MOL0     C57035   9.676   4.575   3.767 -0.4201  1.1306  0.4734
  423MOL0     C57036   9.567   4.509   3.824  0.2068 -0.1411 -0.9147
  423MOL0     C57037   9.557   4.539   3.966  0.6049  0.2539  0.1134
  423MOL0     H57038   9.240   4.355   4.122 -0.1604 -0.4573 -1.1646
  423MOL0     H57039   9.016   4.290   4.215 -2.0447  0.7400  0.1862
  423MOL0     H57040   8.790   4.061   4.146  1.0168  0.5372 -2.9442
  423MOL0     H57041   8.873   4.172   4.248 -0.8443 -0.8370  0.6341
  423MOL0     H57042   8.644   4.295   4.276  1.2765  0.5061 -0.5637
  423MOL0     H57043   8.660   4.128   4.353  1.3887 -2.8877 -1.3975
  423MOL0     H57044   8.536   4.026   4.158  1.6493  0.6697 -1.0049
  423MOL0     H57045   8.552   4.179   4.067  2.0173  1.9664 -0.3022
  423MOL0     H57046   8.415   4.280   4.273  0.0915  0.2307  0.4721
  423MOL0     H57047   8.356   4.223   4.111  2.9864  0.7384 -0.0868
  423MOL0     H57048   8.224   4.131   4.284  1.7544  1.1381  1.2616
  423MOL0     H57049   8.307   3.999   4.212  0.7297 -1.6732 -0.9424
  423MOL0     H57050   8.467   3.982   4.416  1.2501  2.1490  0.0656
  423MOL0     H57051   8.416   4.135   4.459  3.6378 -0.5554 -0.3636
  423MOL0     H57052   8.270   3.869   4.475  2.9143 -0.4952  0.5782
  423MOL0     H57053   8.169   4.011   4.488 -0.2394  0.2460  0.9402
  423MOL0     H57054   8.329   4.110   4.681  1.5729 -0.3466  0.2997
  423MOL0     H57055   8.230   3.967   4.724 -0.5997 -0.2438 -0.6896
  423MOL0     H57056   8.340   3.729   4.627  0.9497 -0.4423 -1.6699
  423MOL0     H57057   8.490   3.538   4.742 -1.1676  0.7163 -0.9151
  423MOL0     H57058   8.625   3.570   4.636 -1.5093 -0.2509 -0.9459
  423MOL0     H57059   8.766   3.624   4.843  0.3036 -2.4636  0.1360
  423MOL0     H57060   8.623   3.656   4.932 -0.4984  2.0479 -2.3191
  423MOL0     H57061   8.562   3.407   4.917  0.6096  0.1468 -1.9298
  423MOL0     H57062   8.707   3.434   4.997 -2.7229 -0.2461  1.7462
  423MOL0     H57063   8.625   3.315   4.727 -3.3306  2.6640  4.2865
  423MOL0     H57064   8.751   3.263   4.833  0.5413  0.7020  0.2860
  423MOL0     H57065   8.995   3.471   4.499  2.3808 -0.7331 -2.3615
  423MOL0     H57066   9.221   3.536   4.559 -0.1378 -0.6463  0.0836
  423MOL0     H57067   9.553   3.562   4.552 -2.7294 -2.6263  1.6156
  423MOL0     H57068   9.790   3.650   4.566 -2.1916  0.3370 -1.0588
  423MOL0     H57069   9.948   3.651   4.977  2.4806  1.1137  1.3456
  423MOL0     H57070  10.091   3.574   4.889  2.2398  1.7191  1.7256
  423MOL0     H57071  10.036   3.867   4.836 -0.2027 -0.0773 -0.7552
  423MOL0     H57072  10.069   3.822   4.999  2.6802 -0.2049  0.3468
  423MOL0     H57073  10.254   3.721   4.769  2.5859  0.0022  1.4654
  423MOL0     H57074  10.253   3.887   4.840 -2.2197  0.9795 -2.1184
  423MOL0     H57075  10.297   3.617   4.965  1.8351 -1.2128  0.3070
  423MOL0     H57076  10.274   3.762   5.063 -0.5372 -0.6668 -0.0675
  423MOL0     H57077  10.447   3.888   4.989  1.7193  0.7454  1.1505
  423MOL0     H57078  10.498   3.769   4.869  2.6055  1.1677  1.6306
  423MOL0     H57079  10.491   3.767   5.172  3.2680  3.7564 -0.2634
  423MOL0     H57080  10.558   3.624   5.093 -0.8186 -0.8737  1.6281
  423MOL0     H57081  10.667   3.912   5.043  0.5407 -0.9696  0.5047
  423MOL0     H57082  10.715   3.755   4.971  1.3573 -0.5450  0.8151
  423MOL0     H57083  10.874   3.822   5.163 -0.4715 -0.7499  0.0090
  423MOL0     H57084  10.741   3.828   5.268 -0.1796 -2.4838  0.1455
  423MOL0     H57085   9.821   3.467   4.959 -1.0315  0.5854  1.3842
  423MOL0     H57086   9.606   3.370   4.934 -0.4860  1.9608  0.3559
  423MOL0     H57087   9.172   3.412   4.962  0.1632 -0.1620  0.5197
  423MOL0     H57088   8.932   3.368   4.924 -0.8171  2.1201  0.7699
  423MOL0     H57089   8.849   4.338   3.817 -1.7044  0.5334  2.7378
  423MOL0     H57090   9.068   4.411   3.740 -0.4674  0.1603 -0.8457
  423MOL0     H57091   9.455   4.337   3.570 -0.1499 -0.7119  1.9392
  423MOL0     H57092   9.649   4.452   3.456 -1.0413  0.4053 -0.3039
  423MOL0     H57093   9.755   4.803   3.483 -1.3291 -0.4296 -5.0987
  423MOL0     H57094   9.739   4.643   3.395  0.6286 -3.2050  1.8438
  423MOL0     H57095   9.984   4.638   3.410  0.7822 -0.6733 -4.9923
  423MOL0     H57096   9.982   4.807   3.456 -1.3458 -0.1792 -0.0640
  423MOL0     H57097  10.010   4.795   3.209 -0.0548 -0.0337 -0.5580
  423MOL0     H57098   9.832   4.807   3.221  2.3357  0.8487 -3.6729
  423MOL0     H57099  10.020   4.566   3.181 -0.9759 -2.0071 -1.8348
  423MOL0     H57100   9.861   4.551   3.235  2.5680 -0.7674  1.3320
  423MOL0     H57101   9.922   4.647   2.804  1.0926  0.3652  0.7827
  423MOL0     H57102   9.740   4.635   3.831 -0.5994  1.1496  0.6363
  423MOL0     H57103   9.589   4.643   3.978  2.5223 -0.3297  0.3878
  423MOL0     H57104   9.460   4.513   4.010 -0.3021  3.6498  0.4246
  423MOL0     H57105   9.635   4.476   4.011  0.7933  0.8238  0.5928
  424MOL0     O57106  10.183  10.578   4.712  0.6786 -0.1699  1.0669
  424MOL0     C57107  10.118  10.650   4.787  0.2808 -0.0891  0.8243
  424MOL0     O57108  10.141  10.787   4.796 -0.7473  0.0850 -0.3241
  424MOL0     C57109  10.252  10.834   4.748  0.4143  0.8095  0.3624
  424MOL0     C57110  10.249  10.903   4.628  0.2936 -0.1716 -0.7003
  424MOL0     C57111  10.359  10.961   4.578  0.5096 -0.9133  0.4044
  424MOL0     C57112  10.482  10.948   4.648  0.1658 -0.8073  0.0674
  424MOL0     O57113  10.598  11.007   4.613 -0.1717 -0.0150  0.6679
  424MOL0     C57114  10.606  11.085   4.487  1.0254  0.2254 -0.7993
  424MOL0     C57115  10.753  11.102   4.459 -0.8376 -0.5148 -0.0648
  424MOL0     C57116  10.803  11.181   4.580  0.3945 -0.2840 -0.6609
  424MOL0     C57117  10.929  11.272   4.554  0.5289 -1.1368  0.0520
  424MOL0     C57118  10.960  11.379   4.656  0.4958  0.4388 -0.1551
  424MOL0     C57119  11.003  11.319   4.799  0.2038 -0.5452  1.3044
  424MOL0     C57120  11.010  11.429   4.907  0.6879 -0.1264  0.6933
  424MOL0     C57121  11.091  11.564   4.885  0.0335  0.9348  0.8140
  424MOL0     N57122  11.226  11.554   4.855  0.0877 -0.0002  0.1914
  424MOL0     C57123  11.295  11.606   4.746 -0.0347  0.4814  0.2448
  424MOL0     C57124  11.425  11.586   4.787 -0.3299 -0.2367 -0.9142
  424MOL0     C57125  11.555  11.608   4.712  0.3075 -0.3700 -0.1099
  424MOL0     C57126  11.662  11.657   4.808 -0.7066 -0.2865 -0.6984
  424MOL0     C57127  11.797  11.677   4.739 -0.1539  0.1662  0.2621
  424MOL0     C57128  11.894  11.698   4.850  0.2144 -0.1434  0.1415
  424MOL0     O57129  12.030  11.727   4.822  0.1277  0.5225 -0.5689
  424MOL0     C57130  12.066  11.864   4.805  0.0922  0.7255  0.1807
  424MOL0     C57131  11.978  11.970   4.789  0.0158  0.4632 -0.0143
  424MOL0     C57132  12.029  12.100   4.750  0.4361  0.3700 -0.6589
  424MOL0     C57133  12.164  12.133   4.753 -0.5758 -0.0217 -0.0203
  424MOL0     C57134  12.207  12.265   4.708 -0.6795 -0.1158 -0.3476
  424MOL0     O57135  12.102  12.352   4.684  0.1520 -1.1129  0.6271
  424MOL0     C57136  12.117  12.490   4.693  0.1939 -1.1120 -0.7274
  424MOL0     C57137  12.079  12.567   4.590 -0.4054  0.7385  0.6588
  424MOL0     C57138  12.084  12.702   4.601 -0.2628  1.0169 -0.1755
  424MOL0     C57139  12.122  12.764   4.716  0.2593  0.5111  0.4583
  424MOL0     O57140  12.100  12.894   4.716 -0.6251  0.5396  0.4629
  424MOL0     C57141  12.171  12.970   4.815  0.2033  1.6046  0.7943
  424MOL0     C57142  12.122  13.109   4.806 -0.0855 -1.0800  0.0295
  424MOL0     C57143  12.184  13.203   4.912 -0.3031  0.9011 -0.4849
  424MOL0     C57144  12.322  13.225   4.862 -0.2563 -0.0759 -0.5424
  424MOL0     C57145  12.399  13.305   4.966  0.0096  0.6194 -0.1724
  424MOL0     C57146  12.540  13.326   4.920 -0.8343 -0.4167  0.3852
  424MOL0     C57147  12.615  13.383   5.038  0.1137 -0.4611  0.9382
  424MOL0     C57148  12.760  13.434   5.007  0.4384 -0.0204  0.2557
  424MOL0    Cl57149  12.833  13.495   5.161 -0.3602 -0.2388  0.0256
  424MOL0     C57150  12.183  12.688   4.816  0.3027  0.3623  1.1610
  424MOL0     C57151  12.176  12.554   4.806 -0.2290  0.2140 -0.1213
  424MOL0     O57152  12.325  12.304   4.709  0.7799 -0.3326 -0.0301
  424MOL0     C57153  12.245  12.033   4.786  0.3845  0.2201  0.0994
  424MOL0     C57154  12.201  11.902   4.810 -0.8363  0.0819  0.3264
  424MOL0     N57155  11.424  11.519   4.910  0.4655  0.0781 -0.0398
  424MOL0     N57156  11.305  11.479   4.935 -0.0893  0.0436  0.7981
  424MOL0     C57157  10.485  10.877   4.764  0.0486 -0.2160 -0.1516
  424MOL0     C57158  10.368  10.835   4.820  0.4583  0.5318  0.0915
  424MOL0     C57159   9.983  10.599   4.837 -0.3141 -0.2436  0.0739
  424MOL0     C57160   9.910  10.676   4.930  0.6732 -0.3839 -0.0178
  424MOL0     C57161   9.793  10.630   4.994 -0.7535  0.2575 -0.4909
  424MOL0     C57162   9.751  10.498   4.961  0.0227 -0.8619 -0.8191
  424MOL0     O57163   9.635  10.460   5.021 -0.0646 -0.1427  0.3119
  424MOL0     C57164   9.624  10.319   5.047 -0.7160 -0.1529 -0.2882
  424MOL0     C57165   9.547  10.290   5.177  0.1161 -0.9992 -0.4344
  424MOL0     C57166   9.609  10.367   5.300  0.3802  0.0776  0.2700
  424MOL0     C57167   9.533  10.356   5.435  0.7131  1.2789 -0.2065
  424MOL0     C57168   9.525  10.212   5.475 -0.1406  0.1425 -0.1590
  424MOL0     C57169   9.497  10.097   5.509  0.1345 -1.2970 -0.4045
  424MOL0     C57170   9.816  10.427   4.861 -1.4052  0.0474 -0.1747
  424MOL0     C57171   9.939  10.461   4.810 -1.0176 -1.2252 -0.8326
  424MOL0     C57172  10.002  10.363   4.722 -0.3008  0.1996  0.1902
  424MOL0     H57173  10.156  10.915   4.573  1.1945  2.0739 -1.8538
  424MOL0     H57174  10.366  11.014   4.484 -0.3464 -0.4677  0.5818
  424MOL0     H57175  10.555  11.039   4.401  0.7422  1.3618 -1.2530
  424MOL0     H57176  10.558  11.183   4.498  1.0286  0.4937 -2.7527
  424MOL0     H57177  10.772  11.159   4.367 -1.6186  0.6731  0.5001
  424MOL0     H57178  10.795  11.002   4.439  1.1048  0.3966 -0.7920
  424MOL0     H57179  10.826  11.122   4.669 -1.8540  0.6489  0.6455
  424MOL0     H57180  10.726  11.257   4.601  1.6441  1.7978 -3.0066
  424MOL0     H57181  11.023  11.217   4.540  0.9682 -0.3206 -0.2699
  424MOL0     H57182  10.906  11.315   4.456 -0.3122 -3.6603 -0.9228
  424MOL0     H57183  11.036  11.445   4.613 -0.4321  2.0134  0.5397
  424MOL0     H57184  10.866  11.435   4.654  1.2125  1.7001 -2.5979
  424MOL0     H57185  10.927  11.246   4.828 -2.2097  1.7883  1.2098
  424MOL0     H57186  11.101  11.276   4.776  0.7709  1.4649 -0.3313
  424MOL0     H57187  11.052  11.374   4.991  5.6767 -0.4009 -1.6136
  424MOL0     H57188  10.904  11.456   4.918  0.1135  0.0956 -3.4817
  424MOL0     H57189  11.032  11.619   4.810  0.7524  0.2007 -0.3157
  424MOL0     H57190  11.087  11.629   4.973  0.2611  0.7705  0.9446
  424MOL0     H57191  11.271  11.664   4.657  2.3317  1.4451  0.1748
  424MOL0     H57192  11.595  11.515   4.671 -2.2312 -2.4108  1.6094
  424MOL0     H57193  11.553  11.681   4.631 -2.6880 -4.1612 -3.8925
  424MOL0     H57194  11.631  11.757   4.839 -3.5426 -1.3632  0.2934
  424MOL0     H57195  11.671  11.582   4.888 -1.6212  0.2062 -0.1195
  424MOL0     H57196  11.790  11.765   4.675  0.0602  0.1953  0.2804
  424MOL0     H57197  11.828  11.593   4.677 -0.1165 -1.3377  2.2143
  424MOL0     H57198  11.899  11.609   4.914  1.3713  1.4641  2.4473
  424MOL0     H57199  11.858  11.773   4.922  1.3740 -0.4130  1.0351
  424MOL0     H57200  11.870  11.968   4.791  0.0351 -0.3585  1.5038
  424MOL0     H57201  11.955  12.173   4.719  0.3053  1.5455  2.1475
  424MOL0     H57202  12.040  12.514   4.505 -0.4441  1.6634  0.0825
  424MOL0     H57203  12.063  12.772   4.521  1.5723 -1.0330 -2.5839
  424MOL0     H57204  12.148  12.930   4.914  1.0443  2.7800  1.4830
  424MOL0     H57205  12.279  12.956   4.801  0.1438 -1.8441  2.6401
  424MOL0     H57206  12.131  13.155   4.708 -0.3106  1.7149  1.2244
  424MOL0     H57207  12.016  13.122   4.827  0.5792  0.5583  2.9140
  424MOL0     H57208  12.130  13.298   4.911 -2.5435 -0.3022 -1.1412
  424MOL0     H57209  12.182  13.152   5.008  0.7973  0.9303 -0.4345
  424MOL0     H57210  12.311  13.273   4.764 -0.5986 -1.1956 -1.0677
  424MOL0     H57211  12.376  13.131   4.845  1.9615  0.9795  0.1793
  424MOL0     H57212  12.400  13.263   5.068 -4.1289  0.5241  0.0057
  424MOL0     H57213  12.357  13.406   4.971  3.7442  2.3493 -0.3353
  424MOL0     H57214  12.588  13.232   4.891  0.4965  0.2504  0.3999
  424MOL0     H57215  12.542  13.381   4.825  1.5464 -2.8285 -1.1089
  424MOL0     H57216  12.620  13.306   5.116 -1.5624 -1.3193  0.2641
  424MOL0     H57217  12.568  13.473   5.080  2.7460  2.2412 -1.4666
  424MOL0     H57218  12.827  13.352   4.982 -2.3315 -1.7750 -2.2128
  424MOL0     H57219  12.759  13.510   4.927  1.2644  1.3755  1.5188
  424MOL0     H57220  12.232  12.724   4.906  2.1444 -3.3812  1.8488
  424MOL0     H57221  12.233  12.483   4.866 -1.7265 -0.9355  0.0010
  424MOL0     H57222  12.351  12.052   4.801 -0.1068  1.1019  3.1713
  424MOL0     H57223  12.272  11.821   4.829 -0.1279  0.0039 -2.2885
  424MOL0     H57224  10.580  10.864   4.814  0.7274 -2.4319 -1.9008
  424MOL0     H57225  10.357  10.788   4.917 -2.9157  1.1594  0.1228
  424MOL0     H57226   9.937  10.778   4.958 -2.7392  1.0674 -1.5261
  424MOL0     H57227   9.733  10.690   5.062 -0.3623  1.0069 -0.8028
  424MOL0     H57228   9.722  10.269   5.047 -1.0160 -0.7594 -0.5597
  424MOL0     H57229   9.571  10.276   4.961  0.1755  0.4542 -1.1614
  424MOL0     H57230   9.541  10.183   5.199 -0.0511 -0.7964  0.5373
  424MOL0     H57231   9.449  10.337   5.166 -0.7097 -1.7078  2.7528
  424MOL0     H57232   9.618  10.471   5.267 -1.2108  0.5300  1.1298
  424MOL0     H57233   9.713  10.336   5.310 -0.4399 -3.0408  0.0429
  424MOL0     H57234   9.589  10.406   5.514  0.8138 -0.5924  0.9516
  424MOL0     H57235   9.435  10.403   5.422  0.6753  1.4314  0.6059
  424MOL0     H57236   9.473   9.993   5.524 -1.6877 -1.0925 -1.6415
  424MOL0     H57237   9.770  10.341   4.813  3.8443 -2.5820 -1.2618
  424MOL0     H57238   9.960  10.263   4.720  0.4214 -0.1005 -0.6792
  424MOL0     H57239  10.014  10.388   4.616 -2.7833 -1.0084 -0.4473
  424MOL0     H57240  10.103  10.343   4.758 -0.3334  2.6123  1.8943
  425MOL0     O57241   2.004   0.312   3.930 -0.5026 -0.0604  0.8746
  425MOL0     C57242   2.022   0.195   3.920 -0.3649 -0.1847  0.9786
  425MOL0     O57243   2.107   0.137   3.836 -0.6244 -0.8751 -1.0955
  425MOL0     C57244   2.223   0.204   3.808  0.7548  0.3381 -0.6585
  425MOL0     C57245   2.230   0.274   3.687 -0.1684 -0.7504 -0.6836
  425MOL0     C57246   2.344   0.353   3.650 -0.4189 -0.1508 -0.2835
  425MOL0     C57247   2.453   0.359   3.739  1.0213 -0.2768 -0.6204
  425MOL0     O57248   2.549   0.449   3.702 -0.5551 -0.2298 -0.1161
  425MOL0     C57249   2.687   0.424   3.744 -0.6144 -0.0002  1.3310
  425MOL0     C57250   2.781   0.541   3.729  0.7940  1.1261 -0.2057
  425MOL0     C57251   2.934   0.515   3.723  0.6813  0.3544  0.1144
  425MOL0     C57252   3.034   0.634   3.704 -0.0930  0.6915  0.9722
  425MOL0     C57253   3.174   0.598   3.709 -0.5380  0.0839 -0.7593
  425MOL0     C57254   3.276   0.712   3.700  0.4204 -0.1385 -0.1773
  425MOL0     C57255   3.409   0.657   3.740 -0.9046  0.0423  0.4350
  425MOL0     C57256   3.518   0.763   3.720 -0.0831 -0.6009 -0.9059
  425MOL0     N57257   3.540   0.813   3.583  0.0266 -0.2607 -0.3203
  425MOL0     C57258   3.605   0.742   3.478 -1.1842 -0.7117  0.0226
  425MOL0     C57259   3.606   0.839   3.388  0.9663  0.2553  0.7106
  425MOL0     C57260   3.672   0.848   3.251  0.2671 -0.5845 -0.5727
  425MOL0     C57261   3.810   0.781   3.250 -0.1192  0.7612 -0.1781
  425MOL0     C57262   3.873   0.802   3.116  0.2718  0.1299  0.2909
  425MOL0     C57263   3.994   0.708   3.116  0.6633  0.1106  0.2490
  425MOL0     O57264   4.077   0.748   3.005 -0.7604 -0.2385  0.1438
  425MOL0     C57265   4.183   0.667   2.959  0.8574  0.8189 -0.4659
  425MOL0     C57266   4.233   0.562   3.036  0.0174  0.0998 -1.2129
  425MOL0     C57267   4.338   0.477   2.991  0.6211  0.6180  0.0675
  425MOL0     C57268   4.404   0.515   2.875  0.1244 -0.0056  0.5226
  425MOL0     C57269   4.521   0.437   2.836 -0.1478  0.0986 -0.4723
  425MOL0     O57270   4.645   0.494   2.840 -0.1062  0.6795  0.3822
  425MOL0     C57271   4.761   0.429   2.814  0.7521  0.1157 -0.3085
  425MOL0     C57272   4.796   0.302   2.765 -0.0005 -0.5243 -0.2502
  425MOL0     C57273   4.927   0.271   2.741  0.3485  0.5778 -0.1749
  425MOL0     C57274   5.037   0.350   2.771  0.2409 -0.0683 -0.9141
  425MOL0     O57275   5.163   0.303   2.745 -0.0345  0.1373  0.8640
  425MOL0     C57276   5.239   0.386   2.662 -0.5953 -0.0486  0.3776
  425MOL0     C57277   5.337   0.466   2.743 -0.5745  0.3215  0.1456
  425MOL0     C57278   5.430   0.548   2.653 -0.0305  0.0121  0.7213
  425MOL0     C57279   5.539   0.607   2.733 -0.2872  0.4848  0.6015
  425MOL0     C57280   5.625   0.701   2.644 -0.5972  0.1745 -0.6062
  425MOL0     C57281   5.759   0.743   2.720  0.1634 -1.1863 -0.8913
  425MOL0     C57282   5.811   0.883   2.680 -0.0554  0.0274 -0.3487
  425MOL0     C57283   5.842   0.891   2.529  0.3106 -0.1433 -0.6063
  425MOL0    Cl57284   5.975   0.771   2.502 -0.4255 -0.1942  0.5589
  425MOL0     C57285   5.004   0.468   2.835  0.4797 -0.1774 -0.0569
  425MOL0     C57286   4.871   0.510   2.854 -0.1893 -0.0186 -0.1839
  425MOL0     O57287   4.497   0.315   2.843  0.1656  0.0415 -0.2946
  425MOL0     C57288   4.350   0.624   2.793  0.3935  0.7696  0.6804
  425MOL0     C57289   4.245   0.698   2.841  0.2774 -0.7631 -0.2833
  425MOL0     N57290   3.557   0.957   3.440 -0.1290 -0.6381  0.0619
  425MOL0     N57291   3.507   0.935   3.550 -0.2773 -0.3388  0.0101
  425MOL0     C57292   2.456   0.274   3.851  1.0206  0.3022 -0.8225
  425MOL0     C57293   2.336   0.205   3.891 -0.1546 -0.7279  0.3397
  425MOL0     C57294   1.930   0.099   4.007 -0.3534  0.0023 -0.0172
  425MOL0     C57295   1.839   0.157   4.092  1.1819  0.7617 -0.6322
  425MOL0     C57296   1.741   0.084   4.173 -0.0214  0.2242  0.0382
  425MOL0     C57297   1.745  -0.049   4.166  0.0292 -0.3463 -1.0900
  425MOL0     O57298   1.666  -0.131   4.247  0.1784  0.3179 -0.4574
  425MOL0     C57299   1.580  -0.069   4.340 -0.3599  1.0688 -1.3721
  425MOL0     C57300   1.531  -0.176   4.440 -0.8877 -0.2032  1.1974
  425MOL0     C57301   1.482  -0.136   4.573 -0.3894 -0.6186 -0.6925
  425MOL0     C57302   1.581  -0.059   4.666 -0.3935  1.0802 -0.4068
  425MOL0     C57303   1.718  -0.114   4.662 -0.1386 -0.3140 -0.2209
  425MOL0     C57304   1.829  -0.167   4.676 -0.2443  0.4236  0.0714
  425MOL0     C57305   1.851  -0.108   4.090  0.1284  0.5283 -0.8454
  425MOL0     C57306   1.941  -0.040   4.013 -0.2598 -0.2539  0.9425
  425MOL0     C57307   2.054  -0.117   3.943  0.5582  0.1217  0.7393
  425MOL0     H57308   2.146   0.250   3.623 -0.4961 -0.9494 -0.1835
  425MOL0     H57309   2.349   0.409   3.557 -1.6512  0.9134  0.2692
  425MOL0     H57310   2.696   0.404   3.851  2.0518  0.8132  1.3283
  425MOL0     H57311   2.730   0.343   3.683  0.8042  0.3028  1.8800
  425MOL0     H57312   2.757   0.604   3.815 -1.6282 -1.0920  0.8849
  425MOL0     H57313   2.766   0.592   3.634  1.1075 -2.1262 -2.1693
  425MOL0     H57314   2.949   0.445   3.640 -1.6866 -0.2517  0.1225
  425MOL0     H57315   2.960   0.479   3.823  1.2939  1.9636  0.5643
  425MOL0     H57316   3.027   0.689   3.610  3.8172 -1.5924 -0.9003
  425MOL0     H57317   3.021   0.711   3.780  1.6224  2.7083 -0.6662
  425MOL0     H57318   3.193   0.542   3.801  2.5755  0.4024 -1.0839
  425MOL0     H57319   3.200   0.519   3.638 -0.7133 -0.2468 -0.4565
  425MOL0     H57320   3.273   0.757   3.600 -1.4953  1.9699  0.7309
  425MOL0     H57321   3.264   0.791   3.775  0.9907 -2.5849  2.7016
  425MOL0     H57322   3.439   0.572   3.678  0.4907  0.0982  1.0090
  425MOL0     H57323   3.409   0.637   3.847  1.0415 -0.1694  0.4371
  425MOL0     H57324   3.483   0.853   3.772  0.9103 -1.5385  1.5611
  425MOL0     H57325   3.610   0.735   3.772 -0.9430  0.7893  1.5511
  425MOL0     H57326   3.637   0.639   3.476 -1.0137 -0.6500 -0.9356
  425MOL0     H57327   3.601   0.790   3.192 -2.2685  0.1378  1.5900
  425MOL0     H57328   3.669   0.952   3.216 -1.5534  0.3864  2.2041
  425MOL0     H57329   3.880   0.821   3.325  0.3963 -1.0824  0.3630
  425MOL0     H57330   3.798   0.674   3.267 -0.2255  0.4997 -1.7131
  425MOL0     H57331   3.898   0.908   3.110 -1.0907  0.3845 -2.3234
  425MOL0     H57332   3.811   0.793   3.026 -1.8434 -0.1730  1.7051
  425MOL0     H57333   3.955   0.607   3.102  1.6423 -0.4657  1.4675
  425MOL0     H57334   4.045   0.714   3.212  1.2903  1.6894 -0.1594
  425MOL0     H57335   4.182   0.535   3.128 -1.3080 -0.3833 -2.0588
  425MOL0     H57336   4.368   0.392   3.051 -0.4991  0.4916  0.4703
  425MOL0     H57337   4.707   0.247   2.736 -0.6353  0.5779 -0.4549
  425MOL0     H57338   4.947   0.183   2.681 -4.1207  0.8880 -2.5201
  425MOL0     H57339   5.282   0.330   2.580 -1.6996 -1.9351  1.0196
  425MOL0     H57340   5.185   0.460   2.603  1.9850  1.3429 -0.3804
  425MOL0     H57341   5.278   0.527   2.812 -0.9285  0.0133  0.1231
  425MOL0     H57342   5.393   0.384   2.789 -2.6866 -2.0740 -1.2676
  425MOL0     H57343   5.459   0.488   2.567  0.2704  0.4209  0.5334
  425MOL0     H57344   5.380   0.637   2.613  0.2410 -0.3152 -0.3819
  425MOL0     H57345   5.605   0.528   2.769  0.4157 -0.0017 -1.5963
  425MOL0     H57346   5.503   0.675   2.811 -0.8474  0.2466  0.5591
  425MOL0     H57347   5.566   0.793   2.643  0.3714  0.9195  2.1196
  425MOL0     H57348   5.642   0.652   2.548 -0.1635  0.0841 -0.4862
  425MOL0     H57349   5.737   0.760   2.826 -0.6533  2.2066 -1.4843
  425MOL0     H57350   5.830   0.661   2.729  2.3478  0.8155  3.3569
  425MOL0     H57351   5.902   0.907   2.736 -0.0216 -1.4711  0.2840
  425MOL0     H57352   5.735   0.955   2.710  0.1346 -0.0784  0.3939
  425MOL0     H57353   5.749   0.876   2.474 -0.2179  1.6866 -0.2540
  425MOL0     H57354   5.883   0.990   2.507 -4.8280  2.6550  0.8428
  425MOL0     H57355   5.076   0.541   2.872 -2.1047  2.4479  0.1439
  425MOL0     H57356   4.842   0.610   2.883 -0.0747  0.3327 -1.2511
  425MOL0     H57357   4.394   0.645   2.696  2.3635 -2.8811  0.5913
  425MOL0     H57358   4.210   0.784   2.785  5.0260  0.6057 -1.6521
  425MOL0     H57359   2.543   0.284   3.915  0.3347 -0.9484  0.3551
  425MOL0     H57360   2.340   0.157   3.988  3.8091 -1.5226 -0.0486
  425MOL0     H57361   1.831   0.265   4.098  2.9278  0.8676  0.2126
  425MOL0     H57362   1.667   0.139   4.231 -0.8501 -1.3254  0.4914
  425MOL0     H57363   1.495  -0.012   4.302 -1.1416  0.2476 -0.8729
  425MOL0     H57364   1.649  -0.015   4.405  0.5917 -0.2080 -1.2858
  425MOL0     H57365   1.615  -0.245   4.458  0.3460  0.9653  0.2061
  425MOL0     H57366   1.462  -0.240   4.383 -0.7767  1.2341 -0.6484
  425MOL0     H57367   1.440  -0.223   4.625 -3.6457 -0.3200 -2.5626
  425MOL0     H57368   1.393  -0.074   4.558 -0.8042 -0.3359  2.3197
  425MOL0     H57369   1.578   0.044   4.630 -0.3381  1.5269  0.8056
  425MOL0     H57370   1.548  -0.061   4.770 -0.8634  1.1028 -0.5534
  425MOL0     H57371   1.931  -0.200   4.675 -0.5989 -0.7226  0.5767
  425MOL0     H57372   1.848  -0.217   4.086 -2.9428  0.4426  0.3769
  425MOL0     H57373   2.036  -0.225   3.944  1.3738 -0.0264  0.2389
  425MOL0     H57374   2.047  -0.091   3.837 -4.9935  2.2977  1.3018
  425MOL0     H57375   2.154  -0.103   3.985  0.4859  0.1268  0.9098
  426MOL0     O57376   3.695  11.287   8.975 -0.0034 -0.0597 -0.5012
  426MOL0     C57377   3.732  11.195   9.052 -0.7032  0.7704 -0.1922
  426MOL0     O57378   3.856  11.153   9.066 -0.0821 -0.4912  0.5278
  426MOL0     C57379   3.944  11.185   8.966  0.5336  0.0780  1.1292
  426MOL0     C57380   4.027  11.296   8.982 -0.6138  0.2422 -0.4339
  426MOL0     C57381   4.123  11.319   8.891 -0.8229  0.1754 -0.1305
  426MOL0     C57382   4.139  11.245   8.773  0.3688 -0.1954 -0.4017
  426MOL0     O57383   4.246  11.281   8.697  0.9226 -0.2518  0.3837
  426MOL0     C57384   4.278  11.188   8.591 -0.2035 -0.0493 -0.0408
  426MOL0     C57385   4.342  11.052   8.636  0.5049  0.0098 -0.1110
  426MOL0     C57386   4.477  11.088   8.713  0.2256  0.3377  0.3025
  426MOL0     C57387   4.589  10.991   8.704 -0.3722  0.5816 -0.0271
  426MOL0     C57388   4.716  11.031   8.773 -0.1559 -0.2107 -0.4772
  426MOL0     C57389   4.775  11.157   8.724  0.6351 -0.5538  1.0354
  426MOL0     C57390   4.917  11.181   8.749 -0.2527  0.5402  0.2742
  426MOL0     C57391   5.001  11.134   8.629  0.9129  0.5168  0.9251
  426MOL0     N57392   5.131  11.091   8.655 -0.0161 -0.5120 -0.2681
  426MOL0     C57393   5.243  11.176   8.642 -0.8950  0.8561  0.4187
  426MOL0     C57394   5.347  11.096   8.683 -0.6578 -0.5662 -0.0137
  426MOL0     C57395   5.492  11.146   8.663  0.1654  0.8099  0.3508
  426MOL0     C57396   5.544  11.099   8.529 -0.4563  0.9413  0.0695
  426MOL0     C57397   5.673  11.032   8.538 -0.6232  0.4725 -0.8606
  426MOL0     C57398   5.785  11.124   8.580 -0.5952  0.5282  0.0355
  426MOL0     O57399   5.910  11.051   8.574 -0.1544  0.6949  0.6303
  426MOL0     C57400   5.994  11.070   8.679 -1.0269  0.1824  0.9384
  426MOL0     C57401   6.039  11.202   8.709 -0.2868 -0.2629  0.7160
  426MOL0     C57402   6.130  11.221   8.812  0.3541  0.4003 -0.8871
  426MOL0     C57403   6.182  11.107   8.879 -0.0595 -0.7136 -0.0808
  426MOL0     C57404   6.283  11.135   8.988  0.3518  0.3301  0.0441
  426MOL0     O57405   6.336  11.021   9.041 -0.6423 -0.6831 -0.4435
  426MOL0     C57406   6.432  11.031   9.145 -0.4463  0.4262 -0.2225
  426MOL0     C57407   6.528  10.929   9.133 -0.7441 -0.5704 -0.2242
  426MOL0     C57408   6.630  10.906   9.228 -0.1672 -0.5879 -0.1943
  426MOL0     C57409   6.648  10.988   9.338 -0.2983  0.0400  0.4024
  426MOL0     O57410   6.752  10.956   9.417 -0.5777  0.3817 -0.4613
  426MOL0     C57411   6.804  11.042   9.519  0.3646 -0.2573  0.9381
  426MOL0     C57412   6.958  11.019   9.500 -0.5469 -0.6081  0.1736
  426MOL0     C57413   7.016  11.044   9.355  0.5830  0.8564  0.1345
  426MOL0     C57414   7.171  11.036   9.346 -0.8774 -0.4704 -0.7123
  426MOL0     C57415   7.225  11.060   9.207 -0.3080 -0.5117  0.0404
  426MOL0     C57416   7.376  11.054   9.209  0.5823 -0.2495  0.5476
  426MOL0     C57417   7.447  11.109   9.077  0.3260  0.4376 -0.3197
  426MOL0     C57418   7.405  11.030   8.954 -0.0281  0.7446  0.6029
  426MOL0    Cl57419   7.427  11.137   8.817  0.2420 -0.2432  0.1349
  426MOL0     C57420   6.554  11.097   9.358 -0.7715 -0.5027  0.2720
  426MOL0     C57421   6.443  11.119   9.260 -0.0297  0.7407 -0.6298
  426MOL0     O57422   6.323  11.252   9.014 -0.6918  0.9251  1.0091
  426MOL0     C57423   6.135  10.983   8.853  0.1743  0.0676  0.2228
  426MOL0     C57424   6.043  10.960   8.751 -0.7378  0.5597  1.1597
  426MOL0     N57425   5.296  10.974   8.716 -0.0378  0.0523 -1.0078
  426MOL0     N57426   5.169  10.971   8.699  0.1630 -0.3662 -0.4048
  426MOL0     C57427   4.044  11.146   8.739  0.3852  0.4226 -0.3362
  426MOL0     C57428   3.944  11.107   8.839 -0.4242 -0.8753 -0.5952
  426MOL0     C57429   3.638  11.118   9.138 -0.0890  0.7356  0.5644
  426MOL0     C57430   3.676  11.096   9.272  0.9498 -0.9877  0.0148
  426MOL0     C57431   3.604  11.011   9.354  0.3205 -0.5747  0.3430
  426MOL0     C57432   3.473  10.975   9.315  0.5450 -0.2623  0.6693
  426MOL0     O57433   3.378  10.928   9.400  0.6833  0.1463  0.6567
  426MOL0     C57434   3.400  10.904   9.536  0.6546  0.1681 -0.6932
  426MOL0     C57435   3.274  10.862   9.622  1.1878  0.7942 -0.5567
  426MOL0     C57436   3.182  10.980   9.630  0.9805  0.3912  0.1726
  426MOL0     C57437   3.083  10.965   9.515 -0.2726  0.1470 -0.0323
  426MOL0     C57438   2.961  11.034   9.546 -0.8476  0.7171 -0.0977
  426MOL0     C57439   2.856  11.086   9.561 -0.3749  0.4471  0.0252
  426MOL0     C57440   3.432  11.002   9.188  0.5494  0.5137  0.3260
  426MOL0     C57441   3.517  11.070   9.094  0.1463 -0.0178  0.0147
  426MOL0     C57442   3.465  11.078   8.951 -0.1757  0.5721 -0.1998
  426MOL0     H57443   4.022  11.358   9.071  4.9852 -0.9295  1.0826
  426MOL0     H57444   4.202  11.390   8.912 -0.8616  1.0723 -2.6323
  426MOL0     H57445   4.196  11.158   8.525 -1.1563 -2.1210  1.9576
  426MOL0     H57446   4.352  11.243   8.532 -0.0468  0.1019  0.2970
  426MOL0     H57447   4.368  10.989   8.550  1.0382  0.7896 -0.5407
  426MOL0     H57448   4.279  10.993   8.702 -0.2099  0.7335 -0.1261
  426MOL0     H57449   4.461  11.102   8.821 -0.4772  0.5038  0.1839
  426MOL0     H57450   4.520  11.174   8.662 -2.7233  0.9002 -1.4177
  426MOL0     H57451   4.554  10.894   8.741  1.9345 -0.1050  0.4932
  426MOL0     H57452   4.619  10.963   8.603 -0.9004 -2.8726  0.6565
  426MOL0     H57453   4.698  11.043   8.881  1.7225 -3.0751  0.2711
  426MOL0     H57454   4.793  10.953   8.766 -0.4060 -0.4504 -0.5858
  426MOL0     H57455   4.761  11.165   8.615  2.6091  0.8126  0.8284
  426MOL0     H57456   4.719  11.243   8.763 -0.6081 -1.4068  1.2116
  426MOL0     H57457   4.943  11.118   8.834 -1.5309  0.6807  0.7910
  426MOL0     H57458   4.938  11.287   8.769 -1.7967  1.1229 -0.9535
  426MOL0     H57459   4.947  11.048   8.587  0.7953  1.4424 -0.9174
  426MOL0     H57460   4.994  11.217   8.559  0.2951  3.0618  3.7870
  426MOL0     H57461   5.256  11.278   8.607 -2.0858  0.3750 -1.5749
  426MOL0     H57462   5.494  11.255   8.666  1.8589  0.8031  1.2389
  426MOL0     H57463   5.549  11.108   8.749  0.9244 -2.2300 -1.3278
  426MOL0     H57464   5.482  11.024   8.479  2.1298 -1.2444 -0.1496
  426MOL0     H57465   5.561  11.185   8.463  1.2898  1.8615  1.6221
  426MOL0     H57466   5.702  10.994   8.439  2.6272  1.5450 -0.4690
  426MOL0     H57467   5.677  10.955   8.615 -0.2401  0.7608 -0.5871
  426MOL0     H57468   5.767  11.163   8.681  2.0679  1.9561  0.0553
  426MOL0     H57469   5.795  11.212   8.516 -3.4573  1.9267  1.3234
  426MOL0     H57470   5.994  11.288   8.660  0.9029  0.8491  1.4863
  426MOL0     H57471   6.158  11.322   8.840 -3.3407  1.3602 -0.1375
  426MOL0     H57472   6.510  10.859   9.051 -2.3872  0.5242 -0.8528
  426MOL0     H57473   6.703  10.828   9.213 -0.8173 -1.4866  1.0958
  426MOL0     H57474   6.786  11.148   9.499  2.9585  0.1374  0.2797
  426MOL0     H57475   6.785  11.002   9.619  2.4802 -1.3823  0.9659
  426MOL0     H57476   7.003  11.088   9.572 -2.8333 -0.7882  1.8720
  426MOL0     H57477   6.977  10.916   9.533 -1.6443  0.4946  5.0683
  426MOL0     H57478   6.974  10.972   9.285  1.0355  2.2088 -1.5949
  426MOL0     H57479   6.988  11.149   9.339  0.6760  0.7708 -0.6392
  426MOL0     H57480   7.201  10.934   9.371 -1.1788 -0.4726 -0.3544
  426MOL0     H57481   7.230  11.104   9.408  0.5278  0.2437 -2.7234
  426MOL0     H57482   7.188  11.153   9.162  1.0308  0.2512  0.4424
  426MOL0     H57483   7.187  10.974   9.153 -2.6137  0.0090  0.7122
  426MOL0     H57484   7.421  11.109   9.292  0.9827 -1.7101  1.3256
  426MOL0     H57485   7.394  10.946   9.216  1.3094 -0.3484 -2.0068
  426MOL0     H57486   7.555  11.098   9.094  0.5282  2.5849  0.0863
  426MOL0     H57487   7.434  11.216   9.061  1.3489  0.3253 -2.1417
  426MOL0     H57488   7.469  10.941   8.950 -0.7491  0.2592 -1.5947
  426MOL0     H57489   7.299  11.002   8.958 -0.0659  0.9700  1.5834
  426MOL0     H57490   6.558  11.144   9.456  1.3896 -0.5866  0.2714
  426MOL0     H57491   6.376  11.204   9.272 -2.1495 -0.9559  0.2168
  426MOL0     H57492   6.163  10.899   8.916  0.0368 -1.5933 -1.8119
  426MOL0     H57493   5.990  10.867   8.735 -2.1304  1.5503 -0.2727
  426MOL0     H57494   4.039  11.096   8.643 -3.6193 -2.4740  1.1025
  426MOL0     H57495   3.879  11.022   8.823  0.0008 -0.9146 -2.2576
  426MOL0     H57496   3.763  11.143   9.315 -1.6880  1.4992  3.1778
  426MOL0     H57497   3.637  10.986   9.454  0.1608  1.2710  0.8968
  426MOL0     H57498   3.422  10.998   9.587  1.2613 -0.0478 -0.5434
  426MOL0     H57499   3.479  10.835   9.568 -0.1720 -0.4495  0.0779
  426MOL0     H57500   3.306  10.837   9.724 -1.3946 -1.4725 -0.1853
  426MOL0     H57501   3.221  10.772   9.590 -0.9106  1.0370  1.9285
  426MOL0     H57502   3.237  11.075   9.628  2.5104 -0.3910  1.7619
  426MOL0     H57503   3.123  10.965   9.720  0.4661  1.0829 -0.0459
  426MOL0     H57504   3.133  10.998   9.423  0.7329 -2.5963 -0.5696
  426MOL0     H57505   3.061  10.858   9.504  0.3269 -0.0209  0.3094
  426MOL0     H57506   2.766  11.132   9.596 -0.9583 -1.5356  1.2837
  426MOL0     H57507   3.330  10.971   9.172  0.9301 -0.0312 -1.2392
  426MOL0     H57508   3.401  11.165   8.936 -2.6698 -0.9302  1.1672
  426MOL0     H57509   3.544  11.092   8.876 -1.0225 -0.7377 -1.3709
  426MOL0     H57510   3.418  10.984   8.923 -0.8300  0.0967  2.2768
  427MOL0     O57511   8.358   0.210   2.725 -0.4396 -0.0032 -0.2932
  427MOL0     C57512   8.450   0.189   2.809 -0.3198 -0.3429 -0.2319
  427MOL0     O57513   8.428   0.197   2.947  0.4057 -0.1439  0.3268
  427MOL0     C57514   8.302   0.207   2.996  0.1271  0.1236 -1.2067
  427MOL0     C57515   8.282   0.140   3.110 -0.2673  0.2125  0.1547
  427MOL0     C57516   8.163   0.150   3.186 -0.2118  0.4314  0.5049
  427MOL0     C57517   8.054   0.222   3.133 -0.3687 -0.6374  0.0194
  427MOL0     O57518   7.927   0.236   3.183 -0.3822 -0.7379  0.5788
  427MOL0     C57519   7.924   0.204   3.321  0.5787 -0.1295 -0.1776
  427MOL0     C57520   7.780   0.237   3.378 -0.7999  0.7905  1.1413
  427MOL0     C57521   7.686   0.140   3.303 -0.1355  0.1617  0.0893
  427MOL0     C57522   7.548   0.150   3.374  0.2327  0.1341  0.5191
  427MOL0     C57523   7.441   0.043   3.338  0.2833  0.2921  0.3088
  427MOL0     C57524   7.308   0.082   3.390 -0.0714  0.1841 -0.4926
  427MOL0     C57525   7.181   0.001   3.339  0.0160  0.3177  0.0247
  427MOL0     C57526   7.072   0.020   3.453 -0.6824 -0.6803  0.5464
  427MOL0     N57527   6.964  -0.065   3.429  0.4518 -0.4535 -0.1488
  427MOL0     C57528   6.862  -0.043   3.344 -0.2169 -0.1284 -0.5031
  427MOL0     C57529   6.804  -0.160   3.318  0.2156  0.4090  0.9969
  427MOL0     C57530   6.690  -0.198   3.215 -0.4107 -0.7561  0.0646
  427MOL0     C57531   6.747  -0.241   3.094  0.0373  0.6413  0.9690
  427MOL0     C57532   6.671  -0.354   3.026 -0.1784  0.8855  0.5636
  427MOL0     C57533   6.520  -0.330   3.007  0.1736  0.4356  0.9073
  427MOL0     O57534   6.447  -0.410   3.106  0.0961 -0.1819  0.4615
  427MOL0     C57535   6.423  -0.543   3.085  0.5707 -0.7214 -1.1043
  427MOL0     C57536   6.422  -0.622   3.198 -0.4669 -0.2797 -0.3055
  427MOL0     C57537   6.409  -0.761   3.199  0.1626  0.9436  0.3160
  427MOL0     C57538   6.373  -0.825   3.081  0.3792 -0.7064  0.3007
  427MOL0     C57539   6.334  -0.968   3.065  0.6879 -0.0617  0.1452
  427MOL0     O57540   6.325  -1.052   3.174 -0.1126 -0.4992 -0.1380
  427MOL0     C57541   6.269  -1.173   3.161 -0.4821 -1.4186 -0.6702
  427MOL0     C57542   6.340  -1.276   3.100 -0.6816  0.5358  0.6802
  427MOL0     C57543   6.280  -1.409   3.083 -0.1694 -0.5038 -0.7169
  427MOL0     C57544   6.156  -1.429   3.131 -0.0651 -1.0512 -0.0348
  427MOL0     O57545   6.090  -1.542   3.142  0.1179 -0.3655 -0.0147
  427MOL0     C57546   6.133  -1.670   3.094 -0.6363 -0.3743 -0.4922
  427MOL0     C57547   6.241  -1.741   3.185  0.6069  0.6965 -0.3863
  427MOL0     C57548   6.187  -1.794   3.321  0.1029 -0.9414  0.3228
  427MOL0     C57549   6.129  -1.932   3.319 -0.6562  0.3056  0.3236
  427MOL0     C57550   6.102  -2.003   3.452 -0.0824 -0.1398  0.3732
  427MOL0     C57551   6.235  -2.043   3.530  0.2123  0.6077  0.1582
  427MOL0     C57552   6.204  -2.034   3.680 -0.0220  0.5154 -1.1205
  427MOL0     C57553   6.295  -2.121   3.764 -0.1963 -0.0988 -0.4233
  427MOL0    Cl57554   6.261  -2.125   3.935 -0.1544  0.6148  0.3441
  427MOL0     C57555   6.089  -1.322   3.190  0.1349 -0.5156  0.0886
  427MOL0     C57556   6.144  -1.197   3.201 -0.5729  0.4083  0.0391
  427MOL0     O57557   6.304  -1.005   2.952  0.7502 -0.2910  0.7290
  427MOL0     C57558   6.368  -0.743   2.965 -0.3172  0.8130  0.4288
  427MOL0     C57559   6.392  -0.604   2.969  0.3634  0.0552 -0.7285
  427MOL0     N57560   6.867  -0.256   3.393 -0.4976 -0.5670 -0.2420
  427MOL0     N57561   6.969  -0.200   3.455  0.2501  0.5099 -0.0864
  427MOL0     C57562   8.080   0.298   3.019  0.8007  0.4576  0.8577
  427MOL0     C57563   8.195   0.290   2.956 -0.1384  0.2408 -0.3170
  427MOL0     C57564   8.577   0.154   2.746  0.1873  0.1759  1.7398
  427MOL0     C57565   8.576   0.115   2.606 -0.4828  0.5506  1.0054
  427MOL0     C57566   8.696   0.116   2.531  0.8063  0.0352  0.0007
  427MOL0     C57567   8.816   0.141   2.594  0.1690  0.0679  1.3632
  427MOL0     O57568   8.921   0.145   2.512  0.0892  0.6085  0.1116
  427MOL0     C57569   9.040   0.076   2.554 -0.0593  0.3446 -0.0600
  427MOL0     C57570   9.041  -0.081   2.540  0.5471  0.8552 -0.6383
  427MOL0     C57571   9.163  -0.163   2.595 -0.2171 -0.6065 -0.2434
  427MOL0     C57572   9.142  -0.311   2.559  0.0243 -0.5333 -0.4428
  427MOL0     C57573   9.244  -0.397   2.613  0.5201 -0.1948 -0.1607
  427MOL0     C57574   9.331  -0.477   2.637  0.3808  0.2250  0.6902
  427MOL0     C57575   8.819   0.169   2.728 -0.9331 -0.1555 -0.6300
  427MOL0     C57576   8.705   0.181   2.806 -0.2821  0.6590 -0.7821
  427MOL0     C57577   8.708   0.225   2.954  0.1133 -0.6632  0.7440
  427MOL0     H57578   8.371   0.086   3.142  2.0507  0.4649 -4.7678
  427MOL0     H57579   8.144   0.082   3.269 -0.8416  0.8576  0.7206
  427MOL0     H57580   7.942   0.097   3.329 -0.8412 -0.3829 -0.0357
  427MOL0     H57581   8.006   0.256   3.372  0.7964 -1.9603  1.4694
  427MOL0     H57582   7.761   0.341   3.352 -0.6099  0.1683 -1.8973
  427MOL0     H57583   7.778   0.224   3.487 -1.1373  1.5745  1.2348
  427MOL0     H57584   7.742   0.046   3.305  2.3060  1.5130  1.2166
  427MOL0     H57585   7.667   0.178   3.203  0.4336  0.0900 -0.0513
  427MOL0     H57586   7.556   0.133   3.482 -5.2508  0.3397  1.2154
  427MOL0     H57587   7.504   0.250   3.366 -2.4808 -1.0026  0.3599
  427MOL0     H57588   7.434   0.030   3.229  0.5307  0.3210  0.2902
  427MOL0     H57589   7.472  -0.055   3.376  0.6506 -0.6204 -2.1389
  427MOL0     H57590   7.319   0.072   3.499 -0.4175 -0.2251 -0.4895
  427MOL0     H57591   7.291   0.187   3.367 -3.0106 -0.0850  0.0120
  427MOL0     H57592   7.212  -0.104   3.346 -1.6861 -0.3363 -1.3880
  427MOL0     H57593   7.149   0.033   3.239  1.4996  0.6425 -0.3646
  427MOL0     H57594   7.114  -0.013   3.549  0.4901  1.0577  0.6789
  427MOL0     H57595   7.035   0.122   3.456 -1.5086 -0.8991 -1.3290
  427MOL0     H57596   6.845   0.056   3.302  2.0349  0.8196  0.6687
  427MOL0     H57597   6.651  -0.286   3.267  0.4406 -1.5522 -0.6010
  427MOL0     H57598   6.616  -0.117   3.210 -0.0962 -0.4918 -0.3901
  427MOL0     H57599   6.746  -0.151   3.031  0.3729 -0.4731 -0.7045
  427MOL0     H57600   6.853  -0.267   3.100  0.1422  0.5256 -0.8112
  427MOL0     H57601   6.686  -0.445   3.085  0.3121  0.1151 -0.7183
  427MOL0     H57602   6.709  -0.367   2.924  1.0898  1.9255  0.8835
  427MOL0     H57603   6.493  -0.372   2.910  1.8025 -1.0541  1.0343
  427MOL0     H57604   6.489  -0.225   3.006  0.4530  0.5289 -0.5006
  427MOL0     H57605   6.439  -0.565   3.289 -1.4536  1.6737 -1.2950
  427MOL0     H57606   6.417  -0.827   3.285  1.5166 -0.7980 -1.1089
  427MOL0     H57607   6.443  -1.265   3.067 -0.3352  0.2908  1.6578
  427MOL0     H57608   6.339  -1.488   3.039 -0.4396 -1.9989  1.4834
  427MOL0     H57609   6.047  -1.735   3.076  0.7560 -2.8428  1.1138
  427MOL0     H57610   6.168  -1.659   2.991 -2.4627  2.5246 -0.9074
  427MOL0     H57611   6.286  -1.821   3.124  0.3543  0.3859 -0.1644
  427MOL0     H57612   6.321  -1.668   3.202  2.0647 -0.8713 -0.2708
  427MOL0     H57613   6.260  -1.778   3.402  0.1069  1.7896 -0.1203
  427MOL0     H57614   6.105  -1.731   3.355  1.2009  1.8650 -1.8086
  427MOL0     H57615   6.208  -1.995   3.278  0.7222  1.4995  1.0594
  427MOL0     H57616   6.032  -1.941   3.269 -1.8751 -1.5152  2.7713
  427MOL0     H57617   6.044  -2.094   3.436  0.8662 -0.8904  1.0425
  427MOL0     H57618   6.041  -1.932   3.509  0.0353  1.1557 -1.0586
  427MOL0     H57619   6.262  -2.143   3.496 -0.7141  0.0672  0.9425
  427MOL0     H57620   6.321  -1.978   3.511  0.2323  0.6021  0.2272
  427MOL0     H57621   6.104  -2.071   3.706  1.6530 -3.5421  0.4432
  427MOL0     H57622   6.209  -1.935   3.726  1.9586 -0.8519  1.9210
  427MOL0     H57623   6.311  -2.222   3.725  0.3242 -0.5288  0.8487
  427MOL0     H57624   6.392  -2.072   3.753 -0.8208  1.6093  1.1664
  427MOL0     H57625   5.993  -1.337   3.239  0.0006 -0.8456 -0.2651
  427MOL0     H57626   6.082  -1.116   3.238 -1.5941 -0.2809 -0.1299
  427MOL0     H57627   6.326  -0.780   2.872 -0.2681 -4.5979  2.1967
  427MOL0     H57628   6.388  -0.552   2.874 -2.7729 -0.8510 -1.2203
  427MOL0     H57629   8.005   0.371   2.989 -1.4802 -1.4487  1.5849
  427MOL0     H57630   8.206   0.357   2.871 -0.4697 -0.0545 -0.5992
  427MOL0     H57631   8.489   0.112   2.541 -0.0195  0.7765  0.3607
  427MOL0     H57632   8.694   0.098   2.424 -0.6164  0.0125  0.0071
  427MOL0     H57633   9.071   0.105   2.655 -1.8707 -0.6197  0.8007
  427MOL0     H57634   9.121   0.116   2.492 -0.0349  1.3491  0.5991
  427MOL0     H57635   9.034  -0.094   2.432 -0.3202  2.3122 -0.7878
  427MOL0     H57636   8.950  -0.123   2.583 -0.1744  2.3831 -0.6237
  427MOL0     H57637   9.171  -0.151   2.703  2.6872 -1.1364 -0.3125
  427MOL0     H57638   9.253  -0.112   2.558 -0.3474  0.4741  0.8811
  427MOL0     H57639   9.042  -0.342   2.590 -0.5311 -0.6600 -2.2686
  427MOL0     H57640   9.142  -0.322   2.450 -1.3921 -0.7290 -0.4367
  427MOL0     H57641   9.409  -0.546   2.659 -3.1720 -3.6961  2.3963
  427MOL0     H57642   8.913   0.197   2.776 -1.0736 -0.4925 -0.1594
  427MOL0     H57643   8.639   0.310   2.955  0.9297  0.0458 -0.1015
  427MOL0     H57644   8.676   0.142   3.017  0.9950  0.5095  2.8412
  427MOL0     H57645   8.809   0.249   2.988  1.2714 -2.8551 -0.8756
  428MOL0     O57646   8.797   3.088   4.399 -0.5518 -0.0364 -0.0246
  428MOL0     C57647   8.748   3.067   4.505 -0.1764  0.7191  0.1724
  428MOL0     O57648   8.811   3.006   4.609 -0.4957 -0.0152 -0.2203
  428MOL0     C57649   8.947   2.985   4.589 -0.1014 -0.5449  0.2109
  428MOL0     C57650   9.044   3.080   4.619  0.3609 -0.4197  0.2569
  428MOL0     C57651   9.185   3.052   4.618  0.1237  0.3273 -0.0020
  428MOL0     C57652   9.214   2.912   4.573  0.6190  0.3120  0.1385
  428MOL0     O57653   9.335   2.851   4.573 -0.4922 -0.5051 -0.4577
  428MOL0     C57654   9.454   2.925   4.559 -0.8505 -0.4280 -0.2593
  428MOL0     C57655   9.488   2.886   4.409 -0.1021 -0.1098 -0.0488
  428MOL0     C57656   9.628   2.927   4.370 -0.3371 -0.6240 -0.0117
  428MOL0     C57657   9.737   2.825   4.430 -0.0958  0.1100  0.5487
  428MOL0     C57658   9.877   2.885   4.401  0.0886 -0.1706  0.5456
  428MOL0     C57659   9.987   2.787   4.448 -0.3497 -0.1314 -0.4151
  428MOL0     C57660  10.126   2.858   4.433  0.8296  0.2906  0.7000
  428MOL0     C57661  10.238   2.761   4.444  0.6364 -0.4624  0.4392
  428MOL0     N57662  10.231   2.662   4.331 -0.7076 -0.6698 -0.0036
  428MOL0     C57663  10.316   2.651   4.220  0.1561 -0.5595 -0.2834
  428MOL0     C57664  10.281   2.540   4.160 -0.1086  0.0055  0.3319
  428MOL0     C57665  10.324   2.495   4.022  0.2244  0.0638  0.0498
  428MOL0     C57666  10.329   2.598   3.909 -0.3473 -0.4084 -0.6933
  428MOL0     C57667  10.442   2.694   3.915  0.2517 -0.3115 -0.2653
  428MOL0     C57668  10.434   2.774   3.790 -0.2396  0.1148  0.0625
  428MOL0     O57669  10.490   2.906   3.784  1.0260  0.8034 -1.0141
  428MOL0     C57670  10.623   2.924   3.800 -0.8879  0.6954  0.4377
  428MOL0     C57671  10.670   3.038   3.869  0.7239 -0.9070 -0.0439
  428MOL0     C57672  10.810   3.060   3.883  0.0751  0.3822  0.6741
  428MOL0     C57673  10.905   2.964   3.831  0.1134 -0.7731 -0.6263
  428MOL0     C57674  11.050   2.982   3.847 -0.1031  0.2976 -0.0930
  428MOL0     O57675  11.125   2.873   3.801  0.9857 -1.3019  0.4725
  428MOL0     C57676  11.257   2.860   3.835  0.6178 -1.2622  0.8238
  428MOL0     C57677  11.341   2.810   3.740 -0.1558  0.5033  0.2498
  428MOL0     C57678  11.473   2.793   3.775 -0.5042  1.2175 -0.0778
  428MOL0     C57679  11.533   2.847   3.890 -0.1996 -0.5368  1.1782
  428MOL0     O57680  11.668   2.837   3.921  0.3585  0.3474  0.0485
  428MOL0     C57681  11.736   2.944   3.986  0.7359 -0.6304 -0.4125
  428MOL0     C57682  11.873   2.937   3.927  0.0253  0.0110  0.6230
  428MOL0     C57683  11.949   3.067   3.961  0.1825 -0.6408 -0.0487
  428MOL0     C57684  12.093   3.049   3.916  1.4439 -0.0912 -1.3248
  428MOL0     C57685  12.110   3.071   3.769 -0.2286  0.2709  0.5964
  428MOL0     C57686  12.193   2.966   3.704  0.4606 -0.3105 -0.3297
  428MOL0     C57687  12.216   2.998   3.554  0.2687 -0.7074 -1.3590
  428MOL0     C57688  12.323   2.931   3.487  0.2650 -0.0095 -0.1003
  428MOL0    Cl57689  12.282   2.766   3.433  0.3162 -0.8025 -0.2452
  428MOL0     C57690  11.442   2.901   3.986  0.9296  0.7266  0.0766
  428MOL0     C57691  11.307   2.912   3.954  0.6050 -0.6381 -0.4367
  428MOL0     O57692  11.091   3.093   3.883  0.7732  0.4269  0.1180
  428MOL0     C57693  10.853   2.853   3.770  0.0639  0.1918  0.3217
  428MOL0     C57694  10.718   2.831   3.750 -0.8402 -0.4837 -0.0718
  428MOL0     N57695  10.180   2.486   4.225  0.3029  0.1724 -0.5796
  428MOL0     N57696  10.153   2.546   4.331  0.1781 -0.1769 -0.2265
  428MOL0     C57697   9.114   2.817   4.540  0.2516  0.7356  0.4554
  428MOL0     C57698   8.984   2.861   4.543 -0.3214 -1.5411 -0.1095
  428MOL0     C57699   8.604   3.079   4.535  0.0565  0.4490  0.5351
  428MOL0     C57700   8.537   2.997   4.628 -0.7465 -0.7178 -0.3265
  428MOL0     C57701   8.394   2.998   4.632 -0.9316 -0.4631 -0.9972
  428MOL0     C57702   8.318   3.085   4.555  0.3520  0.0123 -0.4212
  428MOL0     O57703   8.177   3.100   4.577  0.0501  0.8637  0.2938
  428MOL0     C57704   8.113   3.010   4.665 -0.5319  0.1168 -0.2101
  428MOL0     C57705   7.957   3.034   4.655  0.3104 -0.2802 -0.3730
  428MOL0     C57706   7.912   2.960   4.535  0.7086 -0.0551 -0.2818
  428MOL0     C57707   7.761   2.956   4.519 -0.8341 -0.5723 -0.8044
  428MOL0     C57708   7.709   3.085   4.479 -0.5512 -0.2247 -0.5871
  428MOL0     C57709   7.685   3.194   4.432 -0.2777  0.0809  0.5798
  428MOL0     C57710   8.385   3.170   4.468 -0.1395 -0.3623  0.0435
  428MOL0     C57711   8.526   3.164   4.453 -0.8062  0.6767 -0.3723
  428MOL0     C57712   8.582   3.279   4.367 -0.3234  0.0042  0.1785
  428MOL0     H57713   9.007   3.180   4.640  1.5919  0.1613 -0.2256
  428MOL0     H57714   9.255   3.131   4.642  0.7210 -0.1785 -0.0583
  428MOL0     H57715   9.447   3.033   4.568  3.1226 -0.1631  1.7501
  428MOL0     H57716   9.530   2.896   4.632  0.3725 -0.9641 -1.6864
  428MOL0     H57717   9.413   2.933   4.345 -0.0820  0.2784  0.2123
  428MOL0     H57718   9.485   2.778   4.391  2.0431 -0.4989  1.3909
  428MOL0     H57719   9.645   3.026   4.412 -1.4362 -0.4204 -0.0155
  428MOL0     H57720   9.646   2.935   4.263 -1.4820  0.8876 -0.1259
  428MOL0     H57721   9.722   2.828   4.538  0.0350 -2.2505  0.6843
  428MOL0     H57722   9.717   2.724   4.392 -2.8099  0.2672  1.3765
  428MOL0     H57723   9.897   2.906   4.295 -0.9505  1.3328  0.6126
  428MOL0     H57724   9.893   2.973   4.463 -0.3873 -0.0921  0.5633
  428MOL0     H57725   9.970   2.760   4.552  2.9525 -0.9160  0.0177
  428MOL0     H57726   9.986   2.701   4.381  4.5131  0.8359 -2.1061
  428MOL0     H57727  10.141   2.932   4.511 -1.0751  2.4422 -0.8274
  428MOL0     H57728  10.135   2.908   4.336  0.3779 -0.7897  0.0797
  428MOL0     H57729  10.330   2.819   4.433  0.7447 -0.4419  1.3335
  428MOL0     H57730  10.228   2.713   4.542 -1.6583 -0.7022  0.1292
  428MOL0     H57731  10.396   2.723   4.211  1.5141 -0.9999  4.9367
  428MOL0     H57732  10.426   2.460   4.041  0.0283 -1.7038 -1.7092
  428MOL0     H57733  10.269   2.408   3.984  1.1622  0.4617 -2.4279
  428MOL0     H57734  10.339   2.552   3.810 -1.8215 -1.7784 -0.2482
  428MOL0     H57735  10.231   2.645   3.907 -0.3394 -0.1647  2.0130
  428MOL0     H57736  10.540   2.644   3.917  1.1169  1.0665 -2.8699
  428MOL0     H57737  10.433   2.753   4.006  1.9524 -0.8532  0.3003
  428MOL0     H57738  10.326   2.788   3.774 -0.6171  0.2102  2.3206
  428MOL0     H57739  10.467   2.709   3.709 -0.4209 -1.4855  1.2396
  428MOL0     H57740  10.596   3.109   3.905 -0.9020 -1.4261 -2.1865
  428MOL0     H57741  10.846   3.153   3.925 -1.2484  0.4846  1.6526
  428MOL0     H57742  11.291   2.770   3.652  0.0644 -2.9964  1.5509
  428MOL0     H57743  11.541   2.739   3.711 -1.8386 -0.8557  0.1429
  428MOL0     H57744  11.697   3.042   3.959 -0.3343 -0.3700  1.7762
  428MOL0     H57745  11.734   2.938   4.096 -0.7957  4.6137  0.1293
  428MOL0     H57746  11.928   2.847   3.955  2.5649  1.2339 -0.1582
  428MOL0     H57747  11.857   2.932   3.819 -0.7952  1.9178  0.6184
  428MOL0     H57748  11.904   3.151   3.907  1.8203 -0.5319 -1.3382
  428MOL0     H57749  11.933   3.097   4.065 -0.6416  2.6830 -1.0081
  428MOL0     H57750  12.124   2.945   3.932  1.1967 -0.1988 -1.5371
  428MOL0     H57751  12.161   3.109   3.977 -0.5896  1.5550 -0.5996
  428MOL0     H57752  12.152   3.171   3.762  1.1184 -0.2292  1.2796
  428MOL0     H57753  12.017   3.081   3.712  1.2319 -2.7918 -2.6875
  428MOL0     H57754  12.294   2.965   3.746  1.0462  3.0947 -1.2886
  428MOL0     H57755  12.133   2.876   3.717 -1.7121  1.0750 -0.1232
  428MOL0     H57756  12.232   3.107   3.555  0.4925 -0.7365 -0.0878
  428MOL0     H57757  12.120   2.983   3.504 -2.4504  0.9995  2.7692
  428MOL0     H57758  12.353   2.980   3.393  1.2371 -0.0190  0.1960
  428MOL0     H57759  12.414   2.935   3.548  1.5451  2.9924 -1.9490
  428MOL0     H57760  11.469   2.941   4.083  1.7304 -1.0101  0.6089
  428MOL0     H57761  11.246   2.967   4.025  0.7552  1.2007 -1.6758
  428MOL0     H57762  10.911   2.774   3.723 -2.5869 -2.4258  1.1467
  428MOL0     H57763  10.691   2.734   3.710 -0.7092 -1.5472  2.2664
  428MOL0     H57764   9.116   2.718   4.498 -1.4932  1.6215 -1.9260
  428MOL0     H57765   8.893   2.815   4.505 -1.3163 -0.0265  0.3511
  428MOL0     H57766   8.596   2.942   4.701 -1.8138 -0.3808  0.8309
  428MOL0     H57767   8.345   2.939   4.708 -0.9231  1.5579  0.6482
  428MOL0     H57768   8.147   3.014   4.769  1.4503 -0.0044 -0.8209
  428MOL0     H57769   8.134   2.907   4.635 -1.9466 -0.8898  1.9496
  428MOL0     H57770   7.937   3.141   4.652  1.8183  0.2223  3.0339
  428MOL0     H57771   7.894   2.998   4.736  0.7224  4.0238  2.1474
  428MOL0     H57772   7.943   2.856   4.551  0.8279 -0.0221 -0.3041
  428MOL0     H57773   7.949   2.997   4.440  0.4231  1.5047  0.1830
  428MOL0     H57774   7.732   2.882   4.444 -1.6656 -1.6430  0.5268
  428MOL0     H57775   7.714   2.936   4.615 -0.6972  2.8036  0.1062
  428MOL0     H57776   7.657   3.281   4.375 -1.3347 -0.2122  0.6303
  428MOL0     H57777   8.315   3.237   4.418 -0.9422  1.7105  3.6343
  428MOL0     H57778   8.672   3.323   4.412 -1.8559  2.8270  0.7486
  428MOL0     H57779   8.599   3.247   4.264 -2.0778  1.9068 -0.7651
  428MOL0     H57780   8.514   3.365   4.369 -0.8135 -0.3407 -1.0935
  429MOL0     O57781   6.655   6.731   5.479  0.3570 -1.2876  0.2237
  429MOL0     C57782   6.703   6.658   5.395 -0.2027 -0.2612  0.0963
  429MOL0     O57783   6.790   6.702   5.300  0.2128  0.1350 -0.7269
  429MOL0     C57784   6.881   6.808   5.337  0.6674  0.8065 -0.1943
  429MOL0     C57785   6.842   6.932   5.367 -0.4275 -0.5753  0.1413
  429MOL0     C57786   6.936   7.034   5.399 -0.0103 -0.4031 -0.7335
  429MOL0     C57787   7.067   7.011   5.411 -0.9114 -0.1000 -0.8947
  429MOL0     O57788   7.151   7.106   5.469 -0.4513 -0.0737 -0.6602
  429MOL0     C57789   7.289   7.113   5.434  0.3202  0.1438 -0.0399
  429MOL0     C57790   7.380   7.068   5.548  0.2037 -0.7398  0.2957
  429MOL0     C57791   7.515   7.028   5.485 -0.1206  0.0225 -0.3933
  429MOL0     C57792   7.600   6.975   5.597 -0.5908  0.6788 -0.7644
  429MOL0     C57793   7.737   6.918   5.561  0.0790 -0.5234 -0.5399
  429MOL0     C57794   7.828   7.034   5.496 -0.2919 -0.1132 -0.2904
  429MOL0     C57795   7.974   7.022   5.544  0.4670  0.1008 -0.5488
  429MOL0     C57796   8.047   6.903   5.471  0.5181 -0.2735 -0.3864
  429MOL0     N57797   8.195   6.899   5.497  0.6677  0.6868  0.1191
  429MOL0     C57798   8.288   6.995   5.514 -0.2712  0.1127 -0.1305
  429MOL0     C57799   8.404   6.931   5.538 -0.0653 -0.0661  0.1800
  429MOL0     C57800   8.541   6.994   5.562  0.2323 -1.2275  0.2173
  429MOL0     C57801   8.659   6.893   5.549  0.0113 -0.6760 -1.1282
  429MOL0     C57802   8.793   6.973   5.554 -0.3813  0.1435 -0.6964
  429MOL0     C57803   8.920   6.910   5.501 -0.1695 -0.2510 -0.4535
  429MOL0     O57804   9.034   6.994   5.517 -0.3265 -0.0064 -0.0475
  429MOL0     C57805   9.162   6.940   5.489  0.2522 -0.1681 -0.1602
  429MOL0     C57806   9.272   7.018   5.508 -0.5971 -0.4854  0.0023
  429MOL0     C57807   9.403   6.961   5.494 -0.2019 -0.1086  0.6289
  429MOL0     C57808   9.420   6.824   5.444 -1.0438 -0.6863 -0.4984
  429MOL0     C57809   9.563   6.773   5.428  0.1389 -0.5710  0.5390
  429MOL0     O57810   9.660   6.865   5.440  0.1983 -0.1789 -0.8987
  429MOL0     C57811   9.784   6.821   5.443 -0.1937 -0.3516  0.6614
  429MOL0     C57812   9.839   6.730   5.536  0.3992  0.3637 -0.9630
  429MOL0     C57813   9.965   6.671   5.514 -0.1829  0.0293 -0.2482
  429MOL0     C57814  10.042   6.722   5.410 -0.0912 -0.7226 -0.1524
  429MOL0     O57815  10.167   6.665   5.394  0.4244  0.2271  0.0797
  429MOL0     C57816  10.261   6.723   5.301 -0.3334  0.2700  0.0498
  429MOL0     C57817  10.401   6.673   5.334  1.3265  1.4878 -0.2675
  429MOL0     C57818  10.488   6.750   5.244  0.2647 -0.9451  0.4336
  429MOL0     C57819  10.633   6.728   5.261 -0.6895  0.8841  0.0762
  429MOL0     C57820  10.716   6.780   5.148 -0.5533  0.0919 -0.4584
  429MOL0     C57821  10.862   6.811   5.195 -0.2145 -0.3075 -1.4654
  429MOL0     C57822  10.954   6.860   5.089 -0.2703 -0.2943  1.2783
  429MOL0     C57823  10.946   6.999   5.045 -0.8061 -0.2287 -0.3321
  429MOL0    Cl57824  11.043   7.026   4.900  0.1628 -0.0853 -0.1285
  429MOL0     C57825  10.002   6.835   5.336  0.4491 -0.4387 -0.9024
  429MOL0     C57826   9.876   6.886   5.357 -0.3482 -0.4539  0.6588
  429MOL0     O57827   9.574   6.655   5.414 -0.1127  0.1802  0.0621
  429MOL0     C57828   9.305   6.750   5.413  0.6368 -0.2800 -0.2025
  429MOL0     C57829   9.179   6.809   5.438  0.1482  0.7886 -0.2113
  429MOL0     N57830   8.379   6.786   5.530 -0.9100 -0.0620  1.0828
  429MOL0     N57831   8.251   6.773   5.505 -0.0976  0.4954  0.6789
  429MOL0     C57832   7.114   6.880   5.376 -0.2442 -0.5383  0.0703
  429MOL0     C57833   7.020   6.779   5.341 -1.0070  0.0858 -0.0010
  429MOL0     C57834   6.673   6.513   5.401  0.2355  0.4143  0.3594
  429MOL0     C57835   6.767   6.426   5.335 -0.5493 -0.4598 -0.5893
  429MOL0     C57836   6.738   6.292   5.335 -0.7223 -0.4924  1.0229
  429MOL0     C57837   6.628   6.229   5.387  0.2684  0.4371  0.4214
  429MOL0     O57838   6.621   6.091   5.366 -0.6460 -0.0366 -0.0542
  429MOL0     C57839   6.490   6.038   5.389  0.6348 -0.8298 -0.4694
  429MOL0     C57840   6.460   5.901   5.348  0.0396 -0.2061  0.6951
  429MOL0     C57841   6.488   5.878   5.208 -0.4481 -0.2940  0.2018
  429MOL0     C57842   6.451   5.742   5.165  0.5812  0.6753 -1.4993
  429MOL0     C57843   6.538   5.640   5.228 -0.1025 -0.6054 -0.1486
  429MOL0     C57844   6.608   5.561   5.276 -0.0195 -0.2620  0.2482
  429MOL0     C57845   6.540   6.315   5.457  0.0357 -0.0297 -0.0087
  429MOL0     C57846   6.561   6.455   5.472  1.6274 -0.0463 -0.3725
  429MOL0     C57847   6.465   6.541   5.541 -0.4342  0.1032  0.3798
  429MOL0     H57848   6.735   6.945   5.370 -0.4191 -0.5516  0.3703
  429MOL0     H57849   6.908   7.135   5.428 -1.1053 -0.6920 -0.7549
  429MOL0     H57850   7.308   7.061   5.340 -0.9271 -0.5014  0.0440
  429MOL0     H57851   7.324   7.215   5.412  0.0099  0.2686  0.0448
  429MOL0     H57852   7.330   6.987   5.602  0.0823  0.7671  2.5374
  429MOL0     H57853   7.397   7.142   5.626 -2.0158  0.9598 -0.7338
  429MOL0     H57854   7.552   7.118   5.437 -1.7752  0.5867 -0.6965
  429MOL0     H57855   7.503   6.941   5.419 -0.4273 -3.1035  3.4178
  429MOL0     H57856   7.608   7.056   5.670 -1.4315  0.2964 -0.2235
  429MOL0     H57857   7.539   6.892   5.634  0.2036 -0.7775 -2.5395
  429MOL0     H57858   7.789   6.878   5.648  1.0208  0.3872 -0.6692
  429MOL0     H57859   7.709   6.836   5.494 -1.5890 -3.6814  3.5726
  429MOL0     H57860   7.827   7.039   5.386  1.4828 -1.4737 -0.4169
  429MOL0     H57861   7.796   7.130   5.537  1.2908 -0.2489  1.3867
  429MOL0     H57862   7.993   7.017   5.651  2.2633 -0.6847 -0.8651
  429MOL0     H57863   8.025   7.110   5.503  1.8998 -0.5065 -0.1287
  429MOL0     H57864   8.007   6.808   5.508  1.8393 -1.6639 -2.3563
  429MOL0     H57865   8.028   6.905   5.364  0.7006 -1.4525 -0.4621
  429MOL0     H57866   8.278   7.103   5.518 -1.3012 -0.0163  1.5551
  429MOL0     H57867   8.555   7.083   5.501 -0.0095 -0.5939  1.0568
  429MOL0     H57868   8.537   7.034   5.664  1.4808 -0.1533 -0.1466
  429MOL0     H57869   8.650   6.819   5.630  2.0610  1.3579  1.1097
  429MOL0     H57870   8.655   6.832   5.458  2.7440 -2.5102 -0.1437
  429MOL0     H57871   8.796   6.995   5.661 -3.2213  3.7791 -1.1965
  429MOL0     H57872   8.783   7.068   5.503 -0.8105 -0.1879 -1.2371
  429MOL0     H57873   8.913   6.883   5.396 -1.9785  0.3029 -0.5151
  429MOL0     H57874   8.931   6.819   5.560 -1.5962  1.5010  2.8169
  429MOL0     H57875   9.246   7.119   5.538 -1.5544 -0.3053 -1.3735
  429MOL0     H57876   9.495   7.017   5.505 -0.6544  1.4100 -2.3384
  429MOL0     H57877   9.778   6.683   5.613  0.4721  0.1821 -1.0161
  429MOL0     H57878  10.003   6.595   5.581  0.9131  1.2278  0.5256
  429MOL0     H57879  10.250   6.691   5.197  2.0780 -1.1189  0.1460
  429MOL0     H57880  10.262   6.831   5.313 -0.9744  0.3529 -0.6303
  429MOL0     H57881  10.423   6.701   5.437 -1.6408 -1.1108  1.2524
  429MOL0     H57882  10.419   6.566   5.318 -3.2369  0.1733  1.5389
  429MOL0     H57883  10.466   6.730   5.139  0.0691 -2.6024  0.7643
  429MOL0     H57884  10.473   6.856   5.267 -0.9918 -0.8719 -0.6107
  429MOL0     H57885  10.651   6.621   5.275  0.5938  0.5068 -3.4078
  429MOL0     H57886  10.664   6.767   5.358  0.0057 -0.1567  0.2976
  429MOL0     H57887  10.675   6.876   5.116 -2.4342 -1.0436 -1.6655
  429MOL0     H57888  10.697   6.713   5.063 -0.6418  1.4080 -1.5088
  429MOL0     H57889  10.865   6.885   5.275 -1.3754 -1.7019 -0.0387
  429MOL0     H57890  10.910   6.726   5.246  0.2368 -0.5578 -2.3005
  429MOL0     H57891  10.955   6.799   4.998  0.5456  0.4867  0.7475
  429MOL0     H57892  11.048   6.840   5.142  0.8450 -0.4839 -0.6517
  429MOL0     H57893  10.840   7.022   5.035 -1.2373 -2.8587 -3.6778
  429MOL0     H57894  10.981   7.058   5.130  0.1778 -0.0682 -0.8276
  429MOL0     H57895  10.065   6.889   5.266  1.7245 -1.8557 -0.9046
  429MOL0     H57896   9.843   6.970   5.297  0.1259 -0.2658  0.6657
  429MOL0     H57897   9.326   6.646   5.390  1.4745 -0.6272  1.8948
  429MOL0     H57898   9.091   6.751   5.413  0.8674  0.3514 -1.8657
  429MOL0     H57899   7.217   6.853   5.398 -0.4646  0.2316  2.3168
  429MOL0     H57900   7.047   6.675   5.332 -0.7459  0.0985  0.6125
  429MOL0     H57901   6.856   6.471   5.293 -0.5147  0.9122  0.9027
  429MOL0     H57902   6.802   6.227   5.276  2.1936  0.0806  3.3112
  429MOL0     H57903   6.420   6.112   5.349  1.5792 -0.8560 -2.3148
  429MOL0     H57904   6.473   6.042   5.497  1.0016  0.5635 -0.4427
  429MOL0     H57905   6.354   5.892   5.376  0.4033  0.4826  2.4201
  429MOL0     H57906   6.517   5.839   5.418  0.3100  0.0406  0.6934
  429MOL0     H57907   6.594   5.899   5.189 -0.5724 -1.7221 -2.7051
  429MOL0     H57908   6.419   5.947   5.158 -1.6977 -0.9729  0.9275
  429MOL0     H57909   6.351   5.721   5.205  0.7938 -1.1486 -1.8225
  429MOL0     H57910   6.454   5.744   5.056 -0.8512  0.4605 -1.5701
  429MOL0     H57911   6.680   5.491   5.312 -0.7244 -0.0144  2.2410
  429MOL0     H57912   6.450   6.272   5.500  0.3871 -0.7666  0.0167
  429MOL0     H57913   6.517   6.594   5.621  2.3828  0.7058 -1.7163
  429MOL0     H57914   6.425   6.619   5.475  0.4265 -0.5667 -0.9850
  429MOL0     H57915   6.391   6.474   5.587  0.0298  1.6315  3.6578
  430MOL0     O57916   7.751   2.203   4.131 -0.3184 -0.3926  0.4502
  430MOL0     C57917   7.741   2.124   4.041  0.0596  0.8672 -0.2031
  430MOL0     O57918   7.848   2.062   3.995 -0.1820 -0.3742  0.0096
  430MOL0     C57919   7.981   2.091   4.020  0.1937  0.1087  0.1020
  430MOL0     C57920   8.029   2.215   4.055  0.4702  0.8375  1.2098
  430MOL0     C57921   8.166   2.226   4.081 -0.2003 -0.3333 -0.1032
  430MOL0     C57922   8.255   2.114   4.059  0.6347 -0.3353  0.2536
  430MOL0     O57923   8.383   2.136   4.113  1.1431  0.8455  0.0722
  430MOL0     C57924   8.487   2.034   4.117 -0.4621  0.7668  0.0436
  430MOL0     C57925   8.615   2.102   4.181  0.4480 -0.0233  0.9242
  430MOL0     C57926   8.679   2.202   4.079  0.2651  0.3246 -0.8462
  430MOL0     C57927   8.784   2.280   4.147 -0.2066  0.7544 -0.0881
  430MOL0     C57928   8.900   2.293   4.049  0.3310 -0.2674  0.6508
  430MOL0     C57929   9.025   2.349   4.120 -0.1528  0.3489  0.5520
  430MOL0     C57930   9.015   2.494   4.167  0.6746 -0.4625  0.2130
  430MOL0     C57931   9.106   2.521   4.290  0.1211  0.4918 -0.4647
  430MOL0     N57932   9.235   2.453   4.273  0.4130 -0.9321  0.5999
  430MOL0     C57933   9.349   2.516   4.219 -0.2976 -0.4185 -0.2734
  430MOL0     C57934   9.447   2.430   4.262 -0.0750 -0.4392  0.4359
  430MOL0     C57935   9.597   2.453   4.249 -0.3049 -0.5678  0.3906
  430MOL0     C57936   9.639   2.511   4.117  0.3594  0.6482 -0.6893
  430MOL0     C57937   9.784   2.497   4.091 -0.5496 -0.6710  0.6650
  430MOL0     C57938   9.856   2.630   4.046  0.8181 -0.0178 -0.1176
  430MOL0     O57939   9.818   2.655   3.906 -0.5762 -0.1946 -0.6205
  430MOL0     C57940   9.908   2.644   3.810  0.1929 -0.3095 -0.1359
  430MOL0     C57941   9.999   2.546   3.805  0.3736  0.1056 -0.0498
  430MOL0     C57942  10.088   2.535   3.697  0.7827 -0.1155  0.5580
  430MOL0     C57943  10.089   2.635   3.599 -1.1716  0.9083 -1.0266
  430MOL0     C57944  10.178   2.620   3.485  0.6499  0.4143  0.2031
  430MOL0     O57945  10.226   2.491   3.455 -0.4058 -0.1730 -0.0529
  430MOL0     C57946  10.336   2.477   3.379  1.1710 -0.2655 -0.4649
  430MOL0     C57947  10.431   2.579   3.328  0.8975 -0.4246 -0.2230
  430MOL0     C57948  10.547   2.539   3.250 -0.1973 -0.2162 -0.1985
  430MOL0     C57949  10.570   2.403   3.209  0.6521 -0.5488  0.2468
  430MOL0     O57950  10.677   2.348   3.139 -0.1513 -0.2667  0.2833
  430MOL0     C57951  10.784   2.437   3.099 -0.1617  0.2172 -0.4024
  430MOL0     C57952  10.891   2.343   3.040  0.7993 -0.4729  0.8401
  430MOL0     C57953  10.843   2.274   2.916 -0.5439  0.3807  0.0773
  430MOL0     C57954  10.959   2.209   2.846  0.1997  0.3769 -0.0901
  430MOL0     C57955  11.068   2.142   2.930 -0.4938  0.7720 -0.7012
  430MOL0     C57956  11.187   2.078   2.857  0.2930 -0.0514 -0.4285
  430MOL0     C57957  11.294   1.999   2.942 -0.0134 -0.3377  0.1066
  430MOL0     C57958  11.243   1.874   3.017  0.0899 -0.7616 -0.0026
  430MOL0    Cl57959  11.172   1.753   2.895  0.3219 -0.5919 -0.0341
  430MOL0     C57960  10.462   2.313   3.245 -0.2705 -0.5052 -1.0202
  430MOL0     C57961  10.351   2.348   3.329 -0.2362 -0.4136  0.2516
  430MOL0     O57962  10.208   2.726   3.434  0.0912 -0.5310 -0.1605
  430MOL0     C57963   9.993   2.737   3.605  0.8817  0.9467  0.2450
  430MOL0     C57964   9.901   2.745   3.714 -0.3013  1.0010  0.3820
  430MOL0     N57965   9.398   2.330   4.331  1.0043 -0.5177  0.2023
  430MOL0     N57966   9.278   2.345   4.331  0.4157  0.1993 -0.2681
  430MOL0     C57967   8.197   1.989   4.016  0.3594 -0.6856  0.0224
  430MOL0     C57968   8.062   1.986   3.983 -0.0469  0.6097 -0.6936
  430MOL0     C57969   7.608   2.054   4.024 -0.2559  0.1402  0.2886
  430MOL0     C57970   7.619   1.926   3.961 -0.2877  0.4428 -0.0064
  430MOL0     C57971   7.514   1.842   3.958 -0.0970  0.2835  0.2261
  430MOL0     C57972   7.388   1.878   4.011 -1.3776  1.0539 -0.2618
  430MOL0     O57973   7.278   1.793   4.019  0.6199  0.0369 -0.7380
  430MOL0     C57974   7.285   1.655   3.972 -0.3148  0.6523  1.4700
  430MOL0     C57975   7.148   1.597   3.969 -0.6961 -0.2096 -0.8208
  430MOL0     C57976   7.136   1.481   3.871 -0.4580  0.1282 -0.6960
  430MOL0     C57977   6.995   1.424   3.863 -0.2844 -0.5201  0.5331
  430MOL0     C57978   6.945   1.389   3.996 -0.0845 -0.4229 -0.1312
  430MOL0     C57979   6.915   1.370   4.114 -0.0133  0.3865  0.8894
  430MOL0     C57980   7.384   2.001   4.077  0.1393  0.0292 -0.4185
  430MOL0     C57981   7.490   2.092   4.079  0.0141 -0.7184  0.0336
  430MOL0     C57982   7.466   2.228   4.119 -0.1944  0.1810  0.6549
  430MOL0     H57983   7.962   2.298   4.072  0.1894  0.9603 -0.3377
  430MOL0     H57984   8.203   2.304   4.147  0.5897  0.7471 -1.7420
  430MOL0     H57985   8.455   1.949   4.179  0.6232  0.2095 -0.1304
  430MOL0     H57986   8.506   1.977   4.025  0.9368 -0.1508  0.8514
  430MOL0     H57987   8.688   2.028   4.217  2.2074  0.8545 -0.6898
  430MOL0     H57988   8.580   2.164   4.264 -1.8061 -0.7140  0.5678
  430MOL0     H57989   8.604   2.266   4.031  0.7795  0.0887 -1.9876
  430MOL0     H57990   8.726   2.149   3.995 -1.5516 -0.4306 -1.4366
  430MOL0     H57991   8.737   2.373   4.179 -1.3309  0.0302  0.4252
  430MOL0     H57992   8.819   2.228   4.237  0.3407  1.0977 -0.0975
  430MOL0     H57993   8.934   2.200   4.002  1.5725  0.6830 -0.4085
  430MOL0     H57994   8.880   2.359   3.963 -0.2499 -0.3687  0.7036
  430MOL0     H57995   9.044   2.280   4.203 -1.7933 -1.1118 -0.2176
  430MOL0     H57996   9.115   2.341   4.057 -0.0428 -0.3953  0.7936
  430MOL0     H57997   8.910   2.519   4.184  1.1681  0.1118  2.7170
  430MOL0     H57998   9.044   2.555   4.081 -3.4900 -0.5531 -1.4779
  430MOL0     H57999   9.121   2.629   4.299 -0.4678  0.4347  2.4339
  430MOL0     H58000   9.053   2.480   4.377  2.7608  1.3431  1.7168
  430MOL0     H58001   9.353   2.609   4.163  1.8477  1.3703  2.5755
  430MOL0     H58002   9.612   2.534   4.321 -0.9468 -1.6662  1.7900
  430MOL0     H58003   9.654   2.366   4.282  0.9893 -1.8416 -4.3201
  430MOL0     H58004   9.570   2.472   4.041  0.4533  2.8716 -2.0006
  430MOL0     H58005   9.603   2.614   4.120 -2.7848 -0.3766  1.7890
  430MOL0     H58006   9.806   2.424   4.012 -1.5793  1.1100 -1.3960
  430MOL0     H58007   9.828   2.462   4.184  0.1013 -3.2902 -0.5251
  430MOL0     H58008   9.965   2.616   4.052  1.0058  1.3150 -0.1405
  430MOL0     H58009   9.825   2.716   4.106  0.4015  0.1172 -0.5235
  430MOL0     H58010   9.985   2.470   3.881 -0.5064 -0.3614 -0.6595
  430MOL0     H58011  10.152   2.447   3.691  0.5923 -0.2425  0.3717
  430MOL0     H58012  10.442   2.684   3.352  3.6037 -0.2260 -1.9309
  430MOL0     H58013  10.602   2.625   3.212 -0.7741 -0.8687 -2.7115
  430MOL0     H58014  10.751   2.515   3.030 -1.1686  1.2143  1.1298
  430MOL0     H58015  10.824   2.493   3.184 -1.1130 -0.3553  0.4435
  430MOL0     H58016  10.981   2.398   3.010 -0.1154  0.1352 -0.9228
  430MOL0     H58017  10.913   2.262   3.110 -0.3944 -0.8129  0.8376
  430MOL0     H58018  10.778   2.187   2.932  1.7185 -1.7085 -1.4134
  430MOL0     H58019  10.794   2.333   2.838  0.6842 -2.1075 -2.7951
  430MOL0     H58020  11.003   2.284   2.780 -1.6059  1.3821 -0.1875
  430MOL0     H58021  10.930   2.125   2.783 -0.6692  0.5378  0.0918
  430MOL0     H58022  11.026   2.066   2.997 -0.5657  2.9320  1.8502
  430MOL0     H58023  11.118   2.218   2.990  1.9089 -0.5871 -0.8311
  430MOL0     H58024  11.149   2.018   2.775 -1.0879  0.8372 -0.4717
  430MOL0     H58025  11.247   2.153   2.804 -1.1368  0.8363 -0.8526
  430MOL0     H58026  11.330   2.072   3.016 -0.6427 -0.6401  0.7179
  430MOL0     H58027  11.384   1.966   2.889  0.3233 -0.8957  1.0086
  430MOL0     H58028  11.327   1.835   3.074  2.6590  1.0010 -2.3466
  430MOL0     H58029  11.172   1.906   3.095  2.1867  1.6920  1.0609
  430MOL0     H58030  10.458   2.219   3.191 -1.3335 -0.7722 -0.4923
  430MOL0     H58031  10.289   2.266   3.365 -2.6734  0.3100 -1.9499
  430MOL0     H58032   9.990   2.801   3.518 -1.5464  0.0105 -0.4490
  430MOL0     H58033   9.834   2.830   3.710  0.7599  1.8247 -1.0012
  430MOL0     H58034   8.262   1.903   4.008 -2.7746 -3.0920 -4.8837
  430MOL0     H58035   8.033   1.887   3.950 -0.9854 -0.6925  3.4563
  430MOL0     H58036   7.704   1.871   3.922 -2.3801 -0.6462 -3.4803
  430MOL0     H58037   7.525   1.739   3.923 -3.0027  0.1361 -0.5299
  430MOL0     H58038   7.357   1.602   4.036  0.3843  0.9525  0.9507
  430MOL0     H58039   7.322   1.659   3.869 -1.7255 -3.9502  0.5648
  430MOL0     H58040   7.074   1.671   3.937 -2.0842  0.0404  2.5505
  430MOL0     H58041   7.135   1.574   4.075 -0.5987  1.7565 -0.3576
  430MOL0     H58042   7.204   1.403   3.906  0.0106  1.5105  1.6815
  430MOL0     H58043   7.165   1.514   3.770  1.7101 -0.9992 -0.5113
  430MOL0     H58044   6.930   1.490   3.804  0.5857  0.6820  0.8890
  430MOL0     H58045   6.989   1.331   3.806 -2.3849 -1.3112  1.9305
  430MOL0     H58046   6.905   1.337   4.216 -2.6962 -0.2893  0.4928
  430MOL0     H58047   7.298   2.027   4.139  0.6126 -0.1591  0.3323
  430MOL0     H58048   7.364   2.253   4.150  0.9929  2.9596  2.8467
  430MOL0     H58049   7.527   2.252   4.207  0.8224  0.2980 -0.0741
  430MOL0     H58050   7.501   2.295   4.040 -1.5844 -0.1210 -0.2500
  431MOL0     O58051  10.318  11.341   8.801  0.8339 -1.6982  0.2408
  431MOL0     C58052  10.364  11.370   8.695 -0.7178 -0.1036  0.0180
  431MOL0     O58053  10.437  11.482   8.667 -0.6473  0.7202 -0.1873
  431MOL0     C58054  10.450  11.568   8.775 -0.1180  0.5013  0.9570
  431MOL0     C58055  10.504  11.530   8.896 -0.2804 -0.8769 -0.1919
  431MOL0     C58056  10.497  11.617   9.009  0.1365 -0.0279  0.4433
  431MOL0     C58057  10.469  11.750   8.982 -0.3964 -0.0409  0.0055
  431MOL0     O58058  10.501  11.832   9.084  0.3805  0.2029  0.1915
  431MOL0     C58059  10.595  11.941   9.063 -0.2821  1.2458  0.4596
  431MOL0     C58060  10.737  11.885   9.089  0.2283  0.5500  0.1837
  431MOL0     C58061  10.854  11.957   9.016 -0.2229  0.5357 -0.6734
  431MOL0     C58062  10.905  12.087   9.089  0.2518 -0.1140  0.0572
  431MOL0     C58063  10.922  12.205   9.001 -0.1321 -0.4499  0.7401
  431MOL0     C58064  11.054  12.198   8.934 -0.6701 -0.5100  0.2572
  431MOL0     C58065  11.071  12.311   8.835 -0.1160  0.3307  0.0436
  431MOL0     C58066  11.208  12.299   8.747 -0.5114  0.3332 -0.3140
  431MOL0     N58067  11.241  12.413   8.665 -0.3640  0.4498 -0.3037
  431MOL0     C58068  11.340  12.494   8.694  0.3554 -0.4621 -0.1019
  431MOL0     C58069  11.354  12.583   8.598 -0.0446  0.3122  1.0350
  431MOL0     C58070  11.442  12.708   8.575  0.3580  0.7846  0.1252
  431MOL0     C58071  11.592  12.682   8.585 -0.1642  0.6916 -0.1676
  431MOL0     C58072  11.664  12.804   8.545  0.3933 -0.3780  0.0735
  431MOL0     C58073  11.798  12.814   8.614 -0.6513 -0.3464 -0.4401
  431MOL0     O58074  11.885  12.720   8.550 -0.2059 -0.8239 -0.0632
  431MOL0     C58075  12.020  12.740   8.554 -0.0726 -0.2743  0.4821
  431MOL0     C58076  12.089  12.830   8.644 -0.2566  0.3697 -0.1143
  431MOL0     C58077  12.224  12.819   8.653  0.1652  0.3641 -0.0098
  431MOL0     C58078  12.299  12.743   8.558  0.2292 -0.2105 -1.0925
  431MOL0     C58079  12.451  12.743   8.563  0.3305  0.3053 -0.3701
  431MOL0     O58080  12.512  12.835   8.647 -0.1083  0.5629 -0.3891
  431MOL0     C58081  12.637  12.821   8.704  0.0782 -0.4361 -0.3994
  431MOL0     C58082  12.689  12.932   8.775  0.1133  0.2750  0.4547
  431MOL0     C58083  12.812  12.925   8.849 -0.0816 -0.6737  0.0413
  431MOL0     C58084  12.886  12.814   8.846  0.2507  0.1983 -1.1773
  431MOL0     O58085  13.013  12.809   8.897 -0.3382  0.4462 -0.3259
  431MOL0     C58086  13.081  12.928   8.923 -0.4012  0.1062  0.2174
  431MOL0     C58087  13.112  13.013   8.796 -0.0504 -0.4626  0.7198
  431MOL0     C58088  13.234  12.947   8.720 -0.1583 -0.3340 -0.1345
  431MOL0     C58089  13.372  12.991   8.773  0.0094 -0.9600 -0.3884
  431MOL0     C58090  13.486  12.988   8.674 -0.7784  0.5617  0.0359
  431MOL0     C58091  13.620  12.986   8.745 -0.5953 -0.6297  0.4529
  431MOL0     C58092  13.656  13.120   8.830  0.1181  0.4203 -0.3019
  431MOL0     C58093  13.797  13.134   8.883 -0.7807  0.3081  0.4285
  431MOL0    Cl58094  13.824  12.985   8.995  0.2144  0.2535 -0.4781
  431MOL0     C58095  12.834  12.701   8.781 -0.2502 -0.3396  0.0297
  431MOL0     C58096  12.709  12.706   8.718 -0.4823  0.1001 -0.6486
  431MOL0     O58097  12.512  12.668   8.493 -0.1938 -0.6492  0.4231
  431MOL0     C58098  12.237  12.680   8.455  0.1552  0.2528 -0.4882
  431MOL0     C58099  12.100  12.666   8.461  0.1471  0.1646  0.8599
  431MOL0     N58100  11.257  12.559   8.509 -0.3795 -0.2853  0.0734
  431MOL0     N58101  11.177  12.461   8.558 -0.1037  0.2322  0.3410
  431MOL0     C58102  10.421  11.792   8.855  0.1589 -1.1367 -0.5828
  431MOL0     C58103  10.410  11.699   8.750  0.8587 -0.2756 -0.8036
  431MOL0     C58104  10.348  11.267   8.581 -0.2338  0.2989  0.0217
  431MOL0     C58105  10.320  11.317   8.454 -0.0607 -0.0008  0.1789
  431MOL0     C58106  10.298  11.239   8.342 -0.1212  0.0548 -0.1837
  431MOL0     C58107  10.300  11.097   8.357 -0.0025 -0.3140  0.1827
  431MOL0     O58108  10.263  11.020   8.246 -0.0099 -0.6955 -0.3642
  431MOL0     C58109  10.228  10.884   8.264  0.6442 -0.2086  0.1719
  431MOL0     C58110  10.205  10.834   8.121  0.5915  0.3537 -0.2856
  431MOL0     C58111  10.328  10.854   8.028  0.6242 -0.1773  0.2970
  431MOL0     C58112  10.280  10.847   7.879  0.4262  0.6517  0.3125
  431MOL0     C58113  10.264  10.702   7.852 -0.0098 -0.0596 -0.4988
  431MOL0     C58114  10.250  10.580   7.840 -1.1724 -1.3121 -0.2960
  431MOL0     C58115  10.313  11.047   8.482 -0.1747 -0.1337 -0.2741
  431MOL0     C58116  10.352  11.128   8.596  0.0169  0.3545  0.6965
  431MOL0     C58117  10.369  11.053   8.724 -0.0306  0.2243 -0.3808
  431MOL0     H58118  10.565  11.441   8.912  2.8254  1.3165  1.1049
  431MOL0     H58119  10.528  11.593   9.111 -2.3092  4.1089  2.4258
  431MOL0     H58120  10.581  11.984   8.963  0.8536 -1.2774 -0.8760
  431MOL0     H58121  10.590  12.024   9.134  0.1581 -0.5590  2.6927
  431MOL0     H58122  10.739  11.781   9.055 -0.4862  0.1885  1.1903
  431MOL0     H58123  10.763  11.874   9.194 -2.9012  0.4512  1.0429
  431MOL0     H58124  10.818  11.971   8.914 -1.3597 -0.4865 -0.4463
  431MOL0     H58125  10.930  11.878   9.011 -1.4867 -0.6978 -1.1882
  431MOL0     H58126  10.841  12.124   9.169 -2.6048 -0.0196 -2.0900
  431MOL0     H58127  11.001  12.057   9.131  0.7972 -1.2516 -1.8319
  431MOL0     H58128  10.841  12.212   8.929  2.5839  1.0818 -2.4590
  431MOL0     H58129  10.920  12.298   9.060  0.8542  2.0496 -2.8576
  431MOL0     H58130  11.126  12.210   9.015 -0.9791 -1.0228  0.6133
  431MOL0     H58131  11.065  12.104   8.879 -0.9961 -1.2725  1.4624
  431MOL0     H58132  11.075  12.400   8.898 -0.3625 -0.4564  1.1949
  431MOL0     H58133  10.978  12.306   8.777 -0.7911 -2.3887  1.1848
  431MOL0     H58134  11.285  12.282   8.822 -1.4700 -0.2857  0.5641
  431MOL0     H58135  11.207  12.204   8.692  0.0057  0.3999 -0.4448
  431MOL0     H58136  11.409  12.486   8.778  0.4983 -0.1978 -0.1925
  431MOL0     H58137  11.409  12.754   8.481 -0.0848  0.7398  0.2548
  431MOL0     H58138  11.425  12.769   8.665  1.1205  0.3633  0.5586
  431MOL0     H58139  11.624  12.670   8.689  1.1332 -0.4771 -0.6620
  431MOL0     H58140  11.625  12.597   8.524  2.7979  0.2134  1.8769
  431MOL0     H58141  11.605  12.892   8.573  1.8798  1.2759 -1.6535
  431MOL0     H58142  11.663  12.806   8.435 -2.8413 -3.5510 -0.1309
  431MOL0     H58143  11.794  12.790   8.721  0.3203  2.2115  0.2384
  431MOL0     H58144  11.831  12.917   8.603  0.9271 -0.7553  0.2427
  431MOL0     H58145  12.031  12.893   8.711 -1.5070 -1.7657  0.9375
  431MOL0     H58146  12.285  12.883   8.717  2.0757  1.2425 -2.5597
  431MOL0     H58147  12.626  13.019   8.785  0.2626  0.4779 -0.3584
  431MOL0     H58148  12.830  13.016   8.906  1.7261 -0.7902 -0.2873
  431MOL0     H58149  13.020  12.991   8.988  0.4635  0.3017  0.8686
  431MOL0     H58150  13.174  12.905   8.977 -2.0289 -2.3160  2.2381
  431MOL0     H58151  13.029  13.022   8.726  1.0208 -3.3628 -1.1308
  431MOL0     H58152  13.139  13.115   8.824  0.3683  0.2665 -2.0855
  431MOL0     H58153  13.225  12.838   8.713 -2.8045 -0.0785 -3.2274
  431MOL0     H58154  13.234  12.979   8.615  2.5339 -0.5408 -0.2623
  431MOL0     H58155  13.407  12.929   8.855  2.3749  1.7678  0.8453
  431MOL0     H58156  13.373  13.095   8.809 -0.4999 -0.6184 -1.3069
  431MOL0     H58157  13.481  13.081   8.617  1.4660  1.6541  1.4415
  431MOL0     H58158  13.477  12.901   8.608  1.9499 -1.5982  2.2504
  431MOL0     H58159  13.610  12.904   8.816 -3.0131 -1.7812 -1.1127
  431MOL0     H58160  13.696  12.963   8.671 -2.2497 -2.9193 -0.6351
  431MOL0     H58161  13.588  13.128   8.915  2.6102  0.2688  1.8351
  431MOL0     H58162  13.640  13.214   8.776 -0.2701 -0.7315 -2.2903
  431MOL0     H58163  13.864  13.146   8.797  0.0867  0.0310  1.0453
  431MOL0     H58164  13.805  13.227   8.939  2.9965  0.3862  0.0212
  431MOL0     H58165  12.909  12.622   8.776 -0.2802 -0.4185  0.7171
  431MOL0     H58166  12.684  12.611   8.671  0.8674 -0.3775 -0.4488
  431MOL0     H58167  12.283  12.627   8.372  0.0598  2.5740 -2.1302
  431MOL0     H58168  12.054  12.614   8.377  1.4305  1.6861 -0.8587
  431MOL0     H58169  10.416  11.897   8.828  0.0888 -1.2059 -0.8462
  431MOL0     H58170  10.371  11.728   8.654 -2.3394  2.4136  1.1025
  431MOL0     H58171  10.337  11.424   8.446  3.0438 -0.5109 -1.6829
  431MOL0     H58172  10.275  11.290   8.249 -0.8656  1.0364  0.5110
  431MOL0     H58173  10.130  10.879   8.312 -0.0695  1.3647 -1.0285
  431MOL0     H58174  10.305  10.819   8.308  0.6918 -0.4493 -0.2649
  431MOL0     H58175  10.121  10.887   8.075 -0.8909 -1.4812  0.1900
  431MOL0     H58176  10.177  10.729   8.133 -1.4244  1.1540  5.1125
  431MOL0     H58177  10.403  10.778   8.053  2.6014  0.6876 -2.5527
  431MOL0     H58178  10.377  10.951   8.036  1.7058 -0.7238  0.6160
  431MOL0     H58179  10.179  10.888   7.875 -0.2660 -1.0002 -0.2951
  431MOL0     H58180  10.346  10.899   7.809 -0.6617 -0.2270 -1.4417
  431MOL0     H58181  10.221  10.479   7.821  1.1939 -1.7283 -2.1104
  431MOL0     H58182  10.293  10.942   8.495  3.4439 -1.0947 -1.2216
  431MOL0     H58183  10.436  11.109   8.790 -1.6950  2.7323 -0.7042
  431MOL0     H58184  10.272  11.031   8.770 -0.2136 -2.1095 -1.7245
  431MOL0     H58185  10.417  10.956   8.709  1.2983  0.9489 -1.0602
  432MOL0     O58186   8.602   1.156   4.480 -0.2037 -0.9509 -0.6599
  432MOL0     C58187   8.626   1.097   4.590  0.6883 -0.4263 -0.4732
  432MOL0     O58188   8.533   1.033   4.663  0.3491  0.1643  0.0927
  432MOL0     C58189   8.420   1.009   4.597  0.0297  0.8159 -0.4368
  432MOL0     C58190   8.331   1.109   4.549  0.5500 -0.4934 -1.1888
  432MOL0     C58191   8.215   1.077   4.475 -1.0779  0.0275  0.7555
  432MOL0     C58192   8.187   0.944   4.447  0.3150 -0.1701 -0.1560
  432MOL0     O58193   8.098   0.908   4.349  0.5686 -0.1301 -0.0836
  432MOL0     C58194   7.965   0.975   4.361 -0.8109  0.5107 -0.4193
  432MOL0     C58195   7.873   0.882   4.432  0.1468 -0.3961  0.0568
  432MOL0     C58196   7.730   0.931   4.412 -0.3003  0.0190 -0.3853
  432MOL0     C58197   7.711   1.080   4.451 -0.0999 -0.1429 -0.3664
  432MOL0     C58198   7.571   1.123   4.450 -0.0773  0.9988  1.2094
  432MOL0     C58199   7.489   1.075   4.575 -0.1344 -0.4418  0.8534
  432MOL0     C58200   7.345   1.113   4.562 -0.0068 -0.0680 -0.4430
  432MOL0     C58201   7.304   1.258   4.605 -0.5070 -0.3471  0.3862
  432MOL0     N58202   7.313   1.365   4.508  0.5144  0.0306 -0.1655
  432MOL0     C58203   7.390   1.475   4.523 -0.1146  0.2749  0.2927
  432MOL0     C58204   7.360   1.555   4.420  0.6231 -1.3980 -0.1654
  432MOL0     C58205   7.418   1.683   4.375  0.1981 -0.3671  0.5304
  432MOL0     C58206   7.419   1.790   4.483  0.6117  0.0883 -0.8231
  432MOL0     C58207   7.454   1.928   4.428  0.8968 -0.5007 -0.5841
  432MOL0     C58208   7.605   1.943   4.382 -0.1328 -0.4982  0.3725
  432MOL0     O58209   7.690   1.877   4.473 -0.4360 -0.0850  0.1912
  432MOL0     C58210   7.826   1.882   4.469  0.9134 -0.5063  0.9103
  432MOL0     C58211   7.890   1.964   4.383  0.3836 -0.1108  0.1971
  432MOL0     C58212   8.022   1.960   4.367 -0.2300 -0.0782  0.0222
  432MOL0     C58213   8.102   1.863   4.435  0.6484  0.2824 -0.3070
  432MOL0     C58214   8.247   1.874   4.428 -0.3005  1.4272  0.5710
  432MOL0     O58215   8.318   1.760   4.458  0.0508 -0.1871  0.2084
  432MOL0     C58216   8.451   1.751   4.447 -0.3788 -0.4258  1.2020
  432MOL0     C58217   8.491   1.627   4.399 -0.6181  0.5963 -0.6449
  432MOL0     C58218   8.627   1.578   4.405  0.7148  0.0158  0.3381
  432MOL0     C58219   8.729   1.663   4.446 -0.8625 -0.2842  0.2980
  432MOL0     O58220   8.859   1.628   4.456 -0.3043 -0.0201 -0.4687
  432MOL0     C58221   8.892   1.489   4.432 -1.0162 -0.0360  0.0270
  432MOL0     C58222   9.034   1.448   4.453  0.9445  0.4221  0.3483
  432MOL0     C58223   9.079   1.471   4.596 -0.2388 -0.8174 -0.2082
  432MOL0     C58224   9.237   1.447   4.590  0.1842 -0.8364 -0.3860
  432MOL0     C58225   9.281   1.437   4.736  0.2553 -0.0846 -0.5113
  432MOL0     C58226   9.439   1.427   4.750 -0.4721 -0.2545 -0.2876
  432MOL0     C58227   9.499   1.471   4.883 -1.1526 -0.3293 -0.6125
  432MOL0     C58228   9.654   1.462   4.897 -0.4353  0.2137  0.0869
  432MOL0    Cl58229   9.741   1.559   5.027  0.1239  0.0727 -0.2115
  432MOL0     C58230   8.696   1.785   4.499  0.1640  0.3197 -0.3802
  432MOL0     C58231   8.563   1.826   4.500  0.3260  1.2716 -0.6126
  432MOL0     O58232   8.304   1.975   4.387  0.4381  0.4826 -0.1253
  432MOL0     C58233   8.041   1.774   4.521  0.3067 -0.7405 -0.1747
  432MOL0     C58234   7.894   1.786   4.541 -0.2031 -0.0250  0.7921
  432MOL0     N58235   7.261   1.497   4.345 -0.0706 -0.6387  0.3134
  432MOL0     N58236   7.231   1.383   4.398  0.9938  0.0663  0.1858
  432MOL0     C58237   8.269   0.846   4.491 -0.5477 -0.4312  0.2366
  432MOL0     C58238   8.386   0.876   4.563  0.3824  0.8026  0.5668
  432MOL0     C58239   8.767   1.089   4.637 -0.0775  0.3726  0.1560
  432MOL0     C58240   8.785   1.072   4.781  0.1618  0.2472  0.7794
  432MOL0     C58241   8.915   1.059   4.838  0.4259 -0.4657 -0.3574
  432MOL0     C58242   9.021   1.083   4.758 -0.4614 -0.5201  0.8857
  432MOL0     O58243   9.152   1.090   4.805 -0.2376  0.3016 -0.0013
  432MOL0     C58244   9.208   0.959   4.824 -0.0019  0.0437  0.3141
  432MOL0     C58245   9.353   0.956   4.790 -0.2098  0.1836  0.2286
  432MOL0     C58246   9.443   0.981   4.917 -0.6353  0.0172  0.3910
  432MOL0     C58247   9.584   1.049   4.902 -0.3731 -0.6299 -0.0594
  432MOL0     C58248   9.625   1.127   5.017  1.2885  0.2588 -0.8145
  432MOL0     C58249   9.676   1.191   5.114  0.3681 -0.0580  0.3130
  432MOL0     C58250   9.004   1.100   4.617  0.5475  0.7823 -0.3392
  432MOL0     C58251   8.877   1.107   4.556 -0.5894  0.7509 -0.0680
  432MOL0     C58252   8.878   1.117   4.407 -0.1064 -0.0728  0.8975
  432MOL0     H58253   8.353   1.212   4.577  4.6308 -1.3732 -0.4646
  432MOL0     H58254   8.160   1.149   4.415 -3.2367 -0.8973  1.5201
  432MOL0     H58255   7.975   1.067   4.421  1.7427 -0.2599  0.4509
  432MOL0     H58256   7.934   0.994   4.258 -0.9382 -2.0929 -0.9303
  432MOL0     H58257   7.886   0.876   4.541 -0.9529  1.3635  0.3215
  432MOL0     H58258   7.883   0.778   4.399 -0.0345 -0.4768  0.2499
  432MOL0     H58259   7.670   0.871   4.482  0.1364 -0.6883 -0.6119
  432MOL0     H58260   7.689   0.921   4.311 -1.3639 -2.7801  0.2414
  432MOL0     H58261   7.752   1.105   4.549  2.5178 -2.6714 -0.6809
  432MOL0     H58262   7.772   1.140   4.383  2.3520 -0.0750  1.7256
  432MOL0     H58263   7.569   1.233   4.451  0.5197  1.0078  1.7270
  432MOL0     H58264   7.530   1.111   4.349 -0.6837  2.9765  1.1703
  432MOL0     H58265   7.501   0.967   4.566  3.2484 -0.0126 -2.9421
  432MOL0     H58266   7.534   1.126   4.661 -1.8734  1.3824  0.7441
  432MOL0     H58267   7.297   1.039   4.628 -2.8238  1.4430 -0.6406
  432MOL0     H58268   7.304   1.085   4.465 -2.9302 -1.1191  0.9719
  432MOL0     H58269   7.210   1.271   4.659  1.2493 -0.8410  3.8594
  432MOL0     H58270   7.374   1.285   4.685 -2.1732 -1.3133  2.2527
  432MOL0     H58271   7.454   1.498   4.608 -2.0427  2.6084  1.2603
  432MOL0     H58272   7.524   1.671   4.350 -0.4026  1.4388 -3.7926
  432MOL0     H58273   7.370   1.726   4.287  1.3671 -0.6435 -0.2686
  432MOL0     H58274   7.317   1.798   4.521  0.2302  0.2633 -1.8494
  432MOL0     H58275   7.481   1.763   4.569 -0.8224 -0.2752  0.1293
  432MOL0     H58276   7.428   2.000   4.507 -1.7303  0.2536 -2.0119
  432MOL0     H58277   7.394   1.951   4.340  3.7721  0.7233 -2.3877
  432MOL0     H58278   7.629   2.050   4.379  1.7541 -0.9002 -0.3382
  432MOL0     H58279   7.611   1.898   4.282 -0.5912 -0.0940  0.1538
  432MOL0     H58280   7.844   2.024   4.305  2.9482  1.1322 -0.4611
  432MOL0     H58281   8.070   2.043   4.315  2.3069 -0.9681  0.7909
  432MOL0     H58282   8.415   1.559   4.362 -2.2469  1.6436  0.6402
  432MOL0     H58283   8.639   1.478   4.364 -1.1137  0.3796 -1.2510
  432MOL0     H58284   8.835   1.416   4.490  0.4251 -1.9246 -0.8350
  432MOL0     H58285   8.875   1.459   4.328  0.5759 -0.7049 -0.0618
  432MOL0     H58286   9.039   1.342   4.426 -0.4207  0.5549 -0.5063
  432MOL0     H58287   9.097   1.516   4.395  0.4926  0.6570  0.1331
  432MOL0     H58288   9.066   1.574   4.631 -1.1789 -1.0111  0.0451
  432MOL0     H58289   9.024   1.403   4.662 -1.2612  0.2663  0.0943
  432MOL0     H58290   9.278   1.530   4.533  0.0599 -0.8090 -0.4363
  432MOL0     H58291   9.262   1.353   4.539  1.3617 -0.4225 -0.5948
  432MOL0     H58292   9.241   1.348   4.786 -1.2778  0.2179 -1.1586
  432MOL0     H58293   9.241   1.512   4.805  1.7938 -0.6771  1.1190
  432MOL0     H58294   9.462   1.321   4.742 -0.3143 -0.0801 -3.5315
  432MOL0     H58295   9.486   1.475   4.663 -0.2191 -1.5656 -0.8935
  432MOL0     H58296   9.455   1.413   4.964 -2.8402 -0.0925 -1.3134
  432MOL0     H58297   9.472   1.577   4.893 -1.3751 -0.3006 -1.3976
  432MOL0     H58298   9.691   1.360   4.897  0.0332  0.3643 -1.0708
  432MOL0     H58299   9.683   1.487   4.795 -1.8041  2.1306  0.1015
  432MOL0     H58300   8.771   1.851   4.542 -1.1708  1.3081  0.5228
  432MOL0     H58301   8.531   1.923   4.538 -1.2820  1.0060 -1.2293
  432MOL0     H58302   8.095   1.707   4.587 -2.5970 -2.1635  0.9696
  432MOL0     H58303   7.837   1.717   4.603 -0.6109 -2.3370 -1.9476
  432MOL0     H58304   8.249   0.743   4.466  0.9220 -1.1055  1.6783
  432MOL0     H58305   8.453   0.802   4.605  0.2602  0.5372  0.2944
  432MOL0     H58306   8.699   1.066   4.847  0.9796  2.8572  2.2048
  432MOL0     H58307   8.931   1.046   4.944  0.8526  0.5473 -0.2825
  432MOL0     H58308   9.144   0.897   4.761 -3.2646  2.6613  0.7958
  432MOL0     H58309   9.197   0.917   4.925  2.0564  0.4868  0.7677
  432MOL0     H58310   9.383   1.032   4.717  3.9682  0.2299  1.6883
  432MOL0     H58311   9.379   0.854   4.759 -0.9622 -0.6840  2.2883
  432MOL0     H58312   9.467   0.890   4.973 -0.5768  0.6141  1.3500
  432MOL0     H58313   9.386   1.047   4.983  0.7897  1.7199  0.0035
  432MOL0     H58314   9.659   0.974   4.878 -0.3920 -0.6724  0.0147
  432MOL0     H58315   9.574   1.117   4.816  0.6552  0.2229  0.4761
  432MOL0     H58316   9.722   1.248   5.193 -1.1616  0.8798  0.5669
  432MOL0     H58317   9.094   1.123   4.561  0.8983 -0.9167 -0.5066
  432MOL0     H58318   8.813   1.042   4.362  2.4380 -2.2673  0.6061
  432MOL0     H58319   8.848   1.217   4.374 -3.2728 -0.6302  1.8114
  432MOL0     H58320   8.980   1.094   4.372  0.1227  0.6200  1.0952
  433MOL0     O58321   8.335   8.726  11.028  0.5326 -0.2569  0.2371
  433MOL0     C58322   8.310   8.845  11.063 -0.4043 -0.0445  0.4491
  433MOL0     O58323   8.377   8.955  11.024 -0.2944 -0.4467  0.6949
  433MOL0     C58324   8.490   8.925  10.952  0.0776 -0.5679  0.0930
  433MOL0     C58325   8.479   8.886  10.820 -0.1184 -0.3525 -0.2921
  433MOL0     C58326   8.587   8.853  10.737  0.4807 -0.2845  0.5485
  433MOL0     C58327   8.720   8.866  10.783 -0.6639 -0.7802  0.5220
  433MOL0     O58328   8.831   8.844  10.699 -0.2829 -1.0059 -0.1556
  433MOL0     C58329   8.826   8.723  10.630 -0.4284 -0.7150 -0.3975
  433MOL0     C58330   8.844   8.595  10.707 -0.6757  0.5723  0.6770
  433MOL0     C58331   8.947   8.592  10.827  0.2521  0.1021  0.2460
  433MOL0     C58332   8.969   8.461  10.900  0.1574  0.5712  1.1169
  433MOL0     C58333   8.845   8.388  10.952  0.2721 -0.6046 -0.2629
  433MOL0     C58334   8.775   8.475  11.050 -0.9460 -1.0782  0.7765
  433MOL0     C58335   8.683   8.400  11.144  0.7534 -0.2413 -0.1463
  433MOL0     C58336   8.591   8.484  11.240  0.3171  0.4888 -0.4862
  433MOL0     N58337   8.679   8.581  11.316 -0.5887 -0.2225 -0.2310
  433MOL0     C58338   8.662   8.719  11.314 -0.7377  0.5665  0.2847
  433MOL0     C58339   8.773   8.768  11.374  0.3497 -0.0761  0.4089
  433MOL0     C58340   8.821   8.908  11.378 -0.2601  1.3590  0.7966
  433MOL0     C58341   8.946   8.923  11.292  0.0013  0.3007 -0.5673
  433MOL0     C58342   8.991   9.065  11.285 -0.3208  0.4429  0.1389
  433MOL0     C58343   9.122   9.070  11.203  0.1762 -0.2620 -0.0549
  433MOL0     O58344   9.101   9.041  11.057 -0.5366 -0.0761 -0.2119
  433MOL0     C58345   9.214   9.016  10.974 -0.3482 -0.0690  0.1188
  433MOL0     C58346   9.332   9.093  10.992 -0.9595 -0.3637  0.9983
  433MOL0     C58347   9.439   9.079  10.903  0.4372  0.2957  0.4562
  433MOL0     C58348   9.430   8.992  10.793 -0.8128  0.4401  0.3573
  433MOL0     C58349   9.551   8.975  10.706 -0.1088 -0.5726  0.9782
  433MOL0     O58350   9.666   9.027  10.750  0.5434  0.1400 -0.4669
  433MOL0     C58351   9.773   9.006  10.682  0.7181 -0.0533  0.9681
  433MOL0     C58352   9.833   8.878  10.690  0.0690  0.1504  1.0026
  433MOL0     C58353   9.949   8.861  10.604 -0.0751  1.1459 -0.1259
  433MOL0     C58354  10.002   8.963  10.520 -0.1101  0.0511  0.2590
  433MOL0     O58355  10.122   8.958  10.447  0.4664 -0.2402  0.8023
  433MOL0     C58356  10.196   8.836  10.423  0.8374 -0.3811 -1.1913
  433MOL0     C58357  10.119   8.757  10.319  0.2380  0.4742  0.5357
  433MOL0     C58358  10.083   8.826  10.184 -0.3130 -0.7585  0.6665
  433MOL0     C58359  10.009   8.737  10.084  0.1915  0.6541 -0.2834
  433MOL0     C58360   9.990   8.816   9.941 -0.5066  0.3337  0.2749
  433MOL0     C58361   9.947   8.963   9.935  0.1207 -0.5588  0.1285
  433MOL0     C58362   9.917   9.008   9.796 -0.0183  0.0624 -0.0646
  433MOL0     C58363   9.898   9.160   9.783 -0.6277 -0.7316 -0.5439
  433MOL0    Cl58364  10.047   9.253   9.814  0.0613  0.2980  0.0367
  433MOL0     C58365   9.939   9.083  10.517 -0.5124  0.5523  0.6451
  433MOL0     C58366   9.827   9.098  10.594  0.0952 -0.1276 -0.5789
  433MOL0     O58367   9.532   8.927  10.597 -0.4232 -0.5048  0.5211
  433MOL0     C58368   9.314   8.932  10.765  0.2170 -0.1871 -0.0904
  433MOL0     C58369   9.215   8.935  10.859 -0.0670  0.4046 -0.4027
  433MOL0     N58370   8.852   8.662  11.399 -0.8454  0.7746 -0.2895
  433MOL0     N58371   8.799   8.549  11.375  0.2623 -0.0038 -0.2416
  433MOL0     C58372   8.728   8.920  10.915  0.7304  0.2030  0.4266
  433MOL0     C58373   8.621   8.950  10.999 -0.1587 -0.5683  0.4495
  433MOL0     C58374   8.191   8.850  11.150  0.8002 -0.2542 -0.1074
  433MOL0     C58375   8.106   8.964  11.157  0.6238 -1.5804  0.1478
  433MOL0     C58376   8.006   8.973  11.254  0.3407  0.5656 -1.2053
  433MOL0     C58377   7.987   8.876  11.350  0.2603  0.4275  1.1155
  433MOL0     O58378   7.899   8.897  11.448  0.0777  0.1139 -0.2366
  433MOL0     C58379   7.921   8.819  11.557  0.2859  0.3011 -0.0114
  433MOL0     C58380   7.832   8.891  11.659 -0.5577 -0.8407 -0.8525
  433MOL0     C58381   7.767   8.786  11.740 -0.1627 -0.2002  0.1293
  433MOL0     C58382   7.671   8.825  11.852  0.1751 -0.7156 -0.3193
  433MOL0     C58383   7.556   8.903  11.794 -0.2110  1.6960 -0.5484
  433MOL0     C58384   7.462   8.957  11.745 -0.5192  0.2772 -0.4148
  433MOL0     C58385   8.063   8.758  11.344 -1.3645  0.7982  0.2933
  433MOL0     C58386   8.167   8.755  11.254  0.1312  0.2876  0.0646
  433MOL0     C58387   8.252   8.627  11.272 -0.6225  0.0693 -0.5061
  433MOL0     H58388   8.376   8.875  10.787 -0.4053 -2.0494  1.0557
  433MOL0     H58389   8.562   8.828  10.635 -1.8063  1.1316  0.6869
  433MOL0     H58390   8.742   8.719  10.561 -0.9451 -1.6697  0.2604
  433MOL0     H58391   8.909   8.724  10.558 -1.9729 -0.3813 -2.2401
  433MOL0     H58392   8.870   8.522  10.630  1.4220  1.0040  0.9276
  433MOL0     H58393   8.748   8.546  10.730 -0.2426 -1.6588 -1.8023
  433MOL0     H58394   8.919   8.673  10.895  2.2458  0.5611  0.5553
  433MOL0     H58395   9.041   8.625  10.782  0.1032 -0.5300 -0.5590
  433MOL0     H58396   9.015   8.399  10.822 -1.3795  0.0641  0.5652
  433MOL0     H58397   9.033   8.468  10.988  3.7439 -1.5186 -1.0698
  433MOL0     H58398   8.783   8.356  10.868  2.1687 -0.5896 -1.7304
  433MOL0     H58399   8.883   8.302  11.007  0.8324  0.2920  0.7924
  433MOL0     H58400   8.848   8.538  11.102  0.7652 -1.2205 -1.3049
  433MOL0     H58401   8.707   8.541  10.995 -0.9197 -2.1689 -0.6129
  433MOL0     H58402   8.747   8.336  11.204 -0.8806 -3.4087 -1.5061
  433MOL0     H58403   8.622   8.325  11.092 -0.2647 -1.3055  2.4453
  433MOL0     H58404   8.520   8.536  11.175  0.9121  1.0450 -0.6991
  433MOL0     H58405   8.527   8.426  11.309 -1.4096  0.8709 -1.6992
  433MOL0     H58406   8.587   8.779  11.263 -0.4974  0.7913  0.1970
  433MOL0     H58407   8.749   8.968  11.321 -0.6228 -1.8041 -2.4052
  433MOL0     H58408   8.847   8.935  11.481 -0.2256  0.2936  1.0804
  433MOL0     H58409   9.025   8.867  11.342 -1.1761  0.7057  1.9010
  433MOL0     H58410   8.929   8.875  11.195  1.5719 -3.6269  0.8917
  433MOL0     H58411   9.006   9.108  11.385 -0.1038  3.5315 -1.1229
  433MOL0     H58412   8.916   9.131  11.240  1.4100  0.2204 -3.4036
  433MOL0     H58413   9.183   8.993  11.249  0.6250  0.4908  0.6320
  433MOL0     H58414   9.162   9.170  11.222  0.6329 -0.3737 -0.4168
  433MOL0     H58415   9.349   9.138  11.089  2.3727 -4.8701  2.8429
  433MOL0     H58416   9.536   9.126  10.920  0.3994  0.8917 -0.8078
  433MOL0     H58417   9.790   8.814  10.766 -1.5727 -0.3990 -0.3287
  433MOL0     H58418   9.997   8.764  10.602 -2.4968 -0.1634  1.2022
  433MOL0     H58419  10.301   8.852  10.398  1.4311 -0.9874  0.6911
  433MOL0     H58420  10.203   8.775  10.514 -2.8057 -0.0842 -0.5514
  433MOL0     H58421  10.194   8.681  10.300  0.1248 -0.1377  2.3449
  433MOL0     H58422  10.023   8.724  10.358 -0.5873  1.0312 -0.9353
  433MOL0     H58423  10.017   8.909  10.210 -2.1577 -1.6196 -0.9811
  433MOL0     H58424  10.171   8.867  10.133 -0.9069 -2.2475 -1.7308
  433MOL0     H58425   9.916   8.701  10.129  0.8703  0.9546  1.4491
  433MOL0     H58426  10.070   8.648  10.067 -1.1638 -0.0662 -1.5660
  433MOL0     H58427   9.919   8.764   9.876 -0.3563 -0.7504  0.9441
  433MOL0     H58428  10.091   8.810   9.900  0.0883  2.5922  1.2864
  433MOL0     H58429   9.874   8.994  10.011  1.9637  4.1708  0.3090
  433MOL0     H58430  10.042   9.004   9.969  0.1480 -2.5109  2.7446
  433MOL0     H58431   9.825   8.955   9.767  0.9829 -2.7648  1.5902
  433MOL0     H58432   9.997   8.959   9.739  0.5547 -1.4192  1.8824
  433MOL0     H58433   9.867   9.189   9.682 -1.3577  2.2863  0.4491
  433MOL0     H58434   9.823   9.186   9.858  2.5087  0.4805  2.4043
  433MOL0     H58435   9.976   9.164  10.455 -0.5647  0.0067 -0.1046
  433MOL0     H58436   9.787   9.199  10.596 -2.3767 -0.9680  3.2446
  433MOL0     H58437   9.299   8.880  10.671  0.1135  1.6537 -1.1478
  433MOL0     H58438   9.115   8.899  10.838  0.0252  0.2029 -0.5013
  433MOL0     H58439   8.831   8.946  10.934  2.3806 -2.7075 -3.2746
  433MOL0     H58440   8.628   9.003  11.094 -4.0989 -0.4985  0.8846
  433MOL0     H58441   8.121   9.056  11.101  0.2625 -1.1234  0.7887
  433MOL0     H58442   7.950   9.063  11.276  0.6381  0.4617  0.0446
  433MOL0     H58443   8.022   8.830  11.598  1.6222  1.4709 -3.2841
  433MOL0     H58444   7.895   8.713  11.554  0.4216  0.2553  0.3730
  433MOL0     H58445   7.754   8.956  11.620 -2.7659 -2.7204  0.2079
  433MOL0     H58446   7.897   8.955  11.719 -1.3381  1.2978 -2.1870
  433MOL0     H58447   7.850   8.736  11.791 -1.3077  1.1651  3.6983
  433MOL0     H58448   7.715   8.712  11.678  2.8216 -3.2681  0.9621
  433MOL0     H58449   7.626   8.742  11.908  0.6345  0.9254  2.6809
  433MOL0     H58450   7.733   8.872  11.929 -0.2327 -0.0292 -0.4064
  433MOL0     H58451   7.379   9.013  11.708  0.2659  1.4623 -0.4537
  433MOL0     H58452   8.054   8.671  11.408 -1.6447  0.9140  0.4147
  433MOL0     H58453   8.361   8.638  11.262  0.5864 -4.2107  4.1479
  433MOL0     H58454   8.240   8.588  11.374  4.5085 -0.6630  0.0816
  433MOL0     H58455   8.224   8.551  11.199  1.4658  0.2427 -1.5578
  434MOL0     O58456   6.067   4.659   9.790  0.0063 -0.0578  0.4187
  434MOL0     C58457   6.127   4.765   9.805 -0.1125 -0.0269  0.4087
  434MOL0     O58458   6.064   4.885   9.791  0.0132 -0.0845 -0.0781
  434MOL0     C58459   5.927   4.898   9.801 -0.6037  0.5056 -0.1318
  434MOL0     C58460   5.841   4.808   9.861  0.4140 -0.7355  0.9096
  434MOL0     C58461   5.708   4.841   9.875 -0.2084 -0.0520 -0.1100
  434MOL0     C58462   5.653   4.960   9.823  0.4635 -1.1080  0.1289
  434MOL0     O58463   5.516   5.000   9.847  0.6101  0.1572  0.2812
  434MOL0     C58464   5.420   4.894   9.859 -0.5394  0.1941 -0.0168
  434MOL0     C58465   5.276   4.940   9.824  0.3783 -0.1203 -0.1675
  434MOL0     C58466   5.176   4.835   9.870 -0.0276 -0.7775 -0.4403
  434MOL0     C58467   5.042   4.909   9.857 -0.1209  0.1064  0.1032
  434MOL0     C58468   4.933   4.844   9.942  0.0061  0.4457  0.1643
  434MOL0     C58469   4.878   4.728   9.861  0.6328 -0.3059 -0.3162
  434MOL0     C58470   4.763   4.665   9.946 -0.2990 -0.0587 -0.3928
  434MOL0     C58471   4.699   4.555   9.875 -0.0802 -0.0180  0.4156
  434MOL0     N58472   4.613   4.592   9.757 -0.2284  0.1007 -0.6945
  434MOL0     C58473   4.672   4.611   9.636  0.4269  0.6931  0.5254
  434MOL0     C58474   4.567   4.645   9.554 -0.3006  0.5544  0.5536
  434MOL0     C58475   4.582   4.672   9.408  0.2402 -0.4637 -0.6202
  434MOL0     C58476   4.594   4.819   9.385 -0.7472  1.1246  0.5857
  434MOL0     C58477   4.703   4.885   9.473  0.0611 -0.8999  0.3988
  434MOL0     C58478   4.780   5.000   9.403 -0.2962 -0.2803  0.0141
  434MOL0     O58479   4.864   4.971   9.288 -0.3559  0.1774 -0.2610
  434MOL0     C58480   4.987   4.911   9.300  0.1947 -0.1523  0.4861
  434MOL0     C58481   5.060   4.914   9.415  0.3991 -0.1314 -0.9450
  434MOL0     C58482   5.177   4.835   9.431 -0.6521 -0.1564  0.2061
  434MOL0     C58483   5.230   4.773   9.323 -0.2810 -0.1613  0.0806
  434MOL0     C58484   5.366   4.709   9.334  0.2045  0.4308  0.4165
  434MOL0     O58485   5.447   4.753   9.436  0.2816 -0.2250  0.2226
  434MOL0     C58486   5.587   4.730   9.429  0.7718  0.8239  1.2017
  434MOL0     C58487   5.662   4.701   9.542 -0.3369 -0.1482  0.1247
  434MOL0     C58488   5.804   4.694   9.528  0.3891 -0.6017  0.5058
  434MOL0     C58489   5.863   4.706   9.408 -1.1955  0.2881 -0.3075
  434MOL0     O58490   6.000   4.689   9.389 -0.1814 -0.3652 -0.2715
  434MOL0     C58491   6.051   4.567   9.446  0.5105  0.2174 -0.6854
  434MOL0     C58492   6.202   4.569   9.443 -0.6216  0.6395  0.0968
  434MOL0     C58493   6.264   4.432   9.458  0.0068  0.4651 -0.2166
  434MOL0     C58494   6.416   4.440   9.454  0.2256 -0.0993  0.2589
  434MOL0     C58495   6.477   4.306   9.456  0.1294  0.3455  0.2373
  434MOL0     C58496   6.631   4.311   9.456  0.3333  1.3457 -0.0839
  434MOL0     C58497   6.685   4.172   9.477  0.2201  0.3747  0.6226
  434MOL0     C58498   6.790   4.131   9.372 -1.0277 -0.0289  0.1889
  434MOL0    Cl58499   6.891   3.991   9.427  0.1156  0.4084 -0.0772
  434MOL0     C58500   5.788   4.730   9.293 -0.3594  0.8192 -0.6865
  434MOL0     C58501   5.653   4.733   9.301 -0.2024 -0.4314 -0.3181
  434MOL0     O58502   5.399   4.618   9.255 -0.1541 -0.0421  0.1354
  434MOL0     C58503   5.161   4.779   9.196  0.4192  0.1260 -0.3993
  434MOL0     C58504   5.034   4.840   9.185  0.1302  0.3960  0.5993
  434MOL0     N58505   4.447   4.649   9.629  0.1020  0.0768  0.5184
  434MOL0     N58506   4.481   4.624   9.751  0.1846 -0.3824  0.4903
  434MOL0     C58507   5.747   5.050   9.772  1.1185 -0.4403  0.6980
  434MOL0     C58508   5.876   5.020   9.765  0.5586 -1.2793 -0.3060
  434MOL0     C58509   6.273   4.759   9.828  0.5337  0.7234 -0.6094
  434MOL0     C58510   6.336   4.880   9.817  0.4230  0.3120  0.6988
  434MOL0     C58511   6.472   4.904   9.846  0.8537 -0.2019  0.9810
  434MOL0     C58512   6.557   4.794   9.859 -0.2295 -0.3024  0.4122
  434MOL0     O58513   6.690   4.795   9.899  0.4254 -0.0137  0.1755
  434MOL0     C58514   6.716   4.795  10.037  0.2219  0.3101 -0.2674
  434MOL0     C58515   6.777   4.929  10.093 -0.5285  0.2904 -0.6984
  434MOL0     C58516   6.923   4.967  10.030 -0.3861  0.1170  0.1508
  434MOL0     C58517   6.999   5.067  10.120  0.5991  0.5813 -0.3836
  434MOL0     C58518   7.125   5.115  10.060 -0.5547  0.2061  0.5706
  434MOL0     C58519   7.215   5.165   9.992  0.3097  0.1828  1.0373
  434MOL0     C58520   6.497   4.669   9.878 -0.4597 -0.1220  0.6242
  434MOL0     C58521   6.359   4.647   9.859  0.9556  0.1060  0.0776
  434MOL0     C58522   6.315   4.499   9.883  0.4584 -0.5960 -1.0048
  434MOL0     H58523   5.879   4.718   9.907  2.8183 -0.6052 -0.6439
  434MOL0     H58524   5.631   4.775   9.915 -2.9400  1.6399 -2.2726
  434MOL0     H58525   5.454   4.811   9.797 -1.4576 -1.1505  1.2359
  434MOL0     H58526   5.424   4.865   9.964  3.5714 -2.5865 -0.7386
  434MOL0     H58527   5.267   4.960   9.716 -0.7420  1.3861  0.1721
  434MOL0     H58528   5.262   5.036   9.874 -0.1797 -2.0246  3.6733
  434MOL0     H58529   5.189   4.805   9.975  0.6521  2.2064  0.4560
  434MOL0     H58530   5.177   4.744   9.810  0.2616 -0.9519 -0.1817
  434MOL0     H58531   5.046   5.010   9.898 -1.3988  0.5020 -0.6799
  434MOL0     H58532   5.010   4.924   9.754 -0.6598 -0.5759  0.1620
  434MOL0     H58533   4.965   4.806  10.040 -0.7025  1.5318  0.8440
  434MOL0     H58534   4.858   4.922   9.958 -0.4296  0.4775 -1.7579
  434MOL0     H58535   4.841   4.768   9.767  1.5689 -0.9125 -0.9582
  434MOL0     H58536   4.964   4.667   9.831  1.4868  1.8415 -2.4998
  434MOL0     H58537   4.690   4.743   9.968 -0.4632 -0.3168 -0.0207
  434MOL0     H58538   4.816   4.614  10.027 -0.0151 -1.0272 -1.1606
  434MOL0     H58539   4.772   4.476   9.853 -2.3483 -1.6818 -1.6594
  434MOL0     H58540   4.638   4.521   9.959  2.1364 -2.5195  1.1471
  434MOL0     H58541   4.768   4.575   9.601 -0.8840 -0.5840 -2.0686
  434MOL0     H58542   4.670   4.626   9.363 -0.6138 -0.7784 -2.0435
  434MOL0     H58543   4.501   4.633   9.346  0.7963 -0.0245 -1.6485
  434MOL0     H58544   4.630   4.834   9.283  1.6618  7.1648  1.9408
  434MOL0     H58545   4.497   4.864   9.407 -0.3859  0.2674  4.9642
  434MOL0     H58546   4.780   4.819   9.515  1.9873  2.0822  1.8887
  434MOL0     H58547   4.651   4.920   9.562 -0.1232  0.0370 -0.0639
  434MOL0     H58548   4.837   5.063   9.471  0.0175 -1.9786  1.4088
  434MOL0     H58549   4.703   5.064   9.359 -2.0314 -1.0882  1.7053
  434MOL0     H58550   5.027   4.967   9.504 -0.8167 -2.5279  0.1445
  434MOL0     H58551   5.229   4.840   9.526 -1.1233  0.8936  0.4220
  434MOL0     H58552   5.616   4.685   9.639 -0.3906  2.7263  0.6724
  434MOL0     H58553   5.868   4.676   9.614  3.1038 -1.8967 -1.6274
  434MOL0     H58554   6.016   4.561   9.550  0.7109 -2.2150 -0.6964
  434MOL0     H58555   6.011   4.492   9.378 -1.3522  0.0163  0.5388
  434MOL0     H58556   6.236   4.617   9.350  1.9415 -0.3709  0.4309
  434MOL0     H58557   6.234   4.637   9.522  2.2061  0.8830 -1.1567
  434MOL0     H58558   6.244   4.403   9.562  1.1894  0.1952 -0.0608
  434MOL0     H58559   6.216   4.365   9.387 -4.9426  2.2809  0.9642
  434MOL0     H58560   6.444   4.500   9.541  0.2574  0.3714 -0.0759
  434MOL0     H58561   6.454   4.490   9.364  1.6858  0.6975  1.2827
  434MOL0     H58562   6.449   4.256   9.363 -2.4194 -2.1721  2.1889
  434MOL0     H58563   6.426   4.259   9.540 -1.0239 -1.3266 -1.3259
  434MOL0     H58564   6.663   4.342   9.357  2.3515 -2.0424 -0.6391
  434MOL0     H58565   6.677   4.375   9.533  2.5142 -0.7433  0.4915
  434MOL0     H58566   6.604   4.099   9.480 -1.9599  2.6797  1.6868
  434MOL0     H58567   6.743   4.177   9.569 -0.0456 -2.6006  1.0319
  434MOL0     H58568   6.731   4.105   9.283 -2.2649  0.4630  0.8509
  434MOL0     H58569   6.860   4.210   9.345  0.1851 -0.4371  2.0141
  434MOL0     H58570   5.823   4.735   9.190 -0.5811  2.8007 -0.6978
  434MOL0     H58571   5.599   4.752   9.208 -1.5868 -0.6373  0.4193
  434MOL0     H58572   5.205   4.743   9.104  1.5354  0.4395 -0.0038
  434MOL0     H58573   4.970   4.846   9.098 -0.8336 -2.0620  1.0463
  434MOL0     H58574   5.716   5.150   9.744  0.1713 -1.6842 -3.3177
  434MOL0     H58575   5.933   5.102   9.722 -1.0697  1.9344  3.0758
  434MOL0     H58576   6.276   4.968   9.795 -1.2973 -0.9187  0.2367
  434MOL0     H58577   6.516   5.004   9.841 -0.7513  0.5097  0.4441
  434MOL0     H58578   6.794   4.721  10.057  0.6327  0.9591  0.5881
  434MOL0     H58579   6.632   4.765  10.100  0.7738  1.6709  1.2022
  434MOL0     H58580   6.777   4.918  10.201 -2.2984  2.9094 -0.3396
  434MOL0     H58581   6.717   5.020  10.081 -0.9331  0.1129 -0.0538
  434MOL0     H58582   6.909   5.019   9.935  1.6833  2.0043  0.7919
  434MOL0     H58583   6.984   4.878  10.010 -0.2714  0.3470 -0.5328
  434MOL0     H58584   6.927   5.147  10.141 -0.2268 -0.1544 -0.3519
  434MOL0     H58585   7.015   5.029  10.221  0.0638  1.5369  0.0731
  434MOL0     H58586   7.268   5.245   9.945 -1.0000  3.1785  4.1716
  434MOL0     H58587   6.564   4.595   9.922  1.8963  2.2994  1.3792
  434MOL0     H58588   6.243   4.472   9.805 -2.2128  0.6903  0.8971
  434MOL0     H58589   6.399   4.428   9.893  1.2687  0.2597 -1.6113
  434MOL0     H58590   6.249   4.498   9.970  1.5201  4.7041  0.1655
  435MOL0     O58591   1.941   8.543   9.652  0.3203  0.2118 -0.2025
  435MOL0     C58592   1.858   8.634   9.637  0.1136  0.2858 -0.4325
  435MOL0     O58593   1.766   8.635   9.534  0.0403  0.0708 -0.2551
  435MOL0     C58594   1.762   8.531   9.441 -0.6240 -0.5817 -0.1782
  435MOL0     C58595   1.654   8.449   9.437 -0.1126 -0.0996  0.1977
  435MOL0     C58596   1.640   8.342   9.351  0.2021 -0.6424  1.0233
  435MOL0     C58597   1.749   8.298   9.268 -0.0459  0.4860 -0.4194
  435MOL0     O58598   1.736   8.177   9.206  0.1909  0.4119 -0.1569
  435MOL0     C58599   1.831   8.135   9.110  0.5426  0.6488 -0.4039
  435MOL0     C58600   1.777   7.995   9.035  0.1443  0.2298  0.0013
  435MOL0     C58601   1.697   8.042   8.911  0.3804  0.5816  0.5278
  435MOL0     C58602   1.615   7.926   8.852 -0.1397  0.6399  1.3064
  435MOL0     C58603   1.510   7.974   8.753 -0.3019  0.0342 -0.2807
  435MOL0     C58604   1.426   7.853   8.710  0.0464  0.7269 -0.6152
  435MOL0     C58605   1.326   7.894   8.605  0.3804 -0.7535  0.0124
  435MOL0     C58606   1.229   7.776   8.585 -0.1319 -0.5496  0.3718
  435MOL0     N58607   1.294   7.670   8.505 -0.2191 -0.0589 -0.2835
  435MOL0     C58608   1.352   7.558   8.565 -0.7733 -0.5371  0.7385
  435MOL0     C58609   1.435   7.513   8.469  0.2312  0.0994  0.9741
  435MOL0     C58610   1.529   7.404   8.500  0.1368  0.4635  0.0609
  435MOL0     C58611   1.470   7.276   8.443 -0.7963 -0.0128  0.3639
  435MOL0     C58612   1.547   7.153   8.512 -0.0416  0.5685  0.7603
  435MOL0     C58613   1.529   7.017   8.436  0.0165 -0.6128  0.0384
  435MOL0     O58614   1.386   6.980   8.427 -0.3767 -0.2391 -0.1041
  435MOL0     C58615   1.355   6.862   8.365  0.0058  0.7566  0.0845
  435MOL0     C58616   1.439   6.754   8.330  0.2200  0.3521 -0.0974
  435MOL0     C58617   1.388   6.634   8.288  0.1207 -0.0450  1.4916
  435MOL0     C58618   1.254   6.615   8.261  0.1890  0.4476  0.5446
  435MOL0     C58619   1.203   6.486   8.210  0.7070 -0.4136 -0.5522
  435MOL0     O58620   1.071   6.467   8.215  0.7369  0.0423  0.4287
  435MOL0     C58621   1.029   6.338   8.198 -0.0349 -0.0301 -0.8936
  435MOL0     C58622   1.061   6.241   8.298 -0.3524  1.5612  0.6268
  435MOL0     C58623   1.025   6.106   8.282 -0.6430  0.0481 -0.2626
  435MOL0     C58624   0.926   6.071   8.181 -0.2919  0.7806 -0.6920
  435MOL0     O58625   0.870   5.946   8.189 -0.0926 -0.3697 -0.0055
  435MOL0     C58626   0.769   5.926   8.087 -0.2052 -0.2320  0.0984
  435MOL0     C58627   0.714   5.782   8.099 -0.0154 -0.4636 -0.2687
  435MOL0     C58628   0.658   5.738   8.234 -0.6877 -0.0650  0.1359
  435MOL0     C58629   0.697   5.592   8.260  0.6459  0.5551 -0.5298
  435MOL0     C58630   0.638   5.544   8.391 -0.7430  0.5785 -0.3132
  435MOL0     C58631   0.491   5.557   8.412  0.0566  0.6870  0.4895
  435MOL0     C58632   0.403   5.508   8.300  0.7008 -0.2521  0.4018
  435MOL0     C58633   0.403   5.355   8.276 -0.2643 -0.5282 -0.6998
  435MOL0    Cl58634   0.278   5.292   8.389 -0.2877 -0.2873 -0.2399
  435MOL0     C58635   0.879   6.173   8.091  0.0744 -0.8039  0.1784
  435MOL0     C58636   0.936   6.299   8.101 -0.1444 -0.6390  0.3261
  435MOL0     O58637   1.278   6.394   8.184  0.0740  0.0866 -0.1336
  435MOL0     C58638   1.165   6.720   8.307  0.2054  0.5125 -0.2468
  435MOL0     C58639   1.213   6.838   8.354 -0.8409 -0.7547  0.3931
  435MOL0     N58640   1.428   7.584   8.353  0.4237 -0.1250 -0.3497
  435MOL0     N58641   1.331   7.670   8.370 -0.2987 -0.5708 -0.3011
  435MOL0     C58642   1.861   8.388   9.266 -0.2653  0.9492 -1.1700
  435MOL0     C58643   1.858   8.509   9.346 -0.2471 -0.3458 -0.1241
  435MOL0     C58644   1.861   8.758   9.724 -0.1602  0.3756  0.1438
  435MOL0     C58645   1.757   8.848   9.704 -0.2126 -0.9264 -0.1072
  435MOL0     C58646   1.736   8.958   9.787  0.1978 -0.8102 -0.7267
  435MOL0     C58647   1.828   8.990   9.885  0.6160 -0.2896  0.3427
  435MOL0     O58648   1.813   9.109   9.944 -0.3835 -0.4009  0.0475
  435MOL0     C58649   1.824   9.118  10.085  0.0451 -0.1626 -0.0466
  435MOL0     C58650   1.682   9.123  10.147  0.4653 -0.0861  0.5441
  435MOL0     C58651   1.688   9.103  10.295 -0.2077  0.6434  0.0303
  435MOL0     C58652   1.569   9.161  10.363  0.3617 -0.0474 -0.3997
  435MOL0     C58653   1.448   9.116  10.303  0.7024  0.0851 -0.7334
  435MOL0     C58654   1.362   9.078  10.230 -0.6100 -0.0908 -1.1759
  435MOL0     C58655   1.924   8.896   9.914 -0.4698 -0.5968  0.6524
  435MOL0     C58656   1.951   8.782   9.836 -0.4690  0.2588  0.8192
  435MOL0     C58657   2.071   8.706   9.882  0.4615 -0.7633 -0.3156
  435MOL0     H58658   1.574   8.479   9.505  1.0637 -0.2466  1.6906
  435MOL0     H58659   1.551   8.280   9.345  0.7575 -1.3489 -0.3782
  435MOL0     H58660   1.835   8.218   9.039 -1.1888  3.6101  2.6208
  435MOL0     H58661   1.930   8.123   9.156  0.0415  0.1602  0.5915
  435MOL0     H58662   1.726   7.937   9.112  1.9858 -0.0790  1.0616
  435MOL0     H58663   1.865   7.943   8.996 -1.3589 -0.3589 -2.8918
  435MOL0     H58664   1.765   8.084   8.836 -0.9446  0.6211 -0.6840
  435MOL0     H58665   1.623   8.114   8.946 -2.2235 -2.0619  0.8910
  435MOL0     H58666   1.679   7.845   8.817 -0.0979  0.3747  1.9889
  435MOL0     H58667   1.561   7.885   8.938  0.0895  1.1577  1.7020
  435MOL0     H58668   1.453   8.060   8.788  1.4565  1.3460 -0.5109
  435MOL0     H58669   1.571   8.012   8.671  2.6864 -3.0273  0.2938
  435MOL0     H58670   1.485   7.771   8.667 -1.2766 -0.4776 -0.2149
  435MOL0     H58671   1.382   7.818   8.804  1.1104 -0.2421 -0.4578
  435MOL0     H58672   1.368   7.930   8.510 -1.7057 -1.4617 -1.2329
  435MOL0     H58673   1.272   7.982   8.641 -1.4886 -0.5205 -3.0572
  435MOL0     H58674   1.195   7.733   8.680  2.0266 -1.5417  0.7479
  435MOL0     H58675   1.138   7.808   8.534 -1.1727 -1.0354  1.8481
  435MOL0     H58676   1.346   7.528   8.669  4.5446 -2.5960  0.7421
  435MOL0     H58677   1.631   7.424   8.465  0.6653 -0.3996  1.0518
  435MOL0     H58678   1.534   7.394   8.609 -0.1089 -2.2559 -0.1167
  435MOL0     H58679   1.367   7.271   8.478 -0.6006  1.9697  1.3173
  435MOL0     H58680   1.478   7.270   8.334  1.4252 -0.5545  0.5032
  435MOL0     H58681   1.517   7.142   8.616 -0.5674 -3.1432  0.3548
  435MOL0     H58682   1.654   7.173   8.511  0.5932 -2.3390 -0.2689
  435MOL0     H58683   1.592   6.941   8.483 -0.4923 -1.0683  0.0035
  435MOL0     H58684   1.569   7.034   8.336  1.6533 -0.5858  0.6673
  435MOL0     H58685   1.546   6.762   8.349  0.4512  3.5502 -2.0136
  435MOL0     H58686   1.462   6.556   8.273 -0.8914 -0.7361 -0.0600
  435MOL0     H58687   1.118   6.274   8.384  0.9716 -3.4361  2.0087
  435MOL0     H58688   1.050   6.032   8.357 -1.8764 -0.9709 -0.8188
  435MOL0     H58689   0.683   5.992   8.101  0.2779  1.1478 -2.8128
  435MOL0     H58690   0.814   5.925   7.987  3.7665 -1.5587  1.6791
  435MOL0     H58691   0.644   5.755   8.020 -1.1490  0.7085  0.3023
  435MOL0     H58692   0.804   5.724   8.079  0.3393 -0.8573  2.1339
  435MOL0     H58693   0.707   5.797   8.312 -0.2052 -0.1641 -0.0905
  435MOL0     H58694   0.551   5.759   8.233 -0.7584  0.2308  3.2328
  435MOL0     H58695   0.805   5.582   8.273  0.3339 -2.1231  0.8541
  435MOL0     H58696   0.672   5.520   8.181  0.3804  0.1290 -0.0607
  435MOL0     H58697   0.676   5.608   8.472  0.3286 -0.1954 -0.1897
  435MOL0     H58698   0.653   5.437   8.406 -0.8417  0.5485 -0.4304
  435MOL0     H58699   0.463   5.494   8.497 -1.4827 -0.9920 -1.1484
  435MOL0     H58700   0.462   5.657   8.445  1.0464  2.0676 -2.5296
  435MOL0     H58701   0.435   5.558   8.208  3.5789 -1.7549  0.4342
  435MOL0     H58702   0.300   5.538   8.318 -0.0540 -1.9415 -0.8032
  435MOL0     H58703   0.366   5.323   8.178 -1.8302  0.8154 -0.5815
  435MOL0     H58704   0.503   5.311   8.290 -0.5346 -0.6331  1.0670
  435MOL0     H58705   0.801   6.160   8.017 -0.9757 -0.0175  1.1141
  435MOL0     H58706   0.902   6.368   8.024  0.6869 -0.0926  0.4382
  435MOL0     H58707   1.057   6.711   8.301  0.1118  1.9786 -1.8716
  435MOL0     H58708   1.143   6.918   8.378  2.8602  2.6092  1.0301
  435MOL0     H58709   1.956   8.368   9.218 -0.6309 -1.1319 -1.1064
  435MOL0     H58710   1.939   8.578   9.326  0.8255 -1.2192  1.0740
  435MOL0     H58711   1.684   8.840   9.623 -1.7648 -2.7006  1.3721
  435MOL0     H58712   1.656   9.032   9.783  0.7448 -0.0998  0.6846
  435MOL0     H58713   1.888   9.200  10.120 -1.3398  1.2393 -0.7199
  435MOL0     H58714   1.875   9.031  10.127 -2.7888 -2.4047 -0.9352
  435MOL0     H58715   1.615   9.055  10.094  2.8836 -1.7623 -0.5818
  435MOL0     H58716   1.654   9.228  10.135 -1.7356 -0.6980 -0.0530
  435MOL0     H58717   1.772   9.163  10.332  0.8469  0.0471 -1.3159
  435MOL0     H58718   1.708   8.997  10.312 -0.2437  0.7911  1.0895
  435MOL0     H58719   1.569   9.127  10.467 -0.7025  0.6007 -0.1682
  435MOL0     H58720   1.574   9.271  10.360  0.9690 -0.0987 -2.0140
  435MOL0     H58721   1.278   9.057  10.168 -1.4859 -1.0295  0.2815
  435MOL0     H58722   1.996   8.926   9.989  0.2485 -1.0881  0.1769
  435MOL0     H58723   2.028   8.619   9.932 -2.0628  1.2700  1.2955
  435MOL0     H58724   2.131   8.682   9.793 -1.7510 -1.3721 -1.7139
  435MOL0     H58725   2.137   8.755   9.954 -1.3926 -3.2395  3.3926
  436MOL0     O58726   2.694   9.140   5.346 -0.4510 -0.7378  0.1565
  436MOL0     C58727   2.689   9.232   5.435 -0.9178  0.4644  0.4357
  436MOL0     O58728   2.786   9.254   5.537 -0.2502 -0.3534 -0.3184
  436MOL0     C58729   2.887   9.158   5.552  0.2280  0.1612  0.1438
  436MOL0     C58730   3.021   9.197   5.560  1.0946 -0.1576  0.8880
  436MOL0     C58731   3.124   9.111   5.578 -1.5641 -0.2049 -0.4684
  436MOL0     C58732   3.102   8.967   5.598  0.2331 -0.0722 -0.7067
  436MOL0     O58733   3.193   8.878   5.638  0.1947  0.1758 -0.1824
  436MOL0     C58734   3.302   8.903   5.727 -0.6568  1.5431 -0.5481
  436MOL0     C58735   3.377   8.766   5.759 -0.5687 -0.2667  0.5035
  436MOL0     C58736   3.501   8.791   5.838  0.1407 -0.8807 -0.3150
  436MOL0     C58737   3.609   8.864   5.755 -0.8118  0.4679  0.7339
  436MOL0     C58738   3.751   8.859   5.831  0.2659  0.2761 -0.0645
  436MOL0     C58739   3.749   8.853   5.982  0.3400  0.1404 -0.0474
  436MOL0     C58740   3.885   8.863   6.041 -0.0677  0.0181 -0.2876
  436MOL0     C58741   3.881   8.847   6.202  0.0802  0.5834  0.2662
  436MOL0     N58742   3.859   8.973   6.271  0.2748 -0.8092 -0.3623
  436MOL0     C58743   3.748   9.025   6.318  0.4581 -1.3882  0.3961
  436MOL0     C58744   3.784   9.128   6.402 -0.4115  0.0981 -0.7609
  436MOL0     C58745   3.699   9.216   6.496 -0.3999 -0.7978  0.2358
  436MOL0     C58746   3.724   9.376   6.489 -0.3017 -0.2727 -1.3389
  436MOL0     C58747   3.781   9.423   6.627  0.3976  0.2213  0.3286
  436MOL0     C58748   3.927   9.382   6.644 -0.9359  0.6475 -0.1292
  436MOL0     O58749   4.003   9.491   6.594 -0.0125  0.5206 -0.8113
  436MOL0     C58750   4.142   9.481   6.562 -0.6998  1.2558 -0.4372
  436MOL0     C58751   4.240   9.576   6.598  0.5490 -0.0125 -0.0772
  436MOL0     C58752   4.370   9.590   6.548 -0.4269 -0.4417 -0.1603
  436MOL0     C58753   4.417   9.473   6.481  0.5154 -0.3538 -0.5167
  436MOL0     C58754   4.553   9.480   6.432 -0.1369 -0.2754 -0.6275
  436MOL0     O58755   4.620   9.364   6.422 -0.3159 -0.2379 -0.2208
  436MOL0     C58756   4.734   9.365   6.346  0.6013  0.1505 -0.0336
  436MOL0     C58757   4.833   9.462   6.361  0.0597  0.5637  0.2946
  436MOL0     C58758   4.950   9.452   6.288  0.5635 -0.0913  0.0477
  436MOL0     C58759   4.980   9.339   6.214  0.1327  1.0820  0.1611
  436MOL0     O58760   5.099   9.308   6.144  0.1507  0.2138  1.3413
  436MOL0     C58761   5.201   9.412   6.142  0.5089 -0.3269 -0.6841
  436MOL0     C58762   5.324   9.367   6.085 -0.5368 -0.3205  0.5902
  436MOL0     C58763   5.338   9.420   5.939  0.7212 -0.0656  0.5147
  436MOL0     C58764   5.473   9.380   5.873  0.3696  0.0840 -0.4300
  436MOL0     C58765   5.476   9.227   5.855  0.0881  0.1645 -0.1001
  436MOL0     C58766   5.607   9.177   5.798 -1.7362  0.0889 -0.0140
  436MOL0     C58767   5.605   9.018   5.803  0.4323 -0.2708 -0.8625
  436MOL0     C58768   5.673   8.949   5.688 -0.1353  0.6333 -0.0385
  436MOL0    Cl58769   5.834   9.001   5.667 -0.2890 -0.0296 -0.0611
  436MOL0     C58770   4.879   9.244   6.195  0.1410 -0.0795 -0.0608
  436MOL0     C58771   4.761   9.252   6.259  0.7037 -0.2084 -0.1905
  436MOL0     O58772   4.599   9.586   6.414  0.0765  0.3420 -0.2910
  436MOL0     C58773   4.333   9.366   6.457  1.2303  0.4708 -0.5093
  436MOL0     C58774   4.193   9.372   6.501  0.5689 -0.2084  0.9566
  436MOL0     N58775   3.920   9.137   6.398 -0.2929 -0.2421 -0.1094
  436MOL0     N58776   3.965   9.050   6.317 -0.4953  0.3946  0.6277
  436MOL0     C58777   2.966   8.923   5.573  0.8174 -0.5813  0.8221
  436MOL0     C58778   2.860   9.022   5.557 -0.0264  0.5805 -0.1095
  436MOL0     C58779   2.572   9.324   5.432 -0.0078  0.3145 -0.3297
  436MOL0     C58780   2.563   9.418   5.535  0.6983  0.1371 -0.2874
  436MOL0     C58781   2.447   9.492   5.546  0.3588  0.3352  0.0121
  436MOL0     C58782   2.336   9.469   5.460  0.0306 -0.1419 -0.0692
  436MOL0     O58783   2.225   9.549   5.493 -0.0792 -0.5452 -0.2502
  436MOL0     C58784   2.157   9.620   5.389 -0.2952 -0.9486  0.3072
  436MOL0     C58785   2.151   9.766   5.432  0.0303 -0.1124  0.3229
  436MOL0     C58786   2.285   9.824   5.398 -0.8173  0.8279  0.1164
  436MOL0     C58787   2.306   9.966   5.452 -0.0606  0.6523 -0.2796
  436MOL0     C58788   2.222  10.067   5.380 -0.3268  0.3472 -0.6879
  436MOL0     C58789   2.138  10.130   5.319 -0.3280 -0.6691  0.3531
  436MOL0     C58790   2.353   9.398   5.345  0.8725  0.2371  1.4807
  436MOL0     C58791   2.470   9.318   5.328 -1.0175 -0.7291  0.0083
  436MOL0     C58792   2.485   9.229   5.196  0.1752  0.4923  0.5186
  436MOL0     H58793   3.040   9.303   5.542 -0.7671 -0.3774 -3.4662
  436MOL0     H58794   3.224   9.148   5.598 -1.2180 -2.1747  2.0069
  436MOL0     H58795   3.372   8.972   5.679  0.9373  2.5412  2.9075
  436MOL0     H58796   3.268   8.939   5.824 -0.4111 -0.7277  0.4547
  436MOL0     H58797   3.400   8.726   5.660  0.3219  2.4436 -0.4780
  436MOL0     H58798   3.314   8.700   5.819 -0.9836 -0.3263  0.0073
  436MOL0     H58799   3.546   8.692   5.853  0.5501 -0.6909 -0.2916
  436MOL0     H58800   3.472   8.842   5.930 -1.5786  0.9892 -1.8176
  436MOL0     H58801   3.605   8.829   5.652 -0.6929 -2.0808  1.5237
  436MOL0     H58802   3.584   8.970   5.759 -1.7986  0.2314  1.1621
  436MOL0     H58803   3.794   8.766   5.794  1.7532  1.5153 -1.6171
  436MOL0     H58804   3.808   8.942   5.787 -0.0473  0.3641 -0.3090
  436MOL0     H58805   3.697   8.942   6.019 -2.2861 -2.6931  3.8222
  436MOL0     H58806   3.697   8.769   6.029 -1.8412 -0.2987 -2.9567
  436MOL0     H58807   3.931   8.956   6.008  0.3656 -0.2019 -0.3114
  436MOL0     H58808   3.950   8.788   5.994 -0.8183 -0.7943 -0.0706
  436MOL0     H58809   3.812   8.777   6.251  0.7812  0.5593  1.2395
  436MOL0     H58810   3.984   8.813   6.219 -0.0770 -2.7128 -3.7824
  436MOL0     H58811   3.645   8.994   6.301  0.2586 -1.3612  1.4668
  436MOL0     H58812   3.596   9.185   6.476 -1.1992  1.4836  0.4935
  436MOL0     H58813   3.711   9.181   6.598 -2.0412 -3.3686 -0.3693
  436MOL0     H58814   3.798   9.393   6.411  1.5499  1.5949  0.7008
  436MOL0     H58815   3.641   9.440   6.457 -0.7524 -0.6653 -0.9791
  436MOL0     H58816   3.714   9.367   6.693 -1.0755 -1.2709 -2.3215
  436MOL0     H58817   3.772   9.532   6.625  1.9388  0.3943 -3.1788
  436MOL0     H58818   3.946   9.286   6.596 -1.4429  0.9317 -0.9068
  436MOL0     H58819   3.952   9.380   6.751  0.6893  0.3585 -0.4925
  436MOL0     H58820   4.200   9.669   6.636 -0.5450 -0.3833 -0.2748
  436MOL0     H58821   4.433   9.676   6.564 -0.2367 -0.5446 -0.3479
  436MOL0     H58822   4.817   9.550   6.423 -1.5473 -0.2664  1.1223
  436MOL0     H58823   5.029   9.525   6.306  2.0524 -2.0880  2.3944
  436MOL0     H58824   5.163   9.499   6.088  3.9301  2.4304  0.9463
  436MOL0     H58825   5.213   9.449   6.245  0.0282  0.1453 -0.7936
  436MOL0     H58826   5.407   9.394   6.151 -1.4003  0.7614  1.2782
  436MOL0     H58827   5.317   9.258   6.082 -1.1567 -0.2632 -1.4002
  436MOL0     H58828   5.253   9.376   5.886  1.4922  1.3877 -2.0997
  436MOL0     H58829   5.330   9.529   5.933  2.3529  0.0586  0.2453
  436MOL0     H58830   5.556   9.416   5.936  0.3421  1.0235 -0.9184
  436MOL0     H58831   5.490   9.426   5.775  1.2899 -0.4447 -0.5285
  436MOL0     H58832   5.388   9.198   5.797  0.4529 -1.7559  0.2395
  436MOL0     H58833   5.469   9.177   5.952 -0.3230 -1.4196 -0.9131
  436MOL0     H58834   5.613   9.211   5.694  4.1715 -2.2382 -0.8080
  436MOL0     H58835   5.697   9.218   5.845 -1.6325  0.6509 -0.6784
  436MOL0     H58836   5.499   8.996   5.822  1.1830 -2.4559  1.4559
  436MOL0     H58837   5.655   8.989   5.896  3.4070  2.7808 -1.3417
  436MOL0     H58838   5.679   8.842   5.706  1.6562  1.0135  1.9714
  436MOL0     H58839   5.626   8.968   5.591 -0.9954  1.0451  0.4431
  436MOL0     H58840   4.899   9.165   6.123 -0.9532 -0.8505  0.4553
  436MOL0     H58841   4.683   9.182   6.230  1.8286 -0.8789 -1.8083
  436MOL0     H58842   4.362   9.281   6.396  0.4184  1.1411 -1.8808
  436MOL0     H58843   4.126   9.291   6.474 -0.3815  0.8153  0.1518
  436MOL0     H58844   2.951   8.817   5.585  2.4697 -1.0564 -0.8192
  436MOL0     H58845   2.758   8.983   5.556  1.3436 -3.6207 -1.9215
  436MOL0     H58846   2.627   9.449   5.617  0.6757 -2.4151  0.7697
  436MOL0     H58847   2.445   9.573   5.617  2.7202  5.3691 -4.8620
  436MOL0     H58848   2.056   9.580   5.375  0.0521 -3.0687  3.0037
  436MOL0     H58849   2.206   9.624   5.291 -1.5326  2.0049 -0.3178
  436MOL0     H58850   2.144   9.780   5.541 -1.3206 -0.9409  0.3642
  436MOL0     H58851   2.072   9.830   5.393 -0.4446  0.1590  1.6786
  436MOL0     H58852   2.298   9.824   5.289  0.4389 -0.9807  0.2331
  436MOL0     H58853   2.366   9.762   5.436 -1.4331  0.3675  0.7045
  436MOL0     H58854   2.281   9.985   5.557  0.2895  0.6128 -0.1893
  436MOL0     H58855   2.413   9.983   5.436 -0.2240  0.8860 -1.1353
  436MOL0     H58856   2.057  10.173   5.264 -1.4454 -0.3709  2.1568
  436MOL0     H58857   2.278   9.403   5.267  0.5303  4.0339  1.8768
  436MOL0     H58858   2.575   9.251   5.138  1.9664 -2.0337  2.1604
  436MOL0     H58859   2.485   9.123   5.222 -1.0068 -0.0900 -1.5630
  436MOL0     H58860   2.402   9.243   5.126 -0.5127 -0.2526  1.1637
  437MOL0     O58861   1.607   6.170   7.057  0.0473 -0.9277 -0.7006
  437MOL0     C58862   1.700   6.105   7.004  0.6440 -1.3874  0.2174
  437MOL0     O58863   1.815   6.072   7.061  1.4189 -0.4151 -0.5589
  437MOL0     C58864   1.880   6.141   7.160  0.1246  0.0322 -0.3748
  437MOL0     C58865   1.847   6.268   7.211  0.4847  0.0315 -0.3093
  437MOL0     C58866   1.925   6.321   7.318  0.2895  1.1442 -0.0212
  437MOL0     C58867   2.049   6.263   7.360  0.2401  0.3159  0.4123
  437MOL0     O58868   2.139   6.319   7.446  0.2433  1.1044 -0.0326
  437MOL0     C58869   2.115   6.456   7.484 -0.2801 -0.8963 -0.8871
  437MOL0     C58870   2.222   6.518   7.573 -0.1209 -0.0212  0.3587
  437MOL0     C58871   2.225   6.473   7.720  0.4104  0.3702 -0.5682
  437MOL0     C58872   2.155   6.577   7.815  0.5512 -0.1541  0.9990
  437MOL0     C58873   2.009   6.602   7.770  0.4165  0.6746  0.3596
  437MOL0     C58874   1.906   6.488   7.816 -0.3219 -0.3321 -0.6867
  437MOL0     C58875   1.866   6.511   7.964 -0.3004 -0.6132 -1.0419
  437MOL0     C58876   1.767   6.405   8.020  0.0055 -0.4531 -1.1839
  437MOL0     N58877   1.748   6.410   8.166 -0.2144  0.1253 -0.6737
  437MOL0     C58878   1.713   6.298   8.241 -0.0560  0.7000 -0.0855
  437MOL0     C58879   1.684   6.351   8.364  0.4900 -0.0049 -0.6317
  437MOL0     C58880   1.618   6.286   8.479 -0.2917 -0.6523 -0.2055
  437MOL0     C58881   1.470   6.279   8.464  0.9960 -0.0158 -0.2895
  437MOL0     C58882   1.417   6.147   8.404  0.5872  0.2145 -0.0451
  437MOL0     C58883   1.456   6.025   8.494  0.1787  0.9180  0.3005
  437MOL0     O58884   1.497   6.057   8.627 -0.1588 -0.2924 -0.7352
  437MOL0     C58885   1.405   6.087   8.719  0.0210 -0.2595  0.3312
  437MOL0     C58886   1.270   6.079   8.699  0.4124  0.5902  0.3686
  437MOL0     C58887   1.181   6.119   8.798 -0.1412  1.3030 -0.5804
  437MOL0     C58888   1.234   6.178   8.915 -0.1962 -0.0626 -0.0102
  437MOL0     C58889   1.145   6.246   9.008  0.0282  0.2987  0.2793
  437MOL0     O58890   1.017   6.280   8.978 -1.1060  0.1753 -0.4390
  437MOL0     C58891   0.949   6.340   9.080  1.5334  0.6364  0.1593
  437MOL0     C58892   0.844   6.274   9.143  0.5792  0.2799  0.1194
  437MOL0     C58893   0.771   6.336   9.246  0.6906 -0.3968  0.0747
  437MOL0     C58894   0.792   6.475   9.267  1.0592  0.2426  0.0026
  437MOL0     O58895   0.697   6.552   9.342 -0.8432 -0.4454  0.1624
  437MOL0     C58896   0.592   6.484   9.414 -0.3143  0.2228  0.5133
  437MOL0     C58897   0.509   6.582   9.497  0.3274 -0.2126  0.9660
  437MOL0     C58898   0.577   6.634   9.615  1.5813  0.0862 -0.0303
  437MOL0     C58899   0.504   6.761   9.653 -0.0668 -0.6122 -1.0066
  437MOL0     C58900   0.590   6.846   9.746  0.2863 -0.0921 -0.0438
  437MOL0     C58901   0.525   6.982   9.773 -0.3460  0.5011 -0.9420
  437MOL0     C58902   0.600   7.076   9.872 -0.1038 -0.4256  0.0194
  437MOL0     C58903   0.751   7.104   9.848 -0.0424 -0.2016  0.1036
  437MOL0    Cl58904   0.790   7.248   9.950 -0.2781  0.1234  0.3162
  437MOL0     C58905   0.889   6.546   9.192  0.4542  0.7712 -0.1822
  437MOL0     C58906   0.969   6.475   9.106 -0.0815  0.5663  0.0966
  437MOL0     O58907   1.194   6.255   9.117 -1.0462 -0.4872 -1.2126
  437MOL0     C58908   1.368   6.198   8.933  0.1242  0.6254  0.7172
  437MOL0     C58909   1.451   6.145   8.833  0.1683 -0.6419 -0.0477
  437MOL0     N58910   1.708   6.489   8.360  0.2481  0.1070 -0.4703
  437MOL0     N58911   1.746   6.525   8.246 -0.3005 -0.3698 -0.5285
  437MOL0     C58912   2.082   6.137   7.304 -0.8021 -1.2462  0.4744
  437MOL0     C58913   1.996   6.073   7.213  0.0174 -0.1005  0.1616
  437MOL0     C58914   1.672   6.038   6.870  0.5282 -0.7414  0.2428
  437MOL0     C58915   1.778   5.983   6.798  0.0034 -0.2821  0.3726
  437MOL0     C58916   1.763   5.925   6.670 -0.4810  0.2791 -0.3603
  437MOL0     C58917   1.638   5.930   6.604  0.7431  0.1734  0.5222
  437MOL0     O58918   1.602   5.884   6.480  0.2886  0.0409 -0.1814
  437MOL0     C58919   1.706   5.887   6.386 -0.1415 -0.5965  0.8028
  437MOL0     C58920   1.715   6.034   6.335 -0.4315 -0.0730  0.3770
  437MOL0     C58921   1.753   6.037   6.186 -0.0506 -0.4342  0.0328
  437MOL0     C58922   1.822   6.175   6.160  0.5860  0.1713  0.1951
  437MOL0     C58923   1.730   6.288   6.134 -0.0648 -0.9063 -0.4871
  437MOL0     C58924   1.651   6.375   6.123  0.4072 -0.0064  0.3120
  437MOL0     C58925   1.535   5.988   6.677  0.0233  0.0959 -0.2822
  437MOL0     C58926   1.545   6.043   6.806 -0.2863  0.7998  0.4409
  437MOL0     C58927   1.421   6.109   6.863 -1.0677 -0.1098 -0.2318
  437MOL0     H58928   1.759   6.315   7.169  0.3501 -0.1440 -0.2297
  437MOL0     H58929   1.904   6.425   7.343 -0.9110  0.5894  1.4695
  437MOL0     H58930   2.115   6.511   7.390 -0.1435 -2.0992 -1.6190
  437MOL0     H58931   2.017   6.467   7.531  1.4505  3.1334  2.4087
  437MOL0     H58932   2.223   6.627   7.568 -0.2150 -0.0158  0.4484
  437MOL0     H58933   2.312   6.499   7.514  0.2369  0.2105  0.8267
  437MOL0     H58934   2.327   6.452   7.754  0.2217 -0.5827 -0.5695
  437MOL0     H58935   2.166   6.381   7.719 -0.4410  0.9074 -0.5657
  437MOL0     H58936   2.162   6.531   7.914 -0.5838 -0.8891  0.7511
  437MOL0     H58937   2.194   6.679   7.810  0.1491 -0.0629 -0.4539
  437MOL0     H58938   1.976   6.696   7.814 -0.9031  0.4319 -0.0583
  437MOL0     H58939   2.005   6.621   7.662  1.6010 -1.1229 -0.0398
  437MOL0     H58940   1.822   6.502   7.748  0.5397  0.7676 -1.5656
  437MOL0     H58941   1.945   6.386   7.813  0.0811 -0.6757  4.8919
  437MOL0     H58942   1.828   6.612   7.984 -3.8849 -2.1568  0.8949
  437MOL0     H58943   1.954   6.490   8.026  0.2820 -0.8318 -1.9176
  437MOL0     H58944   1.667   6.419   7.977 -0.7896  0.6692  0.9143
  437MOL0     H58945   1.791   6.304   7.985 -1.4122 -0.2259 -2.9852
  437MOL0     H58946   1.701   6.202   8.194 -1.1461  1.3275 -1.1416
  437MOL0     H58947   1.671   6.193   8.501  1.2154 -0.1096 -1.3690
  437MOL0     H58948   1.632   6.362   8.557 -0.2864 -1.3689  0.5043
  437MOL0     H58949   1.427   6.312   8.559  0.6054  0.3845 -0.6049
  437MOL0     H58950   1.447   6.358   8.393  0.8076  0.8547  0.7139
  437MOL0     H58951   1.462   6.139   8.305  1.1161  1.1571  0.1047
  437MOL0     H58952   1.310   6.154   8.382 -0.1042 -2.1347  1.9793
  437MOL0     H58953   1.546   5.991   8.441  1.6235  1.3191  2.3776
  437MOL0     H58954   1.374   5.954   8.482  0.1656  1.2802 -2.4352
  437MOL0     H58955   1.221   6.033   8.613  0.8602 -2.2764  1.5333
  437MOL0     H58956   1.074   6.101   8.789 -0.0328  0.1541  0.2468
  437MOL0     H58957   0.816   6.171   9.119 -4.1443  1.8388 -2.2968
  437MOL0     H58958   0.680   6.283   9.270 -0.4951  1.4768 -0.0244
  437MOL0     H58959   0.526   6.432   9.343 -1.1998  3.3428 -1.1239
  437MOL0     H58960   0.643   6.414   9.481  0.6879 -0.6812 -1.1240
  437MOL0     H58961   0.470   6.658   9.428  0.6689 -0.7248  0.1945
  437MOL0     H58962   0.422   6.523   9.529 -2.0735  2.8374  0.5555
  437MOL0     H58963   0.591   6.564   9.698  0.9154  0.5255  0.4626
  437MOL0     H58964   0.680   6.658   9.587  0.3104  1.9245 -3.6667
  437MOL0     H58965   0.409   6.736   9.700  1.8360 -1.6276  2.7590
  437MOL0     H58966   0.489   6.827   9.567  0.4018  0.6488 -0.1437
  437MOL0     H58967   0.675   6.862   9.679  0.2517 -2.7819 -0.8576
  437MOL0     H58968   0.606   6.805   9.846 -2.6264  0.7856  0.8680
  437MOL0     H58969   0.505   7.031   9.677 -3.1102  1.7798  0.1888
  437MOL0     H58970   0.430   6.962   9.823 -1.4955  2.7646 -2.0439
  437MOL0     H58971   0.585   7.032   9.972 -1.1077  0.4455  0.2758
  437MOL0     H58972   0.546   7.171   9.875  0.4736  0.1766 -3.9109
  437MOL0     H58973   0.821   7.023   9.870  1.7062  0.9484 -0.9864
  437MOL0     H58974   0.769   7.116   9.741  2.6371 -0.3617  0.4723
  437MOL0     H58975   0.903   6.652   9.213 -0.7260  0.4076  2.9116
  437MOL0     H58976   1.051   6.520   9.050 -1.4726 -0.1422 -2.7342
  437MOL0     H58977   1.418   6.239   9.020  2.6607 -0.3366 -0.1563
  437MOL0     H58978   1.557   6.163   8.847  0.1594 -0.9872  0.5154
  437MOL0     H58979   2.178   6.104   7.344  0.2378  1.3723  0.3532
  437MOL0     H58980   2.019   5.968   7.194  2.0176  0.1426  0.9868
  437MOL0     H58981   1.878   5.986   6.842 -0.5282 -0.1957  1.5949
  437MOL0     H58982   1.848   5.876   6.624 -1.8066  0.2460 -2.9439
  437MOL0     H58983   1.677   5.822   6.303 -1.9357 -1.8462  2.3362
  437MOL0     H58984   1.803   5.853   6.422  0.2621 -1.5348 -1.0341
  437MOL0     H58985   1.790   6.083   6.398 -1.3614  0.2162  1.2761
  437MOL0     H58986   1.613   6.073   6.338 -1.3797 -2.3021 -0.6506
  437MOL0     H58987   1.665   6.018   6.125 -1.3001  0.2795  1.5386
  437MOL0     H58988   1.832   5.966   6.158  0.7229  1.2522 -2.2969
  437MOL0     H58989   1.883   6.198   6.248 -0.8647  0.9805  1.0370
  437MOL0     H58990   1.875   6.162   6.065 -2.0785 -4.2050 -0.9577
  437MOL0     H58991   1.589   6.460   6.103  0.3384 -0.0151  0.4847
  437MOL0     H58992   1.438   5.970   6.632 -0.1816  2.1079 -0.7430
  437MOL0     H58993   1.451   6.210   6.894  3.3899 -1.9105  2.2853
  437MOL0     H58994   1.344   6.111   6.785  0.8618  1.1222 -2.2499
  437MOL0     H58995   1.385   6.058   6.952  0.9796  0.3295  0.9120
  438MOL0     O58996   6.474   4.815   1.979 -0.1830 -0.2174  0.4243
  438MOL0     C58997   6.533   4.812   2.090 -0.1559 -0.1716  0.3109
  438MOL0     O58998   6.665   4.826   2.101  0.0798  0.1610  0.2111
  438MOL0     C58999   6.741   4.858   1.992 -0.2467 -0.0319  0.9761
  438MOL0     C59000   6.856   4.782   1.976 -0.1690 -0.0981  0.0786
  438MOL0     C59001   6.951   4.828   1.881  0.1503 -0.2254 -0.5631
  438MOL0     C59002   6.932   4.942   1.802  0.2079  1.3073  0.1800
  438MOL0     O59003   7.027   4.976   1.705  0.7902 -0.0500  0.0637
  438MOL0     C59004   6.986   5.056   1.594  0.5418  0.3629 -0.2108
  438MOL0     C59005   7.090   5.050   1.484 -0.4385  0.3276 -0.0073
  438MOL0     C59006   7.147   4.912   1.434 -0.0079  0.6112  0.5069
  438MOL0     C59007   7.209   4.930   1.289 -0.1830  0.7145  0.2714
  438MOL0     C59008   7.255   4.789   1.231  0.2256 -0.3094  0.4729
  438MOL0     C59009   7.398   4.801   1.179  1.2995  0.4296 -1.0831
  438MOL0     C59010   7.476   4.666   1.210 -0.3921 -0.2526 -0.1852
  438MOL0     C59011   7.429   4.542   1.136 -0.0848  1.1587 -0.5305
  438MOL0     N59012   7.467   4.553   0.992  0.8690 -0.8100 -0.5541
  438MOL0     C59013   7.379   4.601   0.893  0.7327  0.2807 -0.1133
  438MOL0     C59014   7.445   4.597   0.771  0.2450  0.0331 -0.3631
  438MOL0     C59015   7.389   4.646   0.636  0.2704  0.0333 -0.2575
  438MOL0     C59016   7.330   4.786   0.656  0.4639 -0.1254  0.2651
  438MOL0     C59017   7.315   4.856   0.521  0.0207 -0.3724 -0.7447
  438MOL0     C59018   7.442   4.882   0.438  0.6661  0.4597 -0.8154
  438MOL0     O59019   7.539   4.960   0.520  0.4209  0.1518 -0.4014
  438MOL0     C59020   7.662   4.999   0.462 -0.5752  0.2212  0.0032
  438MOL0     C59021   7.738   4.948   0.359  0.8441 -0.0587  0.2740
  438MOL0     C59022   7.849   5.013   0.310 -1.1244 -0.4671 -0.3234
  438MOL0     C59023   7.900   5.127   0.377  0.1880  1.1830 -0.3231
  438MOL0     C59024   8.025   5.177   0.326  0.0123 -0.5439 -0.4924
  438MOL0     O59025   8.040   5.309   0.360 -0.6513  0.1963 -0.3989
  438MOL0     C59026   8.166   5.370   0.344  0.7282  0.0359 -0.0291
  438MOL0     C59027   8.187   5.474   0.256  0.1427 -1.3679 -0.1408
  438MOL0     C59028   8.309   5.543   0.249 -0.0157 -0.1096  0.6389
  438MOL0     C59029   8.408   5.523   0.343 -0.4900  0.1727  0.1218
  438MOL0     O59030   8.523   5.603   0.345  0.7102 -0.9567 -0.1952
  438MOL0     C59031   8.605   5.633   0.464  0.4227 -0.8188  0.3240
  438MOL0     C59032   8.751   5.642   0.422 -0.2773  0.2023  0.0784
  438MOL0     C59033   8.840   5.582   0.538 -0.7258 -0.1419 -0.6652
  438MOL0     C59034   8.982   5.616   0.541  0.2453  0.1365  0.3440
  438MOL0     C59035   9.053   5.608   0.682 -0.5029  0.3556 -0.1906
  438MOL0     C59036   9.184   5.677   0.667  0.0761 -0.4201  0.3848
  438MOL0     C59037   9.252   5.666   0.802  0.1643  0.3039  0.2906
  438MOL0     C59038   9.350   5.773   0.838 -0.0357 -0.7460  0.9170
  438MOL0    Cl59039   9.511   5.713   0.747 -0.0144 -0.1742  0.0717
  438MOL0     C59040   8.394   5.417   0.431  0.1009 -0.9806  0.0450
  438MOL0     C59041   8.269   5.342   0.435  0.7073 -0.8202 -0.3585
  438MOL0     O59042   8.106   5.111   0.265 -0.2923 -0.6735 -0.0514
  438MOL0     C59043   7.832   5.170   0.488 -0.2420 -0.3612  0.6988
  438MOL0     C59044   7.711   5.116   0.519  0.0467  0.8237  0.1619
  438MOL0     N59045   7.572   4.552   0.806  0.0798  0.5514  0.3149
  438MOL0     N59046   7.589   4.529   0.936  0.5273 -0.2228  0.5510
  438MOL0     C59047   6.813   5.016   1.812 -0.3417  0.2551 -0.4551
  438MOL0     C59048   6.723   4.970   1.909  0.0803  0.4104 -0.1387
  438MOL0     C59049   6.458   4.816   2.220  0.6244  0.1346  0.3451
  438MOL0     C59050   6.530   4.818   2.334  0.2695 -0.4278 -0.1613
  438MOL0     C59051   6.464   4.814   2.469 -0.0892  0.6222  0.1558
  438MOL0     C59052   6.323   4.817   2.479 -0.2839 -0.1812  0.7120
  438MOL0     O59053   6.278   4.814   2.605 -0.4482 -0.0538  0.1916
  438MOL0     C59054   6.145   4.846   2.625  0.0452 -0.3620 -0.3574
  438MOL0     C59055   6.104   4.807   2.767  0.2068  0.4753 -0.0737
  438MOL0     C59056   6.196   4.882   2.870  0.0685  0.0532 -0.1241
  438MOL0     C59057   6.144   4.858   3.013 -0.0652 -0.2297 -0.6062
  438MOL0     C59058   6.009   4.909   3.043  0.3068 -0.7876  0.0749
  438MOL0     C59059   5.893   4.949   3.047 -0.3496  0.0518 -0.3179
  438MOL0     C59060   6.253   4.824   2.356  1.1552 -0.4411 -0.9315
  438MOL0     C59061   6.312   4.824   2.230  0.2778 -0.0905  0.1472
  438MOL0     C59062   6.216   4.835   2.115  0.6060  0.0472  0.5247
  438MOL0     H59063   6.853   4.694   2.039 -0.4292 -1.2516 -1.4793
  438MOL0     H59064   7.038   4.765   1.864  0.8074  0.5369 -0.0827
  438MOL0     H59065   6.893   5.010   1.557  0.7900 -1.1431  0.9287
  438MOL0     H59066   6.965   5.158   1.626 -1.8666 -0.4954  1.2645
  438MOL0     H59067   7.172   5.105   1.530 -0.3933  1.3253 -1.2242
  438MOL0     H59068   7.050   5.100   1.395  0.3135 -0.7825 -1.0007
  438MOL0     H59069   7.058   4.849   1.428 -1.7127  2.3671  4.1835
  438MOL0     H59070   7.220   4.871   1.504  0.2387  0.7456  0.3318
  438MOL0     H59071   7.139   4.974   1.217  0.1282  1.4892  0.4305
  438MOL0     H59072   7.286   5.007   1.303 -0.5353  1.1777 -0.2505
  438MOL0     H59073   7.253   4.728   1.322 -0.8855  2.3138  2.3541
  438MOL0     H59074   7.179   4.750   1.163 -1.4419  1.2687  1.3416
  438MOL0     H59075   7.391   4.834   1.075  0.5305  2.0848 -0.5399
  438MOL0     H59076   7.455   4.878   1.232  2.4746  0.3326 -2.1591
  438MOL0     H59077   7.482   4.643   1.316  0.9216 -0.7185 -0.3379
  438MOL0     H59078   7.576   4.683   1.168  0.0955 -3.6504 -0.7174
  438MOL0     H59079   7.487   4.458   1.176 -1.2437  0.8650  0.6271
  438MOL0     H59080   7.326   4.507   1.151  0.1378  0.6153 -0.2133
  438MOL0     H59081   7.277   4.638   0.908 -0.1806 -1.4541 -1.6652
  438MOL0     H59082   7.467   4.641   0.559  1.0277 -0.4729  0.5328
  438MOL0     H59083   7.318   4.576   0.589  0.7361  0.2642 -1.3357
  438MOL0     H59084   7.229   4.779   0.695 -0.5631 -0.8010 -2.2975
  438MOL0     H59085   7.392   4.839   0.729  1.2165  0.1652 -0.5704
  438MOL0     H59086   7.261   4.948   0.544 -0.7723 -1.0942  0.3508
  438MOL0     H59087   7.256   4.792   0.455  0.6034 -1.1553 -0.5253
  438MOL0     H59088   7.409   4.938   0.350  0.8893  2.1452  0.1153
  438MOL0     H59089   7.496   4.794   0.404  0.6932 -0.1766  0.7938
  438MOL0     H59090   7.709   4.855   0.310 -0.6473  0.7023 -0.3627
  438MOL0     H59091   7.908   4.978   0.227 -0.3379  2.8205 -1.3083
  438MOL0     H59092   8.118   5.498   0.176 -0.6709 -0.9588  0.6605
  438MOL0     H59093   8.324   5.626   0.181  1.0167  0.7303  1.8353
  438MOL0     H59094   8.570   5.732   0.496  0.6318 -0.3425 -0.8690
  438MOL0     H59095   8.588   5.554   0.537  1.5118 -1.6942 -0.3430
  438MOL0     H59096   8.767   5.577   0.335  1.6885  0.2263  0.3640
  438MOL0     H59097   8.775   5.743   0.388  4.2286 -0.1327  1.5197
  438MOL0     H59098   8.799   5.611   0.635 -1.2331 -2.0455 -0.2727
  438MOL0     H59099   8.832   5.473   0.529 -0.3397 -0.0523 -2.4741
  438MOL0     H59100   8.992   5.722   0.516  1.4103 -0.2650 -1.0338
  438MOL0     H59101   9.024   5.558   0.459 -0.0827  0.1040  0.1969
  438MOL0     H59102   9.071   5.502   0.701  1.9848  0.1005 -3.1966
  438MOL0     H59103   9.003   5.658   0.765  1.7291  0.4801  1.1458
  438MOL0     H59104   9.241   5.625   0.590  0.2100  0.6269 -0.2390
  438MOL0     H59105   9.167   5.780   0.635 -2.2287 -0.1773  2.1107
  438MOL0     H59106   9.299   5.567   0.801  0.1565  0.3068 -0.1507
  438MOL0     H59107   9.171   5.662   0.875 -0.4655  0.7156 -0.3804
  438MOL0     H59108   9.332   5.878   0.812  2.1605 -0.3629  0.7459
  438MOL0     H59109   9.378   5.765   0.943  3.4088  0.0449  0.2076
  438MOL0     H59110   8.470   5.397   0.506  3.3315 -1.5906 -3.0835
  438MOL0     H59111   8.256   5.282   0.524  0.1522  0.8712  0.7398
  438MOL0     H59112   7.871   5.251   0.549  0.3510  0.1119 -0.2865
  438MOL0     H59113   7.640   5.163   0.587  0.8816  0.7418  1.1052
  438MOL0     H59114   6.801   5.105   1.752  0.0262 -0.2725 -1.3242
  438MOL0     H59115   6.631   5.025   1.931 -1.0145 -1.9901  1.7161
  438MOL0     H59116   6.635   4.807   2.310 -0.5054 -2.5404 -3.2708
  438MOL0     H59117   6.526   4.799   2.557  1.4587 -1.5943 -1.1822
  438MOL0     H59118   6.079   4.793   2.557  1.7356 -1.2203 -1.3923
  438MOL0     H59119   6.127   4.954   2.615 -1.3694 -0.5163  0.2995
  438MOL0     H59120   6.125   4.700   2.773 -1.5095  0.0532 -0.9192
  438MOL0     H59121   5.999   4.819   2.795  0.3385 -0.7910  1.0506
  438MOL0     H59122   6.204   4.989   2.848 -2.8710  0.1500 -1.2788
  438MOL0     H59123   6.292   4.832   2.856 -1.5834 -3.3796 -0.2569
  438MOL0     H59124   6.144   4.753   3.043 -2.1407  0.4021  1.9963
  438MOL0     H59125   6.212   4.913   3.080  1.8966 -0.0231 -2.6460
  438MOL0     H59126   5.795   4.988   3.063 -0.8672 -0.6391 -1.6573
  438MOL0     H59127   6.148   4.849   2.357  1.1337 -0.3783 -2.3801
  438MOL0     H59128   6.241   4.748   2.053  1.9230  0.5853  0.2699
  438MOL0     H59129   6.110   4.842   2.141  1.2196  0.5518  3.1655
  438MOL0     H59130   6.248   4.922   2.057 -0.0206 -0.8052 -1.1638
  439MOL0     O59131  10.869   7.144   6.106  0.2139 -0.5317 -0.0725
  439MOL0     C59132  10.913   7.209   6.200 -0.2354 -0.0769  0.1500
  439MOL0     O59133  11.047   7.261   6.212 -0.4508 -0.2160 -0.1669
  439MOL0     C59134  11.133   7.253   6.101 -0.5614 -0.3248 -0.5982
  439MOL0     C59135  11.143   7.147   6.009  0.5026  0.0643  0.3674
  439MOL0     C59136  11.230   7.157   5.908 -0.3395  0.1312 -0.1831
  439MOL0     C59137  11.315   7.263   5.896  0.8790  0.6595  0.7974
  439MOL0     O59138  11.415   7.264   5.799  0.6285  0.1701 -0.1739
  439MOL0     C59139  11.408   7.366   5.697 -0.9939 -0.0792  0.5216
  439MOL0     C59140  11.531   7.456   5.707  0.7379  0.1897 -0.3374
  439MOL0     C59141  11.657   7.393   5.648 -0.1956  0.0583 -0.9779
  439MOL0     C59142  11.639   7.358   5.496  0.3523 -0.2231  0.6571
  439MOL0     C59143  11.783   7.343   5.439 -0.0547 -0.2467 -0.5892
  439MOL0     C59144  11.773   7.315   5.286 -0.6710  0.4611  0.1411
  439MOL0     C59145  11.705   7.181   5.240 -0.6331 -0.3550 -0.2757
  439MOL0     C59146  11.800   7.064   5.272  0.7083  1.2921 -0.2325
  439MOL0     N59147  11.933   7.075   5.209 -0.0726  0.0802  0.2586
  439MOL0     C59148  11.945   7.120   5.072 -0.5392  0.6819 -0.4360
  439MOL0     C59149  12.077   7.152   5.055  0.5492 -0.7913 -0.0448
  439MOL0     C59150  12.115   7.215   4.926  0.0905 -0.1333  0.9809
  439MOL0     C59151  12.257   7.181   4.890 -0.5534 -0.1882  0.9371
  439MOL0     C59152  12.298   7.249   4.750  0.3730 -0.4634 -0.9482
  439MOL0     C59153  12.447   7.259   4.728  0.5747 -0.5793 -0.2034
  439MOL0     O59154  12.509   7.131   4.720 -0.8447  0.0595  0.4976
  439MOL0     C59155  12.629   7.133   4.642  0.2567  0.9924 -0.5240
  439MOL0     C59156  12.647   7.028   4.550 -0.2398  0.0565 -0.3217
  439MOL0     C59157  12.759   7.019   4.473  0.7261 -0.0350  0.6028
  439MOL0     C59158  12.859   7.114   4.490 -0.1635  0.3798 -0.3269
  439MOL0     C59159  12.981   7.093   4.410 -0.5149  0.9263 -0.4813
  439MOL0     O59160  13.086   7.176   4.428 -0.4626  0.0849 -0.0808
  439MOL0     C59161  13.195   7.173   4.341 -0.0569  0.3906 -0.0474
  439MOL0     C59162  13.316   7.151   4.407 -1.3528 -0.8379  1.0281
  439MOL0     C59163  13.438   7.131   4.334 -0.1979  0.1416  0.0406
  439MOL0     C59164  13.439   7.133   4.191  0.0039 -0.2064  0.4552
  439MOL0     O59165  13.552   7.106   4.119 -0.7279  0.3101 -0.8141
  439MOL0     C59166  13.561   7.168   3.997 -0.2097  0.0996 -1.6750
  439MOL0     C59167  13.696   7.152   3.946 -0.2691 -0.4581 -0.0475
  439MOL0     C59168  13.802   7.216   4.037  0.6136  0.5168 -0.8788
  439MOL0     C59169  13.879   7.324   3.959  0.7546 -0.0711 -0.2841
  439MOL0     C59170  13.997   7.378   4.040  0.7398 -0.6334  0.7231
  439MOL0     C59171  14.046   7.492   3.951 -0.5748  0.9464  0.4796
  439MOL0     C59172  14.164   7.571   4.007 -0.1397  0.1522 -0.1627
  439MOL0     C59173  14.124   7.669   4.114  1.5299 -1.2679 -0.1396
  439MOL0    Cl59174  14.265   7.767   4.159 -0.2574 -0.3784  0.0694
  439MOL0     C59175  13.308   7.150   4.132 -0.3678 -0.2336  0.0640
  439MOL0     C59176  13.192   7.173   4.210  0.1028  0.2250  0.2168
  439MOL0     O59177  12.987   6.994   4.338 -0.1660 -0.4008 -0.0490
  439MOL0     C59178  12.845   7.227   4.573  0.4789 -0.1761  0.0252
  439MOL0     C59179  12.735   7.224   4.660  0.4678 -0.1073  0.1860
  439MOL0     N59180  12.137   7.136   5.180 -0.0728  0.3000 -0.1404
  439MOL0     N59181  12.052   7.090   5.269  0.2549 -0.7556  0.0771
  439MOL0     C59182  11.313   7.371   5.981  0.9159  0.6081 -0.4139
  439MOL0     C59183  11.221   7.365   6.091  0.8893 -0.0901  0.6770
  439MOL0     C59184  10.807   7.239   6.305  0.6142 -0.2492  0.7054
  439MOL0     C59185  10.853   7.324   6.400  1.1173  1.1200  0.3116
  439MOL0     C59186  10.774   7.359   6.508  0.4175 -0.2661  0.3259
  439MOL0     C59187  10.642   7.316   6.527  0.1403  0.0222  0.1313
  439MOL0     O59188  10.578   7.348   6.641  0.0357  0.9621 -0.4658
  439MOL0     C59189  10.433   7.343   6.658  0.3966  0.3726 -0.5960
  439MOL0     C59190  10.389   7.443   6.773 -0.0468  0.5497 -0.1366
  439MOL0     C59191  10.427   7.588   6.746  0.0328  1.1500 -0.5464
  439MOL0     C59192  10.349   7.693   6.827  1.0250 -0.4722 -0.0598
  439MOL0     C59193  10.352   7.676   6.972  0.7528  0.5290 -0.7431
  439MOL0     C59194  10.372   7.646   7.098 -0.1771  0.5444  1.3229
  439MOL0     C59195  10.591   7.244   6.412 -0.2286 -0.1038  0.4954
  439MOL0     C59196  10.672   7.202   6.302 -0.3482  0.9934  0.6023
  439MOL0     C59197  10.604   7.105   6.203  0.6020 -0.6955 -0.0204
  439MOL0     H59198  11.086   7.057   5.991  0.5788 -0.0454  0.6630
  439MOL0     H59199  11.244   7.066   5.851 -1.5779 -0.3131  0.1839
  439MOL0     H59200  11.388   7.313   5.603  3.4112 -0.1916 -0.5426
  439MOL0     H59201  11.324   7.432   5.722  0.4962  1.4064  1.9135
  439MOL0     H59202  11.547   7.499   5.805  3.1780  2.4938 -1.6384
  439MOL0     H59203  11.511   7.535   5.634 -0.7858  0.0534 -0.0974
  439MOL0     H59204  11.686   7.307   5.708  1.0712  1.1146 -0.0106
  439MOL0     H59205  11.730   7.469   5.680 -0.1981 -0.7920  1.2019
  439MOL0     H59206  11.580   7.271   5.464  0.5191  0.5668 -2.0460
  439MOL0     H59207  11.582   7.437   5.446  0.9000 -0.1138  0.1923
  439MOL0     H59208  11.839   7.435   5.452 -1.1241  0.1841  1.3321
  439MOL0     H59209  11.829   7.258   5.489  1.8075  1.2990  0.4395
  439MOL0     H59210  11.722   7.401   5.241  1.3742 -0.4320 -4.4098
  439MOL0     H59211  11.869   7.321   5.235 -0.4356  1.4333  0.6672
  439MOL0     H59212  11.679   7.192   5.135  0.0567 -0.7742 -0.4926
  439MOL0     H59213  11.604   7.163   5.278 -2.2502  0.9459 -3.5891
  439MOL0     H59214  11.804   7.055   5.380 -3.6083 -1.5385 -0.0793
  439MOL0     H59215  11.761   6.975   5.222  2.5206  0.5823 -0.4674
  439MOL0     H59216  11.866   7.131   4.999 -0.5993  0.5195 -0.3950
  439MOL0     H59217  12.054   7.160   4.853  0.6944 -0.6220  0.8338
  439MOL0     H59218  12.099   7.323   4.916 -0.3824 -0.3226 -0.4613
  439MOL0     H59219  12.313   7.224   4.973 -2.3520 -0.6191  2.4268
  439MOL0     H59220  12.277   7.074   4.875  3.5493  0.8512 -3.6999
  439MOL0     H59221  12.267   7.354   4.748 -1.9335 -1.0917 -1.3964
  439MOL0     H59222  12.258   7.197   4.663 -0.4167  0.4658 -1.1564
  439MOL0     H59223  12.490   7.306   4.817  0.9673 -1.5392  0.1372
  439MOL0     H59224  12.471   7.311   4.635  1.2068 -0.6908 -0.1104
  439MOL0     H59225  12.563   6.959   4.550 -2.1569  2.2473  0.0141
  439MOL0     H59226  12.768   6.937   4.403  0.1216 -1.8541  2.5455
  439MOL0     H59227  13.327   7.171   4.514 -0.2656  0.0167  0.7826
  439MOL0     H59228  13.534   7.108   4.380 -0.0499 -4.6021 -2.0483
  439MOL0     H59229  13.486   7.122   3.932 -1.5164 -2.8016  1.5123
  439MOL0     H59230  13.528   7.272   4.008  0.6829  0.2542 -0.1800
  439MOL0     H59231  13.717   7.044   3.948  1.7789 -0.1267  2.4254
  439MOL0     H59232  13.704   7.185   3.842 -1.0254 -1.5269 -0.4608
  439MOL0     H59233  13.754   7.278   4.115  2.9433  3.4595 -1.6005
  439MOL0     H59234  13.864   7.134   4.072 -1.4976 -0.5459  0.5911
  439MOL0     H59235  13.809   7.398   3.919  0.4513 -1.7408 -3.0789
  439MOL0     H59236  13.918   7.271   3.872 -3.5881 -2.8969 -0.8142
  439MOL0     H59237  14.066   7.298   4.066 -2.0559 -2.3253  3.5686
  439MOL0     H59238  13.963   7.431   4.129 -0.3395 -1.0345  0.5702
  439MOL0     H59239  14.083   7.441   3.862  0.5242 -1.7981  2.3857
  439MOL0     H59240  13.963   7.561   3.936 -2.6903 -0.9267  2.7215
  439MOL0     H59241  14.208   7.634   3.929 -1.5970  1.3282 -0.0809
  439MOL0     H59242  14.239   7.499   4.042  0.5049  1.0110  0.2705
  439MOL0     H59243  14.049   7.731   4.063  3.6965  0.6036 -1.2326
  439MOL0     H59244  14.081   7.622   4.203  1.5134  0.4308  0.7874
  439MOL0     H59245  13.303   7.153   4.023  1.9785 -0.7085 -0.0974
  439MOL0     H59246  13.097   7.193   4.162 -0.7257 -4.2967 -0.4220
  439MOL0     H59247  12.915   7.309   4.585 -2.6421  2.7791 -0.6248
  439MOL0     H59248  12.729   7.313   4.723 -0.9232  0.2527 -0.4192
  439MOL0     H59249  11.373   7.462   5.980  2.0327 -0.1159 -1.0572
  439MOL0     H59250  11.232   7.443   6.165 -1.7427  0.9025  0.1378
  439MOL0     H59251  10.958   7.348   6.413  1.2604  0.9513 -0.4876
  439MOL0     H59252  10.819   7.428   6.579  0.5413  0.8168 -0.7677
  439MOL0     H59253  10.400   7.240   6.674  2.2079 -0.0842  0.4745
  439MOL0     H59254  10.397   7.390   6.566  0.3582  3.5065  0.8978
  439MOL0     H59255  10.424   7.408   6.870  0.0402 -2.5036 -1.1692
  439MOL0     H59256  10.280   7.441   6.768 -0.0270  0.4471 -0.6431
  439MOL0     H59257  10.426   7.609   6.639  0.7563 -2.4856 -1.3963
  439MOL0     H59258  10.530   7.593   6.783 -0.1089 -0.2597  0.0830
  439MOL0     H59259  10.381   7.792   6.794 -2.0758  1.4715  2.1861
  439MOL0     H59260  10.245   7.696   6.794  0.8835 -1.0319  0.3060
  439MOL0     H59261  10.388   7.617   7.200 -1.0489 -3.7712  0.4411
  439MOL0     H59262  10.487   7.217   6.398 -0.2591  0.7631 -1.1851
  439MOL0     H59263  10.496   7.112   6.212  0.6534  0.7091 -0.2215
  439MOL0     H59264  10.639   7.107   6.099  3.0336  2.3407  0.6993
  439MOL0     H59265  10.625   7.002   6.232  1.3181 -0.2953  0.9593
  440MOL0     O59266   3.874   6.554   4.695  0.0929  0.1357  0.7018
  440MOL0     C59267   3.809   6.530   4.790  0.6887 -0.3886  0.7609
  440MOL0     O59268   3.671   6.520   4.788 -0.0639  0.7047  0.6004
  440MOL0     C59269   3.595   6.509   4.676  0.0414  0.3265 -0.5624
  440MOL0     C59270   3.474   6.442   4.684 -0.2204  1.3206 -0.6950
  440MOL0     C59271   3.386   6.421   4.578 -0.1870 -0.1386  0.7335
  440MOL0     C59272   3.424   6.474   4.445  0.7688 -0.3858 -0.0316
  440MOL0     O59273   3.344   6.446   4.341 -0.1373 -0.3055  0.2138
  440MOL0     C59274   3.375   6.504   4.209  0.2868  0.8826 -0.4525
  440MOL0     C59275   3.266   6.472   4.104 -0.5424  0.4842 -0.5024
  440MOL0     C59276   3.215   6.329   4.094  0.5420 -0.2004  1.1970
  440MOL0     C59277   3.307   6.241   4.012 -0.0530 -0.2687 -0.7681
  440MOL0     C59278   3.250   6.097   3.993 -0.0476 -0.5771 -0.0626
  440MOL0     C59279   3.155   6.087   3.880  0.4206 -0.2435 -0.0732
  440MOL0     C59280   3.078   5.951   3.901 -0.3431  0.3134  0.7958
  440MOL0     C59281   2.963   5.939   3.799 -0.3119  0.0338 -0.7596
  440MOL0     N59282   3.021   5.909   3.666  0.2725 -0.6113 -0.1388
  440MOL0     C59283   3.080   5.796   3.632  0.5586  0.7430  0.2173
  440MOL0     C59284   3.149   5.830   3.517 -0.8431 -0.1071  0.7692
  440MOL0     C59285   3.232   5.742   3.424 -0.0187  0.0495 -0.6378
  440MOL0     C59286   3.357   5.813   3.383 -0.6086 -0.6767 -0.7062
  440MOL0     C59287   3.450   5.724   3.297  0.0726 -0.4691 -0.2634
  440MOL0     C59288   3.595   5.783   3.279  0.1329  0.3537 -1.2052
  440MOL0     O59289   3.594   5.901   3.209 -0.0492  0.3263 -0.2636
  440MOL0     C59290   3.704   5.954   3.144  0.4887  0.0893 -0.7466
  440MOL0     C59291   3.686   6.042   3.047  0.2436  0.2996  0.2192
  440MOL0     C59292   3.794   6.093   2.976  0.4804 -0.4530 -0.4658
  440MOL0     C59293   3.923   6.060   3.011 -0.0770  0.2482  0.8658
  440MOL0     C59294   4.042   6.111   2.926  0.2262 -0.0828  0.0716
  440MOL0     O59295   4.017   6.188   2.816 -0.2551 -0.4644  0.3236
  440MOL0     C59296   4.112   6.279   2.770  0.1298 -0.1079 -0.0967
  440MOL0     C59297   4.207   6.352   2.848 -0.8424 -0.4950 -0.2765
  440MOL0     C59298   4.273   6.466   2.793 -0.5457  0.6566  0.0037
  440MOL0     C59299   4.259   6.511   2.664 -1.0730  0.7894 -0.0662
  440MOL0     O59300   4.330   6.630   2.631 -0.0983 -0.3513 -0.0508
  440MOL0     C59301   4.307   6.681   2.500  0.2313  0.7610  0.6504
  440MOL0     C59302   4.394   6.802   2.489 -0.0618 -0.6893  0.2051
  440MOL0     C59303   4.537   6.758   2.495  0.5266  0.1751  0.4096
  440MOL0     C59304   4.627   6.875   2.461 -0.9874 -0.0850 -0.8165
  440MOL0     C59305   4.772   6.833   2.473 -0.4120  0.0524  0.2418
  440MOL0     C59306   4.872   6.950   2.448 -1.1165 -0.3934 -0.3871
  440MOL0     C59307   4.876   7.047   2.557  0.2051  0.0974 -0.3160
  440MOL0     C59308   4.935   6.993   2.684 -0.1933 -0.1112  0.2974
  440MOL0    Cl59309   5.111   6.971   2.660  0.1986 -0.1593  0.0997
  440MOL0     C59310   4.164   6.436   2.587  0.1272  0.3736 -0.7631
  440MOL0     C59311   4.095   6.332   2.643 -0.3385 -0.5013  0.1096
  440MOL0     O59312   4.149   6.081   2.966  0.2399  0.4960 -0.7039
  440MOL0     C59313   3.950   5.963   3.115  0.3858 -0.4418 -0.2944
  440MOL0     C59314   3.833   5.914   3.184 -0.4836 -0.1332 -0.3502
  440MOL0     N59315   3.127   5.960   3.489  0.3550 -0.2590 -0.0927
  440MOL0     N59316   3.039   6.003   3.567  0.1667 -0.6021 -0.0662
  440MOL0     C59317   3.543   6.544   4.440  0.4032 -0.0084 -1.3132
  440MOL0     C59318   3.627   6.560   4.551 -0.6432  0.2770  0.0854
  440MOL0     C59319   3.874   6.505   4.925 -0.3051  0.2166  0.0061
  440MOL0     C59320   4.004   6.468   4.933 -0.8967  0.5231 -0.6939
  440MOL0     C59321   4.080   6.456   5.046  0.2689 -0.4213  0.7177
  440MOL0     C59322   4.017   6.469   5.172  0.5268 -0.9319 -0.5038
  440MOL0     O59323   4.075   6.450   5.295 -0.4142  0.7583 -0.8167
  440MOL0     C59324   4.211   6.487   5.294  0.9201  0.2897 -1.0125
  440MOL0     C59325   4.266   6.506   5.443  0.0033 -0.0957 -0.4719
  440MOL0     C59326   4.184   6.614   5.524 -0.3453  0.1260 -0.5699
  440MOL0     C59327   4.222   6.623   5.679 -0.5920  0.5567  0.3129
  440MOL0     C59328   4.163   6.730   5.756  0.2155 -0.2186  1.2039
  440MOL0     C59329   4.113   6.823   5.811 -0.6770 -0.8024 -0.6825
  440MOL0     C59330   3.882   6.500   5.167  0.7317 -0.4209 -0.8794
  440MOL0     C59331   3.813   6.529   5.052  0.3826 -0.2037 -0.3014
  440MOL0     C59332   3.675   6.580   5.069  0.6182 -0.5212  0.0993
  440MOL0     H59333   3.444   6.392   4.776  1.7758 -0.3069 -0.8432
  440MOL0     H59334   3.295   6.366   4.598 -1.3637  0.4171 -2.5716
  440MOL0     H59335   3.381   6.613   4.223 -2.5328  0.8519  1.9835
  440MOL0     H59336   3.471   6.462   4.178  0.4298  1.1985 -0.4480
  440MOL0     H59337   3.291   6.520   4.009  1.2485 -0.6077 -0.6419
  440MOL0     H59338   3.171   6.524   4.121 -2.1554 -2.0315 -1.2010
  440MOL0     H59339   3.120   6.332   4.040  1.0936  1.4504  0.2643
  440MOL0     H59340   3.199   6.295   4.196  0.7120  0.6789  1.5240
  440MOL0     H59341   3.332   6.292   3.919 -2.4121 -0.0460 -1.3300
  440MOL0     H59342   3.402   6.237   4.066 -2.3973 -0.3529  3.8768
  440MOL0     H59343   3.330   6.030   3.959  0.4005  1.0267 -2.5072
  440MOL0     H59344   3.217   6.060   4.090  1.0041 -2.2364 -0.3115
  440MOL0     H59345   3.076   6.163   3.871  1.3013  0.5265 -1.7391
  440MOL0     H59346   3.206   6.087   3.783  1.2841 -1.6843  0.3658
  440MOL0     H59347   3.047   5.936   4.005  2.8164 -1.7850  1.6009
  440MOL0     H59348   3.150   5.872   3.878 -0.7335 -0.9925  3.5899
  440MOL0     H59349   2.900   5.857   3.836 -0.4844 -0.1725 -1.4982
  440MOL0     H59350   2.901   6.028   3.787 -0.3000  0.4736  1.8836
  440MOL0     H59351   3.070   5.699   3.680  3.5392 -0.5144 -1.3969
  440MOL0     H59352   3.254   5.644   3.468 -3.1334 -1.0359 -1.2583
  440MOL0     H59353   3.169   5.723   3.337 -3.5165 -0.0309  1.7457
  440MOL0     H59354   3.343   5.916   3.349 -1.3952 -0.5574 -0.0396
  440MOL0     H59355   3.407   5.822   3.480 -0.7414 -0.3210 -0.6667
  440MOL0     H59356   3.390   5.725   3.206 -1.3681 -0.8679  0.6480
  440MOL0     H59357   3.455   5.620   3.332  0.5104 -0.0123  1.0969
  440MOL0     H59358   3.651   5.707   3.224  0.0967 -1.5865  1.2755
  440MOL0     H59359   3.641   5.806   3.376 -0.8642 -3.2889  0.3216
  440MOL0     H59360   3.592   6.074   3.003  2.9183  1.5234 -5.3996
  440MOL0     H59361   3.785   6.168   2.899  1.3433 -0.0098 -0.1527
  440MOL0     H59362   4.228   6.326   2.952  0.7487 -1.5400 -0.8266
  440MOL0     H59363   4.322   6.530   2.866 -0.1328 -0.6930  0.9350
  440MOL0     H59364   4.338   6.602   2.432 -0.4545 -0.1338  1.3508
  440MOL0     H59365   4.202   6.701   2.476  0.2805 -0.4986 -0.7584
  440MOL0     H59366   4.384   6.860   2.397 -2.1847 -1.3511 -0.0352
  440MOL0     H59367   4.377   6.859   2.581  0.7183 -3.6825  2.3749
  440MOL0     H59368   4.548   6.719   2.596 -4.3772 -0.1068  1.1109
  440MOL0     H59369   4.553   6.689   2.412 -2.3409 -1.2213  0.8925
  440MOL0     H59370   4.597   6.960   2.523  0.6032  0.6964 -1.0717
  440MOL0     H59371   4.612   6.910   2.358 -2.1975  3.4770  0.4166
  440MOL0     H59372   4.791   6.770   2.386  1.3176  1.2636 -0.3198
  440MOL0     H59373   4.791   6.773   2.563  2.1785 -2.0995 -1.5495
  440MOL0     H59374   4.973   6.908   2.438 -1.1028 -0.0274 -2.0748
  440MOL0     H59375   4.847   7.001   2.354  0.6445  0.2804 -0.5366
  440MOL0     H59376   4.776   7.091   2.565 -0.2059 -0.4549 -1.9344
  440MOL0     H59377   4.951   7.122   2.530 -0.3046  0.7804  0.1389
  440MOL0     H59378   4.917   7.052   2.775  0.8613 -0.9907  1.1112
  440MOL0     H59379   4.878   6.902   2.707 -2.1643  0.2972 -2.4871
  440MOL0     H59380   4.124   6.479   2.496 -2.1134  5.7199  2.2276
  440MOL0     H59381   4.007   6.292   2.592 -1.1509  0.6314  0.5749
  440MOL0     H59382   4.056   5.956   3.136  0.7938 -2.1137 -2.4274
  440MOL0     H59383   3.849   5.851   3.271 -0.3200  1.3041  0.6991
  440MOL0     H59384   3.569   6.595   4.348 -0.8254 -0.2521 -1.8190
  440MOL0     H59385   3.724   6.608   4.541 -0.8017  0.8390  1.1463
  440MOL0     H59386   4.058   6.434   4.846  1.0441  0.6544  0.3944
  440MOL0     H59387   4.183   6.422   5.040 -0.2459 -1.8376 -1.3442
  440MOL0     H59388   4.223   6.580   5.238 -0.4058  2.3431  1.8373
  440MOL0     H59389   4.257   6.397   5.254 -0.9900 -0.2477 -2.1255
  440MOL0     H59390   4.372   6.531   5.436  0.1416 -0.0708  1.3426
  440MOL0     H59391   4.249   6.414   5.500  2.0382 -0.7318 -0.8010
  440MOL0     H59392   4.077   6.591   5.524 -0.3753 -0.3102  3.0759
  440MOL0     H59393   4.204   6.713   5.482 -0.8858  1.2017  1.5569
  440MOL0     H59394   4.193   6.523   5.710  0.7504 -0.0675 -0.3526
  440MOL0     H59395   4.328   6.638   5.701 -0.8482  2.0004  0.6733
  440MOL0     H59396   4.056   6.907   5.847  1.9714  1.4189 -1.3290
  440MOL0     H59397   3.825   6.511   5.259  2.6611 -1.1699  0.4940
  440MOL0     H59398   3.597   6.510   5.039  0.9771  0.0256 -2.3035
  440MOL0     H59399   3.650   6.609   5.172 -1.2294 -2.4301  0.2602
  440MOL0     H59400   3.669   6.673   5.012 -0.8467 -0.5785  0.1321
  441MOL0     O59401   7.702  11.217   5.496  0.2371 -0.3664  0.5292
  441MOL0     C59402   7.601  11.276   5.519  0.3732 -0.2807  0.0783
  441MOL0     O59403   7.604  11.403   5.558 -0.4871 -0.3015 -0.0200
  441MOL0     C59404   7.722  11.475   5.569 -0.1518 -0.8685  0.1348
  441MOL0     C59405   7.812  11.490   5.460 -0.0194 -0.4294  0.3480
  441MOL0     C59406   7.919  11.579   5.473 -0.9140 -0.6495 -0.6232
  441MOL0     C59407   7.943  11.651   5.598 -0.2569  0.3468  0.1372
  441MOL0     O59408   8.058  11.723   5.602 -0.1322  0.1185 -0.2537
  441MOL0     C59409   8.173  11.668   5.662  0.1387  0.4117 -0.2178
  441MOL0     C59410   8.255  11.570   5.576 -0.2414 -0.1403 -0.1987
  441MOL0     C59411   8.356  11.626   5.479  0.2234  0.5845 -0.3767
  441MOL0     C59412   8.510  11.610   5.521  0.0055 -0.2233 -0.0225
  441MOL0     C59413   8.545  11.636   5.662  0.2146  0.2274  0.4498
  441MOL0     C59414   8.699  11.645   5.659 -0.3058 -1.1217  0.3755
  441MOL0     C59415   8.752  11.648   5.801  0.6446 -0.4354  0.0159
  441MOL0     C59416   8.892  11.644   5.794  0.7014 -0.4038 -0.0432
  441MOL0     N59417   8.967  11.752   5.727  0.0404  0.6676 -0.7536
  441MOL0     C59418   8.987  11.876   5.775 -0.8310  0.6608  0.4866
  441MOL0     C59419   9.066  11.936   5.678  1.2252  0.7312 -0.0885
  441MOL0     C59420   9.122  12.074   5.692  0.0504  0.1706  0.6238
  441MOL0     C59421   9.053  12.167   5.597 -0.1521  0.1158 -0.0031
  441MOL0     C59422   9.083  12.314   5.634  0.2403 -0.2936  0.0502
  441MOL0     C59423   9.223  12.351   5.583  0.0199  0.5736  0.6694
  441MOL0     O59424   9.227  12.494   5.591  0.0514 -0.5746 -0.3891
  441MOL0     C59425   9.348  12.547   5.632  0.0229  0.6751 -0.0263
  441MOL0     C59426   9.367  12.674   5.691  0.7609 -0.3610  0.0692
  441MOL0     C59427   9.488  12.740   5.697 -0.3838 -0.0750 -0.2092
  441MOL0     C59428   9.607  12.675   5.658  0.1623  0.1926 -0.0691
  441MOL0     C59429   9.737  12.738   5.679 -0.0324  0.4161 -0.6503
  441MOL0     O59430   9.730  12.853   5.743 -0.2624 -0.3655  0.0440
  441MOL0     C59431   9.850  12.922   5.764 -0.1929  0.0475  0.3566
  441MOL0     C59432   9.856  12.978   5.888  0.1803 -0.0601  0.7309
  441MOL0     C59433   9.959  13.052   5.934  0.3844 -0.3042 -0.5136
  441MOL0     C59434  10.079  13.056   5.858 -0.3547  0.7385 -0.8249
  441MOL0     O59435  10.192  13.108   5.927 -0.2496  0.7239  0.6087
  441MOL0     C59436  10.321  13.102   5.857  1.1537 -0.3470  0.3911
  441MOL0     C59437  10.433  13.139   5.962 -0.1574 -0.1855 -0.6542
  441MOL0     C59438  10.572  13.125   5.910 -0.1863 -0.6182 -1.0492
  441MOL0     C59439  10.682  13.113   6.021  0.4753  0.4788 -0.0421
  441MOL0     C59440  10.823  13.118   5.970  0.3717  0.1899 -0.1601
  441MOL0     C59441  10.929  13.060   6.067 -0.6714  0.6985 -0.1430
  441MOL0     C59442  11.067  13.053   5.988  0.0978 -0.6176  0.1561
  441MOL0     C59443  11.185  13.064   6.090 -0.1816 -0.0718  0.1289
  441MOL0    Cl59444  11.183  12.917   6.183 -0.2230 -0.3636  0.0948
  441MOL0     C59445  10.074  13.003   5.725  0.0210 -0.3035  0.1208
  441MOL0     C59446   9.961  12.937   5.680  0.5170  0.2253  0.1922
  441MOL0     O59447   9.837  12.679   5.634  0.4152 -0.6874 -0.2126
  441MOL0     C59448   9.593  12.544   5.603 -0.5150  0.1439  0.0997
  441MOL0     C59449   9.472  12.485   5.587 -0.2897 -0.6187  0.6152
  441MOL0     N59450   9.090  11.850   5.576  0.0784 -0.7538 -0.0984
  441MOL0     N59451   9.028  11.739   5.607 -0.1811 -0.9159  0.8002
  441MOL0     C59452   7.860  11.623   5.709 -0.2695  0.4493  0.2128
  441MOL0     C59453   7.747  11.541   5.690 -0.1221 -0.0432  1.0987
  441MOL0     C59454   7.465  11.212   5.534 -1.2609  1.0269 -0.2036
  441MOL0     C59455   7.356  11.290   5.534  0.3541 -0.6126 -1.5639
  441MOL0     C59456   7.227  11.238   5.569 -0.0150  0.6683  0.1684
  441MOL0     C59457   7.213  11.104   5.589 -1.0402 -1.0431  0.1420
  441MOL0     O59458   7.101  11.042   5.637  0.2081 -0.3705  0.8402
  441MOL0     C59459   6.974  11.111   5.615 -0.1595 -0.7751 -0.5310
  441MOL0     C59460   6.867  10.997   5.612  0.1492  0.8866  1.1787
  441MOL0     C59461   6.868  10.912   5.734 -0.4493  0.7580 -0.8863
  441MOL0     C59462   6.748  10.816   5.739  0.5332  0.1265  0.3049
  441MOL0     C59463   6.613  10.870   5.716 -0.9872  0.2981  0.9463
  441MOL0     C59464   6.508  10.919   5.665 -0.6248  0.8642  0.0533
  441MOL0     C59465   7.324  11.021   5.596  0.0972 -0.0994  0.3328
  441MOL0     C59466   7.452  11.066   5.569  0.0928 -0.4687  1.4585
  441MOL0     C59467   7.561  10.958   5.583 -0.6745 -0.1669  0.6612
  441MOL0     H59468   7.796  11.450   5.361 -2.9680  2.9559 -0.7498
  441MOL0     H59469   7.988  11.593   5.390 -0.6956  0.2384 -0.2911
  441MOL0     H59470   8.234  11.739   5.720 -0.8981  1.4472 -0.3750
  441MOL0     H59471   8.143  11.598   5.741  0.0678  0.0748 -0.5431
  441MOL0     H59472   8.196  11.489   5.532  2.0304 -0.4704 -2.8581
  441MOL0     H59473   8.308  11.516   5.656 -3.1655 -0.5011  1.6473
  441MOL0     H59474   8.341  11.734   5.478 -2.2428  0.3203  0.7543
  441MOL0     H59475   8.337  11.578   5.382 -0.1550 -1.4550  0.6427
  441MOL0     H59476   8.514  11.503   5.498 -0.7791 -0.0141 -1.2786
  441MOL0     H59477   8.580  11.660   5.454  1.1087  0.2001  1.4120
  441MOL0     H59478   8.499  11.733   5.683 -1.1760  0.6318 -3.5656
  441MOL0     H59479   8.512  11.557   5.729  2.5930 -1.8866 -0.7100
  441MOL0     H59480   8.729  11.553   5.607  3.5097  0.6115 -0.7950
  441MOL0     H59481   8.725  11.737   5.607  0.5667 -1.0558  0.9070
  441MOL0     H59482   8.722  11.556   5.852  0.1451 -0.4829 -0.3548
  441MOL0     H59483   8.716  11.739   5.849  3.3511  1.7123 -1.6629
  441MOL0     H59484   8.928  11.647   5.897  1.0299  1.4444 -0.1699
  441MOL0     H59485   8.919  11.547   5.752  0.3263  0.9048 -3.7093
  441MOL0     H59486   8.946  11.902   5.872 -2.7554  1.8052 -0.5741
  441MOL0     H59487   9.105  12.099   5.797 -2.5674  1.0652  0.0571
  441MOL0     H59488   9.227  12.066   5.665  0.4620  1.3291  1.7934
  441MOL0     H59489   9.088  12.154   5.494  0.9937 -2.9598  0.6452
  441MOL0     H59490   8.945  12.150   5.594 -0.2750  0.8596  0.0353
  441MOL0     H59491   9.069  12.337   5.740 -2.9649 -0.8076 -0.1501
  441MOL0     H59492   9.009  12.380   5.587 -0.1644 -0.8259 -0.0672
  441MOL0     H59493   9.231  12.306   5.484 -1.7227 -0.4888  0.9628
  441MOL0     H59494   9.299  12.309   5.649  1.5245  2.4833  0.2268
  441MOL0     H59495   9.290  12.741   5.730  1.0106 -0.5011  0.8183
  441MOL0     H59496   9.485  12.834   5.752  1.1714  1.1423 -2.0537
  441MOL0     H59497   9.766  12.963   5.946  2.2558 -1.7258  3.8146
  441MOL0     H59498   9.947  13.094   6.033 -0.6320 -0.4053 -0.5863
  441MOL0     H59499  10.332  13.000   5.818 -0.6354 -0.8578  1.0990
  441MOL0     H59500  10.327  13.169   5.770  0.5819  0.4809  0.9808
  441MOL0     H59501  10.424  13.244   5.991  1.3696 -0.5789  1.5268
  441MOL0     H59502  10.405  13.074   6.046 -2.0046  1.8717  0.4082
  441MOL0     H59503  10.569  13.035   5.848  1.9144 -0.1883 -1.8719
  441MOL0     H59504  10.589  13.214   5.848  1.1583 -0.3697 -0.3688
  441MOL0     H59505  10.665  13.020   6.076  1.6128  0.1468 -0.2334
  441MOL0     H59506  10.670  13.201   6.086  0.0050  2.5502 -2.7279
  441MOL0     H59507  10.843  13.225   5.962 -3.0702  1.1756  2.1399
  441MOL0     H59508  10.824  13.077   5.869 -0.2996 -0.3933  0.0578
  441MOL0     H59509  10.931  13.123   6.157 -0.3620  1.6715 -0.8227
  441MOL0     H59510  10.902  12.957   6.094  0.7017  0.6401  1.0948
  441MOL0     H59511  11.073  13.135   5.916 -4.5108 -1.2777 -1.2438
  441MOL0     H59512  11.073  12.959   5.932 -2.3145 -1.3094  0.9665
  441MOL0     H59513  11.285  13.063   6.045 -0.6297  1.4416 -1.0105
  441MOL0     H59514  11.175  13.158   6.146 -0.0784  1.1404 -1.7915
  441MOL0     H59515  10.162  13.000   5.663 -1.5197 -0.2208 -2.1774
  441MOL0     H59516   9.948  12.899   5.580  1.8121 -1.1560  0.5223
  441MOL0     H59517   9.679  12.479   5.591  2.2947  3.0476  2.6035
  441MOL0     H59518   9.462  12.392   5.531 -4.0145 -0.8533  1.3890
  441MOL0     H59519   7.882  11.662   5.807  0.5241  0.4436  0.0401
  441MOL0     H59520   7.671  11.519   5.765  0.7902 -0.2366  1.9960
  441MOL0     H59521   7.354  11.399   5.536 -2.5720 -0.5904 -0.0397
  441MOL0     H59522   7.143  11.305   5.585 -1.5789 -0.5673 -2.2553
  441MOL0     H59523   6.974  11.168   5.522  1.7094  0.0112 -0.1053
  441MOL0     H59524   6.943  11.178   5.696  1.1993  0.5081 -1.0364
  441MOL0     H59525   6.882  10.927   5.528 -3.9543  1.5558 -0.4013
  441MOL0     H59526   6.771  11.046   5.590  2.3520  3.9578 -3.2286
  441MOL0     H59527   6.872  10.966   5.829  0.1333 -0.6539 -0.0687
  441MOL0     H59528   6.960  10.853   5.726  0.2658  1.6217  0.5942
  441MOL0     H59529   6.756  10.749   5.654 -2.6697 -2.5655  1.8858
  441MOL0     H59530   6.743  10.763   5.835  1.9202  2.8818  2.0498
  441MOL0     H59531   6.419  10.960   5.621  0.3372  1.1579 -1.7291
  441MOL0     H59532   7.304  10.919   5.628 -2.6158  0.1208 -0.3539
  441MOL0     H59533   7.574  10.902   5.490  0.1120  1.1842 -0.0689
  441MOL0     H59534   7.653  11.012   5.607  0.3113 -0.8546 -1.2870
  441MOL0     H59535   7.532  10.884   5.658 -0.8119 -3.7102 -2.5707
  442MOL0     O59536   9.205   9.663   0.935  0.7619 -0.2664 -0.0474
  442MOL0     C59537   9.172   9.725   0.838 -0.2153  0.0342 -0.5362
  442MOL0     O59538   9.048   9.725   0.782  0.0022  0.3931 -0.5182
  442MOL0     C59539   8.935   9.707   0.864 -1.1490  0.1025 -0.1823
  442MOL0     C59540   8.830   9.619   0.836  0.0026  0.6014  0.2785
  442MOL0     C59541   8.721   9.599   0.917 -0.8713  0.3446 -0.6756
  442MOL0     C59542   8.726   9.660   1.042  0.4205  0.5801 -1.0214
  442MOL0     O59543   8.623   9.631   1.137 -0.2532 -0.2745 -0.2098
  442MOL0     C59544   8.500   9.576   1.085  0.0951 -0.1010  0.2414
  442MOL0     C59545   8.405   9.572   1.195 -0.1287 -0.4124  0.8830
  442MOL0     C59546   8.248   9.547   1.160 -0.2985 -0.2024 -0.6268
  442MOL0     C59547   8.207   9.693   1.114  1.0476  0.6805 -0.6242
  442MOL0     C59548   8.076   9.682   1.031 -0.2999 -0.2954  0.0067
  442MOL0     C59549   8.024   9.812   0.997  1.3014 -0.2441  1.0160
  442MOL0     C59550   7.876   9.816   0.950  0.9882  0.5014  0.0942
  442MOL0     C59551   7.864   9.950   0.872 -0.4938  0.0364  0.0139
  442MOL0     N59552   7.719  10.000   0.862  0.1143 -1.2613  0.7995
  442MOL0     C59553   7.619  10.013   0.954 -0.6132 -0.5699 -0.9778
  442MOL0     C59554   7.512  10.046   0.888  0.6839  0.2296  0.0956
  442MOL0     C59555   7.369  10.060   0.943 -1.0281  0.2944  0.2536
  442MOL0     C59556   7.314   9.912   0.981 -0.0330 -0.0367  0.0833
  442MOL0     C59557   7.307   9.826   0.849 -0.0812  0.9276 -0.2562
  442MOL0     C59558   7.226   9.692   0.861 -0.0149 -0.4105 -0.2769
  442MOL0     O59559   7.253   9.618   0.970 -0.3742  0.3379 -0.5995
  442MOL0     C59560   7.375   9.549   0.988 -0.6255 -0.2936 -0.5363
  442MOL0     C59561   7.418   9.501   1.112  0.4061  0.3851  0.4207
  442MOL0     C59562   7.538   9.450   1.140 -0.8871 -0.1770 -0.2928
  442MOL0     C59563   7.622   9.412   1.037  0.7137 -1.2973 -0.5859
  442MOL0     C59564   7.748   9.349   1.059 -0.7619  1.1748 -0.5874
  442MOL0     O59565   7.845   9.333   0.961 -0.6134 -0.0055 -0.1080
  442MOL0     C59566   7.952   9.250   0.980  0.0185 -0.5911 -0.3268
  442MOL0     C59567   8.039   9.274   1.090 -0.7792 -0.6790  0.6907
  442MOL0     C59568   8.166   9.214   1.104  0.1359 -0.6260  0.1548
  442MOL0     C59569   8.223   9.139   1.002  0.2581 -0.1726  0.6823
  442MOL0     O59570   8.353   9.091   0.991  0.8495 -0.3685 -0.4651
  442MOL0     C59571   8.462   9.176   1.014  0.2773  0.0341  0.4135
  442MOL0     C59572   8.575   9.120   0.925 -0.8423 -0.0765 -0.1071
  442MOL0     C59573   8.709   9.198   0.935 -0.6509  0.0629 -0.2590
  442MOL0     C59574   8.794   9.166   0.809  0.0645  0.6687 -0.7809
  442MOL0     C59575   8.927   9.241   0.796  0.3890  0.0970 -1.0844
  442MOL0     C59576   8.997   9.239   0.658  0.2196  0.5191 -0.0562
  442MOL0     C59577   9.131   9.306   0.649  0.0520 -0.2336  0.3717
  442MOL0     C59578   9.182   9.308   0.504  0.1327  0.1253 -0.1134
  442MOL0    Cl59579   9.086   9.410   0.411  0.4476 -0.0200  0.4827
  442MOL0     C59580   8.140   9.115   0.888 -0.5545  0.3993  0.5680
  442MOL0     C59581   8.007   9.156   0.883 -0.1204 -0.6219  0.5416
  442MOL0     O59582   7.766   9.302   1.172  0.0064 -0.1591 -0.5220
  442MOL0     C59583   7.593   9.458   0.909 -0.1325 -0.2128 -0.4413
  442MOL0     C59584   7.474   9.533   0.884 -0.8272  0.5013 -0.6554
  442MOL0     N59585   7.546  10.056   0.759  0.4833  0.5627 -0.1848
  442MOL0     N59586   7.673  10.022   0.740  0.2517  0.6367 -0.5463
  442MOL0     C59587   8.828   9.754   1.073  0.4984  1.0309  0.5677
  442MOL0     C59588   8.939   9.777   0.992  0.2108  0.1460  0.7301
  442MOL0     C59589   9.285   9.762   0.754 -0.2079 -0.2913 -0.4618
  442MOL0     C59590   9.273   9.748   0.618 -0.4931  0.8680 -0.2138
  442MOL0     C59591   9.384   9.763   0.534 -0.8614 -0.0716 -0.6907
  442MOL0     C59592   9.512   9.804   0.580  0.7896 -0.6251  0.5664
  442MOL0     O59593   9.610   9.824   0.486 -0.6920 -1.0966 -0.6718
  442MOL0     C59594   9.734   9.869   0.533 -0.8421  0.3450  0.2334
  442MOL0     C59595   9.843   9.860   0.424  0.6695 -0.4793 -0.2323
  442MOL0     C59596   9.987   9.871   0.483 -0.1643  0.3531  0.5465
  442MOL0     C59597  10.095   9.940   0.392 -0.0974 -0.0574 -0.5517
  442MOL0     C59598  10.152   9.853   0.289 -0.0432  0.3997 -0.6495
  442MOL0     C59599  10.202   9.795   0.195 -0.6093  0.0377 -0.7718
  442MOL0     C59600   9.516   9.830   0.716 -0.4112 -0.6076  0.1367
  442MOL0     C59601   9.412   9.814   0.810  0.9521 -0.0404  0.5476
  442MOL0     C59602   9.428   9.849   0.955 -0.0506 -0.0071  0.6564
  442MOL0     H59603   8.837   9.571   0.739  4.8470 -1.5945  1.4059
  442MOL0     H59604   8.633   9.541   0.895 -1.8935 -0.3415  4.0377
  442MOL0     H59605   8.465   9.640   1.002  2.3624 -0.6617 -1.2396
  442MOL0     H59606   8.515   9.478   1.040  0.4745  1.4485 -3.4442
  442MOL0     H59607   8.429   9.661   1.254  0.1334  2.1446 -2.7746
  442MOL0     H59608   8.437   9.493   1.264  1.5544  1.7888  2.8095
  442MOL0     H59609   8.190   9.510   1.245 -0.0678  3.4618  1.3370
  442MOL0     H59610   8.250   9.476   1.076  3.7431  0.8096 -1.6003
  442MOL0     H59611   8.190   9.751   1.205  3.3990 -0.3878  0.5991
  442MOL0     H59612   8.282   9.742   1.050 -0.4793  0.2085 -2.8863
  442MOL0     H59613   8.093   9.630   0.936 -0.5021 -1.0065  0.3593
  442MOL0     H59614   8.006   9.620   1.087  0.6239 -1.5080 -0.1382
  442MOL0     H59615   8.038   9.878   1.083 -0.6054  2.4872 -0.6351
  442MOL0     H59616   8.094   9.844   0.919 -0.9110  1.7058 -0.2840
  442MOL0     H59617   7.801   9.814   1.029  0.8026 -3.8284  0.0094
  442MOL0     H59618   7.861   9.731   0.883  0.3501 -1.1758  2.2843
  442MOL0     H59619   7.912  10.031   0.929 -3.7062  1.8138  0.4512
  442MOL0     H59620   7.918   9.952   0.777 -0.7121 -3.7592 -0.3243
  442MOL0     H59621   7.608   9.992   1.059  0.1906  1.2111 -0.4947
  442MOL0     H59622   7.371  10.117   1.037  1.9927 -1.3127  1.3064
  442MOL0     H59623   7.306  10.110   0.869  1.6122  0.3523 -2.1179
  442MOL0     H59624   7.385   9.875   1.055 -0.9458 -4.2242 -0.8942
  442MOL0     H59625   7.221   9.930   1.036 -2.5546 -0.6920 -3.5833
  442MOL0     H59626   7.406   9.794   0.815 -0.5292 -2.3414  1.1511
  442MOL0     H59627   7.263   9.892   0.774 -1.7045  2.2110  1.7069
  442MOL0     H59628   7.243   9.628   0.775  2.7324 -1.7322  1.1372
  442MOL0     H59629   7.121   9.725   0.860  0.2005  0.3701 -2.7222
  442MOL0     H59630   7.349   9.508   1.196  0.1130 -1.7565  0.4200
  442MOL0     H59631   7.567   9.422   1.241  0.3158 -0.2344 -0.6303
  442MOL0     H59632   8.014   9.345   1.168  1.2860  0.2574  0.5546
  442MOL0     H59633   8.218   9.239   1.195  1.3626 -0.0966 -0.6615
  442MOL0     H59634   8.441   9.279   0.983 -0.7620 -0.7549 -1.7086
  442MOL0     H59635   8.502   9.175   1.115 -2.7233 -1.5442  1.7111
  442MOL0     H59636   8.601   9.020   0.961 -0.4292  0.2893  0.6445
  442MOL0     H59637   8.536   9.114   0.823  2.2182  2.9888 -1.6690
  442MOL0     H59638   8.682   9.304   0.940 -2.9888 -0.4396 -0.9111
  442MOL0     H59639   8.761   9.160   1.023 -2.6710 -2.9513 -0.2133
  442MOL0     H59640   8.737   9.184   0.717 -1.2296 -2.8796 -0.8344
  442MOL0     H59641   8.811   9.059   0.807 -0.3073  0.6112 -2.7156
  442MOL0     H59642   8.998   9.196   0.866  0.6831  2.7101  0.4414
  442MOL0     H59643   8.903   9.341   0.833 -0.1966 -0.5359  0.3255
  442MOL0     H59644   8.998   9.136   0.622 -0.9175 -0.0610  1.4745
  442MOL0     H59645   8.931   9.289   0.587  0.1921 -0.3239 -0.6352
  442MOL0     H59646   9.210   9.252   0.703  1.0326 -0.2953 -1.0532
  442MOL0     H59647   9.132   9.408   0.688  1.5508  0.5591 -1.5478
  442MOL0     H59648   9.284   9.346   0.495  0.8106 -1.2513  1.2735
  442MOL0     H59649   9.172   9.206   0.467  2.0536  0.7307 -2.5230
  442MOL0     H59650   8.184   9.055   0.808 -0.2718  1.9579 -0.4848
  442MOL0     H59651   7.951   9.141   0.792  0.1063 -1.0805  0.4757
  442MOL0     H59652   7.658   9.425   0.828 -1.8473  0.8988 -2.3660
  442MOL0     H59653   7.453   9.559   0.781 -0.0971  2.1744 -0.4104
  442MOL0     H59654   8.823   9.792   1.174  0.0680  1.1320  0.5113
  442MOL0     H59655   9.028   9.833   1.021 -0.1641  1.2522 -0.2089
  442MOL0     H59656   9.176   9.721   0.577 -1.0568 -0.6666  1.9637
  442MOL0     H59657   9.377   9.750   0.426  1.8453 -0.9801 -0.8313
  442MOL0     H59658   9.767   9.808   0.618 -0.6910 -1.7896 -1.2837
  442MOL0     H59659   9.747   9.972   0.568  3.3966 -0.0475  0.2921
  442MOL0     H59660   9.834   9.944   0.355  0.5439 -0.0639  0.2821
  442MOL0     H59661   9.836   9.765   0.369  2.1487 -3.2738  3.9257
  442MOL0     H59662  10.023   9.773   0.516  2.0799  0.3854 -1.5636
  442MOL0     H59663   9.994   9.941   0.567 -4.6349  0.0345  1.4506
  442MOL0     H59664  10.053  10.021   0.333 -1.7120 -0.2854  0.2134
  442MOL0     H59665  10.176   9.977   0.455  2.3043 -2.5498 -1.9658
  442MOL0     H59666  10.226   9.738   0.108 -2.8395 -0.2892 -1.2347
  442MOL0     H59667   9.615   9.857   0.753 -0.2893  0.7636 -1.1014
  442MOL0     H59668   9.331   9.863   1.004 -0.8461  2.1793 -1.3494
  442MOL0     H59669   9.493   9.773   1.000  0.1841  0.1973  0.6670
  442MOL0     H59670   9.497   9.935   0.961  2.3991 -1.3928 -3.4200
  443MOL0     O59671   5.884   1.159   6.117 -0.8120 -0.8294 -0.3629
  443MOL0     C59672   5.894   1.147   5.996 -0.2730  0.0365 -0.3935
  443MOL0     O59673   5.953   1.245   5.911 -0.9762 -0.5003 -0.2237
  443MOL0     C59674   6.026   1.343   5.976  0.5807 -0.5264 -0.6510
  443MOL0     C59675   6.111   1.327   6.087  0.8215  0.0913 -0.6443
  443MOL0     C59676   6.181   1.445   6.120 -0.3890  0.1627 -0.4421
  443MOL0     C59677   6.175   1.572   6.057 -0.5385 -0.0061  0.1071
  443MOL0     O59678   6.255   1.675   6.079  0.4198  0.5405 -0.6665
  443MOL0     C59679   6.368   1.671   6.167 -0.1448 -0.6794 -0.1609
  443MOL0     C59680   6.331   1.740   6.296  0.9538  0.8210 -0.0699
  443MOL0     C59681   6.461   1.771   6.377  0.1948  0.3800 -0.1818
  443MOL0     C59682   6.555   1.659   6.377  0.2284 -0.5591  0.3973
  443MOL0     C59683   6.660   1.693   6.478 -1.3463  0.1748 -0.3045
  443MOL0     C59684   6.779   1.598   6.499 -0.0226 -0.1740  0.6712
  443MOL0     C59685   6.863   1.633   6.629  0.8365 -0.1809  0.6935
  443MOL0     C59686   6.989   1.544   6.643  0.1786  1.3242  0.6498
  443MOL0     N59687   7.063   1.567   6.765 -0.5849  0.5655 -0.5460
  443MOL0     C59688   7.023   1.539   6.888 -0.4388 -0.5898 -0.7948
  443MOL0     C59689   7.085   1.636   6.964  0.0582 -0.1149 -0.0397
  443MOL0     C59690   7.061   1.664   7.100  0.7534  0.3471 -0.3655
  443MOL0     C59691   7.129   1.558   7.185 -0.0444  0.1502  0.1052
  443MOL0     C59692   7.284   1.526   7.150  0.4067 -0.6808 -0.4499
  443MOL0     C59693   7.381   1.646   7.170 -0.0279 -0.3947  0.0832
  443MOL0     O59694   7.407   1.659   7.309  0.0970  0.1019 -0.4932
  443MOL0     C59695   7.435   1.780   7.369  0.6058  1.3714  0.5405
  443MOL0     C59696   7.459   1.903   7.302 -0.1818 -0.0701 -0.5942
  443MOL0     C59697   7.498   2.008   7.368  0.5319 -0.4223 -0.6581
  443MOL0     C59698   7.506   2.012   7.508 -0.2611 -0.1428  0.2490
  443MOL0     C59699   7.536   2.149   7.575  0.4154 -0.5620  0.3849
  443MOL0     O59700   7.580   2.124   7.701  0.1826 -0.2859  0.2980
  443MOL0     C59701   7.617   2.220   7.784  0.3975 -0.8413 -0.5807
  443MOL0     C59702   7.573   2.351   7.804 -0.2019 -0.1147  1.2135
  443MOL0     C59703   7.631   2.433   7.899  0.5613  0.1726 -1.2743
  443MOL0     C59704   7.738   2.384   7.968 -0.9280 -0.2468 -0.5564
  443MOL0     O59705   7.803   2.438   8.075  0.0091 -0.4120  0.3355
  443MOL0     C59706   7.774   2.577   8.081  0.5588 -0.5144  0.2275
  443MOL0     C59707   7.875   2.647   8.174  0.5302 -0.5981 -0.1818
  443MOL0     C59708   7.805   2.676   8.303 -0.0964  0.1507  1.0366
  443MOL0     C59709   7.899   2.717   8.414  0.0880  0.2016 -0.4753
  443MOL0     C59710   7.848   2.730   8.551  1.0181 -1.0453  0.1921
  443MOL0     C59711   7.974   2.744   8.651 -0.7393 -0.1589  0.1523
  443MOL0     C59712   7.991   2.642   8.761 -0.3998  0.1198 -0.9330
  443MOL0     C59713   8.101   2.670   8.859  0.4156 -0.2970  0.7411
  443MOL0    Cl59714   8.255   2.680   8.769  0.0889 -0.3027  0.2056
  443MOL0     C59715   7.777   2.245   7.962 -0.0023  0.1416  0.1607
  443MOL0     C59716   7.710   2.162   7.874 -0.4204  0.0102  0.3115
  443MOL0     O59717   7.540   2.257   7.512  0.0632  0.5213  0.2732
  443MOL0     C59718   7.480   1.896   7.577 -0.8452 -0.2122  0.0235
  443MOL0     C59719   7.443   1.778   7.508 -0.0925  1.3194 -0.2645
  443MOL0     N59720   7.152   1.716   6.879  0.5226  0.6542 -0.1121
  443MOL0     N59721   7.156   1.663   6.766  0.1914  0.0743 -0.5365
  443MOL0     C59722   6.079   1.584   5.962 -0.3287  0.3198 -0.1748
  443MOL0     C59723   6.011   1.469   5.916  0.4002  0.5257  0.1253
  443MOL0     C59724   5.802   1.047   5.919 -0.9491  0.0949  0.9328
  443MOL0     C59725   5.832   1.023   5.784 -0.8116 -0.4960 -1.2912
  443MOL0     C59726   5.766   0.922   5.719 -0.7798  0.7262  0.3718
  443MOL0     C59727   5.655   0.853   5.768  0.0103  0.5132  1.0189
  443MOL0     O59728   5.592   0.756   5.688  0.8139 -0.7953 -0.4878
  443MOL0     C59729   5.484   0.683   5.749  0.0718 -0.4595  0.7465
  443MOL0     C59730   5.412   0.591   5.648 -0.3840 -0.3450  0.4186
  443MOL0     C59731   5.342   0.673   5.538  0.3412  0.2253 -0.4577
  443MOL0     C59732   5.275   0.601   5.420 -0.4322 -0.2642 -0.0439
  443MOL0     C59733   5.170   0.501   5.452 -0.1598 -0.1019 -0.0570
  443MOL0     C59734   5.087   0.417   5.477  0.7907 -0.0502  0.2889
  443MOL0     C59735   5.629   0.869   5.903 -1.2281  0.3858  0.9457
  443MOL0     C59736   5.704   0.962   5.984  0.5698 -0.5865 -0.0232
  443MOL0     C59737   5.666   0.966   6.132  0.2062  0.8321  0.1919
  443MOL0     H59738   6.138   1.237   6.142  0.3559 -0.4234 -1.2337
  443MOL0     H59739   6.250   1.424   6.202 -2.1317 -1.4226  0.6814
  443MOL0     H59740   6.406   1.569   6.183 -2.9517 -1.5841  1.3546
  443MOL0     H59741   6.448   1.730   6.121 -0.3064  2.6305  3.3122
  443MOL0     H59742   6.262   1.680   6.356 -0.0732  0.3262 -1.6703
  443MOL0     H59743   6.263   1.826   6.284 -0.1628  0.2917  1.9678
  443MOL0     H59744   6.427   1.786   6.480  1.0247 -3.4459  0.8041
  443MOL0     H59745   6.503   1.862   6.331  2.2013  2.2039  4.6033
  443MOL0     H59746   6.494   1.574   6.409 -2.6387  1.3041  0.2688
  443MOL0     H59747   6.601   1.648   6.278 -0.2414 -0.4691  0.1666
  443MOL0     H59748   6.713   1.783   6.445  0.1789 -1.0439 -1.3523
  443MOL0     H59749   6.619   1.703   6.579  0.8345 -1.3335  0.8197
  443MOL0     H59750   6.734   1.499   6.515 -0.0167 -0.3192 -0.1499
  443MOL0     H59751   6.837   1.585   6.408 -0.8644  0.4327  0.0341
  443MOL0     H59752   6.805   1.617   6.721  1.7816 -0.0668  1.3238
  443MOL0     H59753   6.905   1.732   6.613  0.6604  0.4485  3.5133
  443MOL0     H59754   6.965   1.438   6.629  0.5213  1.5207 -1.9119
  443MOL0     H59755   7.059   1.578   6.566 -0.7279  1.1726 -0.2758
  443MOL0     H59756   6.940   1.476   6.916 -1.5182 -0.7592 -3.9269
  443MOL0     H59757   7.103   1.762   7.124 -2.0888  1.3792  0.8731
  443MOL0     H59758   6.954   1.659   7.124  1.1336 -2.1182  1.1870
  443MOL0     H59759   7.134   1.582   7.292  1.1060  3.7497 -0.6211
  443MOL0     H59760   7.077   1.463   7.168  1.6579 -0.9435  0.7891
  443MOL0     H59761   7.293   1.498   7.045 -0.4000  1.0555 -1.0245
  443MOL0     H59762   7.314   1.446   7.218  0.9437 -0.8667 -0.8936
  443MOL0     H59763   7.339   1.730   7.114  0.5922 -1.0056 -1.3419
  443MOL0     H59764   7.477   1.623   7.123  0.9642  1.2575  1.2081
  443MOL0     H59765   7.467   1.892   7.195  1.0598 -0.8733 -0.4409
  443MOL0     H59766   7.523   2.089   7.300  3.5815 -2.2918 -1.9424
  443MOL0     H59767   7.484   2.367   7.743 -0.1802 -0.4047  1.1045
  443MOL0     H59768   7.598   2.535   7.914  2.8222  0.7236  0.6330
  443MOL0     H59769   7.779   2.623   7.982 -1.2855 -2.0788 -0.6612
  443MOL0     H59770   7.671   2.593   8.112  0.2050  0.4713 -1.3308
  443MOL0     H59771   7.955   2.576   8.194  0.5115 -0.1959  1.4841
  443MOL0     H59772   7.915   2.735   8.122 -2.2463 -0.1609 -1.7526
  443MOL0     H59773   7.733   2.756   8.284 -1.0269 -0.9867 -0.4038
  443MOL0     H59774   7.745   2.588   8.327  0.3584 -0.4462  0.0340
  443MOL0     H59775   7.953   2.807   8.384 -2.4431  2.1787  0.4895
  443MOL0     H59776   7.978   2.641   8.419  1.4726  1.6856  2.2270
  443MOL0     H59777   7.780   2.649   8.575 -0.3653 -0.4052 -1.3611
  443MOL0     H59778   7.794   2.823   8.571 -0.0784 -2.1335  2.5692
  443MOL0     H59779   8.061   2.726   8.587 -0.8462 -0.0687 -0.0221
  443MOL0     H59780   7.971   2.840   8.703  1.8615 -0.0960  0.3236
  443MOL0     H59781   8.002   2.546   8.709 -0.6652  1.2425 -3.1776
  443MOL0     H59782   7.907   2.640   8.831 -1.5118 -2.7284 -2.1883
  443MOL0     H59783   8.078   2.752   8.929 -1.7035  2.0534 -2.4212
  443MOL0     H59784   8.108   2.585   8.928 -1.9598 -0.3966  0.9341
  443MOL0     H59785   7.861   2.203   8.017 -0.4920 -1.5683 -0.3431
  443MOL0     H59786   7.738   2.058   7.859 -3.3113 -0.8614  0.3405
  443MOL0     H59787   7.488   1.886   7.684 -2.5248  1.5053  0.3565
  443MOL0     H59788   7.428   1.690   7.570 -1.9315  1.2029 -0.8285
  443MOL0     H59789   6.057   1.678   5.912 -2.7963 -0.1509 -0.0707
  443MOL0     H59790   5.948   1.480   5.828  0.8570 -2.5013 -0.6685
  443MOL0     H59791   5.912   1.080   5.737  0.7338  0.8129  2.4891
  443MOL0     H59792   5.779   0.886   5.617  0.5870  0.8022  0.5103
  443MOL0     H59793   5.411   0.752   5.793  0.4677  0.9547 -0.7562
  443MOL0     H59794   5.514   0.619   5.833  0.5735 -1.5043 -0.2028
  443MOL0     H59795   5.337   0.529   5.698 -1.3812 -1.7580 -2.6225
  443MOL0     H59796   5.471   0.517   5.594 -1.1399 -0.3026 -0.4802
  443MOL0     H59797   5.422   0.741   5.507  0.7869  0.3207  0.8431
  443MOL0     H59798   5.258   0.729   5.580  0.7647 -0.5497  1.4862
  443MOL0     H59799   5.226   0.666   5.347  0.1328 -0.9816 -1.0778
  443MOL0     H59800   5.351   0.544   5.367 -1.2916 -0.4730 -1.0915
  443MOL0     H59801   5.006   0.349   5.497 -0.5037  1.4339  0.2743
  443MOL0     H59802   5.559   0.799   5.946 -0.1601 -3.0555 -2.3239
  443MOL0     H59803   5.567   0.920   6.141  0.2676  1.1276  3.3262
  443MOL0     H59804   5.746   0.900   6.168 -0.1156  0.4268  0.1775
  443MOL0     H59805   5.664   1.065   6.177  5.0387  2.2650 -2.0857
  444MOL0     O59806   5.839   1.683   3.598  0.2643 -0.3718 -0.7622
  444MOL0     C59807   5.891   1.680   3.710  0.1005  0.6352  0.1633
  444MOL0     O59808   5.827   1.660   3.829 -0.4068 -0.6617 -0.2470
  444MOL0     C59809   5.691   1.626   3.826 -0.2245  0.0675 -0.2713
  444MOL0     C59810   5.634   1.619   3.955 -0.3755  0.5473 -0.0108
  444MOL0     C59811   5.507   1.583   3.979  0.6821  0.2521  0.6348
  444MOL0     C59812   5.420   1.560   3.875 -0.5336  0.7043 -1.0662
  444MOL0     O59813   5.294   1.542   3.908  0.1419  0.3207 -0.6877
  444MOL0     C59814   5.233   1.644   3.995 -1.1531  0.5377 -0.2765
  444MOL0     C59815   5.073   1.647   3.991  0.7754  0.0710 -0.4268
  444MOL0     C59816   5.009   1.509   4.012 -0.4901  0.9238  0.9967
  444MOL0     C59817   4.855   1.514   4.026 -0.0657 -0.1974 -0.1645
  444MOL0     C59818   4.803   1.372   4.021  0.1301 -0.2162  0.0513
  444MOL0     C59819   4.660   1.365   4.081  0.2931  0.6988  0.2030
  444MOL0     C59820   4.603   1.224   4.100 -0.7449  0.5573  0.2524
  444MOL0     C59821   4.456   1.210   4.137 -0.1034 -0.4649  0.3787
  444MOL0     N59822   4.376   1.284   4.038 -0.0530 -0.3455 -0.0866
  444MOL0     C59823   4.379   1.262   3.909 -0.2625  0.1626 -0.0433
  444MOL0     C59824   4.307   1.353   3.843 -0.0824  0.8334  0.3896
  444MOL0     C59825   4.285   1.370   3.698 -0.5423 -0.0722  0.6649
  444MOL0     C59826   4.425   1.382   3.627 -0.5887 -0.2717 -0.1494
  444MOL0     C59827   4.481   1.522   3.637  0.1638  0.3448 -0.2104
  444MOL0     C59828   4.615   1.542   3.576 -0.5128 -0.6742  0.1354
  444MOL0     O59829   4.715   1.487   3.657  0.2616 -0.3517 -0.6745
  444MOL0     C59830   4.842   1.526   3.612  0.3727  0.9096 -0.1031
  444MOL0     C59831   4.892   1.653   3.644 -0.5398  0.0368  0.9299
  444MOL0     C59832   5.009   1.693   3.569 -0.0125 -1.0761  0.2547
  444MOL0     C59833   5.069   1.611   3.474  0.0901  0.0108 -0.4237
  444MOL0     C59834   5.191   1.656   3.399 -0.4662  0.4173  0.3276
  444MOL0     O59835   5.259   1.770   3.442  0.2646 -0.2267  0.6193
  444MOL0     C59836   5.368   1.810   3.368  0.8509  0.3794  0.6135
  444MOL0     C59837   5.355   1.884   3.255 -0.4932 -0.0607  0.4210
  444MOL0     C59838   5.467   1.928   3.178  0.0843  0.4000 -0.0471
  444MOL0     C59839   5.591   1.889   3.219 -0.5956 -0.4964 -0.8597
  444MOL0     O59840   5.703   1.942   3.166 -0.2196  0.9601  0.4414
  444MOL0     C59841   5.780   1.850   3.088  0.8539 -0.3082 -0.4605
  444MOL0     C59842   5.875   1.919   2.995  0.0261  0.1969  0.0575
  444MOL0     C59843   5.981   1.983   3.087 -0.1186 -0.7004  0.2126
  444MOL0     C59844   6.070   2.084   3.010 -0.4215  0.3544 -0.4396
  444MOL0     C59845   6.158   2.174   3.105 -0.4024 -0.3383  0.4153
  444MOL0     C59846   6.240   2.093   3.205 -0.4505  0.3522  0.0050
  444MOL0     C59847   6.343   2.187   3.270 -0.3218 -0.8316  0.2866
  444MOL0     C59848   6.376   2.134   3.401 -0.0947 -0.3018 -1.0126
  444MOL0    Cl59849   6.489   2.243   3.482 -0.3332 -0.1072  0.1043
  444MOL0     C59850   5.611   1.824   3.334 -1.0585  0.4395  0.1648
  444MOL0     C59851   5.499   1.775   3.407  0.2714 -0.6932 -0.3194
  444MOL0     O59852   5.227   1.586   3.305 -0.0517 -0.9759  0.5109
  444MOL0     C59853   5.019   1.485   3.454 -0.0424  0.7446 -0.5987
  444MOL0     C59854   4.905   1.443   3.526 -0.1053  0.1678  0.2208
  444MOL0     N59855   4.267   1.439   3.935 -0.3975 -0.6727  0.2155
  444MOL0     N59856   4.311   1.403   4.049 -0.3827  0.1311 -0.6898
  444MOL0     C59857   5.470   1.555   3.751  0.5448  0.2065 -0.5312
  444MOL0     C59858   5.607   1.583   3.723 -0.7983  0.6839 -0.4573
  444MOL0     C59859   6.035   1.728   3.723  0.2269  0.5329  2.1185
  444MOL0     C59860   6.092   1.753   3.852  0.1369 -0.7317 -0.4094
  444MOL0     C59861   6.220   1.792   3.873  0.1830  0.4305  0.4284
  444MOL0     C59862   6.306   1.811   3.762 -0.5504  0.2873  0.5557
  444MOL0     O59863   6.443   1.834   3.767  0.2824 -0.3025  1.0845
  444MOL0     C59864   6.509   1.797   3.885 -0.1146  0.5918 -0.5404
  444MOL0     C59865   6.520   1.643   3.905  1.2841 -0.0367 -0.1868
  444MOL0     C59866   6.584   1.577   3.785 -0.2128  0.0874  0.2101
  444MOL0     C59867   6.592   1.419   3.798 -0.4895  0.7139  0.1427
  444MOL0     C59868   6.655   1.368   3.680  0.3568 -0.4019 -0.0414
  444MOL0     C59869   6.710   1.334   3.581 -0.1676 -0.4447  0.1162
  444MOL0     C59870   6.253   1.792   3.633  0.0561 -0.1291 -0.4299
  444MOL0     C59871   6.118   1.755   3.605  0.2439 -0.3909  0.4182
  444MOL0     C59872   6.076   1.764   3.462 -0.3836 -0.0144 -0.1633
  444MOL0     H59873   5.692   1.655   4.039 -0.2508 -1.2566  0.7199
  444MOL0     H59874   5.479   1.569   4.083  0.4542  1.2158  0.7084
  444MOL0     H59875   5.267   1.610   4.094 -0.9934 -3.4306 -1.5228
  444MOL0     H59876   5.274   1.741   3.965  4.1291 -1.6635 -1.2549
  444MOL0     H59877   5.054   1.671   3.886  0.9418  1.6277 -0.1299
  444MOL0     H59878   5.022   1.717   4.058 -1.0234 -2.9772  1.6374
  444MOL0     H59879   5.049   1.454   4.098 -0.6275 -1.1884 -0.2049
  444MOL0     H59880   5.029   1.440   3.929  1.9417  0.4357  1.8893
  444MOL0     H59881   4.831   1.556   4.125 -0.4698 -2.1780  0.6190
  444MOL0     H59882   4.806   1.577   3.952 -0.4534  1.8198  1.7063
  444MOL0     H59883   4.816   1.330   3.920  0.3137  2.2257 -1.0235
  444MOL0     H59884   4.863   1.306   4.084 -2.1861 -0.6799  1.8783
  444MOL0     H59885   4.642   1.420   4.174  0.2536 -2.7345  2.3945
  444MOL0     H59886   4.600   1.409   4.001 -0.8066 -1.0025  0.0229
  444MOL0     H59887   4.676   1.166   4.156  2.1389  2.1496 -1.5747
  444MOL0     H59888   4.616   1.175   4.003 -1.6536  0.9464 -0.0782
  444MOL0     H59889   4.422   1.106   4.137 -1.3182 -0.1073 -1.0813
  444MOL0     H59890   4.445   1.251   4.238 -1.1976  1.2642 -0.3825
  444MOL0     H59891   4.439   1.184   3.863 -1.9866 -0.1285 -1.9162
  444MOL0     H59892   4.233   1.282   3.659  0.2974 -0.8191  1.2042
  444MOL0     H59893   4.227   1.461   3.675  2.6178  2.0760  0.5382
  444MOL0     H59894   4.493   1.304   3.664 -1.0906 -0.7498 -0.2105
  444MOL0     H59895   4.414   1.369   3.519  0.3349  0.1105 -0.2940
  444MOL0     H59896   4.490   1.549   3.743  0.6411 -1.1550  0.1425
  444MOL0     H59897   4.409   1.592   3.594 -1.1251 -1.4766 -1.1322
  444MOL0     H59898   4.629   1.649   3.557 -2.6471 -0.1498  1.2691
  444MOL0     H59899   4.623   1.482   3.485 -1.8152 -2.6283  1.2449
  444MOL0     H59900   4.860   1.715   3.726  1.7995  2.2285  0.2921
  444MOL0     H59901   5.051   1.791   3.591 -1.5424 -0.8771  2.7096
  444MOL0     H59902   5.251   1.903   3.230 -0.3504 -0.9754 -0.9596
  444MOL0     H59903   5.441   1.993   3.094  0.2190 -0.7688 -1.0226
  444MOL0     H59904   5.841   1.779   3.145 -0.0062 -1.8878 -1.4164
  444MOL0     H59905   5.711   1.796   3.022  1.5316 -2.6662  0.6442
  444MOL0     H59906   5.925   1.847   2.930 -1.7253 -1.0870  0.0463
  444MOL0     H59907   5.829   1.998   2.934  3.5955  2.0919 -0.4570
  444MOL0     H59908   5.922   2.037   3.161 -2.7073 -0.2879 -2.0255
  444MOL0     H59909   6.052   1.911   3.130 -0.7074 -2.1672 -1.1731
  444MOL0     H59910   6.008   2.148   2.947 -1.3549  0.1341  0.2328
  444MOL0     H59911   6.138   2.030   2.943  1.8205  2.2815  0.1281
  444MOL0     H59912   6.087   2.236   3.162  0.1724  0.2423  0.5097
  444MOL0     H59913   6.222   2.235   3.041  0.0551 -1.8690 -0.6510
  444MOL0     H59914   6.177   2.042   3.280  0.8209 -0.2317  0.7176
  444MOL0     H59915   6.294   2.018   3.147 -0.8417 -0.6779  0.9365
  444MOL0     H59916   6.298   2.287   3.265  1.0941 -0.2253 -1.3004
  444MOL0     H59917   6.436   2.197   3.215  0.7656 -1.3720  1.9430
  444MOL0     H59918   6.285   2.140   3.461 -0.4350 -0.3638 -1.5192
  444MOL0     H59919   6.420   2.034   3.397 -0.3223 -0.4538 -0.0873
  444MOL0     H59920   5.710   1.804   3.374  0.6100  1.0751 -3.2443
  444MOL0     H59921   5.508   1.709   3.493  1.2892  1.0591  0.9853
  444MOL0     H59922   5.068   1.418   3.384 -0.9222 -2.5151  1.6941
  444MOL0     H59923   4.851   1.352   3.503  0.1792  0.7042 -3.1507
  444MOL0     H59924   5.407   1.523   3.668 -0.1742 -0.2224  0.1666
  444MOL0     H59925   5.631   1.575   3.617  0.1124 -0.1121 -0.2000
  444MOL0     H59926   6.022   1.731   3.932  0.0074  0.1136 -0.2890
  444MOL0     H59927   6.255   1.797   3.976  0.5585 -1.6285  0.4524
  444MOL0     H59928   6.452   1.832   3.972 -1.1450 -0.9880 -0.5223
  444MOL0     H59929   6.612   1.833   3.886 -0.3253  1.2515  1.1750
  444MOL0     H59930   6.420   1.599   3.906  1.3033 -0.0787 -0.1467
  444MOL0     H59931   6.561   1.611   4.001  1.2419  0.8017  0.1221
  444MOL0     H59932   6.687   1.613   3.790 -1.0614  2.9019 -0.5500
  444MOL0     H59933   6.530   1.601   3.693  1.2829 -0.5252 -0.8601
  444MOL0     H59934   6.639   1.379   3.889  1.6026 -2.7740 -2.2387
  444MOL0     H59935   6.494   1.371   3.791  0.8559 -2.0800 -0.4591
  444MOL0     H59936   6.768   1.325   3.491  0.8147 -1.2782  0.8067
  444MOL0     H59937   6.317   1.790   3.546  0.6122 -4.7090 -0.1547
  444MOL0     H59938   6.023   1.670   3.441 -0.4045 -0.3667  1.3921
  444MOL0     H59939   6.002   1.843   3.445  0.3808  0.4554 -1.4209
  444MOL0     H59940   6.161   1.784   3.395 -0.1242 -1.3766 -0.2714
  445MOL0     O59941   1.252   0.982   2.694  0.1858 -1.0092 -0.8366
  445MOL0     C59942   1.266   1.083   2.772  0.5504 -0.3399  0.2362
  445MOL0     O59943   1.165   1.160   2.814 -0.1207 -0.0378 -0.6933
  445MOL0     C59944   1.039   1.133   2.779  0.9493  0.6295  0.4356
  445MOL0     C59945   0.935   1.155   2.876 -0.2127 -0.7112  0.9622
  445MOL0     C59946   0.799   1.133   2.845 -0.5275 -0.0399 -0.3348
  445MOL0     C59947   0.764   1.101   2.713  0.3553  0.0737  0.9121
  445MOL0     O59948   0.630   1.086   2.693  0.3445  0.4440  0.1965
  445MOL0     C59949   0.578   1.060   2.559 -0.8744 -0.1673  0.0957
  445MOL0     C59950   0.428   1.077   2.561 -1.2565 -0.5713 -0.4482
  445MOL0     C59951   0.391   1.224   2.541  0.7843  0.6677  0.5558
  445MOL0     C59952   0.429   1.305   2.410 -1.2141  0.4649  0.1118
  445MOL0     C59953   0.368   1.436   2.428  0.8839  0.0995  0.4121
  445MOL0     C59954   0.343   1.513   2.298  0.1995  0.4683 -0.2642
  445MOL0     C59955   0.242   1.633   2.310 -0.0021 -0.2761  1.4488
  445MOL0     C59956   0.207   1.671   2.157 -0.2669 -0.2653 -0.9213
  445MOL0     N59957   0.068   1.725   2.138  0.2694  0.5754  0.0067
  445MOL0     C59958  -0.032   1.670   2.066  0.0502  0.5548  0.0937
  445MOL0     C59959  -0.136   1.754   2.056  0.3964 -0.2960  0.3076
  445MOL0     C59960  -0.267   1.714   1.984 -0.4186 -0.2979  0.7994
  445MOL0     C59961  -0.273   1.794   1.849 -0.9583  0.0691 -0.1345
  445MOL0     C59962  -0.158   1.766   1.751  0.4233  0.1541 -0.3520
  445MOL0     C59963  -0.180   1.635   1.676  0.7379  0.4983  0.9511
  445MOL0     O59964  -0.073   1.577   1.619 -0.3603 -0.4940  0.1756
  445MOL0     C59965   0.008   1.628   1.518 -0.4417  0.2063  0.2385
  445MOL0     C59966  -0.031   1.712   1.411 -0.3647 -0.7099 -0.5731
  445MOL0     C59967   0.064   1.756   1.323 -0.8556 -0.2915 -0.3877
  445MOL0     C59968   0.199   1.725   1.345 -0.5219  0.1460  0.4043
  445MOL0     C59969   0.303   1.785   1.257  0.1940  0.0470  0.0520
  445MOL0     O59970   0.265   1.902   1.190 -0.5213 -0.1389 -0.3125
  445MOL0     C59971   0.347   1.938   1.088  0.6761  0.2086  0.4092
  445MOL0     C59972   0.474   1.992   1.114  0.1523 -0.0141 -0.5349
  445MOL0     C59973   0.567   2.024   1.012 -0.1403  0.2068  0.4640
  445MOL0     C59974   0.527   1.993   0.881  1.3207  0.7379  0.1485
  445MOL0     O59975   0.605   2.028   0.772 -0.6050  0.0933 -0.6810
  445MOL0     C59976   0.754   2.021   0.794 -0.7598 -0.2335  0.3640
  445MOL0     C59977   0.859   1.974   0.678  0.0511 -0.6424 -0.4427
  445MOL0     C59978   1.006   2.005   0.711 -0.6174 -0.2631 -0.0132
  445MOL0     C59979   1.093   1.938   0.611  0.5456  0.5720  0.1496
  445MOL0     C59980   1.097   1.999   0.472  0.8173 -0.5556 -0.2512
  445MOL0     C59981   1.198   1.917   0.395  0.2240 -0.2990  0.2381
  445MOL0     C59982   1.198   1.959   0.243  0.0389 -0.3742 -0.0164
  445MOL0     C59983   1.240   2.113   0.229  0.0038  0.8929  0.5898
  445MOL0    Cl59984   1.332   2.137   0.074  0.0902 -0.3383 -0.2483
  445MOL0     C59985   0.399   1.932   0.854  0.4910 -0.3851 -0.0958
  445MOL0     C59986   0.307   1.914   0.955  0.4178 -0.6076 -0.2581
  445MOL0     O59987   0.414   1.741   1.261 -0.7082 -0.9781  0.4800
  445MOL0     C59988   0.233   1.618   1.436 -0.0201 -0.6073  1.2138
  445MOL0     C59989   0.134   1.570   1.525 -0.6936  0.1746  0.3093
  445MOL0     N59990  -0.103   1.869   2.127 -0.4550  0.2368 -0.2270
  445MOL0     N59991   0.018   1.842   2.182 -0.7115  0.1357  0.1549
  445MOL0     C59992   0.862   1.087   2.611 -0.0250  0.0822 -0.3460
  445MOL0     C59993   0.997   1.112   2.649  0.0603 -0.3901 -0.2778
  445MOL0     C59994   1.401   1.119   2.817 -0.7704  0.2176  0.2933
  445MOL0     C59995   1.510   1.031   2.791  0.3165  0.6893  0.1146
  445MOL0     C59996   1.636   1.066   2.826  0.1830  0.7698 -1.0646
  445MOL0     C59997   1.660   1.188   2.896  0.4909 -0.8050  0.0198
  445MOL0     O59998   1.783   1.229   2.938  0.1242 -0.3429 -0.0644
  445MOL0     C59999   1.889   1.205   2.862  0.1678 -0.4568  0.5386
  445MOL0     C60000   2.009   1.272   2.922 -0.7901 -0.1724  0.5359
  445MOL0     C60001   1.984   1.429   2.939  0.3410  0.8597 -0.6896
  445MOL0     C60002   2.120   1.508   2.960 -0.2509 -0.5696  0.2378
  445MOL0     C60003   2.108   1.654   2.975  0.2056  0.3750 -0.3206
  445MOL0     C60004   2.093   1.769   3.011  0.6951  0.3185 -0.0022
  445MOL0     C60005   1.550   1.274   2.915 -0.5709  0.2538  0.4692
  445MOL0     C60006   1.426   1.241   2.880  0.5746 -1.4076 -0.0679
  445MOL0     C60007   1.328   1.356   2.906  0.1305 -0.6022  0.7195
  445MOL0     H60008   0.965   1.174   2.978 -1.6921  0.7670  1.1802
  445MOL0     H60009   0.728   1.135   2.926 -1.6601 -1.5670 -1.2451
  445MOL0     H60010   0.616   1.136   2.489 -2.4688 -0.9865 -1.7677
  445MOL0     H60011   0.598   0.960   2.519 -1.8030 -0.3266  0.0195
  445MOL0     H60012   0.375   1.042   2.651 -2.6618 -1.2087 -1.4881
  445MOL0     H60013   0.382   1.026   2.477 -2.6382 -3.0683  1.6777
  445MOL0     H60014   0.421   1.277   2.632 -1.7899  1.1010  1.2460
  445MOL0     H60015   0.282   1.217   2.549  1.0678 -3.6315  3.5977
  445MOL0     H60016   0.536   1.318   2.391 -1.4593 -0.5147 -2.2909
  445MOL0     H60017   0.381   1.251   2.328  0.4232  2.5701 -2.3854
  445MOL0     H60018   0.264   1.433   2.462  0.2586 -0.6412 -1.3921
  445MOL0     H60019   0.419   1.488   2.509 -0.6626  0.5890  1.1125
  445MOL0     H60020   0.439   1.546   2.259 -0.0661 -1.2451 -2.5806
  445MOL0     H60021   0.300   1.452   2.219 -1.8411  1.8250 -0.2760
  445MOL0     H60022   0.293   1.714   2.363  2.3565 -0.5473 -0.2086
  445MOL0     H60023   0.152   1.598   2.360 -0.8553 -0.9789 -0.4714
  445MOL0     H60024   0.275   1.749   2.121  0.0268 -1.0227 -2.0594
  445MOL0     H60025   0.218   1.588   2.087  0.0745  1.1840 -2.6624
  445MOL0     H60026  -0.028   1.571   2.020 -3.5372  1.4657 -2.5546
  445MOL0     H60027  -0.277   1.606   1.972 -1.8253 -0.6827  4.3486
  445MOL0     H60028  -0.349   1.748   2.048 -1.3720  1.0623 -1.0480
  445MOL0     H60029  -0.370   1.781   1.799 -0.2603  1.6871 -2.0211
  445MOL0     H60030  -0.281   1.894   1.892  3.3379  0.8863 -0.8155
  445MOL0     H60031  -0.058   1.766   1.796  1.4124 -2.8363 -2.2283
  445MOL0     H60032  -0.168   1.841   1.672 -1.0350 -2.4867 -2.9192
  445MOL0     H60033  -0.246   1.662   1.593  0.3923 -2.0620  0.3140
  445MOL0     H60034  -0.224   1.561   1.742  3.4543 -2.8512 -0.6539
  445MOL0     H60035  -0.135   1.736   1.394 -0.0143  0.0839 -1.6779
  445MOL0     H60036   0.030   1.822   1.244 -0.9004  0.8961  0.5938
  445MOL0     H60037   0.495   2.010   1.219 -0.8633  2.0497 -0.6367
  445MOL0     H60038   0.660   2.073   1.035  0.4468 -1.2284  1.3095
  445MOL0     H60039   0.788   2.119   0.829  1.0734  0.3240 -2.6032
  445MOL0     H60040   0.764   1.952   0.878 -0.3353  0.4794  0.9104
  445MOL0     H60041   0.846   1.869   0.653 -1.1679 -0.3627 -1.0636
  445MOL0     H60042   0.832   2.036   0.591  1.6960 -0.4797 -0.8682
  445MOL0     H60043   1.025   2.110   0.732 -0.5056 -0.4673  0.9506
  445MOL0     H60044   1.039   1.965   0.807 -1.5910 -3.4369 -0.8702
  445MOL0     H60045   1.092   1.829   0.615  5.8151  0.1737 -1.7831
  445MOL0     H60046   1.188   1.947   0.665 -2.0089 -0.8572  5.5991
  445MOL0     H60047   1.127   2.103   0.487  1.2494 -0.1994 -3.0766
  445MOL0     H60048   0.995   1.996   0.432 -1.4116 -1.2918  4.7240
  445MOL0     H60049   1.302   1.940   0.420  1.5053  0.6040 -4.8305
  445MOL0     H60050   1.167   1.813   0.410 -1.4061  0.2829  1.1190
  445MOL0     H60051   1.102   1.941   0.194  0.4333 -2.0788 -0.2513
  445MOL0     H60052   1.277   1.899   0.195  0.4796  1.1316 -1.2574
  445MOL0     H60053   1.151   2.176   0.238 -1.3084 -0.5505 -1.4522
  445MOL0     H60054   1.315   2.138   0.305  2.5354  0.9255 -1.7569
  445MOL0     H60055   0.369   1.906   0.753  0.0301 -4.3923  0.8973
  445MOL0     H60056   0.216   1.857   0.939 -0.7821  1.4859 -1.2767
  445MOL0     H60057   0.336   1.585   1.445  0.3737  0.5345  1.1169
  445MOL0     H60058   0.164   1.500   1.602 -0.5515 -2.1333 -1.7208
  445MOL0     H60059   0.844   1.075   2.505 -2.9146 -0.1630  0.1062
  445MOL0     H60060   1.067   1.105   2.566  1.0412  2.1238  0.2438
  445MOL0     H60061   1.506   0.939   2.733 -3.4277  1.6017 -1.3222
  445MOL0     H60062   1.706   0.984   2.817  0.4862  0.6246  1.6578
  445MOL0     H60063   1.863   1.239   2.761  3.2195  1.1378  0.1900
  445MOL0     H60064   1.899   1.096   2.868  0.0941 -0.5476 -0.7469
  445MOL0     H60065   2.103   1.245   2.873 -1.2742 -0.4297 -0.2651
  445MOL0     H60066   2.022   1.237   3.025  2.8972  0.6177  0.4883
  445MOL0     H60067   1.922   1.436   3.029 -1.1422  0.3195 -1.6385
  445MOL0     H60068   1.934   1.462   2.848  0.1514  0.8766 -0.5802
  445MOL0     H60069   2.182   1.457   3.034  1.6635 -0.7618 -1.4233
  445MOL0     H60070   2.169   1.499   2.863 -1.0270 -0.7741 -0.1414
  445MOL0     H60071   2.103   1.873   3.031  2.2807 -0.1539  1.9374
  445MOL0     H60072   1.584   1.369   2.956  2.9865 -0.0017 -1.4353
  445MOL0     H60073   1.246   1.325   2.970 -1.4443  0.5013 -0.6698
  445MOL0     H60074   1.379   1.440   2.955 -0.2889 -0.5730  1.1044
  445MOL0     H60075   1.285   1.390   2.811 -2.4263 -1.8677  1.3436
  446MOL0     O60076   1.954   3.136   6.612  0.3815  0.1886  0.2870
  446MOL0     C60077   1.962   3.213   6.518  0.5822 -0.0166 -0.6449
  446MOL0     O60078   2.070   3.231   6.434 -0.8179 -0.0693  0.2019
  446MOL0     C60079   2.160   3.134   6.435 -0.0024 -0.2849 -0.0596
  446MOL0     C60080   2.146   3.023   6.352  0.0475 -0.0328  0.9718
  446MOL0     C60081   2.249   2.927   6.337  0.5102  0.3218  0.4272
  446MOL0     C60082   2.361   2.934   6.418  0.1069 -0.3824  0.2494
  446MOL0     O60083   2.451   2.830   6.411 -0.3306  0.5623 -0.4934
  446MOL0     C60084   2.541   2.817   6.517 -0.8149  0.4282 -0.2703
  446MOL0     C60085   2.610   2.681   6.509 -0.0343  0.2598  0.2316
  446MOL0     C60086   2.533   2.559   6.450  0.3692 -0.4394 -0.2256
  446MOL0     C60087   2.427   2.516   6.553 -0.3924 -0.0079 -0.1955
  446MOL0     C60088   2.371   2.383   6.510 -0.1154  0.0353 -0.4617
  446MOL0     C60089   2.440   2.269   6.593  0.7378 -0.1498 -0.0324
  446MOL0     C60090   2.347   2.136   6.579 -1.3083 -0.7824 -0.5035
  446MOL0     C60091   2.349   2.077   6.442  0.0034  0.1983  0.1050
  446MOL0     N60092   2.487   2.040   6.382  0.0148 -1.0928 -0.7987
  446MOL0     C60093   2.522   2.077   6.254 -0.1418  0.0569 -0.1980
  446MOL0     C60094   2.650   2.039   6.252  0.2644  0.4000  0.6111
  446MOL0     C60095   2.733   2.021   6.129 -0.0471  0.0069  0.6996
  446MOL0     C60096   2.682   1.900   6.052  0.5103 -0.3273 -0.1813
  446MOL0     C60097   2.706   1.765   6.130  0.4029  0.1918  0.1724
  446MOL0     C60098   2.657   1.650   6.049  0.3108 -0.0811  0.2100
  446MOL0     O60099   2.736   1.630   5.925 -0.3646  0.4672 -0.2528
  446MOL0     C60100   2.876   1.623   5.946 -0.0190 -0.2866  0.1528
  446MOL0     C60101   2.923   1.543   6.050  0.1049  0.5089 -0.2206
  446MOL0     C60102   3.065   1.538   6.071  0.0436 -0.7133 -0.7816
  446MOL0     C60103   3.153   1.593   5.988 -1.0903  0.5560 -0.2089
  446MOL0     C60104   3.296   1.563   5.996  0.6790  0.6501 -0.2346
  446MOL0     O60105   3.342   1.540   6.126  0.2261  0.0851  0.1083
  446MOL0     C60106   3.471   1.502   6.147  0.1663  0.6025 -0.2286
  446MOL0     C60107   3.553   1.423   6.061  0.8765  0.1012 -1.1005
  446MOL0     C60108   3.679   1.365   6.097  0.2733  0.4106  0.0378
  446MOL0     C60109   3.735   1.399   6.225 -0.5955  0.5970  0.6283
  446MOL0     O60110   3.861   1.356   6.253  0.2836 -0.6364  0.6625
  446MOL0     C60111   3.913   1.358   6.389  0.0168  0.3266  0.5672
  446MOL0     C60112   4.060   1.322   6.383  0.8799  0.5696 -0.1286
  446MOL0     C60113   4.135   1.403   6.277 -0.6581 -0.0359  1.1495
  446MOL0     C60114   4.290   1.422   6.309  0.9647 -0.3568 -0.3584
  446MOL0     C60115   4.349   1.540   6.229  0.1106 -0.4743 -1.3252
  446MOL0     C60116   4.493   1.596   6.259 -0.6043  0.3103  0.0459
  446MOL0     C60117   4.529   1.715   6.178 -0.1730 -0.3271  0.1746
  446MOL0     C60118   4.531   1.698   6.033  0.6406  0.3412  1.1268
  446MOL0    Cl60119   4.629   1.564   5.986 -0.9134 -0.4635 -0.1027
  446MOL0     C60120   3.655   1.473   6.310 -0.7051 -0.2743  0.1405
  446MOL0     C60121   3.522   1.518   6.277 -0.1491 -0.1743  0.9138
  446MOL0     O60122   3.358   1.562   5.890  0.8834 -0.1531 -0.6630
  446MOL0     C60123   3.109   1.672   5.887  1.0313  0.3484 -0.1736
  446MOL0     C60124   2.969   1.697   5.869 -0.0862  0.0010 -0.3149
  446MOL0     N60125   2.681   1.999   6.377 -0.1894 -0.3010  0.1264
  446MOL0     N60126   2.590   2.004   6.454 -0.3564  0.0460  0.3684
  446MOL0     C60127   2.360   3.030   6.524  0.2499 -0.3808  0.3249
  446MOL0     C60128   2.265   3.129   6.526  0.6426  0.5437 -0.2088
  446MOL0     C60129   1.852   3.293   6.474  0.1401 -0.5200  0.2543
  446MOL0     C60130   1.848   3.327   6.337  0.4074 -0.6919  1.0128
  446MOL0     C60131   1.737   3.389   6.275  0.0202 -0.7314  0.4302
  446MOL0     C60132   1.632   3.434   6.351 -0.0057  0.2167 -0.6643
  446MOL0     O60133   1.535   3.490   6.270 -0.1269  0.9036  0.0438
  446MOL0     C60134   1.400   3.483   6.329 -0.6183 -0.7923 -1.7531
  446MOL0     C60135   1.300   3.451   6.222  0.0405  0.7482 -0.0212
  446MOL0     C60136   1.320   3.311   6.150  0.2505 -0.3257 -0.3907
  446MOL0     C60137   1.200   3.280   6.067 -0.6500  0.3150  0.1514
  446MOL0     C60138   1.179   3.134   6.052  1.4288 -1.0967 -0.4064
  446MOL0     C60139   1.136   3.021   6.030 -0.3716 -0.6245 -0.1229
  446MOL0     C60140   1.634   3.408   6.492  0.1778  0.4924  0.1940
  446MOL0     C60141   1.747   3.351   6.549 -0.6244  0.1331 -0.7134
  446MOL0     C60142   1.746   3.342   6.704  0.0708 -0.5039 -0.0210
  446MOL0     H60143   2.071   3.020   6.273  0.0766 -0.5957  0.9602
  446MOL0     H60144   2.253   2.849   6.262  0.1535  0.9539 -0.2571
  446MOL0     H60145   2.616   2.897   6.517  1.8341 -1.8708  0.1808
  446MOL0     H60146   2.487   2.816   6.613 -3.0150  2.3227 -1.3968
  446MOL0     H60147   2.662   2.655   6.602 -2.5810 -0.9872  1.4000
  446MOL0     H60148   2.690   2.691   6.435  0.0249 -0.1255  0.2415
  446MOL0     H60149   2.598   2.472   6.439 -0.8593 -2.1589  3.9522
  446MOL0     H60150   2.490   2.586   6.353  2.3541 -3.0542 -1.9762
  446MOL0     H60151   2.476   2.510   6.651 -1.9531 -0.8613  0.5769
  446MOL0     H60152   2.343   2.585   6.571  0.5630  2.0751 -3.0502
  446MOL0     H60153   2.265   2.390   6.537  0.1236  1.5263  0.1753
  446MOL0     H60154   2.367   2.372   6.401  0.0170 -0.9920 -0.3751
  446MOL0     H60155   2.537   2.244   6.548  0.7878  0.2770 -0.1628
  446MOL0     H60156   2.458   2.292   6.698 -2.3691 -0.7081  0.7121
  446MOL0     H60157   2.244   2.169   6.596 -1.2131 -0.5867 -0.3039
  446MOL0     H60158   2.372   2.061   6.654 -0.7779 -0.4413 -0.3318
  446MOL0     H60159   2.282   1.993   6.464 -0.5160  0.8286  0.9882
  446MOL0     H60160   2.295   2.150   6.381 -0.3525 -0.9823 -1.0271
  446MOL0     H60161   2.465   2.103   6.166  0.5268  3.9213  0.3053
  446MOL0     H60162   2.737   2.111   6.067 -0.2006 -1.0897 -0.9499
  446MOL0     H60163   2.836   1.991   6.149  0.4081 -0.2712 -1.7950
  446MOL0     H60164   2.578   1.929   6.035  0.4501  1.4987  2.6076
  446MOL0     H60165   2.741   1.899   5.960  2.5219  0.4739  1.0210
  446MOL0     H60166   2.645   1.774   6.221 -0.4207  2.9486 -0.5660
  446MOL0     H60167   2.809   1.753   6.164 -0.4317 -1.2325  2.4261
  446MOL0     H60168   2.555   1.666   6.012  1.0002  0.9646 -1.3612
  446MOL0     H60169   2.634   1.566   6.115  1.6685  0.1904  1.0653
  446MOL0     H60170   2.849   1.476   6.091 -0.5575  1.7575  0.7088
  446MOL0     H60171   3.108   1.478   6.151  2.7883  1.6887 -0.2539
  446MOL0     H60172   3.517   1.387   5.965 -1.8507  1.0400 -0.5276
  446MOL0     H60173   3.736   1.307   6.026 -1.3511 -0.6896 -0.4155
  446MOL0     H60174   3.915   1.456   6.438  3.2543  0.1764  0.9452
  446MOL0     H60175   3.860   1.286   6.452  3.0695 -1.6216  1.1218
  446MOL0     H60176   4.102   1.340   6.483  4.5697  0.5056 -1.4965
  446MOL0     H60177   4.082   1.215   6.379 -0.0648  0.0967  3.4918
  446MOL0     H60178   4.118   1.341   6.189  0.7443 -0.2509  1.0158
  446MOL0     H60179   4.093   1.504   6.268  1.6633  0.9872  1.0698
  446MOL0     H60180   4.346   1.329   6.296 -0.3781 -1.2167 -0.2440
  446MOL0     H60181   4.302   1.455   6.413 -1.9322  3.2895 -0.9919
  446MOL0     H60182   4.288   1.631   6.240  3.2454  1.7134 -0.7869
  446MOL0     H60183   4.348   1.512   6.123  0.1126 -2.1367 -0.9157
  446MOL0     H60184   4.495   1.621   6.365 -0.6030  1.4786 -0.2146
  446MOL0     H60185   4.569   1.519   6.239 -1.5032 -0.3430 -0.9960
  446MOL0     H60186   4.620   1.769   6.208  1.8188 -2.4966 -1.6398
  446MOL0     H60187   4.454   1.794   6.193  2.9085  3.3763 -2.1329
  446MOL0     H60188   4.433   1.683   5.988  0.0459 -1.1192  2.7770
  446MOL0     H60189   4.575   1.787   5.987 -3.6080  1.9857 -0.3193
  446MOL0     H60190   3.698   1.490   6.408  1.3874  1.8901 -1.0631
  446MOL0     H60191   3.462   1.579   6.344  1.5271  0.6673  1.6979
  446MOL0     H60192   3.165   1.718   5.806  1.3658 -0.5226 -0.4562
  446MOL0     H60193   2.940   1.761   5.786  0.3741 -0.2669 -0.6826
  446MOL0     H60194   2.442   3.042   6.594 -1.1773  0.8256  1.8899
  446MOL0     H60195   2.263   3.218   6.588  2.2776  0.1515  0.4682
  446MOL0     H60196   1.918   3.296   6.261 -1.1296 -3.6500  0.6585
  446MOL0     H60197   1.715   3.412   6.171 -1.5635 -0.0209  0.8827
  446MOL0     H60198   1.375   3.580   6.372  2.0868  0.8924 -3.6384
  446MOL0     H60199   1.400   3.413   6.413  1.5299  1.1115 -0.0213
  446MOL0     H60200   1.284   3.537   6.155 -5.1813 -0.2214 -0.4199
  446MOL0     H60201   1.206   3.441   6.277 -0.1090 -0.6401 -0.5003
  446MOL0     H60202   1.344   3.244   6.233 -0.0375  1.3915  1.1465
  446MOL0     H60203   1.411   3.310   6.088  0.5861 -0.4171  0.0917
  446MOL0     H60204   1.105   3.322   6.103 -1.2304 -0.4064 -0.5037
  446MOL0     H60205   1.203   3.323   5.967 -1.1499  2.3844  0.9844
  446MOL0     H60206   1.121   2.915   6.023  0.9252 -0.9274  1.1209
  446MOL0     H60207   1.551   3.436   6.556 -1.5702  2.0828 -2.5395
  446MOL0     H60208   1.794   3.421   6.763 -0.4984  0.4326 -0.7932
  446MOL0     H60209   1.640   3.344   6.734 -0.3938  1.6272 -1.5821
  446MOL0     H60210   1.787   3.246   6.736 -3.4123 -1.6494  1.6240
  447MOL0     O60211   2.712   3.675  11.060  0.0704  0.2125  0.0732
  447MOL0     C60212   2.639   3.668  10.967 -0.1291 -0.4838 -0.3113
  447MOL0     O60213   2.676   3.667  10.837  0.7589  0.7779  0.4095
  447MOL0     C60214   2.803   3.631  10.805  0.6519  0.1854  0.5139
  447MOL0     C60215   2.875   3.730  10.740 -0.7664 -0.2938  0.2405
  447MOL0     C60216   3.003   3.679  10.689  0.8115  0.2760  0.3788
  447MOL0     C60217   3.046   3.545  10.698 -0.7755  1.0160 -0.4284
  447MOL0     O60218   3.166   3.509  10.640 -0.6551  0.0588  0.5011
  447MOL0     C60219   3.145   3.481  10.499 -0.5041  0.0935  0.1672
  447MOL0     C60220   3.271   3.503  10.408  0.3486 -0.3717  0.5631
  447MOL0     C60221   3.396   3.434  10.473  0.9642 -0.4765 -0.1472
  447MOL0     C60222   3.512   3.461  10.376 -0.2042 -0.1441  0.1341
  447MOL0     C60223   3.652   3.433  10.432 -0.3775 -0.1692 -1.1301
  447MOL0     C60224   3.783   3.465  10.357 -0.5567 -0.4796 -0.5156
  447MOL0     C60225   3.816   3.363  10.259 -0.8046  0.0849  0.3177
  447MOL0     C60226   3.941   3.396  10.181 -0.1017  0.2119 -0.1264
  447MOL0     N60227   4.062   3.442  10.258  1.1060 -0.1755 -0.6310
  447MOL0     C60228   4.134   3.362  10.340 -0.1163 -0.6001  0.3977
  447MOL0     C60229   4.214   3.448  10.403  0.6970 -0.0535 -0.6061
  447MOL0     C60230   4.308   3.394  10.510  0.2856  0.1074  0.4868
  447MOL0     C60231   4.389   3.494  10.591 -0.4184  0.4697 -0.0926
  447MOL0     C60232   4.460   3.600  10.500 -0.4359  0.5662 -0.0588
  447MOL0     C60233   4.594   3.536  10.452  0.6588 -0.2718 -0.1055
  447MOL0     O60234   4.693   3.528  10.561 -0.0862  0.9674  0.8353
  447MOL0     C60235   4.785   3.626  10.571 -0.6713 -0.1288 -0.0511
  447MOL0     C60236   4.756   3.758  10.524 -0.4604  0.8508 -0.8375
  447MOL0     C60237   4.853   3.855  10.539 -0.5490 -0.5588  0.0393
  447MOL0     C60238   4.975   3.831  10.602 -0.4939 -0.2976 -0.0447
  447MOL0     C60239   5.084   3.939  10.623  0.6143  0.1879 -0.0799
  447MOL0     O60240   5.194   3.885  10.675 -0.7441 -0.1828  0.1736
  447MOL0     C60241   5.288   3.973  10.717 -0.0059  0.3896  0.6187
  447MOL0     C60242   5.408   3.969  10.647  0.0216  0.8795  0.5617
  447MOL0     C60243   5.514   4.056  10.687  0.3497 -0.7944  1.1152
  447MOL0     C60244   5.516   4.124  10.802 -0.2219  0.3693 -0.3406
  447MOL0     O60245   5.621   4.193  10.854 -0.9303 -0.1061 -0.4477
  447MOL0     C60246   5.752   4.181  10.798 -0.7538 -0.9856  1.2279
  447MOL0     C60247   5.816   4.318  10.804  0.3910 -0.5203 -0.5625
  447MOL0     C60248   5.970   4.315  10.774 -0.3780 -1.2773  0.3409
  447MOL0     C60249   5.997   4.351  10.623  0.7212  0.2946  0.3340
  447MOL0     C60250   6.145   4.318  10.597  0.1368 -0.6184 -0.0791
  447MOL0     C60251   6.211   4.375  10.467 -0.1816  1.0177  0.3918
  447MOL0     C60252   6.177   4.285  10.347 -0.3183 -0.4291 -0.8775
  447MOL0     C60253   6.206   4.361  10.224  0.1152  0.2636  0.5481
  447MOL0    Cl60254   6.377   4.367  10.194  0.0514  0.2972  0.0804
  447MOL0     C60255   5.399   4.120  10.877  0.0241 -0.7661 -0.0016
  447MOL0     C60256   5.283   4.054  10.830 -0.4322  0.2843 -0.0284
  447MOL0     O60257   5.057   4.056  10.601  0.0827 -0.0681 -0.8349
  447MOL0     C60258   5.006   3.698  10.630  0.6063  0.1624  0.6152
  447MOL0     C60259   4.910   3.601  10.618 -0.3321  0.4494  0.1240
  447MOL0     N60260   4.175   3.577  10.368 -0.6940  0.9847  0.2950
  447MOL0     N60261   4.094   3.578  10.271  0.3257 -0.3290  0.3035
  447MOL0     C60262   2.967   3.455  10.756 -0.2395  0.8211 -0.4916
  447MOL0     C60263   2.839   3.496  10.796  0.0515  0.6695  0.2237
  447MOL0     C60264   2.501   3.686  10.991 -0.4356 -0.2863 -0.0087
  447MOL0     C60265   2.444   3.790  10.922 -0.2008 -0.0501 -0.6752
  447MOL0     C60266   2.314   3.839  10.954 -0.1748 -0.4352 -0.1711
  447MOL0     C60267   2.234   3.769  11.049  0.1091  0.1093  0.1590
  447MOL0     O60268   2.104   3.809  11.080 -0.7867 -0.0255  0.4144
  447MOL0     C60269   2.099   3.945  11.126 -0.5326 -0.5684  0.1488
  447MOL0     C60270   2.185   3.985  11.251 -0.2781 -0.0551 -0.1178
  447MOL0     C60271   2.144   3.926  11.384  0.3004 -0.6217 -0.4011
  447MOL0     C60272   2.220   3.979  11.504  0.3312 -0.7331 -0.2123
  447MOL0     C60273   2.224   4.123  11.523  0.3255 -0.3268  0.9828
  447MOL0     C60274   2.240   4.246  11.547  0.1018  0.3417  0.1388
  447MOL0     C60275   2.300   3.660  11.107  0.7657 -0.4284  0.0080
  447MOL0     C60276   2.423   3.616  11.085  0.5628  0.6373 -0.1540
  447MOL0     C60277   2.476   3.498  11.161  0.0183 -0.6522 -0.2431
  447MOL0     H60278   2.835   3.829  10.725  0.8234  0.2148 -0.9834
  447MOL0     H60279   3.066   3.736  10.622  2.9067 -0.5751  1.4959
  447MOL0     H60280   3.109   3.378  10.492  0.2123 -0.0926 -1.2699
  447MOL0     H60281   3.067   3.544  10.457  1.0666  2.0793  0.0513
  447MOL0     H60282   3.289   3.611  10.407  1.9306 -0.6135  0.4716
  447MOL0     H60283   3.265   3.461  10.307  3.3520 -1.9783  0.9343
  447MOL0     H60284   3.372   3.328  10.490 -0.6313 -0.7847 -3.4225
  447MOL0     H60285   3.424   3.479  10.569  1.0469 -1.6410  0.3963
  447MOL0     H60286   3.503   3.406  10.282 -0.3102  0.4352 -0.1962
  447MOL0     H60287   3.507   3.567  10.351 -0.2958 -0.3815 -0.8637
  447MOL0     H60288   3.657   3.472  10.534  0.3903  0.2212 -1.3151
  447MOL0     H60289   3.641   3.325  10.444 -0.1726  0.0479  1.3998
  447MOL0     H60290   3.773   3.561  10.305  1.7335 -0.3256 -0.7606
  447MOL0     H60291   3.868   3.476  10.426  1.7996 -2.2335 -2.9474
  447MOL0     H60292   3.728   3.333  10.202  0.2313 -4.5853  0.8013
  447MOL0     H60293   3.836   3.265  10.301 -1.3621 -0.4808 -0.6960
  447MOL0     H60294   3.959   3.296  10.139 -0.6058 -0.6161  1.5461
  447MOL0     H60295   3.918   3.477  10.110  0.7763  0.3559 -0.2527
  447MOL0     H60296   4.119   3.256  10.363 -1.2410 -0.8304 -1.2634
  447MOL0     H60297   4.245   3.334  10.575 -0.8167 -0.4105 -0.9973
  447MOL0     H60298   4.377   3.325  10.461 -0.0880 -0.3946  0.6584
  447MOL0     H60299   4.307   3.544  10.645 -1.5000  0.1363 -1.3644
  447MOL0     H60300   4.450   3.442  10.665  2.2645 -0.8361 -3.0313
  447MOL0     H60301   4.474   3.693  10.557  1.0636  1.0886 -1.2144
  447MOL0     H60302   4.404   3.634  10.413 -0.3732 -3.8756 -2.0970
  447MOL0     H60303   4.637   3.601  10.375  2.4562 -0.9302  0.2846
  447MOL0     H60304   4.576   3.438  10.405 -0.7272  0.1481 -0.4988
  447MOL0     H60305   4.658   3.770  10.478 -0.8956 -1.5738 -0.6891
  447MOL0     H60306   4.839   3.957  10.505  2.8233  1.7323  4.5788
  447MOL0     H60307   5.434   3.908  10.561  0.7230 -0.1821  1.4899
  447MOL0     H60308   5.601   4.055  10.623  1.7386  1.6672  2.8003
  447MOL0     H60309   5.810   4.111  10.859 -1.1189 -1.7792  0.6837
  447MOL0     H60310   5.759   4.162  10.691 -2.1607  0.7744  0.7731
  447MOL0     H60311   5.773   4.384  10.728  1.3733 -0.7464 -1.3368
  447MOL0     H60312   5.802   4.362  10.903  2.6180  1.8929 -1.1927
  447MOL0     H60313   6.027   4.387  10.834  0.5985 -0.6194 -1.3008
  447MOL0     H60314   6.000   4.213  10.799  5.3703 -0.5980 -2.1859
  447MOL0     H60315   5.984   4.457  10.598  1.6370  0.3626  0.1144
  447MOL0     H60316   5.927   4.284  10.572  2.0840 -2.0167  1.3527
  447MOL0     H60317   6.164   4.211  10.613  1.6184 -0.5421 -1.0456
  447MOL0     H60318   6.193   4.362  10.685 -0.3371 -1.2404  0.5036
  447MOL0     H60319   6.166   4.473  10.449  0.1889  1.4117  1.5426
  447MOL0     H60320   6.320   4.375  10.475 -0.0524 -3.1473  0.7606
  447MOL0     H60321   6.070   4.263  10.344 -0.7062  1.1076  0.3088
  447MOL0     H60322   6.233   4.192  10.354  1.0978  0.3496 -1.3928
  447MOL0     H60323   6.168   4.305  10.138  0.4131  0.1025  0.5209
  447MOL0     H60324   6.156   4.457  10.240 -1.7555 -0.7986  1.4787
  447MOL0     H60325   5.378   4.154  10.977 -3.4299  0.0612 -0.8910
  447MOL0     H60326   5.197   4.066  10.894 -1.1014  0.6151 -0.9712
  447MOL0     H60327   5.104   3.673  10.669  0.9664 -0.2526 -0.5192
  447MOL0     H60328   4.924   3.495  10.639 -2.9641 -0.2864 -1.3121
  447MOL0     H60329   3.009   3.356  10.749  1.6075  1.1878  3.0809
  447MOL0     H60330   2.770   3.416  10.819  0.2694  0.3822 -0.1197
  447MOL0     H60331   2.511   3.840  10.852  3.2741 -0.9479  1.7415
  447MOL0     H60332   2.274   3.921  10.895  0.9678 -0.9149 -1.6729
  447MOL0     H60333   1.995   3.959  11.159  0.0460 -1.0505  2.3754
  447MOL0     H60334   2.110   4.014  11.042 -1.5115  0.5712  0.9282
  447MOL0     H60335   2.179   4.094  11.244  1.0859 -0.0603 -2.5834
  447MOL0     H60336   2.288   3.951  11.237 -0.1252 -0.4507  1.7293
  447MOL0     H60337   2.159   3.818  11.373  1.0938 -0.4914 -0.6842
  447MOL0     H60338   2.038   3.948  11.399  0.8219  0.4559  2.1890
  447MOL0     H60339   2.190   3.931  11.597  0.6974  1.7044  1.2570
  447MOL0     H60340   2.324   3.953  11.484  0.9764  0.8515  0.8601
  447MOL0     H60341   2.249   4.349  11.574 -0.2597  0.3352  0.2995
  447MOL0     H60342   2.238   3.598  11.170  0.4958  0.3388  0.5068
  447MOL0     H60343   2.547   3.537  11.234 -1.0296 -0.0787  0.4994
  447MOL0     H60344   2.415   3.435  11.226 -1.1186 -1.9984 -2.4913
  447MOL0     H60345   2.528   3.429  11.094  0.5461 -1.3019  0.8007
  448MOL0     O60346  10.619   5.422   8.487 -0.7532  0.1276  0.1633
  448MOL0     C60347  10.594   5.485   8.586 -0.6569 -0.0398 -0.9845
  448MOL0     O60348  10.670   5.578   8.646  0.4092  0.1685 -0.4001
  448MOL0     C60349  10.766   5.632   8.562  0.6637 -0.0287  0.0138
  448MOL0     C60350  10.730   5.684   8.437 -0.1610 -0.2234 -0.4758
  448MOL0     C60351  10.832   5.738   8.362 -0.2962 -0.2284 -0.0574
  448MOL0     C60352  10.968   5.741   8.399  0.0702 -0.4386 -0.5809
  448MOL0     O60353  11.059   5.798   8.313  0.0535  0.3362  0.3712
  448MOL0     C60354  11.091   5.718   8.195 -0.1396 -0.1893  0.7732
  448MOL0     C60355  11.089   5.795   8.058  0.8167  0.1486  0.2945
  448MOL0     C60356  11.152   5.941   8.069  0.5343 -0.2640  0.0142
  448MOL0     C60357  11.138   6.003   7.927 -0.3083 -0.1298 -0.0094
  448MOL0     C60358  11.234   6.131   7.927 -0.0206 -0.3319 -0.7141
  448MOL0     C60359  11.365   6.106   7.843  0.2450 -0.3291  0.3031
  448MOL0     C60360  11.427   6.253   7.842  0.4558  0.8585  0.2111
  448MOL0     C60361  11.555   6.255   7.767 -0.2920 -0.3306  0.4139
  448MOL0     N60362  11.617   6.393   7.779  0.6894  0.1598 -0.1685
  448MOL0     C60363  11.642   6.457   7.905 -0.3935 -0.5101  0.4964
  448MOL0     C60364  11.645   6.585   7.870  0.5732 -0.1847 -0.0283
  448MOL0     C60365  11.644   6.706   7.970  0.0768 -0.6193 -0.0059
  448MOL0     C60366  11.695   6.837   7.902 -0.8199  0.1059 -1.0957
  448MOL0     C60367  11.742   6.940   7.993 -0.6441  0.7636  0.0449
  448MOL0     C60368  11.639   6.979   8.105 -0.1414  0.2110 -0.7636
  448MOL0     O60369  11.520   7.052   8.058  0.3859  0.3872 -1.0083
  448MOL0     C60370  11.551   7.189   8.034 -0.4724  1.0268  0.4699
  448MOL0     C60371  11.575   7.210   7.898  0.0263  0.0840 -0.2192
  448MOL0     C60372  11.574   7.341   7.858 -0.5215 -1.0019  0.5868
  448MOL0     C60373  11.561   7.452   7.946 -0.1340 -0.1345  0.6518
  448MOL0     C60374  11.587   7.589   7.889 -0.7935  0.0522 -0.3396
  448MOL0     O60375  11.598   7.595   7.753  0.3308  0.1310  0.9408
  448MOL0     C60376  11.635   7.717   7.698  0.9105 -0.0030 -0.9557
  448MOL0     C60377  11.542   7.823   7.677 -1.1197  0.8751  0.4104
  448MOL0     C60378  11.594   7.936   7.612  0.0481  0.0879  0.2992
  448MOL0     C60379  11.732   7.952   7.578 -0.2578  0.9599  1.0619
  448MOL0     O60380  11.795   8.062   7.530  0.0522 -0.5609  0.0458
  448MOL0     C60381  11.740   8.156   7.440 -0.4829 -0.0358 -0.1445
  448MOL0     C60382  11.862   8.222   7.367  0.0873 -0.5038  1.0975
  448MOL0     C60383  11.924   8.143   7.253 -0.1060  1.0353  1.2773
  448MOL0     C60384  11.955   7.993   7.271 -0.5016 -0.0312  0.3290
  448MOL0     C60385  12.043   7.927   7.158  0.2797 -0.0218 -0.0111
  448MOL0     C60386  12.192   7.951   7.166 -0.3670 -0.6601  0.0621
  448MOL0     C60387  12.245   7.885   7.292 -0.0790  0.1502  0.0709
  448MOL0     C60388  12.369   7.804   7.280  0.4193  0.2075 -0.3601
  448MOL0    Cl60389  12.330   7.649   7.213 -0.1858 -0.3052  0.5269
  448MOL0     C60390  11.820   7.846   7.604  0.0342  0.6124  0.0755
  448MOL0     C60391  11.770   7.732   7.673 -1.1299 -0.3256  0.3218
  448MOL0     O60392  11.607   7.683   7.965  0.2329  0.3409  0.2862
  448MOL0     C60393  11.544   7.425   8.078 -0.0995 -0.2294 -0.5048
  448MOL0     C60394  11.550   7.286   8.126  0.0385  0.1113  0.1461
  448MOL0     N60395  11.652   6.596   7.731  1.0130  0.7020  0.5614
  448MOL0     N60396  11.628   6.482   7.677  0.8481  0.0872  0.0036
  448MOL0     C60397  10.996   5.703   8.528  0.0953 -0.2821 -0.5873
  448MOL0     C60398  10.900   5.645   8.605  0.6278  0.0264 -0.9047
  448MOL0     C60399  10.478   5.439   8.670  0.0881 -0.5585  0.7210
  448MOL0     C60400  10.450   5.512   8.783  0.0956 -0.7389 -0.3064
  448MOL0     C60401  10.351   5.483   8.874  0.5126 -0.3598  0.7255
  448MOL0     C60402  10.267   5.378   8.842 -0.5436  0.1093 -0.5321
  448MOL0     O60403  10.156   5.371   8.925 -0.5592 -0.3199  0.3257
  448MOL0     C60404  10.052   5.289   8.870 -0.3687 -0.3341  0.1756
  448MOL0     C60405   9.921   5.319   8.937  0.2378 -0.9029 -0.9500
  448MOL0     C60406   9.810   5.224   8.892  0.0157 -0.6101 -0.2261
  448MOL0     C60407   9.692   5.233   8.979 -0.4284 -0.1720  0.5490
  448MOL0     C60408   9.599   5.123   8.939 -0.4977 -0.2481 -0.5968
  448MOL0     C60409   9.518   5.037   8.918  0.0442  1.0071  0.7693
  448MOL0     C60410  10.285   5.306   8.719  0.4414 -0.0841 -0.1380
  448MOL0     C60411  10.398   5.324   8.637 -0.6713 -0.9771  0.2020
  448MOL0     C60412  10.423   5.219   8.527 -0.2737 -0.9547  0.0565
  448MOL0     H60413  10.626   5.678   8.405 -0.7333 -3.8988  1.4994
  448MOL0     H60414  10.821   5.786   8.265  0.4850  0.9788  0.4316
  448MOL0     H60415  11.190   5.674   8.213 -1.8747 -3.2563  3.9696
  448MOL0     H60416  11.027   5.629   8.193 -1.5472  0.8060  0.5136
  448MOL0     H60417  10.985   5.806   8.028 -0.0098 -0.6316  2.7205
  448MOL0     H60418  11.132   5.728   7.983  0.6943 -1.0963  1.3163
  448MOL0     H60419  11.257   5.937   8.099  0.1797  1.6481  1.7654
  448MOL0     H60420  11.105   5.994   8.152  1.1920  1.4887 -0.6766
  448MOL0     H60421  11.160   5.933   7.846 -0.9296 -0.2039 -0.1251
  448MOL0     H60422  11.033   6.034   7.923 -2.3938 -5.4018  3.3592
  448MOL0     H60423  11.177   6.215   7.885  2.4972  1.7897 -0.1203
  448MOL0     H60424  11.248   6.171   8.027 -1.7994 -0.9695 -0.1749
  448MOL0     H60425  11.431   6.033   7.892  0.3230  0.3725  1.2773
  448MOL0     H60426  11.335   6.072   7.744 -0.9935  1.5504 -0.0011
  448MOL0     H60427  11.444   6.286   7.945 -0.3157 -1.4087  1.1360
  448MOL0     H60428  11.355   6.330   7.814  1.6883  2.3771  1.0805
  448MOL0     H60429  11.617   6.172   7.802 -0.5218 -0.5868  0.2179
  448MOL0     H60430  11.536   6.243   7.660  2.5855  1.3113 -0.4082
  448MOL0     H60431  11.653   6.430   8.009  0.2819  2.7013  1.3629
  448MOL0     H60432  11.543   6.721   8.007 -0.9195  0.6073 -2.9312
  448MOL0     H60433  11.717   6.681   8.048  1.0234 -1.4606 -1.1272
  448MOL0     H60434  11.792   6.831   7.851  1.8015  2.6190  3.0650
  448MOL0     H60435  11.619   6.865   7.829 -2.8980  0.0926  0.9774
  448MOL0     H60436  11.776   7.026   7.934 -1.0238  0.1743 -1.0492
  448MOL0     H60437  11.832   6.900   8.040 -1.4409 -1.1434  0.0317
  448MOL0     H60438  11.695   7.034   8.181 -1.3961 -0.4274  0.6548
  448MOL0     H60439  11.589   6.900   8.161 -0.6380  0.0334 -1.4422
  448MOL0     H60440  11.570   7.119   7.838 -0.1010 -0.8159  1.1056
  448MOL0     H60441  11.586   7.349   7.751 -0.3013 -0.8418  0.6221
  448MOL0     H60442  11.438   7.820   7.709 -1.7067  2.2581 -1.2394
  448MOL0     H60443  11.526   8.018   7.590  1.7042  1.7262  0.9699
  448MOL0     H60444  11.684   8.097   7.368  0.6317 -2.3335  0.7924
  448MOL0     H60445  11.671   8.222   7.495 -2.0989 -1.2070 -0.6871
  448MOL0     H60446  11.819   8.309   7.317  1.2374 -0.7733 -0.4206
  448MOL0     H60447  11.938   8.254   7.439  1.8598 -0.0237 -0.8930
  448MOL0     H60448  11.862   8.164   7.166  1.2064  3.1454  0.7931
  448MOL0     H60449  12.019   8.191   7.230  0.8642 -1.3518 -0.0601
  448MOL0     H60450  11.861   7.939   7.257 -1.2013  1.4285 -0.9155
  448MOL0     H60451  12.001   7.972   7.368  4.3676  4.0302 -0.6823
  448MOL0     H60452  12.000   7.961   7.063 -1.8337  1.0710  1.2594
  448MOL0     H60453  12.020   7.821   7.144 -1.9379  0.2739  0.9879
  448MOL0     H60454  12.241   7.907   7.079 -0.8963 -2.0482  0.4284
  448MOL0     H60455  12.215   8.057   7.159  0.7802 -0.5373  3.5084
  448MOL0     H60456  12.167   7.819   7.331 -1.3923  1.2998 -0.5240
  448MOL0     H60457  12.254   7.966   7.365 -0.0672  0.2371 -0.0262
  448MOL0     H60458  12.442   7.860   7.221  2.6161 -2.5233 -0.4339
  448MOL0     H60459  12.425   7.790   7.373  0.8225 -0.0961 -0.6479
  448MOL0     H60460  11.925   7.863   7.581  1.2741  0.7399  4.7880
  448MOL0     H60461  11.835   7.648   7.696  1.5862  1.1027 -1.6434
  448MOL0     H60462  11.531   7.497   8.158 -0.6535 -0.7808 -0.0924
  448MOL0     H60463  11.552   7.260   8.231  2.0342 -2.6432 -0.4643
  448MOL0     H60464  11.095   5.717   8.570  0.6001  1.5264 -2.2130
  448MOL0     H60465  10.926   5.601   8.700  2.6060  1.1912 -0.8517
  448MOL0     H60466  10.518   5.591   8.814  1.6613 -1.2374 -2.2741
  448MOL0     H60467  10.331   5.544   8.962 -0.4259 -2.8855  2.3811
  448MOL0     H60468  10.080   5.184   8.880  0.3978 -0.2370 -0.7877
  448MOL0     H60469  10.037   5.295   8.761  1.7278  0.2396 -0.1280
  448MOL0     H60470   9.884   5.420   8.915 -0.2737 -0.5244  1.3757
  448MOL0     H60471   9.936   5.297   9.043  1.7917 -1.0955 -1.1787
  448MOL0     H60472   9.845   5.121   8.881 -0.7799 -0.9088 -0.0293
  448MOL0     H60473   9.783   5.253   8.789  1.5387 -2.3031 -1.1530
  448MOL0     H60474   9.714   5.208   9.083  2.6316  0.8523  0.2484
  448MOL0     H60475   9.652   5.333   8.958  0.3672 -0.4989 -3.2775
  448MOL0     H60476   9.424   4.987   8.903 -0.4055  1.3478  2.3206
  448MOL0     H60477  10.212   5.235   8.681 -1.5252  2.4587 -1.3616
  448MOL0     H60478  10.362   5.131   8.548  1.1522 -1.7163  1.2108
  448MOL0     H60479  10.384   5.262   8.435  1.8660 -3.1796 -2.0297
  448MOL0     H60480  10.528   5.190   8.518  0.0717  0.3578 -0.3206
  449MOL0     O60481   3.075   6.952   2.810  1.1679 -0.4934  0.1075
  449MOL0     C60482   3.107   6.936   2.700 -0.9287  0.2186  0.8966
  449MOL0     O60483   3.171   7.036   2.623  0.7370  0.2015  0.2554
  449MOL0     C60484   3.202   7.154   2.685 -0.2182  0.7759 -0.2557
  449MOL0     C60485   3.104   7.246   2.716 -1.1287 -0.4633 -0.4899
  449MOL0     C60486   3.134   7.372   2.779  0.1622  0.2351 -0.3175
  449MOL0     C60487   3.265   7.406   2.799 -0.4433  0.3357 -0.3003
  449MOL0     O60488   3.284   7.523   2.860  0.8046  0.2235 -0.0822
  449MOL0     C60489   3.406   7.586   2.821 -0.2035 -1.0560 -0.2843
  449MOL0     C60490   3.481   7.600   2.953 -1.2211  0.0006  0.1113
  449MOL0     C60491   3.622   7.677   2.942  0.5772  0.0387 -0.1467
  449MOL0     C60492   3.698   7.689   3.069 -0.3802  0.0850  0.4009
  449MOL0     C60493   3.826   7.767   3.056 -0.2140 -0.7409  0.5686
  449MOL0     C60494   3.912   7.761   3.183  0.6429 -1.0013  0.1702
  449MOL0     C60495   4.048   7.818   3.167  0.0828 -0.5250 -0.0139
  449MOL0     C60496   4.059   7.970   3.130  0.3371 -0.2585  0.4379
  449MOL0     N60497   4.042   8.048   3.248 -0.8189 -0.4388 -0.0288
  449MOL0     C60498   4.135   8.141   3.281  0.1511 -0.7081 -0.8929
  449MOL0     C60499   4.084   8.203   3.391  0.1812 -0.0095  0.4612
  449MOL0     C60500   4.150   8.301   3.468  0.0073 -0.6787 -0.5287
  449MOL0     C60501   4.091   8.324   3.607  0.1696  0.0736  0.1757
  449MOL0     C60502   4.159   8.433   3.683 -0.6229 -0.7697 -0.2414
  449MOL0     C60503   4.122   8.434   3.835 -0.4777  0.0743 -0.0593
  449MOL0     O60504   4.151   8.571   3.874 -1.2233  0.2398  0.2058
  449MOL0     C60505   4.058   8.668   3.845  0.3376  0.3391 -0.4868
  449MOL0     C60506   3.936   8.653   3.792  0.5336  0.1518  0.8698
  449MOL0     C60507   3.842   8.761   3.780 -0.1263  0.7724 -0.0408
  449MOL0     C60508   3.882   8.895   3.819 -0.9674 -1.1810  0.1730
  449MOL0     C60509   3.802   9.013   3.795  0.8464 -0.0287 -0.1372
  449MOL0     O60510   3.854   9.134   3.818 -0.4215  0.1833 -1.0080
  449MOL0     C60511   3.770   9.234   3.803  0.7844 -0.8249  0.0649
  449MOL0     C60512   3.697   9.271   3.691 -1.1023 -0.4678  0.5995
  449MOL0     C60513   3.617   9.386   3.696  0.0046  0.4005  0.1963
  449MOL0     C60514   3.596   9.454   3.809 -0.2532  0.1040 -0.5758
  449MOL0     O60515   3.511   9.562   3.812 -0.4124 -0.4087 -0.1552
  449MOL0     C60516   3.553   9.664   3.906  0.2485  0.5137 -0.3728
  449MOL0     C60517   3.493   9.796   3.847 -0.6115  0.6929  0.3487
  449MOL0     C60518   3.511   9.917   3.940  0.6043 -0.6763  0.8909
  449MOL0     C60519   3.418  10.028   3.890  0.0690 -0.9426  0.1820
  449MOL0     C60520   3.265  10.003   3.895  0.1316  0.4460  0.3338
  449MOL0     C60521   3.178  10.129   3.858 -1.1122  1.0962 -0.1255
  449MOL0     C60522   3.238  10.212   3.745 -0.8561 -0.2143 -0.0500
  449MOL0     C60523   3.156  10.340   3.711  0.9535  0.1067  0.1171
  449MOL0    Cl60524   3.108  10.422   3.873 -0.1532  0.2898  0.0877
  449MOL0     C60525   3.665   9.417   3.925  0.0069 -1.0826  0.1758
  449MOL0     C60526   3.747   9.307   3.916  0.1432 -1.0146  0.2702
  449MOL0     O60527   3.678   8.991   3.788  0.2545 -0.4659  0.0479
  449MOL0     C60528   4.010   8.907   3.874  0.0577  1.1165  0.0523
  449MOL0     C60529   4.104   8.797   3.879  1.0992  0.4809  0.3870
  449MOL0     N60530   3.970   8.129   3.431 -0.4489  0.2048 -0.1323
  449MOL0     N60531   3.934   8.059   3.331  0.4417  0.5094 -0.3510
  449MOL0     C60532   3.365   7.313   2.771  0.1961 -0.1317  0.6946
  449MOL0     C60533   3.330   7.183   2.719 -0.5717 -0.4639  0.6384
  449MOL0     C60534   3.081   6.816   2.635 -0.0020 -0.5494 -0.1735
  449MOL0     C60535   3.145   6.802   2.512 -0.1210  0.3244  0.1015
  449MOL0     C60536   3.140   6.676   2.444  0.3088 -0.9181 -0.2565
  449MOL0     C60537   3.058   6.580   2.490 -0.6006  0.1267 -0.4769
  449MOL0     O60538   3.062   6.462   2.416 -0.0067  0.2429 -0.1480
  449MOL0     C60539   2.941   6.389   2.375 -0.1774 -0.8461 -0.5532
  449MOL0     C60540   2.985   6.265   2.307  0.4946 -0.3729  0.3979
  449MOL0     C60541   2.881   6.164   2.262  0.8911 -0.8102  0.5812
  449MOL0     C60542   2.822   6.057   2.362 -0.3434 -0.4718 -0.2810
  449MOL0     C60543   2.916   5.937   2.381  0.2618  0.3830  0.3341
  449MOL0     C60544   3.007   5.855   2.385 -0.4525  0.3160  0.2711
  449MOL0     C60545   2.983   6.593   2.600  1.0163  0.1387 -0.2343
  449MOL0     C60546   2.991   6.707   2.684 -0.0876 -0.8468 -0.1119
  449MOL0     C60547   2.899   6.724   2.805 -0.4378 -0.2904  0.2507
  449MOL0     H60548   2.997   7.230   2.709 -1.1759 -2.4126  2.7299
  449MOL0     H60549   3.060   7.445   2.809  0.0686  0.2476 -0.5758
  449MOL0     H60550   3.461   7.547   2.735 -2.1787 -3.1031 -0.7113
  449MOL0     H60551   3.378   7.687   2.789 -2.3410 -1.0629  1.2946
  449MOL0     H60552   3.495   7.502   2.999  3.0495 -1.4211 -3.4854
  449MOL0     H60553   3.426   7.658   3.027  0.7312  1.0626  0.8175
  449MOL0     H60554   3.610   7.775   2.895 -1.8324 -0.8011 -1.4301
  449MOL0     H60555   3.687   7.613   2.883  0.9373 -0.2495  0.5531
  449MOL0     H60556   3.632   7.739   3.141  1.1035  0.5796  1.4562
  449MOL0     H60557   3.716   7.590   3.111 -2.6969  0.3540  2.2299
  449MOL0     H60558   3.886   7.735   2.970  0.9238 -1.1425  1.4837
  449MOL0     H60559   3.801   7.873   3.045  3.1419  0.1229  0.3447
  449MOL0     H60560   3.853   7.820   3.254  1.3069 -2.4354  2.0154
  449MOL0     H60561   3.917   7.656   3.215  0.8616 -1.5490 -1.5830
  449MOL0     H60562   4.095   7.765   3.084 -1.4981  1.3340 -2.2306
  449MOL0     H60563   4.106   7.796   3.257 -0.6714  0.8393  0.8485
  449MOL0     H60564   4.160   7.979   3.090 -0.0676 -3.6066 -1.7623
  449MOL0     H60565   3.991   7.985   3.046 -0.5270 -2.4190  0.6704
  449MOL0     H60566   4.227   8.170   3.231 -0.2230  0.4287 -0.9644
  449MOL0     H60567   4.256   8.276   3.472  0.1644 -0.0016  3.3755
  449MOL0     H60568   4.147   8.393   3.409 -2.6640 -1.3597 -1.6032
  449MOL0     H60569   3.986   8.346   3.583  0.1747  1.2464  1.1055
  449MOL0     H60570   4.085   8.240   3.677 -0.5082 -0.7204 -0.8074
  449MOL0     H60571   4.131   8.532   3.644 -0.5338 -1.3131 -1.7288
  449MOL0     H60572   4.267   8.426   3.670 -0.3380 -0.4318  1.6273
  449MOL0     H60573   4.198   8.379   3.891 -2.5571 -0.8507  2.0407
  449MOL0     H60574   4.019   8.400   3.853 -0.5778  0.4828  0.1651
  449MOL0     H60575   3.891   8.562   3.754 -0.0248  0.9582 -0.4284
  449MOL0     H60576   3.747   8.743   3.731 -0.7225  0.6210  1.1418
  449MOL0     H60577   3.693   9.198   3.611 -2.3952 -1.9060  1.9204
  449MOL0     H60578   3.573   9.442   3.615  1.7088 -0.2893 -1.2705
  449MOL0     H60579   3.519   9.643   4.008 -0.5111  2.3189 -0.2079
  449MOL0     H60580   3.662   9.678   3.908  0.4249 -0.7182 -0.6687
  449MOL0     H60581   3.544   9.814   3.752  3.5128 -0.0820  2.1779
  449MOL0     H60582   3.388   9.784   3.819 -0.8228  0.8138  1.0609
  449MOL0     H60583   3.490   9.894   4.045 -2.2246 -2.2957  0.0575
  449MOL0     H60584   3.613   9.953   3.922  0.5879 -0.5743  1.0022
  449MOL0     H60585   3.433  10.037   3.782  0.6476  3.3443  0.4482
  449MOL0     H60586   3.444  10.125   3.934 -1.4235 -0.3736 -0.1147
  449MOL0     H60587   3.244   9.961   3.993  0.6401 -1.5789 -0.3723
  449MOL0     H60588   3.231   9.926   3.825  0.6195  0.2172  0.3413
  449MOL0     H60589   3.073  10.113   3.834 -1.4286  1.2308  1.0928
  449MOL0     H60590   3.192  10.180   3.954  1.1772  0.6349 -0.1506
  449MOL0     H60591   3.248  10.152   3.654  2.1239 -2.3217  1.5140
  449MOL0     H60592   3.336  10.242   3.784 -2.0594  0.2080  2.9057
  449MOL0     H60593   3.209  10.407   3.642  1.6670  1.0374  1.5270
  449MOL0     H60594   3.065  10.317   3.655  0.9021 -2.1393  1.0210
  449MOL0     H60595   3.639   9.471   4.015 -1.8876 -2.7170  0.7063
  449MOL0     H60596   3.789   9.269   4.009  1.0713 -1.0394 -0.1455
  449MOL0     H60597   4.060   9.001   3.893  2.9473  0.1352 -1.9235
  449MOL0     H60598   4.202   8.805   3.924  1.1825  1.3958  0.0630
  449MOL0     H60599   3.471   7.328   2.790 -0.0834  3.1320  0.1988
  449MOL0     H60600   3.407   7.108   2.708 -0.1516 -0.0112  0.4844
  449MOL0     H60601   3.203   6.882   2.468  0.8910 -0.0972  0.6113
  449MOL0     H60602   3.196   6.674   2.351  1.6361 -1.2281  0.5222
  449MOL0     H60603   2.866   6.442   2.316 -2.6455 -1.9283  1.3954
  449MOL0     H60604   2.877   6.374   2.463 -1.2523 -1.4922 -1.4149
  449MOL0     H60605   3.074   6.219   2.352 -0.0721 -1.5471  0.3677
  449MOL0     H60606   3.010   6.304   2.208 -1.2862 -0.2119 -0.0225
  449MOL0     H60607   2.929   6.110   2.180 -1.5775 -0.6707 -1.0438
  449MOL0     H60608   2.790   6.217   2.232  0.2322 -1.9087  0.6156
  449MOL0     H60609   2.814   6.106   2.459 -0.0357  1.2108 -1.0566
  449MOL0     H60610   2.716   6.040   2.340 -1.8567  2.8318  3.2766
  449MOL0     H60611   3.099   5.801   2.380 -0.3951  0.4172  0.2336
  449MOL0     H60612   2.925   6.504   2.622  0.8504  0.8710  2.7061
  449MOL0     H60613   2.836   6.634   2.801  2.4166 -2.4760  0.8985
  449MOL0     H60614   2.956   6.730   2.897  2.4780  0.0452 -1.4577
  449MOL0     H60615   2.834   6.812   2.794 -0.8781 -0.6448 -0.0346
  450MOL0     O60616   4.798   4.933  10.218  0.2015 -0.5684 -0.6800
  450MOL0     C60617   4.814   5.043  10.171  0.7831 -0.0832  0.7405
  450MOL0     O60618   4.931   5.115  10.173 -0.7636 -0.2013  0.5003
  450MOL0     C60619   5.043   5.058  10.229 -0.0629 -0.6307  1.1864
  450MOL0     C60620   5.169   5.106  10.194  0.9001  0.3665 -0.1748
  450MOL0     C60621   5.291   5.052  10.240  0.2739  0.6446  0.1245
  450MOL0     C60622   5.289   4.954  10.346 -0.2575  0.9345 -0.0188
  450MOL0     O60623   5.408   4.896  10.379  0.1529  0.0440  0.0194
  450MOL0     C60624   5.422   4.759  10.372  0.0299  0.0355 -0.1648
  450MOL0     C60625   5.571   4.718  10.372 -0.6179 -0.5302  0.8009
  450MOL0     C60626   5.596   4.570  10.316  0.6228 -1.5828  0.8736
  450MOL0     C60627   5.611   4.489  10.436 -0.9168 -0.1632  0.6450
  450MOL0     C60628   5.657   4.352  10.386  0.1410  0.8788 -0.1448
  450MOL0     C60629   5.538   4.273  10.304 -0.4876 -1.0097 -0.3119
  450MOL0     C60630   5.566   4.125  10.279 -0.1935 -0.1778 -0.7834
  450MOL0     C60631   5.446   4.045  10.228  0.3004 -0.3506 -0.1470
  450MOL0     N60632   5.385   4.105  10.111 -0.0035  0.0070  0.6728
  450MOL0     C60633   5.279   4.188  10.122  0.4170 -0.3143  0.7183
  450MOL0     C60634   5.263   4.230   9.997  0.8145 -0.4920  1.0339
  450MOL0     C60635   5.150   4.310   9.950 -0.5635 -1.1539  0.1291
  450MOL0     C60636   5.195   4.402   9.840 -0.4413 -0.3736 -0.5589
  450MOL0     C60637   5.202   4.322   9.709  0.4260  0.2266 -0.5140
  450MOL0     C60638   5.235   4.410   9.585 -1.0333 -0.0128  0.6447
  450MOL0     O60639   5.102   4.464   9.549  0.4918 -0.1105  0.3804
  450MOL0     C60640   5.036   4.418   9.442 -0.1594  0.4377 -0.2898
  450MOL0     C60641   5.031   4.276   9.411 -0.6933  0.5689  0.5411
  450MOL0     C60642   4.949   4.233   9.307 -0.5295 -0.2912 -0.9973
  450MOL0     C60643   4.870   4.330   9.236 -0.1060 -0.2948  0.7806
  450MOL0     C60644   4.765   4.286   9.131 -0.3978 -0.3652 -0.1336
  450MOL0     O60645   4.692   4.384   9.073 -0.6171 -0.9712 -0.3111
  450MOL0     C60646   4.581   4.366   8.995 -0.1002 -0.0518 -0.4439
  450MOL0     C60647   4.511   4.240   8.996 -0.2372 -0.9444  0.0305
  450MOL0     C60648   4.402   4.230   8.910  0.5873 -0.2861 -0.6565
  450MOL0     C60649   4.356   4.335   8.834  0.8382 -0.3907 -1.4711
  450MOL0     O60650   4.229   4.331   8.783 -0.5282 -0.3494  0.2792
  450MOL0     C60651   4.203   4.423   8.678 -0.2836 -0.5794  0.7883
  450MOL0     C60652   4.083   4.385   8.611  0.4913  0.9587  1.1241
  450MOL0     C60653   4.049   4.466   8.489 -0.0717  0.4951 -0.3399
  450MOL0     C60654   3.917   4.424   8.432 -0.6095 -0.4049 -0.8265
  450MOL0     C60655   3.892   4.269   8.428  0.3970 -0.0405  0.5484
  450MOL0     C60656   3.785   4.236   8.326  0.8337 -0.7554  0.1204
  450MOL0     C60657   3.756   4.091   8.306 -0.5894 -0.4000 -0.0427
  450MOL0     C60658   3.734   4.016   8.434 -0.0009 -1.2211 -0.7197
  450MOL0    Cl60659   3.627   4.107   8.550  0.1778  0.3454 -0.1573
  450MOL0     C60660   4.414   4.462   8.849  0.3693 -0.4474  0.0545
  450MOL0     C60661   4.533   4.472   8.924 -0.3423  0.0429  0.3475
  450MOL0     O60662   4.775   4.168   9.098 -0.1126  0.3665  0.5599
  450MOL0     C60663   4.882   4.466   9.266  0.0415  0.2044 -0.0234
  450MOL0     C60664   4.961   4.509   9.374  1.0463  0.5939  0.1874
  450MOL0     N60665   5.376   4.202   9.926 -0.4864  0.6721  0.6305
  450MOL0     N60666   5.449   4.112   9.994 -0.4144 -0.1507  0.5138
  450MOL0     C60667   5.169   4.925  10.401 -0.4783 -0.8969  0.1281
  450MOL0     C60668   5.050   4.970  10.343  0.6997  0.4456  0.1263
  450MOL0     C60669   4.688   5.111  10.116  1.1503 -0.0896 -0.2613
  450MOL0     C60670   4.567   5.041  10.113  0.4576 -0.1503  0.2497
  450MOL0     C60671   4.451   5.089  10.049 -0.8151  0.1153 -0.4261
  450MOL0     C60672   4.445   5.221   9.995 -0.3719  0.1884 -0.1082
  450MOL0     O60673   4.337   5.282   9.928 -0.4975 -0.2078 -0.3394
  450MOL0     C60674   4.231   5.200   9.869  0.1412 -0.6099 -0.7644
  450MOL0     C60675   4.291   5.100   9.780 -0.4002  0.2531 -0.3434
  450MOL0     C60676   4.191   5.047   9.677  0.8908  0.6686  0.4309
  450MOL0     C60677   4.268   4.961   9.576 -0.4202 -0.0636 -0.4100
  450MOL0     C60678   4.167   4.912   9.480  0.1757 -0.2934  0.1408
  450MOL0     C60679   4.094   4.868   9.392 -0.8436  0.8039  1.0977
  450MOL0     C60680   4.565   5.293  10.008 -0.0790  0.6281 -0.7545
  450MOL0     C60681   4.685   5.242  10.056 -0.5005  0.7114  0.5764
  450MOL0     C60682   4.795   5.347  10.045 -0.3578  0.3672 -0.3513
  450MOL0     H60683   5.177   5.178  10.112  0.7913 -1.2742 -1.6929
  450MOL0     H60684   5.386   5.080  10.196  1.0481 -2.8745 -0.7026
  450MOL0     H60685   5.364   4.723  10.458  2.3980  0.0955  1.5591
  450MOL0     H60686   5.372   4.718  10.284  1.8270  2.7387 -2.6480
  450MOL0     H60687   5.619   4.736  10.469  0.9304 -2.6657  0.4913
  450MOL0     H60688   5.617   4.796  10.311  1.9293  0.7916  4.0423
  450MOL0     H60689   5.689   4.573  10.258  1.4324  2.6238  2.0743
  450MOL0     H60690   5.511   4.539  10.255  2.5075 -1.1275 -2.2071
  450MOL0     H60691   5.685   4.538  10.500  0.5825  0.5317 -1.5078
  450MOL0     H60692   5.514   4.469  10.483 -0.2041 -2.1256  1.3927
  450MOL0     H60693   5.749   4.346  10.328 -0.1854 -1.4061 -0.5260
  450MOL0     H60694   5.671   4.292  10.477 -1.7321 -1.1641 -1.1204
  450MOL0     H60695   5.445   4.284  10.360 -0.7798  1.5277 -1.1797
  450MOL0     H60696   5.534   4.324  10.208  3.2243 -1.1294 -0.6938
  450MOL0     H60697   5.605   4.080  10.371  0.1163  0.2106 -0.7228
  450MOL0     H60698   5.652   4.127  10.211  0.3355  1.3085 -0.1092
  450MOL0     H60699   5.492   3.953  10.191  0.1552 -0.4837  0.0000
  450MOL0     H60700   5.367   4.022  10.300 -1.2295  0.7271 -1.3860
  450MOL0     H60701   5.217   4.202  10.210 -0.4683 -0.8585  0.1950
  450MOL0     H60702   5.063   4.251   9.919 -0.9414  0.5483 -2.4016
  450MOL0     H60703   5.107   4.378  10.024 -0.0416  1.9670 -2.2386
  450MOL0     H60704   5.115   4.475   9.828  0.1001  0.1478 -1.0878
  450MOL0     H60705   5.284   4.459   9.870 -0.6424  0.1542 -0.9440
  450MOL0     H60706   5.101   4.284   9.694 -0.6220  2.7190 -0.2823
  450MOL0     H60707   5.274   4.240   9.707  0.9218  0.6340  0.3063
  450MOL0     H60708   5.282   4.361   9.499  1.1374 -0.6325  2.1141
  450MOL0     H60709   5.297   4.493   9.620 -0.3834 -1.2512  2.5948
  450MOL0     H60710   5.092   4.200   9.459  0.1334  0.1517 -1.1253
  450MOL0     H60711   4.949   4.132   9.267 -1.3016 -0.1135 -1.4721
  450MOL0     H60712   4.540   4.171   9.073  0.7057  1.1570  1.6561
  450MOL0     H60713   4.344   4.140   8.894 -1.3263  0.5293  1.1638
  450MOL0     H60714   4.190   4.523   8.720  3.4234  0.7312 -0.7535
  450MOL0     H60715   4.278   4.435   8.600  0.6539 -3.1712  1.1700
  450MOL0     H60716   4.084   4.279   8.584  2.3373  1.2883 -0.2957
  450MOL0     H60717   3.999   4.382   8.681 -0.3308  0.3736  0.1422
  450MOL0     H60718   4.056   4.575   8.493  0.2990  0.4576  0.2501
  450MOL0     H60719   4.130   4.446   8.417  0.4699  1.0643  0.0986
  450MOL0     H60720   3.905   4.459   8.329 -3.7979  0.7550 -0.1823
  450MOL0     H60721   3.845   4.484   8.489  2.3766  1.1466  1.6006
  450MOL0     H60722   3.875   4.219   8.523 -4.9151 -1.1274 -0.6446
  450MOL0     H60723   3.981   4.219   8.388  1.5971  1.7086  0.9187
  450MOL0     H60724   3.690   4.281   8.359  0.4171 -2.5231  1.4698
  450MOL0     H60725   3.804   4.282   8.228  0.8290  1.7701  1.2370
  450MOL0     H60726   3.842   4.045   8.257 -1.4066 -2.8897  0.6992
  450MOL0     H60727   3.676   4.065   8.236 -1.1127 -4.3718  1.7826
  450MOL0     H60728   3.690   3.920   8.405  3.3961 -2.1913 -3.3970
  450MOL0     H60729   3.836   4.004   8.472  1.3180 -2.3120 -4.1365
  450MOL0     H60730   4.390   4.554   8.798 -0.1180 -0.3141  0.5218
  450MOL0     H60731   4.588   4.566   8.924  1.4204 -0.9045  1.9075
  450MOL0     H60732   4.822   4.535   9.208  2.5227  1.2885 -1.4275
  450MOL0     H60733   4.955   4.612   9.408  0.6276  0.0569  1.8042
  450MOL0     H60734   5.172   4.851  10.481  0.0266 -1.8342 -0.7400
  450MOL0     H60735   4.954   4.944  10.385 -0.0352  1.0070 -1.1601
  450MOL0     H60736   4.575   4.948  10.168 -0.9528 -2.1796 -2.6981
  450MOL0     H60737   4.364   5.025  10.060 -0.9047  0.1407 -0.9478
  450MOL0     H60738   4.147   5.258   9.828 -1.0113 -2.3849 -1.0470
  450MOL0     H60739   4.186   5.146   9.953 -1.7774 -1.0222 -1.9985
  450MOL0     H60740   4.325   5.011   9.833 -2.4904  0.2034  1.0406
  450MOL0     H60741   4.372   5.146   9.722 -0.2364  1.4365  0.7865
  450MOL0     H60742   4.133   5.126   9.629  1.7456  2.0160  1.5246
  450MOL0     H60743   4.122   4.975   9.723  0.5513  0.7696  0.0865
  450MOL0     H60744   4.333   5.028   9.519 -1.6815  1.3190 -0.2904
  450MOL0     H60745   4.324   4.884   9.628  0.4095  0.6610 -0.2087
  450MOL0     H60746   4.031   4.812   9.326  0.6296  0.2850  0.1063
  450MOL0     H60747   4.567   5.393   9.966 -1.2690 -0.4803 -3.7109
  450MOL0     H60748   4.795   5.412   9.957  0.5075 -0.7583 -1.2108
  450MOL0     H60749   4.767   5.410  10.130 -2.7838 -0.0077 -0.7857
  450MOL0     H60750   4.894   5.302  10.043 -1.3950 -2.1730  0.9039
  451MOL0     O60751   3.663  10.351   9.285 -0.5575 -0.4290 -0.0683
  451MOL0     C60752   3.550  10.308   9.276 -0.3277 -0.1543  0.6394
  451MOL0     O60753   3.513  10.194   9.209 -0.4236  0.1300  0.4258
  451MOL0     C60754   3.618  10.122   9.168  0.5624 -0.2073  0.3790
  451MOL0     C60755   3.680  10.123   9.047 -0.4690  0.1185  0.5366
  451MOL0     C60756   3.786  10.035   9.010  0.8804  0.4341 -0.6115
  451MOL0     C60757   3.827   9.934   9.094  0.3672  0.8893 -0.0268
  451MOL0     O60758   3.922   9.845   9.061 -0.0332  0.4586  0.3509
  451MOL0     C60759   3.954   9.739   9.148  0.4076  0.4043  0.3991
  451MOL0     C60760   4.060   9.653   9.075 -0.4935 -0.4407  0.3917
  451MOL0     C60761   4.123   9.557   9.185  0.4399  0.2756 -0.0761
  451MOL0     C60762   4.224   9.469   9.120  0.3210 -0.4778  0.3321
  451MOL0     C60763   4.277   9.347   9.185 -0.4485 -0.5395 -0.5124
  451MOL0     C60764   4.329   9.386   9.323 -0.0859  1.0739 -0.0608
  451MOL0     C60765   4.418   9.277   9.376 -0.3813 -0.6807 -0.0324
  451MOL0     C60766   4.557   9.261   9.311  0.0473  0.3282  0.4452
  451MOL0     N60767   4.625   9.385   9.297 -0.1142  1.2536  0.3124
  451MOL0     C60768   4.624   9.470   9.188 -0.1774  0.9143  0.0850
  451MOL0     C60769   4.700   9.574   9.220  0.2535  0.5159 -0.2439
  451MOL0     C60770   4.744   9.688   9.126  0.4676  0.2704  0.2265
  451MOL0     C60771   4.620   9.770   9.087  0.1844  0.4429  0.1965
  451MOL0     C60772   4.664   9.878   9.001  0.3909  0.5335  0.7001
  451MOL0     C60773   4.544   9.951   8.944  0.0959  0.5327 -0.1429
  451MOL0     O60774   4.593  10.054   8.850  0.3306  0.2885  0.2676
  451MOL0     C60775   4.514  10.155   8.812 -0.2945  0.6896 -0.0694
  451MOL0     C60776   4.577  10.244   8.727 -0.1837 -0.0748 -0.2946
  451MOL0     C60777   4.505  10.345   8.666  0.4191  0.2999  0.1987
  451MOL0     C60778   4.364  10.351   8.689 -0.1691  0.5199  0.1039
  451MOL0     C60779   4.278  10.464   8.633  0.2787  0.1862 -0.1388
  451MOL0     O60780   4.341  10.569   8.576  0.6497 -0.6669  0.6612
  451MOL0     C60781   4.258  10.666   8.519  1.2245 -0.9635  0.1014
  451MOL0     C60782   4.288  10.709   8.387 -0.3308  0.7096  0.3571
  451MOL0     C60783   4.204  10.805   8.329 -0.1238  0.0832  0.1756
  451MOL0     C60784   4.092  10.852   8.391 -0.3590  0.0916  1.0750
  451MOL0     O60785   4.002  10.943   8.339 -0.3570 -0.4712 -0.3885
  451MOL0     C60786   4.041  11.014   8.223  0.6496 -0.1431 -0.1215
  451MOL0     C60787   3.947  11.130   8.189 -0.3702 -0.1194  0.3952
  451MOL0     C60788   3.996  11.233   8.290  0.6023  0.2710 -0.0171
  451MOL0     C60789   3.909  11.363   8.294  0.7318  0.1820  0.6258
  451MOL0     C60790   3.945  11.460   8.405 -0.8857  0.0547 -0.3976
  451MOL0     C60791   4.096  11.501   8.416  0.1455  0.2520  0.1751
  451MOL0     C60792   4.127  11.555   8.557 -0.2927 -0.1246 -0.2288
  451MOL0     C60793   4.275  11.576   8.579 -0.9721  0.2125  0.2494
  451MOL0    Cl60794   4.315  11.589   8.748 -0.5243 -0.1209  0.1994
  451MOL0     C60795   4.058  10.805   8.518 -0.0231 -0.7660  0.3677
  451MOL0     C60796   4.142  10.718   8.582 -0.7019 -0.0343 -0.0960
  451MOL0     O60797   4.163  10.457   8.665 -0.2049 -0.3727 -0.2642
  451MOL0     C60798   4.298  10.267   8.775 -0.4193  0.4930 -0.7629
  451MOL0     C60799   4.370  10.162   8.839  0.5284  0.0376 -0.8407
  451MOL0     N60800   4.759   9.547   9.338 -0.2460  0.6477 -0.5805
  451MOL0     N60801   4.709   9.436   9.385 -0.1860  0.2524 -0.3615
  451MOL0     C60802   3.769   9.936   9.226  0.2924  0.4951  0.8793
  451MOL0     C60803   3.655  10.015   9.256 -0.2032  0.3756  0.6622
  451MOL0     C60804   3.437  10.383   9.338  0.5410  1.1590 -1.0044
  451MOL0     C60805   3.335  10.303   9.401 -0.0625 -0.8011  0.9682
  451MOL0     C60806   3.224  10.368   9.449 -0.0174  0.2547 -0.0976
  451MOL0     C60807   3.204  10.505   9.438  0.3060  1.1401 -0.2627
  451MOL0     O60808   3.087  10.569   9.459 -0.3715 -0.2212  0.1116
  451MOL0     C60809   2.968  10.501   9.499 -0.5518 -0.7790 -0.2194
  451MOL0     C60810   2.906  10.421   9.387  0.4420  0.0756 -0.0884
  451MOL0     C60811   2.760  10.389   9.427  0.3484 -0.8885  1.5854
  451MOL0     C60812   2.749  10.335   9.567  1.2708  0.2269  0.5244
  451MOL0     C60813   2.619  10.274   9.600  0.1780 -0.3250 -0.1625
  451MOL0     C60814   2.519  10.213   9.618  0.7993  0.4552 -0.6379
  451MOL0     C60815   3.310  10.581   9.380 -0.2661 -0.7767  0.1747
  451MOL0     C60816   3.426  10.526   9.329 -0.3463 -0.2287 -0.0673
  451MOL0     C60817   3.515  10.618   9.257 -0.5589  0.1126  0.6827
  451MOL0     H60818   3.651  10.190   8.966 -0.2471  0.0738  0.4211
  451MOL0     H60819   3.835  10.046   8.914  2.7582  1.6841  0.4027
  451MOL0     H60820   3.986   9.775   9.246  0.0632  1.7630  0.0298
  451MOL0     H60821   3.866   9.676   9.163 -0.9117  2.2135  0.5797
  451MOL0     H60822   4.142   9.715   9.037 -0.2507 -1.9006 -1.7168
  451MOL0     H60823   4.007   9.599   8.995  1.5028  1.1474 -2.1865
  451MOL0     H60824   4.041   9.500   9.230 -0.1964  1.1930 -0.0409
  451MOL0     H60825   4.157   9.628   9.261 -3.8883  0.9969  1.4499
  451MOL0     H60826   4.169   9.434   9.032 -1.5659  2.9771 -0.0715
  451MOL0     H60827   4.307   9.531   9.083  2.1907 -1.5740  2.4704
  451MOL0     H60828   4.205   9.265   9.190 -1.4508  0.0515 -3.2693
  451MOL0     H60829   4.362   9.307   9.128 -0.6270 -0.3231 -0.9392
  451MOL0     H60830   4.367   9.489   9.322 -1.1989  1.5363  1.5400
  451MOL0     H60831   4.239   9.395   9.384 -0.6878 -3.5644  0.1137
  451MOL0     H60832   4.368   9.180   9.369 -0.8308 -0.5063  0.6888
  451MOL0     H60833   4.429   9.301   9.482  0.9653  0.9560 -0.4946
  451MOL0     H60834   4.630   9.199   9.365  0.7528  0.7214 -0.0569
  451MOL0     H60835   4.538   9.220   9.212  2.4824  0.7204 -0.2397
  451MOL0     H60836   4.570   9.446   9.096  1.7021  0.1628 -0.8779
  451MOL0     H60837   4.810   9.762   9.173 -1.3928  2.5480 -0.6114
  451MOL0     H60838   4.801   9.634   9.049  1.3463  1.5868 -0.0820
  451MOL0     H60839   4.551   9.699   9.040 -1.5383  1.8678  0.4634
  451MOL0     H60840   4.560   9.796   9.174 -0.6933 -2.7330  0.6713
  451MOL0     H60841   4.728   9.832   8.925  0.7404  0.9124  0.7585
  451MOL0     H60842   4.724   9.950   9.058 -0.8893  1.1811  1.2571
  451MOL0     H60843   4.495  10.002   9.027 -0.4967 -1.0987  0.5581
  451MOL0     H60844   4.476   9.879   8.897  1.4757  0.5956 -2.3885
  451MOL0     H60845   4.684  10.230   8.708  0.1685 -3.8563  3.0256
  451MOL0     H60846   4.565  10.403   8.598  3.3774 -1.2320  1.3012
  451MOL0     H60847   4.386  10.685   8.345 -0.6237 -3.2982  1.5028
  451MOL0     H60848   4.221  10.831   8.225 -1.2022 -2.3310 -0.6820
  451MOL0     H60849   4.139  11.060   8.239  0.0682  2.0219 -2.2408
  451MOL0     H60850   4.037  10.941   8.143  1.6068 -1.4800  1.0037
  451MOL0     H60851   3.976  11.162   8.088  0.4376 -0.2578  0.5760
  451MOL0     H60852   3.841  11.104   8.194 -0.9971  2.3351  1.0339
  451MOL0     H60853   3.997  11.194   8.392  1.8282  0.8885  0.2187
  451MOL0     H60854   4.099  11.263   8.269 -0.0750  1.6832 -1.6000
  451MOL0     H60855   3.802  11.343   8.298  0.7138 -0.5707 -1.8098
  451MOL0     H60856   3.914  11.418   8.199 -0.5345  2.3162  1.7366
  451MOL0     H60857   3.912  11.419   8.501  0.9973  1.1050  0.7556
  451MOL0     H60858   3.895  11.552   8.372  0.9670  1.1415 -0.3339
  451MOL0     H60859   4.166  11.418   8.398  0.9267  0.6606  1.2381
  451MOL0     H60860   4.118  11.581   8.346 -2.2851  0.8298 -0.0066
  451MOL0     H60861   4.084  11.492   8.636 -0.8569  0.7930  0.2113
  451MOL0     H60862   4.074  11.649   8.573  0.6249  0.0021  2.6489
  451MOL0     H60863   4.335  11.491   8.544 -1.9172 -0.4431  0.2042
  451MOL0     H60864   4.303  11.670   8.530  1.4401 -0.3402  0.4209
  451MOL0     H60865   3.971  10.860   8.552  1.4853  1.0219  1.6105
  451MOL0     H60866   4.118  10.688   8.683  1.3304 -1.4589  0.0220
  451MOL0     H60867   4.196  10.285   8.807  0.3431  2.4941  0.7063
  451MOL0     H60868   4.335  10.096   8.917  0.5121 -1.8666 -2.3838
  451MOL0     H60869   3.793   9.860   9.301  1.7755 -1.2764 -1.2596
  451MOL0     H60870   3.602  10.007   9.350 -0.0301  0.9362  0.8112
  451MOL0     H60871   3.349  10.195   9.404  1.6581 -0.7164 -1.2398
  451MOL0     H60872   3.152  10.297   9.488  0.5370 -2.8498 -4.1067
  451MOL0     H60873   2.894  10.564   9.549 -0.1562 -0.2266 -0.3181
  451MOL0     H60874   3.006  10.445   9.585 -0.4226 -1.8856 -0.9692
  451MOL0     H60875   2.964  10.330   9.364 -2.5428 -2.4671  1.6387
  451MOL0     H60876   2.905  10.482   9.296  0.6239  0.3121  0.0667
  451MOL0     H60877   2.723  10.313   9.356  0.9787  0.1499  0.1038
  451MOL0     H60878   2.704  10.482   9.416  2.1456 -0.0431 -2.0467
  451MOL0     H60879   2.829  10.261   9.576 -0.8628 -2.2243  0.3750
  451MOL0     H60880   2.765  10.417   9.638 -0.6493 -0.3925  1.7274
  451MOL0     H60881   2.429  10.158   9.636  1.5781 -0.9431 -0.9355
  451MOL0     H60882   3.296  10.689   9.375  0.0301 -0.8113 -2.6460
  451MOL0     H60883   3.585  10.655   9.333  0.0387  0.4945 -0.0408
  451MOL0     H60884   3.557  10.571   9.168 -1.1826 -1.1493  1.0298
  451MOL0     H60885   3.466  10.705   9.213 -2.7001 -1.5537 -0.4080
  452MOL0     O60886   0.543   9.767   9.633  0.5096 -0.4474  0.5653
  452MOL0     C60887   0.494   9.685   9.715 -0.5751 -1.7503  0.1913
  452MOL0     O60888   0.573   9.608   9.798 -0.2738 -0.0311 -0.5890
  452MOL0     C60889   0.696   9.661   9.829 -0.6301 -0.0639  0.0840
  452MOL0     C60890   0.714   9.794   9.874 -1.0862  0.5423 -0.4450
  452MOL0     C60891   0.849   9.849   9.898 -0.2925 -0.1495 -0.3340
  452MOL0     C60892   0.958   9.770   9.881  0.9470  0.5772  0.1262
  452MOL0     O60893   1.076   9.812   9.926 -0.0129 -0.3453  0.1221
  452MOL0     C60894   1.125   9.947   9.888 -0.3603  0.1833 -1.2377
  452MOL0     C60895   1.275   9.955   9.910 -0.2441 -1.1888  0.4573
  452MOL0     C60896   1.323  10.006  10.043 -0.5231 -0.2275  0.3410
  452MOL0     C60897   1.410   9.910  10.128  1.0432  0.4953 -0.1953
  452MOL0     C60898   1.560   9.912  10.107  0.1803  0.6391  0.1020
  452MOL0     C60899   1.638  10.027  10.160 -0.6468 -0.0064  0.0118
  452MOL0     C60900   1.795  10.007  10.159  0.1753 -0.7447 -0.0807
  452MOL0     C60901   1.851   9.936  10.290  1.7498  0.3207 -0.3514
  452MOL0     N60902   1.996   9.943  10.301 -0.0788  0.1155 -0.1380
  452MOL0     C60903   2.072   9.884  10.206  0.3103 -0.2257 -0.1426
  452MOL0     C60904   2.199   9.916  10.249 -0.9613  0.6225 -0.2011
  452MOL0     C60905   2.313   9.867  10.170  0.0199  0.0462  0.0980
  452MOL0     C60906   2.442   9.839  10.251  0.6417  0.3696  0.7401
  452MOL0     C60907   2.530   9.753  10.154  0.8298  0.4723  0.0565
  452MOL0     C60908   2.650   9.706  10.224 -0.2093  0.4929  0.3431
  452MOL0     O60909   2.726   9.625  10.135  0.4720  0.2541 -0.8371
  452MOL0     C60910   2.854   9.595  10.177  0.3898 -0.4816  0.7135
  452MOL0     C60911   2.919   9.612  10.306  0.1156  0.4620 -0.0396
  452MOL0     C60912   3.047   9.562  10.342  0.0910  1.0603 -0.1486
  452MOL0     C60913   3.112   9.482  10.240 -0.9609 -0.7522 -0.3109
  452MOL0     C60914   3.248   9.429  10.270 -0.5772  0.1278 -0.5844
  452MOL0     O60915   3.301   9.446  10.391 -0.8974  0.4475  0.4444
  452MOL0     C60916   3.400   9.368  10.448  0.6404  0.5296  0.0373
  452MOL0     C60917   3.415   9.385  10.587  0.1277 -0.2654  0.3252
  452MOL0     C60918   3.497   9.296  10.659 -0.2301 -0.1216  0.0972
  452MOL0     C60919   3.574   9.192  10.592 -0.0179  0.1421 -0.8085
  452MOL0     O60920   3.659   9.113  10.669  0.0790  0.2806 -0.0140
  452MOL0     C60921   3.703   8.978  10.646  0.1869  0.3068 -0.2273
  452MOL0     C60922   3.661   8.895  10.765  0.5527 -0.7829 -0.5566
  452MOL0     C60923   3.635   8.742  10.735 -0.2215 -0.1020  0.5463
  452MOL0     C60924   3.770   8.666  10.755 -0.2423  0.6320  0.3024
  452MOL0     C60925   3.816   8.608  10.615 -0.0404 -0.4603  0.2202
  452MOL0     C60926   3.923   8.503  10.640  0.4832  0.3989  0.2259
  452MOL0     C60927   3.993   8.458  10.507  0.4086 -0.0317  0.1415
  452MOL0     C60928   3.902   8.372  10.413  0.4259  0.3216  0.8363
  452MOL0    Cl60929   3.988   8.350  10.267  0.1694  0.2943  0.5291
  452MOL0     C60930   3.564   9.183  10.459 -1.0217 -0.6929 -0.4262
  452MOL0     C60931   3.475   9.262  10.392 -0.5243 -0.3643  0.4214
  452MOL0     O60932   3.303   9.378  10.173  0.3010  0.1003  1.0831
  452MOL0     C60933   3.058   9.476  10.110 -0.3839  0.1969 -0.2209
  452MOL0     C60934   2.929   9.530  10.081 -0.1184 -0.9543 -0.0607
  452MOL0     N60935   2.192  10.005  10.355  0.1889  0.8297  0.5592
  452MOL0     N60936   2.071  10.027  10.376 -0.1304 -0.8140 -0.3951
  452MOL0     C60937   0.941   9.632   9.840  0.3378 -0.8813 -0.3792
  452MOL0     C60938   0.813   9.576   9.822 -0.5369 -0.0655 -0.8455
  452MOL0     C60939   0.348   9.664   9.717 -0.0092 -0.8651 -0.2444
  452MOL0     C60940   0.308   9.546   9.780 -0.0622 -0.3339 -0.4002
  452MOL0     C60941   0.181   9.499   9.782  0.8931  0.1915  0.3853
  452MOL0     C60942   0.073   9.571   9.725 -0.1817 -0.2743 -0.2605
  452MOL0     O60943  -0.061   9.547   9.734 -0.0950  0.9140 -0.6579
  452MOL0     C60944  -0.105   9.418   9.777  0.8642  0.2489 -0.0098
  452MOL0     C60945  -0.261   9.436   9.798 -1.2022  0.6637 -0.4947
  452MOL0     C60946  -0.330   9.334   9.887 -0.8075  0.6250 -0.6564
  452MOL0     C60947  -0.484   9.330   9.894  0.2191  0.1458 -0.0853
  452MOL0     C60948  -0.528   9.194   9.943  0.2522 -1.4349  0.3454
  452MOL0     C60949  -0.543   9.077   9.962  0.0107  0.2305 -0.7087
  452MOL0     C60950   0.110   9.695   9.670  1.1659  0.4140  0.1582
  452MOL0     C60951   0.242   9.741   9.658 -0.3161 -0.4872  0.7872
  452MOL0     C60952   0.264   9.881   9.601  0.8448 -0.3312  0.1981
  452MOL0     H60953   0.629   9.859   9.896 -0.0805  2.4979 -1.9719
  452MOL0     H60954   0.858   9.946   9.944  0.2276  0.3079 -1.3799
  452MOL0     H60955   1.108   9.969   9.782 -0.3193 -0.6113 -1.4168
  452MOL0     H60956   1.071  10.023   9.946 -1.0964  1.4315 -3.4144
  452MOL0     H60957   1.303  10.028   9.833 -0.5531  0.5219  1.9151
  452MOL0     H60958   1.329   9.867   9.874  0.0688 -0.7551 -0.1490
  452MOL0     H60959   1.234  10.033  10.100  0.2409  0.7365  1.1155
  452MOL0     H60960   1.376  10.100  10.026  1.3747 -1.5290 -1.5483
  452MOL0     H60961   1.382   9.939  10.229  1.2320  0.8816 -0.2520
  452MOL0     H60962   1.374   9.808  10.110 -0.1361 -0.1893  4.7142
  452MOL0     H60963   1.603   9.819  10.145 -3.0895 -1.8788 -1.8225
  452MOL0     H60964   1.578   9.913   9.999  0.2048  1.5978  0.1019
  452MOL0     H60965   1.606  10.115  10.104 -0.2606 -0.3791 -0.8005
  452MOL0     H60966   1.623  10.053  10.265  1.9669  0.6131  0.2962
  452MOL0     H60967   1.830  10.109  10.141 -2.1875 -0.1401 -1.7925
  452MOL0     H60968   1.829   9.946  10.075 -0.3869  0.2384 -1.0473
  452MOL0     H60969   1.811   9.977  10.383 -0.9377 -1.0840 -0.8029
  452MOL0     H60970   1.808   9.836  10.276 -1.5124  1.4650  0.7692
  452MOL0     H60971   2.029   9.821  10.129  0.1318  0.3844 -0.5473
  452MOL0     H60972   2.277   9.777  10.120 -2.8110  0.7776  0.6611
  452MOL0     H60973   2.340   9.941  10.094  0.9791 -0.9670 -0.5822
  452MOL0     H60974   2.483   9.930  10.296 -0.6213  1.3443 -0.0331
  452MOL0     H60975   2.413   9.765  10.326 -1.8538  0.2738 -0.2439
  452MOL0     H60976   2.549   9.792  10.053  1.5462  0.4062  0.1669
  452MOL0     H60977   2.476   9.660  10.132 -1.0793  1.6894 -0.6793
  452MOL0     H60978   2.621   9.643  10.308 -1.2512  0.4795 -0.0178
  452MOL0     H60979   2.713   9.789  10.255  0.6353  0.7917 -1.9609
  452MOL0     H60980   2.866   9.660  10.388  1.6489 -0.3653  1.5143
  452MOL0     H60981   3.091   9.581  10.440  1.4527 -1.2587 -0.2179
  452MOL0     H60982   3.370   9.472  10.634 -0.1185 -1.0942  1.6593
  452MOL0     H60983   3.508   9.294  10.767 -0.4296 -4.4385  0.2258
  452MOL0     H60984   3.650   8.937  10.559 -0.8858 -0.3352  0.6947
  452MOL0     H60985   3.812   8.977  10.652  0.2277  1.6145 -0.3247
  452MOL0     H60986   3.742   8.902  10.838  1.0174 -2.1801 -0.9031
  452MOL0     H60987   3.572   8.942  10.809 -1.4356 -3.3154 -1.5995
  452MOL0     H60988   3.559   8.715  10.809  1.5813 -0.6096  2.2886
  452MOL0     H60989   3.593   8.735  10.634 -1.3310  0.8744  0.9122
  452MOL0     H60990   3.760   8.593  10.836  4.2035 -0.4647  0.1258
  452MOL0     H60991   3.850   8.728  10.797  2.1977  1.1432 -4.4599
  452MOL0     H60992   3.862   8.690  10.558 -0.9723  1.4955  2.1562
  452MOL0     H60993   3.729   8.568  10.561  1.1262 -1.4906 -0.9742
  452MOL0     H60994   3.996   8.539  10.713  1.9598  0.8674 -1.4082
  452MOL0     H60995   3.881   8.414  10.686  2.0383 -0.9761 -0.8599
  452MOL0     H60996   4.072   8.391  10.540  0.6287  0.1456 -0.0260
  452MOL0     H60997   4.021   8.553  10.460 -2.3046  0.3330 -0.9571
  452MOL0     H60998   3.886   8.269  10.445  0.4756 -0.2548 -0.9034
  452MOL0     H60999   3.806   8.418  10.385 -0.1833 -2.4302 -2.1901
  452MOL0     H61000   3.617   9.102  10.408  0.6207  0.5935 -0.8786
  452MOL0     H61001   3.466   9.241  10.286  0.0986  1.3488 -0.0001
  452MOL0     H61002   3.103   9.421  10.029  1.9842  2.0774 -0.2819
  452MOL0     H61003   2.890   9.506   9.983  2.1840  0.8079 -1.5322
  452MOL0     H61004   1.011   9.549   9.841 -0.9109 -2.0689  2.8178
  452MOL0     H61005   0.803   9.470   9.802  1.7243 -0.2122 -1.4417
  452MOL0     H61006   0.382   9.484   9.831 -0.7127  0.8378  2.1484
  452MOL0     H61007   0.147   9.412   9.837 -1.5796 -0.2028 -1.5311
  452MOL0     H61008  -0.061   9.387   9.872  3.2031  1.5332 -0.6025
  452MOL0     H61009  -0.099   9.349   9.692 -2.6606  0.9067 -0.9486
  452MOL0     H61010  -0.326   9.431   9.710  0.5148 -0.2381 -1.7726
  452MOL0     H61011  -0.281   9.533   9.846 -2.0358  0.6206 -0.7395
  452MOL0     H61012  -0.300   9.357   9.990 -1.3222 -2.2743  0.2610
  452MOL0     H61013  -0.292   9.233   9.868 -0.7001  0.3298  0.9841
  452MOL0     H61014  -0.526   9.417   9.945  4.4592  2.6683 -0.4542
  452MOL0     H61015  -0.522   9.333   9.791 -2.4200 -3.1417  0.6239
  452MOL0     H61016  -0.548   8.972   9.983 -0.9479  0.9628  3.8460
  452MOL0     H61017   0.026   9.756   9.637 -2.2223 -2.0668  3.3627
  452MOL0     H61018   0.172   9.922   9.558  1.5074  0.0513 -0.9062
  452MOL0     H61019   0.295   9.954   9.676 -2.0728 -1.1862  2.4096
  452MOL0     H61020   0.338   9.884   9.520 -0.2489 -0.0891 -0.8274
  453MOL0     O61021   0.598   2.520   9.958  0.6969  0.2818  0.0714
  453MOL0     C61022   0.493   2.591   9.947 -0.6392  0.7577 -0.2853
  453MOL0     O61023   0.488   2.722   9.906 -0.2629  0.7470  0.7035
  453MOL0     C61024   0.583   2.798   9.852 -0.3062  0.0932  0.2118
  453MOL0     C61025   0.609   2.936   9.889  0.8065  0.2692  0.4397
  453MOL0     C61026   0.737   2.993   9.866  0.6518  0.2045  0.4120
  453MOL0     C61027   0.827   2.933   9.776 -0.1392  0.6275 -0.0101
  453MOL0     O61028   0.947   2.986   9.730 -0.2615  1.1507  0.1218
  453MOL0     C61029   1.024   3.014   9.841 -0.3723 -0.4768 -0.8557
  453MOL0     C61030   1.167   3.029   9.810 -0.1834  0.5586  0.5028
  453MOL0     C61031   1.248   3.032   9.938  0.9375  0.4191 -0.4692
  453MOL0     C61032   1.387   3.085   9.917  0.4959  0.0214  0.1558
  453MOL0     C61033   1.476   3.081  10.045 -0.4178  0.4711  0.1150
  453MOL0     C61034   1.612   3.133  10.021 -0.4257 -0.1775 -0.1524
  453MOL0     C61035   1.682   3.054   9.913  0.0008  0.8305  0.3873
  453MOL0     C61036   1.831   3.109   9.887  0.0536  1.0946  0.0925
  453MOL0     N61037   1.884   3.046   9.759  0.0879 -0.1930  0.2762
  453MOL0     C61038   1.908   2.909   9.740 -0.1995 -0.1579  0.6580
  453MOL0     C61039   1.972   2.914   9.616 -0.6764 -0.8832 -0.2723
  453MOL0     C61040   2.037   2.804   9.548  0.3800 -0.3166  0.1506
  453MOL0     C61041   2.169   2.840   9.502 -0.2147  0.5798 -0.5828
  453MOL0     C61042   2.183   2.903   9.359 -0.6719  0.5487  0.6539
  453MOL0     C61043   2.324   2.899   9.301  0.3525 -0.2529 -0.9320
  453MOL0     O61044   2.341   2.944   9.165  0.1073  0.3526 -0.0457
  453MOL0     C61045   2.468   2.996   9.130 -0.2212  0.4378  0.2165
  453MOL0     C61046   2.475   3.047   9.007  0.8339  0.2911 -1.4706
  453MOL0     C61047   2.597   3.096   8.948  0.4065  0.0813  1.0533
  453MOL0     C61048   2.710   3.098   9.019 -0.8209 -0.4983  0.3000
  453MOL0     C61049   2.841   3.132   8.956  1.2471 -0.3005  0.6141
  453MOL0     O61050   2.959   3.122   9.022  0.2598  0.2467 -0.5760
  453MOL0     C61051   3.067   3.179   8.959 -0.0646  0.5593  0.6456
  453MOL0     C61052   3.153   3.267   9.033  0.4008 -0.0564 -0.2170
  453MOL0     C61053   3.259   3.334   8.971  0.2662  0.4879 -0.0047
  453MOL0     C61054   3.302   3.300   8.843  0.0866  0.9928  0.7368
  453MOL0     O61055   3.406   3.361   8.781  0.6393 -0.6786  0.0849
  453MOL0     C61056   3.377   3.414   8.649  0.2164 -0.7406 -0.0394
  453MOL0     C61057   3.496   3.480   8.583  0.3186  0.4452  0.1576
  453MOL0     C61058   3.470   3.488   8.435  0.7332  0.1983  0.7477
  453MOL0     C61059   3.548   3.602   8.359 -0.6889  0.4213  0.4275
  453MOL0     C61060   3.532   3.597   8.210  0.7509 -0.4542  0.1412
  453MOL0     C61061   3.543   3.724   8.129  1.6084 -0.0887  0.1825
  453MOL0     C61062   3.691   3.749   8.099  0.4700 -0.3336  0.4051
  453MOL0     C61063   3.721   3.861   8.007  1.0652  0.2942  0.9440
  453MOL0    Cl61064   3.894   3.849   7.955  0.2466 -0.4074 -0.3081
  453MOL0     C61065   3.227   3.202   8.772 -0.3816  0.3365  0.8880
  453MOL0     C61066   3.113   3.146   8.827  0.1873  0.0626  0.1467
  453MOL0     O61067   2.822   3.183   8.844 -0.0882 -0.6173  0.9909
  453MOL0     C61068   2.707   3.062   9.154 -0.3393  0.2091 -0.8732
  453MOL0     C61069   2.585   3.012   9.211 -0.6250 -0.2960 -0.5811
  453MOL0     N61070   1.992   3.045   9.574 -0.5242  0.4488  1.1749
  453MOL0     N61071   1.935   3.132   9.657  1.0021  0.2975  0.3194
  453MOL0     C61072   0.786   2.804   9.722  0.9057 -0.1731 -0.3512
  453MOL0     C61073   0.675   2.738   9.763 -0.0389 -0.3584 -1.1352
  453MOL0     C61074   0.376   2.524   9.990 -0.7725 -0.3510  0.4423
  453MOL0     C61075   0.375   2.428  10.094 -0.3731  0.0243 -0.1832
  453MOL0     C61076   0.257   2.367  10.138 -0.3048 -0.1030 -0.5282
  453MOL0     C61077   0.142   2.380  10.067 -0.7058  0.7153  0.1080
  453MOL0     O61078   0.033   2.301  10.099  0.3493 -0.0200 -0.1619
  453MOL0     C61079  -0.094   2.319  10.040 -0.2177 -0.6717  0.0246
  453MOL0     C61080  -0.100   2.274   9.900  0.2590 -0.6449  0.3122
  453MOL0     C61081  -0.228   2.190   9.868 -0.7548 -0.6784 -0.5105
  453MOL0     C61082  -0.211   2.049   9.896  0.1102 -0.4792 -0.3958
  453MOL0     C61083  -0.316   1.978   9.824  0.6814  0.1842  0.6932
  453MOL0     C61084  -0.400   1.921   9.759  0.3464  0.4524 -0.3065
  453MOL0     C61085   0.135   2.478   9.966  0.5071 -0.8085 -0.2023
  453MOL0     C61086   0.247   2.548   9.925 -2.0040  0.0496 -0.6780
  453MOL0     C61087   0.234   2.635   9.797 -0.5030  1.1540 -0.4857
  453MOL0     H61088   0.537   2.994   9.946 -1.5630 -1.0618 -1.0362
  453MOL0     H61089   0.759   3.092   9.906  1.5076 -1.1004  3.4907
  453MOL0     H61090   0.992   3.106   9.891 -0.4155 -1.4974  1.0976
  453MOL0     H61091   1.017   2.929   9.910 -2.0558 -0.4503 -0.9562
  453MOL0     H61092   1.184   3.110   9.738  0.3376  0.9822  1.0935
  453MOL0     H61093   1.201   2.940   9.756  1.2631  0.6938  1.1419
  453MOL0     H61094   1.248   2.935   9.987 -0.7121 -0.0112 -1.2462
  453MOL0     H61095   1.200   3.097  10.011  0.9963  0.6071 -0.5963
  453MOL0     H61096   1.432   3.021   9.840 -1.0081 -0.6685 -0.1752
  453MOL0     H61097   1.375   3.188   9.880 -3.4389  0.7555  2.8418
  453MOL0     H61098   1.436   3.150  10.120  0.3087  0.3594  0.6277
  453MOL0     H61099   1.487   2.981  10.088 -0.9054  0.8317  1.1212
  453MOL0     H61100   1.604   3.240  10.000 -3.1699 -0.3669 -0.5391
  453MOL0     H61101   1.666   3.131  10.116  0.3391 -2.9574 -0.5550
  453MOL0     H61102   1.637   3.058   9.814 -1.8898 -0.6415  1.1277
  453MOL0     H61103   1.674   2.952   9.952 -1.5363  0.9176  0.3440
  453MOL0     H61104   1.813   3.215   9.866  1.1067  0.8066 -2.7558
  453MOL0     H61105   1.891   3.102   9.978 -2.0619  1.3024  1.5628
  453MOL0     H61106   1.874   2.822   9.797 -1.1003  0.6051  1.3216
  453MOL0     H61107   2.044   2.721   9.618 -1.5271  0.0113  0.7886
  453MOL0     H61108   1.973   2.764   9.469  0.9807  0.3635 -0.6944
  453MOL0     H61109   2.216   2.917   9.564 -1.1484  2.6987 -2.3783
  453MOL0     H61110   2.232   2.751   9.504  1.7056  1.8442  2.3220
  453MOL0     H61111   2.150   3.007   9.369  0.2611  0.9951 -0.6697
  453MOL0     H61112   2.106   2.848   9.305 -1.8273  1.9199  0.8439
  453MOL0     H61113   2.347   2.792   9.307 -1.4740 -0.5949  1.2012
  453MOL0     H61114   2.388   2.959   9.365  1.6042 -3.9524  1.5787
  453MOL0     H61115   2.383   3.044   8.949 -0.1077  1.3054 -0.0950
  453MOL0     H61116   2.587   3.138   8.848 -2.3855 -0.0939  1.1599
  453MOL0     H61117   3.117   3.293   9.132  1.0645  0.9689 -0.2371
  453MOL0     H61118   3.301   3.421   9.022 -0.8433 -0.1577  2.1317
  453MOL0     H61119   3.323   3.344   8.584  1.1785 -1.7453  0.2012
  453MOL0     H61120   3.311   3.497   8.676  1.1563 -0.3871  1.2553
  453MOL0     H61121   3.497   3.587   8.608 -0.2916  0.1880  1.3996
  453MOL0     H61122   3.593   3.436   8.608  1.2609  2.2883 -0.0907
  453MOL0     H61123   3.505   3.392   8.394 -2.4126 -1.0305  0.6921
  453MOL0     H61124   3.363   3.498   8.418  0.8971 -0.5157 -0.9254
  453MOL0     H61125   3.655   3.589   8.374 -0.1067 -1.7664 -3.9876
  453MOL0     H61126   3.504   3.697   8.391 -1.2142  0.8519 -1.4554
  453MOL0     H61127   3.430   3.557   8.204  0.3627 -0.6595  4.6680
  453MOL0     H61128   3.605   3.521   8.182 -0.7410 -3.9085  4.3928
  453MOL0     H61129   3.485   3.702   8.038 -3.5824  0.9544  2.8379
  453MOL0     H61130   3.486   3.801   8.181 -1.8061 -2.7670  0.8304
  453MOL0     H61131   3.734   3.664   8.046  0.2940  1.1480 -2.2712
  453MOL0     H61132   3.757   3.762   8.186 -0.3868  1.5759  0.8270
  453MOL0     H61133   3.665   3.855   7.913  2.4826 -0.7546  0.1354
  453MOL0     H61134   3.713   3.963   8.045 -2.7668  0.7457 -0.5946
  453MOL0     H61135   3.258   3.168   8.673  2.9150  2.9362  0.8340
  453MOL0     H61136   3.052   3.073   8.775 -0.6785  0.1169  1.0610
  453MOL0     H61137   2.785   3.060   9.229 -1.4991 -2.0343  0.3627
  453MOL0     H61138   2.581   2.969   9.311 -1.1493  1.9788  0.4383
  453MOL0     H61139   0.850   2.750   9.653  2.6322 -1.5608  2.1475
  453MOL0     H61140   0.656   2.641   9.719 -2.2585 -1.1149  1.2538
  453MOL0     H61141   0.462   2.394  10.149  0.5349 -0.0525 -1.6222
  453MOL0     H61142   0.255   2.294  10.217 -4.1840 -1.8661 -1.9678
  453MOL0     H61143  -0.123   2.424  10.039 -0.2422 -0.6729 -1.4736
  453MOL0     H61144  -0.161   2.259  10.103 -0.2679 -1.1759 -0.5002
  453MOL0     H61145  -0.003   2.228   9.883  1.4091  1.5029  0.7917
  453MOL0     H61146  -0.103   2.356   9.828  1.7114 -1.0575 -0.2388
  453MOL0     H61147  -0.228   2.206   9.760  4.0133 -1.8236 -0.9374
  453MOL0     H61148  -0.325   2.216   9.911 -1.8965 -3.3046 -1.2940
  453MOL0     H61149  -0.115   2.028   9.847  1.5910  2.7261  0.8683
  453MOL0     H61150  -0.203   2.034  10.004  0.8906  2.8229  0.1077
  453MOL0     H61151  -0.477   1.875   9.700 -1.2150  2.0012  0.4323
  453MOL0     H61152   0.036   2.501   9.929  1.4126 -0.3605 -2.4997
  453MOL0     H61153   0.325   2.615   9.740  1.9512  0.5441  3.3005
  453MOL0     H61154   0.134   2.612   9.759 -0.2210  0.3782 -0.7723
  453MOL0     H61155   0.256   2.737   9.829  0.3672  0.9319 -0.3698
  454MOL0     O61156   0.767   8.585   7.720 -0.4707  0.4335 -0.4138
  454MOL0     C61157   0.775   8.459   7.702  0.3190 -0.0249 -0.4899
  454MOL0     O61158   0.858   8.391   7.620  0.1966  0.1033  0.5456
  454MOL0     C61159   0.944   8.467   7.541 -0.4085 -0.0637  0.3789
  454MOL0     C61160   0.890   8.560   7.451 -0.3283 -0.5050  0.3702
  454MOL0     C61161   0.980   8.630   7.370 -0.3340  0.8358  0.3613
  454MOL0     C61162   1.115   8.603   7.365  0.4318 -0.1166 -0.2499
  454MOL0     O61163   1.184   8.662   7.257  0.1801 -0.3126 -0.6644
  454MOL0     C61164   1.324   8.681   7.276  0.8496 -0.6000 -0.8789
  454MOL0     C61165   1.411   8.586   7.201  0.5278 -0.2061  0.1583
  454MOL0     C61166   1.550   8.579   7.272  0.7030  0.1278  1.0615
  454MOL0     C61167   1.565   8.478   7.388  0.0289 -0.6279  0.0860
  454MOL0     C61168   1.698   8.472   7.460 -0.2252  0.4838 -0.6058
  454MOL0     C61169   1.824   8.430   7.381  0.4610  0.2107  0.4691
  454MOL0     C61170   1.823   8.281   7.342  0.4715  0.2152 -0.3810
  454MOL0     C61171   1.964   8.234   7.278  1.0818 -0.1104  0.4966
  454MOL0     N61172   1.989   8.297   7.152  0.9558 -0.3138 -0.3734
  454MOL0     C61173   2.078   8.394   7.116 -0.2401  0.0861 -0.6773
  454MOL0     C61174   2.060   8.421   6.991 -0.5245 -0.2537  0.1594
  454MOL0     C61175   2.142   8.514   6.908 -0.1942  0.9666  0.0181
  454MOL0     C61176   2.276   8.446   6.876  0.2196 -0.4759 -0.6452
  454MOL0     C61177   2.337   8.518   6.759  0.0117  0.2053  0.1541
  454MOL0     C61178   2.365   8.664   6.770 -0.1548 -0.2284  0.3632
  454MOL0     O61179   2.470   8.671   6.871  0.1852 -0.2953 -0.6919
  454MOL0     C61180   2.609   8.655   6.863  0.3028 -0.2702  0.3566
  454MOL0     C61181   2.668   8.667   6.983  0.4931  0.1499  0.0614
  454MOL0     C61182   2.802   8.626   6.998  0.8609  0.2628  0.4880
  454MOL0     C61183   2.879   8.594   6.880 -0.9963 -1.1548 -0.4716
  454MOL0     C61184   3.024   8.567   6.889 -0.6703 -0.2974 -0.3577
  454MOL0     O61185   3.092   8.576   7.008  0.4997  0.1448  0.4525
  454MOL0     C61186   3.227   8.518   7.017  0.8264  0.3952 -0.3686
  454MOL0     C61187   3.342   8.583   6.963 -1.0422  1.0268  0.5972
  454MOL0     C61188   3.471   8.520   6.963  0.0922 -1.4607  0.6346
  454MOL0     C61189   3.483   8.394   7.017  0.7740  0.0689  0.3089
  454MOL0     O61190   3.605   8.325   7.027 -1.0061  0.2155 -0.0268
  454MOL0     C61191   3.709   8.362   6.936  0.6171  0.5311  1.1179
  454MOL0     C61192   3.803   8.247   6.900 -0.7165  0.5289 -0.2541
  454MOL0     C61193   3.731   8.147   6.805 -0.2502 -0.4870 -0.1616
  454MOL0     C61194   3.771   8.175   6.668  0.3047 -0.1599  0.7798
  454MOL0     C61195   3.718   8.056   6.576 -0.3890  0.0975 -1.1783
  454MOL0     C61196   3.767   8.079   6.425 -0.4968  0.2492 -0.0573
  454MOL0     C61197   3.927   8.070   6.406  1.2983 -0.0085 -0.1377
  454MOL0     C61198   3.988   7.952   6.477 -0.2556 -0.0560 -0.1292
  454MOL0    Cl61199   4.156   7.930   6.419  0.3430  0.1536 -0.0119
  454MOL0     C61200   3.368   8.329   7.071  0.4285 -0.6837  0.3955
  454MOL0     C61201   3.241   8.392   7.077 -0.3733 -0.5561  1.7328
  454MOL0     O61202   3.080   8.538   6.785  0.4791  0.2194  0.1915
  454MOL0     C61203   2.819   8.603   6.751  0.3011 -0.4242 -0.0663
  454MOL0     C61204   2.680   8.620   6.744  0.0506  0.6881  0.4979
  454MOL0     N61205   1.949   8.350   6.943 -0.3734  0.1028 -0.1283
  454MOL0     N61206   1.910   8.278   7.043  0.5080 -0.1068 -0.0128
  454MOL0     C61207   1.167   8.508   7.453  0.1485 -0.1105  0.6672
  454MOL0     C61208   1.079   8.433   7.535 -0.3422 -0.6094 -0.0863
  454MOL0     C61209   0.682   8.376   7.789  0.4585 -0.0923 -0.6251
  454MOL0     C61210   0.609   8.439   7.893 -0.4830 -0.6186 -0.2345
  454MOL0     C61211   0.503   8.381   7.963 -0.6028 -0.7950 -0.6567
  454MOL0     C61212   0.469   8.255   7.932 -0.3587  0.6270  0.0258
  454MOL0     O61213   0.381   8.185   8.013  0.2181  0.0783  0.3519
  454MOL0     C61214   0.284   8.113   7.939  0.2042  0.7374  0.4533
  454MOL0     C61215   0.146   8.138   7.997  0.3982  0.0648 -0.4351
  454MOL0     C61216   0.150   8.083   8.138 -0.5927  0.1534  0.7187
  454MOL0     C61217   0.015   8.109   8.203 -0.3503 -0.2722  0.7749
  454MOL0     C61218   0.019   8.063   8.338  0.5836  0.8644 -0.0756
  454MOL0     C61219   0.004   8.032   8.463 -0.6971  0.7149 -0.4293
  454MOL0     C61220   0.545   8.182   7.838  0.1081 -0.1775  0.4790
  454MOL0     C61221   0.649   8.238   7.756 -0.0314 -0.5383 -0.1935
  454MOL0     C61222   0.718   8.157   7.646 -0.0371  0.3938 -0.2671
  454MOL0     H61223   0.788   8.597   7.450 -0.1607  0.2078 -3.0544
  454MOL0     H61224   0.940   8.696   7.294  0.6633  0.4766 -0.4983
  454MOL0     H61225   1.349   8.782   7.241 -0.0757 -0.6368 -1.7088
  454MOL0     H61226   1.352   8.671   7.381 -0.5087 -3.0731 -0.6761
  454MOL0     H61227   1.430   8.613   7.097  2.6466  0.4695  0.6824
  454MOL0     H61228   1.374   8.484   7.185 -0.6652  0.4230 -1.2842
  454MOL0     H61229   1.579   8.678   7.307  0.9715  0.6552 -0.5396
  454MOL0     H61230   1.624   8.552   7.196  0.1785 -0.1962  0.6468
  454MOL0     H61231   1.482   8.498   7.456  0.2497  1.6763 -0.2466
  454MOL0     H61232   1.547   8.385   7.334 -0.0745 -1.1441  1.0049
  454MOL0     H61233   1.715   8.566   7.512  0.8349  0.4354 -0.8415
  454MOL0     H61234   1.676   8.395   7.534  0.9783 -3.3473 -3.8345
  454MOL0     H61235   1.821   8.484   7.286 -0.3888 -1.1382 -0.3167
  454MOL0     H61236   1.914   8.456   7.437  0.8834  1.5162 -0.7563
  454MOL0     H61237   1.740   8.257   7.274 -1.6189  1.6755  1.5226
  454MOL0     H61238   1.797   8.237   7.438 -0.8665  0.4621 -0.6122
  454MOL0     H61239   2.055   8.253   7.336  1.4749 -0.8376  0.1302
  454MOL0     H61240   1.963   8.126   7.261  2.6323  0.2225 -2.5179
  454MOL0     H61241   2.158   8.422   7.183 -0.1556 -2.1977  0.2680
  454MOL0     H61242   2.076   8.534   6.823 -0.2598  0.5838 -0.0226
  454MOL0     H61243   2.149   8.619   6.938 -0.1601  2.6736 -4.9656
  454MOL0     H61244   2.341   8.445   6.964 -0.7975 -2.0219  0.1404
  454MOL0     H61245   2.264   8.340   6.852  0.9609 -1.1954  1.8456
  454MOL0     H61246   2.278   8.505   6.668  2.7799  1.2504 -1.9454
  454MOL0     H61247   2.425   8.453   6.749  1.3222  1.6284  1.9515
  454MOL0     H61248   2.278   8.726   6.793  1.0893  2.3255 -1.3128
  454MOL0     H61249   2.406   8.705   6.678  2.7094  0.8503  1.9700
  454MOL0     H61250   2.610   8.697   7.070  2.8066 -1.6247  2.3845
  454MOL0     H61251   2.856   8.633   7.092  1.4802  0.7454  0.1065
  454MOL0     H61252   3.324   8.676   6.911 -2.5646 -0.8801 -2.5569
  454MOL0     H61253   3.552   8.568   6.910 -2.0479 -2.5387 -4.0637
  454MOL0     H61254   3.671   8.405   6.843  0.9104  2.2408  1.7576
  454MOL0     H61255   3.762   8.447   6.978  1.7712  0.2582  0.2485
  454MOL0     H61256   3.881   8.297   6.843 -0.9389  0.1778 -0.8801
  454MOL0     H61257   3.845   8.199   6.989 -0.8213  2.5133  0.9157
  454MOL0     H61258   3.763   8.048   6.838 -0.7873 -0.4592  0.4721
  454MOL0     H61259   3.622   8.153   6.820 -0.2666 -1.8636  0.4287
  454MOL0     H61260   3.880   8.164   6.671  0.0659 -3.5839  3.0307
  454MOL0     H61261   3.726   8.267   6.630  0.9636 -0.0580  0.2410
  454MOL0     H61262   3.610   8.040   6.578 -0.7404  1.5802 -3.6127
  454MOL0     H61263   3.763   7.966   6.619  3.9653  2.4511 -0.2402
  454MOL0     H61264   3.717   8.005   6.362 -0.7323  1.2215 -1.0554
  454MOL0     H61265   3.738   8.175   6.379  1.3778  0.2002 -1.4370
  454MOL0     H61266   3.965   8.168   6.436  0.8623  1.5291 -4.0502
  454MOL0     H61267   3.942   8.060   6.299  1.7416 -2.4785  0.0883
  454MOL0     H61268   3.986   7.972   6.585 -1.5725  2.6611 -0.5714
  454MOL0     H61269   3.928   7.864   6.449 -3.9247  2.4123 -0.7282
  454MOL0     H61270   3.396   8.233   7.112  3.1255 -0.5107 -0.8546
  454MOL0     H61271   3.155   8.362   7.136 -1.4196  2.8208  2.1232
  454MOL0     H61272   2.868   8.574   6.658  2.0115 -0.2340  0.7373
  454MOL0     H61273   2.629   8.603   6.650  1.6393  0.9473 -0.4376
  454MOL0     H61274   1.273   8.487   7.447  0.8094  2.1511  2.9783
  454MOL0     H61275   1.122   8.359   7.603  0.6308 -0.3670 -0.4217
  454MOL0     H61276   0.630   8.538   7.933 -2.8870 -0.7126  1.5281
  454MOL0     H61277   0.440   8.448   8.021  1.5151  1.4082 -0.7459
  454MOL0     H61278   0.301   8.005   7.950 -3.1576 -0.0979 -1.1963
  454MOL0     H61279   0.285   8.121   7.830  0.7130  2.0677  0.5387
  454MOL0     H61280   0.074   8.084   7.935 -2.3650  1.4758  1.3459
  454MOL0     H61281   0.131   8.246   8.004 -2.5028 -0.3682  1.2353
  454MOL0     H61282   0.231   8.130   8.194 -0.3583  1.5114 -0.6878
  454MOL0     H61283   0.156   7.973   8.137 -2.4402 -0.0387  2.7833
  454MOL0     H61284  -0.013   8.215   8.198 -1.7171 -0.5391  2.0839
  454MOL0     H61285  -0.072   8.068   8.150 -2.1200  1.5133  2.1442
  454MOL0     H61286  -0.034   8.019   8.562 -0.5849  3.1246 -0.0024
  454MOL0     H61287   0.519   8.079   7.815 -1.0730  0.2195 -0.0522
  454MOL0     H61288   0.684   8.185   7.546 -0.9124  1.4927  0.3226
  454MOL0     H61289   0.827   8.153   7.647 -0.0493 -1.4186  1.5404
  454MOL0     H61290   0.699   8.050   7.659  3.2166 -0.6962 -2.9623
  455MOL0     O61291   1.963   8.358   3.291  0.2139 -0.1293  0.0791
  455MOL0     C61292   1.943   8.355   3.411 -0.5040  0.1226 -0.7178
  455MOL0     O61293   1.821   8.365   3.472  1.1428  0.3829  0.3920
  455MOL0     C61294   1.716   8.303   3.410  0.6148  0.8410 -1.3318
  455MOL0     C61295   1.589   8.320   3.469  0.2332 -0.8087 -1.1694
  455MOL0     C61296   1.464   8.275   3.417  0.2956  0.2913  1.7142
  455MOL0     C61297   1.468   8.203   3.301 -0.6293 -0.5614  0.4515
  455MOL0     O61298   1.350   8.163   3.243  0.2330 -0.1421  0.5865
  455MOL0     C61299   1.346   8.020   3.228 -0.3108 -0.3423  0.0275
  455MOL0     C61300   1.202   7.972   3.203  0.1157  0.0486 -0.0600
  455MOL0     C61301   1.110   7.993   3.326  0.2983  1.2628  0.5632
  455MOL0     C61302   0.968   7.949   3.313 -0.4740 -0.8079 -0.8543
  455MOL0     C61303   0.890   7.976   3.450  0.1251 -0.4533  0.6360
  455MOL0     C61304   0.973   7.930   3.576  0.2219 -0.9020 -0.8364
  455MOL0     C61305   0.897   7.940   3.707  0.2253 -0.3149 -0.4845
  455MOL0     C61306   0.845   8.085   3.759  0.3372  0.2434 -0.6408
  455MOL0     N61307   0.722   8.130   3.698 -0.1991 -0.1095 -0.1124
  455MOL0     C61308   0.590   8.105   3.744 -0.6362 -0.5930 -0.0112
  455MOL0     C61309   0.510   8.186   3.664 -0.6977 -0.3184  0.3583
  455MOL0     C61310   0.364   8.215   3.682 -0.1964 -0.2544  0.2969
  455MOL0     C61311   0.334   8.327   3.767 -0.7110 -0.5291  0.1947
  455MOL0     C61312   0.349   8.462   3.705  0.1095  0.2450  0.8324
  455MOL0     C61313   0.311   8.573   3.799  1.3069 -0.2723 -0.2725
  455MOL0     O61314   0.183   8.630   3.796 -0.0320 -0.8155  0.2043
  455MOL0     C61315   0.146   8.714   3.696 -0.2714 -0.5465 -1.8251
  455MOL0     C61316   0.235   8.743   3.583 -0.4411  0.1523 -0.2204
  455MOL0     C61317   0.185   8.815   3.474 -0.4069  0.5646  0.4525
  455MOL0     C61318   0.057   8.874   3.469 -1.1468  0.2058 -0.2386
  455MOL0     C61319   0.010   8.956   3.354 -0.9099  0.2006 -0.0001
  455MOL0     O61320  -0.079   9.058   3.388 -0.8594  0.7412  0.0231
  455MOL0     C61321  -0.119   9.140   3.281  0.4776  0.3031  0.8299
  455MOL0     C61322  -0.032   9.228   3.205 -0.0700  1.1544  0.0117
  455MOL0     C61323  -0.081   9.293   3.090 -0.5510  0.2021 -0.8320
  455MOL0     C61324  -0.213   9.284   3.044 -0.9539 -1.4103  0.5621
  455MOL0     O61325  -0.262   9.358   2.937  0.2852  0.6149 -0.3522
  455MOL0     C61326  -0.185   9.347   2.817 -0.3072  0.0687 -0.7080
  455MOL0     C61327  -0.260   9.371   2.688 -0.3723  0.1462 -0.5789
  455MOL0     C61328  -0.398   9.315   2.677  0.0445  1.0103 -0.6481
  455MOL0     C61329  -0.477   9.374   2.542 -0.9223 -0.4314  0.0282
  455MOL0     C61330  -0.634   9.379   2.541 -0.1422 -0.0664  0.3493
  455MOL0     C61331  -0.691   9.255   2.597 -0.4781  0.4708  0.2685
  455MOL0     C61332  -0.840   9.240   2.577  0.2314 -0.5249  0.2323
  455MOL0     C61333  -0.924   9.279   2.700 -0.6278  0.5532  0.0059
  455MOL0    Cl61334  -1.101   9.262   2.671 -0.1406  0.4388  0.4862
  455MOL0     C61335  -0.296   9.209   3.125 -0.5811 -0.0282 -1.3082
  455MOL0     C61336  -0.249   9.123   3.231  0.6841  0.6813 -0.6573
  455MOL0     O61337   0.060   8.939   3.242 -0.0809 -0.0664 -0.3679
  455MOL0     C61338  -0.032   8.847   3.575  0.3690 -0.0572  0.0525
  455MOL0     C61339   0.020   8.770   3.688  0.4762 -0.2609 -0.4074
  455MOL0     N61340   0.605   8.264   3.595 -0.0480 -0.1544  0.1707
  455MOL0     N61341   0.728   8.233   3.617  0.2459  0.3212  0.6606
  455MOL0     C61342   1.596   8.180   3.241  1.1682 -0.2324 -0.5040
  455MOL0     C61343   1.716   8.218   3.295 -0.6876  0.9811  0.2825
  455MOL0     C61344   2.064   8.370   3.512 -0.5164 -0.2404 -0.7767
  455MOL0     C61345   2.033   8.397   3.644  0.5987  0.8112 -0.0207
  455MOL0     C61346   2.133   8.429   3.739 -0.2907 -0.6500  0.0571
  455MOL0     C61347   2.271   8.440   3.691 -0.5002  0.0854  0.2690
  455MOL0     O61348   2.366   8.478   3.786  0.3363  0.1011 -0.7689
  455MOL0     C61349   2.478   8.558   3.759 -0.3028 -1.3529  0.3861
  455MOL0     C61350   2.424   8.688   3.683 -0.4891  0.1592 -0.9456
  455MOL0     C61351   2.520   8.808   3.683  0.1515 -0.3363 -0.2995
  455MOL0     C61352   2.554   8.870   3.820  0.1621  0.1174 -0.0878
  455MOL0     C61353   2.667   8.959   3.799 -0.2736  0.1750  0.1601
  455MOL0     C61354   2.763   9.024   3.771 -0.0245 -0.1806 -0.0862
  455MOL0     C61355   2.298   8.405   3.562 -0.8399  0.0032  0.4899
  455MOL0     C61356   2.199   8.365   3.476 -0.5820  0.4927  0.2555
  455MOL0     C61357   2.242   8.325   3.333 -1.1084  0.1271  0.9509
  455MOL0     H61358   1.585   8.384   3.557 -3.3098  1.0751 -2.4861
  455MOL0     H61359   1.366   8.283   3.464  0.0374 -0.4727  1.3099
  455MOL0     H61360   1.399   8.001   3.135  2.8686  0.1846  1.5855
  455MOL0     H61361   1.393   7.959   3.306  1.0525 -0.1629 -0.6252
  455MOL0     H61362   1.209   7.868   3.171 -0.5022  0.1816 -0.6429
  455MOL0     H61363   1.156   8.040   3.131 -0.7574  3.4273  3.3298
  455MOL0     H61364   1.101   8.101   3.341 -0.2117  1.4252 -0.7403
  455MOL0     H61365   1.166   7.951   3.410 -0.5992  0.7269  0.9094
  455MOL0     H61366   0.923   8.000   3.228 -2.5427  0.4203  0.8769
  455MOL0     H61367   0.960   7.843   3.286 -1.5928 -1.1772  0.7574
  455MOL0     H61368   0.880   8.084   3.462  3.0063  0.2046 -1.7168
  455MOL0     H61369   0.794   7.925   3.446 -0.3382  0.3432  1.2722
  455MOL0     H61370   1.006   7.827   3.561  1.2405 -0.4904 -1.5354
  455MOL0     H61371   1.064   7.989   3.587  0.1391 -0.6561 -1.4090
  455MOL0     H61372   0.966   7.905   3.785 -0.0394  0.3165  0.0453
  455MOL0     H61373   0.815   7.869   3.703 -0.1177  0.1133 -1.3443
  455MOL0     H61374   0.829   8.063   3.865  2.7483 -0.1817 -0.3059
  455MOL0     H61375   0.933   8.150   3.754  0.6572 -0.2009 -0.9328
  455MOL0     H61376   0.550   8.040   3.821  0.2431 -1.6578 -0.4286
  455MOL0     H61377   0.327   8.246   3.584  0.2120  0.3333  0.3247
  455MOL0     H61378   0.312   8.126   3.720  3.8592 -2.4062  1.3680
  455MOL0     H61379   0.228   8.318   3.792 -0.6122  1.5572  1.6346
  455MOL0     H61380   0.403   8.315   3.851 -0.4380  1.0398  0.2159
  455MOL0     H61381   0.299   8.474   3.609  0.8849  0.1447  0.4008
  455MOL0     H61382   0.458   8.476   3.698  0.3591 -0.6528  2.4258
  455MOL0     H61383   0.385   8.652   3.783  1.8228 -0.5228  0.7960
  455MOL0     H61384   0.318   8.528   3.898 -3.2125  1.8793  1.3097
  455MOL0     H61385   0.339   8.709   3.587 -0.3962  0.3974  2.0684
  455MOL0     H61386   0.252   8.864   3.403 -0.2700  0.9501  0.8377
  455MOL0     H61387   0.070   9.247   3.239 -0.5079 -1.1994  3.1153
  455MOL0     H61388  -0.011   9.357   3.036 -1.6211 -0.8239 -3.5820
  455MOL0     H61389  -0.100   9.416   2.828  1.7118 -2.4294  0.3209
  455MOL0     H61390  -0.150   9.244   2.812 -0.0501  0.2086 -3.0039
  455MOL0     H61391  -0.261   9.479   2.673 -0.9375  0.6392  2.3987
  455MOL0     H61392  -0.200   9.326   2.609 -1.4895 -1.6523 -0.4633
  455MOL0     H61393  -0.408   9.206   2.679 -1.2944  1.1175  0.7152
  455MOL0     H61394  -0.452   9.345   2.768  0.3246 -1.4749  0.4095
  455MOL0     H61395  -0.439   9.323   2.453  1.0201 -0.2368  0.6866
  455MOL0     H61396  -0.453   9.480   2.526  0.2408 -0.5871  0.6235
  455MOL0     H61397  -0.670   9.401   2.440  3.1010  2.3356 -0.4350
  455MOL0     H61398  -0.657   9.461   2.609 -0.3209  0.1559  0.0224
  455MOL0     H61399  -0.634   9.175   2.549  2.3667  2.9693 -0.8261
  455MOL0     H61400  -0.658   9.258   2.702  2.7211  0.3706 -0.6292
  455MOL0     H61401  -0.861   9.136   2.551 -1.5801  0.1522 -1.2209
  455MOL0     H61402  -0.864   9.291   2.484  0.8878 -2.4406 -1.0549
  455MOL0     H61403  -0.888   9.219   2.784  3.1276  3.4489  0.7308
  455MOL0     H61404  -0.895   9.383   2.715  1.0738  0.1599 -0.3727
  455MOL0     H61405  -0.402   9.223   3.107 -0.9377  5.8681  2.6591
  455MOL0     H61406  -0.306   9.037   3.265  0.3443  0.7224 -1.1098
  455MOL0     H61407  -0.130   8.893   3.568  0.5781  0.2720 -0.7872
  455MOL0     H61408  -0.042   8.755   3.776 -0.8834  0.4969 -1.1998
  455MOL0     H61409   1.589   8.129   3.145  0.1626 -1.7181  0.3176
  455MOL0     H61410   1.802   8.183   3.239 -0.8507  1.5802 -0.3675
  455MOL0     H61411   1.929   8.378   3.669  1.2922 -3.5631  0.4294
  455MOL0     H61412   2.115   8.456   3.842  2.4796 -3.6408  1.4692
  455MOL0     H61413   2.558   8.515   3.697 -0.4064  0.0131 -0.7319
  455MOL0     H61414   2.528   8.590   3.851  0.6387 -0.2833 -0.4696
  455MOL0     H61415   2.339   8.727   3.741 -0.6357 -1.3319 -0.1185
  455MOL0     H61416   2.394   8.658   3.583 -2.1612 -0.4091 -0.3183
  455MOL0     H61417   2.490   8.878   3.604 -0.0341 -0.5833 -0.4444
  455MOL0     H61418   2.608   8.754   3.647  0.0531  0.6028 -2.1002
  455MOL0     H61419   2.476   8.936   3.859  0.4369  0.0742  0.5615
  455MOL0     H61420   2.577   8.794   3.896 -0.1254  1.3010  1.2355
  455MOL0     H61421   2.850   9.075   3.736  0.1784  0.5488  1.4269
  455MOL0     H61422   2.394   8.417   3.513 -1.9648  1.0274 -1.6444
  455MOL0     H61423   2.349   8.335   3.313 -0.8929 -2.5844  0.4853
  455MOL0     H61424   2.227   8.218   3.320  1.1556  0.0530 -2.1792
  455MOL0     H61425   2.186   8.383   3.259 -0.9891 -2.3699 -1.2163
  456MOL0     O61426  11.220   6.976   2.044  0.4622  0.3097 -0.6595
  456MOL0     C61427  11.328   6.936   2.001  0.3226  0.5845 -0.4179
  456MOL0     O61428  11.349   6.908   1.872 -0.1082 -0.3995 -0.1884
  456MOL0     C61429  11.244   6.904   1.787  0.1114 -0.5220  0.4897
  456MOL0     C61430  11.266   6.963   1.659  0.0776 -0.1516  0.0415
  456MOL0     C61431  11.166   6.976   1.564 -0.2203 -0.3305 -0.3841
  456MOL0     C61432  11.034   6.928   1.587 -0.0996 -1.0137 -0.1576
  456MOL0     O61433  10.943   6.948   1.487  0.2747  0.2883 -0.6249
  456MOL0     C61434  10.812   6.955   1.533  0.1736  0.7428 -0.4746
  456MOL0     C61435  10.719   7.027   1.432 -0.3774 -0.8994 -0.3694
  456MOL0     C61436  10.569   7.041   1.467 -0.0434  0.4908 -0.2835
  456MOL0     C61437  10.482   7.134   1.375  0.5050  0.1475  0.5184
  456MOL0     C61438  10.335   7.140   1.420  0.0595  0.2707  1.0179
  456MOL0     C61439  10.251   7.208   1.305 -0.3827  0.8359  0.3444
  456MOL0     C61440  10.103   7.234   1.340 -0.1465  0.4533 -0.0582
  456MOL0     C61441  10.017   7.111   1.306  0.5360  0.2932  0.5747
  456MOL0     N61442   9.889   7.109   1.378  0.3631 -0.1037 -0.3032
  456MOL0     C61443   9.886   7.078   1.509 -0.3339  0.1722 -0.5171
  456MOL0     C61444   9.755   7.081   1.536  0.0862  0.0721  0.2216
  456MOL0     C61445   9.683   7.043   1.656 -0.7413  0.0054  0.2285
  456MOL0     C61446   9.694   7.149   1.758  0.8757 -0.6784  0.0823
  456MOL0     C61447   9.819   7.142   1.849  0.5471  0.5026 -1.4440
  456MOL0     C61448   9.802   7.026   1.953 -0.2571  0.1782 -0.9699
  456MOL0     O61449   9.926   6.984   2.012  0.0757 -0.4141  1.0199
  456MOL0     C61450  10.023   6.912   1.936  0.6009  0.5399 -0.5838
  456MOL0     C61451  10.012   6.862   1.804  0.1954  0.9275  0.1421
  456MOL0     C61452  10.121   6.802   1.741 -0.2525 -0.4412  0.3418
  456MOL0     C61453  10.241   6.783   1.811  0.5365 -0.5424 -0.0667
  456MOL0     C61454  10.355   6.723   1.740  0.4791 -0.5616  0.5574
  456MOL0     O61455  10.472   6.690   1.808  0.5367  0.5937  0.0699
  456MOL0     C61456  10.571   6.619   1.750  0.5398  0.8617  0.0208
  456MOL0     C61457  10.697   6.616   1.809  0.7570  0.3222 -0.2346
  456MOL0     C61458  10.804   6.560   1.743 -0.2019  0.7382 -0.3040
  456MOL0     C61459  10.786   6.500   1.616 -0.6970  0.3442 -0.0755
  456MOL0     O61460  10.896   6.448   1.546 -0.1434  0.5410 -0.3728
  456MOL0     C61461  11.023   6.444   1.617 -0.0352 -0.3601 -0.0742
  456MOL0     C61462  11.116   6.401   1.501 -0.6569  0.6587 -0.0684
  456MOL0     C61463  11.259   6.393   1.546  0.2660 -0.4624 -0.3297
  456MOL0     C61464  11.343   6.318   1.445 -0.1874  0.1912 -0.0943
  456MOL0     C61465  11.338   6.161   1.456 -0.8004 -0.5763 -0.3472
  456MOL0     C61466  11.437   6.102   1.356 -0.4230 -0.0130 -0.3912
  456MOL0     C61467  11.461   5.963   1.404 -0.2860 -0.1442  0.1822
  456MOL0     C61468  11.562   5.879   1.312 -0.0586 -0.2760 -0.3013
  456MOL0    Cl61469  11.535   5.882   1.141 -0.1064 -0.4478 -0.5488
  456MOL0     C61470  10.665   6.496   1.555 -0.7202  0.7444 -0.4003
  456MOL0     C61471  10.557   6.552   1.625  0.0859  0.0321  0.2301
  456MOL0     O61472  10.339   6.730   1.622  0.4827  0.1734  0.2581
  456MOL0     C61473  10.246   6.816   1.946 -0.6402 -0.5091  0.6150
  456MOL0     C61474  10.139   6.884   2.010  0.1343 -0.5235  0.9622
  456MOL0     N61475   9.683   7.134   1.422 -0.0988  0.3299 -0.3027
  456MOL0     N61476   9.770   7.151   1.329  0.5959 -0.5848  0.1481
  456MOL0     C61477  11.014   6.870   1.711  0.0785  0.5443 -0.0457
  456MOL0     C61478  11.114   6.855   1.807 -0.0713  0.8946  0.0535
  456MOL0     C61479  11.438   6.921   2.104  0.4913 -0.6792  0.0362
  456MOL0     C61480  11.394   6.950   2.238  0.3370  0.4505  0.4442
  456MOL0     C61481  11.493   6.949   2.334 -0.0582 -0.0562  0.5150
  456MOL0     C61482  11.630   6.930   2.316 -0.6626 -1.0653 -0.4614
  456MOL0     O61483  11.714   6.946   2.425  0.5123 -0.5012  0.5319
  456MOL0     C61484  11.851   6.916   2.415 -0.6193  0.2769 -0.3466
  456MOL0     C61485  11.881   6.773   2.435  0.6570  1.5482 -0.2310
  456MOL0     C61486  12.014   6.740   2.378 -0.1228 -0.4070 -0.0406
  456MOL0     C61487  12.134   6.772   2.472  0.6173  0.0201  0.0890
  456MOL0     C61488  12.185   6.904   2.449  0.9489 -0.1858 -0.3415
  456MOL0     C61489  12.244   7.003   2.418 -0.3337 -0.0255 -0.0453
  456MOL0     C61490  11.673   6.889   2.181  0.3484  0.1006 -0.0573
  456MOL0     C61491  11.572   6.896   2.073 -0.0447 -0.4038  0.0904
  456MOL0     C61492  11.627   6.869   1.928 -0.6772 -0.4407 -0.5073
  456MOL0     H61493  11.366   7.004   1.644  0.0253 -0.3994 -1.1157
  456MOL0     H61494  11.170   7.022   1.466  1.3367 -0.8142 -0.5851
  456MOL0     H61495  10.783   6.850   1.536  2.8267 -0.1385 -2.1693
  456MOL0     H61496  10.794   7.005   1.629  1.0780  1.9215 -0.8878
  456MOL0     H61497  10.740   6.972   1.339  1.1189  0.9337 -1.1833
  456MOL0     H61498  10.748   7.132   1.420 -3.7295  0.2282  0.4244
  456MOL0     H61499  10.579   7.075   1.570 -0.9504  1.1653 -0.4043
  456MOL0     H61500  10.516   6.946   1.480  0.0188  0.3155 -1.2474
  456MOL0     H61501  10.533   7.229   1.363  0.5425  0.4616  2.7924
  456MOL0     H61502  10.473   7.083   1.278  0.4754 -0.0017  0.5979
  456MOL0     H61503  10.302   7.039   1.444 -1.4055  0.5074  0.1335
  456MOL0     H61504  10.327   7.208   1.505  1.9327  2.4834 -0.4542
  456MOL0     H61505  10.294   7.308   1.292 -1.1314  1.1287  0.1190
  456MOL0     H61506  10.267   7.154   1.211  1.2098  0.5310  0.7542
  456MOL0     H61507  10.068   7.319   1.281  1.0515 -0.3932 -2.0861
  456MOL0     H61508  10.087   7.256   1.446 -3.6785 -1.8458  0.0821
  456MOL0     H61509  10.005   7.112   1.197  0.0662 -3.0884  0.5083
  456MOL0     H61510  10.073   7.026   1.345 -0.0371  0.0251  0.8296
  456MOL0     H61511   9.964   7.077   1.585 -2.7152  0.5481  2.1120
  456MOL0     H61512   9.576   7.028   1.638 -0.1560 -0.4643 -3.5742
  456MOL0     H61513   9.711   6.943   1.692 -1.9557  0.1802  1.7673
  456MOL0     H61514   9.681   7.246   1.709 -2.3697 -1.5712 -1.0848
  456MOL0     H61515   9.601   7.137   1.815 -0.7696  0.2067 -2.2231
  456MOL0     H61516   9.827   7.241   1.896 -0.0571 -0.2843  0.3928
  456MOL0     H61517   9.912   7.123   1.795 -0.2160  1.0266 -3.0026
  456MOL0     H61518   9.757   6.933   1.917 -0.8803  0.0643  0.0530
  456MOL0     H61519   9.734   7.058   2.032  2.3214  2.1034  0.6152
  456MOL0     H61520   9.926   6.879   1.740  0.6963  0.9318 -0.5353
  456MOL0     H61521  10.118   6.775   1.636 -1.7669  0.2827  0.1775
  456MOL0     H61522  10.722   6.669   1.900  0.6323  0.9583 -0.5644
  456MOL0     H61523  10.894   6.549   1.803  0.0246  1.4340 -0.5102
  456MOL0     H61524  11.044   6.537   1.670 -2.8182  0.2257  0.1901
  456MOL0     H61525  11.014   6.363   1.691  3.2548 -0.4631  0.3531
  456MOL0     H61526  11.090   6.304   1.456 -0.8285  0.9868 -0.6866
  456MOL0     H61527  11.123   6.470   1.417  2.4867  0.0873 -0.3773
  456MOL0     H61528  11.307   6.489   1.566  0.3573 -0.4516 -0.6008
  456MOL0     H61529  11.259   6.338   1.641  0.1017  1.3006  0.7359
  456MOL0     H61530  11.449   6.341   1.452  0.4356 -1.1078 -3.2431
  456MOL0     H61531  11.307   6.344   1.345  2.7434 -0.9225 -1.5655
  456MOL0     H61532  11.234   6.137   1.430 -0.7259  0.6784 -1.9889
  456MOL0     H61533  11.370   6.130   1.556  5.8268 -0.4407 -1.9951
  456MOL0     H61534  11.391   6.113   1.257 -2.3955  2.0811  0.6625
  456MOL0     H61535  11.530   6.159   1.353 -0.9717  1.1059  1.7001
  456MOL0     H61536  11.364   5.912   1.394  0.0024 -0.4328 -1.4453
  456MOL0     H61537  11.496   5.949   1.506 -2.1140  2.7064  1.3188
  456MOL0     H61538  11.659   5.930   1.311 -0.0995  0.2053  3.4091
  456MOL0     H61539  11.575   5.778   1.353 -0.5394  0.3719  1.5778
  456MOL0     H61540  10.657   6.442   1.461 -1.3868 -0.0912  0.1205
  456MOL0     H61541  10.458   6.535   1.584 -0.1369  0.7574  0.4583
  456MOL0     H61542  10.336   6.784   1.997  0.5230 -0.0174 -1.0204
  456MOL0     H61543  10.157   6.925   2.109  0.8941  0.5139  0.4200
  456MOL0     H61544  10.921   6.830   1.749  0.7944  0.6110  1.9018
  456MOL0     H61545  11.079   6.812   1.901 -1.6869  3.3664  0.6826
  456MOL0     H61546  11.292   6.981   2.262  0.3361  0.9389 -0.1716
  456MOL0     H61547  11.456   6.972   2.434 -0.6130  1.7075 -0.0660
  456MOL0     H61548  11.899   6.977   2.491  0.7700  0.0192 -0.9983
  456MOL0     H61549  11.890   6.942   2.317  2.6062 -2.3669  0.0444
  456MOL0     H61550  11.807   6.717   2.377  0.9491  2.0984 -1.1737
  456MOL0     H61551  11.886   6.758   2.543  0.8109 -0.0265 -0.4351
  456MOL0     H61552  12.035   6.783   2.280  2.1132 -1.8767 -0.2882
  456MOL0     H61553  12.028   6.633   2.360 -1.7260 -0.9260  1.5518
  456MOL0     H61554  12.106   6.775   2.578  1.1821 -0.6796  0.2667
  456MOL0     H61555  12.207   6.692   2.456  0.0687 -0.3908 -0.4368
  456MOL0     H61556  12.304   7.085   2.385  0.8232 -0.7989  0.0644
  456MOL0     H61557  11.775   6.857   2.158 -0.2314 -1.2562 -0.8544
  456MOL0     H61558  11.610   6.945   1.851  0.4115  1.0568  0.7009
  456MOL0     H61559  11.736   6.866   1.934 -0.5289  2.2594 -0.6073
  456MOL0     H61560  11.593   6.776   1.881 -0.5066 -0.7101 -0.0977
  457MOL0     O61561   1.227   6.471   1.792 -0.1340 -0.3210 -0.3867
  457MOL0     C61562   1.249   6.395   1.699  0.3540  1.2137  1.1083
  457MOL0     O61563   1.244   6.428   1.570  0.3156  0.1499  0.0117
  457MOL0     C61564   1.181   6.547   1.527 -0.1911  0.3512 -0.4067
  457MOL0     C61565   1.049   6.575   1.555  0.0303  0.5697 -0.1750
  457MOL0     C61566   0.992   6.691   1.512  0.4163  0.1533  0.2637
  457MOL0     C61567   1.055   6.785   1.435  0.2336 -0.5907  0.1519
  457MOL0     O61568   1.002   6.907   1.392 -0.1132 -0.0007 -0.9476
  457MOL0     C61569   0.865   6.943   1.433 -0.1510 -0.0778  0.4019
  457MOL0     C61570   0.820   7.082   1.380 -0.8840  0.1635 -0.0407
  457MOL0     C61571   0.678   7.117   1.422 -0.9324 -0.5701  0.2815
  457MOL0     C61572   0.626   7.229   1.332  0.0420  0.0680  0.9848
  457MOL0     C61573   0.560   7.177   1.207 -0.2637 -1.2305  0.3209
  457MOL0     C61574   0.421   7.120   1.223 -0.1918  0.1281  0.1581
  457MOL0     C61575   0.305   7.220   1.267 -0.5684  0.3967  0.5940
  457MOL0     C61576   0.168   7.156   1.274 -0.2857  0.3008 -0.0782
  457MOL0     N61577   0.057   7.232   1.332 -0.5772  0.4562  0.7800
  457MOL0     C61578  -0.051   7.264   1.252  1.4445  0.8494 -1.2801
  457MOL0     C61579  -0.129   7.348   1.328 -1.0001 -0.2318 -0.7432
  457MOL0     C61580  -0.244   7.432   1.287  0.1462 -0.0055 -1.1358
  457MOL0     C61581  -0.359   7.402   1.388  0.7836 -0.2538 -0.2705
  457MOL0     C61582  -0.472   7.499   1.357 -0.4366 -0.6819  0.0174
  457MOL0     C61583  -0.578   7.491   1.459 -0.2629  0.2656 -0.4277
  457MOL0     O61584  -0.657   7.615   1.452 -0.2446  0.6732 -0.0137
  457MOL0     C61585  -0.783   7.628   1.405 -0.2479  0.2720  1.1208
  457MOL0     C61586  -0.825   7.749   1.349  0.2679  0.0107 -0.3423
  457MOL0     C61587  -0.958   7.776   1.331  0.1748  0.4978  0.9008
  457MOL0     C61588  -1.054   7.677   1.348 -0.5391  0.6346  0.5333
  457MOL0     C61589  -1.198   7.712   1.347  0.1104  0.2087  0.7966
  457MOL0     O61590  -1.217   7.847   1.331  0.0791 -0.1927 -0.1605
  457MOL0     C61591  -1.334   7.901   1.300 -0.6390 -0.0464 -0.3179
  457MOL0     C61592  -1.422   7.846   1.206  0.8137 -0.2883 -0.3748
  457MOL0     C61593  -1.550   7.902   1.177  0.1455 -0.6571 -0.3905
  457MOL0     C61594  -1.587   8.019   1.251 -0.4271  0.5705  0.6974
  457MOL0     O61595  -1.692   8.102   1.227  0.0177 -0.2387 -0.2793
  457MOL0     C61596  -1.774   8.078   1.112 -0.0783  0.3595 -0.5694
  457MOL0     C61597  -1.902   8.165   1.098 -0.6168 -0.4535 -1.2933
  457MOL0     C61598  -1.972   8.147   0.957  0.0784 -0.3667  0.2215
  457MOL0     C61599  -2.068   8.027   0.958 -0.4462 -0.7790  0.5413
  457MOL0     C61600  -2.121   8.014   0.814  0.1506 -0.3312 -0.8730
  457MOL0     C61601  -2.197   7.888   0.779  1.0677  0.3097 -0.6695
  457MOL0     C61602  -2.303   7.846   0.894  0.3629 -0.4773  0.6344
  457MOL0     C61603  -2.428   7.935   0.888  0.1668  0.0778  0.1911
  457MOL0    Cl61604  -2.540   7.867   1.010 -0.1768  0.0648 -0.1442
  457MOL0     C61605  -1.488   8.081   1.322 -0.5470  0.3544 -0.0153
  457MOL0     C61606  -1.367   8.025   1.347  0.2126 -0.5436 -0.2986
  457MOL0     O61607  -1.287   7.626   1.365 -0.6342 -0.5174  0.3417
  457MOL0     C61608  -1.012   7.557   1.409  0.5113  0.2480  0.7427
  457MOL0     C61609  -0.877   7.530   1.430 -0.0904 -0.7016  0.4666
  457MOL0     N61610  -0.065   7.368   1.443 -0.5886  0.2519  0.4894
  457MOL0     N61611   0.045   7.299   1.453 -0.3174  0.4372 -0.4946
  457MOL0     C61612   1.189   6.766   1.409 -0.4136  0.5664 -0.4422
  457MOL0     C61613   1.252   6.644   1.450 -0.0547  0.0363  0.6635
  457MOL0     C61614   1.301   6.260   1.731  0.5816  0.0032 -1.0171
  457MOL0     C61615   1.262   6.192   1.850 -0.2911 -0.2964  0.0413
  457MOL0     C61616   1.312   6.066   1.889  0.0445 -0.7124  0.1725
  457MOL0     C61617   1.410   6.003   1.820  0.6211 -0.7929  0.0120
  457MOL0     O61618   1.458   5.882   1.853  0.3108 -0.2050 -0.1525
  457MOL0     C61619   1.366   5.784   1.922  0.3391 -0.4618 -0.2491
  457MOL0     C61620   1.449   5.655   1.918 -0.1547 -0.0838  0.0262
  457MOL0     C61621   1.358   5.536   1.869 -0.1008 -0.8707 -0.9274
  457MOL0     C61622   1.236   5.515   1.954 -0.3119  0.0575  0.2860
  457MOL0     C61623   1.266   5.484   2.090 -0.9539  0.2615  0.0151
  457MOL0     C61624   1.306   5.460   2.203  0.2243 -0.0869 -0.6883
  457MOL0     C61625   1.461   6.073   1.710 -0.9781 -0.3392 -0.4952
  457MOL0     C61626   1.402   6.199   1.664  0.0204  0.8914  0.4804
  457MOL0     C61627   1.469   6.257   1.542  0.0745  0.3618  0.0605
  457MOL0     H61628   0.991   6.501   1.609  1.5068 -0.9846 -0.6355
  457MOL0     H61629   0.884   6.695   1.521  0.2816  0.0920 -1.1945
  457MOL0     H61630   0.797   6.867   1.395 -0.5055 -0.2057  1.2662
  457MOL0     H61631   0.858   6.948   1.542  0.3698  2.0069  0.3848
  457MOL0     H61632   0.837   7.094   1.273 -0.1425  1.6259  0.2070
  457MOL0     H61633   0.897   7.149   1.420  1.2880 -1.7060 -0.9313
  457MOL0     H61634   0.683   7.154   1.525 -0.2485  1.1649 -0.3365
  457MOL0     H61635   0.603   7.038   1.417 -0.0795 -1.3721 -0.2870
  457MOL0     H61636   0.549   7.279   1.392 -1.2663 -0.5981 -0.0816
  457MOL0     H61637   0.700   7.310   1.323  1.6698 -1.5018 -0.6055
  457MOL0     H61638   0.560   7.263   1.140 -0.4287 -0.3537  1.4151
  457MOL0     H61639   0.626   7.102   1.162  0.0911 -0.8419  0.1948
  457MOL0     H61640   0.388   7.080   1.127  2.0934 -1.2085 -0.1318
  457MOL0     H61641   0.422   7.029   1.284  1.8542 -0.8754 -1.2738
  457MOL0     H61642   0.298   7.308   1.201 -2.2168 -1.6134 -2.1450
  457MOL0     H61643   0.335   7.250   1.367  2.0750 -3.3459  1.1361
  457MOL0     H61644   0.149   7.102   1.181  2.3827 -4.2713  1.7027
  457MOL0     H61645   0.181   7.076   1.347  0.5744  0.5692  0.0743
  457MOL0     H61646  -0.080   7.226   1.155 -0.4817 -3.5395  0.7191
  457MOL0     H61647  -0.208   7.534   1.301  0.6500 -0.4636  1.3295
  457MOL0     H61648  -0.272   7.415   1.183  2.8893  0.8696 -2.0830
  457MOL0     H61649  -0.395   7.299   1.380 -1.5107  0.5100 -0.4867
  457MOL0     H61650  -0.330   7.422   1.492 -1.0913 -0.9797  0.4424
  457MOL0     H61651  -0.506   7.479   1.255  0.4426 -0.9634 -0.2326
  457MOL0     H61652  -0.431   7.600   1.345  0.4540 -0.7649  2.0033
  457MOL0     H61653  -0.530   7.490   1.557  0.1502  1.0525 -0.6121
  457MOL0     H61654  -0.634   7.397   1.458 -0.2226  0.2217  0.3838
  457MOL0     H61655  -0.762   7.835   1.331 -0.2110  0.5275  0.3838
  457MOL0     H61656  -0.988   7.871   1.290 -4.3027 -1.3663 -0.7450
  457MOL0     H61657  -1.405   7.754   1.150  1.2611  0.2104 -1.0900
  457MOL0     H61658  -1.619   7.862   1.103 -3.6908  0.6666  2.1569
  457MOL0     H61659  -1.719   8.102   1.021 -2.1885 -0.3604 -2.1183
  457MOL0     H61660  -1.801   7.972   1.111 -0.9411  0.5421  0.5930
  457MOL0     H61661  -1.978   8.141   1.173 -1.6791  1.0694 -1.8301
  457MOL0     H61662  -1.877   8.269   1.123 -2.4605 -0.6752  2.0420
  457MOL0     H61663  -2.025   8.240   0.936  0.0223 -0.1429  1.3065
  457MOL0     H61664  -1.909   8.139   0.868  2.0696 -2.8285  1.6771
  457MOL0     H61665  -2.151   8.044   1.027 -2.1761  0.9666 -1.8009
  457MOL0     H61666  -2.011   7.937   0.980  0.5298 -0.5440 -0.9170
  457MOL0     H61667  -2.039   8.023   0.742  1.7245  1.8551  1.0488
  457MOL0     H61668  -2.187   8.101   0.798  2.5103  2.1533  1.8355
  457MOL0     H61669  -2.255   7.904   0.688 -2.7192 -3.6624  0.6677
  457MOL0     H61670  -2.129   7.803   0.779 -1.5140 -1.9833  1.3839
  457MOL0     H61671  -2.252   7.859   0.990  0.1340 -1.0212  0.8306
  457MOL0     H61672  -2.349   7.749   0.872 -1.6941  0.8145 -1.1504
  457MOL0     H61673  -2.410   8.041   0.910 -2.8801  1.2785 -2.3869
  457MOL0     H61674  -2.473   7.939   0.788  1.4713 -0.1889 -0.4419
  457MOL0     H61675  -1.512   8.173   1.375 -2.3243 -2.4132  4.5716
  457MOL0     H61676  -1.296   8.079   1.408 -2.1515  1.1926  1.0575
  457MOL0     H61677  -1.087   7.487   1.444 -1.6424  0.9396 -2.1872
  457MOL0     H61678  -0.833   7.439   1.470 -0.1006 -1.9758 -2.1836
  457MOL0     H61679   1.244   6.839   1.352  0.0967  0.6315  0.1232
  457MOL0     H61680   1.353   6.612   1.426 -0.7169  0.4903 -3.4314
  457MOL0     H61681   1.197   6.250   1.914  1.2231  3.0972 -1.2512
  457MOL0     H61682   1.271   6.021   1.979 -1.5311  1.6817  0.7471
  457MOL0     H61683   1.283   5.775   1.851  1.5746  0.1668 -1.8216
  457MOL0     H61684   1.344   5.809   2.026  2.5523 -0.5398  0.2876
  457MOL0     H61685   1.497   5.629   2.013  1.4907 -0.4835 -0.8745
  457MOL0     H61686   1.517   5.669   1.834 -1.4087 -0.0121 -1.0120
  457MOL0     H61687   1.408   5.439   1.873  0.7482 -0.4842 -1.8820
  457MOL0     H61688   1.329   5.554   1.764  0.3133  0.0498 -0.8885
  457MOL0     H61689   1.174   5.605   1.949 -0.2956  0.1186  1.0162
  457MOL0     H61690   1.174   5.434   1.916 -5.2416  2.3407  2.4884
  457MOL0     H61691   1.330   5.433   2.304  0.4052 -0.1934 -0.7584
  457MOL0     H61692   1.528   6.014   1.649  1.4576  2.0176 -0.3010
  457MOL0     H61693   1.515   6.355   1.557  2.1692 -0.0855 -2.7174
  457MOL0     H61694   1.547   6.185   1.515 -0.7047 -0.2160 -0.7008
  457MOL0     H61695   1.400   6.249   1.458 -1.3292 -0.7377  1.2484
  458MOL0     O61696   2.672   0.665  10.890  0.8139  0.6993  0.1248
  458MOL0     C61697   2.623   0.619  10.997 -0.1284 -0.4474 -0.0049
  458MOL0     O61698   2.608   0.493  11.028  0.0271  0.0850 -0.7904
  458MOL0     C61699   2.623   0.394  10.931 -0.1398 -0.4379  0.2192
  458MOL0     C61700   2.689   0.398  10.811  0.1979  0.4016 -0.5544
  458MOL0     C61701   2.713   0.281  10.735 -1.1573  0.3202  0.9695
  458MOL0     C61702   2.651   0.163  10.771 -0.0066  0.6527 -0.7757
  458MOL0     O61703   2.674   0.054  10.689  1.0559  0.2510  0.0562
  458MOL0     C61704   2.799  -0.013  10.728  0.0504 -0.0680 -0.6450
  458MOL0     C61705   2.789  -0.140  10.642 -0.7161  0.6836 -0.0141
  458MOL0     C61706   2.896  -0.238  10.681 -0.0468  0.1910  0.2755
  458MOL0     C61707   2.911  -0.350  10.578  0.0931 -0.0583  0.5100
  458MOL0     C61708   3.014  -0.467  10.614  0.4248  0.0286  0.3300
  458MOL0     C61709   3.148  -0.429  10.668  0.0666 -0.4316  0.8278
  458MOL0     C61710   3.269  -0.451  10.567  0.3093 -0.0644  0.1287
  458MOL0     C61711   3.308  -0.601  10.566  0.0525 -0.2752  0.2399
  458MOL0     N61712   3.421  -0.616  10.471 -0.0263 -0.7386 -0.1961
  458MOL0     C61713   3.550  -0.654  10.515  1.0662  0.0039 -0.3971
  458MOL0     C61714   3.622  -0.643  10.397  0.4381 -0.2357  0.0019
  458MOL0     C61715   3.763  -0.664  10.361  0.1630  0.0512  0.2264
  458MOL0     C61716   3.772  -0.793  10.279  1.2738 -0.3625  0.2129
  458MOL0     C61717   3.910  -0.866  10.261 -0.4919  1.7172  0.3201
  458MOL0     C61718   3.960  -0.938  10.394  0.0137 -0.2092  0.7230
  458MOL0     O61719   4.075  -1.017  10.373  0.2121 -0.7580  0.1136
  458MOL0     C61720   4.200  -0.963  10.403  0.4682  0.3327  0.1793
  458MOL0     C61721   4.229  -0.830  10.426 -0.0664  0.1024 -0.0260
  458MOL0     C61722   4.358  -0.797  10.461 -0.3719  0.0010 -0.5442
  458MOL0     C61723   4.467  -0.890  10.466  0.3734 -0.1481 -1.0407
  458MOL0     C61724   4.600  -0.850  10.502  0.1430 -0.4644 -0.2792
  458MOL0     O61725   4.682  -0.956  10.521 -0.5368  0.3720 -0.3329
  458MOL0     C61726   4.805  -0.952  10.587 -0.2856  0.3394  0.8183
  458MOL0     C61727   4.856  -1.083  10.610  0.4549 -0.7302 -0.9882
  458MOL0     C61728   4.981  -1.104  10.683  0.7662  0.3557  0.2432
  458MOL0     C61729   5.059  -0.992  10.713 -0.3619  0.0188  0.1165
  458MOL0     O61730   5.183  -1.007  10.769  0.7683 -0.4233  0.6799
  458MOL0     C61731   5.226  -1.139  10.786 -0.6249  0.1949  0.3031
  458MOL0     C61732   5.370  -1.126  10.829  0.6472 -0.2513  0.7751
  458MOL0     C61733   5.455  -1.246  10.780  0.7038  0.3263  0.5298
  458MOL0     C61734   5.593  -1.250  10.841 -0.1088  0.7149 -0.1778
  458MOL0     C61735   5.706  -1.188  10.769 -0.4635  1.0366 -0.0630
  458MOL0     C61736   5.684  -1.049  10.731 -0.6731  0.7167 -0.7590
  458MOL0     C61737   5.800  -0.968  10.684  0.3738 -0.0141  0.0546
  458MOL0     C61738   5.839  -1.024  10.542  0.5448  0.3583  0.4637
  458MOL0    Cl61739   5.723  -0.966  10.413 -0.4442  0.2470 -0.0204
  458MOL0     C61740   5.011  -0.863  10.691 -0.0271 -0.2702  0.1188
  458MOL0     C61741   4.883  -0.847  10.626 -0.4892  0.6047 -0.1574
  458MOL0     O61742   4.632  -0.734  10.524 -0.1748 -0.0643  0.0967
  458MOL0     C61743   4.432  -1.024  10.450 -0.2105 -0.0880 -1.0716
  458MOL0     C61744   4.306  -1.062  10.411 -0.4240 -0.4904 -0.3555
  458MOL0     N61745   3.538  -0.608  10.294  0.4799 -0.8883  0.5225
  458MOL0     N61746   3.424  -0.581  10.343  0.4553 -0.0150  0.0446
  458MOL0     C61747   2.579   0.160  10.891 -1.2518  0.2322  0.0155
  458MOL0     C61748   2.574   0.273  10.968 -0.2792  0.2405 -0.7717
  458MOL0     C61749   2.551   0.728  11.075 -0.8930  0.0869 -0.3924
  458MOL0     C61750   2.476   0.811  10.995  0.3216  0.5916  0.3197
  458MOL0     C61751   2.403   0.915  11.055 -0.0958 -0.3642 -0.8739
  458MOL0     C61752   2.393   0.926  11.196  0.4726 -0.0867 -0.7692
  458MOL0     O61753   2.318   1.039  11.244 -0.4850  0.5463  0.2266
  458MOL0     C61754   2.232   1.017  11.359  0.4990  0.1868  0.3929
  458MOL0     C61755   2.191   1.152  11.410  0.8798 -0.9626  0.0433
  458MOL0     C61756   2.304   1.228  11.478  0.4365 -0.5695 -0.7795
  458MOL0     C61757   2.272   1.256  11.631 -0.1681  0.6636 -0.8467
  458MOL0     C61758   2.277   1.135  11.715 -1.3213  0.3273  0.2292
  458MOL0     C61759   2.282   1.026  11.767  0.2400  1.1292 -0.3726
  458MOL0     C61760   2.467   0.839  11.272 -0.0035 -0.5175  0.4139
  458MOL0     C61761   2.537   0.731  11.215 -0.2633 -0.4432 -0.4873
  458MOL0     C61762   2.606   0.631  11.297  0.4313  0.0896 -0.0011
  458MOL0     H61763   2.735   0.488  10.770 -1.0365  1.7554  0.8803
  458MOL0     H61764   2.773   0.280  10.645 -4.4098 -2.0107 -1.3928
  458MOL0     H61765   2.893   0.037  10.702  1.4482 -1.2134  1.7805
  458MOL0     H61766   2.797  -0.044  10.833 -0.0613  2.1604  0.0702
  458MOL0     H61767   2.808  -0.118  10.537  2.6940 -0.0052  0.3435
  458MOL0     H61768   2.687  -0.180  10.645 -1.5126  2.6032 -0.7539
  458MOL0     H61769   2.874  -0.276  10.781  0.9793  4.0420  2.1209
  458MOL0     H61770   2.982  -0.172  10.695  1.0629 -1.2899  0.7317
  458MOL0     H61771   2.812  -0.393  10.562 -0.3888 -0.5397  4.0349
  458MOL0     H61772   2.952  -0.306  10.486 -1.5327  0.4886  0.0171
  458MOL0     H61773   2.974  -0.541  10.684 -0.5360 -0.2197 -0.4644
  458MOL0     H61774   3.027  -0.521  10.520 -1.5021 -0.7419  0.4601
  458MOL0     H61775   3.150  -0.327  10.708 -0.5114 -1.0325  2.4884
  458MOL0     H61776   3.170  -0.480  10.762 -2.2411  1.3092  2.4224
  458MOL0     H61777   3.348  -0.386  10.606 -0.3244 -1.5459  4.4277
  458MOL0     H61778   3.247  -0.430  10.462  1.1174  1.3051  0.2123
  458MOL0     H61779   3.330  -0.629  10.669  2.9927 -5.7748 -1.4964
  458MOL0     H61780   3.221  -0.656  10.528 -1.1468  1.6213  0.0845
  458MOL0     H61781   3.593  -0.691  10.608  0.3460 -0.4678 -0.2434
  458MOL0     H61782   3.801  -0.582  10.300  0.8890 -1.0198 -0.8201
  458MOL0     H61783   3.824  -0.674  10.451  1.9166  0.2371 -0.9081
  458MOL0     H61784   3.692  -0.861  10.311  1.0006 -0.4975 -0.7275
  458MOL0     H61785   3.738  -0.768  10.178  0.6543 -2.7648 -0.2219
  458MOL0     H61786   3.984  -0.805  10.208  0.2192 -0.6324 -1.5966
  458MOL0     H61787   3.897  -0.944  10.184 -0.0031  1.4204  0.5309
  458MOL0     H61788   3.877  -1.004  10.422 -1.6369 -0.2370 -3.4689
  458MOL0     H61789   3.968  -0.869  10.479  2.2530  1.7335 -0.9297
  458MOL0     H61790   4.153  -0.753  10.419 -0.5758 -0.1046  2.4230
  458MOL0     H61791   4.379  -0.694  10.486  1.4393  0.2942 -2.8833
  458MOL0     H61792   4.798  -1.158  10.558 -0.3211 -0.9738  0.1754
  458MOL0     H61793   4.998  -1.204  10.722 -1.2555 -0.2630 -0.3748
  458MOL0     H61794   5.173  -1.203  10.857 -0.5928  0.8019  0.8730
  458MOL0     H61795   5.225  -1.183  10.685 -2.0510  1.4861 -0.2832
  458MOL0     H61796   5.407  -1.034  10.782 -0.9808  0.5402  0.9790
  458MOL0     H61797   5.374  -1.114  10.938  0.0455  4.6680  0.4970
  458MOL0     H61798   5.395  -1.332  10.810  0.4593  0.6842  1.0857
  458MOL0     H61799   5.464  -1.246  10.671  0.5668 -1.8763  0.4667
  458MOL0     H61800   5.617  -1.350  10.880  1.9455  1.4163  0.4877
  458MOL0     H61801   5.581  -1.182  10.925 -1.9446  3.7144 -2.6805
  458MOL0     H61802   5.725  -1.244  10.677  0.2703  2.3624 -0.7463
  458MOL0     H61803   5.795  -1.207  10.830  0.2389  1.9259 -0.8000
  458MOL0     H61804   5.599  -1.033  10.664 -1.9189 -1.2891  0.2269
  458MOL0     H61805   5.654  -0.994  10.820 -0.4811  1.4933 -1.1631
  458MOL0     H61806   5.884  -0.967  10.754 -0.0152 -1.3938  0.5795
  458MOL0     H61807   5.764  -0.865  10.673 -2.6538 -1.0724 -0.9569
  458MOL0     H61808   5.932  -0.990  10.496  0.8242 -1.9574 -0.8337
  458MOL0     H61809   5.840  -1.133  10.547 -2.3342  0.3093  3.6246
  458MOL0     H61810   5.076  -0.785  10.728 -0.2562  0.3752 -0.7927
  458MOL0     H61811   4.854  -0.747  10.594  2.2602  0.8095 -2.4809
  458MOL0     H61812   4.504  -1.104  10.462 -1.0846 -0.5854  1.2851
  458MOL0     H61813   4.300  -1.170  10.402 -0.0707 -0.4772 -0.8098
  458MOL0     H61814   2.545   0.067  10.936  2.2840 -1.4426 -0.4766
  458MOL0     H61815   2.521   0.261  11.061 -1.5204 -2.6584 -1.7167
  458MOL0     H61816   2.474   0.801  10.887  0.9423  2.3186  0.1121
  458MOL0     H61817   2.352   0.993  11.001 -1.1390  0.4930  1.2201
  458MOL0     H61818   2.281   0.961  11.439  0.8355 -0.6173 -0.3495
  458MOL0     H61819   2.148   0.958  11.319  2.9258 -2.1317 -1.7440
  458MOL0     H61820   2.105   1.149  11.478 -0.9154  0.0759 -2.0351
  458MOL0     H61821   2.139   1.203  11.328 -0.0023 -2.5348 -0.3991
  458MOL0     H61822   2.324   1.321  11.423  0.5670 -0.3459 -0.3574
  458MOL0     H61823   2.400   1.176  11.475 -0.2876 -1.9404 -0.9131
  458MOL0     H61824   2.329   1.341  11.670 -0.2340  0.9954 -1.4715
  458MOL0     H61825   2.169   1.289  11.646  0.4501  1.5952  2.0217
  458MOL0     H61826   2.267   0.938  11.826 -0.4880  1.2671 -0.3535
  458MOL0     H61827   2.471   0.852  11.379 -0.2030  2.9414  0.1438
  458MOL0     H61828   2.629   0.676  11.394  0.7151 -3.4077  1.7280
  458MOL0     H61829   2.542   0.547  11.325 -0.3774  1.7345  3.7643
  458MOL0     H61830   2.700   0.596  11.253  1.2023  0.9943  0.8625
  459MOL0     O61831   6.753  10.072   0.095 -0.2025 -0.9640  0.2437
  459MOL0     C61832   6.688   9.989   0.027  0.2892 -1.0747 -0.1276
  459MOL0     O61833   6.622  10.008  -0.093  0.3081 -0.7951 -0.1018
  459MOL0     C61834   6.635  10.131  -0.148  0.5001 -0.0395 -0.0821
  459MOL0     C61835   6.753  10.195  -0.187 -0.5090 -0.6254 -0.0919
  459MOL0     C61836   6.744  10.303  -0.279  0.2142 -0.1422 -0.0280
  459MOL0     C61837   6.624  10.367  -0.311  0.5726  0.3714 -0.3572
  459MOL0     O61838   6.629  10.487  -0.379 -0.3654  0.4360  0.9541
  459MOL0     C61839   6.509  10.569  -0.398 -0.1194  0.1665 -0.5491
  459MOL0     C61840   6.548  10.706  -0.469  0.1118  0.1788 -0.1717
  459MOL0     C61841   6.599  10.809  -0.368  0.7031  0.2966 -0.7195
  459MOL0     C61842   6.743  10.768  -0.314  0.4805  0.4748 -0.5424
  459MOL0     C61843   6.733  10.713  -0.171 -0.0126 -0.5229  0.4867
  459MOL0     C61844   6.878  10.687  -0.111  1.1965 -0.7429 -0.4040
  459MOL0     C61845   6.935  10.548  -0.134 -0.4495  0.0881  1.2205
  459MOL0     C61846   7.058  10.537  -0.046 -0.4730  0.9543 -0.6751
  459MOL0     N61847   7.123  10.410  -0.059 -0.4379 -0.0755 -0.3913
  459MOL0     C61848   7.143  10.320   0.041  0.4995 -0.8494  0.8358
  459MOL0     C61849   7.194  10.213  -0.026 -0.2427  0.4921  0.8207
  459MOL0     C61850   7.234  10.092   0.052 -0.1546 -0.4901 -0.1686
  459MOL0     C61851   7.277   9.978  -0.047 -0.6688  0.2154  0.0392
  459MOL0     C61852   7.358   9.867   0.016 -0.0899  0.3371  0.0186
  459MOL0     C61853   7.420   9.784  -0.091 -1.0778 -0.3744 -0.2401
  459MOL0     O61854   7.480   9.665  -0.028  0.1145 -0.0417  0.4039
  459MOL0     C61855   7.599   9.621  -0.077  0.1252  0.3590 -0.2463
  459MOL0     C61856   7.684   9.538  -0.000  0.3060  0.1785 -0.5253
  459MOL0     C61857   7.802   9.494  -0.050  0.4757 -0.2952  0.2457
  459MOL0     C61858   7.844   9.521  -0.188  0.3338 -0.6273 -0.7752
  459MOL0     C61859   7.970   9.486  -0.249 -0.1366  0.3169  0.1749
  459MOL0     O61860   8.001   9.537  -0.372  0.4307  0.0674 -1.0263
  459MOL0     C61861   8.123   9.500  -0.419 -0.1721  0.6072  0.4348
  459MOL0     C61862   8.222   9.594  -0.424  0.0645  0.2205 -0.1516
  459MOL0     C61863   8.346   9.546  -0.463 -0.2289  0.3683 -0.0253
  459MOL0     C61864   8.372   9.424  -0.512 -0.3810 -0.0662 -0.2354
  459MOL0     O61865   8.501   9.401  -0.563  0.0953 -0.3294 -0.4062
  459MOL0     C61866   8.540   9.274  -0.613 -0.8517 -0.4802 -0.3588
  459MOL0     C61867   8.683   9.261  -0.668 -0.4608  0.1762  0.8748
  459MOL0     C61868   8.697   9.363  -0.782  0.4260 -0.3300  0.3383
  459MOL0     C61869   8.744   9.496  -0.724 -0.6301  0.5267 -0.1721
  459MOL0     C61870   8.716   9.606  -0.818 -0.8607  0.8557 -0.4889
  459MOL0     C61871   8.792   9.603  -0.955  0.8324 -1.0539  0.3518
  459MOL0     C61872   8.945   9.617  -0.974  0.0486 -0.5053  0.2449
  459MOL0     C61873   8.989   9.635  -1.129 -1.2358  0.0115 -0.3906
  459MOL0    Cl61874   9.162   9.686  -1.124  0.2910  0.0229 -0.1642
  459MOL0     C61875   8.270   9.323  -0.512 -0.2924  0.0483  0.0858
  459MOL0     C61876   8.145   9.363  -0.452 -0.7201  0.0494 -0.6971
  459MOL0     O61877   8.047   9.417  -0.182 -0.6741 -0.1232 -0.2707
  459MOL0     C61878   7.758   9.604  -0.263 -0.7288  0.6271 -0.2101
  459MOL0     C61879   7.643   9.650  -0.211 -0.0223 -0.1129  0.7076
  459MOL0     N61880   7.196  10.226  -0.165  0.6919  0.1763 -0.5160
  459MOL0     N61881   7.148  10.350  -0.181 -0.6216  0.2640 -0.1862
  459MOL0     C61882   6.506  10.313  -0.262 -0.1599  0.2789 -0.9846
  459MOL0     C61883   6.509  10.193  -0.195  0.2245  0.4112 -0.3382
  459MOL0     C61884   6.686   9.856   0.072  0.2069  0.2310 -0.2624
  459MOL0     C61885   6.554   9.802   0.053  0.1101 -0.5189  0.1660
  459MOL0     C61886   6.530   9.679   0.116 -0.4039  0.1108  1.0494
  459MOL0     C61887   6.627   9.602   0.188  0.0249 -0.0479 -0.3032
  459MOL0     O61888   6.582   9.501   0.261 -0.2449 -0.2739 -0.0325
  459MOL0     C61889   6.677   9.411   0.319 -1.3118 -0.9274 -0.2315
  459MOL0     C61890   6.751   9.316   0.221  0.7261  0.1299  0.3217
  459MOL0     C61891   6.737   9.168   0.262  0.5829 -0.7156  0.3452
  459MOL0     C61892   6.821   9.129   0.379 -0.0414 -0.4887 -0.6299
  459MOL0     C61893   6.770   9.018   0.455 -0.0416 -0.3594  0.3076
  459MOL0     C61894   6.747   8.917   0.514 -0.4655 -0.8384 -0.1293
  459MOL0     C61895   6.764   9.651   0.184  0.2761 -1.1452  0.1625
  459MOL0     C61896   6.794   9.770   0.122  0.0053  0.0703 -0.2655
  459MOL0     C61897   6.936   9.821   0.124  0.5971 -0.8241 -0.3097
  459MOL0     H61898   6.853  10.165  -0.157 -0.0527  0.2766 -0.6502
  459MOL0     H61899   6.843  10.341  -0.299  0.6102 -1.0519  0.1745
  459MOL0     H61900   6.446  10.514  -0.470  1.2194 -0.1905 -1.4835
  459MOL0     H61901   6.450  10.598  -0.311  1.0455  0.6728  0.0878
  459MOL0     H61902   6.460  10.735  -0.526  1.0347 -0.8896 -2.2687
  459MOL0     H61903   6.623  10.685  -0.547  1.3932 -0.1972  1.1103
  459MOL0     H61904   6.522  10.823  -0.292 -2.1812  1.6477 -3.6460
  459MOL0     H61905   6.611  10.909  -0.412  3.8928  0.4620  0.2561
  459MOL0     H61906   6.781  10.696  -0.387  1.0876  2.3329 -2.1380
  459MOL0     H61907   6.816  10.849  -0.321  1.8511 -0.5653  1.1116
  459MOL0     H61908   6.673  10.779  -0.108 -0.4502 -1.3371  0.9403
  459MOL0     H61909   6.674  10.621  -0.176  0.0193 -0.5211  0.0074
  459MOL0     H61910   6.948  10.767  -0.136  1.0036 -0.4048  0.1241
  459MOL0     H61911   6.862  10.704  -0.004 -0.1452 -0.8017 -0.5774
  459MOL0     H61912   6.958  10.526  -0.239 -1.8616  0.2995  0.8466
  459MOL0     H61913   6.861  10.474  -0.103 -1.4705 -0.0338 -1.2817
  459MOL0     H61914   7.128  10.619  -0.068 -0.3845  0.7826 -1.0312
  459MOL0     H61915   7.027  10.545   0.059 -1.5447 -2.9356 -0.5255
  459MOL0     H61916   7.115  10.326   0.146 -1.4310  3.2358  0.2513
  459MOL0     H61917   7.325  10.117   0.107 -0.3748  1.0260 -0.4597
  459MOL0     H61918   7.153  10.070   0.122 -2.0236  0.5861 -1.8839
  459MOL0     H61919   7.184   9.937  -0.085  0.7349 -2.8049 -0.4447
  459MOL0     H61920   7.327  10.007  -0.140 -1.7115 -0.9106 -0.9035
  459MOL0     H61921   7.295   9.808   0.083 -1.8749 -0.9615 -2.6487
  459MOL0     H61922   7.450   9.905   0.061  0.8502 -0.4359 -1.2022
  459MOL0     H61923   7.495   9.855  -0.127 -1.5904  1.8747  2.6801
  459MOL0     H61924   7.346   9.755  -0.166 -0.2379 -0.5602 -1.0074
  459MOL0     H61925   7.651   9.526   0.102 -0.4907  0.6937 -0.7127
  459MOL0     H61926   7.879   9.449   0.012  0.8646 -0.9857 -0.7189
  459MOL0     H61927   8.202   9.698  -0.403 -3.1367  0.0917 -1.9641
  459MOL0     H61928   8.423   9.623  -0.461 -1.0415  1.2075 -0.2262
  459MOL0     H61929   8.522   9.210  -0.526 -0.3302  0.6559  0.6186
  459MOL0     H61930   8.469   9.252  -0.694  0.9388  0.3336 -2.2248
  459MOL0     H61931   8.755   9.302  -0.597  1.4662  3.5977 -2.6123
  459MOL0     H61932   8.703   9.158  -0.700  2.8329  0.2354  2.3250
  459MOL0     H61933   8.775   9.329  -0.850 -0.1963 -2.6889  0.7232
  459MOL0     H61934   8.607   9.363  -0.844  0.8021  1.7977 -0.2827
  459MOL0     H61935   8.850   9.486  -0.699 -0.7268  1.4651  0.6840
  459MOL0     H61936   8.709   9.510  -0.621 -1.0714 -1.8258  0.0642
  459MOL0     H61937   8.743   9.695  -0.761 -0.2343 -1.4692  3.2096
  459MOL0     H61938   8.608   9.617  -0.830 -1.1917 -1.5030 -0.2897
  459MOL0     H61939   8.763   9.510  -1.006 -0.2813  0.5859 -2.2463
  459MOL0     H61940   8.753   9.690  -1.010  3.4961 -0.6503 -1.0390
  459MOL0     H61941   9.001   9.532  -0.934 -1.7055 -1.6894  0.2902
  459MOL0     H61942   8.977   9.714  -0.933 -2.2312  2.2405 -3.7239
  459MOL0     H61943   8.982   9.550  -1.197  1.1775 -0.3514 -0.2898
  459MOL0     H61944   8.931   9.718  -1.168 -2.5804 -0.1214  1.2189
  459MOL0     H61945   8.296   9.225  -0.552  2.1350  0.5906  0.1811
  459MOL0     H61946   8.059   9.297  -0.444  0.8994 -1.9449  1.8569
  459MOL0     H61947   7.788   9.629  -0.364  0.7735 -0.5557 -0.0856
  459MOL0     H61948   7.583   9.717  -0.272  0.5414  0.2306  0.5162
  459MOL0     H61949   6.410  10.360  -0.274 -0.4748 -0.0306  0.1426
  459MOL0     H61950   6.417  10.147  -0.159  0.7365  0.2871  0.8579
  459MOL0     H61951   6.467   9.857   0.019  1.7681  2.0462 -0.1001
  459MOL0     H61952   6.425   9.656   0.104  0.2012 -1.7142 -1.4188
  459MOL0     H61953   6.618   9.346   0.384 -1.4360 -1.1890 -0.6058
  459MOL0     H61954   6.751   9.455   0.388 -0.6097 -1.3042 -0.7303
  459MOL0     H61955   6.859   9.335   0.224  0.8603 -0.5949  0.4865
  459MOL0     H61956   6.722   9.332   0.117  0.3792  2.9277  0.7757
  459MOL0     H61957   6.760   9.108   0.173 -0.6361 -0.8592  0.1004
  459MOL0     H61958   6.631   9.151   0.286 -0.7239  0.9397 -3.4004
  459MOL0     H61959   6.927   9.131   0.352  0.2018  1.6848  0.3210
  459MOL0     H61960   6.804   9.216   0.443 -1.4783  0.0452 -1.6737
  459MOL0     H61961   6.733   8.823   0.563  0.0978 -0.8318  0.0557
  459MOL0     H61962   6.847   9.601   0.233  1.5204  0.0478 -0.6814
  459MOL0     H61963   6.970   9.842   0.226  1.6277 -2.0311 -0.3911
  459MOL0     H61964   7.004   9.747   0.082  0.8023 -0.8938  0.1337
  459MOL0     H61965   6.944   9.907   0.057  1.9337 -2.5011 -2.4419
  460MOL0     O61966   4.831   4.486   6.238  0.2037  0.1131 -0.5263
  460MOL0     C61967   4.835   4.560   6.333  0.4782 -0.1941 -0.4780
  460MOL0     O61968   4.939   4.637   6.369  0.4825 -0.1779  0.1399
  460MOL0     C61969   5.057   4.626   6.300  0.6898  1.0048 -0.5644
  460MOL0     C61970   5.111   4.732   6.231 -0.2503  0.2100  0.8353
  460MOL0     C61971   5.231   4.720   6.153  1.5283 -0.2926  0.6854
  460MOL0     C61972   5.298   4.607   6.155 -0.2109  0.4732 -0.0644
  460MOL0     O61973   5.419   4.596   6.089  0.4618 -0.4596 -0.4949
  460MOL0     C61974   5.438   4.481   6.004 -0.1143 -0.7385 -0.0716
  460MOL0     C61975   5.586   4.478   5.963  0.1760  0.2199  0.0059
  460MOL0     C61976   5.675   4.379   6.040 -0.9788  0.2382 -0.2156
  460MOL0     C61977   5.715   4.409   6.182 -0.0851 -0.3172  0.3455
  460MOL0     C61978   5.814   4.310   6.229 -0.4847 -0.1946 -0.4117
  460MOL0     C61979   5.900   4.366   6.348  0.6863 -0.0782  0.0701
  460MOL0     C61980   5.978   4.247   6.407  0.0010 -0.0236  0.0142
  460MOL0     C61981   6.077   4.186   6.298 -0.0586 -0.1166  0.6442
  460MOL0     N61982   6.136   4.062   6.350 -0.7402  0.3289 -0.2691
  460MOL0     C61983   6.268   4.053   6.386  0.5426 -0.0267 -0.2805
  460MOL0     C61984   6.286   3.919   6.397 -0.5664 -0.1116  0.1178
  460MOL0     C61985   6.411   3.854   6.450 -0.6377  0.3755  0.7751
  460MOL0     C61986   6.537   3.924   6.418 -0.1295 -0.3474 -0.5119
  460MOL0     C61987   6.584   3.924   6.266  0.5873 -0.0715 -0.0254
  460MOL0     C61988   6.631   3.783   6.231  0.4152 -0.2474  0.4369
  460MOL0     O61989   6.683   3.701   6.325 -0.4867 -0.3242 -0.0022
  460MOL0     C61990   6.822   3.708   6.351  0.0563 -0.9978  0.2964
  460MOL0     C61991   6.917   3.801   6.306 -0.3211 -0.0662  0.2814
  460MOL0     C61992   7.044   3.798   6.365 -0.3092 -0.1278  0.1567
  460MOL0     C61993   7.094   3.700   6.444  1.6554  0.7019  0.1948
  460MOL0     C61994   7.236   3.691   6.503 -1.3751  0.3582 -0.2171
  460MOL0     O61995   7.301   3.813   6.510 -0.0094  0.6210  0.3866
  460MOL0     C61996   7.435   3.813   6.537 -0.1469 -0.1084 -0.0768
  460MOL0     C61997   7.519   3.738   6.456 -1.4162  0.4077  0.3572
  460MOL0     C61998   7.663   3.747   6.473  1.2039  1.2013 -0.0322
  460MOL0     C61999   7.716   3.828   6.570 -0.3544  0.6225 -0.3640
  460MOL0     O62000   7.856   3.840   6.564  0.5857 -0.0130 -0.4878
  460MOL0     C62001   7.895   3.981   6.553 -0.7247 -0.1428 -0.5053
  460MOL0     C62002   8.045   3.971   6.546 -0.3665  0.3104  0.0954
  460MOL0     C62003   8.104   4.111   6.583 -0.0556  0.5346  0.3336
  460MOL0     C62004   8.256   4.087   6.618 -0.3448 -0.2466 -0.5649
  460MOL0     C62005   8.323   4.196   6.700 -0.1081  0.5945 -0.2028
  460MOL0     C62006   8.338   4.322   6.623  0.7228  0.0805  0.1005
  460MOL0     C62007   8.426   4.429   6.693 -0.5825  0.8601 -0.1801
  460MOL0     C62008   8.446   4.555   6.606  0.0102 -0.0677 -0.0749
  460MOL0    Cl62009   8.292   4.649   6.594  0.0337 -0.4668 -0.1908
  460MOL0     C62010   7.629   3.898   6.660  0.1562  0.7686 -0.5783
  460MOL0     C62011   7.487   3.890   6.637 -0.2161 -0.4145 -0.6397
  460MOL0     O62012   7.278   3.587   6.565 -0.2871 -0.2867  0.4686
  460MOL0     C62013   7.000   3.591   6.463  0.7954 -1.1484 -1.0600
  460MOL0     C62014   6.865   3.602   6.427 -0.0649  0.1406  0.5413
  460MOL0     N62015   6.170   3.846   6.371 -0.7752  0.0128  0.2687
  460MOL0     N62016   6.083   3.932   6.337 -0.7246  0.7775  0.4380
  460MOL0     C62017   5.246   4.495   6.230  0.1180 -0.7133  0.0972
  460MOL0     C62018   5.126   4.502   6.299 -0.1058 -0.4808  0.2545
  460MOL0     C62019   4.712   4.577   6.417 -0.0347 -0.1365  0.0400
  460MOL0     C62020   4.585   4.553   6.360  0.5131  0.3701 -0.4126
  460MOL0     C62021   4.466   4.572   6.433 -0.2367 -0.4773  0.1003
  460MOL0     C62022   4.454   4.603   6.565  0.2528  0.0143  0.2198
  460MOL0     O62023   4.334   4.615   6.632  0.1619 -0.1553  0.3720
  460MOL0     C62024   4.329   4.677   6.757  0.5151  0.3259  0.2666
  460MOL0     C62025   4.181   4.695   6.805 -1.3477  0.2066  0.1185
  460MOL0     C62026   4.112   4.804   6.736 -0.1983  0.3285  0.3556
  460MOL0     C62027   3.974   4.821   6.800  0.3942 -0.1776 -0.2724
  460MOL0     C62028   3.877   4.703   6.773 -0.2390  0.3060 -0.4758
  460MOL0     C62029   3.795   4.609   6.771 -0.4095 -0.9268  0.2532
  460MOL0     C62030   4.574   4.636   6.624  0.5843 -0.1886 -1.1411
  460MOL0     C62031   4.704   4.617   6.560  0.9887  0.4023 -0.5061
  460MOL0     C62032   4.832   4.622   6.640  0.5944  0.3312 -0.9807
  460MOL0     H62033   5.046   4.819   6.234  0.2027  0.8833 -3.1198
  460MOL0     H62034   5.264   4.813   6.107 -2.1424  3.0012  3.9441
  460MOL0     H62035   5.399   4.384   6.038 -2.4171  0.6477  1.6036
  460MOL0     H62036   5.383   4.510   5.914  0.1709 -0.3022 -0.1061
  460MOL0     H62037   5.628   4.579   5.968  1.3488 -0.2195 -0.8569
  460MOL0     H62038   5.584   4.444   5.859  0.9885 -0.2647  0.1423
  460MOL0     H62039   5.766   4.387   5.980  0.5666  0.9077  2.0675
  460MOL0     H62040   5.643   4.275   6.032  0.0498 -0.0035 -1.5924
  460MOL0     H62041   5.765   4.506   6.182 -0.8471  0.0862  0.9338
  460MOL0     H62042   5.633   4.412   6.254 -0.2642 -1.7417  0.2311
  460MOL0     H62043   5.762   4.217   6.254 -0.0577  0.3421  2.7668
  460MOL0     H62044   5.889   4.282   6.155 -1.1498 -4.0266  0.1840
  460MOL0     H62045   5.972   4.436   6.303  0.9378  1.1691  2.2537
  460MOL0     H62046   5.837   4.413   6.424  1.4137 -0.8449  1.1675
  460MOL0     H62047   5.917   4.161   6.435  2.1241 -2.9669 -3.5494
  460MOL0     H62048   6.037   4.278   6.494 -0.7696 -2.1221  1.3595
  460MOL0     H62049   6.023   4.152   6.209  2.2408  0.2660 -0.9769
  460MOL0     H62050   6.144   4.264   6.261 -0.7944  0.0729 -0.3384
  460MOL0     H62051   6.340   4.133   6.402 -0.0876  1.2482 -3.1906
  460MOL0     H62052   6.397   3.846   6.558 -4.3888  3.2671  0.7263
  460MOL0     H62053   6.417   3.752   6.412  0.9588  1.5603 -2.5966
  460MOL0     H62054   6.519   4.029   6.441  1.6188  0.2508 -1.6192
  460MOL0     H62055   6.614   3.888   6.486 -1.0553  0.2996  0.9203
  460MOL0     H62056   6.676   3.981   6.254 -1.2871  3.2706  0.1472
  460MOL0     H62057   6.506   3.961   6.198  1.0015 -2.7139 -2.0999
  460MOL0     H62058   6.706   3.808   6.155 -1.4993 -0.9994 -1.8289
  460MOL0     H62059   6.556   3.722   6.179  1.6803 -1.2545 -0.2868
  460MOL0     H62060   6.897   3.891   6.248  0.2214 -2.3215 -3.8312
  460MOL0     H62061   7.115   3.877   6.344 -1.2871  1.0044  0.9398
  460MOL0     H62062   7.489   3.663   6.383  1.3842  1.3348 -1.9230
  460MOL0     H62063   7.722   3.690   6.402 -1.1563 -1.0442 -0.3382
  460MOL0     H62064   7.853   4.027   6.463  0.4839  2.3764  0.1189
  460MOL0     H62065   7.880   4.041   6.644  2.1326 -1.7393  1.1883
  460MOL0     H62066   8.074   3.899   6.623  0.0631 -0.7181 -0.9976
  460MOL0     H62067   8.087   3.925   6.456 -2.4221 -2.4881  0.4345
  460MOL0     H62068   8.100   4.173   6.492  2.0281  0.4254  0.1338
  460MOL0     H62069   8.050   4.163   6.663 -0.1820  1.0757 -0.0916
  460MOL0     H62070   8.294   4.086   6.515  0.6170  1.4968 -0.2529
  460MOL0     H62071   8.280   3.989   6.660 -0.9313  0.8199  2.4849
  460MOL0     H62072   8.424   4.156   6.718  0.0049  0.6604 -0.6931
  460MOL0     H62073   8.270   4.202   6.796 -2.1989  0.4302 -1.2977
  460MOL0     H62074   8.357   4.293   6.519 -1.8693 -1.1914 -0.1048
  460MOL0     H62075   8.236   4.361   6.616  0.7010 -0.0121 -0.1141
  460MOL0     H62076   8.521   4.377   6.700 -1.1506 -0.1245  0.4186
  460MOL0     H62077   8.378   4.437   6.791 -1.5858  2.8238 -0.7606
  460MOL0     H62078   8.517   4.627   6.649 -1.1156  0.9942  0.0786
  460MOL0     H62079   8.487   4.523   6.510  2.1306  2.5469 -0.1757
  460MOL0     H62080   7.670   3.970   6.730  6.2374 -1.5127 -1.1452
  460MOL0     H62081   7.411   3.939   6.696 -0.2826 -0.9628 -0.2615
  460MOL0     H62082   7.042   3.516   6.529  0.9908  0.7571  1.1013
  460MOL0     H62083   6.799   3.526   6.467  1.2686 -0.9883  0.6638
  460MOL0     H62084   5.298   4.400   6.225 -2.3497 -2.1838  0.2022
  460MOL0     H62085   5.082   4.420   6.357 -2.4944 -0.5165 -1.4586
  460MOL0     H62086   4.573   4.535   6.254  1.7695 -1.1364 -0.3186
  460MOL0     H62087   4.371   4.569   6.380 -0.1093  1.2137 -0.2980
  460MOL0     H62088   4.382   4.772   6.754  1.2969  0.0337  2.6722
  460MOL0     H62089   4.381   4.607   6.823 -0.5937 -1.8248 -1.0289
  460MOL0     H62090   4.183   4.698   6.915 -2.1019 -2.2533  0.2482
  460MOL0     H62091   4.131   4.601   6.781 -0.9155  0.3674 -1.5186
  460MOL0     H62092   4.084   4.781   6.633 -1.5945 -0.1219  0.8115
  460MOL0     H62093   4.182   4.887   6.727 -2.2140  1.8473 -4.4110
  460MOL0     H62094   3.967   4.849   6.905 -2.9791  2.7248 -1.1087
  460MOL0     H62095   3.939   4.905   6.740  0.1971 -0.2830 -0.3059
  460MOL0     H62096   3.726   4.527   6.770 -0.5048 -0.8469  0.2093
  460MOL0     H62097   4.572   4.674   6.726  0.3099  2.7154 -2.1462
  460MOL0     H62098   4.818   4.606   6.747  1.5061 -0.2692 -0.9415
  460MOL0     H62099   4.899   4.537   6.622 -2.5387 -2.7990  0.8969
  460MOL0     H62100   4.889   4.708   6.605  2.5788 -0.4577  0.1996
  461MOL0     O62101   4.467   8.282   9.161  0.2745  0.2709 -0.3252
  461MOL0     C62102   4.383   8.224   9.096 -0.5193  0.4285 -0.0824
  461MOL0     O62103   4.397   8.178   8.968 -0.3704  0.0409  0.3568
  461MOL0     C62104   4.513   8.204   8.905  0.7302  0.4882 -0.4797
  461MOL0     C62105   4.627   8.129   8.939 -0.0357 -0.3521 -0.0044
  461MOL0     C62106   4.746   8.163   8.880 -0.6542 -0.8960  0.1934
  461MOL0     C62107   4.763   8.274   8.790 -0.7852 -0.3898 -0.5216
  461MOL0     O62108   4.880   8.309   8.720 -0.1521  0.2906  0.2282
  461MOL0     C62109   5.010   8.270   8.771  0.7408 -0.3254  0.1232
  461MOL0     C62110   5.106   8.374   8.705  1.4361  0.9195 -0.9157
  461MOL0     C62111   5.226   8.422   8.786 -1.1821  0.5040 -0.2625
  461MOL0     C62112   5.315   8.508   8.700  0.5899  0.5949  0.8871
  461MOL0     C62113   5.425   8.567   8.787 -0.0184  0.2677  0.7294
  461MOL0     C62114   5.542   8.623   8.691  0.2452  0.1935 -0.4123
  461MOL0     C62115   5.617   8.525   8.602  1.0690  0.3927  0.1086
  461MOL0     C62116   5.772   8.541   8.601  0.2678  0.7214 -0.1066
  461MOL0     N62117   5.848   8.436   8.528  0.6727 -0.2320  0.0670
  461MOL0     C62118   5.804   8.372   8.407  0.0549 -0.2940  0.1550
  461MOL0     C62119   5.844   8.248   8.410 -0.4228  0.4522 -0.1150
  461MOL0     C62120   5.815   8.154   8.289  1.4183  0.9748 -0.0703
  461MOL0     C62121   5.912   8.164   8.160 -0.0427 -0.7799 -1.4508
  461MOL0     C62122   6.031   8.069   8.161  0.1318  0.3831  0.6242
  461MOL0     C62123   6.141   8.106   8.259  0.0480  0.9328  0.3202
  461MOL0     O62124   6.253   8.120   8.168 -0.0167 -0.4135 -0.3499
  461MOL0     C62125   6.373   8.142   8.233 -0.1401 -0.3647  0.2761
  461MOL0     C62126   6.490   8.124   8.163  0.3712  0.2519 -0.4404
  461MOL0     C62127   6.611   8.151   8.220 -0.4801 -0.1438 -0.4656
  461MOL0     C62128   6.626   8.194   8.351 -0.6991  0.1396 -0.3804
  461MOL0     C62129   6.756   8.222   8.411  0.9192  0.3044  0.6747
  461MOL0     O62130   6.764   8.222   8.544 -0.7879  0.2291 -0.6672
  461MOL0     C62131   6.883   8.252   8.605  0.8144  0.6022 -1.1113
  461MOL0     C62132   6.953   8.165   8.694 -0.4548 -0.2599 -0.0556
  461MOL0     C62133   7.084   8.194   8.738 -0.1643  0.5374 -0.5352
  461MOL0     C62134   7.150   8.304   8.694 -0.0073  0.0075  0.2686
  461MOL0     O62135   7.284   8.319   8.738 -0.1156  0.7643 -0.2845
  461MOL0     C62136   7.380   8.399   8.665  0.3971 -0.3561 -0.2709
  461MOL0     C62137   7.517   8.361   8.711  0.1243 -0.1803  1.1845
  461MOL0     C62138   7.631   8.438   8.643  1.0313  0.0481  0.1259
  461MOL0     C62139   7.674   8.367   8.513  0.0791  0.1829  0.9160
  461MOL0     C62140   7.776   8.254   8.544 -0.0376 -0.9914  0.1475
  461MOL0     C62141   7.844   8.217   8.420 -0.7432  0.2782 -0.8930
  461MOL0     C62142   7.965   8.127   8.450  0.3132 -0.8108 -0.1135
  461MOL0     C62143   8.092   8.190   8.502  0.2157  0.5446 -0.5698
  461MOL0    Cl62144   8.135   8.318   8.395 -0.0363 -0.1558 -0.0295
  461MOL0     C62145   7.082   8.393   8.608 -1.0369  0.5408 -0.3952
  461MOL0     C62146   6.944   8.375   8.581  0.5751 -0.1783  0.6820
  461MOL0     O62147   6.851   8.231   8.334  0.1074 -0.3833 -0.4621
  461MOL0     C62148   6.510   8.208   8.424  0.5306 -0.5917  0.2614
  461MOL0     C62149   6.382   8.192   8.362  0.7245  0.7665 -0.3816
  461MOL0     N62150   5.925   8.233   8.526 -0.2076  0.3173  0.5346
  461MOL0     N62151   5.937   8.352   8.582  0.1996  0.8568  0.5256
  461MOL0     C62152   4.647   8.338   8.755 -0.0551  0.4262 -0.0336
  461MOL0     C62153   4.523   8.302   8.808 -0.0633 -0.5096 -0.7617
  461MOL0     C62154   4.246   8.199   9.151  0.1035 -0.2335  0.8658
  461MOL0     C62155   4.156   8.160   9.056  0.2813 -0.8652  0.5663
  461MOL0     C62156   4.025   8.125   9.092 -0.3010 -0.6057 -0.3199
  461MOL0     C62157   3.993   8.129   9.231  0.2129  0.8666 -0.0903
  461MOL0     O62158   3.861   8.089   9.273 -0.1570 -0.6158  0.3407
  461MOL0     C62159   3.811   8.131   9.401 -0.6332 -0.1209  0.0430
  461MOL0     C62160   3.657   8.125   9.420  0.1700  0.3754  0.2199
  461MOL0     C62161   3.592   8.184   9.545  0.1763  0.6725 -0.5839
  461MOL0     C62162   3.437   8.178   9.543  0.8092 -0.4675  0.1094
  461MOL0     C62163   3.367   8.286   9.619 -0.8186  0.1733 -0.3211
  461MOL0     C62164   3.301   8.364   9.692 -0.0592  0.1619 -0.3852
  461MOL0     C62165   4.093   8.164   9.325 -0.3548 -0.2461  0.3021
  461MOL0     C62166   4.220   8.207   9.288 -1.4091  0.2082  0.2989
  461MOL0     C62167   4.330   8.220   9.402  0.2729 -0.0714  0.9120
  461MOL0     H62168   4.626   8.053   9.016  0.3109  1.3361  1.7315
  461MOL0     H62169   4.831   8.101   8.906 -0.4849 -0.4344  0.7821
  461MOL0     H62170   5.014   8.290   8.879  1.4045  3.2696 -0.4129
  461MOL0     H62171   5.022   8.164   8.748 -0.6155 -0.9606  2.0036
  461MOL0     H62172   5.049   8.465   8.682 -0.2924 -0.0553 -0.6435
  461MOL0     H62173   5.138   8.330   8.610 -1.1549 -2.0134 -0.5777
  461MOL0     H62174   5.283   8.332   8.811  2.0521  2.1404 -1.2903
  461MOL0     H62175   5.187   8.482   8.869  1.1042  1.7464  0.0000
  461MOL0     H62176   5.352   8.448   8.616  0.0529  2.4343 -0.7520
  461MOL0     H62177   5.275   8.599   8.653  0.2793 -2.0611 -4.7748
  461MOL0     H62178   5.381   8.651   8.842 -0.0069 -0.1565  1.3953
  461MOL0     H62179   5.471   8.499   8.859  1.5656 -0.5140 -0.9235
  461MOL0     H62180   5.507   8.701   8.623  1.4701  1.2233  0.1086
  461MOL0     H62181   5.612   8.679   8.753 -1.9658  2.7587 -0.0350
  461MOL0     H62182   5.579   8.534   8.500 -0.0776  0.6606  0.5457
  461MOL0     H62183   5.589   8.423   8.629  2.8416 -0.0447  0.4471
  461MOL0     H62184   5.799   8.644   8.578 -5.7393  3.0441  1.3366
  461MOL0     H62185   5.800   8.529   8.707 -0.7436  0.9364  0.1930
  461MOL0     H62186   5.742   8.409   8.326 -2.2321  0.0936  1.9587
  461MOL0     H62187   5.819   8.051   8.326  1.7498  1.5120  1.4401
  461MOL0     H62188   5.715   8.156   8.244  0.8931 -0.5563  0.9137
  461MOL0     H62189   5.848   8.138   8.075  0.6373 -0.2702 -2.1263
  461MOL0     H62190   5.947   8.265   8.140 -0.9208  0.0325  0.8273
  461MOL0     H62191   6.060   8.065   8.056  0.3628  2.2966  0.5720
  461MOL0     H62192   5.997   7.968   8.184 -0.3933  0.9314  2.4872
  461MOL0     H62193   6.162   8.014   8.315  0.7628 -2.1068 -4.4046
  461MOL0     H62194   6.115   8.199   8.311 -3.6583 -0.5061  1.3430
  461MOL0     H62195   6.483   8.091   8.059 -0.3546  5.2951 -2.2661
  461MOL0     H62196   6.706   8.145   8.168  0.9249  3.0710  1.3958
  461MOL0     H62197   6.919   8.067   8.726  3.2094 -1.8454 -0.4826
  461MOL0     H62198   7.143   8.142   8.813  0.7840  1.0044 -0.9387
  461MOL0     H62199   7.365   8.389   8.558  1.6038  2.0038 -0.7289
  461MOL0     H62200   7.361   8.505   8.685 -1.9828 -0.7002 -0.4895
  461MOL0     H62201   7.527   8.394   8.815  1.0087 -0.4462  1.1904
  461MOL0     H62202   7.518   8.252   8.710  3.2038 -0.3035  2.7009
  461MOL0     H62203   7.584   8.532   8.613 -1.9198 -1.7669 -1.5232
  461MOL0     H62204   7.720   8.445   8.706  2.2248 -1.5654 -1.2929
  461MOL0     H62205   7.704   8.442   8.440 -1.0335 -0.7411 -0.5270
  461MOL0     H62206   7.587   8.321   8.468 -0.3481 -0.9959  2.8183
  461MOL0     H62207   7.722   8.172   8.591 -1.1377 -0.5505 -0.3013
  461MOL0     H62208   7.856   8.294   8.608 -0.4815 -2.4682  1.6821
  461MOL0     H62209   7.766   8.166   8.364 -2.3174  1.8577 -0.2112
  461MOL0     H62210   7.862   8.306   8.358 -3.3158  0.8727 -0.8952
  461MOL0     H62211   7.988   8.072   8.359 -2.2881 -4.2007  1.0829
  461MOL0     H62212   7.935   8.052   8.524  1.3441  0.5180  1.7523
  461MOL0     H62213   8.084   8.213   8.609  2.8865 -0.7667  0.0064
  461MOL0     H62214   8.176   8.120   8.492  1.4108  1.9566 -0.8214
  461MOL0     H62215   7.138   8.478   8.570  0.5761 -0.5020 -0.3970
  461MOL0     H62216   6.899   8.445   8.512  2.1804  1.8374  1.5810
  461MOL0     H62217   6.497   8.234   8.529 -1.3200  1.3040 -0.3544
  461MOL0     H62218   6.293   8.212   8.422 -0.8599 -2.4155 -1.4138
  461MOL0     H62219   4.651   8.412   8.676  1.2199 -1.8398 -2.2827
  461MOL0     H62220   4.440   8.362   8.772  1.1763  0.9106 -1.3347
  461MOL0     H62221   4.179   8.148   8.951 -0.0318  3.8322 -0.2657
  461MOL0     H62222   3.949   8.095   9.020  0.7187  0.3277 -1.8388
  461MOL0     H62223   3.845   8.232   9.424 -1.5383 -0.1402  1.5656
  461MOL0     H62224   3.861   8.067   9.475  2.2244 -0.2190 -1.7836
  461MOL0     H62225   3.627   8.020   9.419 -0.5595  0.5675  1.0241
  461MOL0     H62226   3.612   8.172   9.332 -1.5631 -0.6112  0.5304
  461MOL0     H62227   3.623   8.288   9.557 -3.7383  2.1714 -1.9642
  461MOL0     H62228   3.640   8.133   9.630 -0.1781 -0.9119 -1.2904
  461MOL0     H62229   3.405   8.177   9.439  1.0960  0.7523 -0.0074
  461MOL0     H62230   3.400   8.085   9.587 -2.5015  0.2292 -0.9885
  461MOL0     H62231   3.243   8.431   9.752 -0.3841 -3.5191  3.9058
  461MOL0     H62232   4.061   8.158   9.429  0.3623 -6.2925  0.5162
  461MOL0     H62233   4.391   8.129   9.395 -0.3889 -0.4658  0.1507
  461MOL0     H62234   4.387   8.312   9.387 -1.4843  1.1795  1.6027
  461MOL0     H62235   4.285   8.225   9.501  1.4218  0.5079  1.4278
  462MOL0     O62236   7.603   0.058   8.645 -0.1084 -1.0039 -0.6622
  462MOL0     C62237   7.611  -0.012   8.546 -0.8900 -0.7689  0.0138
  462MOL0     O62238   7.721  -0.093   8.525 -0.5607  0.0035  0.3435
  462MOL0     C62239   7.819  -0.100   8.624 -0.1161 -0.4980  0.0831
  462MOL0     C62240   7.953  -0.056   8.605 -0.2860  0.7041  0.4931
  462MOL0     C62241   8.052  -0.073   8.711 -0.7250 -0.3921  0.6820
  462MOL0     C62242   8.026  -0.138   8.834 -0.4291  0.0965 -0.6744
  462MOL0     O62243   8.130  -0.152   8.924  1.0127  0.1416  0.4621
  462MOL0     C62244   8.104  -0.205   9.051  0.4492  0.1233  0.1690
  462MOL0     C62245   8.244  -0.218   9.120 -0.5965 -0.6249  1.2684
  462MOL0     C62246   8.220  -0.280   9.256 -0.1483  0.2224  0.3319
  462MOL0     C62247   8.347  -0.299   9.345  0.0742  0.5556 -0.1772
  462MOL0     C62248   8.437  -0.172   9.363 -0.1607 -0.1604 -0.2223
  462MOL0     C62249   8.356  -0.052   9.413 -0.1100  0.7826 -0.0742
  462MOL0     C62250   8.434   0.070   9.466  1.1247 -1.4986  0.0049
  462MOL0     C62251   8.514   0.145   9.351  0.0012 -0.8717 -0.0073
  462MOL0     N62252   8.648   0.097   9.347  0.1728  0.9600 -0.0220
  462MOL0     C62253   8.754   0.129   9.432  0.1039  0.6945  0.0972
  462MOL0     C62254   8.866   0.069   9.382 -0.0047  0.6401  0.2169
  462MOL0     C62255   8.999   0.096   9.436 -0.7020  0.3504 -0.4791
  462MOL0     C62256   9.066  -0.009   9.530  0.9442 -0.4841 -0.3496
  462MOL0     C62257   9.199   0.056   9.567 -0.2241  0.4769  0.5169
  462MOL0     C62258   9.267  -0.019   9.682  0.0167  0.3972 -0.7569
  462MOL0     O62259   9.385   0.054   9.716 -0.1533 -0.1102 -0.2070
  462MOL0     C62260   9.393   0.154   9.810  0.0628  1.0808 -0.5972
  462MOL0     C62261   9.287   0.211   9.879  0.2078  0.1902 -0.0418
  462MOL0     C62262   9.301   0.309   9.973 -0.1161 -0.1941 -0.0795
  462MOL0     C62263   9.429   0.364   9.993 -0.0000  0.0539 -0.3541
  462MOL0     C62264   9.449   0.472  10.098  0.0594  0.0260  0.1465
  462MOL0     O62265   9.336   0.532  10.161 -0.5544 -0.5063  0.3382
  462MOL0     C62266   9.367   0.630  10.255 -0.1277  0.3447 -0.4538
  462MOL0     C62267   9.430   0.753  10.225  0.1390 -0.4409  0.3761
  462MOL0     C62268   9.467   0.845  10.329  0.0858 -0.3078 -0.2588
  462MOL0     C62269   9.430   0.816  10.460 -0.3579  0.4160 -0.2773
  462MOL0     O62270   9.477   0.902  10.551 -0.0470  0.2781  0.8987
  462MOL0     C62271   9.400   0.925  10.669  0.4512 -0.1686  0.0781
  462MOL0     C62272   9.467   1.022  10.766  0.3806  0.2227  0.0912
  462MOL0     C62273   9.535   1.145  10.697 -0.6227 -0.1074  0.3684
  462MOL0     C62274   9.685   1.143  10.758  0.4057  0.2122  0.9346
  462MOL0     C62275   9.750   1.276  10.718  0.7548  0.1935  0.0594
  462MOL0     C62276   9.897   1.289  10.769  0.0335  0.6443 -0.7740
  462MOL0     C62277   9.952   1.413  10.707 -0.6132 -0.3316 -0.5687
  462MOL0     C62278  10.101   1.433  10.726  0.7248  0.1197  0.1206
  462MOL0    Cl62279  10.136   1.403  10.891 -0.2010  0.0653  0.2430
  462MOL0     C62280   9.371   0.686  10.493  0.1836  0.8352  0.4651
  462MOL0     C62281   9.341   0.598  10.389  1.1340  0.4607  0.0743
  462MOL0     O62282   9.564   0.499  10.125 -0.2072 -0.4258  0.5593
  462MOL0     C62283   9.538   0.307   9.925  0.3743  0.4515  0.6796
  462MOL0     C62284   9.517   0.217   9.829 -0.7449  1.4639  0.3880
  462MOL0     N62285   8.834  -0.010   9.277 -1.0195 -1.0184 -0.3642
  462MOL0     N62286   8.704   0.013   9.261  0.2530  0.2619  0.2187
  462MOL0     C62287   7.894  -0.177   8.852 -0.6455 -0.8324 -0.5373
  462MOL0     C62288   7.797  -0.164   8.748 -0.4762  0.1048  0.6631
  462MOL0     C62289   7.509  -0.017   8.439  0.3401 -1.1738  0.5141
  462MOL0     C62290   7.522  -0.110   8.332  0.4045 -0.1088 -0.1470
  462MOL0     C62291   7.425  -0.121   8.225  0.5126  0.5297 -0.9662
  462MOL0     C62292   7.316  -0.041   8.223  0.1187  0.3718 -0.0513
  462MOL0     O62293   7.212  -0.065   8.133 -0.2472 -0.5249  0.4706
  462MOL0     C62294   7.251  -0.118   8.005  0.0724  0.0631 -0.4803
  462MOL0     C62295   7.122  -0.095   7.912 -0.2955  0.3920 -0.4472
  462MOL0     C62296   7.090   0.052   7.885 -0.2095  0.2207 -0.1511
  462MOL0     C62297   6.959   0.077   7.805 -1.2018 -0.5524  0.0032
  462MOL0     C62298   6.906   0.210   7.841 -0.2572 -0.4378  0.1672
  462MOL0     C62299   6.856   0.315   7.869 -0.2473  1.1660 -0.2709
  462MOL0     C62300   7.295   0.039   8.338  0.3616  0.2124 -0.4880
  462MOL0     C62301   7.391   0.057   8.441 -0.2466  1.0957  0.9919
  462MOL0     C62302   7.360   0.163   8.538  0.5495 -0.1941  0.2016
  462MOL0     H62303   7.985  -0.022   8.507  0.2413  1.6085  0.9671
  462MOL0     H62304   8.151  -0.039   8.682 -2.1029  2.3108 -1.2190
  462MOL0     H62305   8.040  -0.145   9.117 -3.2915 -3.0744 -0.1569
  462MOL0     H62306   8.054  -0.301   9.037 -1.1507  1.3469 -3.7676
  462MOL0     H62307   8.287  -0.119   9.135 -1.0131  0.6134 -3.7753
  462MOL0     H62308   8.309  -0.280   9.059 -2.7794 -2.9241  1.1101
  462MOL0     H62309   8.184  -0.379   9.228 -0.0719  0.0869  0.7000
  462MOL0     H62310   8.145  -0.217   9.306  0.1925 -0.4022  1.6943
  462MOL0     H62311   8.309  -0.333   9.441 -3.3860 -1.9587 -2.1985
  462MOL0     H62312   8.410  -0.376   9.299 -2.0068 -3.4556  3.0433
  462MOL0     H62313   8.516  -0.196   9.435  1.1943  2.3499 -0.7505
  462MOL0     H62314   8.492  -0.158   9.269  1.9623  0.2077  1.0138
  462MOL0     H62315   8.292  -0.012   9.334  1.1383  1.8559 -0.5892
  462MOL0     H62316   8.309  -0.090   9.504 -0.1978  4.1933  1.4744
  462MOL0     H62317   8.511   0.042   9.538  2.4064  0.0798 -0.7108
  462MOL0     H62318   8.360   0.142   9.504  2.3192 -0.5304  0.5357
  462MOL0     H62319   8.461   0.122   9.258 -1.7215 -3.8695  1.5652
  462MOL0     H62320   8.526   0.253   9.364 -2.1432 -0.7446  1.5307
  462MOL0     H62321   8.763   0.196   9.516 -0.7628 -0.4052  1.1104
  462MOL0     H62322   9.063   0.113   9.350 -0.0330  3.2719  0.4774
  462MOL0     H62323   9.004   0.185   9.500  0.3452 -0.2047  0.2290
  462MOL0     H62324   9.003  -0.016   9.619 -0.5878 -2.0229 -1.4600
  462MOL0     H62325   9.078  -0.110   9.489 -0.2927 -0.2138 -1.4499
  462MOL0     H62326   9.174   0.154   9.608 -2.1674  0.5575 -0.7100
  462MOL0     H62327   9.257   0.059   9.474 -1.1059  0.7347 -0.0353
  462MOL0     H62328   9.299  -0.118   9.647  2.8959  1.1308 -0.3890
  462MOL0     H62329   9.200  -0.031   9.768 -0.5481 -0.3975 -1.2765
  462MOL0     H62330   9.189   0.169   9.856 -0.3449  2.1888 -1.6644
  462MOL0     H62331   9.215   0.361  10.015 -0.0938 -0.9569  0.9574
  462MOL0     H62332   9.454   0.772  10.121  1.6522 -2.5038  0.2825
  462MOL0     H62333   9.521   0.935  10.301  0.5143 -0.9756 -1.6350
  462MOL0     H62334   9.308   0.983  10.651  1.0993  0.7233 -0.4490
  462MOL0     H62335   9.383   0.831  10.722 -0.2386  0.7883  1.6196
  462MOL0     H62336   9.397   1.038  10.849  3.2944  0.9150  2.5941
  462MOL0     H62337   9.549   0.963  10.809 -1.0948 -0.8147  1.6215
  462MOL0     H62338   9.538   1.145  10.588  0.8452 -0.0448  0.3935
  462MOL0     H62339   9.467   1.227  10.722 -0.5466  2.8004 -6.7561
  462MOL0     H62340   9.736   1.060  10.709  2.6062  1.7127  0.5463
  462MOL0     H62341   9.695   1.141  10.867  0.4950  1.2886  0.9594
  462MOL0     H62342   9.695   1.360  10.762 -0.6287 -1.3775  1.5343
  462MOL0     H62343   9.755   1.276  10.609  0.5754  1.7934  0.0305
  462MOL0     H62344   9.902   1.293  10.878  2.0919  1.3864 -0.8618
  462MOL0     H62345   9.948   1.198  10.735  0.9212  2.1478 -3.8456
  462MOL0     H62346   9.905   1.498  10.756  0.6517 -0.5653  1.1697
  462MOL0     H62347   9.940   1.413  10.599  5.8773 -0.7326 -1.6903
  462MOL0     H62348  10.150   1.356  10.665  0.0407 -0.1678 -0.0687
  462MOL0     H62349  10.141   1.531  10.701  2.6117 -0.4384  0.7436
  462MOL0     H62350   9.339   0.653  10.592  0.0499 -1.0764 -0.1917
  462MOL0     H62351   9.293   0.504  10.416  1.1270  0.7591  1.1673
  462MOL0     H62352   9.635   0.354   9.938  1.1837 -1.8186  4.0792
  462MOL0     H62353   9.606   0.177   9.781 -0.7901  1.4410  0.3236
  462MOL0     H62354   7.867  -0.211   8.952  1.8857  1.7086  1.1531
  462MOL0     H62355   7.701  -0.202   8.780 -1.4846 -0.3231 -2.4998
  462MOL0     H62356   7.622  -0.150   8.322  1.6028  2.7056 -0.5679
  462MOL0     H62357   7.436  -0.200   8.151 -4.2618 -1.1568 -0.1940
  462MOL0     H62358   7.272  -0.225   8.011  0.2243  0.1506  0.7093
  462MOL0     H62359   7.332  -0.066   7.954 -1.0401  0.5866 -1.7912
  462MOL0     H62360   7.045  -0.138   7.976 -0.3328  1.4773  0.2476
  462MOL0     H62361   7.122  -0.152   7.818  2.0587 -0.7945  0.1867
  462MOL0     H62362   7.170   0.107   7.835 -0.1776 -0.4897 -0.8998
  462MOL0     H62363   7.078   0.096   7.985 -0.0968  0.4588 -0.2433
  462MOL0     H62364   6.980   0.076   7.697 -1.0285 -1.1023  0.0394
  462MOL0     H62365   6.884   0.002   7.834 -0.7899  0.3729  3.8950
  462MOL0     H62366   6.827   0.416   7.892 -0.4988  0.6458  2.0093
  462MOL0     H62367   7.209   0.106   8.338  1.6734  2.0343 -2.0247
  462MOL0     H62368   7.444   0.226   8.569 -1.5570  2.8483  0.0624
  462MOL0     H62369   7.277   0.226   8.507 -0.3439 -1.2685  0.3516
  462MOL0     H62370   7.322   0.106   8.623 -0.9088 -2.6178 -1.9401
  463MOL0     O62371   8.698   1.214   5.198 -1.0852  0.1802  0.2543
  463MOL0     C62372   8.718   1.303   5.116 -0.2680 -0.5956  0.2984
  463MOL0     O62373   8.836   1.366   5.087 -0.2301 -0.7239 -0.2075
  463MOL0     C62374   8.958   1.323   5.125 -0.6578 -0.4698 -0.0950
  463MOL0     C62375   9.068   1.364   5.049 -1.4250  0.3538 -0.3642
  463MOL0     C62376   9.193   1.340   5.109  0.2168  0.4525  0.0923
  463MOL0     C62377   9.223   1.258   5.217  0.4087  0.1958 -0.0912
  463MOL0     O62378   9.346   1.234   5.260  0.5787  0.1181 -0.5717
  463MOL0     C62379   9.378   1.346   5.340 -0.6280  0.6087 -0.9010
  463MOL0     C62380   9.430   1.476   5.262 -0.0200  0.1654  0.2458
  463MOL0     C62381   9.515   1.573   5.339 -0.0593  0.3376  1.0416
  463MOL0     C62382   9.434   1.641   5.447 -0.4157  0.1865 -0.8845
  463MOL0     C62383   9.524   1.721   5.542  0.0028 -0.2433  0.4317
  463MOL0     C62384   9.440   1.776   5.663 -0.0095  0.4896 -0.3476
  463MOL0     C62385   9.527   1.830   5.772 -0.0725  0.1464 -0.0001
  463MOL0     C62386   9.444   1.912   5.874  0.3955 -0.6282  0.0961
  463MOL0     N62387   9.464   1.865   6.014  0.2007 -0.0504  0.8672
  463MOL0     C62388   9.548   1.925   6.106 -0.1778  0.4902 -0.5133
  463MOL0     C62389   9.537   1.836   6.216  0.0406 -0.3270  0.2204
  463MOL0     C62390   9.597   1.856   6.350 -0.1957  0.4685 -0.0552
  463MOL0     C62391   9.718   1.761   6.373  0.4391  0.2739 -1.1417
  463MOL0     C62392   9.830   1.818   6.468  0.3421  0.6771  0.2481
  463MOL0     C62393   9.924   1.928   6.409 -0.3953  0.0780  0.1226
  463MOL0     O62394   9.834   2.028   6.347 -1.4287  0.0845 -0.1553
  463MOL0     C62395   9.897   2.142   6.302  1.0392 -0.5255  0.0392
  463MOL0     C62396  10.024   2.196   6.344  0.5831  0.0188  0.4098
  463MOL0     C62397  10.083   2.317   6.289  0.3338 -0.3566  0.0163
  463MOL0     C62398  10.017   2.364   6.172  0.1660 -0.0689  0.5818
  463MOL0     C62399  10.075   2.483   6.111  0.1897 -0.1418  0.8306
  463MOL0     O62400  10.169   2.547   6.174 -0.1824 -0.4600  0.5001
  463MOL0     C62401  10.210   2.669   6.122 -0.5350 -0.6179  0.8268
  463MOL0     C62402  10.338   2.686   6.100 -1.0347  0.4805 -0.3176
  463MOL0     C62403  10.388   2.803   6.040  0.4687 -0.9289  0.1714
  463MOL0     C62404  10.303   2.912   6.006 -0.4390  0.3049 -0.8618
  463MOL0     O62405  10.364   3.032   5.969 -0.2517  0.0832  0.4082
  463MOL0     C62406  10.325   3.152   6.025 -0.0605  0.1407 -0.7798
  463MOL0     C62407  10.346   3.145   6.176  0.4874  0.1364  0.2412
  463MOL0     C62408  10.488   3.093   6.220  0.7421 -0.9033 -0.3798
  463MOL0     C62409  10.597   3.168   6.148 -0.5085 -0.1086  0.2149
  463MOL0     C62410  10.738   3.136   6.201  0.4822 -0.6773  0.8372
  463MOL0     C62411  10.848   3.182   6.098 -0.4397 -0.8432  0.2212
  463MOL0     C62412  10.833   3.326   6.059  0.3951 -0.4370 -0.3502
  463MOL0     C62413  10.967   3.363   5.999  0.0060  0.5876  0.8420
  463MOL0    Cl62414  10.982   3.534   5.964 -0.5566  0.6043 -0.2425
  463MOL0     C62415  10.168   2.897   6.038 -0.5286 -0.7093 -0.0256
  463MOL0     C62416  10.123   2.777   6.102 -0.2046 -0.4106  0.1633
  463MOL0     O62417  10.037   2.511   5.990  0.1051  0.0807 -0.0090
  463MOL0     C62418   9.899   2.309   6.132  0.4249 -0.2451 -0.5739
  463MOL0     C62419   9.838   2.200   6.191  0.3614  0.2058  0.2644
  463MOL0     N62420   9.455   1.734   6.183 -0.1117 -0.4277 -0.0241
  463MOL0     N62421   9.406   1.756   6.060  0.3664 -0.2115 -0.0461
  463MOL0     C62422   9.115   1.200   5.281  0.0857 -0.1627 -0.3702
  463MOL0     C62423   8.985   1.244   5.242  0.1603 -0.3186  0.3596
  463MOL0     C62424   8.595   1.337   5.042 -0.6956 -0.3749  0.1665
  463MOL0     C62425   8.477   1.340   5.113  0.6046  0.5126 -0.4017
  463MOL0     C62426   8.350   1.367   5.059 -0.0397  0.3579  0.7144
  463MOL0     C62427   8.347   1.398   4.922 -0.0824  1.0684 -0.1569
  463MOL0     O62428   8.224   1.422   4.877  0.4445  0.0549  0.1542
  463MOL0     C62429   8.204   1.395   4.732 -0.5581  0.3604  0.5455
  463MOL0     C62430   8.067   1.434   4.686 -0.6667  0.2837 -0.0505
  463MOL0     C62431   7.952   1.340   4.729 -0.1140 -0.2588  0.7518
  463MOL0     C62432   7.815   1.386   4.685 -0.4307  0.1924  0.0382
  463MOL0     C62433   7.798   1.385   4.535 -0.4190  0.1576  0.0753
  463MOL0     C62434   7.800   1.403   4.410 -0.3884  0.6359 -0.3608
  463MOL0     C62435   8.465   1.409   4.854 -0.9543 -0.2130 -0.4516
  463MOL0     C62436   8.590   1.381   4.911 -0.0378  0.0423  0.1476
  463MOL0     C62437   8.713   1.393   4.829 -0.0031 -0.4133  0.9459
  463MOL0     H62438   9.055   1.431   4.965 -1.7024  0.5288 -0.1834
  463MOL0     H62439   9.276   1.396   5.066 -1.1440  1.8106 -0.8602
  463MOL0     H62440   9.292   1.377   5.401 -0.2522  2.0213 -1.0562
  463MOL0     H62441   9.470   1.325   5.396  1.6960  0.3601 -4.5252
  463MOL0     H62442   9.338   1.527   5.233 -0.8717 -0.7799  1.1988
  463MOL0     H62443   9.494   1.443   5.179 -2.0162 -1.3794 -0.7763
  463MOL0     H62444   9.553   1.645   5.266 -2.1774 -2.7827 -3.6398
  463MOL0     H62445   9.602   1.525   5.385  1.3454 -0.4427 -2.1805
  463MOL0     H62446   9.363   1.710   5.399 -0.5087  0.9219  0.2697
  463MOL0     H62447   9.380   1.567   5.506  3.6543 -1.4196  1.2146
  463MOL0     H62448   9.603   1.657   5.582  1.0699  0.6764 -0.1461
  463MOL0     H62449   9.570   1.804   5.487  0.3832  0.4714  1.8011
  463MOL0     H62450   9.372   1.855   5.632 -0.1092  1.2963  1.7795
  463MOL0     H62451   9.381   1.698   5.712  1.2846  0.5416  1.4287
  463MOL0     H62452   9.595   1.903   5.727 -1.4926  0.9438 -0.9462
  463MOL0     H62453   9.585   1.744   5.807 -1.5095 -0.9650 -0.2788
  463MOL0     H62454   9.478   2.016   5.878 -0.0589 -0.4293 -0.9823
  463MOL0     H62455   9.341   1.908   5.839  0.8658 -0.7579 -1.3422
  463MOL0     H62456   9.622   2.002   6.090 -0.8075  0.9678 -1.2356
  463MOL0     H62457   9.602   1.963   6.373 -1.1114  0.3555  0.7213
  463MOL0     H62458   9.509   1.832   6.410 -3.6176  2.7783 -3.6123
  463MOL0     H62459   9.682   1.677   6.432 -0.5211  1.3012 -0.2420
  463MOL0     H62460   9.758   1.721   6.279  0.3073 -2.4744 -0.1350
  463MOL0     H62461   9.890   1.736   6.509  2.3976  0.1874 -3.2680
  463MOL0     H62462   9.771   1.857   6.551 -0.2984 -1.9712  1.0985
  463MOL0     H62463   9.988   1.888   6.330 -0.7862  1.5423 -0.9691
  463MOL0     H62464   9.989   1.969   6.488 -0.0231  0.6591 -0.4792
  463MOL0     H62465  10.083   2.139   6.415  2.8362 -0.5920 -1.8024
  463MOL0     H62466  10.184   2.349   6.315  2.2435 -4.4270 -1.5849
  463MOL0     H62467  10.401   2.599   6.119 -3.7049 -2.2598 -2.9494
  463MOL0     H62468  10.494   2.810   6.019  0.6268 -1.1481  0.8712
  463MOL0     H62469  10.382   3.238   5.988 -0.9879  1.9519  1.7327
  463MOL0     H62470  10.226   3.179   5.986 -0.1954  2.1149  0.7568
  463MOL0     H62471  10.333   3.244   6.219  1.8122 -0.2577  1.6221
  463MOL0     H62472  10.270   3.079   6.220 -0.4528  0.1231 -1.3227
  463MOL0     H62473  10.499   3.105   6.328  0.7182 -2.0864 -0.2335
  463MOL0     H62474  10.505   2.987   6.201  1.0290 -0.5455 -2.3105
  463MOL0     H62475  10.579   3.275   6.162  2.8956  0.5087  0.8387
  463MOL0     H62476  10.591   3.147   6.040 -1.2484  3.1448 -0.4975
  463MOL0     H62477  10.754   3.029   6.218  0.6338 -0.3751  2.9770
  463MOL0     H62478  10.744   3.184   6.299 -1.7296  3.9097 -1.0018
  463MOL0     H62479  10.951   3.163   6.131  0.3907  0.9371 -1.1664
  463MOL0     H62480  10.827   3.124   6.007 -2.4313 -2.7056  1.7741
  463MOL0     H62481  10.803   3.392   6.141  3.7900 -1.3149  1.8311
  463MOL0     H62482  10.761   3.339   5.978 -1.8047  0.1782  1.5881
  463MOL0     H62483  11.048   3.338   6.067  0.5791 -4.3756 -1.2091
  463MOL0     H62484  10.986   3.305   5.908 -0.1070  0.6670  0.7663
  463MOL0     H62485  10.103   2.980   6.015 -0.4226 -0.2846  1.1163
  463MOL0     H62486  10.019   2.768   6.131 -0.5488 -0.3482 -1.0148
  463MOL0     H62487   9.840   2.357   6.054  1.2510  1.1536 -0.3641
  463MOL0     H62488   9.738   2.185   6.151  1.9390 -2.8048 -3.1310
  463MOL0     H62489   9.132   1.134   5.366 -0.4671 -0.6581 -0.6440
  463MOL0     H62490   8.896   1.205   5.290 -1.5001  1.2723 -1.2861
  463MOL0     H62491   8.485   1.307   5.217 -2.0041 -0.2119 -0.3601
  463MOL0     H62492   8.259   1.341   5.112  0.0723 -1.1396  0.2201
  463MOL0     H62493   8.218   1.289   4.707  0.3698 -0.0185  2.4975
  463MOL0     H62494   8.279   1.456   4.681  2.2681 -1.8061  1.8171
  463MOL0     H62495   8.069   1.440   4.577  1.4580 -1.1103 -0.1402
  463MOL0     H62496   8.052   1.531   4.736  2.9642  0.9238  0.0704
  463MOL0     H62497   7.948   1.304   4.832 -4.0754  0.3735  0.9617
  463MOL0     H62498   7.976   1.249   4.673  0.7550 -2.0532  3.7984
  463MOL0     H62499   7.735   1.320   4.721 -0.2162 -0.0775  0.0303
  463MOL0     H62500   7.802   1.486   4.727  0.4047  0.5692 -0.5882
  463MOL0     H62501   7.828   1.414   4.308  0.7953  1.7717  0.0611
  463MOL0     H62502   8.467   1.441   4.750  2.6077 -0.6350 -0.6312
  463MOL0     H62503   8.762   1.490   4.844 -0.0557  0.1234 -1.7282
  463MOL0     H62504   8.784   1.313   4.853 -1.3991 -1.1909  2.6880
  463MOL0     H62505   8.691   1.387   4.722  0.7453  0.2846  0.7399
  464MOL0     O62506   3.855  11.111   7.158 -0.3658  0.0089  0.5761
  464MOL0     C62507   3.806  11.046   7.073 -0.1868  0.4633  1.2605
  464MOL0     O62508   3.869  10.943   7.010  0.2250  0.8349 -0.3348
  464MOL0     C62509   3.990  10.903   7.073 -0.3739 -0.9422 -0.0704
  464MOL0     C62510   4.107  10.906   6.995  0.7847 -0.3445  0.5619
  464MOL0     C62511   4.227  10.842   7.027 -0.1168  0.2199  1.0814
  464MOL0     C62512   4.239  10.782   7.155  0.5188  0.7374  0.8211
  464MOL0     O62513   4.355  10.726   7.199  0.6176  0.4508  0.4258
  464MOL0     C62514   4.484  10.777   7.152 -0.5043 -0.5422  0.3612
  464MOL0     C62515   4.607  10.737   7.246 -0.4645 -0.8808  1.1627
  464MOL0     C62516   4.668  10.597   7.201  0.6349  0.4028  0.6548
  464MOL0     C62517   4.733  10.528   7.323  0.1574 -0.3292  0.6868
  464MOL0     C62518   4.834  10.616   7.411  0.0418 -0.3376  1.4623
  464MOL0     C62519   4.952  10.666   7.317 -1.6403 -0.1703 -0.4366
  464MOL0     C62520   5.055  10.746   7.393  0.6217 -0.3383  0.1371
  464MOL0     C62521   5.200  10.746   7.334  0.6491 -1.7753  0.1518
  464MOL0     N62522   5.220  10.818   7.207  0.7442 -0.3012 -0.5998
  464MOL0     C62523   5.306  10.926   7.182  0.6943 -0.6285  0.4263
  464MOL0     C62524   5.296  10.944   7.046 -0.7178 -0.4541  0.8382
  464MOL0     C62525   5.354  11.045   6.959  0.2845  0.7231 -0.0609
  464MOL0     C62526   5.515  11.042   6.973 -0.6758  0.2419 -0.3699
  464MOL0     C62527   5.596  11.090   6.850  0.0874 -0.6660  0.3714
  464MOL0     C62528   5.577  11.247   6.808 -0.4544  0.8387  0.2367
  464MOL0     O62529   5.650  11.320   6.899 -0.6558  0.2718 -0.0611
  464MOL0     C62530   5.785  11.355   6.877  0.3657  0.6256 -0.5747
  464MOL0     C62531   5.848  11.439   6.964 -0.2427  0.3021  0.0074
  464MOL0     C62532   5.983  11.465   6.962  0.2585  0.7613  0.8519
  464MOL0     C62533   6.059  11.403   6.865  0.2221  0.0062  0.5737
  464MOL0     C62534   6.200  11.423   6.846 -1.1248 -0.4487  0.1087
  464MOL0     O62535   6.263  11.497   6.941  0.4066  0.8137  0.1105
  464MOL0     C62536   6.395  11.535   6.963 -0.1269 -0.1704  0.2238
  464MOL0     C62537   6.429  11.662   7.027 -0.2410 -0.5255 -0.5039
  464MOL0     C62538   6.554  11.690   7.082 -0.3489  0.0948  0.0029
  464MOL0     C62539   6.662  11.603   7.052 -0.0041  0.0034  0.3679
  464MOL0     O62540   6.797  11.632   7.100  0.6034  0.7668 -0.3584
  464MOL0     C62541   6.899  11.530   7.108  0.5036  0.1088  0.3314
  464MOL0     C62542   7.036  11.587   7.136  0.8038  0.6435  0.0895
  464MOL0     C62543   7.086  11.689   7.039 -0.3026  0.0519 -0.0552
  464MOL0     C62544   7.220  11.738   7.076  0.9122  0.5128 -0.3779
  464MOL0     C62545   7.226  11.840   7.190 -0.2055  0.1204  0.0754
  464MOL0     C62546   7.352  11.931   7.173 -0.8060  0.2249 -0.3732
  464MOL0     C62547   7.482  11.870   7.111  0.2955 -0.3578 -0.3958
  464MOL0     C62548   7.556  11.781   7.209  0.5977 -1.0802 -0.3563
  464MOL0    Cl62549   7.616  11.885   7.345 -0.0345 -0.2312 -0.0565
  464MOL0     C62550   6.626  11.486   6.981 -0.3421  0.5240 -0.2928
  464MOL0     C62551   6.496  11.440   6.946  0.2144 -1.1105  0.5948
  464MOL0     O62552   6.259  11.383   6.750 -0.1668 -0.4554  0.1743
  464MOL0     C62553   5.996  11.333   6.771 -0.3615 -0.6475 -0.4431
  464MOL0     C62554   5.861  11.300   6.774  0.1940  0.0541 -1.2473
  464MOL0     N62555   5.226  10.836   6.996  0.5386  0.6866  0.8078
  464MOL0     N62556   5.177  10.765   7.089 -0.7243 -0.7058 -0.3075
  464MOL0     C62557   4.127  10.774   7.240  0.4121 -0.4032 -0.0509
  464MOL0     C62558   4.006  10.842   7.208  0.3780  0.2645  0.8572
  464MOL0     C62559   3.671  11.082   7.020  0.5757  0.3208  0.4315
  464MOL0     C62560   3.599  10.972   6.964  0.9786 -0.6900  0.2919
  464MOL0     C62561   3.463  10.984   6.905 -0.2736  0.6365 -1.3069
  464MOL0     C62562   3.402  11.113   6.896  0.2867  0.5826 -0.0961
  464MOL0     O62563   3.280  11.120   6.834 -0.2373 -0.4311 -0.0642
  464MOL0     C62564   3.200  11.240   6.847 -0.5993  0.1914 -0.2344
  464MOL0     C62565   3.058  11.216   6.823  0.8783 -0.2050 -1.0829
  464MOL0     C62566   2.994  11.130   6.931  0.3083 -0.5473 -0.0735
  464MOL0     C62567   2.945  11.218   7.051  0.8934  0.4457 -0.5254
  464MOL0     C62568   2.855  11.143   7.147 -0.9861 -0.4010  0.7082
  464MOL0     C62569   2.781  11.092   7.226  0.3914 -0.7404 -0.0002
  464MOL0     C62570   3.474  11.216   6.951 -0.5305  0.1656  0.0410
  464MOL0     C62571   3.600  11.205   7.017 -0.0136 -0.1171 -0.0606
  464MOL0     C62572   3.651  11.329   7.084  0.4413  0.0532 -0.1520
  464MOL0     H62573   4.077  10.956   6.904  0.1250 -0.7347  0.5560
  464MOL0     H62574   4.313  10.835   6.961 -0.1564  0.1409  1.0377
  464MOL0     H62575   4.506  10.736   7.053 -0.0951 -1.1559  0.7027
  464MOL0     H62576   4.468  10.885   7.144 -1.2914 -0.6493  0.4346
  464MOL0     H62577   4.579  10.734   7.352 -0.1211 -2.2740  1.2340
  464MOL0     H62578   4.686  10.812   7.233 -0.9835 -0.7031 -1.6149
  464MOL0     H62579   4.735  10.616   7.117 -0.1531  2.5214  0.4387
  464MOL0     H62580   4.586  10.528   7.180  0.0672  0.2184  3.1689
  464MOL0     H62581   4.659  10.521   7.403  1.3000 -1.5674  1.6767
  464MOL0     H62582   4.775  10.428   7.305  1.1654  0.1877  0.0634
  464MOL0     H62583   4.786  10.708   7.446  0.1352  1.1714 -1.9532
  464MOL0     H62584   4.880  10.559   7.492 -1.2020  0.2904  2.6515
  464MOL0     H62585   4.996  10.581   7.263 -3.4154 -3.2420  2.5264
  464MOL0     H62586   4.914  10.730   7.237  1.2540 -0.6388 -2.3452
  464MOL0     H62587   5.071  10.691   7.486 -0.4511  1.3666  1.3757
  464MOL0     H62588   5.017  10.846   7.415  1.9829  0.3614 -0.5610
  464MOL0     H62589   5.267  10.785   7.411 -1.5704 -0.4863  1.5468
  464MOL0     H62590   5.231  10.645   7.307 -0.9545 -1.6077 -2.7069
  464MOL0     H62591   5.346  10.997   7.253  1.2705 -0.0155 -0.4957
  464MOL0     H62592   5.333  11.029   6.853  1.8848 -0.8570 -0.1972
  464MOL0     H62593   5.323  11.147   6.985  0.7364  0.5028  1.4922
  464MOL0     H62594   5.539  11.121   7.044 -0.7072 -0.4858  0.4669
  464MOL0     H62595   5.561  10.950   7.011  1.4019  2.0396  1.7995
  464MOL0     H62596   5.560  11.024   6.771  0.2205 -1.1970  0.7538
  464MOL0     H62597   5.702  11.079   6.875  0.1899  2.2918  1.7586
  464MOL0     H62598   5.475  11.285   6.802 -1.2253 -1.1898 -0.2678
  464MOL0     H62599   5.610  11.261   6.704 -1.0905  1.6183  0.1327
  464MOL0     H62600   5.798  11.492   7.045 -1.7129  1.5924 -1.6390
  464MOL0     H62601   6.018  11.532   7.039 -3.4392  1.8193  1.7936
  464MOL0     H62602   6.339  11.724   7.028  0.3255  0.3228  1.3799
  464MOL0     H62603   6.571  11.789   7.124  1.1329 -1.7325  4.2018
  464MOL0     H62604   6.875  11.469   7.195 -1.6331 -1.7136 -1.4143
  464MOL0     H62605   6.902  11.469   7.017  0.9619 -0.1668  0.5236
  464MOL0     H62606   7.027  11.629   7.237  0.6091 -0.1752  0.4241
  464MOL0     H62607   7.102  11.500   7.130  1.5894  1.1832  0.7574
  464MOL0     H62608   7.080  11.640   6.942  0.3194 -1.2958  0.5501
  464MOL0     H62609   7.020  11.775   7.027  0.7792  1.0984  1.1747
  464MOL0     H62610   7.261  11.781   6.984 -1.4015  1.2329 -1.1626
  464MOL0     H62611   7.282  11.653   7.103 -1.8081 -1.6340 -0.4556
  464MOL0     H62612   7.221  11.798   7.291 -0.1878 -0.4294 -0.1521
  464MOL0     H62613   7.143  11.911   7.180  1.8673  2.5711 -0.9617
  464MOL0     H62614   7.326  12.000   7.092 -1.6234  1.0408  0.5535
  464MOL0     H62615   7.366  11.995   7.261  2.7238  2.0254 -2.0400
  464MOL0     H62616   7.548  11.952   7.079 -0.7728  0.3028 -0.9700
  464MOL0     H62617   7.453  11.817   7.019 -1.4116  0.4022 -0.3299
  464MOL0     H62618   7.486  11.704   7.244  2.1360 -1.8771  1.1539
  464MOL0     H62619   7.637  11.740   7.149 -0.0697  2.0156 -3.7160
  464MOL0     H62620   6.707  11.420   6.950 -2.1493 -1.8850 -0.2279
  464MOL0     H62621   6.476  11.341   6.906  0.0373 -0.1097 -2.0487
  464MOL0     H62622   6.061  11.291   6.694  0.6456  1.3888 -0.7688
  464MOL0     H62623   5.824  11.240   6.692 -1.1870  0.1666 -0.7367
  464MOL0     H62624   4.142  10.734   7.340  1.9382  0.0763 -0.0658
  464MOL0     H62625   3.914  10.859   7.264 -0.6314  3.4194 -1.4672
  464MOL0     H62626   3.643  10.876   6.939 -1.5009 -1.2762 -2.4161
  464MOL0     H62627   3.412  10.903   6.855 -0.9562 -0.5559  1.1766
  464MOL0     H62628   3.238  11.313   6.775 -0.1700 -0.5024 -0.7283
  464MOL0     H62629   3.212  11.287   6.945 -2.0761  2.3015 -0.9953
  464MOL0     H62630   3.045  11.172   6.724 -0.6140 -0.2231 -0.9013
  464MOL0     H62631   3.016  11.316   6.811 -0.0019 -0.2701  0.9935
  464MOL0     H62632   3.069  11.062   6.971  0.4586 -1.8977 -2.4589
  464MOL0     H62633   2.919  11.069   6.879  0.8610 -1.7371  0.4908
  464MOL0     H62634   3.034  11.256   7.102  2.0563 -1.3999 -1.0787
  464MOL0     H62635   2.898  11.311   7.016 -2.4933  1.5344  5.6325
  464MOL0     H62636   2.712  11.060   7.302  0.4115  0.7273  0.6715
  464MOL0     H62637   3.428  11.315   6.953  0.3910  0.5996  0.0777
  464MOL0     H62638   3.602  11.422   7.053  1.4706  0.7401  0.2359
  464MOL0     H62639   3.627  11.331   7.190 -1.1520  2.8835 -0.4590
  464MOL0     H62640   3.760  11.342   7.081  0.5366 -0.2771  1.2927
  465MOL0     O62641   8.060   9.006   5.115  0.0006  0.1955 -0.1183
  465MOL0     C62642   7.997   9.045   5.221  0.9154  0.3763  0.9752
  465MOL0     O62643   8.057   9.080   5.338  0.0794  0.1731 -0.0368
  465MOL0     C62644   8.180   9.129   5.338 -1.0452 -0.6546  0.0508
  465MOL0     C62645   8.252   9.183   5.227 -0.8667 -0.6566 -0.1653
  465MOL0     C62646   8.381   9.244   5.241  0.2459 -0.1755 -0.1370
  465MOL0     C62647   8.444   9.239   5.368 -0.5013 -0.5472  0.0084
  465MOL0     O62648   8.571   9.297   5.387 -0.3154 -0.1698  0.6030
  465MOL0     C62649   8.662   9.338   5.278  0.5875 -0.3508  0.3034
  465MOL0     C62650   8.778   9.404   5.342 -0.6727 -0.0283  0.2109
  465MOL0     C62651   8.897   9.464   5.262  0.6455  0.2158 -0.2890
  465MOL0     C62652   8.844   9.574   5.163 -0.8351  0.1209  0.0465
  465MOL0     C62653   8.959   9.643   5.096  0.2914 -0.5039  0.1402
  465MOL0     C62654   8.904   9.728   4.985  0.0969  0.6657 -0.4835
  465MOL0     C62655   9.012   9.817   4.938 -0.3034  0.8313 -0.1013
  465MOL0     C62656   8.967   9.898   4.819  0.1282 -0.6319  0.0300
  465MOL0     N62657   9.067  10.002   4.794 -0.4363 -0.0521 -0.0258
  465MOL0     C62658   9.141  10.082   4.884  0.1950 -0.6949 -0.1239
  465MOL0     C62659   9.207  10.165   4.801  0.2823 -0.3098 -0.7192
  465MOL0     C62660   9.298  10.269   4.851 -0.1774 -0.5191 -0.8015
  465MOL0     C62661   9.251  10.414   4.826 -0.3606 -0.9989  0.7237
  465MOL0     C62662   9.261  10.446   4.675 -0.4026 -0.0935 -0.1997
  465MOL0     C62663   9.406  10.439   4.622  0.1629 -0.4276  0.5071
  465MOL0     O62664   9.495  10.534   4.672  0.1887 -0.2758 -0.3079
  465MOL0     C62665   9.619  10.545   4.619  0.5393  0.2492 -0.1424
  465MOL0     C62666   9.694  10.661   4.653  0.4472  0.7480 -0.2952
  465MOL0     C62667   9.819  10.684   4.600  0.1233  0.3275  0.2912
  465MOL0     C62668   9.874  10.598   4.512  0.0438  0.3959  0.1462
  465MOL0     C62669  10.005  10.610   4.455  0.1656 -0.8747 -0.0641
  465MOL0     O62670  10.039  10.512   4.376  0.3247 -0.1986  0.1690
  465MOL0     C62671  10.167  10.523   4.323 -0.1382  0.2657  0.5623
  465MOL0     C62672  10.278  10.483   4.398  0.9283  0.1678 -0.2910
  465MOL0     C62673  10.409  10.496   4.353  0.1947  0.2829  0.2820
  465MOL0     C62674  10.431  10.565   4.230  1.1865  0.9020  0.5042
  465MOL0     O62675  10.557  10.589   4.195  0.4847 -0.3864  0.7211
  465MOL0     C62676  10.595  10.619   4.055  0.4678 -0.2678 -0.1194
  465MOL0     C62677  10.742  10.597   4.034 -0.6943 -0.0969  0.7617
  465MOL0     C62678  10.788  10.452   4.026  0.3417  0.3342  0.5689
  465MOL0     C62679  10.759  10.395   3.883  0.9939 -0.1691  0.0029
  465MOL0     C62680  10.721  10.244   3.890 -0.4131 -0.0307 -0.7152
  465MOL0     C62681  10.732  10.174   3.756 -0.5376  0.6563  0.6058
  465MOL0     C62682  10.622  10.209   3.659  0.5718 -0.2396 -0.0618
  465MOL0     C62683  10.661  10.287   3.532  0.6104  0.0512 -0.2503
  465MOL0    Cl62684  10.776  10.424   3.569  0.3502  0.4322  0.6314
  465MOL0     C62685  10.319  10.610   4.160  0.8591  0.2538  0.2730
  465MOL0     C62686  10.186  10.587   4.200 -0.2803  0.5822  0.3185
  465MOL0     O62687  10.058  10.720   4.455 -0.0559  0.2025  0.0706
  465MOL0     C62688   9.800  10.485   4.473 -0.0095 -0.9323 -0.0601
  465MOL0     C62689   9.679  10.455   4.535 -0.1884 -0.5757 -0.3154
  465MOL0     N62690   9.182  10.125   4.667  0.7754 -0.8956 -0.2313
  465MOL0     N62691   9.092  10.034   4.669  0.4784 -0.2694  0.6069
  465MOL0     C62692   8.373   9.192   5.479 -0.3945  0.2022  0.2590
  465MOL0     C62693   8.248   9.137   5.461  0.1522  0.8008  0.6959
  465MOL0     C62694   7.850   9.033   5.218  0.3501 -0.4792 -0.2446
  465MOL0     C62695   7.779   9.030   5.353 -0.9439 -0.2953  0.8431
  465MOL0     C62696   7.645   9.022   5.373  1.0387 -0.0533 -0.3029
  465MOL0     C62697   7.557   9.019   5.263  0.0030  0.6590 -0.0616
  465MOL0     O62698   7.422   9.000   5.280  0.4833  0.0881 -0.0464
  465MOL0     C62699   7.359   9.073   5.383 -0.0002 -0.1556  0.5411
  465MOL0     C62700   7.211   9.090   5.326 -0.0802 -0.0253  1.0109
  465MOL0     C62701   7.130   9.178   5.421  0.4307 -0.2360 -0.5871
  465MOL0     C62702   6.999   9.236   5.360  0.3140  0.1819  0.6282
  465MOL0     C62703   6.909   9.137   5.292 -0.0641 -0.4435  0.1620
  465MOL0     C62704   6.838   9.063   5.223  0.0221  0.7891 -0.4468
  465MOL0     C62705   7.616   9.009   5.140 -0.4462 -1.1020  0.0559
  465MOL0     C62706   7.760   9.015   5.110  0.1797 -0.8120 -0.1287
  465MOL0     C62707   7.810   9.014   4.971  0.7148  0.0393  0.1659
  465MOL0     H62708   8.215   9.195   5.126 -2.0309 -0.5051  0.2634
  465MOL0     H62709   8.431   9.282   5.153  0.7769 -0.1919  0.1550
  465MOL0     H62710   8.691   9.261   5.206  2.2249  1.9333 -1.6412
  465MOL0     H62711   8.623   9.420   5.216 -0.1607 -1.3037 -0.5371
  465MOL0     H62712   8.816   9.321   5.401  2.1901 -0.7462 -2.3506
  465MOL0     H62713   8.728   9.473   5.411 -0.4586  0.5782 -0.2239
  465MOL0     H62714   8.937   9.376   5.211  1.3020 -1.0621  2.2354
  465MOL0     H62715   8.972   9.507   5.330 -0.0936 -0.1243  0.7701
  465MOL0     H62716   8.786   9.521   5.087  0.9292 -1.6974 -0.1281
  465MOL0     H62717   8.776   9.647   5.209  1.8562  2.1266  1.0635
  465MOL0     H62718   9.005   9.716   5.164 -1.6308 -1.2729  2.4223
  465MOL0     H62719   9.037   9.573   5.066  1.6428 -0.0933  2.4804
  465MOL0     H62720   8.864   9.667   4.903 -2.1197  1.3568  0.0262
  465MOL0     H62721   8.818   9.791   5.011  0.5093  0.9733  0.1401
  465MOL0     H62722   9.107   9.763   4.927 -1.7243 -2.0531  0.9115
  465MOL0     H62723   9.034   9.888   5.019 -1.6237  0.4088  0.6540
  465MOL0     H62724   8.949   9.839   4.728 -4.6148  0.1414  0.1891
  465MOL0     H62725   8.870   9.946   4.833  0.0666  0.3854 -3.0386
  465MOL0     H62726   9.131  10.064   4.991  0.0215 -1.3057 -0.2398
  465MOL0     H62727   9.324  10.271   4.957 -0.0671  0.5187 -0.8331
  465MOL0     H62728   9.397  10.253   4.808 -0.3615 -0.3614 -1.2981
  465MOL0     H62729   9.147  10.421   4.860  0.1280 -1.8445  2.4730
  465MOL0     H62730   9.308  10.489   4.881  0.7408 -2.0167  1.0202
  465MOL0     H62731   9.235  10.551   4.662 -0.9271 -0.3711 -1.5268
  465MOL0     H62732   9.193  10.389   4.612 -0.4103 -0.9804  0.5755
  465MOL0     H62733   9.401  10.448   4.513  0.3273  1.9121  0.6319
  465MOL0     H62734   9.455  10.342   4.636  2.2350  0.2404 -1.3521
  465MOL0     H62735   9.644  10.729   4.720 -2.3519 -1.1269 -0.2900
  465MOL0     H62736   9.872  10.767   4.645  0.2934 -0.3466  1.3784
  465MOL0     H62737  10.273  10.434   4.494  0.1245  0.3861 -0.2147
  465MOL0     H62738  10.498  10.468   4.407 -0.3403  2.1133  2.2345
  465MOL0     H62739  10.529  10.580   3.978 -1.4327  1.1495  0.7103
  465MOL0     H62740  10.582  10.727   4.043  0.7387 -0.0742  1.1341
  465MOL0     H62741  10.776  10.651   3.944  1.1624 -0.1286  1.3938
  465MOL0     H62742  10.778  10.648   4.124 -0.9676  2.2030 -0.3405
  465MOL0     H62743  10.894  10.439   4.049  0.4640  0.9228  0.3519
  465MOL0     H62744  10.733  10.393   4.100 -0.9803  1.0669  0.1924
  465MOL0     H62745  10.839  10.420   3.812 -2.5973 -0.0302 -4.3980
  465MOL0     H62746  10.678  10.451   3.836  0.6678  0.0048  0.7605
  465MOL0     H62747  10.623  10.226   3.934 -0.7570 -2.1200 -2.1950
  465MOL0     H62748  10.803  10.207   3.952 -0.5108 -0.1971 -0.6876
  465MOL0     H62749  10.832  10.194   3.715 -1.2729  1.2629 -0.9868
  465MOL0     H62750  10.725  10.065   3.768  1.9944  0.1893 -1.3580
  465MOL0     H62751  10.548  10.264   3.718  1.4314  2.4032 -1.3252
  465MOL0     H62752  10.571  10.118   3.624 -2.1002  0.4887  1.5979
  465MOL0     H62753  10.705  10.219   3.459  1.9140  0.1194  0.4371
  465MOL0     H62754  10.568  10.332   3.496 -0.3346 -0.0339  1.9333
  465MOL0     H62755  10.342  10.659   4.066 -0.7739 -0.2391 -0.4068
  465MOL0     H62756  10.100  10.625   4.146 -0.3631  0.1917  0.1708
  465MOL0     H62757   9.838  10.406   4.409  0.2012 -0.0951 -0.9992
  465MOL0     H62758   9.637  10.359   4.508  0.0122 -1.4457  2.2119
  465MOL0     H62759   8.409   9.180   5.581 -1.4405 -0.7071  0.5435
  465MOL0     H62760   8.198   9.090   5.545 -0.8950 -0.6667 -0.7024
  465MOL0     H62761   7.843   9.036   5.441  1.7988  0.3811 -1.0587
  465MOL0     H62762   7.607   9.018   5.474  1.7756 -2.7262 -0.0658
  465MOL0     H62763   7.412   9.166   5.404 -0.9359  1.2859 -2.7186
  465MOL0     H62764   7.361   9.008   5.470  1.1355 -1.4729 -0.4243
  465MOL0     H62765   7.163   8.993   5.310 -2.2892  1.2974 -1.0902
  465MOL0     H62766   7.209   9.139   5.228 -0.4128  0.2506  1.1516
  465MOL0     H62767   7.188   9.262   5.459  0.4538  1.4942 -4.0694
  465MOL0     H62768   7.121   9.124   5.516  0.2136 -0.3008 -0.6432
  465MOL0     H62769   6.949   9.281   5.447  0.2396 -0.3592  0.8674
  465MOL0     H62770   7.028   9.320   5.296  0.7521 -2.2063 -2.4967
  465MOL0     H62771   6.776   8.994   5.170  0.4535  0.5496 -0.6479
  465MOL0     H62772   7.561   9.009   5.046  0.9072  0.0536 -0.7906
  465MOL0     H62773   7.817   8.907   4.951 -2.1229 -0.0997 -0.5391
  465MOL0     H62774   7.738   9.052   4.899  0.9568 -0.3183 -0.2721
  465MOL0     H62775   7.901   9.073   4.960 -0.7163  2.5081  0.8308
  466MOL0     O62776   9.876   6.610  11.200  0.2407  0.7268  0.7536
  466MOL0     C62777   9.915   6.588  11.316 -0.6811  0.0475 -0.1497
  466MOL0     O62778  10.044   6.603  11.353 -0.1914  0.9072  0.4202
  466MOL0     C62779  10.141   6.538  11.276 -0.6682  0.4204 -0.4760
  466MOL0     C62780  10.260   6.551  11.342 -0.4051 -0.7572 -0.0480
  466MOL0     C62781  10.378   6.512  11.273  0.4071  0.7033 -0.6703
  466MOL0     C62782  10.374   6.433  11.156  0.4527 -1.3468 -0.3712
  466MOL0     O62783  10.473   6.374  11.088  0.1837  0.0251 -0.0523
  466MOL0     C62784  10.600   6.364  11.141 -0.1854  0.4310  0.8868
  466MOL0     C62785  10.687   6.272  11.049 -0.5803  0.2672 -0.2134
  466MOL0     C62786  10.672   6.280  10.892  1.2763  0.8851 -0.2931
  466MOL0     C62787  10.697   6.420  10.848  0.1436  0.0847 -0.1474
  466MOL0     C62788  10.807   6.502  10.907 -0.3352  0.0535  0.0179
  466MOL0     C62789  10.818   6.650  10.864 -0.8500 -0.8769 -0.5126
  466MOL0     C62790  10.732   6.748  10.956  0.3952  0.7677  0.5102
  466MOL0     C62791  10.586   6.746  10.923  0.8987 -0.0456  0.0208
  466MOL0     N62792  10.511   6.845  10.988  0.3342  0.4146 -0.6354
  466MOL0     C62793  10.392   6.818  11.062 -0.9010  0.1782  0.3344
  466MOL0     C62794  10.349   6.934  11.106 -1.0331 -0.0857 -0.4223
  466MOL0     C62795  10.242   6.948  11.213 -0.5449  0.0693  0.0493
  466MOL0     C62796  10.129   7.035  11.158 -0.9899  0.1506 -0.3582
  466MOL0     C62797  10.022   7.077  11.260  0.1803  0.0210 -0.3190
  466MOL0     C62798   9.981   6.982  11.373 -0.3412 -0.0628 -0.0793
  466MOL0     O62799   9.899   7.039  11.474 -0.8815  0.2261  1.0677
  466MOL0     C62800   9.848   6.950  11.565  0.6283  0.1753 -0.2718
  466MOL0     C62801   9.894   6.819  11.580 -0.8528  0.5457 -0.0880
  466MOL0     C62802   9.852   6.744  11.695  0.9907 -0.1914  0.1296
  466MOL0     C62803   9.760   6.796  11.784 -0.1323 -1.0386  0.4880
  466MOL0     C62804   9.723   6.733  11.905 -0.2378  1.2999  0.0667
  466MOL0     O62805   9.810   6.634  11.943  0.6477  0.6387  0.4244
  466MOL0     C62806   9.783   6.565  12.059 -0.4505  0.8224 -0.0571
  466MOL0     C62807   9.816   6.617  12.181  0.3113  0.0033 -0.6133
  466MOL0     C62808   9.808   6.543  12.299 -0.5263 -0.5606  0.8030
  466MOL0     C62809   9.748   6.418  12.296 -0.4516  0.2624  0.5622
  466MOL0     O62810   9.718   6.345  12.401  0.5546 -0.2740 -0.0950
  466MOL0     C62811   9.725   6.399  12.535 -0.0229  0.2837  0.2699
  466MOL0     C62812   9.688   6.297  12.636 -0.5244  0.2873  0.0726
  466MOL0     C62813   9.626   6.359  12.761  0.4126 -0.7257 -0.3737
  466MOL0     C62814   9.641   6.257  12.877 -0.0706 -0.0766  0.5645
  466MOL0     C62815   9.607   6.311  13.008 -1.0570  0.3128 -0.2435
  466MOL0     C62816   9.734   6.361  13.087  0.0276  0.0976 -0.1370
  466MOL0     C62817   9.707   6.401  13.228  0.3938  0.0065 -0.4412
  466MOL0     C62818   9.800   6.504  13.279 -0.6105  0.3154 -0.6606
  466MOL0    Cl62819   9.822   6.485  13.451 -0.3090 -0.7105 -0.4334
  466MOL0     C62820   9.709   6.356  12.175  0.8938 -0.2661 -0.0302
  466MOL0     C62821   9.722   6.435  12.064 -0.0602 -0.7900 -0.0684
  466MOL0     O62822   9.613   6.754  11.954  0.0568  0.5921 -0.0722
  466MOL0     C62823   9.697   6.919  11.756 -0.0453  0.1759  0.0809
  466MOL0     C62824   9.757   7.000  11.660  0.1356 -0.4856  0.0258
  466MOL0     N62825  10.433   7.030  11.046 -0.3479 -0.0785  0.3225
  466MOL0     N62826  10.529   6.980  10.977 -0.5459 -0.3885  0.0948
  466MOL0     C62827  10.252   6.413  11.103  0.8048  0.8749  0.3503
  466MOL0     C62828  10.139   6.467  11.156  0.4616  0.0649 -0.0615
  466MOL0     C62829   9.816   6.541  11.406  1.0509  0.8419  0.0272
  466MOL0     C62830   9.852   6.455  11.505 -0.0302  0.6301  0.1336
  466MOL0     C62831   9.758   6.415  11.607 -0.6541 -0.4362  0.0378
  466MOL0     C62832   9.631   6.463  11.612  0.8850  0.1615  0.4145
  466MOL0     O62833   9.548   6.422  11.705 -1.0935 -0.1369  0.1712
  466MOL0     C62834   9.402   6.449  11.704 -0.9921 -0.4028  0.0471
  466MOL0     C62835   9.374   6.445  11.850  0.0767  0.4293 -0.3484
  466MOL0     C62836   9.391   6.302  11.915  0.6668 -0.2110  0.6297
  466MOL0     C62837   9.272   6.210  11.884 -0.8338  0.4873  0.2631
  466MOL0     C62838   9.311   6.067  11.891  0.5785 -0.3776 -0.4445
  466MOL0     C62839   9.333   5.952  11.897 -0.6656 -0.0910 -0.3692
  466MOL0     C62840   9.590   6.552  11.518 -1.0348  0.6173  0.3185
  466MOL0     C62841   9.677   6.589  11.409  0.3707  0.8401 -0.7608
  466MOL0     C62842   9.624   6.711  11.337  0.3159 -0.7480  0.1633
  466MOL0     H62843  10.253   6.583  11.445  2.6793  0.9217 -0.2613
  466MOL0     H62844  10.474   6.537  11.318  1.0843 -0.5655 -1.3492
  466MOL0     H62845  10.646   6.462  11.156  0.0624  0.7284 -1.4145
  466MOL0     H62846  10.594   6.307  11.235 -0.0765 -3.7730 -1.4206
  466MOL0     H62847  10.670   6.169  11.081  3.3256 -0.2071  0.9477
  466MOL0     H62848  10.792   6.287  11.078 -0.3281 -3.0685  1.1437
  466MOL0     H62849  10.578   6.236  10.858  1.7328 -1.6404  1.3830
  466MOL0     H62850  10.742   6.211  10.843 -0.5511 -1.4994  0.2571
  466MOL0     H62851  10.736   6.410  10.746  2.7070  1.7986  0.5555
  466MOL0     H62852  10.608   6.482  10.858  1.3281  1.7918  0.3665
  466MOL0     H62853  10.806   6.509  11.016  1.3203  1.3550 -0.0146
  466MOL0     H62854  10.903   6.461  10.874 -1.6668 -2.0636 -1.5742
  466MOL0     H62855  10.921   6.687  10.867 -0.8941 -0.8126  0.9838
  466MOL0     H62856  10.789   6.659  10.759  0.4102  3.1030 -0.6709
  466MOL0     H62857  10.756   6.853  10.937 -0.8997  1.1055  0.6447
  466MOL0     H62858  10.742   6.725  11.062  1.5127 -1.0049  0.0747
  466MOL0     H62859  10.567   6.757  10.815 -1.9352  2.8935  0.6772
  466MOL0     H62860  10.554   6.650  10.966 -1.7285  0.4429 -0.6251
  466MOL0     H62861  10.352   6.719  11.078  1.4106 -0.4356  3.2288
  466MOL0     H62862  10.204   6.850  11.242  1.0142  0.1219  2.5625
  466MOL0     H62863  10.290   6.991  11.302 -2.6361  2.3142  0.1958
  466MOL0     H62864  10.162   7.124  11.103 -2.8784  0.9017 -0.3666
  466MOL0     H62865  10.079   6.977  11.079  4.0404 -1.9923 -2.3880
  466MOL0     H62866   9.933   7.107  11.204  1.3132  0.2337 -2.0679
  466MOL0     H62867  10.063   7.160  11.319  4.2188 -1.9606 -0.0301
  466MOL0     H62868  10.074   6.942  11.414  0.8970  1.4429 -1.3205
  466MOL0     H62869   9.927   6.902  11.322 -1.8309  1.8469 -1.6470
  466MOL0     H62870   9.972   6.769  11.524 -0.0011 -0.4428  1.9178
  466MOL0     H62871   9.886   6.641  11.700  0.2549 -0.5534 -1.5268
  466MOL0     H62872   9.843   6.721  12.193 -1.0063  0.0100  3.9200
  466MOL0     H62873   9.830   6.597  12.391  2.0219  1.8205 -1.0129
  466MOL0     H62874   9.820   6.438  12.574  0.0118 -1.1409  1.7423
  466MOL0     H62875   9.654   6.481  12.542  0.3275  0.6119  0.0407
  466MOL0     H62876   9.626   6.227  12.578 -1.5320  1.9015 -0.8845
  466MOL0     H62877   9.780   6.243  12.662  0.1241  1.1084 -0.4774
  466MOL0     H62878   9.674   6.456  12.778 -0.5861 -0.2112 -0.4374
  466MOL0     H62879   9.520   6.383  12.747  0.6248  0.2107 -0.4490
  466MOL0     H62880   9.741   6.214  12.887  0.0409 -0.0437 -0.2915
  466MOL0     H62881   9.584   6.165  12.864 -0.6704  0.4691 -0.8835
  466MOL0     H62882   9.565   6.236  13.076  1.6953  2.3864  4.2013
  466MOL0     H62883   9.543   6.397  12.987 -0.6099  0.7932  0.3584
  466MOL0     H62884   9.820   6.293  13.078 -1.6869 -1.9949 -1.7171
  466MOL0     H62885   9.787   6.445  13.042  3.2269 -1.6999 -0.0533
  466MOL0     H62886   9.714   6.313  13.293  0.7298  0.6827  0.4531
  466MOL0     H62887   9.609   6.446  13.245  1.2758  0.8616  3.0213
  466MOL0     H62888   9.905   6.483  13.257 -0.6430 -0.1446 -0.3983
  466MOL0     H62889   9.774   6.608  13.260 -1.4852  0.4707  1.1440
  466MOL0     H62890   9.675   6.252  12.176  1.8425 -0.7881  4.6472
  466MOL0     H62891   9.678   6.389  11.976 -2.0781 -0.4106  0.6909
  466MOL0     H62892   9.618   6.948  11.826 -1.1369 -1.9575 -0.1781
  466MOL0     H62893   9.721   7.102  11.656  1.3637 -0.0625 -0.6480
  466MOL0     H62894  10.244   6.368  11.005 -0.0854  2.2301 -0.2194
  466MOL0     H62895  10.050   6.462  11.094  0.2196 -1.9524  0.3635
  466MOL0     H62896   9.952   6.414  11.515 -0.5045 -0.2264  1.9692
  466MOL0     H62897   9.792   6.353  11.689  3.1293 -0.9972 -1.7291
  466MOL0     H62898   9.336   6.371  11.665  0.5942 -1.6202 -0.2900
  466MOL0     H62899   9.372   6.547  11.665 -0.2391  0.9861  2.6891
  466MOL0     H62900   9.279   6.488  11.884 -0.1544  1.0553 -1.7080
  466MOL0     H62901   9.444   6.513  11.901  1.3626 -0.4089 -0.9337
  466MOL0     H62902   9.393   6.311  12.024  0.5712 -0.6372  0.6709
  466MOL0     H62903   9.492   6.264  11.901  0.8816  0.7605 -0.6233
  466MOL0     H62904   9.216   6.237  11.974  0.4948 -0.8701  1.5607
  466MOL0     H62905   9.229   6.230  11.785 -1.0835 -4.1876 -0.7804
  466MOL0     H62906   9.377   5.855  11.915  0.2230  0.2803 -0.4849
  466MOL0     H62907   9.497   6.607  11.532 -1.1966  0.2485  0.7253
  466MOL0     H62908   9.545   6.685  11.266 -0.0350 -0.3409  0.3961
  466MOL0     H62909   9.580   6.788  11.402 -0.0924 -0.5473 -0.3451
  466MOL0     H62910   9.696   6.768  11.278 -1.3033 -0.6886 -1.8377
  467MOL0     O62911   7.687  10.280   2.745 -0.0232  0.5730 -0.0631
  467MOL0     C62912   7.778  10.359   2.774  0.0546  0.2691  0.8615
  467MOL0     O62913   7.770  10.461   2.863  0.4982 -0.7923  0.9886
  467MOL0     C62914   7.640  10.516   2.885  0.0956  0.3192  0.4371
  467MOL0     C62915   7.618  10.653   2.849  0.4528 -0.4015 -0.0013
  467MOL0     C62916   7.492  10.708   2.874  0.2872  0.3793  0.7940
  467MOL0     C62917   7.389  10.629   2.932 -0.6081 -0.4375 -0.0922
  467MOL0     O62918   7.264  10.680   2.911 -0.1259  0.2624 -0.1836
  467MOL0     C62919   7.161  10.588   2.891  0.7251 -0.6270  0.1883
  467MOL0     C62920   7.029  10.660   2.844  0.1933 -0.2008 -0.2870
  467MOL0     C62921   7.052  10.714   2.704  0.2034 -0.9524 -0.0717
  467MOL0     C62922   6.924  10.792   2.652  0.9155  0.4734 -0.1478
  467MOL0     C62923   6.885  10.764   2.515  0.3510  0.3721 -0.2364
  467MOL0     C62924   6.947  10.856   2.412 -0.1058 -0.6028 -0.2681
  467MOL0     C62925   7.086  10.816   2.368  0.3462 -0.3689 -0.7198
  467MOL0     C62926   7.143  10.895   2.250  0.6123 -0.2695  0.7459
  467MOL0     N62927   7.235  10.828   2.160  0.8114 -0.1218  0.4845
  467MOL0     C62928   7.282  10.702   2.154 -0.1632  0.8383  0.5564
  467MOL0     C62929   7.383  10.702   2.065 -0.4214  0.8578  0.5348
  467MOL0     C62930   7.471  10.586   2.024 -0.6172 -0.2503 -0.3391
  467MOL0     C62931   7.573  10.559   2.135  1.4073 -0.5604 -0.0099
  467MOL0     C62932   7.688  10.465   2.101 -0.2345 -0.5703  0.3120
  467MOL0     C62933   7.763  10.409   2.219 -0.9076  0.2097  0.5332
  467MOL0     O62934   7.850  10.308   2.169  0.0716  0.0443  0.0011
  467MOL0     C62935   7.985  10.327   2.160 -0.1600 -0.7955  0.1064
  467MOL0     C62936   8.038  10.444   2.134 -1.0417 -0.9835  0.2618
  467MOL0     C62937   8.175  10.457   2.128  0.5801  0.3406  0.7046
  467MOL0     C62938   8.261  10.344   2.134 -0.0070  0.0403 -0.1040
  467MOL0     C62939   8.400  10.355   2.126 -0.7955  0.1298 -0.4101
  467MOL0     O62940   8.465  10.480   2.130 -0.3279  0.7921  0.0797
  467MOL0     C62941   8.597  10.472   2.110 -0.1543  0.1437 -0.5824
  467MOL0     C62942   8.646  10.550   2.008 -0.1228 -0.8281  0.8409
  467MOL0     C62943   8.780  10.556   1.972 -0.6316  0.2028 -0.2974
  467MOL0     C62944   8.875  10.473   2.036 -0.4733 -0.3062 -0.4037
  467MOL0     O62945   9.013  10.467   2.005 -0.3667 -0.4769  0.0007
  467MOL0     C62946   9.095  10.585   2.023  0.1119  0.2307  0.2840
  467MOL0     C62947   9.240  10.548   1.997  0.2026  0.0097  0.7985
  467MOL0     C62948   9.315  10.491   2.114 -0.0452 -1.4256 -0.3074
  467MOL0     C62949   9.346  10.345   2.112  0.4560  0.4379  0.7761
  467MOL0     C62950   9.225  10.272   2.175 -0.1387  0.0524  0.4069
  467MOL0     C62951   9.225  10.127   2.137  0.9094 -0.1976  0.7626
  467MOL0     C62952   9.096  10.059   2.186  0.1534 -0.9004 -0.8640
  467MOL0     C62953   9.083   9.909   2.153  0.0099  0.0835 -0.9279
  467MOL0    Cl62954   9.193   9.805   2.251 -0.0845  0.2260  0.0609
  467MOL0     C62955   8.820  10.396   2.139 -1.2675 -1.0956  0.1689
  467MOL0     C62956   8.691  10.400   2.177 -0.5037  0.9546 -0.0425
  467MOL0     O62957   8.457  10.246   2.107 -0.8298 -0.6358 -0.2578
  467MOL0     C62958   8.202  10.216   2.150 -0.3194 -0.3122  0.8419
  467MOL0     C62959   8.065  10.219   2.173  0.0737  0.4204 -0.3234
  467MOL0     N62960   7.393  10.828   2.005 -0.5253 -0.6165 -0.2318
  467MOL0     N62961   7.304  10.898   2.069  0.0104  1.0306  0.4013
  467MOL0     C62962   7.418  10.505   2.982 -0.4835 -0.2288  0.1478
  467MOL0     C62963   7.540  10.442   2.949 -0.4918 -0.3137  0.4509
  467MOL0     C62964   7.903  10.320   2.733 -1.0429  0.9695  1.3080
  467MOL0     C62965   8.008  10.334   2.822  0.4580 -0.2324  0.2877
  467MOL0     C62966   8.132  10.293   2.792  0.0046 -1.0778 -0.1489
  467MOL0     C62967   8.164  10.237   2.667 -0.1130  0.5172 -0.0572
  467MOL0     O62968   8.290  10.192   2.631 -0.1585 -0.0446 -0.0875
  467MOL0     C62969   8.402  10.253   2.696 -0.0997  0.3972 -0.3180
  467MOL0     C62970   8.542  10.208   2.638  0.0915 -0.4685  0.2009
  467MOL0     C62971   8.544  10.205   2.487  0.6543 -0.1847 -0.3687
  467MOL0     C62972   8.654  10.122   2.423  0.6280  0.2429  0.6180
  467MOL0     C62973   8.791  10.170   2.425  0.4652  0.0654 -0.7681
  467MOL0     C62974   8.899  10.217   2.414  0.0650 -0.9523  0.0618
  467MOL0     C62975   8.059  10.209   2.579  0.9033 -0.4537  1.1107
  467MOL0     C62976   7.926  10.257   2.607 -0.3884  0.3491  0.9087
  467MOL0     C62977   7.823  10.222   2.504  0.2388  0.3192  0.6033
  467MOL0     H62978   7.700  10.716   2.817 -0.2265  1.0475  0.9587
  467MOL0     H62979   7.460  10.803   2.831 -1.0502 -1.5769 -3.0371
  467MOL0     H62980   7.198  10.515   2.818  2.8062  0.7794 -0.2516
  467MOL0     H62981   7.133  10.539   2.985 -1.4424  0.5790  0.2251
  467MOL0     H62982   7.005  10.743   2.911 -1.1567 -1.0870  0.3632
  467MOL0     H62983   6.957  10.578   2.840 -1.8153  1.5163 -0.8733
  467MOL0     H62984   7.085  10.632   2.640  1.7501 -0.7988  0.4812
  467MOL0     H62985   7.135  10.786   2.702 -1.2501  0.7704 -0.7045
  467MOL0     H62986   6.842  10.754   2.713  0.2540 -0.3757 -1.5162
  467MOL0     H62987   6.927  10.900   2.672 -0.0709  0.5727 -0.5286
  467MOL0     H62988   6.914  10.661   2.496  2.1455  0.3704  2.1178
  467MOL0     H62989   6.777  10.782   2.506  0.1895 -0.5320 -0.2266
  467MOL0     H62990   6.873  10.855   2.331  0.8639  1.8143 -1.3007
  467MOL0     H62991   6.945  10.958   2.451 -1.0197 -0.9114  0.5297
  467MOL0     H62992   7.093  10.710   2.344  0.9670 -1.2000  2.6284
  467MOL0     H62993   7.159  10.837   2.447 -0.3954 -0.6039  0.0399
  467MOL0     H62994   7.060  10.926   2.186  0.3627 -0.2336  1.0815
  467MOL0     H62995   7.188  10.985   2.293 -2.2852  1.0907  1.1289
  467MOL0     H62996   7.246  10.617   2.211  1.1870 -0.0989  0.0693
  467MOL0     H62997   7.414  10.494   2.009  1.6695 -1.7878 -0.1070
  467MOL0     H62998   7.525  10.608   1.931  0.7242  1.0406  0.6876
  467MOL0     H62999   7.609  10.649   2.187 -0.7499  0.8517 -0.8546
  467MOL0     H63000   7.517  10.518   2.219  1.0951  0.9485  0.5615
  467MOL0     H63001   7.766  10.514   2.042 -0.3661  2.6450  2.5395
  467MOL0     H63002   7.647  10.386   2.038  0.6560 -2.2737  1.7910
  467MOL0     H63003   7.699  10.369   2.299 -0.9200  0.3665  0.6006
  467MOL0     H63004   7.820  10.492   2.262  2.5621 -1.1223 -1.1378
  467MOL0     H63005   7.973  10.528   2.109  1.5847  0.8981 -0.7178
  467MOL0     H63006   8.223  10.554   2.117 -2.8737  2.0564 -0.9562
  467MOL0     H63007   8.580  10.624   1.965  0.2418 -0.3326  1.1234
  467MOL0     H63008   8.822  10.611   1.889 -0.8497  0.3695 -0.3017
  467MOL0     H63009   9.064  10.658   1.949  2.7738 -0.9448 -2.1727
  467MOL0     H63010   9.077  10.626   2.123 -0.3263 -2.4272  1.3963
  467MOL0     H63011   9.234  10.478   1.913 -0.8919 -0.6383  1.4009
  467MOL0     H63012   9.289  10.636   1.954  0.0645 -0.8649 -1.2805
  467MOL0     H63013   9.404  10.554   2.124  1.4361 -3.7029  2.2122
  467MOL0     H63014   9.252  10.522   2.198 -1.4402  0.6983 -2.0094
  467MOL0     H63015   9.431  10.332   2.180  1.0727  1.2939  0.1898
  467MOL0     H63016   9.369  10.313   2.010 -0.8981  0.7641  0.3512
  467MOL0     H63017   9.134  10.319   2.137 -0.3214 -1.2920 -0.9374
  467MOL0     H63018   9.228  10.285   2.283 -0.8222  2.7322  0.1696
  467MOL0     H63019   9.241  10.108   2.030  0.8874  0.9853  0.5317
  467MOL0     H63020   9.319  10.091   2.180  0.2708 -2.5975  0.2845
  467MOL0     H63021   9.007  10.109   2.146  0.0092  0.4349  1.0053
  467MOL0     H63022   9.094  10.073   2.295 -3.0839  1.5251 -1.0950
  467MOL0     H63023   8.982   9.872   2.171  0.3315 -0.4546 -0.1334
  467MOL0     H63024   9.102   9.891   2.047 -0.9384  3.3945 -1.7744
  467MOL0     H63025   8.890  10.329   2.188  1.2734  1.5029  0.3656
  467MOL0     H63026   8.657  10.330   2.253 -1.7096  0.3915 -1.0672
  467MOL0     H63027   8.244  10.116   2.145  0.4168  0.0067  0.5021
  467MOL0     H63028   8.013  10.124   2.185 -0.0879  0.3259 -1.6474
  467MOL0     H63029   7.341  10.439   3.020  1.1113 -2.9806 -1.1139
  467MOL0     H63030   7.547  10.335   2.968 -2.9986 -0.6193  0.0240
  467MOL0     H63031   7.992  10.370   2.923  2.3225  0.0820  0.5011
  467MOL0     H63032   8.211  10.311   2.865  0.1720  0.5474 -0.6874
  467MOL0     H63033   8.398  10.230   2.802 -0.4570  2.9586  0.2916
  467MOL0     H63034   8.386  10.358   2.671  0.1163  0.3916 -0.4912
  467MOL0     H63035   8.578  10.114   2.681  0.9466  2.1289  6.2169
  467MOL0     H63036   8.623  10.273   2.673  0.4732 -1.2769  0.8397
  467MOL0     H63037   8.548  10.304   2.441  4.1109  0.2234  0.5443
  467MOL0     H63038   8.448  10.160   2.460 -0.0719 -0.1438  1.9584
  467MOL0     H63039   8.643  10.023   2.469 -1.2158 -0.0315 -0.3315
  467MOL0     H63040   8.631  10.098   2.319  2.9375 -2.7143  0.6479
  467MOL0     H63041   8.992  10.270   2.408 -2.2147  3.4105 -0.6476
  467MOL0     H63042   8.077  10.153   2.488 -0.7247 -1.3558  1.3019
  467MOL0     H63043   7.736  10.288   2.507 -1.0313 -1.3121  1.3742
  467MOL0     H63044   7.868  10.246   2.408 -0.5479 -2.0176 -0.4158
  467MOL0     H63045   7.789  10.118   2.510 -0.5081  0.2864 -2.5879
  468MOL0     O63046   6.403   2.782   4.572  0.0469 -0.0986  0.2141
  468MOL0     C63047   6.318   2.705   4.533 -0.4117  0.2466 -0.9884
  468MOL0     O63048   6.309   2.659   4.408 -0.1727  0.0074 -0.0725
  468MOL0     C63049   6.427   2.664   4.327 -0.5990  0.2574 -0.8278
  468MOL0     C63050   6.543   2.612   4.373 -0.1746  0.6848 -0.8605
  468MOL0     C63051   6.661   2.622   4.300 -0.4983  0.0461  0.1437
  468MOL0     C63052   6.658   2.679   4.173  0.6095  0.8881  0.1837
  468MOL0     O63053   6.775   2.679   4.101 -0.2667  0.4861 -0.2741
  468MOL0     C63054   6.873   2.762   4.158 -0.0205  0.0715 -0.9358
  468MOL0     C63055   6.986   2.786   4.058  0.3115 -0.1422  0.2764
  468MOL0     C63056   6.957   2.898   3.972 -0.2955 -0.6693  0.8222
  468MOL0     C63057   7.082   2.925   3.880  0.0116 -0.9232 -0.8087
  468MOL0     C63058   7.048   3.024   3.775  0.5435  0.7388 -0.4207
  468MOL0     C63059   7.146   3.024   3.666 -0.7804 -0.0367 -0.6234
  468MOL0     C63060   7.100   3.122   3.555 -0.4212 -0.3190  0.1247
  468MOL0     C63061   7.162   3.102   3.411 -1.1118 -1.0365 -0.5641
  468MOL0     N63062   7.102   3.193   3.310 -0.0859 -0.5955  0.6874
  468MOL0     C63063   6.983   3.161   3.248 -0.6317  0.8654 -0.7748
  468MOL0     C63064   6.960   3.259   3.164 -1.2549 -0.5693  0.0590
  468MOL0     C63065   6.860   3.268   3.054  0.6658  0.1153 -0.1904
  468MOL0     C63066   6.751   3.365   3.084  0.2709 -0.8585 -0.4069
  468MOL0     C63067   6.626   3.344   2.993 -0.3875  0.3741  0.5953
  468MOL0     C63068   6.515   3.445   3.003 -0.3694  0.6652 -0.4013
  468MOL0     O63069   6.402   3.396   2.921 -1.1587 -0.4279  0.5381
  468MOL0     C63070   6.293   3.481   2.915 -0.6463  0.2913  0.3384
  468MOL0     C63071   6.279   3.601   2.995 -0.9907  0.4286  0.1217
  468MOL0     C63072   6.157   3.664   2.991  1.1513 -0.2905 -1.0443
  468MOL0     C63073   6.059   3.641   2.901  0.1819 -0.2954  0.3734
  468MOL0     C63074   5.933   3.715   2.893  0.7855  0.4621 -0.0176
  468MOL0     O63075   5.923   3.826   2.972 -0.1017 -0.3663 -0.3672
  468MOL0     C63076   5.809   3.903   2.950 -0.3528 -0.2893  0.9865
  468MOL0     C63077   5.680   3.870   2.967  0.1826 -0.2915 -0.0906
  468MOL0     C63078   5.569   3.959   2.960  0.1778  1.0477 -0.2135
  468MOL0     C63079   5.593   4.101   2.951  0.5321 -0.2252  0.5178
  468MOL0     O63080   5.494   4.190   2.945  0.1045 -0.4358  0.3959
  468MOL0     C63081   5.369   4.152   2.987  1.1674 -0.6847  0.5390
  468MOL0     C63082   5.283   4.281   2.984 -0.0996 -0.3623 -0.8527
  468MOL0     C63083   5.156   4.270   3.069 -0.5479  0.4111 -0.4805
  468MOL0     C63084   5.111   4.407   3.129 -0.3935  0.5786 -0.6426
  468MOL0     C63085   4.975   4.399   3.185 -0.4656  0.3740 -1.0107
  468MOL0     C63086   4.981   4.330   3.327 -0.3726 -0.0987 -0.0547
  468MOL0     C63087   4.840   4.314   3.386  1.2040  0.4073 -0.0962
  468MOL0     C63088   4.856   4.282   3.533  0.2669 -0.1120  0.2166
  468MOL0    Cl63089   4.930   4.133   3.568 -0.4027 -0.0664  0.1130
  468MOL0     C63090   5.725   4.140   2.926  0.1710 -0.0600 -0.2602
  468MOL0     C63091   5.826   4.044   2.932  0.3621 -1.2711  0.1794
  468MOL0     O63092   5.842   3.661   2.828 -0.0877 -0.6514 -0.0414
  468MOL0     C63093   6.078   3.527   2.816 -0.1722 -0.5187 -0.0196
  468MOL0     C63094   6.199   3.452   2.828 -0.1586  0.3714  0.5142
  468MOL0     N63095   7.069   3.354   3.183  0.4455  0.1178 -0.3583
  468MOL0     N63096   7.157   3.307   3.272 -0.2073  0.2148  0.1592
  468MOL0     C63097   6.539   2.726   4.122 -0.2642 -0.3295  0.9607
  468MOL0     C63098   6.421   2.725   4.199 -0.4108  1.0345 -0.1222
  468MOL0     C63099   6.194   2.682   4.605  0.7378  1.4022  0.0805
  468MOL0     C63100   6.161   2.543   4.621 -0.3619  0.7515  0.4498
  468MOL0     C63101   6.061   2.497   4.703 -0.3294  0.1857  0.5189
  468MOL0     C63102   5.987   2.594   4.766 -0.7420 -0.5941 -0.7421
  468MOL0     O63103   5.887   2.563   4.845  0.4801 -0.2236  0.4342
  468MOL0     C63104   5.752   2.542   4.784  0.2026  0.3746  0.6202
  468MOL0     C63105   5.673   2.439   4.855  1.3884  0.3868  0.6628
  468MOL0     C63106   5.518   2.452   4.833  0.2170 -0.1855 -0.1510
  468MOL0     C63107   5.441   2.341   4.897 -0.4426  0.4940  0.4784
  468MOL0     C63108   5.294   2.347   4.881  0.5103  0.1835  0.0137
  468MOL0     C63109   5.171   2.359   4.893  0.7147  0.3966  1.0852
  468MOL0     C63110   6.019   2.732   4.760 -0.7635  1.0668 -0.9691
  468MOL0     C63111   6.123   2.775   4.684 -0.0587 -0.2233 -0.9265
  468MOL0     C63112   6.147   2.923   4.678 -0.2604  0.1393 -0.7144
  468MOL0     H63113   6.549   2.586   4.478  1.0359  3.0627 -0.2661
  468MOL0     H63114   6.755   2.578   4.332 -1.6284 -1.5002  1.5515
  468MOL0     H63115   6.832   2.856   4.196 -1.1861 -0.3056 -1.2029
  468MOL0     H63116   6.925   2.718   4.244  1.8867  2.5476 -0.7143
  468MOL0     H63117   6.999   2.700   3.992  0.4750 -0.6079  0.9065
  468MOL0     H63118   7.074   2.808   4.119  1.0827 -2.8123  0.2353
  468MOL0     H63119   6.945   2.985   4.036  1.1207 -1.2452  1.9339
  468MOL0     H63120   6.870   2.861   3.918  0.4173  1.7752 -2.3179
  468MOL0     H63121   7.157   2.965   3.948 -1.5284 -3.5980  2.8515
  468MOL0     H63122   7.122   2.828   3.849  0.3406 -1.7113  1.7714
  468MOL0     H63123   6.948   3.009   3.732 -0.5417  1.4473  1.7103
  468MOL0     H63124   7.032   3.114   3.835 -2.1083 -0.1562  0.3932
  468MOL0     H63125   7.241   3.064   3.702 -0.4892  1.4401 -2.8314
  468MOL0     H63126   7.158   2.925   3.622 -3.6019  0.2164 -2.2079
  468MOL0     H63127   7.122   3.224   3.588  0.6431 -0.2650 -0.6797
  468MOL0     H63128   6.995   3.107   3.529 -0.4472  1.9113 -1.3296
  468MOL0     H63129   7.269   3.124   3.412 -1.0150 -1.5005  0.0327
  468MOL0     H63130   7.150   2.995   3.394  0.0584 -1.3218  0.2404
  468MOL0     H63131   6.922   3.073   3.262 -1.6891  1.8270  1.0653
  468MOL0     H63132   6.894   3.271   2.950  0.4125  1.1274 -0.2623
  468MOL0     H63133   6.805   3.174   3.063  2.1581 -0.6947  0.8876
  468MOL0     H63134   6.716   3.371   3.187  0.9080  3.7099 -0.2691
  468MOL0     H63135   6.790   3.465   3.061 -1.1900  0.1593  1.3042
  468MOL0     H63136   6.579   3.246   3.005 -0.1201  0.1824  0.1118
  468MOL0     H63137   6.647   3.351   2.886 -0.8377  2.5171  0.6070
  468MOL0     H63138   6.551   3.540   2.962  3.5770 -0.7834 -0.7761
  468MOL0     H63139   6.487   3.459   3.108  1.3735  0.3596  0.1463
  468MOL0     H63140   6.350   3.629   3.072 -1.5988  1.4742  0.3200
  468MOL0     H63141   6.133   3.724   3.078 -0.5307 -1.1631 -0.8682
  468MOL0     H63142   5.653   3.765   2.980  1.1514 -0.6146 -0.5915
  468MOL0     H63143   5.469   3.918   2.976  0.9140 -1.8041 -2.2663
  468MOL0     H63144   5.326   4.074   2.923  2.7266  0.0131 -1.4635
  468MOL0     H63145   5.366   4.132   3.095 -1.2269  3.6280  1.5209
  468MOL0     H63146   5.333   4.369   3.027 -0.1019 -1.5149  1.6699
  468MOL0     H63147   5.251   4.315   2.885  1.0943  1.9883 -0.4962
  468MOL0     H63148   5.077   4.239   2.999 -2.0334  0.8041  0.9615
  468MOL0     H63149   5.164   4.192   3.145 -0.0487  0.8876 -0.0441
  468MOL0     H63150   5.100   4.479   3.047  3.3357 -0.6595 -2.4728
  468MOL0     H63151   5.188   4.436   3.201 -0.3281 -1.3256  0.1136
  468MOL0     H63152   4.899   4.341   3.132 -2.5903 -1.0394  3.1481
  468MOL0     H63153   4.941   4.503   3.192  0.3342  0.5273  1.9754
  468MOL0     H63154   5.029   4.233   3.316  2.2155  1.1877 -1.1076
  468MOL0     H63155   5.047   4.378   3.400 -0.8007 -0.7264  0.7639
  468MOL0     H63156   4.794   4.237   3.323  0.0368 -0.7160  2.0480
  468MOL0     H63157   4.776   4.401   3.368 -0.8845 -1.4037 -2.0926
  468MOL0     H63158   4.920   4.360   3.574 -2.3207  2.6453 -0.6803
  468MOL0     H63159   4.761   4.293   3.585 -0.6072  1.2194 -1.5379
  468MOL0     H63160   5.744   4.242   2.896  2.0503 -0.0869  0.6613
  468MOL0     H63161   5.930   4.071   2.923  0.4983 -2.0602 -0.7715
  468MOL0     H63162   6.007   3.507   2.736 -1.8618  2.1192  0.7014
  468MOL0     H63163   6.205   3.369   2.758  0.2534  3.4214 -3.4427
  468MOL0     H63164   6.538   2.759   4.018 -0.0156 -1.0912  0.7092
  468MOL0     H63165   6.331   2.770   4.158  0.1696 -0.1465 -2.9347
  468MOL0     H63166   6.216   2.469   4.564  0.4205  0.9629  0.9114
  468MOL0     H63167   6.035   2.394   4.728  0.0514  0.2536  1.2364
  468MOL0     H63168   5.757   2.516   4.678  3.2944  0.1358  0.7548
  468MOL0     H63169   5.704   2.641   4.787  0.3800  0.5323 -0.8985
  468MOL0     H63170   5.704   2.436   4.960  2.1575 -1.1701  0.4213
  468MOL0     H63171   5.714   2.346   4.814  0.8104 -0.3117  1.6200
  468MOL0     H63172   5.503   2.457   4.725 -1.1222 -2.3227 -0.1182
  468MOL0     H63173   5.474   2.545   4.870 -0.5712  0.0476 -1.5924
  468MOL0     H63174   5.476   2.244   4.859  0.3986  1.3664 -1.0612
  468MOL0     H63175   5.444   2.341   5.006 -1.2501 -0.9391  0.5276
  468MOL0     H63176   5.066   2.363   4.910  0.3229 -0.2157 -0.8979
  468MOL0     H63177   5.968   2.809   4.817  0.9449  1.9831 -0.6152
  468MOL0     H63178   6.057   2.975   4.712 -1.1857 -1.5634 -0.4559
  468MOL0     H63179   6.236   2.943   4.739  0.9762  0.2903 -2.4866
  468MOL0     H63180   6.168   2.970   4.581 -0.9856  4.6268  1.0293
  469MOL0     O63181   4.911   9.207   5.457  0.0171 -0.9180  0.0233
  469MOL0     C63182   4.942   9.177   5.575 -0.5946 -0.1163 -0.6372
  469MOL0     O63183   4.866   9.220   5.679 -0.3484  0.0299 -0.7811
  469MOL0     C63184   4.752   9.288   5.646 -0.6843 -0.0257 -0.1917
  469MOL0     C63185   4.759   9.423   5.627  0.1824 -0.7694  0.5520
  469MOL0     C63186   4.646   9.503   5.588  0.2320 -0.1337  0.8123
  469MOL0     C63187   4.527   9.448   5.548 -0.9503 -0.1176 -0.7336
  469MOL0     O63188   4.431   9.530   5.500  1.0340  0.6844 -1.0145
  469MOL0     C63189   4.326   9.467   5.423  0.6552 -0.4015  0.3929
  469MOL0     C63190   4.244   9.572   5.348  0.0787 -0.4925  0.7781
  469MOL0     C63191   4.330   9.650   5.250  0.2909 -0.3249 -0.0087
  469MOL0     C63192   4.240   9.764   5.193 -1.4165  0.7533  0.4763
  469MOL0     C63193   4.333   9.851   5.098  0.2150  0.3398  0.5108
  469MOL0     C63194   4.260   9.987   5.073  0.6444 -0.5891  0.1135
  469MOL0     C63195   4.335  10.077   4.976  0.0073 -0.4885  0.8318
  469MOL0     C63196   4.336  10.036   4.828  0.1026  0.0362 -0.4205
  469MOL0     N63197   4.404  10.140   4.750 -0.4332  0.0443 -0.1122
  469MOL0     C63198   4.519  10.126   4.674 -0.1150 -0.6100 -0.7384
  469MOL0     C63199   4.523  10.231   4.602 -0.6950 -0.3389 -0.9208
  469MOL0     C63200   4.639  10.258   4.507 -1.1488 -0.5167 -0.3055
  469MOL0     C63201   4.753  10.331   4.567  0.1350 -0.5905  0.3638
  469MOL0     C63202   4.855  10.385   4.466  0.6991  0.1319  0.3134
  469MOL0     C63203   4.950  10.486   4.527 -0.4088 -0.4677 -0.2000
  469MOL0     O63204   4.943  10.607   4.440 -0.5828  0.6050  0.5619
  469MOL0     C63205   5.052  10.642   4.365  0.0149  0.0562  1.1263
  469MOL0     C63206   5.050  10.783   4.333 -0.5914  0.6002  0.4249
  469MOL0     C63207   5.158  10.837   4.259  0.0620  0.3110  0.0184
  469MOL0     C63208   5.258  10.752   4.206  0.1896 -0.5845  0.6434
  469MOL0     C63209   5.368  10.805   4.128  0.4600 -0.0325  0.1274
  469MOL0     O63210   5.464  10.722   4.087 -0.1901  0.8367 -0.3977
  469MOL0     C63211   5.584  10.752   4.031  1.4968  0.5688 -0.0843
  469MOL0     C63212   5.642  10.637   3.982 -0.5678  0.3327 -1.0237
  469MOL0     C63213   5.764  10.638   3.913 -0.4528 -1.1064 -0.6085
  469MOL0     C63214   5.815  10.766   3.883  0.6768  0.6870 -0.8393
  469MOL0     O63215   5.939  10.782   3.816 -0.5109 -0.3547  0.3381
  469MOL0     C63216   6.061  10.747   3.888  0.4336 -0.0632  0.1382
  469MOL0     C63217   6.082  10.856   4.003  1.1660 -0.8933 -0.0390
  469MOL0     C63218   6.205  10.856   4.081 -0.2444  0.2718  0.6197
  469MOL0     C63219   6.335  10.895   4.017  0.3455 -0.2177  1.4542
  469MOL0     C63220   6.448  10.906   4.124 -1.2785  0.0725 -0.6563
  469MOL0     C63221   6.582  10.972   4.077 -0.0750  0.7222  0.2251
  469MOL0     C63222   6.675  10.967   4.192  1.0361  0.8754  0.0342
  469MOL0     C63223   6.657  11.074   4.298 -0.4506 -0.3747 -0.1711
  469MOL0    Cl63224   6.777  11.033   4.423  0.3274 -0.4133  0.1180
  469MOL0     C63225   5.747  10.876   3.930  0.1912 -0.9935 -0.0411
  469MOL0     C63226   5.633  10.875   4.006  0.6997  0.1404  0.0598
  469MOL0     O63227   5.352  10.919   4.085  0.1533 -0.2832 -0.9432
  469MOL0     C63228   5.246  10.616   4.228 -0.5211  0.5319  0.6140
  469MOL0     C63229   5.148  10.561   4.312  0.0405  0.4983 -0.9491
  469MOL0     N63230   4.424  10.319   4.646 -0.1791 -0.4331  0.6274
  469MOL0     N63231   4.344  10.254   4.721  0.7618  0.3040  0.5592
  469MOL0     C63232   4.513   9.315   5.570  0.2353  0.7602  0.0567
  469MOL0     C63233   4.620   9.231   5.630 -0.6867 -0.3431 -0.4614
  469MOL0     C63234   5.058   9.083   5.590 -1.3575 -0.2458  0.1744
  469MOL0     C63235   5.128   9.052   5.473 -0.5326 -0.0828  0.4300
  469MOL0     C63236   5.236   8.966   5.475 -0.3328  0.4303  0.8654
  469MOL0     C63237   5.287   8.918   5.594  0.0479  0.0158 -0.2372
  469MOL0     O63238   5.390   8.833   5.591  0.0102  0.4798 -0.2362
  469MOL0     C63239   5.356   8.697   5.567 -0.2724 -0.7363 -1.1136
  469MOL0     C63240   5.378   8.618   5.701  0.7891  0.4920 -0.2048
  469MOL0     C63241   5.361   8.465   5.680  0.6737  0.3745  1.0381
  469MOL0     C63242   5.215   8.422   5.701  1.0417  0.0024  0.4216
  469MOL0     C63243   5.175   8.272   5.699  0.4670 -0.2902  0.1240
  469MOL0     C63244   5.150   8.151   5.686  0.2980 -0.8874 -0.0770
  469MOL0     C63245   5.225   8.952   5.714 -0.5675  0.0333  0.1301
  469MOL0     C63246   5.102   9.031   5.715 -0.7376  0.2447  0.0164
  469MOL0     C63247   5.031   9.046   5.845  0.4815 -0.2952  0.1393
  469MOL0     H63248   4.858   9.467   5.635  0.6816 -2.1048  2.3196
  469MOL0     H63249   4.665   9.610   5.592  1.5564 -0.1796 -1.7585
  469MOL0     H63250   4.372   9.392   5.358 -0.6018 -0.2353 -0.7361
  469MOL0     H63251   4.256   9.421   5.494 -0.3340  2.3401  1.3289
  469MOL0     H63252   4.205   9.642   5.422 -2.7802 -0.3052 -0.7662
  469MOL0     H63253   4.161   9.519   5.300  0.5722 -2.4526  1.9803
  469MOL0     H63254   4.349   9.574   5.173 -2.2227 -0.5142 -0.5216
  469MOL0     H63255   4.425   9.684   5.292 -0.6359  1.1197  1.0425
  469MOL0     H63256   4.149   9.730   5.143 -0.1920 -0.7100 -0.8667
  469MOL0     H63257   4.208   9.820   5.281 -1.1702 -1.4888  2.0895
  469MOL0     H63258   4.433   9.877   5.135  0.8882  0.0186 -0.9993
  469MOL0     H63259   4.347   9.806   5.000  1.9129  1.5999  0.1406
  469MOL0     H63260   4.158   9.976   5.035  0.1835  0.4120  1.0214
  469MOL0     H63261   4.259  10.048   5.164 -0.5859 -0.0173 -0.2663
  469MOL0     H63262   4.441  10.088   4.998 -0.4959  1.0285  2.8084
  469MOL0     H63263   4.290  10.176   4.984  0.3189 -0.1957 -0.6897
  469MOL0     H63264   4.378   9.937   4.809  1.1149 -0.0765  2.0420
  469MOL0     H63265   4.233  10.043   4.793  0.9540  2.3991 -2.8017
  469MOL0     H63266   4.584  10.040   4.667  2.1551  1.1226 -2.6838
  469MOL0     H63267   4.674  10.166   4.460 -2.5488 -0.5912 -1.2641
  469MOL0     H63268   4.593  10.313   4.424  2.7470  0.9190 -1.7649
  469MOL0     H63269   4.710  10.417   4.619  0.6427 -0.3422  0.3800
  469MOL0     H63270   4.812  10.275   4.641  0.5061  0.6132  1.0010
  469MOL0     H63271   4.799  10.431   4.384  0.8088 -1.2808 -0.5743
  469MOL0     H63272   4.907  10.300   4.423 -1.9765 -0.8167 -1.3008
  469MOL0     H63273   5.049  10.441   4.516 -0.5573 -0.5265 -1.4516
  469MOL0     H63274   4.944  10.494   4.636  1.9365  0.5536 -0.0760
  469MOL0     H63275   4.971  10.842   4.377 -0.0370  0.0172  2.2773
  469MOL0     H63276   5.163  10.945   4.249 -1.6582  0.3410 -0.7680
  469MOL0     H63277   5.597  10.546   4.020  0.0957  0.8524  1.1447
  469MOL0     H63278   5.825  10.558   3.872  0.4293 -0.5202 -0.4637
  469MOL0     H63279   6.049  10.649   3.937 -2.3033 -0.4565 -1.1051
  469MOL0     H63280   6.143  10.751   3.817 -0.1477  2.9416 -0.4704
  469MOL0     H63281   6.084  10.956   3.958 -0.6943 -0.2403  1.2369
  469MOL0     H63282   6.003  10.853   4.078  2.0230  0.1221  0.9347
  469MOL0     H63283   6.183  10.921   4.166 -1.7048  1.0107 -0.2838
  469MOL0     H63284   6.228  10.753   4.111  1.1986  1.3280  3.4559
  469MOL0     H63285   6.320  10.994   3.974  3.6876 -1.1166 -2.5609
  469MOL0     H63286   6.357  10.824   3.937 -2.0024 -0.2901  0.8015
  469MOL0     H63287   6.473  10.802   4.145 -0.3081 -0.2537 -3.0879
  469MOL0     H63288   6.414  10.951   4.218 -0.4525 -1.7918  0.5926
  469MOL0     H63289   6.620  10.915   3.992 -2.3701  1.3957 -1.3553
  469MOL0     H63290   6.577  11.076   4.042 -0.3763  1.3219  1.9657
  469MOL0     H63291   6.779  10.984   4.163  1.9053 -2.3331  0.8831
  469MOL0     H63292   6.671  10.870   4.242  1.1266  0.4464 -0.7795
  469MOL0     H63293   6.681  11.175   4.264 -1.5785 -0.6614 -1.9279
  469MOL0     H63294   6.559  11.076   4.345  0.6562  0.4128  2.2848
  469MOL0     H63295   5.799  10.969   3.911 -0.7152 -0.8117 -1.8167
  469MOL0     H63296   5.581  10.968   4.028  1.3926  0.5203  0.1261
  469MOL0     H63297   5.313  10.543   4.185  0.2307  1.3958  0.2956
  469MOL0     H63298   5.136  10.455   4.332  3.0604 -0.2189 -2.4016
  469MOL0     H63299   4.420   9.271   5.537  1.1367 -1.6228  0.5036
  469MOL0     H63300   4.601   9.126   5.645 -0.3415 -0.1091  1.9436
  469MOL0     H63301   5.098   9.086   5.375 -0.2894 -0.5785  0.1807
  469MOL0     H63302   5.285   8.937   5.382 -1.2565  0.6965  0.2839
  469MOL0     H63303   5.412   8.653   5.485 -1.9904 -2.3148 -1.5256
  469MOL0     H63304   5.251   8.680   5.541 -0.1112 -0.0775 -2.2395
  469MOL0     H63305   5.325   8.663   5.786  1.9608 -2.3547  2.2097
  469MOL0     H63306   5.480   8.635   5.734  0.7852  0.8310 -0.3635
  469MOL0     H63307   5.427   8.406   5.744  1.4855 -0.3239 -0.3792
  469MOL0     H63308   5.396   8.444   5.578 -4.6257 -3.6162 -0.4287
  469MOL0     H63309   5.172   8.465   5.792 -0.8388  2.6178 -1.5404
  469MOL0     H63310   5.150   8.460   5.622 -0.1702 -2.0333  0.3502
  469MOL0     H63311   5.130   8.052   5.653 -3.2646 -0.1690 -0.4233
  469MOL0     H63312   5.271   8.895   5.795  0.0151  0.2829 -0.0192
  469MOL0     H63313   4.931   9.003   5.829 -0.4423  0.8568  2.3017
  469MOL0     H63314   5.079   8.990   5.925 -0.9158 -2.2657 -0.3145
  469MOL0     H63315   5.021   9.153   5.864  0.7437 -0.6507  2.5347
  470MOL0     O63316   6.743   9.934   5.991  0.4767 -0.3949  0.1384
  470MOL0     C63317   6.733   9.861   5.894  0.3476  0.3805 -0.0662
  470MOL0     O63318   6.815   9.866   5.785  0.4418 -0.1420  0.2759
  470MOL0     C63319   6.941   9.922   5.799 -0.1004 -0.7919  0.5682
  470MOL0     C63320   6.976   9.976   5.677  0.3569 -0.2517  0.0520
  470MOL0     C63321   7.106  10.038   5.661  0.2176  0.1103 -0.6339
  470MOL0     C63322   7.197  10.043   5.769 -0.3605  0.2068  0.1651
  470MOL0     O63323   7.309  10.115   5.744  0.0165  0.0285  0.0349
  470MOL0     C63324   7.373  10.164   5.860 -0.3563  0.2150 -0.2214
  470MOL0     C63325   7.496  10.075   5.905 -0.0392  0.5034  0.1964
  470MOL0     C63326   7.601  10.056   5.794  0.1469 -0.3315 -0.9419
  470MOL0     C63327   7.745  10.051   5.847  0.7744 -0.1514 -0.5319
  470MOL0     C63328   7.857  10.058   5.732 -0.5477  0.2493  0.3470
  470MOL0     C63329   7.827   9.955   5.621 -0.1534  0.2343  0.8712
  470MOL0     C63330   7.951   9.952   5.522 -0.1935 -1.2546  0.6192
  470MOL0     C63331   7.923   9.842   5.422 -0.2720 -0.0892  0.4693
  470MOL0     N63332   7.906   9.879   5.291 -0.6735 -0.1777  0.6598
  470MOL0     C63333   7.790   9.908   5.226  0.5026  0.6733 -0.0169
  470MOL0     C63334   7.815   9.967   5.109 -0.0673  0.5024 -0.2545
  470MOL0     C63335   7.715  10.024   5.016  0.1458  0.2556 -1.1290
  470MOL0     C63336   7.760  10.117   4.898 -0.1226  0.4048 -0.0544
  470MOL0     C63337   7.786  10.258   4.946 -0.0068 -0.4311  0.2906
  470MOL0     C63338   7.910  10.267   5.036 -0.1416  1.2384 -0.0162
  470MOL0     O63339   7.964  10.399   5.035  0.1924 -0.0824 -0.1083
  470MOL0     C63340   8.083  10.423   5.099  0.7023  1.2326  0.4901
  470MOL0     C63341   8.153  10.334   5.175 -0.6570 -0.8754 -0.0146
  470MOL0     C63342   8.281  10.372   5.220 -0.4040  0.3678  0.4914
  470MOL0     C63343   8.334  10.500   5.207 -0.0680  0.5620 -0.0991
  470MOL0     C63344   8.477  10.524   5.260  0.5596  0.1293  0.5599
  470MOL0     O63345   8.493  10.643   5.324 -0.1344 -0.5610 -0.1263
  470MOL0     C63346   8.611  10.663   5.393  0.4466  0.7711  0.2502
  470MOL0     C63347   8.685  10.778   5.373  0.4072 -0.8478 -1.3371
  470MOL0     C63348   8.792  10.810   5.466  0.1205  0.0362  0.7370
  470MOL0     C63349   8.819  10.727   5.579  1.0931  1.0672 -0.2307
  470MOL0     O63350   8.922  10.755   5.663  0.0070 -0.3419  0.1370
  470MOL0     C63351   9.032  10.663   5.650 -0.4790  0.5742 -0.5856
  470MOL0     C63352   9.158  10.709   5.714 -0.5078  0.1500 -0.9933
  470MOL0     C63353   9.290  10.620   5.693 -0.2944 -0.4647 -0.2463
  470MOL0     C63354   9.410  10.718   5.687 -0.0010 -0.8671  0.5715
  470MOL0     C63355   9.442  10.785   5.825  0.7945 -0.4194  0.4497
  470MOL0     C63356   9.528  10.912   5.797 -0.0010  0.3472 -0.1227
  470MOL0     C63357   9.601  10.952   5.921 -0.6025  0.1678  0.2586
  470MOL0     C63358   9.641  11.089   5.898  0.1247  0.9522 -0.1187
  470MOL0    Cl63359   9.773  11.064   5.775 -0.0846 -0.2531 -0.0365
  470MOL0     C63360   8.754  10.607   5.581 -0.3285  0.4120  0.3468
  470MOL0     C63361   8.657  10.567   5.488 -0.8353  0.0015 -0.4356
  470MOL0     O63362   8.568  10.439   5.238 -0.1177 -0.8671 -0.6430
  470MOL0     C63363   8.263  10.586   5.124  0.3254  0.6117 -0.1017
  470MOL0     C63364   8.138  10.553   5.077  0.1543  0.0900  0.8802
  470MOL0     N63365   7.956   9.964   5.095  0.2932  0.3142  1.1000
  470MOL0     N63366   8.009   9.904   5.197  0.9195 -0.3872  0.2852
  470MOL0     C63367   7.153   9.978   5.897  0.9833 -0.0996 -0.3032
  470MOL0     C63368   7.026   9.919   5.912  0.2191  0.6818 -0.7464
  470MOL0     C63369   6.630   9.757   5.879 -0.0093  0.0235  0.4342
  470MOL0     C63370   6.606   9.702   5.753 -0.8504 -0.5905  0.3111
  470MOL0     C63371   6.495   9.620   5.723  0.0785  0.4102  0.4159
  470MOL0     C63372   6.414   9.580   5.827 -0.9375  0.4718 -0.2262
  470MOL0     O63373   6.318   9.489   5.786  0.4020  0.4282  0.0829
  470MOL0     C63374   6.192   9.478   5.865 -0.8823 -1.1622 -0.1182
  470MOL0     C63375   6.080   9.431   5.779 -0.6213 -0.0129  0.5498
  470MOL0     C63376   5.994   9.545   5.708 -0.5103  0.4937 -0.1378
  470MOL0     C63377   5.868   9.495   5.628  0.0681  0.9903 -0.0685
  470MOL0     C63378   5.921   9.408   5.518  0.8298 -0.1208 -0.0896
  470MOL0     C63379   5.941   9.329   5.431 -0.4782 -0.2668 -1.2340
  470MOL0     C63380   6.440   9.627   5.953  0.1108 -0.4741 -0.2509
  470MOL0     C63381   6.543   9.717   5.983 -0.3413 -0.4128 -1.0304
  470MOL0     C63382   6.543   9.786   6.120  0.0433 -1.2213  0.3782
  470MOL0     H63383   6.903   9.970   5.597  0.9644  0.3634 -0.5644
  470MOL0     H63384   7.145  10.087   5.572  0.5071  2.0408  0.5060
  470MOL0     H63385   7.422  10.254   5.823  0.1733 -0.4039 -1.0574
  470MOL0     H63386   7.305  10.194   5.941 -0.1501  3.2848 -1.0616
  470MOL0     H63387   7.452   9.981   5.940 -4.2924  2.3336  0.3471
  470MOL0     H63388   7.538  10.126   5.992  0.1540  1.1660 -0.2738
  470MOL0     H63389   7.583  10.115   5.704  0.7000  1.0088 -0.2147
  470MOL0     H63390   7.597   9.954   5.755  4.1377 -1.6396  1.4815
  470MOL0     H63391   7.754  10.135   5.916 -1.4563  2.4287 -3.1326
  470MOL0     H63392   7.750   9.962   5.910  0.4062  0.4049  0.3096
  470MOL0     H63393   7.857  10.152   5.676  2.1078 -1.0629 -2.0897
  470MOL0     H63394   7.957  10.035   5.770  0.0656 -0.0113 -1.3509
  470MOL0     H63395   7.815   9.853   5.657  0.4374 -0.7271 -1.4738
  470MOL0     H63396   7.736   9.983   5.566  1.2105  1.7794 -0.7460
  470MOL0     H63397   8.035   9.918   5.583  0.0505 -2.1027 -0.1748
  470MOL0     H63398   7.978  10.045   5.470 -2.3607 -1.3033 -0.7003
  470MOL0     H63399   8.010   9.776   5.427 -0.3016 -0.1710 -0.0239
  470MOL0     H63400   7.829   9.794   5.451 -0.4094  0.0442  0.2516
  470MOL0     H63401   7.697   9.900   5.282  1.3923 -1.2647  1.2907
  470MOL0     H63402   7.665   9.941   4.965 -0.8211  1.1526 -1.7017
  470MOL0     H63403   7.644  10.075   5.081  0.3376 -1.3668  0.4132
  470MOL0     H63404   7.837  10.067   4.837 -0.4206 -0.1866  0.0483
  470MOL0     H63405   7.674  10.121   4.831  0.6388 -2.0617 -1.3263
  470MOL0     H63406   7.703  10.297   5.006  1.0434  0.9644  0.8878
  470MOL0     H63407   7.792  10.313   4.852  0.6759 -2.5761 -1.0021
  470MOL0     H63408   7.984  10.196   4.998  0.5969  0.8120  2.0368
  470MOL0     H63409   7.882  10.241   5.139 -0.6928  0.9198 -0.2429
  470MOL0     H63410   8.121  10.233   5.200  0.0194 -0.7016  1.6664
  470MOL0     H63411   8.342  10.299   5.272 -1.5596 -1.8069 -1.0336
  470MOL0     H63412   8.665  10.841   5.287 -1.3754  0.0490 -0.3225
  470MOL0     H63413   8.843  10.905   5.456 -0.7029  0.3249 -1.1153
  470MOL0     H63414   9.010  10.560   5.680  1.1013  0.6926  1.1158
  470MOL0     H63415   9.055  10.663   5.543  1.4504  0.3753 -0.2012
  470MOL0     H63416   9.171  10.809   5.674  2.1577  0.4162  0.2706
  470MOL0     H63417   9.146  10.717   5.823  3.8200  1.2483 -0.4067
  470MOL0     H63418   9.306  10.546   5.772 -0.0254  0.6851  0.8126
  470MOL0     H63419   9.291  10.556   5.604 -2.3614 -1.0953  0.1377
  470MOL0     H63420   9.372  10.799   5.624 -1.0122 -1.8168 -0.0804
  470MOL0     H63421   9.502  10.680   5.643  1.3614  0.7962  1.8634
  470MOL0     H63422   9.498  10.707   5.877 -1.1319 -2.3573 -0.2253
  470MOL0     H63423   9.353  10.813   5.882 -2.5783 -1.2036 -3.9069
  470MOL0     H63424   9.594  10.899   5.711  1.6366  2.6295  0.6888
  470MOL0     H63425   9.459  10.993   5.772  0.5215  0.0888 -2.5673
  470MOL0     H63426   9.694  10.906   5.957 -0.2384  0.0004 -0.8608
  470MOL0     H63427   9.526  10.952   6.001 -2.7468 -1.0600 -1.6178
  470MOL0     H63428   9.559  11.149   5.857 -0.7885  0.1601  0.5109
  470MOL0     H63429   9.674  11.122   5.997 -0.3804 -0.0640  0.4165
  470MOL0     H63430   8.794  10.529   5.646 -2.1972  0.6318  1.8345
  470MOL0     H63431   8.601  10.476   5.508  0.6236 -0.8449 -0.0527
  470MOL0     H63432   8.300  10.687   5.108 -2.4423  1.5542 -1.1831
  470MOL0     H63433   8.081  10.618   5.011 -0.8358 -1.4605  0.1411
  470MOL0     H63434   7.213   9.968   5.987 -2.3236  1.7675  2.3246
  470MOL0     H63435   7.002   9.858   5.999 -2.3433  1.6366 -0.6938
  470MOL0     H63436   6.667   9.733   5.669 -2.4687  2.1359  0.0484
  470MOL0     H63437   6.473   9.578   5.626 -1.7972  0.9770  0.5556
  470MOL0     H63438   6.168   9.578   5.903  0.7903 -0.9975  0.6067
  470MOL0     H63439   6.204   9.412   5.952  2.6619 -0.7253 -0.1292
  470MOL0     H63440   6.020   9.361   5.838  0.3624  0.7479  2.5092
  470MOL0     H63441   6.126   9.376   5.696 -2.0375 -2.3211  1.1912
  470MOL0     H63442   6.067   9.601   5.648  1.7588 -0.2440  1.7695
  470MOL0     H63443   5.967   9.615   5.788 -1.5758  0.7377 -0.6949
  470MOL0     H63444   5.791   9.444   5.687 -0.6071 -1.3256 -2.7172
  470MOL0     H63445   5.815   9.586   5.599 -2.5176 -0.8590 -1.5651
  470MOL0     H63446   5.962   9.251   5.361 -1.5281  0.8212 -2.8149
  470MOL0     H63447   6.370   9.604   6.032  0.2105 -2.7531 -0.7710
  470MOL0     H63448   6.552   9.895   6.116  0.9316 -1.1924  1.9461
  470MOL0     H63449   6.444   9.771   6.164 -0.5566  1.8917  0.2710
  470MOL0     H63450   6.618   9.753   6.193  1.7783 -1.4638 -1.4323
  471MOL0     O63451  10.755   9.990  11.304  0.4187 -0.4691  0.4930
  471MOL0     C63452  10.694   9.919  11.221 -0.0899 -0.0202 -0.3745
  471MOL0     O63453  10.755   9.858  11.119  0.0865 -0.0547  0.7610
  471MOL0     C63454  10.895   9.879  11.116 -0.3195  0.8985 -0.1486
  471MOL0     C63455  10.967   9.795  11.202  0.5036 -0.4456  0.2518
  471MOL0     C63456  11.106   9.809  11.212  0.2071  0.2715 -0.1717
  471MOL0     C63457  11.170   9.912  11.138 -0.2182 -0.2260 -0.6183
  471MOL0     O63458  11.303   9.941  11.153  0.2257  0.2548  0.1667
  471MOL0     C63459  11.361   9.894  11.270 -0.1187  0.8228  0.1108
  471MOL0     C63460  11.488   9.970  11.299  0.5049 -0.7505  0.4874
  471MOL0     C63461  11.602   9.913  11.221 -1.0973  0.4873 -0.4025
  471MOL0     C63462  11.746   9.959  11.271  0.0192  0.5659 -0.3097
  471MOL0     C63463  11.854   9.869  11.211  1.8628 -0.0232  0.0839
  471MOL0     C63464  11.987   9.928  11.238 -0.2393  0.4823 -0.5734
  471MOL0     C63465  12.093   9.839  11.163 -0.6188  0.2591  0.4529
  471MOL0     C63466  12.229   9.896  11.179 -0.3640  0.2056 -0.1327
  471MOL0     N63467  12.326   9.835  11.088  1.2127  0.1510  0.2139
  471MOL0     C63468  12.407   9.731  11.125  0.1322  0.1056  0.2059
  471MOL0     C63469  12.483   9.710  11.023 -0.0838 -0.7144  0.1742
  471MOL0     C63470  12.574   9.585  11.009 -0.1223  0.5430  0.5085
  471MOL0     C63471  12.695   9.589  11.098  0.3159 -0.3142 -0.0636
  471MOL0     C63472  12.777   9.720  11.081  0.7280  0.3691 -0.0804
  471MOL0     C63473  12.909   9.711  11.170 -0.7856 -0.0679 -0.0505
  471MOL0     O63474  12.991   9.603  11.120 -0.0474  0.2804 -0.4574
  471MOL0     C63475  13.092   9.567  11.213 -0.1885  0.1241  0.3850
  471MOL0     C63476  13.195   9.494  11.156 -0.8398  0.5436 -0.9493
  471MOL0     C63477  13.317   9.481  11.227 -1.0062  0.7120 -0.1149
  471MOL0     C63478  13.337   9.532  11.359  0.6386  0.3285  0.8620
  471MOL0     C63479  13.456   9.490  11.429 -0.2968 -0.5484 -0.4646
  471MOL0     O63480  13.564   9.465  11.353 -0.1940 -0.4729 -0.8303
  471MOL0     C63481  13.684   9.440  11.420  0.1484  0.0006 -0.1305
  471MOL0     C63482  13.769   9.336  11.375  0.5154  0.2992 -0.0959
  471MOL0     C63483  13.896   9.319  11.432 -0.8024  0.5727 -0.7379
  471MOL0     C63484  13.949   9.412  11.529 -0.0735 -0.0494  0.3197
  471MOL0     O63485  14.075   9.405  11.578  0.3794 -0.5123  0.4947
  471MOL0     C63486  14.140   9.281  11.604  0.7254 -0.4717  0.0242
  471MOL0     C63487  14.208   9.272  11.742 -0.4356  0.3335 -0.3350
  471MOL0     C63488  14.339   9.346  11.756  0.2610  0.5297  0.0201
  471MOL0     C63489  14.405   9.315  11.885 -0.2807  1.1605  0.5520
  471MOL0     C63490  14.541   9.379  11.896  0.0028  0.2693  0.7169
  471MOL0     C63491  14.660   9.317  11.821  0.7184 -0.4811  0.5374
  471MOL0     C63492  14.766   9.423  11.797  0.6265  0.0909  0.6143
  471MOL0     C63493  14.859   9.430  11.917 -0.1348 -0.5978 -0.5047
  471MOL0    Cl63494  14.974   9.562  11.878 -0.0195 -0.0497  0.0302
  471MOL0     C63495  13.860   9.510  11.578 -0.7741  0.8608 -0.2550
  471MOL0     C63496  13.731   9.522  11.533  0.9405 -0.1465  0.8466
  471MOL0     O63497  13.452   9.497  11.551 -0.2736 -0.7375  0.1332
  471MOL0     C63498  13.225   9.587  11.418 -0.0896 -0.0257  0.1957
  471MOL0     C63499  13.108   9.614  11.347 -0.3001  0.4886  0.0465
  471MOL0     N63500  12.445   9.788  10.918 -0.3550 -0.2211 -0.3270
  471MOL0     N63501  12.354   9.869  10.964  0.2999 -0.7749  0.9295
  471MOL0     C63502  11.103   9.986  11.045 -0.6306 -0.0229 -0.1347
  471MOL0     C63503  10.970   9.971  11.040 -0.0452 -0.2131  0.9813
  471MOL0     C63504  10.545   9.897  11.237  0.1322  0.2786 -0.6014
  471MOL0     C63505  10.467  10.017  11.253 -0.4468 -0.1806  1.0577
  471MOL0     C63506  10.329  10.008  11.255  0.6214  0.5570  0.5289
  471MOL0     C63507  10.267   9.880  11.272  0.0570 -0.6574  0.2626
  471MOL0     O63508  10.130   9.862  11.278 -0.4149  0.8965  0.3448
  471MOL0     C63509  10.053   9.967  11.325  0.0829 -0.1044 -0.1133
  471MOL0     C63510   9.905   9.922  11.316  0.3798  0.0999  0.4178
  471MOL0     C63511   9.859   9.792  11.385  0.2705 -1.5627 -0.3566
  471MOL0     C63512   9.711   9.783  11.392 -0.5075  0.5667 -0.2353
  471MOL0     C63513   9.658   9.874  11.488  0.2733 -0.4980 -0.4313
  471MOL0     C63514   9.595   9.949  11.561 -1.4238  0.3241 -0.1720
  471MOL0     C63515  10.347   9.769  11.256 -0.4545  0.5348  0.5404
  471MOL0     C63516  10.483   9.773  11.231 -0.9950 -0.1961 -0.4002
  471MOL0     C63517  10.566   9.639  11.210 -0.3335 -0.0975 -0.4287
  471MOL0     H63518  10.910   9.709  11.235 -0.3315 -0.2753 -0.6892
  471MOL0     H63519  11.169   9.749  11.277 -1.2411  0.0468  1.0826
  471MOL0     H63520  11.298   9.915  11.356  2.0000 -0.9092  2.2042
  471MOL0     H63521  11.384   9.787  11.270  1.4526  1.0882 -1.9587
  471MOL0     H63522  11.512   9.954  11.404 -0.3167  0.7705  0.9468
  471MOL0     H63523  11.485  10.077  11.275 -0.3047 -1.1878 -1.6089
  471MOL0     H63524  11.601   9.924  11.112 -3.3804 -2.5665 -0.8240
  471MOL0     H63525  11.598   9.804  11.231  0.5566  0.3166 -1.1919
  471MOL0     H63526  11.759  10.065  11.248 -0.9948  0.9024  0.5698
  471MOL0     H63527  11.755   9.957  11.380  2.5140  2.4653 -0.4085
  471MOL0     H63528  11.851   9.772  11.261 -2.5470  0.0902  0.4025
  471MOL0     H63529  11.840   9.853  11.104 -0.7184  1.5492  0.1070
  471MOL0     H63530  11.985  10.028  11.192 -0.6609  1.3350  1.1917
  471MOL0     H63531  12.018   9.936  11.343  0.2687  2.2441 -0.8144
  471MOL0     H63532  12.066   9.854  11.058  0.5408  1.8207  0.3441
  471MOL0     H63533  12.073   9.734  11.187  2.3861 -1.0877 -2.1484
  471MOL0     H63534  12.228  10.003  11.157 -1.6021  0.5530  1.4168
  471MOL0     H63535  12.248   9.886  11.286 -3.6465  1.8798  0.7639
  471MOL0     H63536  12.420   9.685  11.222  1.5333 -0.8432 -0.3918
  471MOL0     H63537  12.516   9.496  11.036 -0.3084  1.0083  1.7057
  471MOL0     H63538  12.609   9.578  10.906 -3.1419  0.8127 -0.6382
  471MOL0     H63539  12.657   9.588  11.200  0.1327  1.9601 -0.0632
  471MOL0     H63540  12.750   9.500  11.066  1.1489 -0.6906  2.2204
  471MOL0     H63541  12.719   9.804  11.122  0.1418 -0.3560  0.6190
  471MOL0     H63542  12.811   9.742  10.979  1.4699  0.7158  0.2336
  471MOL0     H63543  12.882   9.695  11.275  1.7863 -1.1407  0.5213
  471MOL0     H63544  12.965   9.803  11.156  0.4839 -0.7315  0.4804
  471MOL0     H63545  13.187   9.464  11.052  2.1343  2.8056 -1.9676
  471MOL0     H63546  13.392   9.414  11.185 -0.9098  0.4307  0.5075
  471MOL0     H63547  13.733   9.272  11.294 -0.4262  0.5864  0.0852
  471MOL0     H63548  13.951   9.242  11.379 -0.6631  0.4860 -0.4689
  471MOL0     H63549  14.072   9.195  11.602 -0.0522  0.1475 -0.6225
  471MOL0     H63550  14.220   9.269  11.530  1.5917 -3.1716  1.2542
  471MOL0     H63551  14.138   9.310  11.817  1.0788  1.7078  0.4449
  471MOL0     H63552  14.239   9.168  11.760  2.5580  1.1885  0.0637
  471MOL0     H63553  14.410   9.323  11.676  0.2502  2.9929 -0.7537
  471MOL0     H63554  14.317   9.453  11.754 -0.3017  0.4340  0.7093
  471MOL0     H63555  14.413   9.206  11.894  0.1510  0.6624 -3.7348
  471MOL0     H63556  14.344   9.359  11.965 -2.8393 -1.9209  0.4705
  471MOL0     H63557  14.570   9.371  12.001  0.1184  1.3450  0.7800
  471MOL0     H63558  14.530   9.485  11.869  1.8011  1.0294  2.6813
  471MOL0     H63559  14.700   9.228  11.871 -0.1723 -1.0618  0.2284
  471MOL0     H63560  14.624   9.284  11.723  1.3519  0.5281 -0.0469
  471MOL0     H63561  14.721   9.517  11.765  1.9626  0.9642  1.2453
  471MOL0     H63562  14.828   9.395  11.711 -0.0868  0.9495 -0.2085
  471MOL0     H63563  14.799   9.448  12.006 -0.0023  1.7323 -0.8216
  471MOL0     H63564  14.916   9.337  11.929  1.7288  0.4896 -0.4827
  471MOL0     H63565  13.902   9.583  11.647 -1.8162 -0.8092  2.3273
  471MOL0     H63566  13.675   9.606  11.571 -2.3501 -2.8192  2.4147
  471MOL0     H63567  13.227   9.614  11.523 -1.3257 -1.3423  0.5923
  471MOL0     H63568  13.019   9.644  11.401  0.1594  0.8659  0.6134
  471MOL0     H63569  11.149  10.062  10.983 -0.8469 -2.7148 -3.9054
  471MOL0     H63570  10.910  10.034  10.975 -0.7016 -2.0271 -0.2657
  471MOL0     H63571  10.514  10.113  11.233 -0.2507 -0.7818 -1.8408
  471MOL0     H63572  10.262  10.093  11.254  0.4451  0.4179  0.4335
  471MOL0     H63573  10.066  10.058  11.267 -0.3146  1.1878  1.7331
  471MOL0     H63574  10.069   9.988  11.431 -2.7860  0.6517  0.2389
  471MOL0     H63575   9.881   9.919  11.210 -1.1435  0.9344  0.7177
  471MOL0     H63576   9.842  10.001  11.357  1.9063  2.6045 -1.6838
  471MOL0     H63577   9.915   9.795  11.479 -0.3575  2.8796  0.0992
  471MOL0     H63578   9.891   9.708  11.322 -2.1497 -4.0654  1.5352
  471MOL0     H63579   9.663   9.812  11.298 -0.5350  1.4124  0.0339
  471MOL0     H63580   9.675   9.685  11.425  1.6481 -0.5139 -0.8629
  471MOL0     H63581   9.534  10.021  11.611 -3.1880 -0.9737 -0.3835
  471MOL0     H63582  10.300   9.672  11.253  0.1450  0.2226  0.9510
  471MOL0     H63583  10.577   9.592  11.308 -1.0826  1.9803  0.7039
  471MOL0     H63584  10.513   9.577  11.137 -2.0181 -2.3824  2.5134
  471MOL0     H63585  10.670   9.643  11.175 -0.0859 -2.2415 -0.0670
  472MOL0     O63586  10.046   3.720   0.892  0.6276 -0.7027  0.2941
  472MOL0     C63587  10.035   3.810   0.806  0.4263 -0.9887  0.2134
  472MOL0     O63588  10.116   3.921   0.792  0.5942  0.4115  0.1222
  472MOL0     C63589  10.217   3.912   0.885 -0.3980 -0.1162  0.5990
  472MOL0     C63590  10.217   3.979   1.010  0.4783 -0.2849 -0.0140
  472MOL0     C63591  10.321   3.960   1.108 -1.0620 -0.0042  0.6091
  472MOL0     C63592  10.428   3.874   1.084  0.0894  0.2730  0.6805
  472MOL0     O63593  10.531   3.863   1.180  0.2843  0.6839  0.2778
  472MOL0     C63594  10.645   3.782   1.168  0.4894  1.1173  0.0536
  472MOL0     C63595  10.757   3.808   1.275  1.1220 -0.6572 -0.3821
  472MOL0     C63596  10.818   3.949   1.269  0.2250 -0.3327  0.4190
  472MOL0     C63597  10.928   3.973   1.371  0.3256  0.0754 -0.0090
  472MOL0     C63598  11.063   3.930   1.319 -0.9166 -0.2284  0.6264
  472MOL0     C63599  11.116   3.799   1.378  0.0318  0.3994  0.0300
  472MOL0     C63600  11.216   3.713   1.284  0.4525 -0.2892 -1.3155
  472MOL0     C63601  11.355   3.769   1.279 -0.0932  0.2257 -0.1593
  472MOL0     N63602  11.374   3.900   1.221  1.0461  0.5964  0.3930
  472MOL0     C63603  11.350   3.936   1.093 -0.3689  0.6207  0.3045
  472MOL0     C63604  11.401   4.063   1.078  0.4238  0.7200 -0.4840
  472MOL0     C63605  11.375   4.152   0.963  0.4172  0.0541  1.2559
  472MOL0     C63606  11.275   4.270   0.992 -0.0012  0.1541  0.3507
  472MOL0     C63607  11.144   4.218   1.041  0.7914 -0.4528 -0.0516
  472MOL0     C63608  11.031   4.318   0.991 -0.0022  0.3965  0.0971
  472MOL0     O63609  10.912   4.269   1.047 -0.1424  0.7179  0.1965
  472MOL0     C63610  10.795   4.307   0.995 -0.6765  0.0692  0.0728
  472MOL0     C63611  10.759   4.440   0.993 -0.6157  0.7936  0.7916
  472MOL0     C63612  10.644   4.485   0.930 -0.3747 -0.3814 -1.1721
  472MOL0     C63613  10.547   4.393   0.890  0.9504  0.4971 -1.2785
  472MOL0     C63614  10.409   4.438   0.842 -0.5553  0.5064  0.4011
  472MOL0     O63615  10.324   4.344   0.801 -0.2755  0.0680  0.2654
  472MOL0     C63616  10.197   4.376   0.748 -0.4212 -0.0852 -0.2956
  472MOL0     C63617  10.171   4.489   0.666  0.1931 -0.3697 -0.1700
  472MOL0     C63618  10.047   4.509   0.615  0.3233  0.4090 -0.3501
  472MOL0     C63619   9.950   4.410   0.640  0.7109  0.1767 -1.1169
  472MOL0     O63620   9.828   4.431   0.577 -0.5434 -0.4281 -0.0469
  472MOL0     C63621   9.761   4.307   0.570 -0.5223  0.5254  0.7739
  472MOL0     C63622   9.656   4.347   0.460 -0.3290 -0.3660 -0.6033
  472MOL0     C63623   9.541   4.248   0.448  0.8808 -0.2226  0.7821
  472MOL0     C63624   9.416   4.290   0.528  0.0731 -0.0009 -0.6273
  472MOL0     C63625   9.298   4.186   0.512 -0.2984 -0.7299  0.9923
  472MOL0     C63626   9.170   4.230   0.586 -0.1047  0.3988 -0.5685
  472MOL0     C63627   9.051   4.130   0.568 -0.1345  0.3056  1.1980
  472MOL0     C63628   8.935   4.155   0.669  0.5772 -0.4914  0.1756
  472MOL0    Cl63629   8.968   4.143   0.840 -0.3589 -0.5346 -0.1251
  472MOL0     C63630   9.979   4.295   0.715 -0.0661  0.2555 -0.7094
  472MOL0     C63631  10.102   4.274   0.776 -0.1517 -0.0016 -0.7281
  472MOL0     O63632  10.385   4.558   0.860 -0.6756  0.6088 -0.3312
  472MOL0     C63633  10.568   4.252   0.896 -0.9350 -0.0470 -0.0806
  472MOL0     C63634  10.695   4.216   0.950 -0.0585  0.8378 -0.8209
  472MOL0     N63635  11.472   4.094   1.191  0.7965 -0.0422  0.0667
  472MOL0     N63636  11.454   3.994   1.272 -0.2586 -0.3164 -0.5928
  472MOL0     C63637  10.422   3.795   0.965  0.8005  0.0308 -0.1952
  472MOL0     C63638  10.323   3.821   0.866 -0.2320 -0.1449  0.3168
  472MOL0     C63639   9.927   3.800   0.710 -0.1293 -0.2747  0.3157
  472MOL0     C63640   9.843   3.914   0.701  0.4243 -0.4442  0.3491
  472MOL0     C63641   9.735   3.921   0.613 -0.1911 -0.4917  0.8790
  472MOL0     C63642   9.705   3.810   0.530 -0.0302 -0.2531 -0.6568
  472MOL0     O63643   9.596   3.828   0.440  0.3793  0.2291 -0.2475
  472MOL0     C63644   9.591   3.727   0.337 -0.4332 -0.8778 -0.1581
  472MOL0     C63645   9.493   3.770   0.231  0.2227 -0.1553 -0.7904
  472MOL0     C63646   9.351   3.786   0.287  0.6677  0.1572  0.6365
  472MOL0     C63647   9.251   3.825   0.171 -0.3296  0.3069 -0.6728
  472MOL0     C63648   9.258   3.969   0.137 -0.7447  0.0949  0.1015
  472MOL0     C63649   9.266   4.088   0.133  0.4410  1.0795  1.0404
  472MOL0     C63650   9.779   3.695   0.556 -0.2936 -0.5996 -0.4208
  472MOL0     C63651   9.895   3.682   0.632  0.0589 -0.2453 -0.0051
  472MOL0     C63652   9.961   3.544   0.628 -0.2630 -0.3731 -0.3261
  472MOL0     H63653  10.122   4.028   1.033  1.6137  1.8387  0.4487
  472MOL0     H63654  10.319   4.015   1.201 -1.3689  3.3364 -1.2091
  472MOL0     H63655  10.610   3.678   1.173  1.7937  0.6814  0.7547
  472MOL0     H63656  10.684   3.801   1.068  1.7456  1.3095  0.5560
  472MOL0     H63657  10.823   3.722   1.265  0.9054 -0.9008  0.2489
  472MOL0     H63658  10.699   3.799   1.368  2.3917 -1.7218  0.3377
  472MOL0     H63659  10.743   4.026   1.287  1.1930  0.5168  0.8729
  472MOL0     H63660  10.858   3.958   1.167 -3.8178 -3.3279 -1.7529
  472MOL0     H63661  10.934   4.081   1.387  4.3607  0.2084 -1.2880
  472MOL0     H63662  10.898   3.942   1.471 -1.1084  0.6602 -0.2439
  472MOL0     H63663  11.045   3.921   1.211 -0.8697  0.1269  0.5868
  472MOL0     H63664  11.137   4.010   1.324 -2.0934  0.8463  1.6757
  472MOL0     H63665  11.177   3.811   1.469  1.9664 -1.7815 -0.8778
  472MOL0     H63666  11.036   3.736   1.418  0.5756  0.9803  2.2178
  472MOL0     H63667  11.165   3.702   1.188 -1.2894 -0.8716 -0.3739
  472MOL0     H63668  11.220   3.610   1.321 -5.7867 -0.0119  1.3619
  472MOL0     H63669  11.390   3.781   1.382  0.3125  0.6400 -0.3392
  472MOL0     H63670  11.421   3.700   1.225  0.3741 -0.2213  0.9510
  472MOL0     H63671  11.305   3.875   1.015  0.6765 -0.1490  0.2756
  472MOL0     H63672  11.469   4.192   0.922 -1.0694  0.0787 -2.4785
  472MOL0     H63673  11.324   4.092   0.887  2.8417  0.5722 -0.9307
  472MOL0     H63674  11.311   4.331   1.075 -0.9597 -0.8350  1.5310
  472MOL0     H63675  11.263   4.332   0.903  0.4926  2.0836  1.5892
  472MOL0     H63676  11.139   4.230   1.150 -0.4092 -1.5927  0.0480
  472MOL0     H63677  11.133   4.114   1.007 -1.2768 -0.2068 -0.2798
  472MOL0     H63678  11.023   4.325   0.882  1.4623  1.5854  0.0411
  472MOL0     H63679  11.048   4.421   1.021 -1.1577  1.0139 -1.2374
  472MOL0     H63680  10.824   4.514   1.039 -0.0800  0.4648  0.5741
  472MOL0     H63681  10.632   4.592   0.926  4.8193  0.5619  0.7223
  472MOL0     H63682  10.244   4.566   0.647  0.0468  0.2530  1.5717
  472MOL0     H63683  10.021   4.607   0.575 -0.4279  0.8490  1.1273
  472MOL0     H63684   9.820   4.222   0.534  0.7812  1.3947  0.7707
  472MOL0     H63685   9.716   4.286   0.667 -0.2577  0.5117  0.8952
  472MOL0     H63686   9.618   4.443   0.496  0.7634  0.5396 -1.7559
  472MOL0     H63687   9.715   4.373   0.371 -0.3353  0.3517 -0.4046
  472MOL0     H63688   9.512   4.240   0.343  0.8816 -1.5231  0.8543
  472MOL0     H63689   9.565   4.144   0.471 -4.4795 -2.3507 -1.4305
  472MOL0     H63690   9.379   4.385   0.486  1.5061  0.0855 -1.7795
  472MOL0     H63691   9.440   4.303   0.634 -1.4140 -0.2482 -0.2426
  472MOL0     H63692   9.327   4.084   0.534  0.9538 -0.8697 -1.0289
  472MOL0     H63693   9.286   4.190   0.403 -3.8404 -3.5637  1.1023
  472MOL0     H63694   9.206   4.219   0.689  2.4335  4.4653 -0.7899
  472MOL0     H63695   9.145   4.332   0.555 -2.1319 -0.5094 -2.1759
  472MOL0     H63696   9.067   4.024   0.546 -2.5732  0.4976 -2.4993
  472MOL0     H63697   9.019   4.160   0.468  0.1413 -0.8263  0.7600
  472MOL0     H63698   8.911   4.259   0.644 -0.9852 -0.7488  0.5057
  472MOL0     H63699   8.850   4.095   0.636 -1.4119  0.8762  2.4984
  472MOL0     H63700   9.920   4.205   0.732  2.5706 -2.0526 -2.8838
  472MOL0     H63701  10.121   4.192   0.843  0.1734  0.0899 -0.7053
  472MOL0     H63702  10.495   4.172   0.887  0.4956 -1.2572 -1.9017
  472MOL0     H63703  10.727   4.113   0.964  1.6309  1.5137  0.7689
  472MOL0     H63704  10.482   3.704   0.966  2.9718  1.3675  1.8605
  472MOL0     H63705  10.324   3.752   0.782 -0.8137  0.9874 -0.6359
  472MOL0     H63706   9.871   4.002   0.759  0.0144  1.0719 -1.6680
  472MOL0     H63707   9.678   4.013   0.608 -1.6619 -1.3359  1.4231
  472MOL0     H63708   9.567   3.629   0.379  2.3892 -1.3620  0.5080
  472MOL0     H63709   9.690   3.710   0.293  0.6809  0.8399  1.5310
  472MOL0     H63710   9.500   3.705   0.143 -0.1390 -3.6005  1.5407
  472MOL0     H63711   9.520   3.871   0.199  0.1333  0.0460 -0.2369
  472MOL0     H63712   9.353   3.863   0.365  0.2799  2.2760 -1.3516
  472MOL0     H63713   9.325   3.689   0.331 -1.0136  0.3339  0.1186
  472MOL0     H63714   9.280   3.770   0.081 -1.2791  0.4757 -1.0880
  472MOL0     H63715   9.150   3.799   0.203  0.0300 -1.1469 -0.6726
  472MOL0     H63716   9.284   4.194   0.137 -1.8020  1.6169 -0.7099
  472MOL0     H63717   9.753   3.606   0.501  2.7617 -1.6788 -0.2974
  472MOL0     H63718   9.991   3.525   0.525  2.8784  0.5558  0.3089
  472MOL0     H63719  10.051   3.537   0.691 -0.6773  0.8466  0.4399
  472MOL0     H63720   9.900   3.458   0.657 -1.4484  0.0691 -1.4157
  473MOL0     O63721   1.251   4.284   3.661  0.4160  0.0939  0.4815
  473MOL0     C63722   1.210   4.369   3.581  0.0618  0.4093  0.0299
  473MOL0     O63723   1.084   4.373   3.526 -0.0775  0.1137 -0.7428
  473MOL0     C63724   0.977   4.298   3.559  0.0839  0.3223  0.3730
  473MOL0     C63725   0.965   4.181   3.638 -0.4417 -0.2404  0.3439
  473MOL0     C63726   0.841   4.127   3.659  0.6996  0.3858 -1.2839
  473MOL0     C63727   0.719   4.188   3.624 -1.3862  0.9008 -0.1088
  473MOL0     O63728   0.603   4.122   3.667 -0.5659 -0.4915  0.6958
  473MOL0     C63729   0.480   4.174   3.636 -0.3711 -0.5811  0.8010
  473MOL0     C63730   0.426   4.121   3.496  0.6319  0.2548 -0.4754
  473MOL0     C63731   0.274   4.136   3.463 -0.6921  0.2388  0.1239
  473MOL0     C63732   0.232   4.038   3.351  0.3979  0.5373 -0.8585
  473MOL0     C63733   0.070   4.056   3.337 -0.4727 -0.0514  0.1744
  473MOL0     C63734   0.033   4.018   3.191 -1.3917 -0.0741 -0.5604
  473MOL0     C63735  -0.102   4.068   3.150  0.1060  1.0994  0.4418
  473MOL0     C63736  -0.215   3.990   3.224  0.3522 -0.0067 -1.0907
  473MOL0     N63737  -0.341   4.038   3.170 -0.5303 -0.5540  0.2511
  473MOL0     C63738  -0.371   4.055   3.036  0.2978 -0.3442 -0.1883
  473MOL0     C63739  -0.485   4.118   3.047  0.5028  0.0528  1.0830
  473MOL0     C63740  -0.567   4.168   2.927 -0.3452 -0.5764  0.5204
  473MOL0     C63741  -0.690   4.081   2.914 -0.1327  0.5345 -0.3430
  473MOL0     C63742  -0.789   4.131   2.806 -0.0183 -0.6671  0.4203
  473MOL0     C63743  -0.893   4.224   2.868 -0.2593  0.2815 -0.0776
  473MOL0     O63744  -0.811   4.325   2.933  0.6559 -0.7922 -0.7971
  473MOL0     C63745  -0.882   4.416   3.012  0.3435  0.4396 -0.2385
  473MOL0     C63746  -0.796   4.486   3.104 -0.2601  0.6438 -0.1614
  473MOL0     C63747  -0.857   4.592   3.188 -0.3418 -0.0232  0.3078
  473MOL0     C63748  -0.989   4.620   3.185 -0.0515  0.2730 -0.4581
  473MOL0     C63749  -1.051   4.698   3.290  0.8330 -0.0438 -0.1654
  473MOL0     O63750  -0.987   4.718   3.406 -0.7420 -0.8443  0.3037
  473MOL0     C63751  -1.058   4.739   3.522  0.6972 -0.7504  0.8725
  473MOL0     C63752  -1.001   4.820   3.623 -0.2651 -0.3456  0.9960
  473MOL0     C63753  -1.059   4.863   3.739 -0.3252 -0.3040 -0.5827
  473MOL0     C63754  -1.193   4.835   3.746  0.5241 -0.4804  0.1363
  473MOL0     O63755  -1.237   4.860   3.873  0.0908 -0.4085 -0.1262
  473MOL0     C63756  -1.371   4.814   3.909  0.1748  0.0027 -0.3839
  473MOL0     C63757  -1.396   4.822   4.064 -0.5075  0.1113  0.1683
  473MOL0     C63758  -1.386   4.962   4.117 -0.6429 -0.2028 -0.2278
  473MOL0     C63759  -1.504   5.044   4.059  0.1479 -1.1080 -0.6221
  473MOL0     C63760  -1.521   5.189   4.104 -0.0790  1.1262 -0.1855
  473MOL0     C63761  -1.652   5.265   4.056 -0.4691  0.8090 -0.7857
  473MOL0     C63762  -1.785   5.206   4.101  0.9123  0.1791 -0.1327
  473MOL0     C63763  -1.901   5.290   4.057 -1.0196  0.7185  0.1022
  473MOL0    Cl63764  -1.885   5.470   4.108  0.1770  0.1358  0.1579
  473MOL0     C63765  -1.257   4.759   3.655  0.6709 -0.1307 -0.2833
  473MOL0     C63766  -1.191   4.709   3.549  0.0777  0.0003  0.6667
  473MOL0     O63767  -1.163   4.729   3.272  0.2867  0.1365  1.1729
  473MOL0     C63768  -1.069   4.539   3.103 -0.1938 -0.2921  1.0219
  473MOL0     C63769  -1.019   4.445   3.011 -0.2441  0.3934 -0.5078
  473MOL0     N63770  -0.531   4.137   3.179  0.3377 -0.5182 -0.1801
  473MOL0     N63771  -0.447   4.077   3.248 -0.0366 -1.1957  0.3560
  473MOL0     C63772   0.729   4.304   3.552  0.1467 -1.2263 -0.4814
  473MOL0     C63773   0.856   4.358   3.515  0.4637 -0.7124 -0.2162
  473MOL0     C63774   1.294   4.482   3.519 -0.6078 -0.6495  0.3961
  473MOL0     C63775   1.242   4.600   3.456  0.0714  0.5787 -0.0274
  473MOL0     C63776   1.323   4.700   3.410 -0.1212 -0.4930 -0.1559
  473MOL0     C63777   1.464   4.678   3.391 -0.2025  0.0428 -0.1605
  473MOL0     O63778   1.565   4.764   3.344 -1.0396 -0.0073  0.5440
  473MOL0     C63779   1.524   4.873   3.261  0.6025 -0.0440 -0.9528
  473MOL0     C63780   1.654   4.891   3.181  0.2839  0.0569  0.0273
  473MOL0     C63781   1.640   5.006   3.079 -0.2964 -1.0926  0.6031
  473MOL0     C63782   1.609   4.944   2.949  0.2046  0.1911  0.6483
  473MOL0     C63783   1.711   4.893   2.859 -0.7606 -0.6477  0.3953
  473MOL0     C63784   1.812   4.874   2.793 -0.3733 -0.2020  0.0133
  473MOL0     C63785   1.517   4.559   3.445  0.7662  0.1684  0.1618
  473MOL0     C63786   1.434   4.465   3.515  0.1813  0.4326  0.5332
  473MOL0     C63787   1.500   4.371   3.599  0.1218 -0.2417  1.2468
  473MOL0     H63788   1.054   4.135   3.680  0.2013  1.1616  0.6094
  473MOL0     H63789   0.843   4.037   3.719 -1.3630  1.9802  1.3789
  473MOL0     H63790   0.420   4.119   3.708 -3.0969 -1.5165 -1.9794
  473MOL0     H63791   0.466   4.279   3.665 -1.2430 -0.4097 -0.1696
  473MOL0     H63792   0.454   4.015   3.493 -0.5450 -0.1330  0.9851
  473MOL0     H63793   0.483   4.175   3.421  0.9363 -2.2010 -2.1464
  473MOL0     H63794   0.253   4.237   3.426 -0.9411  1.2475  2.7611
  473MOL0     H63795   0.216   4.136   3.556  0.1135  1.5654  0.6619
  473MOL0     H63796   0.269   4.073   3.254 -0.1636 -0.8766 -1.6065
  473MOL0     H63797   0.268   3.938   3.375  0.9538  0.7103 -0.9373
  473MOL0     H63798   0.011   3.997   3.407 -0.7697 -0.4451 -0.3941
  473MOL0     H63799   0.040   4.160   3.347  2.2870  0.7967  0.3494
  473MOL0     H63800   0.105   4.051   3.116  0.3828 -2.9096 -0.2441
  473MOL0     H63801   0.044   3.911   3.171 -2.1049 -0.5056  1.1415
  473MOL0     H63802  -0.104   4.066   3.041  0.3558  4.0707  0.3092
  473MOL0     H63803  -0.110   4.176   3.167 -0.5315  1.3152 -1.1061
  473MOL0     H63804  -0.204   3.882   3.216  2.0762  0.1713 -1.6683
  473MOL0     H63805  -0.212   4.030   3.326  0.4646  0.2788 -1.2020
  473MOL0     H63806  -0.323   4.031   2.941 -1.2319 -0.4082 -0.9776
  473MOL0     H63807  -0.581   4.275   2.944  0.2900  0.3462 -3.7494
  473MOL0     H63808  -0.505   4.170   2.837  2.4905 -1.2977  2.2962
  473MOL0     H63809  -0.654   3.994   2.859 -0.3045  1.5289 -2.1076
  473MOL0     H63810  -0.752   4.052   3.000 -1.9249 -2.4934 -2.4545
  473MOL0     H63811  -0.839   4.045   2.761 -0.0781  0.4365 -1.8005
  473MOL0     H63812  -0.738   4.178   2.721 -1.5514  0.4154  0.0378
  473MOL0     H63813  -0.953   4.166   2.938 -1.1787 -1.3216 -2.0820
  473MOL0     H63814  -0.956   4.253   2.783 -2.0993 -3.7880 -0.3473
  473MOL0     H63815  -0.689   4.471   3.112 -0.5650 -0.7892  4.8326
  473MOL0     H63816  -0.791   4.638   3.260 -0.4814  0.0191  0.4100
  473MOL0     H63817  -0.902   4.860   3.602  0.1078 -1.3221  0.8642
  473MOL0     H63818  -0.999   4.921   3.808 -0.2996  1.1342 -1.7592
  473MOL0     H63819  -1.450   4.874   3.863 -3.0891 -2.5146  1.4291
  473MOL0     H63820  -1.390   4.710   3.881 -1.3460  1.1348 -4.0324
  473MOL0     H63821  -1.494   4.776   4.082 -0.2110 -0.4772  0.3047
  473MOL0     H63822  -1.321   4.756   4.110  0.3778  1.5796  0.8926
  473MOL0     H63823  -1.383   4.962   4.226 -2.2774  0.9314 -0.1483
  473MOL0     H63824  -1.291   5.003   4.081 -1.0324 -1.4948 -3.0245
  473MOL0     H63825  -1.599   4.989   4.063  0.7572 -2.2951 -1.7896
  473MOL0     H63826  -1.485   5.052   3.951  1.2418  3.3382 -0.2994
  473MOL0     H63827  -1.434   5.243   4.066 -0.6808  0.2302 -3.1116
  473MOL0     H63828  -1.517   5.180   4.213 -0.6048  1.7751 -0.1057
  473MOL0     H63829  -1.646   5.362   4.106 -1.6265  0.3701  0.2413
  473MOL0     H63830  -1.652   5.275   3.947 -4.3161 -0.7689 -1.0928
  473MOL0     H63831  -1.800   5.209   4.210 -1.7486 -0.7776 -0.4167
  473MOL0     H63832  -1.810   5.108   4.061 -1.5213  0.6085  0.2011
  473MOL0     H63833  -1.889   5.287   3.949 -1.4245 -0.3837  0.0765
  473MOL0     H63834  -1.997   5.249   4.089 -1.8575  0.4409 -2.5173
  473MOL0     H63835  -1.364   4.739   3.656  0.3336  1.4741  1.1245
  473MOL0     H63836  -1.242   4.653   3.471  0.7481  0.8687 -0.4373
  473MOL0     H63837  -1.174   4.564   3.097  0.4020  2.3142 -0.1452
  473MOL0     H63838  -1.081   4.405   2.931  1.9533 -1.1950 -1.5283
  473MOL0     H63839   0.644   4.362   3.519  0.4245 -0.2676  0.4491
  473MOL0     H63840   0.853   4.451   3.460  0.6537 -0.0003  0.9500
  473MOL0     H63841   1.134   4.611   3.445  0.2759  2.5233 -0.3566
  473MOL0     H63842   1.277   4.793   3.380  0.2986 -0.1558  0.2349
  473MOL0     H63843   1.515   4.958   3.328  4.4267 -0.9849  1.0358
  473MOL0     H63844   1.440   4.854   3.193  0.1998 -0.6084 -0.3201
  473MOL0     H63845   1.689   4.799   3.134 -0.1816  0.8861 -2.0071
  473MOL0     H63846   1.732   4.929   3.248  0.1619  1.5854 -0.6562
  473MOL0     H63847   1.741   5.049   3.070  0.1755 -2.4928 -1.6343
  473MOL0     H63848   1.569   5.086   3.102  2.5792  2.2535 -1.2322
  473MOL0     H63849   1.533   4.869   2.969  0.3383 -0.4116 -0.9726
  473MOL0     H63850   1.549   5.017   2.894  1.8552  0.3683 -1.0187
  473MOL0     H63851   1.889   4.861   2.720 -2.5280 -3.2763 -1.9433
  473MOL0     H63852   1.624   4.542   3.440  1.0820  1.9348  0.4332
  473MOL0     H63853   1.608   4.391   3.603  0.2801 -0.6790 -0.3164
  473MOL0     H63854   1.463   4.394   3.699 -3.2197  1.0095 -0.1499
  473MOL0     H63855   1.477   4.267   3.575  1.1935 -0.2167  0.0265
  474MOL0     O63856   9.339   9.428  10.786 -0.5376  0.2814  0.5837
  474MOL0     C63857   9.279   9.532  10.797 -0.2286  0.9132 -0.5644
  474MOL0     O63858   9.325   9.648  10.745  0.1945  0.4579 -0.5226
  474MOL0     C63859   9.441   9.665  10.677  0.3168  0.2551  0.0745
  474MOL0     C63860   9.447   9.761  10.576  0.3447  0.3754  0.3291
  474MOL0     C63861   9.557   9.777  10.505 -0.3317  0.3040  0.1916
  474MOL0     C63862   9.678   9.712  10.535 -0.2684  0.9695 -1.1849
  474MOL0     O63863   9.794   9.759  10.473 -0.0469 -0.1466 -0.0786
  474MOL0     C63864   9.922   9.704  10.495 -0.5231  0.3926  0.2365
  474MOL0     C63865  10.007   9.774  10.390 -0.5529 -0.7296  0.9397
  474MOL0     C63866  10.150   9.711  10.374 -0.0316  0.0728  0.2462
  474MOL0     C63867  10.225   9.790  10.267  0.0499 -0.8986  0.3585
  474MOL0     C63868  10.378   9.752  10.245  0.6614 -0.5782  0.9005
  474MOL0     C63869  10.463   9.817  10.360  0.5651 -0.7545  0.3180
  474MOL0     C63870  10.493   9.965  10.340  0.5788  0.1540 -0.3027
  474MOL0     C63871  10.543  10.032  10.476  0.9792 -0.0349 -0.2887
  474MOL0     N63872  10.666   9.973  10.515 -0.1041  0.5396 -0.7071
  474MOL0     C63873  10.685   9.874  10.612 -0.4095  0.8163 -0.1383
  474MOL0     C63874  10.819   9.847  10.615 -0.6573 -1.1573 -0.1457
  474MOL0     C63875  10.889   9.734  10.668 -0.0691 -0.3806 -0.0009
  474MOL0     C63876  11.025   9.770  10.708 -0.3928  0.4097 -0.9204
  474MOL0     C63877  11.069   9.657  10.810  1.0631  0.1236  0.2457
  474MOL0     C63878  11.216   9.668  10.858  0.4148 -0.4200  0.2863
  474MOL0     O63879  11.291   9.554  10.807 -0.0239  0.6498  0.4882
  474MOL0     C63880  11.428   9.538  10.840 -0.3743 -0.3748 -0.3255
  474MOL0     C63881  11.507   9.625  10.913  0.5477  0.0786  0.0049
  474MOL0     C63882  11.644   9.613  10.938 -0.2032  0.7182 -0.5179
  474MOL0     C63883  11.709   9.501  10.887  1.0065  0.3694 -0.2800
  474MOL0     C63884  11.847   9.481  10.908 -1.1278  0.1983  0.0789
  474MOL0     O63885  11.915   9.381  10.837 -0.1277 -0.1283 -0.2176
  474MOL0     C63886  12.053   9.377  10.830  0.7183 -0.5710  0.5789
  474MOL0     C63887  12.103   9.253  10.807  0.4726 -0.6727 -0.0710
  474MOL0     C63888  12.240   9.238  10.788  0.8608 -0.9359 -1.4206
  474MOL0     C63889  12.319   9.353  10.798 -0.4550  0.0200  0.5332
  474MOL0     O63890  12.454   9.335  10.764 -0.3077  0.1557 -0.2586
  474MOL0     C63891  12.477   9.345  10.620 -0.5666  0.1884 -0.4422
  474MOL0     C63892  12.610   9.279  10.588 -0.3240  0.1671 -0.0896
  474MOL0     C63893  12.714   9.356  10.663  0.1427 -0.2471 -1.0845
  474MOL0     C63894  12.756   9.486  10.596  0.2858  0.0218 -0.1425
  474MOL0     C63895  12.877   9.552  10.648  0.4063 -0.0551  0.3680
  474MOL0     C63896  12.904   9.676  10.573 -0.4018  0.1657 -0.1022
  474MOL0     C63897  13.044   9.727  10.584  0.0082 -0.1081 -0.7025
  474MOL0     C63898  13.155   9.627  10.526  0.4147 -0.0254 -0.6626
  474MOL0    Cl63899  13.115   9.538  10.385 -0.1620  0.0013  0.1624
  474MOL0     C63900  12.268   9.481  10.816  0.0386  0.2581  0.5469
  474MOL0     C63901  12.129   9.494  10.832 -1.4684  0.4124 -0.0617
  474MOL0     O63902  11.900   9.556  10.988 -0.1569 -0.1830  0.0458
  474MOL0     C63903  11.635   9.412  10.810 -0.1015 -0.0260  0.1159
  474MOL0     C63904  11.499   9.432  10.787 -0.8374 -0.2599  0.6711
  474MOL0     N63905  10.875   9.922  10.509  0.0153 -0.2810 -0.8066
  474MOL0     N63906  10.789  10.001  10.460 -0.0919 -0.1332  0.0148
  474MOL0     C63907   9.677   9.626  10.645 -0.5097  0.1632 -0.3815
  474MOL0     C63908   9.558   9.610  10.723 -0.8490  0.1529  0.3299
  474MOL0     C63909   9.156   9.541  10.883  0.1000  0.5380  0.5268
  474MOL0     C63910   9.150   9.661  10.949  0.1127 -0.3176  1.2012
  474MOL0     C63911   9.047   9.680  11.039  0.8171  0.0333  0.5795
  474MOL0     C63912   8.939   9.586  11.048 -0.6051 -0.1096 -0.9090
  474MOL0     O63913   8.823   9.600  11.112  0.0593  0.1137 -0.5222
  474MOL0     C63914   8.786   9.736  11.143 -0.1822 -0.1257  0.1129
  474MOL0     C63915   8.644   9.740  11.184  0.3570 -0.0030 -0.1377
  474MOL0     C63916   8.612   9.661  11.307 -0.1586 -0.0340 -0.1844
  474MOL0     C63917   8.465   9.685  11.358 -0.4710  0.4911 -0.1328
  474MOL0     C63918   8.433   9.585  11.465 -0.4974 -0.4788  0.1800
  474MOL0     C63919   8.428   9.517  11.569 -0.0977 -0.2855  0.0974
  474MOL0     C63920   8.958   9.463  10.994 -0.1502 -0.4616 -0.9252
  474MOL0     C63921   9.055   9.439  10.902 -0.0333 -0.1651 -0.3934
  474MOL0     C63922   9.056   9.304  10.832 -0.6205 -0.4122 -1.1882
  474MOL0     H63923   9.354   9.812  10.556 -0.6777 -1.2023  0.7944
  474MOL0     H63924   9.556   9.842  10.418 -0.2513 -1.0897 -0.8890
  474MOL0     H63925   9.952   9.721  10.599  3.8389  0.4528 -0.8273
  474MOL0     H63926   9.923   9.595  10.489  0.0110 -0.0319  4.4690
  474MOL0     H63927   9.998   9.882  10.406 -3.0546 -0.4223 -1.5504
  474MOL0     H63928   9.957   9.753  10.294  1.4388  1.0940 -0.5946
  474MOL0     H63929  10.151   9.605  10.347 -0.2295 -0.6677  2.9059
  474MOL0     H63930  10.193   9.734  10.471 -0.2704 -0.0262  0.3760
  474MOL0     H63931  10.169   9.777  10.173  1.2466  5.6700 -1.7384
  474MOL0     H63932  10.211   9.896  10.287 -0.3113 -0.6067 -1.2535
  474MOL0     H63933  10.385   9.643  10.252  0.8017 -0.6047  0.3937
  474MOL0     H63934  10.416   9.796  10.152  0.3882  1.4017  1.6590
  474MOL0     H63935  10.415   9.804  10.458  1.4952 -2.3081  0.6141
  474MOL0     H63936  10.555   9.758  10.363 -0.0511 -1.8862 -1.4546
  474MOL0     H63937  10.407  10.017  10.298 -0.1645 -1.8849 -1.4825
  474MOL0     H63938  10.573   9.960  10.266  2.6194 -1.0217  1.8041
  474MOL0     H63939  10.568  10.134  10.445  1.1769  0.3409  1.0493
  474MOL0     H63940  10.468  10.041  10.555 -0.1635  3.0414 -1.5446
  474MOL0     H63941  10.599   9.827  10.659 -2.1833  2.8596 -1.1420
  474MOL0     H63942  10.833   9.709  10.759 -1.5285  0.3564 -0.6741
  474MOL0     H63943  10.901   9.648  10.601  0.3396 -1.7532  1.7342
  474MOL0     H63944  11.091   9.757  10.622  1.7316 -2.3000  0.9296
  474MOL0     H63945  11.034   9.868  10.755 -1.0404 -0.8498  2.0747
  474MOL0     H63946  11.053   9.560  10.762 -1.0044  0.4979  0.1008
  474MOL0     H63947  11.006   9.666  10.899 -1.1221 -0.8611 -1.1334
  474MOL0     H63948  11.222   9.673  10.968  2.4187  4.4519  0.2500
  474MOL0     H63949  11.256   9.761  10.816  1.3833 -0.7090  0.5390
  474MOL0     H63950  11.450   9.711  10.948 -0.7689 -1.0952  0.8503
  474MOL0     H63951  11.691   9.689  10.999  0.3363  0.8235 -1.0553
  474MOL0     H63952  12.039   9.166  10.814 -0.7065  0.2374  0.7652
  474MOL0     H63953  12.293   9.145  10.773  1.1587 -1.0070 -0.0533
  474MOL0     H63954  12.398   9.303  10.558  0.0102 -1.5235 -0.0830
  474MOL0     H63955  12.485   9.448  10.585 -1.1784  0.3568 -0.0882
  474MOL0     H63956  12.605   9.172  10.612 -3.7317 -0.4059 -2.6237
  474MOL0     H63957  12.615   9.275  10.479  1.7236 -3.4848 -0.0154
  474MOL0     H63958  12.680   9.372  10.766 -0.4046  2.4325 -1.5990
  474MOL0     H63959  12.798   9.286  10.665  0.0547 -0.3636  0.4461
  474MOL0     H63960  12.672   9.556  10.595 -0.5167 -0.9075  0.4736
  474MOL0     H63961  12.768   9.464  10.489 -1.1198  0.0144 -0.3271
  474MOL0     H63962  12.959   9.482  10.638  0.6646  0.2776  0.1231
  474MOL0     H63963  12.856   9.582  10.752 -0.7292 -0.6349  0.3211
  474MOL0     H63964  12.889   9.670  10.465  0.0490  1.8156 -0.2851
  474MOL0     H63965  12.845   9.760  10.613 -3.0105 -1.3688 -0.4696
  474MOL0     H63966  13.067   9.752  10.688 -2.4692  1.6688 -0.4896
  474MOL0     H63967  13.047   9.819  10.526  3.1424 -0.2813 -0.9990
  474MOL0     H63968  13.252   9.675  10.515 -0.7066  2.8345  0.9529
  474MOL0     H63969  13.162   9.548  10.601  1.7153 -0.0623 -0.8107
  474MOL0     H63970  12.333   9.568  10.816 -0.1860  0.4394  1.4357
  474MOL0     H63971  12.086   9.593  10.819  0.5453  1.2977 -0.2360
  474MOL0     H63972  11.688   9.334  10.756 -1.9652 -0.2650 -1.4666
  474MOL0     H63973  11.429   9.366  10.736  0.2077 -0.6612 -0.2722
  474MOL0     H63974   9.771   9.592  10.687 -1.1767 -2.0297 -0.5716
  474MOL0     H63975   9.559   9.544  10.809 -0.8744  0.3186  0.4599
  474MOL0     H63976   9.219   9.744  10.937 -2.5080  1.7396 -0.8033
  474MOL0     H63977   9.033   9.765  11.105 -0.6452 -0.8832  1.5192
  474MOL0     H63978   8.791   9.805  11.059  1.7157 -0.0602  0.2439
  474MOL0     H63979   8.850   9.777  11.222 -0.3843  2.8330 -1.1651
  474MOL0     H63980   8.582   9.703  11.102 -0.7926  1.5184  0.0042
  474MOL0     H63981   8.619   9.843  11.211 -2.8152 -0.5556 -0.5914
  474MOL0     H63982   8.685   9.686  11.385  0.3730  0.8481 -0.9520
  474MOL0     H63983   8.612   9.554  11.283 -1.3338 -0.3657  1.1065
  474MOL0     H63984   8.467   9.787  11.400 -1.0053 -0.3526  2.0901
  474MOL0     H63985   8.395   9.663  11.277 -0.8024  0.8761  0.0436
  474MOL0     H63986   8.418   9.460  11.659  1.5666 -2.5743 -1.0665
  474MOL0     H63987   8.889   9.384  11.022 -1.0932 -0.0198 -1.9233
  474MOL0     H63988   9.024   9.236  10.911  1.0964 -1.6550 -1.4970
  474MOL0     H63989   8.989   9.307  10.745 -2.1236  2.4315 -0.0368
  474MOL0     H63990   9.158   9.273  10.807 -0.1219 -0.0020  0.2895
  475MOL0     O63991  10.457   2.576   5.636 -1.0874  0.0357 -0.0458
  475MOL0     C63992  10.458   2.548   5.518  0.2420  0.7656 -0.1800
  475MOL0     O63993  10.573   2.543   5.444 -0.6574 -0.0900  0.4020
  475MOL0     C63994  10.703   2.545   5.491 -0.1100  0.4052 -0.4925
  475MOL0     C63995  10.805   2.568   5.392 -0.1319 -0.4184  0.0302
  475MOL0     C63996  10.938   2.587   5.428 -0.6422 -0.8149  0.8969
  475MOL0     C63997  10.975   2.566   5.552  0.3627  0.1416 -0.5043
  475MOL0     O63998  11.104   2.596   5.581 -0.1687  0.5729 -0.1031
  475MOL0     C63999  11.178   2.489   5.633  0.1528 -0.0457 -0.0917
  475MOL0     C64000  11.325   2.526   5.646 -0.8047  0.2176 -0.1270
  475MOL0     C64001  11.397   2.387   5.642  0.0984 -0.1294 -0.0246
  475MOL0     C64002  11.551   2.410   5.674  0.4888 -0.2672  0.1005
  475MOL0     C64003  11.634   2.483   5.564 -0.6701  1.6642 -0.0934
  475MOL0     C64004  11.729   2.385   5.492  0.3226  0.4619 -0.1500
  475MOL0     C64005  11.825   2.317   5.594  1.0013  0.4975  0.3257
  475MOL0     C64006  11.897   2.410   5.695  0.6489 -0.7217 -0.4279
  475MOL0     N64007  12.010   2.344   5.765  0.0286 -0.6776 -0.0165
  475MOL0     C64008  12.128   2.290   5.712  0.5499 -0.2954  0.9637
  475MOL0     C64009  12.186   2.227   5.819  0.2494 -0.2383  0.1034
  475MOL0     C64010  12.329   2.164   5.818  0.9685 -0.3744  0.5573
  475MOL0     C64011  12.433   2.248   5.898  0.2286 -0.0884 -0.2721
  475MOL0     C64012  12.563   2.164   5.932 -0.3891 -0.3450  0.5434
  475MOL0     C64013  12.656   2.145   5.817 -0.3263 -0.0392  0.2345
  475MOL0     O64014  12.608   2.031   5.741 -0.2836  0.2026  0.5169
  475MOL0     C64015  12.678   1.975   5.631 -0.8149  0.9071  0.0972
  475MOL0     C64016  12.811   2.003   5.582  0.6014 -0.7778  0.2582
  475MOL0     C64017  12.871   1.932   5.477  0.5436  0.9638 -0.3413
  475MOL0     C64018  12.803   1.827   5.413  0.6787  0.3604 -0.1724
  475MOL0     C64019  12.864   1.742   5.310 -0.5795 -0.8375 -0.5039
  475MOL0     O64020  12.963   1.793   5.224  1.1608  0.2869  0.4979
  475MOL0     C64021  13.038   1.709   5.152 -0.5791  0.4010 -0.2881
  475MOL0     C64022  12.984   1.648   5.034  0.0080  1.1308  0.2722
  475MOL0     C64023  13.065   1.562   4.959  0.0631 -0.1350 -0.4664
  475MOL0     C64024  13.206   1.550   4.988 -0.3724  1.1065 -0.9218
  475MOL0     O64025  13.298   1.457   4.932  0.3556  0.3057 -0.4184
  475MOL0     C64026  13.259   1.386   4.816  0.1473  0.3392  0.1438
  475MOL0     C64027  13.363   1.327   4.727 -0.2999 -0.1460  0.6552
  475MOL0     C64028  13.421   1.199   4.790  0.1694 -0.0479 -0.3536
  475MOL0     C64029  13.330   1.084   4.809  0.2151  0.0710  0.2914
  475MOL0     C64030  13.367   0.970   4.904  0.1188 -0.4983 -1.0140
  475MOL0     C64031  13.286   0.851   4.880 -0.6780  0.9249  0.2554
  475MOL0     C64032  13.342   0.733   4.956  0.7141  0.2784  0.0700
  475MOL0     C64033  13.237   0.626   4.976  1.1584  0.2222 -0.4564
  475MOL0    Cl64034  13.231   0.520   4.820 -0.0832 -0.2977 -0.3086
  475MOL0     C64035  13.262   1.626   5.100  0.0601  0.3060  0.7643
  475MOL0     C64036  13.177   1.696   5.178  0.3156  0.1468  0.4170
  475MOL0     O64037  12.834   1.619   5.315 -0.1120  0.1266 -0.2234
  475MOL0     C64038  12.667   1.809   5.452 -0.9712  0.5391 -0.5421
  475MOL0     C64039  12.606   1.881   5.558 -0.4500  0.4048  0.8813
  475MOL0     N64040  12.109   2.243   5.933 -0.7452  0.2823  0.4934
  475MOL0     N64041  12.005   2.317   5.903 -0.1505 -0.3779  0.3573
  475MOL0     C64042  10.883   2.531   5.651  0.8279 -1.4272  0.6241
  475MOL0     C64043  10.749   2.532   5.623  0.7596  0.1852  0.0448
  475MOL0     C64044  10.323   2.505   5.447 -0.3858 -0.7331 -0.9300
  475MOL0     C64045  10.343   2.442   5.328 -0.2537 -0.1114  0.0177
  475MOL0     C64046  10.240   2.387   5.254  0.1162  0.5508 -0.4013
  475MOL0     C64047  10.111   2.404   5.299  0.7686  0.8915 -0.9124
  475MOL0     O64048  10.012   2.363   5.219  0.4449  0.9217 -0.3476
  475MOL0     C64049   9.879   2.333   5.270 -0.0226 -0.4788 -0.4370
  475MOL0     C64050   9.788   2.450   5.249  0.7601  0.1587  0.1431
  475MOL0     C64051   9.724   2.442   5.101  0.1152 -0.7616 -0.5140
  475MOL0     C64052   9.583   2.492   5.099 -0.3979 -0.5531  0.6390
  475MOL0     C64053   9.493   2.431   5.197 -0.0874  0.3757  0.1055
  475MOL0     C64054   9.426   2.391   5.292  0.2561 -0.0532 -0.1573
  475MOL0     C64055  10.085   2.467   5.424 -0.1864 -0.2067  0.1427
  475MOL0     C64056  10.193   2.514   5.493 -0.7137 -0.5061  0.0860
  475MOL0     C64057  10.162   2.572   5.629 -0.1481  0.8819 -0.0402
  475MOL0     H64058  10.787   2.592   5.288 -0.1284  0.7034  0.2709
  475MOL0     H64059  11.013   2.614   5.354 -0.9265 -0.7128  0.6461
  475MOL0     H64060  11.144   2.449   5.729 -1.6326  0.1965 -0.5892
  475MOL0     H64061  11.164   2.401   5.570 -0.1634 -1.1924  1.4928
  475MOL0     H64062  11.349   2.586   5.735  2.7057  1.1665 -1.5689
  475MOL0     H64063  11.342   2.591   5.560  2.9852 -0.2821  0.0752
  475MOL0     H64064  11.387   2.346   5.541 -1.3914 -0.0179  0.0479
  475MOL0     H64065  11.344   2.323   5.712 -5.7377  1.6173 -2.1687
  475MOL0     H64066  11.547   2.463   5.770 -1.6116 -1.5638  0.7874
  475MOL0     H64067  11.595   2.311   5.694  1.4689  0.2404  0.5112
  475MOL0     H64068  11.569   2.521   5.484 -1.5710  0.4070  0.0136
  475MOL0     H64069  11.688   2.565   5.612 -2.0331  2.6958 -0.2377
  475MOL0     H64070  11.684   2.307   5.431  3.8525 -1.5786 -0.4026
  475MOL0     H64071  11.794   2.438   5.421  0.8474 -2.8076 -2.3166
  475MOL0     H64072  11.900   2.265   5.534 -0.8403 -3.7944  1.3658
  475MOL0     H64073  11.783   2.229   5.644  1.2727 -1.4798 -2.6734
  475MOL0     H64074  11.939   2.498   5.647  4.6100 -1.4716  1.2471
  475MOL0     H64075  11.823   2.431   5.774 -2.0287 -2.7436 -2.2053
  475MOL0     H64076  12.160   2.307   5.610  0.2534  0.2887  0.9682
  475MOL0     H64077  12.325   2.059   5.848 -2.0078 -0.2759  0.7862
  475MOL0     H64078  12.355   2.157   5.712 -0.7688 -2.7133  0.1885
  475MOL0     H64079  12.462   2.334   5.838  1.0874 -0.4359 -0.3689
  475MOL0     H64080  12.395   2.285   5.994 -1.1450 -1.2032 -0.3381
  475MOL0     H64081  12.529   2.069   5.973 -3.2445 -0.3314 -1.5402
  475MOL0     H64082  12.617   2.212   6.015 -0.5171 -1.0872  1.0637
  475MOL0     H64083  12.757   2.131   5.855  0.5806 -0.7268 -2.2498
  475MOL0     H64084  12.655   2.232   5.751  0.7648 -0.7608 -0.7701
  475MOL0     H64085  12.853   2.092   5.627 -0.6845 -0.5685  1.0950
  475MOL0     H64086  12.972   1.946   5.439  0.9596 -0.4498  0.1789
  475MOL0     H64087  12.877   1.633   5.021 -0.2832  2.2560  1.2412
  475MOL0     H64088  13.028   1.495   4.883 -0.3475  0.1716 -0.5401
  475MOL0     H64089  13.190   1.311   4.855  1.6138 -0.3610  1.5114
  475MOL0     H64090  13.211   1.464   4.757  3.8521  3.0080  0.2975
  475MOL0     H64091  13.317   1.309   4.629 -1.3871  0.2410  1.0730
  475MOL0     H64092  13.443   1.398   4.709 -1.9448  1.6070 -0.1041
  475MOL0     H64093  13.512   1.155   4.748 -0.1223 -1.0500  0.0373
  475MOL0     H64094  13.454   1.221   4.892  2.8583 -1.0163 -0.9376
  475MOL0     H64095  13.333   1.041   4.709  0.7380  0.4176  0.1536
  475MOL0     H64096  13.234   1.127   4.839  1.7497  3.1341  1.2120
  475MOL0     H64097  13.349   1.001   5.008 -2.2585 -3.0654 -0.5515
  475MOL0     H64098  13.471   0.939   4.896  1.4563  1.9830  3.3297
  475MOL0     H64099  13.181   0.866   4.906 -0.7201  0.0700  0.6112
  475MOL0     H64100  13.303   0.830   4.774 -1.5201 -0.4845  0.3759
  475MOL0     H64101  13.367   0.764   5.058 -2.1839 -2.3789  1.7807
  475MOL0     H64102  13.434   0.695   4.912  1.6297  1.0215  1.2612
  475MOL0     H64103  13.279   0.569   5.060  2.1002  0.3974 -0.8009
  475MOL0     H64104  13.134   0.654   5.002  0.9227 -1.9701  1.3504
  475MOL0     H64105  13.368   1.621   5.124  0.7259  1.1074 -1.6766
  475MOL0     H64106  13.217   1.755   5.259  3.0535  0.8139 -1.3116
  475MOL0     H64107  12.604   1.738   5.401  1.1605 -1.6693 -0.2720
  475MOL0     H64108  12.507   1.849   5.589 -0.7193  0.7717  0.4155
  475MOL0     H64109  10.909   2.520   5.755 -0.6488  0.3828  1.2403
  475MOL0     H64110  10.677   2.502   5.698  0.7696  0.5027  0.1823
  475MOL0     H64111  10.442   2.433   5.284  1.4507 -2.7147  3.8859
  475MOL0     H64112  10.272   2.352   5.157 -1.5041  3.7697 -2.2982
  475MOL0     H64113   9.891   2.315   5.377 -3.0549 -2.8552 -0.3597
  475MOL0     H64114   9.834   2.243   5.227  0.5331 -0.9464 -0.0553
  475MOL0     H64115   9.848   2.539   5.271  1.4046 -0.4653  0.9681
  475MOL0     H64116   9.709   2.452   5.325 -0.2202  0.7210 -0.8619
  475MOL0     H64117   9.734   2.338   5.069  0.9937 -0.6080 -0.7563
  475MOL0     H64118   9.791   2.497   5.035  0.1780 -0.3603 -0.1259
  475MOL0     H64119   9.584   2.598   5.125  0.4362 -0.7769  1.5481
  475MOL0     H64120   9.555   2.487   4.993  0.8554 -3.3886  0.3475
  475MOL0     H64121   9.354   2.346   5.358  1.8690  2.0620  3.3819
  475MOL0     H64122   9.984   2.489   5.454  0.3372  0.4058  1.5378
  475MOL0     H64123  10.177   2.680   5.639 -1.2157  1.3938 -2.9039
  475MOL0     H64124  10.058   2.551   5.656 -0.5747 -0.1296 -2.2221
  475MOL0     H64125  10.219   2.522   5.707  1.3592  0.2791 -1.4629
  476MOL0     O64126   0.820   4.710   8.226  0.1019  0.2902  0.0476
  476MOL0     C64127   0.840   4.711   8.101 -0.1791  0.5064 -0.4103
  476MOL0     O64128   0.766   4.646   8.008 -0.1450  0.7816 -0.1928
  476MOL0     C64129   0.659   4.569   8.042 -0.2389  0.0862  0.9541
  476MOL0     C64130   0.556   4.603   8.137 -0.8052  0.8932 -0.6785
  476MOL0     C64131   0.442   4.523   8.148  0.2209 -0.5873 -0.0832
  476MOL0     C64132   0.431   4.403   8.074  0.0812  0.0649  0.1388
  476MOL0     O64133   0.327   4.314   8.077 -0.8615 -0.0826  0.6826
  476MOL0     C64134   0.224   4.332   8.169  0.5466 -0.0339  0.5574
  476MOL0     C64135   0.122   4.227   8.131 -0.1201  0.5636  0.5004
  476MOL0     C64136   0.004   4.219   8.227  0.0918  0.4991 -0.5604
  476MOL0     C64137  -0.089   4.100   8.194 -0.4733 -0.7720 -0.4716
  476MOL0     C64138  -0.190   4.139   8.090  0.2621 -0.6781 -0.5762
  476MOL0     C64139  -0.301   4.036   8.100  0.1766  0.6937  0.3535
  476MOL0     C64140  -0.404   4.045   7.989  0.4053  0.1324 -0.4583
  476MOL0     C64141  -0.436   3.921   7.913 -0.6092 -0.3330 -0.5038
  476MOL0     N64142  -0.333   3.880   7.818 -0.2015 -0.0533 -1.5841
  476MOL0     C64143  -0.202   3.841   7.845  0.5120 -0.3070  0.3355
  476MOL0     C64144  -0.155   3.809   7.724  0.1482 -0.3304 -0.7392
  476MOL0     C64145  -0.029   3.739   7.709  0.5329  0.6073  0.0052
  476MOL0     C64146   0.096   3.829   7.734 -0.0317 -0.1065 -0.0629
  476MOL0     C64147   0.105   3.956   7.637 -0.1979 -0.0032 -0.3092
  476MOL0     C64148   0.225   4.062   7.667  0.1905 -0.1743  0.1353
  476MOL0     O64149   0.227   4.171   7.574 -0.5874 -0.2485  0.4948
  476MOL0     C64150   0.329   4.268   7.570 -0.4133 -0.0124  0.3357
  476MOL0     C64151   0.440   4.256   7.652 -1.2918  0.7948 -0.0149
  476MOL0     C64152   0.541   4.354   7.646 -0.2518 -0.2156 -0.1858
  476MOL0     C64153   0.528   4.465   7.568 -0.6824 -0.6566  0.0292
  476MOL0     C64154   0.650   4.556   7.559 -0.1145  0.5047  1.2558
  476MOL0     O64155   0.663   4.638   7.445 -0.1047  0.0406 -0.4292
  476MOL0     C64156   0.757   4.736   7.458 -0.4338 -0.1565  0.9221
  476MOL0     C64157   0.860   4.748   7.354  0.2969  0.4055  0.0084
  476MOL0     C64158   0.950   4.853   7.355 -0.5621  0.6411  0.8011
  476MOL0     C64159   0.930   4.964   7.443 -0.0523  1.3412 -0.1828
  476MOL0     O64160   1.012   5.069   7.432 -0.0630 -1.4918  0.4780
  476MOL0     C64161   1.004   5.186   7.519  0.4238 -0.0914  0.7750
  476MOL0     C64162   1.099   5.296   7.482  1.0245  0.5168  0.3940
  476MOL0     C64163   1.239   5.242   7.463 -0.4748  0.8012  0.5199
  476MOL0     C64164   1.340   5.350   7.472 -1.0512 -0.4191 -0.0672
  476MOL0     C64165   1.481   5.289   7.443 -0.1798  0.2207  0.2435
  476MOL0     C64166   1.588   5.383   7.483  0.4907 -0.3465 -0.6091
  476MOL0     C64167   1.721   5.322   7.474 -0.6851  0.3892 -0.7519
  476MOL0     C64168   1.839   5.420   7.502  0.2023 -0.7650  0.0308
  476MOL0    Cl64169   1.988   5.334   7.472 -0.4152  0.3718  0.5404
  476MOL0     C64170   0.822   4.955   7.539  0.4675  0.7589 -1.6361
  476MOL0     C64171   0.740   4.838   7.547 -1.2108 -0.4673  0.1223
  476MOL0     O64172   0.733   4.551   7.647 -0.0895 -0.1743  0.5034
  476MOL0     C64173   0.412   4.485   7.498  0.3111  0.6196 -0.3238
  476MOL0     C64174   0.313   4.381   7.495 -0.2991  0.8981 -0.1875
  476MOL0     N64175  -0.250   3.835   7.626 -0.6483 -0.2286  0.2558
  476MOL0     N64176  -0.358   3.866   7.684 -0.4068  0.5754 -0.6959
  476MOL0     C64177   0.525   4.369   7.976 -0.4460 -0.2397 -0.0271
  476MOL0     C64178   0.633   4.456   7.959  0.6083  0.5479  0.2956
  476MOL0     C64179   0.947   4.802   8.042  0.3246  0.6581  0.3441
  476MOL0     C64180   0.939   4.824   7.905  0.1788 -0.2332  0.8904
  476MOL0     C64181   1.042   4.910   7.850  0.1888  0.4818 -0.8322
  476MOL0     C64182   1.144   4.963   7.921 -0.4755 -0.3052 -0.1283
  476MOL0     O64183   1.238   5.027   7.850  0.4565  0.0990  0.0985
  476MOL0     C64184   1.351   5.083   7.919 -0.1900 -0.4066  0.9680
  476MOL0     C64185   1.411   5.191   7.825  0.0079 -0.0195 -0.3753
  476MOL0     C64186   1.545   5.246   7.889 -0.5684 -0.5337 -0.4014
  476MOL0     C64187   1.534   5.363   7.991  0.1272  0.2771  0.8706
  476MOL0     C64188   1.497   5.315   8.124  0.8919 -0.0467  0.2744
  476MOL0     C64189   1.457   5.284   8.232  0.5449  0.0433  1.2993
  476MOL0     C64190   1.142   4.945   8.066 -0.0860  0.0386 -0.0669
  476MOL0     C64191   1.050   4.867   8.125  0.3297 -0.3497 -0.3634
  476MOL0     C64192   1.060   4.858   8.278 -0.5533  0.0336  0.1871
  476MOL0     H64193   0.565   4.683   8.210 -3.3628 -0.1711  0.9112
  476MOL0     H64194   0.365   4.539   8.223  0.3263 -1.1107  0.1400
  476MOL0     H64195   0.261   4.326   8.272  0.9259 -0.4509  0.4005
  476MOL0     H64196   0.174   4.429   8.158 -0.2315 -0.4598  0.2374
  476MOL0     H64197   0.174   4.131   8.126 -0.5358  0.3902 -1.6481
  476MOL0     H64198   0.099   4.246   8.026 -0.1354  1.1808  0.6112
  476MOL0     H64199  -0.051   4.313   8.219 -0.5726  0.1008 -0.7402
  476MOL0     H64200   0.031   4.212   8.333  0.5762  4.3345 -0.3011
  476MOL0     H64201  -0.035   4.014   8.153 -1.1069 -1.8772  0.9663
  476MOL0     H64202  -0.135   4.064   8.286 -0.0439  1.3653  0.6602
  476MOL0     H64203  -0.240   4.235   8.106  0.0990 -0.5910 -1.5501
  476MOL0     H64204  -0.144   4.142   7.991 -2.3534 -2.0879 -1.9305
  476MOL0     H64205  -0.273   3.931   8.114  1.1027  1.0985  1.8834
  476MOL0     H64206  -0.349   4.045   8.198 -1.6653 -2.1437 -0.1501
  476MOL0     H64207  -0.396   4.137   7.931 -3.0609  0.0375 -1.2862
  476MOL0     H64208  -0.487   4.064   8.058  2.1815  0.8602  1.6055
  476MOL0     H64209  -0.462   3.841   7.983  1.0744 -0.9218 -0.5006
  476MOL0     H64210  -0.524   3.937   7.850 -2.0568 -0.6498  1.3280
  476MOL0     H64211  -0.151   3.812   7.936  1.4999  0.0292 -0.1038
  476MOL0     H64212  -0.036   3.647   7.767 -0.4249 -0.4627 -1.7461
  476MOL0     H64213  -0.011   3.723   7.603  0.0153 -2.1165  0.2623
  476MOL0     H64214   0.096   3.855   7.840 -0.3578  2.1791 -0.5745
  476MOL0     H64215   0.183   3.767   7.713  1.7869  1.0719  3.2597
  476MOL0     H64216   0.011   4.012   7.641  0.4592  1.0790  0.9687
  476MOL0     H64217   0.090   3.925   7.533 -0.7617 -0.7328 -0.0132
  476MOL0     H64218   0.315   4.000   7.666  1.2773  1.3619 -0.2700
  476MOL0     H64219   0.207   4.096   7.770 -0.4861 -1.6810  0.5461
  476MOL0     H64220   0.451   4.169   7.715  2.4238 -0.4633 -2.1360
  476MOL0     H64221   0.619   4.337   7.720 -0.2833 -1.5480 -0.4449
  476MOL0     H64222   0.887   4.675   7.279  0.6612 -1.8378  2.1966
  476MOL0     H64223   1.030   4.851   7.283 -2.7292  2.6321 -1.8716
  476MOL0     H64224   0.903   5.229   7.525 -0.1944 -0.9239 -2.2262
  476MOL0     H64225   1.031   5.152   7.619  0.9271 -0.1084  0.6316
  476MOL0     H64226   1.053   5.346   7.396  0.0945 -2.7110 -1.1383
  476MOL0     H64227   1.088   5.368   7.563 -3.5703  1.0585 -0.4257
  476MOL0     H64228   1.262   5.169   7.541 -0.0224  0.0451 -0.3058
  476MOL0     H64229   1.253   5.194   7.365 -0.3107 -2.6774  2.1174
  476MOL0     H64230   1.335   5.389   7.574 -0.0752  1.4569 -0.6899
  476MOL0     H64231   1.319   5.436   7.409  1.9499  0.2148 -0.3738
  476MOL0     H64232   1.493   5.280   7.334  1.6926 -1.8849  0.5587
  476MOL0     H64233   1.494   5.195   7.498  1.1887  0.2759  0.0503
  476MOL0     H64234   1.585   5.476   7.426 -1.6865  1.1183  1.6684
  476MOL0     H64235   1.571   5.405   7.589  4.2490 -3.7904  0.9847
  476MOL0     H64236   1.737   5.260   7.385  1.3206 -1.3561  0.7070
  476MOL0     H64237   1.723   5.241   7.548 -0.0539  2.1191  1.1999
  476MOL0     H64238   1.832   5.506   7.435  1.3113  1.1701  2.2412
  476MOL0     H64239   1.842   5.460   7.604  1.6094 -1.8592  0.4532
  476MOL0     H64240   0.780   5.031   7.605 -0.1222 -0.8922 -0.0306
  476MOL0     H64241   0.652   4.823   7.609 -2.0549  1.0943 -0.6588
  476MOL0     H64242   0.405   4.576   7.438 -0.6182 -1.1345 -3.0443
  476MOL0     H64243   0.227   4.391   7.429 -0.5630 -0.1523 -0.0281
  476MOL0     H64244   0.508   4.276   7.924 -0.5646  0.2200 -0.8286
  476MOL0     H64245   0.712   4.427   7.891  1.8250  2.1327  0.9694
  476MOL0     H64246   0.854   4.792   7.846 -1.4100  1.5054  2.1152
  476MOL0     H64247   1.041   4.943   7.746  1.6488 -0.0736 -1.0558
  476MOL0     H64248   1.414   4.996   7.938  0.6183 -0.2846 -0.8879
  476MOL0     H64249   1.326   5.139   8.009 -2.0787 -2.5501  1.8778
  476MOL0     H64250   1.339   5.270   7.804  0.3052 -0.3397 -2.9030
  476MOL0     H64251   1.425   5.130   7.735 -2.7991 -2.0218  0.4269
  476MOL0     H64252   1.617   5.273   7.811  1.2280 -1.2224  0.9665
  476MOL0     H64253   1.598   5.165   7.940  1.4143  0.8169 -0.2104
  476MOL0     H64254   1.633   5.406   8.010  0.5216  0.6573 -1.6116
  476MOL0     H64255   1.463   5.436   7.952  1.4405 -0.0922 -2.6661
  476MOL0     H64256   1.422   5.272   8.333 -1.5860 -0.8798  0.5015
  476MOL0     H64257   1.227   4.987   8.119 -0.1503  0.9554 -0.6708
  476MOL0     H64258   0.967   4.880   8.331  1.4622  3.1021  2.8601
  476MOL0     H64259   1.080   4.754   8.308 -1.3771 -0.3663 -0.6108
  476MOL0     H64260   1.134   4.918   8.331 -1.2092 -0.7372  2.0638
  477MOL0     O64261   6.201   7.407   9.513  0.2224  0.6113 -0.4430
  477MOL0     C64262   6.239   7.368   9.629  0.7898  0.4579  0.9437
  477MOL0     O64263   6.346   7.283   9.652 -0.3545 -0.3615  0.2259
  477MOL0     C64264   6.410   7.207   9.561  0.0112 -0.1577 -0.8248
  477MOL0     C64265   6.342   7.156   9.449 -0.5288 -0.1451  0.8895
  477MOL0     C64266   6.404   7.062   9.367  0.1292  0.2702 -0.3870
  477MOL0     C64267   6.534   7.026   9.384 -0.5742  0.4838  0.0222
  477MOL0     O64268   6.590   6.933   9.299  0.1560  0.1760 -0.2494
  477MOL0     C64269   6.729   6.940   9.257  1.0986  0.0160 -0.3338
  477MOL0     C64270   6.748   6.868   9.128  0.6682  0.4525  0.5886
  477MOL0     C64271   6.897   6.836   9.108  0.1921 -0.4190 -0.3440
  477MOL0     C64272   6.926   6.807   8.962  0.4404  0.4077 -0.3149
  477MOL0     C64273   7.070   6.782   8.928 -0.9512 -0.2263 -0.0049
  477MOL0     C64274   7.115   6.835   8.786  0.3735  0.1455 -0.4321
  477MOL0     C64275   7.061   6.742   8.670  0.4965  0.2692 -0.3488
  477MOL0     C64276   7.110   6.768   8.530  0.5901 -0.9118 -1.1011
  477MOL0     N64277   7.077   6.909   8.502  0.2767  0.5593 -0.1445
  477MOL0     C64278   7.166   7.005   8.465 -0.0036  0.1514 -0.0080
  477MOL0     C64279   7.103   7.118   8.440  0.0026  0.6866  1.0702
  477MOL0     C64280   7.161   7.250   8.397  0.0003 -0.4644  0.0280
  477MOL0     C64281   7.114   7.293   8.253  0.0382 -0.7800 -0.0183
  477MOL0     C64282   7.156   7.433   8.211 -0.2659  0.2784 -0.9769
  477MOL0     C64283   7.305   7.462   8.221 -0.1030 -0.3323  0.6485
  477MOL0     O64284   7.386   7.376   8.147 -0.4754  0.8019  0.2008
  477MOL0     C64285   7.496   7.329   8.215 -0.4658  0.2532 -0.5243
  477MOL0     C64286   7.521   7.190   8.199  0.4047  0.7576  0.0020
  477MOL0     C64287   7.629   7.138   8.270 -0.3198  0.2708 -0.4572
  477MOL0     C64288   7.714   7.214   8.347 -0.1718  0.7319 -0.3214
  477MOL0     C64289   7.832   7.147   8.416  0.0381 -0.4987  0.0900
  477MOL0     O64290   7.932   7.228   8.454 -0.6952 -0.5371  0.2389
  477MOL0     C64291   8.049   7.191   8.516  0.0026  0.3661 -0.6280
  477MOL0     C64292   8.162   7.254   8.470 -0.4403 -1.4397  1.0153
  477MOL0     C64293   8.286   7.240   8.528 -0.1896  0.2275  0.6860
  477MOL0     C64294   8.306   7.146   8.629 -0.1074 -0.3583 -0.5698
  477MOL0     O64295   8.430   7.144   8.687 -0.2317  0.2390  0.6555
  477MOL0     C64296   8.448   7.064   8.806 -0.8911 -0.6515 -0.0042
  477MOL0     C64297   8.456   6.910   8.787 -0.1138 -0.3624 -0.4456
  477MOL0     C64298   8.413   6.834   8.917  0.0310 -0.1664 -0.1842
  477MOL0     C64299   8.409   6.682   8.902 -0.0388  0.3491 -0.0316
  477MOL0     C64300   8.446   6.605   9.035  0.0653 -0.7840  0.2848
  477MOL0     C64301   8.404   6.457   9.040 -0.8734 -1.0465 -0.6239
  477MOL0     C64302   8.410   6.391   9.189  0.3541 -0.9650  0.7180
  477MOL0     C64303   8.309   6.266   9.196  0.1563  0.1797  0.0396
  477MOL0    Cl64304   8.301   6.197   9.362 -0.1318  0.2583  0.5077
  477MOL0     C64305   8.193   7.069   8.666 -0.1459 -0.0806 -0.3255
  477MOL0     C64306   8.067   7.086   8.610  1.3793  0.4577 -0.2926
  477MOL0     O64307   7.826   7.028   8.432  0.2963 -0.0117 -0.3321
  477MOL0     C64308   7.694   7.350   8.350 -0.7846  0.0716  0.7855
  477MOL0     C64309   7.593   7.409   8.279  0.3841  0.1606 -0.4655
  477MOL0     N64310   6.970   7.097   8.462  0.3024 -0.5897 -0.5067
  477MOL0     N64311   6.952   6.972   8.506 -0.2341 -0.3516  0.1449
  477MOL0     C64312   6.610   7.084   9.492  0.0702  0.9584  0.2587
  477MOL0     C64313   6.545   7.169   9.588  0.5966 -1.3054  0.9498
  477MOL0     C64314   6.172   7.405   9.762 -0.3889  0.2652  0.3152
  477MOL0     C64315   6.235   7.372   9.883 -0.2278 -0.0115  0.0897
  477MOL0     C64316   6.177   7.384  10.005  0.4519 -0.0644  0.0537
  477MOL0     C64317   6.051   7.443  10.007  0.8200 -0.1241 -0.0477
  477MOL0     O64318   5.981   7.478  10.118  0.4843 -0.3302  0.2361
  477MOL0     C64319   6.067   7.504  10.234  0.2861  0.5221 -0.1927
  477MOL0     C64320   5.987   7.606  10.314 -0.6732  0.2962  0.6623
  477MOL0     C64321   5.967   7.733  10.233  0.5854  0.7733  0.6039
  477MOL0     C64322   5.928   7.855  10.324 -0.3427 -0.1126  0.0112
  477MOL0     C64323   5.815   7.829  10.414 -0.1161  1.0424  0.7726
  477MOL0     C64324   5.722   7.821  10.488  0.4508  0.4221 -0.6492
  477MOL0     C64325   5.993   7.498   9.890 -0.1612  0.0655  0.2427
  477MOL0     C64326   6.059   7.484   9.768  0.7521  0.6570  0.4418
  477MOL0     C64327   5.991   7.533   9.641  0.5401  0.1893 -0.4289
  477MOL0     H64328   6.237   7.174   9.426 -1.2758 -1.4908  2.9969
  477MOL0     H64329   6.354   7.010   9.286 -1.0757  2.5591 -1.1992
  477MOL0     H64330   6.760   7.044   9.240  1.4638 -0.0077  0.2058
  477MOL0     H64331   6.792   6.898   9.335  2.0311  2.2872  0.2003
  477MOL0     H64332   6.731   6.938   9.046  0.8743  1.7434  1.6202
  477MOL0     H64333   6.691   6.774   9.124  3.2328 -1.1880 -0.7507
  477MOL0     H64334   6.938   6.761   9.175 -0.9933  0.1733  1.0996
  477MOL0     H64335   6.942   6.933   9.130  1.1374 -0.7012 -0.9780
  477MOL0     H64336   6.859   6.723   8.943  1.8046 -1.2444  1.7710
  477MOL0     H64337   6.894   6.890   8.898  1.8234  1.6676  0.5674
  477MOL0     H64338   7.121   6.832   9.011 -0.9780  1.7177 -1.1045
  477MOL0     H64339   7.089   6.674   8.932  1.5284  0.1918  1.1117
  477MOL0     H64340   7.077   6.936   8.766  0.0415  0.2657  0.7288
  477MOL0     H64341   7.224   6.841   8.779  0.5125 -1.0160  0.3625
  477MOL0     H64342   6.952   6.741   8.677  0.5969 -0.3403  2.7427
  477MOL0     H64343   7.085   6.637   8.691 -0.5621 -0.2673 -1.6489
  477MOL0     H64344   7.218   6.749   8.533  0.7334  0.0526  0.4833
  477MOL0     H64345   7.068   6.700   8.455 -0.4334  0.3702 -1.7226
  477MOL0     H64346   7.273   6.989   8.456 -0.2247 -0.6989 -1.3869
  477MOL0     H64347   7.127   7.335   8.458 -2.0000  0.5824 -2.3533
  477MOL0     H64348   7.270   7.246   8.406  0.3380  2.5915 -1.4295
  477MOL0     H64349   7.149   7.221   8.178  0.3457  0.0853 -0.7257
  477MOL0     H64350   7.006   7.292   8.234  0.2831  1.6952 -2.0838
  477MOL0     H64351   7.113   7.501   8.285  1.4072  0.2867  0.0379
  477MOL0     H64352   7.123   7.466   8.112 -0.9068  2.1530 -0.1845
  477MOL0     H64353   7.332   7.459   8.327 -0.6401  0.4002  0.8149
  477MOL0     H64354   7.326   7.562   8.180 -1.6690 -0.2971 -0.1500
  477MOL0     H64355   7.442   7.130   8.155 -0.5472  1.7370  0.3528
  477MOL0     H64356   7.642   7.031   8.271  1.0812  0.3040  3.4227
  477MOL0     H64357   8.163   7.324   8.386  0.5338 -2.4114  0.1959
  477MOL0     H64358   8.373   7.299   8.501  1.9049 -2.4884  1.0560
  477MOL0     H64359   8.541   7.092   8.855  0.6260 -4.5890 -0.2584
  477MOL0     H64360   8.369   7.079   8.881  3.1680  2.7826  4.1722
  477MOL0     H64361   8.392   6.884   8.702 -1.0660  1.3294 -0.2847
  477MOL0     H64362   8.563   6.894   8.777 -0.2713 -1.5856 -0.2847
  477MOL0     H64363   8.488   6.862   8.991  0.7581 -0.6882 -0.7043
  477MOL0     H64364   8.313   6.865   8.947 -0.3014 -0.7853 -0.6197
  477MOL0     H64365   8.478   6.653   8.822 -2.1811  2.2616 -2.7930
  477MOL0     H64366   8.311   6.642   8.875 -0.2622 -0.2405  1.5453
  477MOL0     H64367   8.393   6.660   9.113 -3.4895 -4.0402  0.4842
  477MOL0     H64368   8.555   6.599   9.044 -0.1240 -3.2513  1.8460
  477MOL0     H64369   8.304   6.456   8.995 -0.4030  1.4666 -1.9281
  477MOL0     H64370   8.465   6.397   8.972 -1.5318 -3.3864  0.7523
  477MOL0     H64371   8.386   6.466   9.265  3.3071  0.8565  0.0140
  477MOL0     H64372   8.511   6.358   9.212  0.8564  0.0534  0.0771
  477MOL0     H64373   8.212   6.295   9.156  0.3033  1.0719  0.2998
  477MOL0     H64374   8.352   6.192   9.128 -1.7066  0.8232 -1.9319
  477MOL0     H64375   8.211   6.997   8.745  0.7760  1.5495  1.0142
  477MOL0     H64376   7.992   7.012   8.636  1.0943  0.3856 -1.2788
  477MOL0     H64377   7.764   7.409   8.409 -1.2184  0.0335  1.3451
  477MOL0     H64378   7.579   7.516   8.294  1.3959  0.3784 -1.0314
  477MOL0     H64379   6.707   7.043   9.519 -0.5062 -1.9780 -1.7010
  477MOL0     H64380   6.577   7.185   9.690 -1.6058 -1.1492  1.6586
  477MOL0     H64381   6.325   7.312   9.876 -0.6845 -0.5881 -1.0847
  477MOL0     H64382   6.223   7.348  10.097  2.3981 -0.0873 -0.8812
  477MOL0     H64383   6.161   7.554  10.206 -0.1345  0.1548 -2.4916
  477MOL0     H64384   6.099   7.418  10.293  0.9216 -1.0824 -2.6989
  477MOL0     H64385   6.045   7.638  10.401 -0.6025  1.4067  0.2249
  477MOL0     H64386   5.895   7.558  10.346 -0.2980 -1.9719 -1.3959
  477MOL0     H64387   5.885   7.710  10.164  1.4366 -1.5302  0.2662
  477MOL0     H64388   6.053   7.767  10.174  0.9017 -0.6942  0.1647
  477MOL0     H64389   6.018   7.880  10.382 -0.6489 -1.8986  1.3502
  477MOL0     H64390   5.906   7.947  10.270  0.7565  0.1239 -0.0614
  477MOL0     H64391   5.637   7.823  10.552 -0.8245 -3.1550 -1.9648
  477MOL0     H64392   5.901   7.555   9.900  1.6434  3.0899  0.9917
  477MOL0     H64393   5.903   7.593   9.666  1.1876  0.7844  0.4960
  477MOL0     H64394   6.069   7.586   9.586  2.3555 -1.7119  0.1350
  477MOL0     H64395   5.956   7.445   9.587  0.6419  0.9547 -1.7606
  478MOL0     O64396   1.572   8.800   6.954  0.2534 -0.4576 -0.3183
  478MOL0     C64397   1.639   8.762   6.861  0.9408  0.2635  0.7578
  478MOL0     O64398   1.653   8.630   6.831 -0.4107 -0.1377 -0.6407
  478MOL0     C64399   1.550   8.547   6.878  0.2214 -0.4567 -0.8487
  478MOL0     C64400   1.418   8.556   6.829  0.4177  0.6301  0.0122
  478MOL0     C64401   1.323   8.463   6.867  0.6919  0.5124 -1.6603
  478MOL0     C64402   1.351   8.358   6.955  0.6133 -0.5851  0.3094
  478MOL0     O64403   1.257   8.255   6.980 -0.4950  0.6453  0.0299
  478MOL0     C64404   1.125   8.308   7.004 -0.3462  0.3651 -0.1032
  478MOL0     C64405   1.056   8.216   7.099  0.7747 -0.3257 -0.1388
  478MOL0     C64406   1.096   8.212   7.248 -0.4404 -0.8811  0.8337
  478MOL0     C64407   1.235   8.166   7.275  0.6968 -0.5779  0.7732
  478MOL0     C64408   1.247   8.087   7.411  0.1436  0.2546  0.0770
  478MOL0     C64409   1.384   8.108   7.462  0.9126 -0.2286  0.1106
  478MOL0     C64410   1.488   8.031   7.391  0.0156 -0.0982 -0.2126
  478MOL0     C64411   1.509   7.892   7.451  0.1628 -0.0380 -0.0051
  478MOL0     N64412   1.631   7.824   7.391  0.1720 -0.7617 -0.6273
  478MOL0     C64413   1.646   7.790   7.261  0.2153  0.3130  0.7511
  478MOL0     C64414   1.770   7.729   7.252  0.5403 -0.1130 -0.3089
  478MOL0     C64415   1.831   7.663   7.128 -0.0426  0.8510  0.0294
  478MOL0     C64416   1.984   7.690   7.134  0.1341  0.8487  0.0913
  478MOL0     C64417   2.072   7.661   7.014 -0.0716  0.1609  0.4449
  478MOL0     C64418   2.217   7.705   7.024  0.2331 -0.1479 -0.3075
  478MOL0     O64419   2.290   7.626   7.116 -0.2491  0.0848 -0.2990
  478MOL0     C64420   2.418   7.638   7.146  0.4437  0.4918 -0.1910
  478MOL0     C64421   2.504   7.737   7.094 -0.3213  0.1412 -0.2209
  478MOL0     C64422   2.642   7.764   7.134  0.2916 -0.0052  0.3317
  478MOL0     C64423   2.702   7.669   7.226  0.0403 -0.2361 -0.1101
  478MOL0     C64424   2.849   7.660   7.241  0.3194  0.7956  0.4231
  478MOL0     O64425   2.900   7.552   7.311 -0.2109 -0.5815  0.4267
  478MOL0     C64426   3.033   7.542   7.304 -0.3401  0.3576  0.4223
  478MOL0     C64427   3.116   7.569   7.410  0.0971 -0.1567  0.3259
  478MOL0     C64428   3.254   7.548   7.406 -0.1339 -0.2181  0.7683
  478MOL0     C64429   3.315   7.493   7.285 -1.2079 -0.0748 -0.4879
  478MOL0     O64430   3.450   7.470   7.294 -0.2721  0.0499  0.1162
  478MOL0     C64431   3.529   7.414   7.187 -0.5318 -1.0527  0.3420
  478MOL0     C64432   3.538   7.262   7.207 -0.3396  0.6699  0.0549
  478MOL0     C64433   3.572   7.175   7.080 -0.0253 -0.1747  0.2437
  478MOL0     C64434   3.578   7.023   7.096 -0.4734  0.2304  0.0680
  478MOL0     C64435   3.572   6.950   6.958  0.3853 -0.8507 -0.7344
  478MOL0     C64436   3.443   6.980   6.877  0.6377  0.9459 -0.1025
  478MOL0     C64437   3.433   6.894   6.752 -0.0917  0.6098  0.0399
  478MOL0     C64438   3.343   6.774   6.758  0.2857 -0.5435 -0.5666
  478MOL0    Cl64439   3.162   6.831   6.770  0.1322  0.1134 -0.2351
  478MOL0     C64440   3.224   7.465   7.179  0.3521  0.9214 -0.2345
  478MOL0     C64441   3.083   7.490   7.188 -1.1051  0.4355  0.0294
  478MOL0     O64442   2.915   7.748   7.195  0.7759 -0.1733 -0.2078
  478MOL0     C64443   2.612   7.571   7.277  0.0821  0.1586 -0.8000
  478MOL0     C64444   2.474   7.557   7.240 -0.1406 -1.0709  0.0164
  478MOL0     N64445   1.822   7.723   7.377 -0.1802  0.1504  0.2574
  478MOL0     N64446   1.735   7.780   7.459 -1.1216 -0.5335  0.1838
  478MOL0     C64447   1.479   8.344   7.001 -0.5668  0.1292 -0.3976
  478MOL0     C64448   1.583   8.433   6.960  0.5867 -1.2200 -0.7811
  478MOL0     C64449   1.722   8.858   6.781 -0.7207 -0.4523 -0.7739
  478MOL0     C64450   1.833   8.805   6.707  0.0651 -0.2018 -0.1535
  478MOL0     C64451   1.913   8.877   6.633  0.2620  0.7003 -0.3950
  478MOL0     C64452   1.909   9.019   6.630  0.0241  0.0761  0.1805
  478MOL0     O64453   2.001   9.082   6.560 -0.4833  0.1354  0.2790
  478MOL0     C64454   1.979   9.218   6.516 -0.6397  0.8137  0.3178
  478MOL0     C64455   2.052   9.241   6.387 -0.0838 -0.2534 -0.7420
  478MOL0     C64456   2.200   9.238   6.401 -0.3584  0.5744 -0.2766
  478MOL0     C64457   2.285   9.318   6.305  0.0370  0.7675  0.3413
  478MOL0     C64458   2.405   9.359   6.370  0.2667 -0.1142 -0.3172
  478MOL0     C64459   2.495   9.407   6.428 -0.2664  0.2370  0.4820
  478MOL0     C64460   1.799   9.076   6.695 -0.4927 -0.2703 -0.4123
  478MOL0     C64461   1.709   8.997   6.770 -0.7369  0.0772  0.1372
  478MOL0     C64462   1.587   9.072   6.824  0.1940  0.1566 -0.0028
  478MOL0     H64463   1.387   8.645   6.776 -2.3207 -0.4621 -0.3931
  478MOL0     H64464   1.223   8.475   6.828 -1.1289  0.2951  2.4732
  478MOL0     H64465   1.132   8.408   7.050  2.2075  0.3496 -0.2810
  478MOL0     H64466   1.072   8.333   6.912 -1.6895 -0.8898  0.3100
  478MOL0     H64467   1.084   8.117   7.063  2.6687 -0.4132  1.3985
  478MOL0     H64468   0.948   8.234   7.090  0.6551  1.4746  3.2694
  478MOL0     H64469   1.019   8.148   7.294 -1.3444 -4.9915 -5.2817
  478MOL0     H64470   1.088   8.313   7.290  1.3791  0.9665 -2.8326
  478MOL0     H64471   1.259   8.091   7.199  4.1110 -0.1613  1.2874
  478MOL0     H64472   1.307   8.248   7.272 -1.2819  1.4233  3.3936
  478MOL0     H64473   1.173   8.117   7.486 -1.4120  2.0694 -2.0495
  478MOL0     H64474   1.227   7.983   7.386  0.3985  0.2588 -0.1552
  478MOL0     H64475   1.406   8.215   7.456  4.2955 -0.5975  2.9770
  478MOL0     H64476   1.397   8.071   7.564  2.9932  0.6806  0.2330
  478MOL0     H64477   1.579   8.091   7.387  0.4068 -0.4534  2.2696
  478MOL0     H64478   1.450   8.010   7.290 -2.4040  1.4675  0.2885
  478MOL0     H64479   1.522   7.891   7.559 -0.3974 -3.2376  0.1276
  478MOL0     H64480   1.420   7.829   7.444 -1.5748  2.0834  1.3896
  478MOL0     H64481   1.580   7.806   7.176 -1.1676 -0.7232  1.5898
  478MOL0     H64482   1.831   7.557   7.155 -1.3537  1.0811  1.0120
  478MOL0     H64483   1.776   7.686   7.036  1.0785 -1.7589 -1.3907
  478MOL0     H64484   1.987   7.799   7.150  0.2958  0.7842  0.5308
  478MOL0     H64485   2.022   7.645   7.226 -0.0378  2.6535  1.0931
  478MOL0     H64486   2.024   7.718   6.934  1.7593  0.9785 -0.1453
  478MOL0     H64487   2.075   7.553   6.997  1.7398  0.3585 -0.8481
  478MOL0     H64488   2.203   7.811   7.049  0.0603 -0.5170  1.2724
  478MOL0     H64489   2.282   7.704   6.936  3.0526 -0.1046  1.6209
  478MOL0     H64490   2.454   7.806   7.028 -1.5985  0.9679  1.5167
  478MOL0     H64491   2.700   7.833   7.073 -0.9904 -0.0776 -1.0211
  478MOL0     H64492   3.069   7.620   7.493 -0.9401 -1.3347  0.4825
  478MOL0     H64493   3.306   7.583   7.495 -2.1314 -1.9776  2.7559
  478MOL0     H64494   3.474   7.438   7.096  0.8077  0.3256 -0.1554
  478MOL0     H64495   3.627   7.463   7.185 -0.7908 -0.5521 -0.6619
  478MOL0     H64496   3.609   7.252   7.290  0.2354  0.1875 -0.4895
  478MOL0     H64497   3.443   7.216   7.236  0.9346 -3.2116 -1.2775
  478MOL0     H64498   3.499   7.191   7.000  1.0481 -0.3034 -0.7697
  478MOL0     H64499   3.671   7.201   7.042 -0.7413 -0.6987 -2.1263
  478MOL0     H64500   3.485   6.993   7.146 -0.2721  0.6283  0.6873
  478MOL0     H64501   3.665   7.004   7.160 -1.7156  0.0701  1.7821
  478MOL0     H64502   3.578   6.841   6.967 -1.2364 -0.9348 -0.4620
  478MOL0     H64503   3.646   6.998   6.893 -0.0456  3.7182  1.7766
  478MOL0     H64504   3.357   6.959   6.941  2.0435 -1.0612  1.2708
  478MOL0     H64505   3.437   7.084   6.845 -0.1590  1.0686  0.4109
  478MOL0     H64506   3.530   6.857   6.716 -1.3482 -2.2592 -0.7064
  478MOL0     H64507   3.400   6.958   6.670 -2.7703 -1.1505 -0.3630
  478MOL0     H64508   3.359   6.707   6.673  1.5753  0.2410 -0.9632
  478MOL0     H64509   3.361   6.715   6.848 -0.1520  1.2413  0.7434
  478MOL0     H64510   3.257   7.417   7.087 -0.2974 -1.6448  0.7679
  478MOL0     H64511   3.026   7.476   7.097 -0.5887 -0.7369 -0.1310
  478MOL0     H64512   2.654   7.494   7.341 -1.2988  1.8542  2.3495
  478MOL0     H64513   2.417   7.473   7.279 -1.0986 -0.6877 -0.5312
  478MOL0     H64514   1.496   8.268   7.077  0.1696  2.9318  2.4139
  478MOL0     H64515   1.682   8.427   7.004 -0.7348 -0.5561  2.5305
  478MOL0     H64516   1.849   8.698   6.720 -0.1919 -0.1848  0.3176
  478MOL0     H64517   1.994   8.832   6.578  1.7413  4.4082 -1.6011
  478MOL0     H64518   2.009   9.289   6.594 -0.2150  0.0649  0.8543
  478MOL0     H64519   1.871   9.229   6.502 -1.3371 -4.0087  0.1418
  478MOL0     H64520   2.024   9.343   6.357  1.3475  0.7344  1.0731
  478MOL0     H64521   2.018   9.173   6.308 -0.0168 -0.4005 -0.6445
  478MOL0     H64522   2.237   9.137   6.387  0.4921  1.0806 -1.9112
  478MOL0     H64523   2.223   9.277   6.501 -1.2294  2.2400 -0.6730
  478MOL0     H64524   2.325   9.267   6.216  0.8087  2.1204 -0.1241
  478MOL0     H64525   2.229   9.402   6.263  1.4943  2.1350  1.0333
  478MOL0     H64526   2.580   9.424   6.492  1.2831 -0.6359 -1.2675
  478MOL0     H64527   1.770   9.181   6.689 -1.4796 -0.4024  1.2284
  478MOL0     H64528   1.500   9.044   6.764 -0.7401  1.3747  0.7304
  478MOL0     H64529   1.569   9.044   6.928  0.9670  0.2749  0.1697
  478MOL0     H64530   1.610   9.179   6.820  0.0011  0.4114  3.2877
  479MOL0     O64531  11.238   8.571   0.362 -0.3107  0.5560 -0.5848
  479MOL0     C64532  11.193   8.684   0.377  0.3221  1.0721  0.1553
  479MOL0     O64533  11.272   8.791   0.377  0.1145 -0.7581  0.5032
  479MOL0     C64534  11.409   8.793   0.346 -0.0732 -0.1622  0.6521
  479MOL0     C64535  11.440   8.925   0.302  0.7281  0.5808  0.0996
  479MOL0     C64536  11.581   8.958   0.286 -0.0714  0.2934 -0.4702
  479MOL0     C64537  11.681   8.860   0.301  0.4737  0.0467  0.1289
  479MOL0     O64538  11.813   8.890   0.283 -0.7832 -0.4523  0.1416
  479MOL0     C64539  11.914   8.839   0.383  0.7318 -0.3787 -0.4547
  479MOL0     C64540  12.038   8.921   0.368 -0.9798 -0.8537  0.0682
  479MOL0     C64541  12.141   8.889   0.476 -0.7737 -0.1726  0.4844
  479MOL0     C64542  12.211   8.758   0.457 -0.3339  0.7045  0.8316
  479MOL0     C64543  12.321   8.738   0.559  0.5629 -0.5073  0.3891
  479MOL0     C64544  12.427   8.853   0.567  1.1623  0.1034  0.3075
  479MOL0     C64545  12.545   8.812   0.653 -0.8878  0.1301 -0.2599
  479MOL0     C64546  12.633   8.940   0.647 -1.1764 -1.0616  0.0136
  479MOL0     N64547  12.764   8.917   0.707 -0.5681 -0.0702 -0.7435
  479MOL0     C64548  12.887   8.958   0.653  0.6493 -0.4887  0.4476
  479MOL0     C64549  12.974   8.954   0.754 -0.5181  0.4602 -0.5186
  479MOL0     C64550  13.125   8.988   0.740  0.1443 -0.1226  0.1576
  479MOL0     C64551  13.203   8.862   0.786 -0.2045  0.3035 -0.3989
  479MOL0     C64552  13.351   8.885   0.753 -0.5260 -0.0956  0.3764
  479MOL0     C64553  13.381   8.831   0.611  0.5025 -1.2494 -0.1316
  479MOL0     O64554  13.410   8.694   0.631 -0.4133 -0.2054  0.5356
  479MOL0     C64555  13.490   8.631   0.536 -0.0337 -0.2435 -0.2667
  479MOL0     C64556  13.512   8.499   0.567 -0.4046  0.1044  0.8214
  479MOL0     C64557  13.575   8.415   0.475  0.7485  0.0964  0.4137
  479MOL0     C64558  13.603   8.466   0.352  0.3776  0.5838  0.5924
  479MOL0     C64559  13.664   8.378   0.250 -0.0829 -0.8408  0.1340
  479MOL0     O64560  13.720   8.267   0.296 -0.3300 -0.2805  0.2810
  479MOL0     C64561  13.791   8.194   0.214 -0.1725 -0.4981 -0.1936
  479MOL0     C64562  13.921   8.171   0.254  0.3397 -0.5263 -0.1173
  479MOL0     C64563  14.001   8.098   0.161 -0.6745 -0.2988  0.9688
  479MOL0     C64564  13.952   8.040   0.041 -0.3512  0.2100 -0.3970
  479MOL0     O64565  14.034   7.958  -0.032 -0.9509 -0.0115  0.4945
  479MOL0     C64566  14.115   7.856   0.029  0.1046 -1.2030 -0.6547
  479MOL0     C64567  14.261   7.902   0.056 -0.8943 -0.1294 -0.1838
  479MOL0     C64568  14.335   7.991  -0.047  0.0405  0.2596 -0.5379
  479MOL0     C64569  14.337   7.917  -0.181 -0.6536  0.5053 -0.3733
  479MOL0     C64570  14.434   7.971  -0.282 -0.6643 -0.4926 -0.2065
  479MOL0     C64571  14.382   7.965  -0.424  0.4651  0.0158 -0.0012
  479MOL0     C64572  14.248   8.040  -0.439 -0.4493  0.4831  0.4209
  479MOL0     C64573  14.218   8.046  -0.586 -0.6091 -0.3489  0.8029
  479MOL0    Cl64574  14.216   7.892  -0.677  0.2128 -0.0696 -0.3125
  479MOL0     C64575  13.814   8.057   0.011  0.1373  0.6018 -0.3650
  479MOL0     C64576  13.733   8.132   0.097 -0.2293  1.3333 -0.6088
  479MOL0     O64577  13.660   8.423   0.134  0.3954  1.0116  0.1406
  479MOL0     C64578  13.581   8.602   0.321 -0.2303 -0.4385  0.5999
  479MOL0     C64579  13.520   8.683   0.418 -0.6089 -0.4374 -0.2291
  479MOL0     N64580  12.897   8.937   0.868 -0.8068 -0.3213  0.8663
  479MOL0     N64581  12.780   8.889   0.844  0.0653 -0.2023  0.3884
  479MOL0     C64582  11.639   8.731   0.335 -0.0671  0.0550  0.3116
  479MOL0     C64583  11.504   8.691   0.355  0.0659 -0.1604  0.4455
  479MOL0     C64584  11.035   8.689   0.358 -0.4682 -0.5140  0.1453
  479MOL0     C64585  10.964   8.583   0.392  0.0282 -0.3232  0.1963
  479MOL0     C64586  10.824   8.579   0.381 -1.2354  0.2057  0.2102
  479MOL0     C64587  10.754   8.679   0.303 -0.7646  0.9278  0.6822
  479MOL0     O64588  10.622   8.642   0.289 -0.3660  0.0426  0.8518
  479MOL0     C64589  10.565   8.704   0.168 -0.0682  0.3415  0.6312
  479MOL0     C64590  10.432   8.639   0.134  0.4167  0.4294  0.2638
  479MOL0     C64591  10.335   8.651   0.256 -1.3229 -0.4586  0.9695
  479MOL0     C64592  10.183   8.660   0.217 -0.1879 -0.3442  0.2906
  479MOL0     C64593  10.159   8.746   0.094  0.8075 -0.5144 -0.8768
  479MOL0     C64594  10.148   8.813  -0.010 -0.0557 -0.0511  0.3728
  479MOL0     C64595  10.825   8.786   0.257  0.4767 -0.0952  0.7770
  479MOL0     C64596  10.965   8.788   0.282  0.1506  0.2032  0.1146
  479MOL0     C64597  11.031   8.905   0.223 -0.3964  0.7920  0.6451
  479MOL0     H64598  11.371   9.009   0.300  0.0623  0.0429 -0.0230
  479MOL0     H64599  11.620   9.058   0.265  0.7591  0.1602  0.3322
  479MOL0     H64600  11.870   8.837   0.483  1.5925  5.1074  0.3238
  479MOL0     H64601  11.935   8.735   0.358 -0.3193 -0.4661 -1.0334
  479MOL0     H64602  12.016   9.028   0.378  0.5149 -0.6068  1.0720
  479MOL0     H64603  12.086   8.901   0.272  1.4357 -2.8653  1.5596
  479MOL0     H64604  12.095   8.886   0.575 -1.1037 -4.6931  0.3816
  479MOL0     H64605  12.212   8.972   0.470 -1.8612  0.6836 -2.1485
  479MOL0     H64606  12.148   8.671   0.474 -1.2685  1.5406  1.7710
  479MOL0     H64607  12.263   8.754   0.361  1.4143 -3.3460  1.7624
  479MOL0     H64608  12.284   8.721   0.660 -1.3118  0.4078 -0.1143
  479MOL0     H64609  12.370   8.643   0.534 -0.6427 -1.5054  1.7203
  479MOL0     H64610  12.465   8.881   0.468  2.0945  0.0689  0.6499
  479MOL0     H64611  12.382   8.941   0.614  1.6842  1.2756 -1.2973
  479MOL0     H64612  12.589   8.716   0.626  0.3355  0.7595 -0.5761
  479MOL0     H64613  12.516   8.811   0.759 -1.2699  1.8897 -0.3019
  479MOL0     H64614  12.652   8.976   0.546 -1.5417 -0.8741  0.0106
  479MOL0     H64615  12.595   9.030   0.695 -1.8467 -1.1343 -0.3743
  479MOL0     H64616  12.910   8.978   0.549 -0.4919  0.8476  0.4136
  479MOL0     H64617  13.154   9.007   0.636 -0.0359 -0.9524 -0.0537
  479MOL0     H64618  13.149   9.077   0.799 -2.0896  0.1731  0.6976
  479MOL0     H64619  13.175   8.856   0.891  0.4047 -0.5846 -0.2793
  479MOL0     H64620  13.181   8.768   0.734  0.7348 -0.7929  1.1009
  479MOL0     H64621  13.406   8.831   0.831  0.6664  0.9042  0.2749
  479MOL0     H64622  13.378   8.990   0.772 -0.7954 -0.1240  0.9395
  479MOL0     H64623  13.467   8.889   0.577 -1.7332  1.6635 -1.2869
  479MOL0     H64624  13.304   8.857   0.538  1.9440  0.9682 -0.9588
  479MOL0     H64625  13.481   8.449   0.658  0.2610 -0.0544  0.9696
  479MOL0     H64626  13.599   8.311   0.497  0.7180  0.3670  1.7636
  479MOL0     H64627  13.967   8.217   0.341 -0.7400  2.0239 -0.7915
  479MOL0     H64628  14.103   8.089   0.195 -1.1323 -0.3233  2.3665
  479MOL0     H64629  14.058   7.827   0.117 -0.0510  0.9626  0.0115
  479MOL0     H64630  14.114   7.774  -0.044 -0.9927  1.3232 -3.7135
  479MOL0     H64631  14.261   7.957   0.150  2.0806 -0.6538  0.2182
  479MOL0     H64632  14.330   7.818   0.068  0.0018  0.7978  1.5132
  479MOL0     H64633  14.282   8.087  -0.055 -2.3243 -1.0179 -1.3272
  479MOL0     H64634  14.438   8.001  -0.012 -0.3186 -0.7923  0.8982
  479MOL0     H64635  14.233   7.918  -0.215 -0.3379 -2.9284 -1.8706
  479MOL0     H64636  14.369   7.812  -0.178  1.4613  0.9841 -2.7964
  479MOL0     H64637  14.534   7.927  -0.280 -1.2587 -2.1299 -2.3661
  479MOL0     H64638  14.443   8.080  -0.277 -1.0054 -0.3939 -1.4210
  479MOL0     H64639  14.461   8.011  -0.483  0.2570 -1.1184 -1.2137
  479MOL0     H64640  14.374   7.861  -0.457 -0.5466 -0.1562  0.7130
  479MOL0     H64641  14.259   8.143  -0.405 -0.3338  0.0872  1.6235
  479MOL0     H64642  14.163   7.984  -0.399 -2.0113 -2.5198 -5.7916
  479MOL0     H64643  14.123   8.095  -0.609 -0.4633  0.5798  2.1004
  479MOL0     H64644  14.296   8.102  -0.637  0.7756 -0.6564  2.4835
  479MOL0     H64645  13.766   8.009  -0.073 -0.4097 -1.4808  1.0578
  479MOL0     H64646  13.627   8.150   0.087 -0.5089 -0.1094 -0.3416
  479MOL0     H64647  13.620   8.660   0.238  0.9206  1.1177  2.1353
  479MOL0     H64648  13.491   8.783   0.389 -1.5404 -0.3650  0.8860
  479MOL0     H64649  11.711   8.650   0.336  0.7932  0.7138  3.4867
  479MOL0     H64650  11.477   8.590   0.383  1.4477 -0.3850  1.0686
  479MOL0     H64651  11.005   8.493   0.437 -1.8989 -1.0831  0.5465
  479MOL0     H64652  10.777   8.489   0.418 -0.3197  0.1325  1.2340
  479MOL0     H64653  10.631   8.688   0.083 -1.9690 -0.1507 -0.8061
  479MOL0     H64654  10.550   8.813   0.172  1.9643  0.6889  0.0424
  479MOL0     H64655  10.448   8.533   0.113 -0.8898  0.2530  0.1227
  479MOL0     H64656  10.395   8.688   0.044 -1.1961  1.2799  1.3394
  479MOL0     H64657  10.371   8.732   0.319 -0.7047 -0.3647  0.5105
  479MOL0     H64658  10.363   8.560   0.310  1.1969 -0.0688  0.4455
  479MOL0     H64659  10.148   8.556   0.211 -0.7518 -0.3528  2.6618
  479MOL0     H64660  10.123   8.711   0.293 -0.8303  2.2375 -1.7919
  479MOL0     H64661  10.146   8.868  -0.102 -0.6635 -1.6652 -0.6267
  479MOL0     H64662  10.770   8.864   0.205 -0.6547 -1.7627 -0.6508
  479MOL0     H64663  11.085   8.871   0.134 -2.0364 -0.4258  0.0609
  479MOL0     H64664  10.952   8.966   0.179 -3.2903 -2.6480  0.5743
  479MOL0     H64665  11.078   8.960   0.305 -3.0643 -0.9566  3.5745
  480MOL0     O64666  11.260   4.875   1.567  0.2950  0.2251  0.1801
  480MOL0     C64667  11.166   4.954   1.570  0.0907 -0.4584 -0.0689
  480MOL0     O64668  11.161   5.066   1.486 -0.0790 -0.5241 -0.1263
  480MOL0     C64669  11.279   5.091   1.423 -0.0436  0.2855  1.3788
  480MOL0     C64670  11.393   5.135   1.491 -0.5106 -0.0719  1.3485
  480MOL0     C64671  11.503   5.161   1.414 -0.5688  0.5287 -0.7253
  480MOL0     C64672  11.505   5.150   1.275  0.0653  0.0824  0.8003
  480MOL0     O64673  11.616   5.180   1.198  0.0198 -1.0495  0.2411
  480MOL0     C64674  11.711   5.274   1.260 -0.2164  0.6617 -0.3997
  480MOL0     C64675  11.787   5.336   1.151 -0.3186  0.0618 -0.3385
  480MOL0     C64676  11.728   5.460   1.093 -0.6031  0.2156 -0.2231
  480MOL0     C64677  11.814   5.493   0.974  0.8017  0.6413  0.0684
  480MOL0     C64678  11.759   5.623   0.889 -0.7389  0.1368 -0.7027
  480MOL0     C64679  11.656   5.577   0.791  0.7928 -0.1067  1.3668
  480MOL0     C64680  11.620   5.706   0.703  0.1044 -0.2841  0.3923
  480MOL0     C64681  11.508   5.694   0.590 -0.4019 -0.8006 -1.1278
  480MOL0     N64682  11.563   5.628   0.471 -0.0480  0.1353  0.3408
  480MOL0     C64683  11.628   5.696   0.373 -0.1033 -0.7674  0.3826
  480MOL0     C64684  11.665   5.600   0.281  0.5793 -0.3405 -0.3382
  480MOL0     C64685  11.727   5.624   0.148  0.9004 -0.1313 -0.3912
  480MOL0     C64686  11.642   5.549   0.038  0.1436  0.5318  0.5337
  480MOL0     C64687  11.520   5.633   0.006  0.8501 -0.1738  0.5315
  480MOL0     C64688  11.452   5.584  -0.121 -0.3578  0.6996  0.6932
  480MOL0     O64689  11.366   5.690  -0.174  0.0674 -0.1342 -0.3250
  480MOL0     C64690  11.417   5.810  -0.226 -0.3350  0.2833  0.1890
  480MOL0     C64691  11.323   5.910  -0.245 -0.3671 -0.8569 -0.0670
  480MOL0     C64692  11.356   6.038  -0.290  0.1891  0.3616 -0.3015
  480MOL0     C64693  11.489   6.068  -0.325  0.2823  0.0537  1.0659
  480MOL0     C64694  11.515   6.196  -0.398 -0.3884 -0.3137 -0.9057
  480MOL0     O64695  11.647   6.220  -0.410 -0.4282 -0.1223 -1.1308
  480MOL0     C64696  11.689   6.342  -0.462  0.2443 -0.5543 -0.4996
  480MOL0     C64697  11.644   6.463  -0.404  0.5164  0.6282 -0.5845
  480MOL0     C64698  11.691   6.586  -0.455 -0.4503  0.1293 -0.3181
  480MOL0     C64699  11.779   6.587  -0.558  0.4291 -0.2071 -0.7142
  480MOL0     O64700  11.807   6.717  -0.591 -0.4097 -0.7796 -0.0382
  480MOL0     C64701  11.897   6.739  -0.702 -0.1639  0.6158 -0.4115
  480MOL0     C64702  11.945   6.884  -0.732 -0.0312 -0.8317 -0.5996
  480MOL0     C64703  12.034   6.932  -0.616  0.3313 -0.0469 -0.0228
  480MOL0     C64704  12.038   7.084  -0.597 -0.8493 -0.9371  0.0787
  480MOL0     C64705  12.113   7.157  -0.704 -0.8813 -0.3401  0.2074
  480MOL0     C64706  12.082   7.312  -0.709 -0.2705  0.3591 -0.3164
  480MOL0     C64707  11.943   7.325  -0.767 -0.4451 -0.5994  0.8960
  480MOL0     C64708  11.845   7.373  -0.655  0.4333 -0.1918 -0.3785
  480MOL0    Cl64709  11.706   7.473  -0.726  0.4330  0.2249 -0.1151
  480MOL0     C64710  11.836   6.466  -0.611  0.2244 -0.2283  0.2572
  480MOL0     C64711  11.783   6.347  -0.570  0.4031  0.1234 -0.0424
  480MOL0     O64712  11.423   6.261  -0.447  0.0650  0.2820  1.0499
  480MOL0     C64713  11.584   5.961  -0.316  0.1516  1.0611 -0.5016
  480MOL0     C64714  11.549   5.828  -0.274 -0.1241 -0.7327 -0.8203
  480MOL0     N64715  11.632   5.478   0.328 -0.0584  0.0633 -0.0699
  480MOL0     N64716  11.558   5.490   0.441 -0.6509 -0.7333 -0.5518
  480MOL0     C64717  11.380   5.108   1.211 -0.2126 -1.0876 -0.4719
  480MOL0     C64718  11.270   5.082   1.282 -0.3951  0.5709 -0.1829
  480MOL0     C64719  11.047   4.924   1.657  0.1523 -0.6269  0.1161
  480MOL0     C64720  10.923   4.987   1.630 -0.4549  0.4931  0.2235
  480MOL0     C64721  10.821   4.972   1.713 -0.5510  0.2187  0.9379
  480MOL0     C64722  10.822   4.893   1.826  0.4499 -0.1179 -1.1991
  480MOL0     O64723  10.705   4.890   1.902 -0.1027 -0.0988  0.0896
  480MOL0     C64724  10.694   4.808   2.024 -0.2558  0.8659 -0.3523
  480MOL0     C64725  10.663   4.668   1.999  0.3382 -0.3047 -0.6774
  480MOL0     C64726  10.544   4.650   1.909 -0.2012 -0.0657  0.0516
  480MOL0     C64727  10.543   4.503   1.873  0.0779 -0.3756 -0.2359
  480MOL0     C64728  10.425   4.474   1.794  0.6320 -0.3924  0.0160
  480MOL0     C64729  10.335   4.441   1.715  0.1348  0.4651  0.5928
  480MOL0     C64730  10.950   4.830   1.867  0.0149 -0.7155  0.4539
  480MOL0     C64731  11.061   4.852   1.779  0.4127 -0.2709  0.6120
  480MOL0     C64732  11.189   4.780   1.823  0.1702 -0.2887 -0.0384
  480MOL0     H64733  11.388   5.154   1.598 -1.7341 -1.9929  1.6781
  480MOL0     H64734  11.583   5.209   1.470 -2.7085 -0.5085  3.6510
  480MOL0     H64735  11.669   5.352   1.324  3.1660  2.0860  0.2929
  480MOL0     H64736  11.780   5.214   1.320 -0.6748 -2.2088 -2.5367
  480MOL0     H64737  11.800   5.258   1.076 -0.5856 -0.2395 -0.0751
  480MOL0     H64738  11.886   5.370   1.182 -0.0217 -0.5663 -0.5734
  480MOL0     H64739  11.739   5.544   1.162  2.6840 -0.8784  0.7635
  480MOL0     H64740  11.624   5.447   1.062 -0.6801  0.2587  0.0157
  480MOL0     H64741  11.913   5.516   1.014  0.3646  1.9420  0.4625
  480MOL0     H64742  11.827   5.407   0.907  2.4529 -1.4062  2.7859
  480MOL0     H64743  11.727   5.697   0.963 -2.4348  0.6113 -1.8648
  480MOL0     H64744  11.846   5.657   0.832  0.8218 -1.1259  0.7976
  480MOL0     H64745  11.697   5.501   0.724 -1.1531  0.2130 -0.2879
  480MOL0     H64746  11.566   5.541   0.844 -1.4496  3.8181  0.6488
  480MOL0     H64747  11.708   5.739   0.647 -0.6884  2.1074  0.4374
  480MOL0     H64748  11.598   5.790   0.770 -0.8421  0.1923 -0.4930
  480MOL0     H64749  11.418   5.654   0.639 -1.8285  3.3126 -0.0273
  480MOL0     H64750  11.483   5.795   0.556 -1.3720 -0.4580  0.5022
  480MOL0     H64751  11.637   5.804   0.368  0.0029 -0.7735  0.4511
  480MOL0     H64752  11.744   5.731   0.130 -1.6266  0.4993  0.5443
  480MOL0     H64753  11.824   5.575   0.144  2.1924  2.3730 -2.1819
  480MOL0     H64754  11.709   5.542  -0.047  0.2175  3.5708  0.2609
  480MOL0     H64755  11.616   5.445   0.062 -0.4176  0.5465  0.0162
  480MOL0     H64756  11.549   5.738  -0.004  1.4101 -0.3865 -0.2406
  480MOL0     H64757  11.440   5.624   0.080 -1.7684 -2.1982 -2.2621
  480MOL0     H64758  11.384   5.503  -0.091 -1.1204  1.4663  1.0770
  480MOL0     H64759  11.531   5.560  -0.192  1.5687  0.7890  2.6982
  480MOL0     H64760  11.219   5.899  -0.219 -0.4253  0.1226  0.1280
  480MOL0     H64761  11.273   6.104  -0.311  0.9256  1.7569  0.9996
  480MOL0     H64762  11.594   6.464  -0.308 -0.8680  0.0174 -1.2833
  480MOL0     H64763  11.664   6.671  -0.394 -1.5617 -0.7490  0.4399
  480MOL0     H64764  11.986   6.676  -0.691 -0.2937  0.6801  1.3521
  480MOL0     H64765  11.854   6.709  -0.798  0.2768  0.0344 -0.4352
  480MOL0     H64766  11.995   6.893  -0.828  0.5356  1.1681 -0.1775
  480MOL0     H64767  11.861   6.954  -0.738  0.2636 -0.2994  0.9465
  480MOL0     H64768  11.996   6.892  -0.521 -0.1387  1.3986  0.4244
  480MOL0     H64769  12.135   6.891  -0.618  0.1818 -0.4632 -2.7349
  480MOL0     H64770  12.086   7.095  -0.500  1.1979 -3.5919 -0.5142
  480MOL0     H64771  11.934   7.118  -0.594 -0.7733 -0.7640  0.8289
  480MOL0     H64772  12.104   7.105  -0.800 -1.9405 -2.2504  1.2859
  480MOL0     H64773  12.221   7.150  -0.690 -0.4345  0.6944 -2.1537
  480MOL0     H64774  12.091   7.349  -0.607 -3.0255 -1.1355  0.5518
  480MOL0     H64775  12.144   7.368  -0.780 -1.9701  0.8271 -1.5065
  480MOL0     H64776  11.912   7.230  -0.811 -1.7903  1.1034 -2.0924
  480MOL0     H64777  11.953   7.393  -0.851  1.1798  1.7096  2.7958
  480MOL0     H64778  11.802   7.283  -0.611  1.5925 -1.1078 -1.0748
  480MOL0     H64779  11.894   7.439  -0.582 -0.3961  3.8746 -3.2010
  480MOL0     H64780  11.899   6.460  -0.699 -2.0362  1.8566 -1.6489
  480MOL0     H64781  11.827   6.260  -0.617 -0.3749 -1.9012  2.6964
  480MOL0     H64782  11.687   5.980  -0.342  1.4292 -1.4886  2.1549
  480MOL0     H64783  11.628   5.754  -0.272  1.2361  0.6832 -0.4382
  480MOL0     H64784  11.381   5.105   1.102  1.7042 -2.9278 -0.4766
  480MOL0     H64785  11.185   5.052   1.222  1.8887  0.7053 -3.8285
  480MOL0     H64786  10.909   5.026   1.529 -0.0453 -2.2805 -0.9806
  480MOL0     H64787  10.728   5.015   1.677 -0.9140 -1.8420 -0.7728
  480MOL0     H64788  10.619   4.857   2.088  1.3964  0.6996  1.8375
  480MOL0     H64789  10.786   4.826   2.081 -1.7467 -0.4826  2.7022
  480MOL0     H64790  10.653   4.613   2.093 -2.0776  2.3549  0.7856
  480MOL0     H64791  10.749   4.622   1.949  0.8429 -0.2387  0.1076
  480MOL0     H64792  10.558   4.716   1.823  1.4201  1.1762  1.1810
  480MOL0     H64793  10.451   4.685   1.956 -1.6210 -2.5945 -0.7053
  480MOL0     H64794  10.630   4.476   1.811  0.2791 -0.5561  0.1209
  480MOL0     H64795  10.537   4.445   1.965  1.9833  2.3474  1.7831
  480MOL0     H64796  10.266   4.406   1.641  0.1530  2.0290 -0.2089
  480MOL0     H64797  10.959   4.762   1.951 -0.6872 -0.7245  0.5269
  480MOL0     H64798  11.279   4.841   1.811  0.0587 -0.6503 -4.7681
  480MOL0     H64799  11.186   4.747   1.927  2.8447 -0.8862 -0.0746
  480MOL0     H64800  11.196   4.691   1.759 -2.9624 -2.0988  1.8695
  481MOL0     O64801   5.860   4.761   8.945  0.0917  0.7264  0.8674
  481MOL0     C64802   5.926   4.732   8.843 -0.4902 -0.2585  0.9031
  481MOL0     O64803   6.061   4.773   8.822  0.0852  0.5622  0.1957
  481MOL0     C64804   6.136   4.827   8.922 -0.1499 -0.2390 -0.1520
  481MOL0     C64805   6.243   4.910   8.883  0.2568  0.1553 -1.1905
  481MOL0     C64806   6.325   4.976   8.977  0.7164  0.5745 -0.2440
  481MOL0     C64807   6.302   4.951   9.105 -0.5270 -0.1917 -0.4977
  481MOL0     O64808   6.380   5.012   9.207  0.6456 -0.1429 -0.1034
  481MOL0     C64809   6.469   4.924   9.272 -0.7527 -0.7949  0.3608
  481MOL0     C64810   6.559   5.000   9.370 -1.1501 -0.5718 -0.4647
  481MOL0     C64811   6.692   4.916   9.415  1.2887  0.1917 -0.0953
  481MOL0     C64812   6.647   4.805   9.515 -0.2723 -0.3276 -0.1582
  481MOL0     C64813   6.760   4.749   9.604  0.0442  0.5942 -0.3364
  481MOL0     C64814   6.872   4.692   9.522 -0.5379  0.2269  0.9672
  481MOL0     C64815   6.936   4.568   9.590 -0.5918  0.4939 -0.0399
  481MOL0     C64816   7.070   4.552   9.525 -1.5470  0.5144 -0.2346
  481MOL0     N64817   7.141   4.433   9.582  0.0014  0.7095 -0.3732
  481MOL0     C64818   7.125   4.305   9.545  0.4688  0.0160  0.1646
  481MOL0     C64819   7.205   4.233   9.627 -0.2715 -0.8276 -0.5682
  481MOL0     C64820   7.235   4.092   9.626  0.5437 -0.2230  0.4680
  481MOL0     C64821   7.369   4.077   9.538 -0.0525 -0.3743 -0.3824
  481MOL0     C64822   7.373   3.939   9.485  0.4184  0.1231 -0.4532
  481MOL0     C64823   7.507   3.896   9.426 -0.5813 -0.9657 -0.3703
  481MOL0     O64824   7.608   3.889   9.529 -0.4205  1.2497  0.6805
  481MOL0     C64825   7.735   3.831   9.498  0.6878  0.1578 -0.1923
  481MOL0     C64826   7.821   3.810   9.616 -0.1984 -0.1932  0.7535
  481MOL0     C64827   7.945   3.755   9.606  0.3599  0.2067  0.0718
  481MOL0     C64828   7.986   3.701   9.480  0.4491  0.6653  0.9524
  481MOL0     C64829   8.118   3.645   9.458  0.1288  0.1670  0.1136
  481MOL0     O64830   8.154   3.587   9.336  0.4488  0.3076 -0.7235
  481MOL0     C64831   8.268   3.516   9.325 -0.1910 -0.4867 -0.7788
  481MOL0     C64832   8.398   3.523   9.390  0.0612  0.0045  0.0640
  481MOL0     C64833   8.513   3.444   9.345  1.2323 -0.1128  0.1484
  481MOL0     C64834   8.489   3.338   9.259 -0.0002  0.4890  0.5294
  481MOL0     O64835   8.578   3.239   9.233 -0.2480 -0.0695  1.0054
  481MOL0     C64836   8.712   3.295   9.223  0.4996 -0.2430 -0.6440
  481MOL0     C64837   8.775   3.235   9.099 -0.2564  0.1814  0.1924
  481MOL0     C64838   8.928   3.271   9.084  1.0232  0.3140 -0.2887
  481MOL0     C64839   8.989   3.211   8.951  0.6324 -0.2501  0.5889
  481MOL0     C64840   9.113   3.287   8.908  0.3904 -0.0448  0.9957
  481MOL0     C64841   9.202   3.215   8.808 -0.0269 -0.1447 -0.1050
  481MOL0     C64842   9.278   3.294   8.714 -0.2717 -0.6627  0.2489
  481MOL0     C64843   9.381   3.219   8.625 -0.0643 -0.5336  0.7084
  481MOL0    Cl64844   9.299   3.081   8.541  0.2348 -0.4773  0.4974
  481MOL0     C64845   8.367   3.328   9.191 -0.0752  0.2579  0.6041
  481MOL0     C64846   8.256   3.415   9.225 -0.3259 -0.5227  0.3703
  481MOL0     O64847   8.190   3.654   9.548 -0.6313 -0.0353 -0.4641
  481MOL0     C64848   7.890   3.700   9.377  0.5224  0.8653  0.6026
  481MOL0     C64849   7.772   3.766   9.384  0.7849  0.6418 -0.2042
  481MOL0     N64850   7.262   4.321   9.724 -0.5020 -0.1688  0.2310
  481MOL0     N64851   7.224   4.444   9.693 -0.1473 -0.1285 -0.0192
  481MOL0     C64852   6.199   4.876   9.145 -0.1973 -0.4135 -0.5086
  481MOL0     C64853   6.112   4.809   9.061  0.3638  0.1193 -0.1086
  481MOL0     C64854   5.849   4.672   8.728 -0.3556  0.1666 -0.9049
  481MOL0     C64855   5.901   4.674   8.598  0.5243 -0.7063 -0.1784
  481MOL0     C64856   5.821   4.641   8.482 -1.0768  1.2948  0.1138
  481MOL0     C64857   5.698   4.578   8.499  0.4284  0.6021 -0.3039
  481MOL0     O64858   5.611   4.544   8.396 -0.9433 -0.6625 -0.1500
  481MOL0     C64859   5.642   4.557   8.259 -0.6226 -0.5769  0.3933
  481MOL0     C64860   5.726   4.453   8.191  0.2927  1.2230  0.1241
  481MOL0     C64861   5.727   4.458   8.042  0.1776  0.1735 -0.3676
  481MOL0     C64862   5.761   4.597   7.980 -0.5306  0.0262 -0.6842
  481MOL0     C64863   5.769   4.584   7.835 -0.6629  0.4942 -0.9760
  481MOL0     C64864   5.780   4.558   7.716  0.4651 -0.1552  0.7708
  481MOL0     C64865   5.656   4.546   8.629 -0.5536 -0.3024  0.2894
  481MOL0     C64866   5.728   4.593   8.743 -0.1857 -0.5287  0.6496
  481MOL0     C64867   5.694   4.532   8.876  0.4314  0.0504  0.1007
  481MOL0     H64868   6.272   4.915   8.779  2.9581 -0.8898 -0.6014
  481MOL0     H64869   6.414   5.028   8.943  1.6803 -0.4080  0.6801
  481MOL0     H64870   6.406   4.852   9.325 -2.4485  1.0596  1.0148
  481MOL0     H64871   6.529   4.881   9.191  1.3059  0.5604  1.0851
  481MOL0     H64872   6.489   5.016   9.453 -2.2811  1.4689 -1.7139
  481MOL0     H64873   6.598   5.095   9.334  2.5336 -1.4487  0.7856
  481MOL0     H64874   6.766   4.983   9.460 -0.6466  1.2096  1.7584
  481MOL0     H64875   6.743   4.886   9.322 -0.0945  0.8627 -1.0976
  481MOL0     H64876   6.558   4.842   9.567 -2.3106 -3.0381 -1.4261
  481MOL0     H64877   6.599   4.722   9.462 -1.1929  0.3744 -0.4624
  481MOL0     H64878   6.810   4.825   9.666 -1.1279  0.8867  0.2844
  481MOL0     H64879   6.721   4.675   9.674 -1.0853  0.9002 -0.6269
  481MOL0     H64880   6.823   4.659   9.430 -2.0880 -0.8763  2.1240
  481MOL0     H64881   6.936   4.778   9.502 -0.5014  0.1329  0.6768
  481MOL0     H64882   6.875   4.478   9.580 -0.6257  0.6209 -1.0646
  481MOL0     H64883   6.942   4.571   9.699 -1.4886 -1.2946  0.0991
  481MOL0     H64884   7.066   4.547   9.416 -2.6821  0.7031 -0.2171
  481MOL0     H64885   7.129   4.642   9.544 -3.2089  1.3364  1.2699
  481MOL0     H64886   7.058   4.273   9.466 -0.0210 -1.3987  1.1082
  481MOL0     H64887   7.259   4.064   9.728 -0.7547 -1.0958  0.5626
  481MOL0     H64888   7.153   4.035   9.582  0.4129  0.6306 -0.4612
  481MOL0     H64889   7.356   4.144   9.453  1.1248 -0.5731 -0.7377
  481MOL0     H64890   7.458   4.094   9.599 -0.3632 -0.5580  0.1352
  481MOL0     H64891   7.287   3.923   9.420  0.0500 -3.2011  0.6494
  481MOL0     H64892   7.363   3.866   9.566 -0.1792 -2.8258 -3.0110
  481MOL0     H64893   7.537   3.969   9.351  3.4388  0.1642  2.0697
  481MOL0     H64894   7.500   3.807   9.362  0.6856 -2.0807  0.9487
  481MOL0     H64895   7.781   3.838   9.713 -0.0974  0.8131  0.5089
  481MOL0     H64896   8.010   3.745   9.692 -0.4178  1.8612  0.8997
  481MOL0     H64897   8.427   3.604   9.455  0.2688 -0.0082 -0.0122
  481MOL0     H64898   8.614   3.450   9.386  0.4850 -1.6000  2.3571
  481MOL0     H64899   8.721   3.402   9.207 -0.5509 -0.2908 -1.6681
  481MOL0     H64900   8.767   3.253   9.308  0.3177  2.3464  0.8568
  481MOL0     H64901   8.768   3.126   9.107 -1.4973  0.2900  0.9471
  481MOL0     H64902   8.715   3.264   9.012  0.7452 -1.5623 -1.1341
  481MOL0     H64903   8.950   3.377   9.098 -0.2129  0.4515  0.7870
  481MOL0     H64904   8.971   3.219   9.170  0.6726 -0.4462 -0.5653
  481MOL0     H64905   8.911   3.217   8.875  0.2278 -0.7668  0.9577
  481MOL0     H64906   9.016   3.107   8.971 -2.7257 -0.9240  2.3255
  481MOL0     H64907   9.156   3.330   8.999 -2.3217  0.0610  2.3146
  481MOL0     H64908   9.074   3.375   8.855  0.0296 -1.8077 -1.9142
  481MOL0     H64909   9.268   3.152   8.868 -2.2810 -0.8473  1.8072
  481MOL0     H64910   9.137   3.154   8.745 -0.2025  0.1577 -0.2223
  481MOL0     H64911   9.333   3.368   8.772  1.3737  1.3311 -3.4746
  481MOL0     H64912   9.207   3.344   8.647 -1.5158  0.0399  2.0147
  481MOL0     H64913   9.418   3.293   8.554  1.9615 -1.4725  0.7050
  481MOL0     H64914   9.455   3.199   8.703  0.7105  1.8450  0.6657
  481MOL0     H64915   8.357   3.257   9.109 -1.6829  1.5612 -0.3888
  481MOL0     H64916   8.160   3.385   9.184  0.4275 -0.4530 -1.5507
  481MOL0     H64917   7.919   3.650   9.285 -0.0469 -1.2575  1.5164
  481MOL0     H64918   7.699   3.785   9.306 -0.3044 -1.2143  0.3149
  481MOL0     H64919   6.192   4.860   9.253  0.2443  2.3168 -0.0108
  481MOL0     H64920   6.040   4.736   9.098 -0.2829  0.7006 -0.1884
  481MOL0     H64921   5.993   4.726   8.574  1.8239 -3.0778 -0.5544
  481MOL0     H64922   5.869   4.659   8.386  1.5517 -0.1054  1.0587
  481MOL0     H64923   5.697   4.648   8.232  0.3330 -1.5394 -1.0008
  481MOL0     H64924   5.543   4.558   8.212 -0.3693  0.1702 -0.1442
  481MOL0     H64925   5.682   4.355   8.212  0.5920  0.1159 -3.6001
  481MOL0     H64926   5.829   4.449   8.228  0.5954  1.1489 -0.6974
  481MOL0     H64927   5.630   4.434   7.997  1.2512 -3.4348 -1.0851
  481MOL0     H64928   5.799   4.387   8.000 -1.5152 -0.0255 -3.2166
  481MOL0     H64929   5.704   4.687   8.005  1.0428  1.4230 -1.8788
  481MOL0     H64930   5.864   4.622   8.005 -0.1403 -0.1372 -2.0360
  481MOL0     H64931   5.809   4.541   7.615 -1.8198 -1.1477  0.2162
  481MOL0     H64932   5.564   4.490   8.638 -0.4548 -1.2623 -3.3496
  481MOL0     H64933   5.606   4.469   8.863 -2.2963  3.6569 -0.6262
  481MOL0     H64934   5.775   4.470   8.915 -0.0093 -0.0072  0.9412
  481MOL0     H64935   5.666   4.601   8.957  0.4680 -1.9347  1.8896
  482MOL0     O64936   3.969  10.532   0.316  0.3920 -0.1852  0.4298
  482MOL0     C64937   4.001  10.629   0.245 -0.3527  0.3360 -0.7137
  482MOL0     O64938   4.119  10.691   0.247 -0.4312 -0.1010 -0.2283
  482MOL0     C64939   4.227  10.630   0.315 -0.4068 -0.8476  0.0084
  482MOL0     C64940   4.353  10.626   0.248  0.1897  0.2557  0.1135
  482MOL0     C64941   4.465  10.574   0.321  0.3172 -0.3247 -0.6286
  482MOL0     C64942   4.449  10.536   0.454  0.4736  0.3181 -0.4177
  482MOL0     O64943   4.561  10.512   0.529 -0.3389 -0.3053  0.9960
  482MOL0     C64944   4.552  10.412   0.628 -0.3145 -0.0128 -0.1907
  482MOL0     C64945   4.695  10.361   0.644 -0.2726  0.1377  0.6086
  482MOL0     C64946   4.772  10.475   0.705 -0.1315  0.2146  0.1541
  482MOL0     C64947   4.855  10.420   0.828 -0.9871  0.2102 -0.1793
  482MOL0     C64948   4.986  10.356   0.782 -0.1135  0.2325 -0.6470
  482MOL0     C64949   5.069  10.468   0.719  0.1633 -0.6476 -0.3166
  482MOL0     C64950   5.214  10.408   0.699  0.2160 -0.8174  0.4083
  482MOL0     C64951   5.318  10.530   0.681 -0.0559  1.0823  0.2834
  482MOL0     N64952   5.443  10.492   0.620 -0.2957  0.2642  0.0061
  482MOL0     C64953   5.503  10.559   0.521  0.5789  0.0942 -0.1271
  482MOL0     C64954   5.622  10.499   0.517 -0.0156 -0.3448 -0.3589
  482MOL0     C64955   5.708  10.524   0.396 -0.1151 -0.3209 -0.8727
  482MOL0     C64956   5.819  10.617   0.441 -0.0611 -0.3757  0.0279
  482MOL0     C64957   5.761  10.762   0.478  0.8776  0.1093 -0.4332
  482MOL0     C64958   5.688  10.840   0.376 -0.1632 -0.2191 -0.5150
  482MOL0     O64959   5.759  10.821   0.254  0.2010  0.6050  0.8304
  482MOL0     C64960   5.720  10.878   0.128 -1.1447 -0.5061 -0.2157
  482MOL0     C64961   5.606  10.952   0.112 -0.1048 -0.4267  0.4013
  482MOL0     C64962   5.571  11.018  -0.009 -0.6985  0.5784  0.1319
  482MOL0     C64963   5.668  11.022  -0.113  0.0716 -0.4955 -0.0684
  482MOL0     C64964   5.625  11.094  -0.235 -0.5544 -1.0821 -0.0822
  482MOL0     O64965   5.519  11.185  -0.222 -0.1417 -0.3642  0.1101
  482MOL0     C64966   5.466  11.227  -0.337  0.0646  0.1320 -1.1371
  482MOL0     C64967   5.397  11.142  -0.417  0.3478  0.3277 -0.1521
  482MOL0     C64968   5.334  11.182  -0.529 -0.3549 -0.3800 -0.1221
  482MOL0     C64969   5.351  11.309  -0.568  0.3301 -0.1162 -0.3512
  482MOL0     O64970   5.282  11.345  -0.683  0.2816  0.3023 -0.4161
  482MOL0     C64971   5.202  11.461  -0.678  0.3590  0.8679 -0.0785
  482MOL0     C64972   5.055  11.445  -0.731 -0.2596 -0.4144  0.2848
  482MOL0     C64973   4.989  11.312  -0.692  0.8245 -0.6029 -0.2193
  482MOL0     C64974   4.897  11.334  -0.563 -0.1597  0.1078 -0.5088
  482MOL0     C64975   4.758  11.365  -0.600 -0.5608 -0.5866 -0.0387
  482MOL0     C64976   4.659  11.389  -0.491  1.6924 -0.3688 -0.6288
  482MOL0     C64977   4.680  11.522  -0.415 -0.6158  0.1512  0.1558
  482MOL0     C64978   4.671  11.649  -0.515  0.3732  0.4419 -0.2074
  482MOL0    Cl64979   4.516  11.674  -0.606 -0.4335 -0.0387 -0.0288
  482MOL0     C64980   5.420  11.395  -0.493  0.2827 -0.0167 -0.4372
  482MOL0     C64981   5.488  11.352  -0.376  0.0015  0.4952  0.0757
  482MOL0     O64982   5.691  11.075  -0.334 -0.2589  0.2070  0.2706
  482MOL0     C64983   5.780  10.940  -0.090  0.8112  0.0767 -0.3783
  482MOL0     C64984   5.811  10.869   0.026  0.5533 -0.7064 -0.4004
  482MOL0     N64985   5.636  10.405   0.609 -0.7477 -0.6627 -0.3336
  482MOL0     N64986   5.528  10.410   0.676  0.3759  0.5075  0.8105
  482MOL0     C64987   4.329  10.535   0.518  0.1776 -0.1770 -0.4656
  482MOL0     C64988   4.218  10.579   0.452 -0.0439 -0.4168  0.2786
  482MOL0     C64989   3.904  10.709   0.168  0.1771 -0.3630 -0.3205
  482MOL0     C64990   3.951  10.791   0.062 -0.3262 -0.2272 -0.2278
  482MOL0     C64991   3.861  10.875  -0.012 -0.2549 -0.0152 -0.9743
  482MOL0     C64992   3.723  10.856   0.011  1.5342 -0.2283 -0.0588
  482MOL0     O64993   3.624  10.930  -0.054 -0.3374 -0.1063  0.4047
  482MOL0     C64994   3.607  10.906  -0.198  0.6224 -0.3041  0.0159
  482MOL0     C64995   3.537  10.764  -0.211  0.3873  0.2689  0.6020
  482MOL0     C64996   3.524  10.722  -0.358  1.1858 -0.5153 -0.3782
  482MOL0     C64997   3.395  10.778  -0.427 -0.7985  0.2384 -0.3256
  482MOL0     C64998   3.399  10.918  -0.465  0.3155  0.4293 -0.2712
  482MOL0     C64999   3.403  11.036  -0.475 -0.2473  0.1235 -0.3729
  482MOL0     C65000   3.681  10.767   0.111  0.0762  0.2317  0.5063
  482MOL0     C65001   3.763  10.691   0.185 -0.0551 -0.2372  0.0539
  482MOL0     C65002   3.701  10.622   0.301  0.6265 -0.4741  0.7754
  482MOL0     H65003   4.371  10.680   0.156 -2.1529  1.0709  0.0731
  482MOL0     H65004   4.571  10.563   0.302  0.8306  1.5419  0.8832
  482MOL0     H65005   4.512  10.444   0.725  0.9393 -0.6019  0.5486
  482MOL0     H65006   4.492  10.330   0.588  0.1098  0.4675 -1.8729
  482MOL0     H65007   4.719  10.343   0.539 -2.0199  0.9009  0.0470
  482MOL0     H65008   4.697  10.267   0.701 -1.8277 -0.0627  0.3820
  482MOL0     H65009   4.704  10.552   0.741  1.1978  2.6583 -2.2064
  482MOL0     H65010   4.836  10.523   0.630 -0.5350 -0.2807 -0.5195
  482MOL0     H65011   4.881  10.504   0.893  0.3682 -0.0531 -0.3437
  482MOL0     H65012   4.799  10.346   0.886  1.7013 -0.1422  2.2198
  482MOL0     H65013   5.032  10.301   0.865 -1.1787  0.1652 -0.0816
  482MOL0     H65014   4.954  10.287   0.704  1.5889  0.0874 -1.2440
  482MOL0     H65015   5.025  10.497   0.624 -1.6692 -2.4671 -0.0813
  482MOL0     H65016   5.082  10.559   0.779 -0.1643 -1.1058  0.4671
  482MOL0     H65017   5.205  10.332   0.621 -0.1298 -3.0237  2.4633
  482MOL0     H65018   5.245  10.368   0.796  0.9131 -0.1862  0.4518
  482MOL0     H65019   5.273  10.611   0.623 -1.9540  0.2778  0.5627
  482MOL0     H65020   5.337  10.570   0.781  0.5150  1.1829  0.1372
  482MOL0     H65021   5.455  10.638   0.464  1.7622  0.3530 -0.8111
  482MOL0     H65022   5.748  10.425   0.372  1.1795 -0.4085  1.3792
  482MOL0     H65023   5.649  10.564   0.313  1.4123  1.9499 -0.9441
  482MOL0     H65024   5.854  10.588   0.541 -0.8275 -2.7933 -0.3523
  482MOL0     H65025   5.910  10.614   0.380  0.4566 -5.4889  0.6240
  482MOL0     H65026   5.853  10.814   0.507  2.5571 -1.9727 -1.6922
  482MOL0     H65027   5.689  10.758   0.560  0.6919  1.2107 -0.5336
  482MOL0     H65028   5.669  10.942   0.411 -1.7550 -1.5522  3.0068
  482MOL0     H65029   5.586  10.801   0.364 -1.2409  2.2342 -0.0346
  482MOL0     H65030   5.525  10.945   0.183 -0.5255 -0.0638 -0.0457
  482MOL0     H65031   5.478  11.074  -0.012 -0.5463  0.9910  2.1106
  482MOL0     H65032   5.388  11.039  -0.384  1.6091 -0.3499 -1.8059
  482MOL0     H65033   5.268  11.106  -0.569 -3.2974  0.6111  2.4897
  482MOL0     H65034   5.203  11.507  -0.579  0.6838 -2.1723  1.4452
  482MOL0     H65035   5.254  11.537  -0.738  0.9072 -0.6497 -1.6029
  482MOL0     H65036   4.994  11.532  -0.703  2.5495  0.7262  3.5559
  482MOL0     H65037   5.065  11.456  -0.839  1.4822 -0.1106  0.4469
  482MOL0     H65038   4.936  11.271  -0.778  1.0639 -1.0339 -0.1673
  482MOL0     H65039   5.064  11.233  -0.681 -0.0984 -1.9786 -3.0475
  482MOL0     H65040   4.933  11.418  -0.503 -0.6635 -1.7933  2.6325
  482MOL0     H65041   4.901  11.254  -0.489  1.6883  1.5449  1.0659
  482MOL0     H65042   4.725  11.278  -0.657  0.6377 -1.2509  0.2487
  482MOL0     H65043   4.753  11.448  -0.671 -0.2652 -0.2238  0.3566
  482MOL0     H65044   4.559  11.382  -0.535  1.6696 -3.0482 -0.2851
  482MOL0     H65045   4.665  11.304  -0.423 -2.5272 -0.5732 -0.2740
  482MOL0     H65046   4.772  11.509  -0.356  0.2214  1.5053 -0.7978
  482MOL0     H65047   4.597  11.524  -0.343  2.0854 -0.9756  3.6253
  482MOL0     H65048   4.680  11.738  -0.452  0.3853 -0.2492  0.7828
  482MOL0     H65049   4.754  11.651  -0.587  0.6825  1.0120  0.1610
  482MOL0     H65050   5.430  11.501  -0.512 -0.1899 -0.0549 -0.9129
  482MOL0     H65051   5.552  11.406  -0.306 -0.7367  0.6061  0.6831
  482MOL0     H65052   5.857  10.939  -0.166  2.1568 -0.2271  0.9390
  482MOL0     H65053   5.898  10.809   0.046  1.6494  0.8707 -0.2582
  482MOL0     H65054   4.322  10.500   0.620 -1.0715  1.4165  0.0381
  482MOL0     H65055   4.119  10.595   0.494 -0.0913  0.2346 -0.0629
  482MOL0     H65056   4.056  10.795   0.034 -0.5731 -2.6148 -1.7784
  482MOL0     H65057   3.883  10.950  -0.087  1.2917  1.4800  0.8846
  482MOL0     H65058   3.697  10.911  -0.260 -0.5896 -0.6324 -1.8546
  482MOL0     H65059   3.540  10.989  -0.225  0.4447 -0.4361  0.0475
  482MOL0     H65060   3.454  10.761  -0.139  2.0185  1.2075  2.6179
  482MOL0     H65061   3.610  10.692  -0.174 -1.4528 -1.0464  1.8606
  482MOL0     H65062   3.494  10.618  -0.348  1.6345 -0.4145  3.1531
  482MOL0     H65063   3.614  10.734  -0.419  0.5645 -2.4864 -1.7602
  482MOL0     H65064   3.362  10.710  -0.506  0.7338 -0.3272 -0.5053
  482MOL0     H65065   3.315  10.779  -0.352 -2.0913  1.7913 -1.6275
  482MOL0     H65066   3.401  11.143  -0.477 -0.4236  0.1795  1.1881
  482MOL0     H65067   3.575  10.748   0.126  0.2886 -0.7368  0.8763
  482MOL0     H65068   3.595  10.607   0.282  0.5763 -0.7285  1.2407
  482MOL0     H65069   3.741  10.521   0.307  0.4443 -0.6095 -0.1243
  482MOL0     H65070   3.737  10.663   0.396  1.0834 -0.7553  0.7259
  483MOL0     O65071   0.622   8.522   3.891 -0.4484 -0.0443 -0.4938
  483MOL0     C65072   0.744   8.533   3.915  0.5526  0.3767  0.0770
  483MOL0     O65073   0.830   8.599   3.830  0.0384 -0.0919  0.7793
  483MOL0     C65074   0.787   8.672   3.717 -0.1687  0.0257 -0.3409
  483MOL0     C65075   0.760   8.600   3.599  0.6391  0.1771 -0.3936
  483MOL0     C65076   0.746   8.667   3.481 -0.2443  0.1236  0.7249
  483MOL0     C65077   0.757   8.809   3.480  0.1000 -0.9490  0.7172
  483MOL0     O65078   0.763   8.897   3.367  0.5610  0.2227 -0.1266
  483MOL0     C65079   0.825   8.843   3.246 -0.5873 -0.2577 -0.0496
  483MOL0     C65080   0.786   8.918   3.125 -0.6200  0.8699 -0.3768
  483MOL0     C65081   0.631   8.936   3.110  0.3844  0.4806  0.6846
  483MOL0     C65082   0.599   8.906   2.966  0.1319  0.0078  0.4722
  483MOL0     C65083   0.456   8.858   2.954  0.7113  1.1874 -0.2794
  483MOL0     C65084   0.348   8.958   2.977  0.4602  0.6856  0.1439
  483MOL0     C65085   0.219   8.898   2.916 -0.1576 -0.0750  0.1955
  483MOL0     C65086   0.102   8.998   2.896  0.0124  0.1001 -0.4106
  483MOL0     N65087   0.146   9.116   2.821 -0.7446 -0.0263 -0.3005
  483MOL0     C65088   0.209   9.108   2.702  0.1231 -0.2146  0.0037
  483MOL0     C65089   0.241   9.239   2.668  0.2169 -0.0436  0.5839
  483MOL0     C65090   0.300   9.299   2.544  0.3271  0.5734 -0.5226
  483MOL0     C65091   0.194   9.377   2.469 -0.3550 -0.4407  0.2688
  483MOL0     C65092   0.235   9.513   2.412 -0.3833 -0.1584  0.1814
  483MOL0     C65093   0.360   9.504   2.324 -0.6857 -1.1650  0.1162
  483MOL0     O65094   0.348   9.416   2.211 -0.2836 -0.5874  0.3092
  483MOL0     C65095   0.439   9.434   2.111  0.2986 -0.7370 -0.2138
  483MOL0     C65096   0.568   9.474   2.139 -0.0307 -0.0425 -0.1003
  483MOL0     C65097   0.663   9.475   2.037 -0.7788 -1.1712  0.0025
  483MOL0     C65098   0.633   9.440   1.904  0.8652 -0.2467  0.3472
  483MOL0     C65099   0.732   9.439   1.795 -0.1713 -0.5451 -0.2266
  483MOL0     O65100   0.858   9.475   1.823  0.1166  0.2534  0.0742
  483MOL0     C65101   0.946   9.521   1.726 -0.4374 -0.1719 -0.0053
  483MOL0     C65102   0.914   9.557   1.593 -0.5087 -0.0173  0.0890
  483MOL0     C65103   1.024   9.585   1.510  0.4798 -0.1766  0.6545
  483MOL0     C65104   1.158   9.585   1.555  0.7639  0.3575  0.7163
  483MOL0     O65105   1.265   9.587   1.469 -0.4949 -0.8776 -0.1087
  483MOL0     C65106   1.245   9.597   1.320 -0.7492  0.1776  0.0869
  483MOL0     C65107   1.208   9.452   1.268 -0.2277 -0.1000  0.2710
  483MOL0     C65108   1.158   9.448   1.129  0.2057  0.3545  0.6302
  483MOL0     C65109   1.170   9.304   1.052 -1.2457 -0.3652  0.1399
  483MOL0     C65110   1.118   9.298   0.905  0.2727  0.4691  0.3498
  483MOL0     C65111   0.970   9.277   0.902 -0.9933  0.5692  1.0124
  483MOL0     C65112   0.919   9.232   0.766 -0.4353 -0.0941 -0.3222
  483MOL0     C65113   0.903   9.348   0.669  0.7119  0.2552 -0.8179
  483MOL0    Cl65114   0.852   9.295   0.501 -0.8410 -0.5826  0.2691
  483MOL0     C65115   1.170   9.586   1.689 -0.6468  0.2485  0.1568
  483MOL0     C65116   1.070   9.551   1.772 -0.5021  1.3860  0.7418
  483MOL0     O65117   0.686   9.394   1.681 -1.1292  0.1025  0.2310
  483MOL0     C65118   0.498   9.404   1.880 -0.5045  0.7801  0.7185
  483MOL0     C65119   0.402   9.407   1.977  0.3963  1.3767  1.0488
  483MOL0     N65120   0.205   9.326   2.771 -0.7391  0.9453  0.4514
  483MOL0     N65121   0.162   9.250   2.867  0.1529  0.6965 -0.3477
  483MOL0     C65122   0.774   8.874   3.604  1.4466  0.8365  1.1692
  483MOL0     C65123   0.792   8.807   3.719 -0.6859 -0.5611 -0.6910
  483MOL0     C65124   0.816   8.484   4.029  0.7936  0.2618  1.0357
  483MOL0     C65125   0.951   8.492   4.032 -0.3018 -0.2291  0.1177
  483MOL0     C65126   1.034   8.455   4.135  0.2615  0.2885 -0.5456
  483MOL0     C65127   0.965   8.398   4.251 -0.0372  0.4689  0.8800
  483MOL0     O65128   1.036   8.358   4.363 -0.1096  0.2468 -0.3152
  483MOL0     C65129   1.075   8.218   4.348  0.3559 -0.0155  0.1150
  483MOL0     C65130   1.010   8.145   4.460 -0.3027 -0.1840 -1.2079
  483MOL0     C65131   1.052   8.000   4.462  0.2712  0.5293 -0.0277
  483MOL0     C65132   1.032   7.923   4.595  0.0354  0.1924  0.1240
  483MOL0     C65133   1.094   7.986   4.706 -0.8625 -1.0176  0.3269
  483MOL0     C65134   1.140   8.049   4.798 -0.5755 -0.2812  0.7481
  483MOL0     C65135   0.830   8.379   4.243 -0.2341  0.0662 -0.4060
  483MOL0     C65136   0.746   8.429   4.143 -0.1924 -0.1257  0.8095
  483MOL0     C65137   0.597   8.413   4.165  0.6003 -0.0954  0.2240
  483MOL0     H65138   0.744   8.493   3.608 -0.7523  0.4638  0.8896
  483MOL0     H65139   0.725   8.607   3.393  1.2577  0.6891 -0.0589
  483MOL0     H65140   0.933   8.852   3.253 -0.2101 -1.8147 -2.5488
  483MOL0     H65141   0.807   8.740   3.212  0.9235  0.3779 -3.1950
  483MOL0     H65142   0.847   8.866   3.050  2.3956  0.3206  2.2543
  483MOL0     H65143   0.827   9.019   3.123  0.3635  0.4889 -0.1380
  483MOL0     H65144   0.603   9.035   3.145  2.1199  0.9707  0.7692
  483MOL0     H65145   0.576   8.856   3.160 -0.8686  0.2692 -0.9243
  483MOL0     H65146   0.626   8.990   2.902  0.8560 -1.7471 -1.6639
  483MOL0     H65147   0.658   8.824   2.924 -0.5071 -0.2650  0.0775
  483MOL0     H65148   0.440   8.806   2.859  3.3646 -1.9660  0.8007
  483MOL0     H65149   0.427   8.786   3.032  2.1304 -0.0781 -0.8656
  483MOL0     H65150   0.327   8.992   3.079 -1.8212  1.9833 -0.6936
  483MOL0     H65151   0.367   9.041   2.909  1.7601 -0.2669 -0.7175
  483MOL0     H65152   0.177   8.816   2.974  0.6804 -1.4857 -1.1129
  483MOL0     H65153   0.249   8.848   2.823  1.4924  0.1049  0.5850
  483MOL0     H65154   0.008   8.962   2.853 -1.7228  2.8418  0.8358
  483MOL0     H65155   0.056   9.032   2.989  0.4960 -0.5153  0.0666
  483MOL0     H65156   0.214   9.028   2.629 -0.4267  0.9321 -1.3225
  483MOL0     H65157   0.379   9.365   2.580 -0.9485  0.8240  2.1021
  483MOL0     H65158   0.362   9.229   2.487  0.9911  1.2120 -0.5903
  483MOL0     H65159   0.140   9.314   2.398  0.6899 -2.2702  1.0259
  483MOL0     H65160   0.136   9.413   2.555  0.5529  0.0688  0.6877
  483MOL0     H65161   0.251   9.588   2.490  1.3870 -0.2624 -0.0344
  483MOL0     H65162   0.153   9.548   2.349 -0.5022  1.3011  1.1046
  483MOL0     H65163   0.443   9.473   2.387 -1.5761  0.4577  2.1771
  483MOL0     H65164   0.386   9.607   2.298  0.7441 -1.2132  1.2894
  483MOL0     H65165   0.603   9.492   2.240 -3.8638 -0.7121  1.5208
  483MOL0     H65166   0.759   9.515   2.067 -1.7396  1.0604  0.3022
  483MOL0     H65167   0.813   9.550   1.553 -1.2018  1.2537  1.5043
  483MOL0     H65168   1.006   9.585   1.403  2.5857  1.2198  0.2290
  483MOL0     H65169   1.163   9.664   1.293 -0.1542  0.0584 -2.2308
  483MOL0     H65170   1.340   9.627   1.274  0.9258 -2.0284  1.8773
  483MOL0     H65171   1.296   9.387   1.272 -0.7813 -0.8203  1.1009
  483MOL0     H65172   1.132   9.405   1.332 -2.1626  0.5981 -1.4132
  483MOL0     H65173   1.054   9.479   1.129  0.4755  1.2964  1.3296
  483MOL0     H65174   1.216   9.520   1.070 -0.4149  1.1285  0.9522
  483MOL0     H65175   1.117   9.231   1.115 -1.6917  0.9704  1.3623
  483MOL0     H65176   1.275   9.274   1.050 -0.4439  2.2079 -2.6790
  483MOL0     H65177   1.170   9.217   0.852  3.1522  2.7001 -0.5150
  483MOL0     H65178   1.141   9.392   0.854 -0.7021  0.3578 -0.3291
  483MOL0     H65179   0.945   9.198   0.974  0.6574 -1.1323 -0.1919
  483MOL0     H65180   0.925   9.370   0.938 -0.4022  0.0342  3.2924
  483MOL0     H65181   0.825   9.176   0.770 -0.8803  0.7154  2.1625
  483MOL0     H65182   1.006   9.180   0.723  0.1459  0.9956 -0.5133
  483MOL0     H65183   0.828   9.415   0.711 -0.0752 -0.9888 -0.1916
  483MOL0     H65184   0.999   9.397   0.651  1.1216  1.6071  3.8352
  483MOL0     H65185   1.275   9.598   1.715  0.2792 -2.2105 -2.0335
  483MOL0     H65186   1.092   9.532   1.876 -0.7821  1.5732  0.8363
  483MOL0     H65187   0.471   9.390   1.776 -0.3000  2.4310  0.4139
  483MOL0     H65188   0.295   9.395   1.968  0.4805 -1.9593  2.7462
  483MOL0     H65189   0.776   8.982   3.606  0.5473  0.8539  1.3525
  483MOL0     H65190   0.818   8.863   3.809 -0.9958 -2.2663  0.5246
  483MOL0     H65191   1.015   8.519   3.949 -0.2697 -2.7940 -0.7913
  483MOL0     H65192   1.142   8.464   4.126  0.3418 -0.5484 -0.5212
  483MOL0     H65193   1.185   8.212   4.351  0.5695  0.7763 -3.0183
  483MOL0     H65194   1.049   8.174   4.252  1.4459 -0.4335 -0.0090
  483MOL0     H65195   0.902   8.159   4.464  0.0787  3.5845  0.7592
  483MOL0     H65196   1.059   8.191   4.547 -0.5525 -0.3390 -0.9829
  483MOL0     H65197   1.160   7.997   4.445  0.1042  0.5770 -1.1296
  483MOL0     H65198   0.998   7.956   4.377  0.9909  2.0455 -1.3130
  483MOL0     H65199   0.924   7.919   4.615 -0.4307  3.2902 -1.0845
  483MOL0     H65200   1.073   7.823   4.580  0.5082  0.5922 -1.3871
  483MOL0     H65201   1.184   8.104   4.879 -3.8182  0.8817  1.8858
  483MOL0     H65202   0.785   8.336   4.331 -1.0322  1.5267 -0.0645
  483MOL0     H65203   0.577   8.359   4.258 -0.5770  0.5049  0.3246
  483MOL0     H65204   0.544   8.508   4.154  0.1390 -0.6337 -3.4946
  483MOL0     H65205   0.552   8.352   4.086 -0.1924 -0.3357  0.8444
  484MOL0     O65206   8.195   0.835   1.809 -0.1785  0.2286  0.7450
  484MOL0     C65207   8.130   0.860   1.906  0.3257 -0.2401  0.1844
  484MOL0     O65208   8.053   0.980   1.923 -0.3872  0.3520 -0.7288
  484MOL0     C65209   8.060   1.068   1.823  0.5162  0.6679  1.4769
  484MOL0     C65210   8.153   1.177   1.808 -1.2065 -0.4579  0.6221
  484MOL0     C65211   8.164   1.254   1.685 -0.8662 -0.6382  0.0358
  484MOL0     C65212   8.064   1.242   1.595  0.0767 -0.3892  0.1136
  484MOL0     O65213   8.070   1.334   1.486  0.1302 -0.5089 -0.0062
  484MOL0     C65214   7.959   1.371   1.410 -0.0814  0.2627 -0.1901
  484MOL0     C65215   7.945   1.304   1.275 -0.3573  0.5790  0.2067
  484MOL0     C65216   7.845   1.367   1.178  0.1409 -0.0308 -0.5171
  484MOL0     C65217   7.803   1.266   1.079 -0.8587 -0.5643 -0.2827
  484MOL0     C65218   7.715   1.331   0.970 -0.6126  1.4470 -0.1541
  484MOL0     C65219   7.789   1.430   0.874  0.9629 -0.9167  0.4548
  484MOL0     C65220   7.692   1.483   0.765 -0.2412  0.7016 -0.0046
  484MOL0     C65221   7.759   1.513   0.627  0.1288  0.3593  0.2688
  484MOL0     N65222   7.662   1.509   0.517 -0.4414 -0.5212 -0.2927
  484MOL0     C65223   7.633   1.400   0.438 -0.0627 -0.6633 -0.8415
  484MOL0     C65224   7.534   1.439   0.361  0.5748 -0.2752  0.5068
  484MOL0     C65225   7.474   1.346   0.254  0.1096  0.5056 -0.3414
  484MOL0     C65226   7.555   1.342   0.129 -0.5233  0.0355 -0.4568
  484MOL0     C65227   7.480   1.283   0.012 -0.2950  0.2761  1.2350
  484MOL0     C65228   7.541   1.151  -0.039  0.3837 -0.4631 -0.1071
  484MOL0     O65229   7.532   1.059   0.066  0.1101  0.1466  0.2604
  484MOL0     C65230   7.592   0.940   0.060  0.2405 -0.6208  0.9114
  484MOL0     C65231   7.622   0.879   0.184 -0.1333  0.3928 -0.2850
  484MOL0     C65232   7.688   0.757   0.194 -0.4604 -0.1655 -0.0560
  484MOL0     C65233   7.716   0.685   0.078  0.0189  0.1806 -0.3357
  484MOL0     C65234   7.798   0.562   0.089  0.6636  1.0428  0.3967
  484MOL0     O65235   7.832   0.531   0.219 -0.1351  0.0408 -0.5266
  484MOL0     C65236   7.896   0.413   0.235 -0.6227 -0.6416  0.2450
  484MOL0     C65237   7.818   0.299   0.255 -0.2440 -0.4267 -0.6988
  484MOL0     C65238   7.868   0.174   0.251  0.0425 -0.4998 -0.1373
  484MOL0     C65239   8.009   0.158   0.227  0.3925 -0.7587  0.2038
  484MOL0     O65240   8.062   0.027   0.238  0.2660 -0.2525 -0.5067
  484MOL0     C65241   8.204  -0.003   0.217 -0.0922  0.1773 -0.4257
  484MOL0     C65242   8.208  -0.156   0.229 -0.8894  0.6397  1.0754
  484MOL0     C65243   8.324  -0.222   0.150 -0.2009  0.1516 -0.5485
  484MOL0     C65244   8.289  -0.373   0.115  0.0055 -0.3044  0.7752
  484MOL0     C65245   8.385  -0.464   0.029  0.0132 -0.3818 -0.4220
  484MOL0     C65246   8.366  -0.614   0.046  0.0032 -0.2404  0.3734
  484MOL0     C65247   8.458  -0.704  -0.025 -0.3335  0.5813  0.7679
  484MOL0     C65248   8.433  -0.852   0.002  0.0556 -0.3052  0.1237
  484MOL0    Cl65249   8.542  -0.953  -0.091  0.2929  0.1723  0.4354
  484MOL0     C65250   8.097   0.271   0.216  0.3791 -0.7798 -0.4043
  484MOL0     C65251   8.040   0.392   0.216 -0.3324 -0.6015  0.2342
  484MOL0     O65252   7.828   0.498  -0.016  0.4373  0.0781 -0.0895
  484MOL0     C65253   7.675   0.740  -0.046 -0.0181  0.3499  0.6154
  484MOL0     C65254   7.619   0.866  -0.060  0.1534  0.2388  0.4686
  484MOL0     N65255   7.493   1.566   0.401 -1.0462 -0.5478 -0.0053
  484MOL0     N65256   7.574   1.610   0.490 -0.2870 -0.8516  0.4035
  484MOL0     C65257   7.955   1.150   1.620  0.0893 -0.5256 -0.2639
  484MOL0     C65258   7.963   1.064   1.721  0.1934 -0.8450 -0.5464
  484MOL0     C65259   8.113   0.761   2.023 -0.4146  0.8375 -0.8257
  484MOL0     C65260   8.041   0.803   2.130  0.0308 -0.9743 -0.1603
  484MOL0     C65261   8.024   0.735   2.251 -0.1680  0.2049 -0.2144
  484MOL0     C65262   8.075   0.605   2.259 -0.1012  0.7900 -0.6570
  484MOL0     O65263   8.064   0.530   2.377 -0.3383 -1.1852  0.3421
  484MOL0     C65264   7.926   0.518   2.409 -0.1652 -0.1790  0.9137
  484MOL0     C65265   7.903   0.377   2.469 -0.0478 -0.8632 -0.3144
  484MOL0     C65266   8.011   0.346   2.575  0.5940  0.4150 -0.3808
  484MOL0     C65267   7.983   0.215   2.641 -0.0963  0.5843 -0.1837
  484MOL0     C65268   7.995   0.109   2.535 -0.1953  0.2281 -0.5559
  484MOL0     C65269   8.024   0.027   2.453 -0.5074 -0.5434  0.2579
  484MOL0     C65270   8.158   0.563   2.157  0.2710 -0.1565  0.7820
  484MOL0     C65271   8.187   0.639   2.042  0.5648  0.4456 -0.3163
  484MOL0     C65272   8.276   0.574   1.941  0.0740  0.7558  0.2558
  484MOL0     H65273   8.221   1.183   1.892 -0.3257 -1.4880  0.0051
  484MOL0     H65274   8.245   1.324   1.669  0.1782 -1.4457  1.5765
  484MOL0     H65275   7.867   1.365   1.469 -0.7595  0.6075 -1.1741
  484MOL0     H65276   7.980   1.476   1.383  0.6721  0.1613 -0.0222
  484MOL0     H65277   7.902   1.207   1.300 -1.3524  0.6993 -0.9541
  484MOL0     H65278   8.046   1.291   1.234 -0.2363 -0.7971  0.8783
  484MOL0     H65279   7.892   1.454   1.130 -0.2176  0.5387  0.1556
  484MOL0     H65280   7.760   1.410   1.232  3.1169  3.0886  2.1597
  484MOL0     H65281   7.896   1.233   1.031  0.8150 -0.5637  2.6925
  484MOL0     H65282   7.757   1.181   1.130 -0.5994 -0.2653  0.4657
  484MOL0     H65283   7.674   1.244   0.918  1.0515  1.5551 -1.7448
  484MOL0     H65284   7.631   1.385   1.015 -2.8124  0.2457 -2.5208
  484MOL0     H65285   7.838   1.510   0.930 -0.4575  1.3186 -1.3373
  484MOL0     H65286   7.874   1.372   0.837  0.2682 -2.6999  1.5050
  484MOL0     H65287   7.636   1.570   0.801 -1.2062  1.5998 -3.3522
  484MOL0     H65288   7.609   1.414   0.749 -1.0886  1.1368  2.1148
  484MOL0     H65289   7.804   1.613   0.630  0.4552  0.2854 -1.3605
  484MOL0     H65290   7.840   1.442   0.612 -0.8822 -0.7968  0.1342
  484MOL0     H65291   7.679   1.302   0.441  0.4374 -0.4157 -0.2139
  484MOL0     H65292   7.486   1.243   0.286  4.3168  1.2944  1.3108
  484MOL0     H65293   7.369   1.369   0.235 -0.1888 -0.8338 -0.3475
  484MOL0     H65294   7.591   1.442   0.103 -1.7520  0.3495 -1.0325
  484MOL0     H65295   7.651   1.295   0.153  1.4966  3.7841 -0.4960
  484MOL0     H65296   7.482   1.359  -0.067  3.4016  0.0793  0.9639
  484MOL0     H65297   7.375   1.257   0.022 -0.4833  0.3153 -0.3717
  484MOL0     H65298   7.646   1.175  -0.062 -0.0357 -1.5658 -3.8036
  484MOL0     H65299   7.492   1.119  -0.131  1.0377 -1.4181 -0.1314
  484MOL0     H65300   7.604   0.939   0.273  1.8485 -1.2523  1.3280
  484MOL0     H65301   7.727   0.727   0.290  1.9275  0.2544 -0.8256
  484MOL0     H65302   7.711   0.317   0.259  0.0957  2.0487 -0.7203
  484MOL0     H65303   7.813   0.080   0.248  0.9600 -1.0451 -0.3534
  484MOL0     H65304   8.229   0.031   0.116 -1.1135  3.4595  0.2793
  484MOL0     H65305   8.263   0.044   0.297 -2.4901 -0.0768  1.6085
  484MOL0     H65306   8.209  -0.174   0.337  2.1472  4.5956  1.9647
  484MOL0     H65307   8.123  -0.196   0.173  2.1083 -3.4952 -1.0350
  484MOL0     H65308   8.355  -0.173   0.057 -0.0840 -1.1798 -1.2370
  484MOL0     H65309   8.414  -0.228   0.213  0.2054 -1.0791 -1.2015
  484MOL0     H65310   8.189  -0.368   0.072 -0.2352  0.1151  1.3722
  484MOL0     H65311   8.266  -0.423   0.209 -3.8129  0.8921  0.6364
  484MOL0     H65312   8.486  -0.433   0.058 -0.4556  0.0545  0.8020
  484MOL0     H65313   8.381  -0.433  -0.076 -1.2781  3.3864  0.5636
  484MOL0     H65314   8.378  -0.637   0.152  2.8377 -1.3245 -0.0964
  484MOL0     H65315   8.268  -0.644   0.011 -0.2274  0.7533  0.1312
  484MOL0     H65316   8.548  -0.692   0.036 -1.0727  0.0881  1.9981
  484MOL0     H65317   8.469  -0.678  -0.130  1.2635  0.7841  0.9558
  484MOL0     H65318   8.444  -0.864   0.110 -2.0932  2.6492  0.8157
  484MOL0     H65319   8.332  -0.882  -0.028 -0.8219  1.6027  0.9429
  484MOL0     H65320   8.205   0.260   0.222  0.1151 -3.0955  1.6572
  484MOL0     H65321   8.101   0.479   0.194  1.5542 -0.9931  3.3431
  484MOL0     H65322   7.684   0.693  -0.144 -1.4897  4.0988 -1.5412
  484MOL0     H65323   7.581   0.896  -0.157 -2.4908 -4.2265 -0.1345
  484MOL0     H65324   7.883   1.137   1.540  1.9882 -1.8004 -1.8669
  484MOL0     H65325   7.885   0.989   1.727 -1.0865  0.1970 -2.9594
  484MOL0     H65326   8.000   0.904   2.124  1.5364 -0.3672 -0.6800
  484MOL0     H65327   7.965   0.777   2.332  0.6010  0.7854  0.0520
  484MOL0     H65328   7.862   0.525   2.321  1.6566  1.3466 -0.3593
  484MOL0     H65329   7.907   0.594   2.485 -1.9130  1.0494 -0.6781
  484MOL0     H65330   7.908   0.299   2.393  2.6862 -0.1156 -1.0116
  484MOL0     H65331   7.806   0.381   2.519  1.4176  1.5725  2.7277
  484MOL0     H65332   8.017   0.424   2.651  1.2182  0.1981 -0.2017
  484MOL0     H65333   8.110   0.358   2.530  1.0424 -1.3990  0.0473
  484MOL0     H65334   8.054   0.195   2.722  0.2470 -3.6463 -1.3228
  484MOL0     H65335   7.879   0.212   2.673  0.2533  1.7284  1.1749
  484MOL0     H65336   8.058  -0.034   2.371  1.0574  0.7764 -0.1244
  484MOL0     H65337   8.194   0.461   2.164 -2.7781 -1.6545 -2.0968
  484MOL0     H65338   8.344   0.509   1.998 -2.3437  1.0954  3.8430
  484MOL0     H65339   8.218   0.522   1.864  0.6905  1.5764 -0.7972
  484MOL0     H65340   8.344   0.640   1.886 -0.5282 -0.2189 -1.7532
  485MOL0     O65341   9.682   6.032   2.723 -0.0874  0.6535 -1.1581
  485MOL0     C65342   9.645   5.914   2.706  0.3320  0.5633  0.5459
  485MOL0     O65343   9.728   5.800   2.744  0.0652 -0.1386  0.2649
  485MOL0     C65344   9.851   5.839   2.800  0.1959  0.3912 -0.5134
  485MOL0     C65345   9.859   5.899   2.930  0.1059 -0.5685  0.9613
  485MOL0     C65346   9.974   5.962   2.965 -0.1194 -0.0031  0.7740
  485MOL0     C65347  10.092   5.938   2.901  0.2387 -0.1978 -0.4577
  485MOL0     O65348  10.189   6.026   2.938 -0.4599 -0.1588  0.9363
  485MOL0     C65349  10.320   5.971   2.947 -0.8137  0.0181  0.5874
  485MOL0     C65350  10.333   5.889   3.072 -0.7797  0.1148 -0.3438
  485MOL0     C65351  10.477   5.874   3.115 -0.1555  0.3731  0.2503
  485MOL0     C65352  10.508   5.751   3.206 -0.0668 -0.7207  0.0926
  485MOL0     C65353  10.651   5.747   3.249  0.2209  0.0221 -0.6654
  485MOL0     C65354  10.689   5.880   3.322  0.7178  0.5491 -0.4836
  485MOL0     C65355  10.797   5.866   3.424 -0.7490 -0.1204  0.1863
  485MOL0     C65356  10.920   5.783   3.369 -0.0460 -0.5187  0.1762
  485MOL0     N65357  11.013   5.875   3.302  0.7887 -0.2825 -1.0895
  485MOL0     C65358  11.074   5.977   3.371  0.5105  0.3072 -0.9008
  485MOL0     C65359  11.153   6.029   3.274 -1.2806 -0.0508  0.1036
  485MOL0     C65360  11.265   6.136   3.296  0.5530  0.2317  0.2253
  485MOL0     C65361  11.215   6.272   3.328  0.1841 -1.2295 -0.0925
  485MOL0     C65362  11.136   6.337   3.212  0.2981 -0.4116 -0.4050
  485MOL0     C65363  11.203   6.345   3.075  0.1401 -0.6464 -0.0371
  485MOL0     O65364  11.325   6.422   3.088  0.2049  0.0608  0.1947
  485MOL0     C65365  11.410   6.417   2.982  0.3810 -0.5446 -0.3875
  485MOL0     C65366  11.538   6.392   3.012 -1.6548  0.2091 -0.4342
  485MOL0     C65367  11.646   6.403   2.914 -0.1049  0.6881 -0.6837
  485MOL0     C65368  11.606   6.417   2.780  0.2426 -0.4629 -0.7041
  485MOL0     C65369  11.707   6.428   2.669 -0.0517  1.3214 -0.1671
  485MOL0     O65370  11.839   6.416   2.697 -1.0258 -0.3333 -0.5166
  485MOL0     C65371  11.936   6.392   2.603 -0.3689 -0.2692 -0.1648
  485MOL0     C65372  11.927   6.294   2.498 -0.2997 -0.5535 -0.1703
  485MOL0     C65373  12.038   6.265   2.409  0.4568 -0.7050 -0.9342
  485MOL0     C65374  12.158   6.346   2.422  0.6163  0.2693  0.5560
  485MOL0     O65375  12.271   6.317   2.357 -0.1895  0.0756 -0.1892
  485MOL0     C65376  12.258   6.276   2.223  0.4112  0.0561 -0.4694
  485MOL0     C65377  12.394   6.286   2.141 -0.5800 -0.6649 -0.7033
  485MOL0     C65378  12.469   6.414   2.176 -0.1574 -1.1912 -0.6894
  485MOL0     C65379  12.390   6.540   2.138  0.8496  0.4222  0.5383
  485MOL0     C65380  12.479   6.667   2.170 -0.2301 -0.7357  0.0921
  485MOL0     C65381  12.444   6.786   2.076  0.3253 -0.2649 -0.6170
  485MOL0     C65382  12.539   6.905   2.111 -1.0729 -0.0506  0.2364
  485MOL0     C65383  12.687   6.881   2.062 -0.9728  0.4385 -0.9057
  485MOL0    Cl65384  12.783   7.026   2.056 -0.0916 -0.0929 -0.0048
  485MOL0     C65385  12.163   6.440   2.526 -0.0037  0.5240 -0.4296
  485MOL0     C65386  12.055   6.469   2.611  0.1560  0.0899 -0.0578
  485MOL0     O65387  11.662   6.436   2.554 -0.1642 -1.0750 -0.5962
  485MOL0     C65388  11.469   6.442   2.745 -0.7114  0.4703 -0.6636
  485MOL0     C65389  11.373   6.438   2.849  0.1307 -0.6173 -0.2701
  485MOL0     N65390  11.111   5.984   3.148  0.1280  0.5710 -0.6579
  485MOL0     N65391  11.037   5.890   3.171  0.3542  0.9133  0.0445
  485MOL0     C65392  10.088   5.858   2.785  0.2624 -0.4986  1.4666
  485MOL0     C65393   9.968   5.809   2.734 -0.8156  0.0590 -0.1571
  485MOL0     C65394   9.507   5.898   2.651  0.7113 -0.0197 -0.8802
  485MOL0     C65395   9.442   6.013   2.603  0.4340 -0.1140 -0.3232
  485MOL0     C65396   9.310   6.015   2.552 -0.4065 -0.9388  0.5178
  485MOL0     C65397   9.234   5.900   2.545  0.2720 -0.0674 -0.0028
  485MOL0     O65398   9.103   5.893   2.500 -0.4325  1.1555 -0.6587
  485MOL0     C65399   9.046   6.008   2.432  0.7154 -0.2877 -0.4893
  485MOL0     C65400   8.902   5.969   2.380 -1.0313 -0.1479 -0.3507
  485MOL0     C65401   8.854   6.056   2.264 -0.1195  0.1790 -0.2775
  485MOL0     C65402   8.710   6.019   2.214 -0.6856  0.4503 -0.2778
  485MOL0     C65403   8.650   6.140   2.166  0.8717  0.0769 -0.2466
  485MOL0     C65404   8.600   6.236   2.111  0.3160 -0.2555 -1.1711
  485MOL0     C65405   9.291   5.778   2.598 -0.0960 -0.0408 -0.1611
  485MOL0     C65406   9.429   5.774   2.642  0.2393 -0.2078 -0.3900
  485MOL0     C65407   9.496   5.645   2.679  0.2512  0.6148 -0.2105
  485MOL0     H65408   9.768   5.903   2.990 -1.4753 -1.1197 -1.2835
  485MOL0     H65409   9.980   6.030   3.049  0.4072  0.2253  0.5558
  485MOL0     H65410  10.348   5.920   2.855 -1.4464  1.8482 -0.6802
  485MOL0     H65411  10.390   6.054   2.939 -0.6157 -0.3417 -3.7410
  485MOL0     H65412  10.284   5.795   3.042 -1.8001 -0.2487  2.2420
  485MOL0     H65413  10.277   5.925   3.159 -1.0392 -2.4053  0.6183
  485MOL0     H65414  10.501   5.968   3.167 -0.8195  0.8718 -0.3321
  485MOL0     H65415  10.545   5.867   3.030  0.1620 -0.1449  0.5413
  485MOL0     H65416  10.462   5.755   3.305  0.8811 -1.9996  0.6109
  485MOL0     H65417  10.489   5.653   3.159 -1.4169  1.1597 -3.7037
  485MOL0     H65418  10.663   5.662   3.317  2.1187  0.8321  0.0733
  485MOL0     H65419  10.714   5.729   3.162  1.8273  0.0706  0.4541
  485MOL0     H65420  10.716   5.959   3.252  2.2683 -0.6080 -1.2367
  485MOL0     H65421  10.604   5.913   3.383  2.6475 -0.2710  2.8919
  485MOL0     H65422  10.758   5.813   3.511 -1.5518  0.1572  0.0053
  485MOL0     H65423  10.825   5.965   3.460 -1.9546 -0.9416  3.8699
  485MOL0     H65424  10.959   5.735   3.459  2.5976  0.7063 -0.2277
  485MOL0     H65425  10.899   5.720   3.283 -0.6985  0.6326 -0.5361
  485MOL0     H65426  11.068   5.995   3.478  0.4357  1.8496 -1.1455
  485MOL0     H65427  11.324   6.096   3.378  0.7730 -1.6058 -0.7657
  485MOL0     H65428  11.340   6.139   3.216  1.3941 -0.5395  0.9626
  485MOL0     H65429  11.147   6.264   3.414 -0.0762  1.1105 -0.0029
  485MOL0     H65430  11.299   6.335   3.359 -2.0442  0.7841  2.3742
  485MOL0     H65431  11.114   6.437   3.250 -0.1219  0.3546 -2.5142
  485MOL0     H65432  11.041   6.285   3.198 -1.0515  2.0438 -0.8817
  485MOL0     H65433  11.136   6.396   3.005  0.8962 -1.1864 -1.1672
  485MOL0     H65434  11.217   6.246   3.032 -0.6128 -0.9034  0.2818
  485MOL0     H65435  11.568   6.378   3.115  0.0041  0.2458 -0.8806
  485MOL0     H65436  11.751   6.400   2.939 -0.4975  0.0673  1.0507
  485MOL0     H65437  11.842   6.231   2.475  1.1120 -1.9504 -1.7967
  485MOL0     H65438  12.032   6.191   2.330  0.5556 -1.0286 -0.6470
  485MOL0     H65439  12.215   6.176   2.230 -1.7725  1.0709  3.0555
  485MOL0     H65440  12.190   6.343   2.170  1.0243  0.4459 -0.7682
  485MOL0     H65441  12.459   6.199   2.157  2.0768  0.7953 -2.7080
  485MOL0     H65442  12.374   6.295   2.033 -1.7440  0.7534 -0.3935
  485MOL0     H65443  12.490   6.390   2.281  0.3840  0.0919 -0.4871
  485MOL0     H65444  12.566   6.407   2.126  0.0159 -2.7476 -0.1906
  485MOL0     H65445  12.295   6.542   2.192 -1.0805 -1.1250 -2.4730
  485MOL0     H65446  12.370   6.548   2.030  1.3294  0.9112  0.4828
  485MOL0     H65447  12.583   6.651   2.140  0.3805 -0.6333  2.0045
  485MOL0     H65448  12.490   6.698   2.274  1.9128  0.3110 -0.3709
  485MOL0     H65449  12.463   6.754   1.973  1.8902  1.5625 -0.9439
  485MOL0     H65450  12.339   6.816   2.087 -0.3715 -1.6854 -2.6510
  485MOL0     H65451  12.532   6.912   2.220  1.0467  2.6689  0.2978
  485MOL0     H65452  12.503   7.004   2.079 -1.3737 -0.0346  0.6219
  485MOL0     H65453  12.741   6.806   2.121  0.3221 -0.3268 -2.9448
  485MOL0     H65454  12.683   6.849   1.957  1.3606 -1.1706 -0.5667
  485MOL0     H65455  12.258   6.489   2.543  1.0500 -1.4124 -0.4303
  485MOL0     H65456  12.068   6.542   2.690  1.2377  0.9374 -0.9801
  485MOL0     H65457  11.443   6.434   2.639 -1.4985 -3.2034 -0.3451
  485MOL0     H65458  11.265   6.441   2.835 -0.4280 -0.9045  3.2255
  485MOL0     H65459  10.168   5.833   2.716 -1.3103  0.3290 -0.8062
  485MOL0     H65460   9.954   5.759   2.639 -1.1283 -1.4058  0.6305
  485MOL0     H65461   9.493   6.108   2.615  0.6241  0.0579 -2.1637
  485MOL0     H65462   9.272   6.110   2.517 -0.2253 -0.0827  2.5055
  485MOL0     H65463   9.118   6.029   2.353 -0.2119  0.8927 -1.0582
  485MOL0     H65464   9.044   6.090   2.505 -1.0068 -1.4243  0.8087
  485MOL0     H65465   8.817   5.963   2.449 -0.6858  1.1776  0.2230
  485MOL0     H65466   8.923   5.868   2.342  1.8989 -0.6790  2.2976
  485MOL0     H65467   8.921   6.054   2.178  2.2753 -0.7292  1.5184
  485MOL0     H65468   8.861   6.161   2.293 -0.7662  1.0753 -3.0188
  485MOL0     H65469   8.708   5.934   2.145  1.6375 -2.1130  2.4865
  485MOL0     H65470   8.660   5.976   2.302  2.5995  0.3855  1.7708
  485MOL0     H65471   8.562   6.316   2.050 -1.0706  1.1187  1.3026
  485MOL0     H65472   9.248   5.679   2.596 -0.1855  0.0045 -0.4800
  485MOL0     H65473   9.534   5.640   2.782 -2.4028 -2.9856  0.7867
  485MOL0     H65474   9.431   5.560   2.657  3.2127 -1.7606 -0.4389
  485MOL0     H65475   9.588   5.638   2.620  1.7265  4.3260  1.3243
  486MOL0     O65476   8.989   9.086   9.694  0.4091 -0.1125  1.2905
  486MOL0     C65477   8.950   9.059   9.806 -0.2028 -0.4049 -0.3944
  486MOL0     O65478   9.020   9.095   9.925 -0.3612  0.0125 -0.1392
  486MOL0     C65479   9.122   9.191   9.930  0.0699  0.2877 -0.2380
  486MOL0     C65480   9.218   9.197  10.026 -0.1970  0.1985  0.2769
  486MOL0     C65481   9.323   9.285  10.027 -0.3201 -0.7795  1.1795
  486MOL0     C65482   9.343   9.370   9.918 -0.8937 -0.4982 -0.2670
  486MOL0     O65483   9.456   9.452   9.928  0.0960 -0.2186 -0.0642
  486MOL0     C65484   9.510   9.501   9.803 -0.1317 -0.3917 -0.0781
  486MOL0     C65485   9.650   9.551   9.809  0.5927 -0.0770  0.2159
  486MOL0     C65486   9.690   9.592   9.662  0.5185 -0.1005 -0.8248
  486MOL0     C65487   9.625   9.722   9.635 -0.6714 -0.2402  0.5139
  486MOL0     C65488   9.741   9.818   9.580  1.5544  0.3510 -0.3428
  486MOL0     C65489   9.760   9.793   9.426 -0.1041  0.1174  0.1215
  486MOL0     C65490   9.902   9.831   9.378 -0.5512  0.2186  0.4318
  486MOL0     C65491   9.910   9.847   9.216 -0.0439 -0.4776 -0.6486
  486MOL0     N65492   9.904   9.716   9.161  0.9536 -0.4562  0.2045
  486MOL0     C65493   9.797   9.656   9.090  1.2379 -0.2748 -0.6264
  486MOL0     C65494   9.859   9.572   9.005 -0.7882 -0.2063  0.3363
  486MOL0     C65495   9.793   9.495   8.898  0.1436  0.6216  0.1627
  486MOL0     C65496   9.743   9.358   8.943 -0.2131 -0.8910  0.9206
  486MOL0     C65497   9.646   9.295   8.846  0.0561 -1.0048 -0.1550
  486MOL0     C65498   9.583   9.166   8.890 -0.4576 -0.0326 -0.5593
  486MOL0     O65499   9.486   9.205   8.991 -0.4019  0.0037  0.0119
  486MOL0     C65500   9.403   9.104   9.033 -0.0596  0.4089  1.1046
  486MOL0     C65501   9.278   9.121   9.087 -0.7812  0.0015  0.4991
  486MOL0     C65502   9.188   9.028   9.129 -0.4036 -0.1873 -0.2545
  486MOL0     C65503   9.215   8.890   9.108 -0.2397 -0.4071  0.9297
  486MOL0     C65504   9.114   8.785   9.112  0.6819  0.8318  0.7223
  486MOL0     O65505   9.161   8.659   9.088 -0.5596 -0.1964  0.3920
  486MOL0     C65506   9.092   8.536   9.104  1.2016  0.1359 -0.0013
  486MOL0     C65507   9.170   8.416   9.083  1.0038  0.0984 -0.8757
  486MOL0     C65508   9.103   8.291   9.077  0.5642 -0.6152  0.1021
  486MOL0     C65509   8.970   8.274   9.113  0.3093 -1.6000 -0.0424
  486MOL0     O65510   8.915   8.149   9.101 -0.2001  0.0553 -0.1753
  486MOL0     C65511   8.844   8.110   9.228  0.2240  0.3385  1.1733
  486MOL0     C65512   8.942   8.092   9.337 -0.4203 -0.1994 -0.3773
  486MOL0     C65513   8.891   8.043   9.466  0.3429 -0.3233 -0.6287
  486MOL0     C65514   8.863   7.888   9.486 -0.3101 -0.1987  0.0664
  486MOL0     C65515   8.792   7.813   9.369 -0.4207  0.3011 -0.9416
  486MOL0     C65516   8.754   7.679   9.427 -1.0150  0.1905 -0.3289
  486MOL0     C65517   8.868   7.575   9.430  0.0143  0.6198 -0.0343
  486MOL0     C65518   8.883   7.506   9.568 -0.2398  0.8076  0.3431
  486MOL0    Cl65519   8.740   7.416   9.621  0.3052 -0.3060 -0.0687
  486MOL0     C65520   8.900   8.397   9.137  0.3203  0.5622 -0.2320
  486MOL0     C65521   8.962   8.518   9.140  0.2127 -0.0126 -1.4595
  486MOL0     O65522   9.005   8.813   9.154 -0.0817 -0.0032 -0.1243
  486MOL0     C65523   9.347   8.862   9.061  0.2297 -1.0606 -0.4149
  486MOL0     C65524   9.441   8.966   9.034  0.4466 -0.6368 -0.7229
  486MOL0     N65525   9.992   9.562   9.041  0.1126  0.3185  0.0918
  486MOL0     N65526  10.012   9.638   9.144  0.4498  0.0216  0.3845
  486MOL0     C65527   9.244   9.374   9.812  0.1907 -0.8252 -0.1097
  486MOL0     C65528   9.130   9.291   9.826 -0.2737 -0.7362 -0.2172
  486MOL0     C65529   8.814   9.006   9.827 -0.0178  0.3180 -0.3189
  486MOL0     C65530   8.757   9.046   9.946 -0.7202  0.1832 -0.5038
  486MOL0     C65531   8.622   9.017   9.981 -0.6123  0.0170 -0.1065
  486MOL0     C65532   8.544   8.936   9.901  0.6820  0.1170 -0.2663
  486MOL0     O65533   8.420   8.896   9.939  0.1824  0.2810 -0.1836
  486MOL0     C65534   8.418   8.848  10.070 -0.1291  0.3957 -0.5144
  486MOL0     C65535   8.311   8.727  10.062 -1.0741 -0.1778 -0.9641
  486MOL0     C65536   8.317   8.627  10.171  0.5903 -0.1903  0.4345
  486MOL0     C65537   8.208   8.521  10.150  0.7678  0.1075  0.1814
  486MOL0     C65538   8.210   8.420  10.254 -1.0197 -0.1843 -0.0551
  486MOL0     C65539   8.202   8.334  10.332  0.1247  0.2371 -0.2600
  486MOL0     C65540   8.605   8.888   9.785 -0.6413  0.9911  0.0383
  486MOL0     C65541   8.734   8.931   9.735  0.1801 -0.2604 -0.6102
  486MOL0     C65542   8.792   8.886   9.606 -0.3596 -0.4312  1.3012
  486MOL0     H65543   9.219   9.128  10.110 -1.5684  1.6987  1.5953
  486MOL0     H65544   9.403   9.291  10.101  1.5595 -0.2140 -0.8108
  486MOL0     H65545   9.500   9.423   9.727 -0.5437  0.0915 -0.5305
  486MOL0     H65546   9.440   9.579   9.771  0.8628  1.1021  1.2310
  486MOL0     H65547   9.718   9.468   9.831  1.0146  0.4821  1.0590
  486MOL0     H65548   9.665   9.621   9.892  2.4204  1.0918 -1.0138
  486MOL0     H65549   9.656   9.528   9.580 -0.9317  0.6710 -0.8609
  486MOL0     H65550   9.799   9.599   9.671  0.6180 -0.8792 -1.3948
  486MOL0     H65551   9.541   9.704   9.567 -2.7117 -1.7983  3.2241
  486MOL0     H65552   9.599   9.776   9.727  1.3109  0.5247  0.6553
  486MOL0     H65553   9.720   9.922   9.605  2.7356  0.1661  1.6226
  486MOL0     H65554   9.838   9.795   9.625  1.3328 -0.5423 -0.3032
  486MOL0     H65555   9.748   9.690   9.393 -1.3223  0.3717 -0.2724
  486MOL0     H65556   9.681   9.852   9.379 -0.4931 -0.5762 -0.1028
  486MOL0     H65557   9.977   9.756   9.403 -0.0404  0.3795 -0.5479
  486MOL0     H65558   9.943   9.913   9.438  0.7926 -2.2381  3.1068
  486MOL0     H65559   9.819   9.902   9.192 -2.4702 -2.2954  3.3193
  486MOL0     H65560  10.006   9.895   9.196 -1.2186  2.2944 -0.0850
  486MOL0     H65561   9.694   9.686   9.107  1.8141  1.9196 -0.7182
  486MOL0     H65562   9.712   9.563   8.871  0.6117  1.0432 -0.2002
  486MOL0     H65563   9.867   9.478   8.819 -0.4005 -2.3495  0.1702
  486MOL0     H65564   9.834   9.301   8.959  1.5800  1.3008 -0.8122
  486MOL0     H65565   9.688   9.366   9.038 -0.3583  2.5412  0.6659
  486MOL0     H65566   9.710   9.272   8.760  0.1610  0.7925 -0.5862
  486MOL0     H65567   9.560   9.359   8.822  0.3519 -0.4767  0.1739
  486MOL0     H65568   9.662   9.102   8.931 -1.3235 -0.0244  1.2152
  486MOL0     H65569   9.540   9.120   8.800  0.0629 -1.2724 -0.1966
  486MOL0     H65570   9.254   9.227   9.088  4.1027  1.3550  2.2864
  486MOL0     H65571   9.096   9.056   9.180  2.5355  2.1322  4.5341
  486MOL0     H65572   9.278   8.411   9.071  0.8541 -1.6537 -1.8328
  486MOL0     H65573   9.175   8.213   9.055  1.7499  0.9034 -1.7924
  486MOL0     H65574   8.770   8.186   9.254  0.7538  1.8489 -1.3948
  486MOL0     H65575   8.793   8.019   9.197 -2.5222  3.1420 -3.7502
  486MOL0     H65576   9.026   8.029   9.307  0.0815  1.0917 -1.7706
  486MOL0     H65577   8.979   8.195   9.346 -3.2041  0.7653  1.4617
  486MOL0     H65578   8.953   8.059   9.554  1.1546 -3.8137 -0.4400
  486MOL0     H65579   8.792   8.085   9.486  0.8186 -0.3687  2.0797
  486MOL0     H65580   8.796   7.877   9.572 -0.4380  0.7546  0.1050
  486MOL0     H65581   8.957   7.836   9.507 -0.3295  0.3151  1.5927
  486MOL0     H65582   8.856   7.801   9.281  0.7811  0.4539 -0.1090
  486MOL0     H65583   8.707   7.872   9.335 -0.4318  1.2892  0.7080
  486MOL0     H65584   8.697   7.689   9.520 -0.7875 -0.1196 -0.1555
  486MOL0     H65585   8.677   7.636   9.362 -3.1363  0.8929  1.5805
  486MOL0     H65586   8.962   7.613   9.390  0.5650 -0.6898 -0.0053
  486MOL0     H65587   8.850   7.490   9.364 -0.5756 -0.3312  1.2946
  486MOL0     H65588   8.968   7.438   9.560  0.1666  1.5451 -2.5170
  486MOL0     H65589   8.913   7.577   9.646 -0.4615  0.2354  0.9586
  486MOL0     H65590   8.796   8.394   9.167  0.6916 -1.7189  1.0854
  486MOL0     H65591   8.908   8.611   9.150 -2.8733 -1.3563 -4.1895
  486MOL0     H65592   9.393   8.764   9.056  1.0639 -0.7836  1.1032
  486MOL0     H65593   9.542   8.932   9.010  0.0794 -1.0151 -1.8213
  486MOL0     H65594   9.247   9.450   9.735 -1.8941 -0.4250  0.1605
  486MOL0     H65595   9.048   9.305   9.757 -0.1789  0.2561 -0.1428
  486MOL0     H65596   8.802   9.109  10.023 -1.3707  0.5339 -0.4019
  486MOL0     H65597   8.581   9.060  10.072  0.2199 -0.8219  0.6880
  486MOL0     H65598   8.401   8.930  10.140 -1.1667  0.6879 -1.0787
  486MOL0     H65599   8.516   8.810  10.099 -0.4287  1.6305  2.4292
  486MOL0     H65600   8.326   8.665   9.973  2.4503 -0.8490 -0.0269
  486MOL0     H65601   8.214   8.772  10.040 -1.0664 -0.6112 -1.9213
  486MOL0     H65602   8.305   8.661  10.274  0.9407 -2.8626  1.4521
  486MOL0     H65603   8.420   8.588  10.168  1.0021  0.5517 -5.0773
  486MOL0     H65604   8.106   8.560  10.140 -0.5882 -3.3732 -0.9186
  486MOL0     H65605   8.232   8.474  10.055  3.7467  3.2430 -0.8264
  486MOL0     H65606   8.211   8.240  10.381  2.8774  2.0319  3.2045
  486MOL0     H65607   8.555   8.820   9.717  2.9061  0.3773 -2.2283
  486MOL0     H65608   8.820   8.969   9.540 -0.3228 -2.1559 -0.9657
  486MOL0     H65609   8.881   8.824   9.621  1.2564  0.8313 -2.1414
  486MOL0     H65610   8.714   8.827   9.558 -1.2020  2.6731 -1.5208
  487MOL0     O65611   5.156  10.297   2.829  0.9965 -0.1515  0.1548
  487MOL0     C65612   5.257  10.319   2.894  0.3324 -0.1211  0.3271
  487MOL0     O65613   5.344  10.234   2.932 -0.3610 -0.3788  0.2887
  487MOL0     C65614   5.325  10.103   2.879 -0.0049 -0.4372  0.4733
  487MOL0     C65615   5.287  10.001   2.967  0.2221 -0.4922  0.3982
  487MOL0     C65616   5.280   9.868   2.932 -0.3472  0.4419  0.6019
  487MOL0     C65617   5.310   9.833   2.803 -0.2477 -0.0569 -0.3633
  487MOL0     O65618   5.323   9.702   2.756  0.0768  0.3891  0.0776
  487MOL0     C65619   5.277   9.592   2.840  0.5215 -0.7050 -0.1083
  487MOL0     C65620   5.270   9.475   2.743  0.5210 -0.1722 -0.6552
  487MOL0     C65621   5.152   9.490   2.643 -0.5064 -0.1436  0.2148
  487MOL0     C65622   5.150   9.369   2.541  0.2544 -1.4580 -0.6997
  487MOL0     C65623   5.054   9.392   2.424 -0.5716  0.1985  0.2028
  487MOL0     C65624   5.107   9.313   2.309 -0.4525  0.4268 -0.9269
  487MOL0     C65625   5.022   9.321   2.185  0.9609 -0.1837  0.9773
  487MOL0     C65626   4.879   9.268   2.197 -0.7785 -0.2530 -0.6309
  487MOL0     N65627   4.788   9.261   2.084 -0.7456 -0.0660  0.3469
  487MOL0     C65628   4.782   9.337   1.977 -0.6523 -0.2817 -0.3716
  487MOL0     C65629   4.681   9.288   1.898  0.3309  0.6671 -0.5780
  487MOL0     C65630   4.630   9.361   1.775  0.0272  0.8468  0.4368
  487MOL0     C65631   4.740   9.402   1.687 -0.0759 -0.2811  0.9521
  487MOL0     C65632   4.699   9.484   1.564 -0.0406  1.1199  0.2428
  487MOL0     C65633   4.620   9.393   1.472  0.2985 -0.8256  0.1228
  487MOL0     O65634   4.592   9.458   1.344 -0.1151  0.0892 -0.0007
  487MOL0     C65635   4.682   9.428   1.246 -0.2570 -0.5240  0.1209
  487MOL0     C65636   4.817   9.397   1.272 -0.1135  0.6036  0.1045
  487MOL0     C65637   4.904   9.385   1.163 -0.0197  0.5459  0.1451
  487MOL0     C65638   4.861   9.400   1.031 -0.3005  0.4078 -0.4896
  487MOL0     C65639   4.961   9.399   0.913 -0.1561  0.1285 -0.6290
  487MOL0     O65640   5.078   9.343   0.953 -0.1697  0.0434  0.2632
  487MOL0     C65641   5.153   9.288   0.854 -0.5694 -0.4748  0.0538
  487MOL0     C65642   5.277   9.342   0.814  0.1540 -0.1148  0.9117
  487MOL0     C65643   5.347   9.270   0.714  0.3444  0.8549  0.0007
  487MOL0     C65644   5.292   9.150   0.654 -0.3804 -0.1752 -0.7116
  487MOL0     O65645   5.378   9.085   0.570 -0.0846  0.1287 -0.2858
  487MOL0     C65646   5.313   9.016   0.461  0.4876  0.0063 -0.4028
  487MOL0     C65647   5.411   9.001   0.341 -1.3594  0.8552 -0.2535
  487MOL0     C65648   5.530   8.905   0.372 -0.6287  1.2418 -0.4517
  487MOL0     C65649   5.469   8.762   0.380 -0.1825 -0.1716 -0.5697
  487MOL0     C65650   5.575   8.648   0.381  0.2978  1.0120 -0.2224
  487MOL0     C65651   5.520   8.505   0.415 -0.3018 -0.7794 -0.4179
  487MOL0     C65652   5.460   8.497   0.553  0.7564  0.5537  0.0472
  487MOL0     C65653   5.437   8.352   0.589  0.2776  0.3843  0.2848
  487MOL0    Cl65654   5.592   8.268   0.626  0.0170 -0.6995  0.2683
  487MOL0     C65655   5.178   9.091   0.704  0.0294  0.1815  0.5857
  487MOL0     C65656   5.108   9.169   0.800 -0.2797 -0.2205 -0.0736
  487MOL0     O65657   4.938   9.432   0.795  0.4023 -0.0838 -0.0505
  487MOL0     C65658   4.724   9.411   1.007  0.6768  0.7310 -0.3187
  487MOL0     C65659   4.633   9.421   1.115 -0.4201 -0.8309  0.2075
  487MOL0     N65660   4.618   9.192   1.962  0.2657  0.9060 -0.7894
  487MOL0     N65661   4.686   9.173   2.073 -0.6340 -0.2876  0.4396
  487MOL0     C65662   5.352   9.929   2.712  0.9854  0.3515 -0.1605
  487MOL0     C65663   5.352  10.070   2.747  0.8145  0.6168 -0.2988
  487MOL0     C65664   5.291  10.458   2.942  0.0845  0.7614  0.5632
  487MOL0     C65665   5.379  10.473   3.051  0.3220 -0.1115  0.5340
  487MOL0     C65666   5.395  10.589   3.129 -0.4359  0.3328  1.0350
  487MOL0     C65667   5.334  10.697   3.078 -0.9242 -0.3914 -0.1862
  487MOL0     O65668   5.370  10.816   3.147  0.4113 -0.1820 -0.3304
  487MOL0     C65669   5.271  10.922   3.162  0.0903 -0.2993 -0.2198
  487MOL0     C65670   5.340  11.029   3.253 -0.5139 -0.0877 -0.6020
  487MOL0     C65671   5.342  10.986   3.405 -1.3374 -0.1383 -0.6517
  487MOL0     C65672   5.437  10.874   3.452  0.6961  1.1580 -0.0718
  487MOL0     C65673   5.409  10.833   3.589  0.0473  0.0800 -0.6041
  487MOL0     C65674   5.388  10.815   3.705 -0.5470  1.0008  0.5649
  487MOL0     C65675   5.257  10.692   2.963 -0.2775 -0.7431 -0.1679
  487MOL0     C65676   5.232  10.576   2.892  0.0975  0.4256 -0.0917
  487MOL0     C65677   5.143  10.581   2.781  0.1469  0.5048 -0.6222
  487MOL0     H65678   5.251  10.028   3.066  1.0496  3.5955 -0.2404
  487MOL0     H65679   5.265   9.789   3.004 -0.7418  1.4320  1.6269
  487MOL0     H65680   5.352   9.561   2.914  2.8394  1.0607 -1.5765
  487MOL0     H65681   5.182   9.617   2.889  1.4847  4.4591 -0.3292
  487MOL0     H65682   5.261   9.389   2.809 -1.8741  4.0626  5.5304
  487MOL0     H65683   5.365   9.462   2.690  1.3570 -2.7578  1.2380
  487MOL0     H65684   5.166   9.580   2.583  1.3219 -1.8082 -2.0222
  487MOL0     H65685   5.054   9.487   2.692  0.2096 -0.6740  1.7024
  487MOL0     H65686   5.252   9.366   2.502 -0.1546  1.2660 -2.2089
  487MOL0     H65687   5.123   9.286   2.607 -0.3088  0.2711  1.3423
  487MOL0     H65688   4.947   9.380   2.445  0.0579 -0.2524  3.7465
  487MOL0     H65689   5.052   9.498   2.399  0.7956  0.3149  0.4904
  487MOL0     H65690   5.201   9.357   2.274  0.6685 -0.6848  0.5502
  487MOL0     H65691   5.135   9.209   2.326 -0.6628  0.5942  0.6028
  487MOL0     H65692   5.072   9.261   2.108  2.2607 -0.0062  1.6548
  487MOL0     H65693   5.012   9.421   2.141 -2.9269 -1.3874 -1.3278
  487MOL0     H65694   4.891   9.175   2.253  1.0915  1.0291  1.1972
  487MOL0     H65695   4.819   9.335   2.259 -1.4912  1.1324 -2.6748
  487MOL0     H65696   4.849   9.420   1.954 -1.2966  0.4997  0.4804
  487MOL0     H65697   4.580   9.283   1.717  2.3591 -0.2028 -0.3150
  487MOL0     H65698   4.575   9.447   1.815  0.9533  2.8726 -2.2655
  487MOL0     H65699   4.811   9.464   1.742 -0.5713  3.5004 -2.1643
  487MOL0     H65700   4.792   9.317   1.642  0.4084  1.6981 -2.6968
  487MOL0     H65701   4.788   9.523   1.514  0.3828  0.7185  0.6715
  487MOL0     H65702   4.638   9.570   1.592 -0.1274  1.4926 -1.0161
  487MOL0     H65703   4.527   9.374   1.526  1.7609 -0.6838  2.8943
  487MOL0     H65704   4.667   9.295   1.458  5.1013  1.3544 -1.0868
  487MOL0     H65705   4.865   9.376   1.367 -1.7474  0.7626  0.9909
  487MOL0     H65706   5.006   9.364   1.191 -0.0021  0.4547  0.0155
  487MOL0     H65707   5.320   9.434   0.851 -1.9485  0.3170  2.4832
  487MOL0     H65708   5.438   9.312   0.673 -0.5378  0.9599 -1.9535
  487MOL0     H65709   5.282   8.917   0.496  0.5700 -0.3391 -1.2877
  487MOL0     H65710   5.224   9.076   0.438 -0.2712  2.2806  6.1665
  487MOL0     H65711   5.365   8.974   0.246  1.1245  0.3073 -1.3775
  487MOL0     H65712   5.442   9.103   0.318 -0.3758  0.4061 -0.9807
  487MOL0     H65713   5.595   8.906   0.284  0.2557  1.3548  0.1915
  487MOL0     H65714   5.584   8.944   0.458  0.6951  0.4820 -0.9133
  487MOL0     H65715   5.419   8.752   0.283 -0.8732 -0.8879 -0.1527
  487MOL0     H65716   5.393   8.749   0.457 -0.8610 -0.7482 -1.3216
  487MOL0     H65717   5.657   8.677   0.447  1.0602  1.6791 -1.4320
  487MOL0     H65718   5.620   8.648   0.281  0.9655 -1.3394  0.0207
  487MOL0     H65719   5.454   8.463   0.338 -1.0627  0.3638 -0.4100
  487MOL0     H65720   5.607   8.438   0.418 -0.6500 -1.1876  0.9603
  487MOL0     H65721   5.365   8.551   0.550  0.6000  0.5375  2.5516
  487MOL0     H65722   5.531   8.540   0.625  0.2460  2.2460 -0.4015
  487MOL0     H65723   5.379   8.354   0.682  1.8413 -0.4352  1.3180
  487MOL0     H65724   5.376   8.305   0.511 -0.7853  0.2175  1.1746
  487MOL0     H65725   5.140   8.997   0.666 -0.2249  0.9704 -1.2739
  487MOL0     H65726   5.012   9.128   0.829 -0.6568 -0.1150 -1.1259
  487MOL0     H65727   4.678   9.414   0.909 -1.4379  0.5827  0.6188
  487MOL0     H65728   4.526   9.433   1.099 -0.3205  0.3982  0.3842
  487MOL0     H65729   5.369   9.886   2.613 -3.3602 -2.2670 -0.0581
  487MOL0     H65730   5.373  10.150   2.677 -0.3340 -0.2766 -1.6959
  487MOL0     H65731   5.417  10.382   3.096 -0.0469 -0.5315  0.0201
  487MOL0     H65732   5.469  10.599   3.208  0.4297  1.3841  0.1484
  487MOL0     H65733   5.186  10.873   3.210  0.8559 -1.7439 -0.2854
  487MOL0     H65734   5.255  10.961   3.062  1.8054  2.2962  0.4162
  487MOL0     H65735   5.285  11.123   3.244 -0.3493  0.5054  3.0909
  487MOL0     H65736   5.441  11.051   3.218  1.2885 -2.4950  2.4931
  487MOL0     H65737   5.236  10.977   3.431 -1.2411  0.1419 -0.1377
  487MOL0     H65738   5.376  11.076   3.457 -1.0224 -0.2248 -0.7027
  487MOL0     H65739   5.424  10.791   3.382 -0.9237  1.9359 -0.7474
  487MOL0     H65740   5.542  10.905   3.443  0.7097  1.0542 -0.2656
  487MOL0     H65741   5.391  10.796   3.810  0.1078 -0.1136  0.3627
  487MOL0     H65742   5.230  10.784   2.912  0.6921 -0.0629  0.5019
  487MOL0     H65743   5.051  10.528   2.808  1.1071 -1.1965 -0.5103
  487MOL0     H65744   5.115  10.682   2.751  0.6177  1.3327  1.5497
  487MOL0     H65745   5.201  10.534   2.701  4.9732  1.4571  1.9218
  488MOL0     O65746   1.988   5.017  10.117 -0.6152  0.1992  0.0010
  488MOL0     C65747   1.887   5.040  10.057  0.1748  0.4195  0.2043
  488MOL0     O65748   1.879   5.108   9.940 -1.2452  1.0402  0.1277
  488MOL0     C65749   1.986   5.166   9.873  0.7293 -0.1063  0.3612
  488MOL0     C65750   2.070   5.083   9.796 -0.0409 -0.5386  0.3238
  488MOL0     C65751   2.180   5.141   9.725 -0.7463  0.4787  0.6735
  488MOL0     C65752   2.214   5.273   9.731  1.0278 -1.0044  0.5172
  488MOL0     O65753   2.333   5.311   9.662  0.7132  0.9128  0.0435
  488MOL0     C65754   2.358   5.451   9.670  0.7474 -0.0992  0.6862
  488MOL0     C65755   2.497   5.487   9.602 -0.1418 -0.3285 -0.3277
  488MOL0     C65756   2.542   5.618   9.664  0.4286  0.5828  0.3076
  488MOL0     C65757   2.680   5.657   9.619 -0.3396 -0.2593 -0.4692
  488MOL0     C65758   2.792   5.558   9.673  0.0886  0.1428 -0.2794
  488MOL0     C65759   2.924   5.601   9.607  0.2351 -0.3512 -0.6250
  488MOL0     C65760   3.047   5.522   9.644 -0.0621 -0.6945  0.3034
  488MOL0     C65761   3.178   5.600   9.597  0.5881  0.0496  0.0361
  488MOL0     N65762   3.297   5.527   9.653 -0.1967 -0.3632 -0.2535
  488MOL0     C65763   3.295   5.437   9.756  0.1421 -0.6350  0.6069
  488MOL0     C65764   3.432   5.404   9.759 -0.0245 -0.6225 -0.3706
  488MOL0     C65765   3.487   5.327   9.873 -0.3074 -0.0845 -0.5280
  488MOL0     C65766   3.459   5.408  10.005 -0.3045  0.2880  0.9565
  488MOL0     C65767   3.506   5.324  10.129  0.1623 -0.5483 -0.0843
  488MOL0     C65768   3.478   5.421  10.245  0.0734 -0.7906  0.0846
  488MOL0     O65769   3.480   5.340  10.364 -0.3939 -0.2198  0.6221
  488MOL0     C65770   3.595   5.346  10.444  0.2632  0.8005 -0.2191
  488MOL0     C65771   3.712   5.394  10.399  0.1347  0.3122  0.1418
  488MOL0     C65772   3.826   5.417  10.489  0.3695  0.3021  0.2339
  488MOL0     C65773   3.809   5.397  10.631  0.2698 -0.3394  0.2166
  488MOL0     C65774   3.928   5.428  10.727  0.0333 -0.4682 -0.1069
  488MOL0     O65775   3.892   5.410  10.862 -0.3650 -0.1008  0.6542
  488MOL0     C65776   3.966   5.443  10.964  0.4875 -0.0150  0.1327
  488MOL0     C65777   4.002   5.337  11.051  1.1385  0.0376 -0.4512
  488MOL0     C65778   4.069   5.353  11.173 -0.2680  0.4223  0.7948
  488MOL0     C65779   4.114   5.484  11.206 -0.1436 -0.5054  0.1923
  488MOL0     O65780   4.192   5.495  11.317 -0.2281 -0.0447  0.0759
  488MOL0     C65781   4.186   5.618  11.389  0.0333  0.7701 -0.3333
  488MOL0     C65782   4.299   5.709  11.354 -0.2251 -0.6330 -0.1991
  488MOL0     C65783   4.427   5.669  11.426  0.0962 -0.3102  0.0173
  488MOL0     C65784   4.501   5.562  11.344 -0.2581  0.7231 -0.1509
  488MOL0     C65785   4.647   5.536  11.395 -1.1754 -0.0169 -0.2654
  488MOL0     C65786   4.739   5.645  11.364 -0.2792 -0.2448 -0.2250
  488MOL0     C65787   4.879   5.626  11.411 -0.5269  0.9433 -0.0951
  488MOL0     C65788   4.958   5.544  11.313  0.3341  0.2231 -0.0979
  488MOL0    Cl65789   5.139   5.540  11.327 -0.3756 -0.5736 -0.1721
  488MOL0     C65790   4.076   5.589  11.115 -0.9799  0.5415  0.0541
  488MOL0     C65791   4.006   5.570  10.998  0.0718  0.1339  0.1504
  488MOL0     O65792   4.034   5.460  10.685  0.3463  0.3183  0.4667
  488MOL0     C65793   3.679   5.361  10.673 -0.7555  0.2050  0.2034
  488MOL0     C65794   3.574   5.332  10.583  0.5891 -0.5417 -0.2455
  488MOL0     N65795   3.496   5.462   9.644 -0.4801 -0.1144 -0.6513
  488MOL0     N65796   3.403   5.533   9.580 -0.9675  1.1700  0.7604
  488MOL0     C65797   2.129   5.355   9.805  0.3866 -0.4586 -0.2075
  488MOL0     C65798   2.016   5.301   9.876 -0.3785 -0.4071  0.5498
  488MOL0     C65799   1.757   5.005  10.115  0.2548 -0.3390 -0.1069
  488MOL0     C65800   1.747   4.933  10.237  0.0802  0.7233 -0.7015
  488MOL0     C65801   1.625   4.910  10.297  0.5412 -0.3477 -0.0630
  488MOL0     C65802   1.505   4.939  10.231 -0.1721 -0.2600  0.7245
  488MOL0     O65803   1.387   4.914  10.294  0.1711 -0.6655  0.0416
  488MOL0     C65804   1.346   5.019  10.388 -0.1629  0.0468 -0.4667
  488MOL0     C65805   1.394   4.990  10.528 -0.1630  0.4798 -0.6317
  488MOL0     C65806   1.343   5.095  10.626  0.5935  0.4900 -0.5275
  488MOL0     C65807   1.396   5.235  10.602  0.1831  0.2778  0.1285
  488MOL0     C65808   1.310   5.340  10.660  0.4103 -0.0367 -0.2940
  488MOL0     C65809   1.226   5.417  10.705  1.1587  0.2705  0.5852
  488MOL0     C65810   1.505   4.993  10.103 -0.4087  0.1952 -0.8183
  488MOL0     C65811   1.633   5.028  10.045  0.3462  0.3178 -0.7582
  488MOL0     C65812   1.626   5.059   9.893 -1.0061  0.1427 -0.6629
  488MOL0     H65813   2.045   4.978   9.795  2.2958 -1.1518 -1.5561
  488MOL0     H65814   2.240   5.079   9.658 -1.2689 -1.3268  1.7947
  488MOL0     H65815   2.277   5.508   9.624  0.2750 -0.6512  0.8235
  488MOL0     H65816   2.364   5.476   9.777  1.1398 -0.9252  0.8615
  488MOL0     H65817   2.490   5.493   9.493 -3.1159  1.2993 -0.1392
  488MOL0     H65818   2.563   5.409   9.640  0.3895 -0.1871 -0.9417
  488MOL0     H65819   2.548   5.606   9.773 -1.8554  0.2717  0.4504
  488MOL0     H65820   2.480   5.701   9.627  1.0964  0.7220 -0.5455
  488MOL0     H65821   2.672   5.675   9.511  1.4574 -0.0390 -0.5833
  488MOL0     H65822   2.698   5.761   9.649 -2.2930  0.5819 -1.9274
  488MOL0     H65823   2.789   5.556   9.782  2.7232  1.6318 -0.0921
  488MOL0     H65824   2.765   5.460   9.633 -0.2702 -0.0470  0.4198
  488MOL0     H65825   2.902   5.584   9.501 -2.1084 -0.1757 -0.2112
  488MOL0     H65826   2.945   5.706   9.629  2.1108 -0.7619 -0.2472
  488MOL0     H65827   3.038   5.424   9.598 -2.9273 -0.4603  0.1940
  488MOL0     H65828   3.038   5.517   9.753  0.9946  2.0649  0.5966
  488MOL0     H65829   3.182   5.580   9.489 -0.0196 -0.2563  0.0628
  488MOL0     H65830   3.182   5.705   9.627  0.5909 -0.5164  2.1902
  488MOL0     H65831   3.222   5.412   9.832 -2.7636  0.8351 -1.5334
  488MOL0     H65832   3.430   5.234   9.881 -2.3657  1.1835  0.7716
  488MOL0     H65833   3.594   5.309   9.862 -0.3321 -2.0880  1.8045
  488MOL0     H65834   3.520   5.498   9.999  1.8944 -1.1518  0.4419
  488MOL0     H65835   3.354   5.434  10.021 -0.5423  1.6023 -2.1621
  488MOL0     H65836   3.610   5.293  10.123  0.2378 -0.0442 -4.6216
  488MOL0     H65837   3.442   5.236  10.128  1.1766 -1.2937 -0.9181
  488MOL0     H65838   3.374   5.456  10.239 -0.5041 -2.3734  0.3712
  488MOL0     H65839   3.541   5.510  10.242 -0.4860 -0.3392  1.0387
  488MOL0     H65840   3.723   5.428  10.297  2.6033  0.2682  0.3214
  488MOL0     H65841   3.925   5.453  10.465  1.5659 -0.5522  3.3667
  488MOL0     H65842   3.980   5.233  11.029  0.2909  0.5478 -2.1704
  488MOL0     H65843   4.105   5.274  11.238  0.1378  0.4691  0.6291
  488MOL0     H65844   4.091   5.667  11.366  1.0908  1.8510 -2.7250
  488MOL0     H65845   4.198   5.601  11.496  0.8069 -0.2316 -0.5647
  488MOL0     H65846   4.322   5.706  11.247 -1.3729  1.1629 -0.5458
  488MOL0     H65847   4.271   5.813  11.377  1.1447 -0.0424 -1.0400
  488MOL0     H65848   4.498   5.752  11.426  1.3927 -1.3867  0.3182
  488MOL0     H65849   4.414   5.632  11.528  1.9937 -0.1915  0.3384
  488MOL0     H65850   4.514   5.588  11.239 -1.0068 -1.5538 -0.8787
  488MOL0     H65851   4.444   5.468  11.345  1.1148 -0.1469  0.6755
  488MOL0     H65852   4.676   5.441  11.350 -0.4370  0.5144 -0.9327
  488MOL0     H65853   4.644   5.527  11.504 -1.5861 -0.3324 -0.2982
  488MOL0     H65854   4.737   5.669  11.258  3.9108  0.3792 -0.3248
  488MOL0     H65855   4.701   5.735  11.414  0.9121  1.0450 -1.5554
  488MOL0     H65856   4.878   5.586  11.513 -0.7142  3.9607  1.2115
  488MOL0     H65857   4.928   5.724  11.422 -0.6157  1.1725 -1.5700
  488MOL0     H65858   4.925   5.440  11.308  2.0592 -0.3807  0.3704
  488MOL0     H65859   4.940   5.591  11.215  1.0879  3.0688  1.0375
  488MOL0     H65860   4.115   5.688  11.138  0.6320  0.0520 -0.4515
  488MOL0     H65861   3.972   5.661  10.950 -0.4892 -1.5999 -2.9999
  488MOL0     H65862   3.655   5.361  10.778 -2.0312 -1.1913 -0.0514
  488MOL0     H65863   3.479   5.312  10.632  1.6390  0.5913  2.4787
  488MOL0     H65864   2.137   5.463   9.813 -3.2066 -0.1337  1.0693
  488MOL0     H65865   1.952   5.369   9.931 -0.5674  0.5932 -0.8537
  488MOL0     H65866   1.842   4.912  10.287  1.7610  4.3660 -1.9694
  488MOL0     H65867   1.609   4.864  10.394 -3.3283 -1.0913 -0.9099
  488MOL0     H65868   1.237   5.020  10.387 -0.1943 -0.6988  0.5527
  488MOL0     H65869   1.375   5.121  10.361  1.1245 -0.6882 -2.0516
  488MOL0     H65870   1.504   4.984  10.534 -0.1461  0.5739 -0.8592
  488MOL0     H65871   1.356   4.893  10.562  0.6221  1.0024  2.0071
  488MOL0     H65872   1.352   5.067  10.732  1.4866 -0.3514 -0.8168
  488MOL0     H65873   1.236   5.089  10.602  0.2569  3.4159 -0.0977
  488MOL0     H65874   1.493   5.241  10.653  1.3106 -0.9075 -1.7894
  488MOL0     H65875   1.404   5.266  10.497 -0.6024  3.9572  0.9867
  488MOL0     H65876   1.157   5.484  10.753  0.8641  1.3105 -1.2092
  488MOL0     H65877   1.411   5.003  10.050 -0.4229 -0.9037 -1.0218
  488MOL0     H65878   1.687   4.999   9.825  3.2100  2.3946  0.7311
  488MOL0     H65879   1.525   5.047   9.854 -1.2998 -2.2389  0.6775
  488MOL0     H65880   1.652   5.165   9.880  0.9253 -0.4108 -1.6804
  489MOL0     O65881   6.099   2.464   6.531 -0.1382 -0.1519 -0.1135
  489MOL0     C65882   6.132   2.478   6.651  0.3211 -0.0774  0.7970
  489MOL0     O65883   6.259   2.488   6.688 -0.0959 -0.6906 -0.7181
  489MOL0     C65884   6.353   2.558   6.622 -0.4676  0.4292  0.6493
  489MOL0     C65885   6.318   2.662   6.526 -0.2665 -0.2461 -0.2867
  489MOL0     C65886   6.422   2.740   6.477  0.0310 -0.8073  0.4227
  489MOL0     C65887   6.556   2.721   6.510 -0.7152 -0.0843 -0.4456
  489MOL0     O65888   6.651   2.799   6.454 -0.2170 -0.4364  0.2269
  489MOL0     C65889   6.790   2.787   6.493 -0.4960  0.4668  0.0694
  489MOL0     C65890   6.807   2.827   6.643 -0.9008  0.5636 -0.1040
  489MOL0     C65891   6.954   2.860   6.673 -0.8202  0.5863 -0.7899
  489MOL0     C65892   6.987   2.875   6.820 -0.7165 -2.1525 -0.3876
  489MOL0     C65893   7.129   2.934   6.847  0.3784 -0.4851 -0.1670
  489MOL0     C65894   7.145   3.082   6.821 -0.1746 -0.5199 -0.6677
  489MOL0     C65895   7.296   3.126   6.850  0.3038  0.1066  0.6068
  489MOL0     C65896   7.318   3.280   6.832  0.3059  0.8747  0.2684
  489MOL0     N65897   7.272   3.379   6.935  0.1369  0.0579 -1.1646
  489MOL0     C65898   7.226   3.502   6.892 -0.8997  1.0166  0.4599
  489MOL0     C65899   7.162   3.550   6.998 -0.4424 -0.0289 -0.2586
  489MOL0     C65900   7.080   3.681   6.996  0.0072 -0.5526 -0.2888
  489MOL0     C65901   6.992   3.716   6.880  0.4740  0.6813 -0.3569
  489MOL0     C65902   6.911   3.845   6.909 -0.1643 -0.7383 -0.8829
  489MOL0     C65903   6.846   3.903   6.787  0.3367  0.3616  0.5096
  489MOL0     O65904   6.778   3.796   6.715 -0.0078 -0.2825  0.6800
  489MOL0     C65905   6.659   3.757   6.754 -0.4821 -0.1841  0.2086
  489MOL0     C65906   6.598   3.660   6.676 -0.3184  0.0293  0.0723
  489MOL0     C65907   6.466   3.618   6.686  0.9464  0.1160 -0.0447
  489MOL0     C65908   6.388   3.675   6.786  0.3707  0.7526  0.4075
  489MOL0     C65909   6.247   3.634   6.799 -0.0195 -0.2834  0.0529
  489MOL0     O65910   6.184   3.555   6.702 -0.5285 -0.0987 -0.0009
  489MOL0     C65911   6.049   3.530   6.723  0.0092 -0.1635  0.5913
  489MOL0     C65912   5.962   3.626   6.683  0.6581  0.6502 -0.1038
  489MOL0     C65913   5.822   3.619   6.702 -0.4427  0.2945 -0.6082
  489MOL0     C65914   5.776   3.512   6.772  0.4264  0.2883  0.6146
  489MOL0     O65915   5.643   3.506   6.789 -0.6611 -0.5305 -0.7842
  489MOL0     C65916   5.589   3.377   6.828 -0.0457  0.1790  0.1910
  489MOL0     C65917   5.439   3.403   6.828 -0.2743  0.3617 -0.6058
  489MOL0     C65918   5.389   3.473   6.968 -0.3153 -0.8720  0.8297
  489MOL0     C65919   5.409   3.627   6.969  0.9472 -0.3974  0.3985
  489MOL0     C65920   5.357   3.682   7.104 -0.9605  0.4589  0.1671
  489MOL0     C65921   5.206   3.694   7.113 -0.6310 -0.1817 -0.1583
  489MOL0     C65922   5.177   3.828   7.189  0.2186  0.1720 -0.0375
  489MOL0     C65923   5.028   3.838   7.220  0.2917  0.6306 -1.2073
  489MOL0    Cl65924   4.926   3.811   7.078 -0.1410 -0.0026 -0.2910
  489MOL0     C65925   5.865   3.410   6.809 -0.2012 -0.1837  0.2362
  489MOL0     C65926   6.004   3.418   6.785 -0.4164  0.2547 -0.1895
  489MOL0     O65927   6.194   3.675   6.895 -0.4053 -0.1876  0.6157
  489MOL0     C65928   6.451   3.766   6.881  0.9259  0.1633  0.0641
  489MOL0     C65929   6.582   3.811   6.859 -0.7105 -0.8136  0.3297
  489MOL0     N65930   7.183   3.470   7.109 -0.2805 -0.4666 -0.1144
  489MOL0     N65931   7.252   3.360   7.072 -0.4515 -0.1754  0.2462
  489MOL0     C65932   6.587   2.604   6.587  0.7537  0.2127  0.7034
  489MOL0     C65933   6.489   2.525   6.648  0.6695 -0.0827  0.9614
  489MOL0     C65934   6.021   2.470   6.750 -0.5664  0.2511  0.3553
  489MOL0     C65935   5.915   2.379   6.727 -0.5290 -0.5792  0.0743
  489MOL0     C65936   5.821   2.363   6.825  0.0182  1.3057  0.0123
  489MOL0     C65937   5.826   2.430   6.949  0.5665  0.0163  0.0924
  489MOL0     O65938   5.723   2.406   7.041  0.1033 -0.1132 -0.0929
  489MOL0     C65939   5.723   2.442   7.178 -0.6277 -0.2802  0.1735
  489MOL0     C65940   5.581   2.491   7.218 -0.0769 -0.6342 -0.4540
  489MOL0     C65941   5.523   2.616   7.161 -0.2410  0.8414 -0.4268
  489MOL0     C65942   5.521   2.634   7.007  0.2445  0.0996 -0.4078
  489MOL0     C65943   5.469   2.515   6.931  0.7661 -0.1947  0.0871
  489MOL0     C65944   5.440   2.428   6.855  0.8536  0.6010  0.0823
  489MOL0     C65945   5.927   2.516   6.964 -0.0453 -0.4862 -0.2918
  489MOL0     C65946   6.020   2.544   6.873 -0.0391 -0.5905 -0.0835
  489MOL0     C65947   6.124   2.656   6.889 -0.2431 -0.5865 -0.1937
  489MOL0     H65948   6.220   2.694   6.492 -0.3919  1.3307  1.3887
  489MOL0     H65949   6.393   2.815   6.403 -0.0591  0.7617  1.9999
  489MOL0     H65950   6.826   2.685   6.476 -2.5869 -0.3576  0.2498
  489MOL0     H65951   6.840   2.856   6.424  0.2674 -1.0454 -0.9448
  489MOL0     H65952   6.769   2.757   6.717 -0.9880  0.7425  0.0218
  489MOL0     H65953   6.753   2.922   6.653 -0.7302  0.6679 -0.1747
  489MOL0     H65954   6.997   2.942   6.616 -0.0647  0.4778 -0.3934
  489MOL0     H65955   7.017   2.774   6.645  0.0446  0.4466  1.3847
  489MOL0     H65956   6.917   2.940   6.875 -0.6111 -1.6741 -0.8054
  489MOL0     H65957   6.983   2.772   6.856  1.8123 -2.1330  0.0802
  489MOL0     H65958   7.164   2.913   6.948  2.3311  1.7713 -0.2618
  489MOL0     H65959   7.189   2.874   6.778 -1.2340  1.0087 -3.0555
  489MOL0     H65960   7.111   3.091   6.717  1.1064 -0.2010 -1.0821
  489MOL0     H65961   7.073   3.136   6.884  1.3239 -0.2933  0.9149
  489MOL0     H65962   7.362   3.087   6.773 -0.6581 -0.5464  0.1041
  489MOL0     H65963   7.339   3.104   6.948  4.6500  1.9124 -0.6658
  489MOL0     H65964   7.423   3.302   6.812 -0.1080  0.9944 -1.9903
  489MOL0     H65965   7.266   3.318   6.744  0.3555 -1.1726 -0.7044
  489MOL0     H65966   7.233   3.540   6.790 -1.8319 -0.0930 -0.0556
  489MOL0     H65967   7.024   3.687   7.090  3.0673 -3.1053  1.9535
  489MOL0     H65968   7.156   3.759   6.992 -0.8818  0.2576 -1.6974
  489MOL0     H65969   7.040   3.718   6.782  0.3820 -1.1069 -0.4756
  489MOL0     H65970   6.916   3.639   6.867  1.3353 -0.3307  0.3478
  489MOL0     H65971   6.971   3.929   6.945  1.7911  0.4719 -6.0632
  489MOL0     H65972   6.843   3.825   6.992  0.8705  1.2007  0.5213
  489MOL0     H65973   6.922   3.954   6.727 -2.4557 -0.2701 -4.0778
  489MOL0     H65974   6.779   3.982   6.822 -0.4452 -0.3740  0.6981
  489MOL0     H65975   6.665   3.624   6.598 -1.1707  1.0976 -1.1849
  489MOL0     H65976   6.425   3.556   6.607  1.0418 -0.7537  0.5795
  489MOL0     H65977   6.007   3.701   6.618  0.9174  0.0448 -0.6302
  489MOL0     H65978   5.760   3.703   6.671  3.7202  3.1082 -2.1723
  489MOL0     H65979   5.614   3.311   6.744  0.4901  4.2717 -3.2130
  489MOL0     H65980   5.619   3.341   6.926  1.5145  1.8045  0.3663
  489MOL0     H65981   5.408   3.445   6.732 -0.8737 -0.5996 -0.8537
  489MOL0     H65982   5.401   3.300   6.826 -1.4660  0.7519  0.3711
  489MOL0     H65983   5.288   3.433   6.961 -0.8278  0.6438 -1.7541
  489MOL0     H65984   5.439   3.418   7.049  1.5232 -0.3785  0.0923
  489MOL0     H65985   5.347   3.657   6.884 -1.6341 -2.4822  1.4033
  489MOL0     H65986   5.510   3.664   6.952  1.3433 -1.3824  0.5292
  489MOL0     H65987   5.401   3.780   7.125 -1.6545  0.9350 -0.5519
  489MOL0     H65988   5.385   3.619   7.189 -0.6226 -1.8585 -1.5401
  489MOL0     H65989   5.166   3.705   7.011 -0.0866  0.6728 -0.2893
  489MOL0     H65990   5.162   3.602   7.153  0.7307 -0.1926  1.4213
  489MOL0     H65991   5.202   3.919   7.133  0.6609  0.1479  0.1195
  489MOL0     H65992   5.246   3.833   7.273 -0.9028  0.9488  0.8726
  489MOL0     H65993   5.005   3.751   7.283 -2.2991  0.9459 -1.6186
  489MOL0     H65994   4.998   3.927   7.275 -1.0468  0.7182 -2.0425
  489MOL0     H65995   5.835   3.326   6.871 -1.0723  1.0323  1.5182
  489MOL0     H65996   6.080   3.359   6.833 -1.6768  0.1186  1.7265
  489MOL0     H65997   6.387   3.801   6.962  0.5156 -2.3576  0.8951
  489MOL0     H65998   6.626   3.885   6.925 -1.5942 -0.8949  1.0287
  489MOL0     H65999   6.689   2.571   6.604  0.7406  0.2032  0.7621
  489MOL0     H66000   6.526   2.450   6.717 -0.0455 -0.4958  0.9115
  489MOL0     H66001   5.914   2.329   6.631  1.1691  1.2609 -0.9717
  489MOL0     H66002   5.739   2.292   6.815  0.5026  0.5087  1.5212
  489MOL0     H66003   5.805   2.510   7.203 -1.2456  0.3157  0.6392
  489MOL0     H66004   5.738   2.349   7.233 -1.4399 -0.5153  0.0183
  489MOL0     H66005   5.584   2.505   7.327  2.0173  3.1037 -0.8424
  489MOL0     H66006   5.519   2.404   7.197 -0.3592 -0.0630 -2.1358
  489MOL0     H66007   5.579   2.699   7.205 -1.7145  2.3723 -1.3241
  489MOL0     H66008   5.418   2.624   7.191  0.2346  1.0633  1.2893
  489MOL0     H66009   5.457   2.722   6.990  0.6229  0.8137  1.5712
  489MOL0     H66010   5.624   2.662   6.984  0.4171 -1.1955 -1.2578
  489MOL0     H66011   5.426   2.355   6.778 -0.8551 -1.7688  2.4425
  489MOL0     H66012   5.934   2.570   7.058  0.0343  0.7935 -1.0054
  489MOL0     H66013   6.226   2.619   6.897  0.6913  1.3993 -1.9030
  489MOL0     H66014   6.121   2.713   6.796  0.1414 -1.4122 -0.7188
  489MOL0     H66015   6.103   2.729   6.968  0.4848  1.6617 -1.9672
  490MOL0     O66016   8.307   1.331   9.964 -0.0133 -0.6878 -0.5150
  490MOL0     C66017   8.353   1.399   9.877  0.1444  0.4222  1.3874
  490MOL0     O66018   8.485   1.421   9.853 -0.3289 -0.2528 -0.6938
  490MOL0     C66019   8.584   1.398   9.949 -0.5528 -0.0982 -0.5730
  490MOL0     C66020   8.676   1.498   9.974 -0.2972 -0.2162  0.0577
  490MOL0     C66021   8.791   1.474  10.050  0.0861 -0.5619 -0.2082
  490MOL0     C66022   8.809   1.352  10.108 -0.0889  0.0139  0.4150
  490MOL0     O66023   8.929   1.325  10.167  0.3234 -0.4989 -0.1605
  490MOL0     C66024   8.923   1.256  10.292  0.2390  0.5471 -0.0960
  490MOL0     C66025   8.850   1.341  10.396 -0.3226 -0.4168 -0.0824
  490MOL0     C66026   8.847   1.286  10.538  0.0054 -0.6489 -0.1195
  490MOL0     C66027   8.980   1.263  10.602  0.1876 -0.0346 -0.1505
  490MOL0     C66028   9.062   1.395  10.631  0.5238  0.9594 -0.1086
  490MOL0     C66029   9.173   1.363  10.735  0.3785 -0.4923  0.6937
  490MOL0     C66030   9.266   1.487  10.747 -0.0259 -0.0796 -0.2997
  490MOL0     C66031   9.344   1.481  10.877 -0.1295 -1.1018  0.5178
  490MOL0     N66032   9.433   1.597  10.888 -0.0429  0.4815 -0.3882
  490MOL0     C66033   9.513   1.610  10.999  0.1904 -0.3397  0.3393
  490MOL0     C66034   9.623   1.679  10.955  0.1591  1.2431  0.7616
  490MOL0     C66035   9.745   1.713  11.039 -0.2619 -0.9814  0.9772
  490MOL0     C66036   9.792   1.611  11.133  1.4047 -0.4866 -1.0191
  490MOL0     C66037   9.916   1.641  11.221  0.3231  0.7155  0.0607
  490MOL0     C66038  10.044   1.686  11.147  0.0588  0.4159 -0.3189
  490MOL0     O66039  10.148   1.677  11.242 -0.2423  0.3362  0.2971
  490MOL0     C66040  10.267   1.681  11.172 -0.4745  0.6899  0.5967
  490MOL0     C66041  10.288   1.732  11.035 -0.1881 -0.1806 -0.1713
  490MOL0     C66042  10.417   1.740  10.982  1.2837  0.2850 -1.1652
  490MOL0     C66043  10.524   1.681  11.052  1.0435 -0.2107 -0.1263
  490MOL0     C66044  10.667   1.676  10.997 -0.4603  0.3105 -0.7804
  490MOL0     O66045  10.685   1.735  10.875  0.5686  0.9516  1.3068
  490MOL0     C66046  10.804   1.728  10.820 -0.7449 -0.3900  0.0724
  490MOL0     C66047  10.857   1.855  10.799 -0.9509  0.7026  0.7682
  490MOL0     C66048  10.985   1.863  10.752 -0.0657 -0.2374  0.4615
  490MOL0     C66049  11.063   1.758  10.712  0.0423  0.5182 -0.0562
  490MOL0     O66050  11.185   1.792  10.665  0.1096  0.5363  0.3240
  490MOL0     C66051  11.284   1.705  10.689  0.4188  0.0136  0.4914
  490MOL0     C66052  11.417   1.773  10.646 -0.1411 -0.5203 -0.1354
  490MOL0     C66053  11.527   1.700  10.710 -0.6701  0.8713 -0.1706
  490MOL0     C66054  11.662   1.739  10.654 -0.1761 -0.5843  0.2034
  490MOL0     C66055  11.770   1.636  10.693  0.6614 -0.2876 -0.5092
  490MOL0     C66056  11.921   1.675  10.672 -0.2493 -0.2340  0.3126
  490MOL0     C66057  12.013   1.570  10.718 -0.2209 -0.3331 -0.0896
  490MOL0     C66058  12.040   1.471  10.608 -0.0918  0.3717  0.2586
  490MOL0    Cl66059  12.155   1.345  10.666  0.3984  0.1509 -0.0277
  490MOL0     C66060  11.014   1.629  10.730 -0.5438 -0.0446 -1.2299
  490MOL0     C66061  10.883   1.615  10.790 -1.3540 -0.4407  0.6374
  490MOL0     O66062  10.754   1.617  11.064  0.2086 -0.3383 -0.1870
  490MOL0     C66063  10.500   1.615  11.180 -0.1519  0.8180  0.2076
  490MOL0     C66064  10.379   1.630  11.244  0.2596 -0.1819 -0.3227
  490MOL0     N66065   9.592   1.720  10.827 -0.3432 -0.2548 -0.5514
  490MOL0     N66066   9.489   1.668  10.784  0.6417 -0.7691  0.4137
  490MOL0     C66067   8.716   1.255  10.087  1.0359  0.3508  0.8188
  490MOL0     C66068   8.598   1.280  10.021 -1.0939 -0.0336 -0.4939
  490MOL0     C66069   8.258   1.462   9.772 -0.6837  0.3832 -0.1600
  490MOL0     C66070   8.317   1.488   9.644 -0.6060  0.1985 -0.6097
  490MOL0     C66071   8.237   1.535   9.535  0.3580  0.0501  0.1148
  490MOL0     C66072   8.099   1.545   9.548 -0.5362  0.3174 -0.1933
  490MOL0     O66073   8.020   1.592   9.445 -0.1705  0.4892  0.3446
  490MOL0     C66074   8.073   1.664   9.328 -1.0185 -0.4693  0.2565
  490MOL0     C66075   7.966   1.747   9.262  0.6325  0.5527  0.5731
  490MOL0     C66076   8.020   1.853   9.164 -0.7661  0.1029 -0.8950
  490MOL0     C66077   7.905   1.944   9.106 -0.4040  0.1681 -0.1417
  490MOL0     C66078   7.843   2.042   9.201 -0.1465  0.4141  0.6230
  490MOL0     C66079   7.785   2.132   9.254  0.2690  0.0988 -0.3944
  490MOL0     C66080   8.037   1.510   9.669 -0.3043  0.2364  0.1000
  490MOL0     C66081   8.111   1.462   9.776 -0.2257 -0.3399  0.1651
  490MOL0     C66082   8.041   1.427   9.894  0.8487  0.2818 -0.8703
  490MOL0     H66083   8.669   1.595   9.926  0.4650  1.0452  2.3774
  490MOL0     H66084   8.876   1.541  10.062  1.3239 -1.9048 -1.1171
  490MOL0     H66085   8.878   1.158  10.279  1.0885  0.2074 -0.5834
  490MOL0     H66086   9.028   1.234  10.315  0.0961  0.6124  0.6593
  490MOL0     H66087   8.751   1.372  10.362 -1.5342 -1.1830  2.5410
  490MOL0     H66088   8.909   1.434  10.397  0.3648 -0.8076 -1.3735
  490MOL0     H66089   8.793   1.191  10.545 -1.7906  0.4707  3.2855
  490MOL0     H66090   8.795   1.359  10.601 -1.0625 -1.8450  0.4304
  490MOL0     H66091   8.951   1.221  10.699 -1.1644  0.2189 -0.4339
  490MOL0     H66092   9.048   1.198  10.545 -0.9934 -1.6829  0.2456
  490MOL0     H66093   9.098   1.434  10.536  2.9153 -1.7739 -0.4953
  490MOL0     H66094   9.000   1.474  10.674  3.5179  1.8136  3.0878
  490MOL0     H66095   9.120   1.348  10.829  2.2279  0.4167  1.9488
  490MOL0     H66096   9.222   1.267  10.714  0.5314 -0.6191  1.6168
  490MOL0     H66097   9.209   1.580  10.745 -0.0027 -0.0518  0.1775
  490MOL0     H66098   9.335   1.484  10.663  0.4692 -1.0727  0.1230
  490MOL0     H66099   9.273   1.485  10.960  1.0622  0.9332  1.5106
  490MOL0     H66100   9.388   1.381  10.888  1.2983 -0.4848  0.7393
  490MOL0     H66101   9.511   1.572  11.101 -0.8225 -2.0141 -0.2650
  490MOL0     H66102   9.822   1.730  10.963 -0.8533 -1.2486  0.3001
  490MOL0     H66103   9.715   1.804  11.090  0.4742 -2.2087  3.7718
  490MOL0     H66104   9.710   1.589  11.203  0.7818 -1.4500 -2.0248
  490MOL0     H66105   9.818   1.518  11.081  1.1905 -0.8871 -0.4258
  490MOL0     H66106   9.935   1.548  11.276  2.7387  2.0975  1.7270
  490MOL0     H66107   9.892   1.720  11.292  1.2300 -0.5900  1.8933
  490MOL0     H66108  10.033   1.787  11.106 -1.1428 -0.0208 -1.1431
  490MOL0     H66109  10.069   1.624  11.061  0.1275 -1.7473  1.1950
  490MOL0     H66110  10.204   1.783  10.989 -0.9575  0.1462  1.5169
  490MOL0     H66111  10.437   1.788  10.887 -1.1993  0.9333 -1.4399
  490MOL0     H66112  10.790   1.937  10.824  0.9696  2.4884  0.2742
  490MOL0     H66113  11.034   1.959  10.740 -2.9124  0.9614 -3.2478
  490MOL0     H66114  11.281   1.690  10.797 -0.1195  3.1468  1.0197
  490MOL0     H66115  11.267   1.611  10.636  0.3385 -0.2642  1.0053
  490MOL0     H66116  11.428   1.780  10.538  3.3019 -0.5247  0.0939
  490MOL0     H66117  11.419   1.879  10.672  1.5791 -0.5366 -0.0684
  490MOL0     H66118  11.530   1.724  10.817  0.8927  0.8519 -0.1818
  490MOL0     H66119  11.509   1.593  10.701  2.8822  0.1726 -0.2954
  490MOL0     H66120  11.686   1.835  10.700  1.1586 -0.8565  0.1339
  490MOL0     H66121  11.646   1.747  10.546 -7.7383 -1.4729  0.7193
  490MOL0     H66122  11.747   1.548  10.631 -0.9250 -1.4192  1.5505
  490MOL0     H66123  11.749   1.607  10.796 -3.0404 -2.2645 -1.6068
  490MOL0     H66124  11.942   1.716  10.573 -0.0917  1.3426  0.9719
  490MOL0     H66125  11.947   1.765  10.728 -2.4262  1.7869 -1.6736
  490MOL0     H66126  11.969   1.508  10.797  0.1806  2.1485  2.1957
  490MOL0     H66127  12.103   1.621  10.753 -0.7411  0.4656  0.1015
  490MOL0     H66128  11.944   1.425  10.587  0.1096 -0.0607  0.2855
  490MOL0     H66129  12.075   1.504  10.510  0.6425 -1.9187 -0.3123
  490MOL0     H66130  11.070   1.538  10.711  0.6592  0.8084 -1.9030
  490MOL0     H66131  10.854   1.512  10.806  2.2613 -1.8081 -0.5988
  490MOL0     H66132  10.589   1.572  11.224  0.4535 -1.5804 -2.9751
  490MOL0     H66133  10.372   1.597  11.347 -0.3085 -0.0648 -0.3181
  490MOL0     H66134   8.713   1.155  10.129 -0.3493  0.0758  0.1415
  490MOL0     H66135   8.526   1.199  10.029  0.2967 -1.1542  1.8737
  490MOL0     H66136   8.422   1.480   9.616 -0.6686 -1.4425 -0.5275
  490MOL0     H66137   8.285   1.555   9.440 -3.9257 -0.6958 -2.4557
  490MOL0     H66138   8.122   1.600   9.254  0.4620  0.0888  0.7223
  490MOL0     H66139   8.155   1.728   9.362  3.2835 -3.3347 -3.5641
  490MOL0     H66140   7.905   1.802   9.334 -0.7045 -0.6695  0.4179
  490MOL0     H66141   7.896   1.677   9.216 -1.0104  2.4008  0.1427
  490MOL0     H66142   8.074   1.809   9.080  2.5182 -1.0513  1.5618
  490MOL0     H66143   8.085   1.928   9.212 -1.4269  1.4644 -2.0760
  490MOL0     H66144   7.949   2.001   9.024 -0.2251  0.6646  0.2927
  490MOL0     H66145   7.830   1.870   9.076 -1.5952  0.0223  2.8100
  490MOL0     H66146   7.733   2.206   9.311  0.8131 -0.3494  0.7176
  490MOL0     H66147   7.929   1.521   9.683 -0.5379 -1.9672  0.4840
  490MOL0     H66148   7.948   1.485   9.900  1.0637  0.7812 -2.1035
  490MOL0     H66149   8.026   1.319   9.896  1.9364  0.1115 -0.9951
  490MOL0     H66150   8.098   1.439   9.987  0.3232  0.3398 -0.5536
  491MOL0     O66151   1.788   9.426   6.777  0.8379 -0.1957  0.1743
  491MOL0     C66152   1.814   9.518   6.701 -1.8540 -0.2697 -0.1872
  491MOL0     O66153   1.948   9.564   6.673  0.3111  0.3581 -0.1525
  491MOL0     C66154   2.062   9.503   6.731 -0.1431 -0.2740 -0.2639
  491MOL0     C66155   2.077   9.419   6.843 -0.4598 -0.3443  0.4869
  491MOL0     C66156   2.202   9.392   6.891 -0.5660  0.3777  0.3174
  491MOL0     C66157   2.313   9.445   6.817  0.5851 -0.1799  0.2498
  491MOL0     O66158   2.441   9.429   6.859 -0.5650 -0.8870  0.1561
  491MOL0     C66159   2.479   9.394   6.988 -0.4480  0.5203  0.3500
  491MOL0     C66160   2.618   9.450   7.006 -0.4486 -0.2340  0.2151
  491MOL0     C66161   2.717   9.410   6.905 -0.2476  0.9829  0.1254
  491MOL0     C66162   2.738   9.255   6.907 -1.4097  0.5801 -0.3489
  491MOL0     C66163   2.896   9.223   6.917  1.6039  0.7373 -0.8345
  491MOL0     C66164   2.921   9.069   6.916 -0.8019 -0.2175 -0.0592
  491MOL0     C66165   3.046   9.014   6.978  0.4192  0.4047 -0.2830
  491MOL0     C66166   3.169   9.070   6.913 -0.3558 -0.3631 -0.1516
  491MOL0     N66167   3.282   9.048   7.008  0.7562  0.7310  0.3431
  491MOL0     C66168   3.291   9.093   7.139  0.5873  0.1820  0.3184
  491MOL0     C66169   3.396   9.035   7.196  0.0498 -0.2123  0.6739
  491MOL0     C66170   3.437   9.062   7.341  0.5607  0.2283  0.4610
  491MOL0     C66171   3.593   9.050   7.373  0.0513  0.4791  0.4168
  491MOL0     C66172   3.639   8.905   7.384  0.0450 -0.4571  0.8768
  491MOL0     C66173   3.779   8.901   7.442 -0.0793  0.3243  0.4716
  491MOL0     O66174   3.862   9.004   7.394 -0.0782  0.6966  0.3185
  491MOL0     C66175   4.003   8.989   7.415  0.7109  0.5595  0.2770
  491MOL0     C66176   4.072   9.014   7.297  0.2318 -0.7769 -0.2514
  491MOL0     C66177   4.212   8.997   7.295  0.1629 -0.5191  0.2716
  491MOL0     C66178   4.283   8.954   7.409  0.6724  1.0823 -0.4162
  491MOL0     C66179   4.431   8.934   7.402 -0.0600 -1.2082 -0.1373
  491MOL0     O66180   4.492   8.982   7.288 -0.1105 -0.1166  0.1107
  491MOL0     C66181   4.623   8.995   7.264  0.0041 -1.1152 -0.0082
  491MOL0     C66182   4.738   8.961   7.347  0.3900  0.6876 -0.2899
  491MOL0     C66183   4.862   8.985   7.297  0.0992  0.6601  0.0788
  491MOL0     C66184   4.887   9.030   7.169  0.2755  0.0665 -0.0796
  491MOL0     O66185   5.012   9.059   7.122  0.0427  0.0424  0.2038
  491MOL0     C66186   5.132   8.982   7.155  0.3444 -0.2438 -0.5484
  491MOL0     C66187   5.212   8.953   7.035  0.6431 -0.5716  0.0991
  491MOL0     C66188   5.282   9.084   6.998 -0.5541  0.1813 -0.1121
  491MOL0     C66189   5.370   9.067   6.871  0.3193  0.3177  0.4227
  491MOL0     C66190   5.450   9.194   6.840  0.0267 -0.6306 -0.2041
  491MOL0     C66191   5.367   9.318   6.845  0.5457  0.4136  0.5400
  491MOL0     C66192   5.454   9.439   6.814  0.0993 -0.9131 -0.1668
  491MOL0     C66193   5.383   9.566   6.853  0.4918  0.3951 -0.5911
  491MOL0    Cl66194   5.464   9.696   6.776  0.2827 -0.5723 -0.2563
  491MOL0     C66195   4.778   9.064   7.093  0.3825  0.4128  0.8542
  491MOL0     C66196   4.649   9.034   7.134 -0.0036 -0.9313 -0.7092
  491MOL0     O66197   4.482   8.882   7.496 -0.0311  0.2530  0.2157
  491MOL0     C66198   4.209   8.927   7.527  0.4095  0.1414 -0.0539
  491MOL0     C66199   4.071   8.945   7.532  1.3500  0.7453  0.0174
  491MOL0     N66200   3.459   8.955   7.103  0.5033 -0.2202  0.1711
  491MOL0     N66201   3.385   8.958   6.998  0.7825  0.4659  0.4179
  491MOL0     C66202   2.303   9.511   6.694  0.1272  0.0884  0.6676
  491MOL0     C66203   2.175   9.546   6.661  0.6041  0.7319  0.3378
  491MOL0     C66204   1.707   9.604   6.650  0.0154 -0.1702  0.4696
  491MOL0     C66205   1.735   9.743   6.655 -0.0489 -1.2666  0.6249
  491MOL0     C66206   1.636   9.830   6.610  1.1819  0.2610 -0.1845
  491MOL0     C66207   1.515   9.779   6.560  0.5815  0.4663  0.2985
  491MOL0     O66208   1.409   9.867   6.527 -0.8383  0.2563 -0.1927
  491MOL0     C66209   1.388   9.978   6.620  0.7955 -0.0411 -0.6091
  491MOL0     C66210   1.244  10.045   6.604 -0.9124 -0.8220  0.2543
  491MOL0     C66211   1.131   9.947   6.608 -0.0078  0.0135 -0.1963
  491MOL0     C66212   1.117   9.868   6.743 -0.9627  0.2170  0.5055
  491MOL0     C66213   1.142   9.950   6.856 -0.0339 -0.1977 -0.7050
  491MOL0     C66214   1.183  10.015   6.951 -0.2121  0.0065  1.0812
  491MOL0     C66215   1.489   9.644   6.553  0.8575  0.2542  0.3100
  491MOL0     C66216   1.585   9.549   6.593 -0.0404 -0.1244 -0.4777
  491MOL0     C66217   1.554   9.407   6.600 -0.8882  0.9790  0.3821
  491MOL0     H66218   1.986   9.381   6.888 -0.8757 -2.8495 -2.1796
  491MOL0     H66219   2.206   9.340   6.986  0.6714  1.0041  0.6292
  491MOL0     H66220   2.410   9.428   7.066  1.2110 -0.5574  2.3826
  491MOL0     H66221   2.481   9.284   6.993  0.2597  0.5370  0.4429
  491MOL0     H66222   2.657   9.408   7.100  2.1434 -0.7956 -1.0259
  491MOL0     H66223   2.624   9.559   7.014  1.2056 -0.3199  0.4075
  491MOL0     H66224   2.813   9.463   6.909  1.4287 -1.8363  0.2922
  491MOL0     H66225   2.682   9.435   6.804 -1.9920  1.5927  0.8456
  491MOL0     H66226   2.685   9.215   6.994  0.3779  0.0316  0.5554
  491MOL0     H66227   2.697   9.220   6.812  0.2672 -1.5816 -0.3516
  491MOL0     H66228   2.956   9.274   6.842  2.2910  0.2415 -0.6330
  491MOL0     H66229   2.923   9.258   7.017  1.1413 -4.3070  1.3503
  491MOL0     H66230   2.838   9.014   6.962 -1.1623 -0.4372 -0.9471
  491MOL0     H66231   2.906   9.045   6.810 -3.4816  0.1422  0.1524
  491MOL0     H66232   3.065   8.907   6.969  1.1134  0.3721  1.3361
  491MOL0     H66233   3.041   9.037   7.085 -2.4732  2.3746 -0.7239
  491MOL0     H66234   3.202   9.010   6.828 -1.6056 -2.0185  0.4782
  491MOL0     H66235   3.155   9.176   6.890 -1.0292 -0.0312  1.5975
  491MOL0     H66236   3.213   9.151   7.188 -1.1219 -0.4313 -1.5213
  491MOL0     H66237   3.405   9.164   7.364 -3.0963 -1.3690  3.5731
  491MOL0     H66238   3.375   9.000   7.406 -0.3786 -1.5630 -1.9985
  491MOL0     H66239   3.645   9.097   7.290 -1.2754  0.1301 -0.6488
  491MOL0     H66240   3.617   9.104   7.465  0.3576 -0.2423  0.7767
  491MOL0     H66241   3.642   8.854   7.287 -1.9022 -1.2312  1.1770
  491MOL0     H66242   3.560   8.859   7.443 -2.6216  0.0384 -2.0413
  491MOL0     H66243   3.824   8.803   7.422 -0.1523  0.5245 -0.6864
  491MOL0     H66244   3.776   8.907   7.552 -1.4070  0.5287  0.4412
  491MOL0     H66245   4.026   9.057   7.208  0.2102  1.0972  0.6239
  491MOL0     H66246   4.266   9.032   7.207  1.9777  1.0910  1.9294
  491MOL0     H66247   4.732   8.920   7.447  0.1042  2.7585  0.5944
  491MOL0     H66248   4.947   8.956   7.358 -1.0134 -1.2985  0.7720
  491MOL0     H66249   5.200   9.035   7.223  1.1347  0.5386 -1.8915
  491MOL0     H66250   5.103   8.888   7.202 -0.5693 -0.5346 -1.6766
  491MOL0     H66251   5.283   8.871   7.048 -0.0780 -1.5323 -1.6804
  491MOL0     H66252   5.147   8.913   6.957  0.5108 -3.4307  1.5580
  491MOL0     H66253   5.207   9.157   6.967 -0.7586  0.2842  0.6155
  491MOL0     H66254   5.341   9.129   7.079 -3.3987  2.7912  0.6856
  491MOL0     H66255   5.310   9.032   6.786  0.9532 -2.6721  1.0756
  491MOL0     H66256   5.432   8.979   6.890 -1.2403 -0.3693  2.7972
  491MOL0     H66257   5.496   9.191   6.741  0.0326  1.6289 -0.3169
  491MOL0     H66258   5.533   9.191   6.911 -0.5630 -0.0722  0.5266
  491MOL0     H66259   5.285   9.300   6.775 -0.9514 -0.8301  2.5175
  491MOL0     H66260   5.327   9.332   6.946 -3.1511 -3.2021 -0.1684
  491MOL0     H66261   5.483   9.460   6.711 -1.0161  2.5245  0.1012
  491MOL0     H66262   5.549   9.435   6.867  0.2200  0.4093 -0.2645
  491MOL0     H66263   5.276   9.565   6.834  0.3359 -2.6289  0.0302
  491MOL0     H66264   5.401   9.589   6.958  1.0277 -1.1875 -0.3068
  491MOL0     H66265   4.790   9.104   6.993 -0.8883 -2.6983 -0.6805
  491MOL0     H66266   4.568   9.060   7.066  0.5043 -2.1321 -1.8188
  491MOL0     H66267   4.254   8.885   7.616 -1.4324 -0.9349  0.4075
  491MOL0     H66268   4.021   8.933   7.627  2.8871  3.2010  1.2703
  491MOL0     H66269   2.384   9.559   6.640 -1.0539  3.4288  1.6656
  491MOL0     H66270   2.149   9.594   6.567  2.2254  0.3571 -0.3474
  491MOL0     H66271   1.834   9.785   6.671 -1.0446  1.7186 -0.2713
  491MOL0     H66272   1.642   9.938   6.596 -2.1434  0.4816 -0.7806
  491MOL0     H66273   1.453  10.064   6.601 -2.2137  2.4682 -0.4007
  491MOL0     H66274   1.404   9.935   6.720 -1.2983 -1.5822 -0.8832
  491MOL0     H66275   1.234  10.100   6.510 -1.4418  1.9753  1.8496
  491MOL0     H66276   1.223  10.114   6.686 -1.1541 -0.4480 -0.1172
  491MOL0     H66277   1.126   9.877   6.523 -0.1477  1.3614 -1.3444
  491MOL0     H66278   1.040  10.008   6.603  1.1890  2.1070  2.0330
  491MOL0     H66279   1.012   9.842   6.757 -0.6049 -0.4332  2.2433
  491MOL0     H66280   1.174   9.775   6.740 -2.6427 -0.8385  0.0873
  491MOL0     H66281   1.214  10.072   7.036 -0.2175 -1.1886  1.9092
  491MOL0     H66282   1.400   9.604   6.504  2.5930 -2.0902 -1.1561
  491MOL0     H66283   1.637   9.337   6.588 -2.2102 -0.1702 -4.1557
  491MOL0     H66284   1.514   9.385   6.699 -0.9474 -2.9602 -0.3837
  491MOL0     H66285   1.492   9.381   6.514  0.3437 -0.2060 -0.1811
  492MOL0     O66286   0.062  10.389   1.791 -0.6241 -0.1403 -0.0758
  492MOL0     C66287   0.034  10.502   1.752  1.0454 -1.2001  0.0827
  492MOL0     O66288   0.031  10.619   1.829 -0.5273  0.5323  1.0853
  492MOL0     C66289   0.104  10.606   1.946  0.3969 -0.4066  0.5382
  492MOL0     C66290   0.035  10.664   2.051 -0.0409 -0.2700 -0.2221
  492MOL0     C66291   0.095  10.676   2.175 -0.3385  0.4506 -0.0555
  492MOL0     C66292   0.231  10.640   2.186  0.0774  0.3703  0.4885
  492MOL0     O66293   0.303  10.654   2.303  0.2424 -0.4829 -0.5801
  492MOL0     C66294   0.234  10.673   2.428  0.6824  0.5509  0.4612
  492MOL0     C66295   0.349  10.672   2.538  0.8410  0.4610  0.2038
  492MOL0     C66296   0.432  10.800   2.526  0.3727  0.3373  0.3179
  492MOL0     C66297   0.550  10.812   2.617 -0.7240 -0.1178  0.9459
  492MOL0     C66298   0.610  10.964   2.609 -0.7914  0.2705 -1.0201
  492MOL0     C66299   0.738  10.970   2.691 -0.7530 -0.0818 -0.3500
  492MOL0     C66300   0.799  11.112   2.673 -0.9269  0.4841  0.4337
  492MOL0     C66301   0.944  11.110   2.734  0.7365 -0.3686  0.1353
  492MOL0     N66302   1.003  11.249   2.740  0.7980  0.4817  0.2738
  492MOL0     C66303   1.134  11.277   2.722 -0.3699  0.2098  0.6160
  492MOL0     C66304   1.154  11.402   2.767 -0.5426 -0.3250 -0.3489
  492MOL0     C66305   1.280  11.486   2.754 -0.0972  0.2423  0.1458
  492MOL0     C66306   1.382  11.436   2.852 -0.2353 -0.3183 -0.0413
  492MOL0     C66307   1.521  11.497   2.829  0.2023  0.4200 -0.2933
  492MOL0     C66308   1.610  11.514   2.957 -0.0385  0.4015  0.2098
  492MOL0     O66309   1.729  11.579   2.921 -0.4229 -0.1687  0.6543
  492MOL0     C66310   1.842  11.594   3.001  0.4399  0.9749  0.3180
  492MOL0     C66311   1.838  11.597   3.141 -0.7465 -0.2000 -0.1368
  492MOL0     C66312   1.962  11.609   3.213 -0.4720 -0.7485  0.0446
  492MOL0     C66313   2.084  11.618   3.141  0.2772 -0.0881  0.8961
  492MOL0     C66314   2.209  11.627   3.220  0.4088 -0.0106 -0.3701
  492MOL0     O66315   2.322  11.625   3.139  0.1571 -0.4441  0.1371
  492MOL0     C66316   2.452  11.646   3.182  0.8153 -1.0802  0.6309
  492MOL0     C66317   2.482  11.717   3.297 -0.5331  0.3237 -0.1881
  492MOL0     C66318   2.616  11.743   3.340  0.7615 -0.9343  0.7610
  492MOL0     C66319   2.726  11.684   3.277  0.4145  0.3989  0.7123
  492MOL0     O66320   2.852  11.714   3.316 -0.6321  0.8840 -0.0952
  492MOL0     C66321   2.965  11.627   3.281 -0.2039  0.0408 -0.4524
  492MOL0     C66322   3.077  11.635   3.385  0.0933 -0.5026 -0.2942
  492MOL0     C66323   3.213  11.618   3.325 -0.8835 -0.2260 -0.1529
  492MOL0     C66324   3.328  11.638   3.433  0.1553  0.3552 -0.0667
  492MOL0     C66325   3.462  11.661   3.371  0.1667  0.1648 -0.4219
  492MOL0     C66326   3.570  11.696   3.463 -0.7466 -0.4904 -0.2341
  492MOL0     C66327   3.719  11.692   3.404  0.4126 -0.9859  0.1057
  492MOL0     C66328   3.746  11.835   3.349 -0.7455  0.7147 -0.2732
  492MOL0    Cl66329   3.888  11.809   3.246 -0.2978  0.8135  0.3168
  492MOL0     C66330   2.699  11.594   3.163 -0.5042  0.0528 -0.6849
  492MOL0     C66331   2.562  11.584   3.114  0.9037 -0.2352 -0.6107
  492MOL0     O66332   2.199  11.641   3.342 -0.8673  0.1758 -0.0925
  492MOL0     C66333   2.077  11.618   3.005  0.5498  0.3447  0.8581
  492MOL0     C66334   1.957  11.613   2.936  0.0794  0.1990  0.5674
  492MOL0     N66335   1.041  11.452   2.816 -0.7073  0.4743 -0.6992
  492MOL0     N66336   0.945  11.362   2.799 -0.0987  0.6160  0.1271
  492MOL0     C66337   0.300  10.589   2.081 -0.1039 -0.2319 -0.0098
  492MOL0     C66338   0.236  10.567   1.955  0.2132  0.0775 -0.7310
  492MOL0     C66339  -0.032  10.522   1.618  0.3071 -0.1682 -0.0258
  492MOL0     C66340  -0.104  10.643   1.592  0.2402  0.1069  0.1979
  492MOL0     C66341  -0.143  10.696   1.461  0.2426  0.6493  0.2865
  492MOL0     C66342  -0.132  10.606   1.354 -0.2073 -0.0200 -0.3373
  492MOL0     O66343  -0.154  10.660   1.231  0.4813  0.4376  1.0650
  492MOL0     C66344  -0.284  10.721   1.192  0.1814 -0.7837  1.2983
  492MOL0     C66345  -0.291  10.708   1.036  0.2041 -0.1325 -0.0220
  492MOL0     C66346  -0.293  10.562   0.991  0.6019 -0.3371 -0.2604
  492MOL0     C66347  -0.335  10.553   0.847  0.0702 -0.3103  0.2134
  492MOL0     C66348  -0.258  10.639   0.753 -0.5001  0.1800 -0.7402
  492MOL0     C66349  -0.199  10.694   0.669 -0.5160 -0.5536  0.3587
  492MOL0     C66350  -0.057  10.486   1.373 -0.2339 -0.6865  0.3269
  492MOL0     C66351  -0.007  10.450   1.500  0.0307 -0.5360 -0.0616
  492MOL0     C66352   0.084  10.322   1.510  0.7447  0.1737  1.4776
  492MOL0     H66353  -0.065  10.706   2.050  1.3090  3.3199  0.0576
  492MOL0     H66354   0.039  10.704   2.264 -1.3243  2.8940 -1.3493
  492MOL0     H66355   0.188  10.772   2.433 -1.9880 -0.5431 -0.6472
  492MOL0     H66356   0.165  10.589   2.442  2.1955 -0.3069  3.7232
  492MOL0     H66357   0.411  10.583   2.525 -1.5399 -0.9255 -2.9770
  492MOL0     H66358   0.299  10.658   2.634  3.3113 -1.7059  1.2821
  492MOL0     H66359   0.359  10.882   2.535 -0.4285 -0.2524 -0.5773
  492MOL0     H66360   0.475  10.811   2.426  0.4025 -3.8168 -0.2884
  492MOL0     H66361   0.518  10.795   2.720  0.2325 -1.1417  1.0901
  492MOL0     H66362   0.612  10.732   2.576  0.3671  1.1366  0.0513
  492MOL0     H66363   0.626  10.995   2.505 -0.0791  0.2353 -0.9229
  492MOL0     H66364   0.544  11.036   2.658  0.8016  0.8062  0.4385
  492MOL0     H66365   0.711  10.960   2.796  5.7864 -0.6319  1.7174
  492MOL0     H66366   0.806  10.885   2.677 -1.2281 -0.8268  1.4935
  492MOL0     H66367   0.735  11.185   2.723  1.1803  3.0693 -0.4257
  492MOL0     H66368   0.812  11.139   2.568  0.9419 -0.3752  0.3984
  492MOL0     H66369   0.943  11.063   2.833  0.4899  0.2653  0.4416
  492MOL0     H66370   1.010  11.047   2.675  1.8147  2.0197 -1.3408
  492MOL0     H66371   1.209  11.213   2.676 -2.2106 -0.5769 -1.4799
  492MOL0     H66372   1.319  11.475   2.652  3.3725  3.6058  0.8424
  492MOL0     H66373   1.243  11.588   2.767 -3.0246 -0.7879  0.5700
  492MOL0     H66374   1.356  11.471   2.952  0.2670 -2.2385  0.8249
  492MOL0     H66375   1.394  11.327   2.862 -2.8317 -0.6021  0.7591
  492MOL0     H66376   1.500  11.601   2.805 -2.8997 -0.4878 -2.0843
  492MOL0     H66377   1.568  11.440   2.748 -0.0984  2.7123 -2.1971
  492MOL0     H66378   1.640  11.415   2.991  1.2826  0.4871 -0.6172
  492MOL0     H66379   1.561  11.570   3.037 -2.2669  0.4622 -1.1266
  492MOL0     H66380   1.745  11.574   3.191  0.3886 -1.0504  1.6806
  492MOL0     H66381   1.953  11.612   3.321 -2.4620 -1.1842 -0.0555
  492MOL0     H66382   2.397  11.769   3.341  0.0228  1.0447  0.0510
  492MOL0     H66383   2.630  11.802   3.429 -0.0798 -2.6742  2.1179
  492MOL0     H66384   2.936  11.522   3.279 -0.6729  0.1610 -0.1523
  492MOL0     H66385   3.007  11.661   3.186  1.6703 -0.2361  0.2223
  492MOL0     H66386   3.065  11.734   3.431 -0.4138 -0.6923 -0.0175
  492MOL0     H66387   3.070  11.552   3.455  1.3020 -2.3094 -2.1975
  492MOL0     H66388   3.224  11.514   3.293  1.0473 -0.0209 -0.2499
  492MOL0     H66389   3.225  11.680   3.235  1.5940  1.8458  1.4433
  492MOL0     H66390   3.332  11.554   3.503  1.4244  1.2411  0.9719
  492MOL0     H66391   3.300  11.726   3.492 -1.2827  0.8844 -1.4405
  492MOL0     H66392   3.451  11.736   3.292  2.4991 -1.3303 -2.3255
  492MOL0     H66393   3.482  11.571   3.312  1.9363 -1.1521  1.9816
  492MOL0     H66394   3.553  11.791   3.515  2.7845 -0.3567  0.9924
  492MOL0     H66395   3.572  11.626   3.547 -0.8112  1.4976  1.4997
  492MOL0     H66396   3.730  11.626   3.317  1.0068 -0.0974 -0.5140
  492MOL0     H66397   3.785  11.657   3.484  1.5388  0.4781 -0.1327
  492MOL0     H66398   3.667  11.878   3.285 -3.4807  0.9369  2.9787
  492MOL0     H66399   3.777  11.907   3.425 -1.1644  2.0763 -1.3376
  492MOL0     H66400   2.776  11.542   3.108  1.4321 -1.2458  2.9307
  492MOL0     H66401   2.539  11.522   3.029  0.3255 -0.4924 -0.2706
  492MOL0     H66402   2.171  11.630   2.951  0.5197  2.2813  1.1966
  492MOL0     H66403   1.968  11.632   2.830 -0.6341  2.1590  0.8044
  492MOL0     H66404   0.397  10.541   2.092 -0.1133  0.0365  1.3160
  492MOL0     H66405   0.278  10.518   1.868  0.8473 -2.6124  0.9439
  492MOL0     H66406  -0.133  10.700   1.680 -0.0169  1.6161 -0.8294
  492MOL0     H66407  -0.173  10.799   1.444 -0.5625  0.3855  0.1174
  492MOL0     H66408  -0.280  10.826   1.221  1.5762 -0.8162  1.2932
  492MOL0     H66409  -0.369  10.673   1.242 -1.7703  1.1790  0.0775
  492MOL0     H66410  -0.199  10.754   0.997  1.0669 -1.3323  0.5206
  492MOL0     H66411  -0.372  10.772   0.999  1.1884  0.8169 -0.5922
  492MOL0     H66412  -0.360  10.493   1.044 -1.5023  0.1809 -2.0836
  492MOL0     H66413  -0.190  10.525   0.997  0.5374 -1.0022 -2.4603
  492MOL0     H66414  -0.328  10.449   0.815  0.3214 -0.1219 -0.3573
  492MOL0     H66415  -0.439  10.582   0.833 -0.4748 -2.2885 -0.1323
  492MOL0     H66416  -0.153  10.739   0.584  0.4204 -0.3278  0.9575
  492MOL0     H66417  -0.029  10.415   1.296  0.2303  1.4822 -1.6544
  492MOL0     H66418   0.081  10.283   1.408 -0.8214  2.3748  0.5949
  492MOL0     H66419   0.190  10.337   1.531  1.0574  0.9340 -0.4398
  492MOL0     H66420   0.050  10.233   1.564  1.7751 -1.2254 -0.0847
  493MOL0     O66421   0.009   9.125   8.218  0.2115  0.1392 -0.5095
  493MOL0     C66422  -0.066   9.168   8.308 -0.7762 -0.7392 -0.9403
  493MOL0     O66423  -0.036   9.284   8.385  0.0527  0.8211  0.0197
  493MOL0     C66424   0.077   9.355   8.359 -0.1673 -0.5327  0.1850
  493MOL0     C66425   0.214   9.310   8.343  0.3927 -1.0633  0.3658
  493MOL0     C66426   0.317   9.398   8.311 -0.1493  0.0723  0.4158
  493MOL0     C66427   0.288   9.528   8.281  1.4229 -0.5949  0.2433
  493MOL0     O66428   0.386   9.608   8.246  0.5544  0.6900  0.0392
  493MOL0     C66429   0.468   9.567   8.124  0.4079  0.3712 -0.4133
  493MOL0     C66430   0.506   9.687   8.047 -0.2251 -0.2317  0.4158
  493MOL0     C66431   0.599   9.687   7.929 -0.3058 -0.0551  0.2224
  493MOL0     C66432   0.747   9.713   7.971 -0.7494  1.0390  0.1543
  493MOL0     C66433   0.819   9.724   7.839  0.9054 -0.7199  0.3664
  493MOL0     C66434   0.805   9.595   7.751  0.1310  0.3515  0.6651
  493MOL0     C66435   0.901   9.591   7.633 -0.5694 -0.0788  0.5743
  493MOL0     C66436   1.037   9.526   7.676  0.3072 -0.0451 -0.2441
  493MOL0     N66437   1.143   9.617   7.612  0.6980  0.5259 -0.0463
  493MOL0     C66438   1.228   9.570   7.514  0.0200 -0.8224 -0.8465
  493MOL0     C66439   1.336   9.652   7.517  0.7076 -0.4644 -0.4553
  493MOL0     C66440   1.456   9.650   7.428  0.4410 -0.7508 -0.2861
  493MOL0     C66441   1.554   9.536   7.463 -0.6909 -0.4211 -0.0583
  493MOL0     C66442   1.707   9.553   7.428 -0.8792 -0.6537 -0.3171
  493MOL0     C66443   1.779   9.425   7.436  0.1411 -0.0092 -0.5439
  493MOL0     O66444   1.916   9.450   7.399 -0.0347  0.1405 -0.0538
  493MOL0     C66445   2.006   9.345   7.383  0.5222 -0.1472 -0.9746
  493MOL0     C66446   2.115   9.373   7.300 -0.5021  0.5740  0.4436
  493MOL0     C66447   2.210   9.267   7.283 -0.5727 -0.2778  0.3615
  493MOL0     C66448   2.184   9.141   7.337  1.0786  0.2677  0.5039
  493MOL0     C66449   2.271   9.034   7.302 -1.2883  0.3515  0.1397
  493MOL0     O66450   2.236   8.905   7.327  0.1390 -0.6895 -0.0364
  493MOL0     C66451   2.332   8.810   7.317  0.3002  0.0628 -0.1886
  493MOL0     C66452   2.453   8.820   7.394  0.0291 -0.0509 -0.0465
  493MOL0     C66453   2.551   8.728   7.382 -0.4831  0.0687 -0.3494
  493MOL0     C66454   2.536   8.605   7.308 -0.6821 -0.9734 -0.2630
  493MOL0     O66455   2.613   8.494   7.308 -0.5170  0.2018  0.7416
  493MOL0     C66456   2.733   8.497   7.389 -0.2445 -1.0958  0.4392
  493MOL0     C66457   2.796   8.361   7.406  0.3875 -0.1614 -0.3783
  493MOL0     C66458   2.933   8.354   7.473  0.5128 -0.5997 -1.1837
  493MOL0     C66459   2.974   8.218   7.523  0.5007  0.6951  0.0788
  493MOL0     C66460   2.946   8.106   7.430 -0.4087  0.1128 -0.1607
  493MOL0     C66461   3.030   8.105   7.301 -0.3894  0.8722 -0.6691
  493MOL0     C66462   3.182   8.096   7.312  0.1915 -1.8460 -0.7843
  493MOL0     C66463   3.221   7.971   7.374  0.1973  0.3785  0.0992
  493MOL0    Cl66464   3.242   7.968   7.547  0.0420  0.3364  0.4342
  493MOL0     C66465   2.417   8.593   7.234 -0.6025  0.4163 -0.2270
  493MOL0     C66466   2.320   8.693   7.234  0.7204 -0.7472 -1.7237
  493MOL0     O66467   2.385   9.072   7.272 -0.5905  0.8010 -0.5383
  493MOL0     C66468   2.074   9.121   7.419  0.4032  0.3435  0.4161
  493MOL0     C66469   1.989   9.221   7.451 -0.2060  0.1278 -0.0178
  493MOL0     N66470   1.305   9.749   7.611 -0.2303  0.0121 -0.0084
  493MOL0     N66471   1.194   9.725   7.658 -0.3760  0.3625 -0.2161
  493MOL0     C66472   0.161   9.580   8.310 -0.4554 -0.4755 -0.5730
  493MOL0     C66473   0.059   9.493   8.349 -0.4489  0.8037 -0.0168
  493MOL0     C66474  -0.177   9.084   8.354 -0.5425 -0.3040  0.0081
  493MOL0     C66475  -0.240   9.004   8.256  0.1197  0.2919  0.7648
  493MOL0     C66476  -0.329   8.909   8.282  0.2067  0.4511  0.2697
  493MOL0     C66477  -0.366   8.887   8.410  0.3229 -0.2911 -0.5694
  493MOL0     O66478  -0.462   8.781   8.425 -0.6097 -0.0703  0.8671
  493MOL0     C66479  -0.498   8.714   8.548 -0.5173 -0.0323  0.1481
  493MOL0     C66480  -0.372   8.651   8.628 -0.5568 -0.3067  0.0128
  493MOL0     C66481  -0.287   8.553   8.539  0.1875  0.1616  0.0696
  493MOL0     C66482  -0.255   8.418   8.599  0.1351  0.2875 -0.4535
  493MOL0     C66483  -0.152   8.429   8.701 -0.2079  0.0956 -0.1997
  493MOL0     C66484  -0.061   8.445   8.781  0.5136  0.0058 -0.7563
  493MOL0     C66485  -0.306   8.958   8.521  0.4259 -1.0861  1.6432
  493MOL0     C66486  -0.220   9.065   8.490  0.0344 -0.3106 -1.4783
  493MOL0     C66487  -0.164   9.147   8.598 -0.7079  0.4885 -0.1825
  493MOL0     H66488   0.241   9.206   8.353  0.1749 -0.8847  4.4521
  493MOL0     H66489   0.421   9.369   8.319  0.8774  2.5257 -2.2392
  493MOL0     H66490   0.561   9.514   8.150  1.3620  1.3346 -1.7401
  493MOL0     H66491   0.417   9.492   8.063  1.0332 -1.4168  1.1621
  493MOL0     H66492   0.555   9.750   8.122 -0.0398  0.7519 -0.5154
  493MOL0     H66493   0.407   9.725   8.021 -1.6628 -3.8499  0.0627
  493MOL0     H66494   0.567   9.775   7.872  0.6192  0.7286  0.8783
  493MOL0     H66495   0.576   9.601   7.866  0.3732  2.3303 -3.5935
  493MOL0     H66496   0.757   9.800   8.035 -2.6024  0.2854  1.5552
  493MOL0     H66497   0.779   9.624   8.027  1.3544  1.0051 -0.9898
  493MOL0     H66498   0.795   9.818   7.789  2.9846 -0.6184 -0.5526
  493MOL0     H66499   0.926   9.739   7.856  0.7918  0.6122  0.0033
  493MOL0     H66500   0.825   9.511   7.819  2.3310  1.1962  1.1583
  493MOL0     H66501   0.706   9.583   7.708 -0.1821  2.4645  0.6846
  493MOL0     H66502   0.933   9.690   7.599  5.0795 -1.1495  1.6606
  493MOL0     H66503   0.852   9.539   7.549 -5.1510  0.2241  2.7604
  493MOL0     H66504   1.045   9.539   7.784 -0.9178  0.1236 -0.1672
  493MOL0     H66505   1.045   9.427   7.630 -1.3390 -0.2946 -0.0405
  493MOL0     H66506   1.219   9.479   7.457  1.2907 -2.2407  1.0909
  493MOL0     H66507   1.426   9.644   7.323 -1.5901  0.4365  0.1888
  493MOL0     H66508   1.505   9.746   7.446 -0.1510 -0.9448  2.8153
  493MOL0     H66509   1.553   9.519   7.571  1.3020 -0.8190 -0.0749
  493MOL0     H66510   1.529   9.438   7.421  1.6499 -0.9923 -0.2476
  493MOL0     H66511   1.745   9.622   7.505 -1.1935 -0.4704 -0.3263
  493MOL0     H66512   1.718   9.597   7.328  1.7555  0.9750  0.5866
  493MOL0     H66513   1.733   9.349   7.372  1.6346 -1.6735  0.2819
  493MOL0     H66514   1.773   9.394   7.541  3.9750  1.5867  0.3227
  493MOL0     H66515   2.128   9.473   7.258 -1.1863  1.1794  1.5998
  493MOL0     H66516   2.305   9.289   7.234  0.9537  2.3500  4.0237
  493MOL0     H66517   2.462   8.897   7.469 -3.5112 -0.0822  0.5972
  493MOL0     H66518   2.652   8.731   7.423 -0.6075 -2.5903  0.3416
  493MOL0     H66519   2.806   8.558   7.334 -3.4292  1.6445 -1.1153
  493MOL0     H66520   2.718   8.539   7.488 -3.9419 -3.7886  1.2312
  493MOL0     H66521   2.720   8.309   7.467 -0.7940 -0.6853 -2.2226
  493MOL0     H66522   2.793   8.314   7.307 -0.0842  2.5185 -1.7141
  493MOL0     H66523   3.017   8.393   7.414  1.8584  0.2814  1.2119
  493MOL0     H66524   2.924   8.420   7.559 -0.0224  0.3242 -1.9299
  493MOL0     H66525   2.920   8.192   7.615  3.3711 -0.0136  1.6851
  493MOL0     H66526   3.080   8.227   7.546  0.7171 -0.4869 -0.3834
  493MOL0     H66527   2.840   8.099   7.402 -0.1842 -1.0651 -0.7620
  493MOL0     H66528   2.967   8.015   7.487 -2.7380 -0.4345 -0.0597
  493MOL0     H66529   3.006   8.016   7.242 -2.4724  0.8996  0.0699
  493MOL0     H66530   3.000   8.185   7.233 -1.3728  0.1907 -1.0625
  493MOL0     H66531   3.223   8.184   7.362 -2.7939 -0.8814  0.1650
  493MOL0     H66532   3.214   8.104   7.207  1.3235 -1.7469 -0.4524
  493MOL0     H66533   3.143   7.898   7.354  2.6410 -2.4200  0.0780
  493MOL0     H66534   3.309   7.924   7.329  0.1809  1.8381 -1.5754
  493MOL0     H66535   2.402   8.503   7.175  0.3739 -1.0200  1.6010
  493MOL0     H66536   2.235   8.687   7.167 -1.0158 -2.1594  0.4352
  493MOL0     H66537   2.049   9.021   7.451 -0.9092  0.4445 -0.2449
  493MOL0     H66538   1.898   9.208   7.509  0.5511  2.7001  1.8898
  493MOL0     H66539   0.137   9.685   8.298  0.7914  0.3738  3.1013
  493MOL0     H66540  -0.036   9.543   8.369 -0.7940  0.7830 -1.4740
  493MOL0     H66541  -0.224   9.024   8.151 -2.9784  1.1429  0.3455
  493MOL0     H66542  -0.369   8.846   8.203 -0.1210  0.2925  0.5633
  493MOL0     H66543  -0.569   8.633   8.532  0.2361 -1.3784  2.8370
  493MOL0     H66544  -0.543   8.781   8.621  0.8894  1.7125 -0.5128
  493MOL0     H66545  -0.399   8.598   8.720 -0.1221 -0.4665  0.0505
  493MOL0     H66546  -0.300   8.725   8.665 -1.5509  0.0407  1.3304
  493MOL0     H66547  -0.194   8.596   8.501 -0.0453  0.4714 -0.1477
  493MOL0     H66548  -0.347   8.522   8.453  1.2232 -1.3762 -0.1427
  493MOL0     H66549  -0.345   8.369   8.637 -1.6339  4.6990  1.7128
  493MOL0     H66550  -0.206   8.362   8.519 -1.5264  0.9139 -1.9787
  493MOL0     H66551   0.016   8.469   8.851 -1.2028 -3.8432  2.9618
  493MOL0     H66552  -0.333   8.918   8.619 -2.4131 -0.5246  1.1984
  493MOL0     H66553  -0.055   9.152   8.590 -0.7374  1.1209 -0.2687
  493MOL0     H66554  -0.211   9.246   8.603 -1.6614 -0.0017  2.3708
  493MOL0     H66555  -0.179   9.096   8.694  1.0017 -3.0734 -1.6136
  494MOL0     O66556   4.306   5.740   2.389 -0.0280 -0.1271 -0.5505
  494MOL0     C66557   4.430   5.756   2.414  1.0110  0.6339 -0.6426
  494MOL0     O66558   4.527   5.674   2.358 -0.4775 -1.3069 -0.4233
  494MOL0     C66559   4.514   5.659   2.222 -0.4349 -0.0937 -1.0595
  494MOL0     C66560   4.577   5.751   2.144  0.1006  0.1781  0.1568
  494MOL0     C66561   4.570   5.750   2.010  0.2176 -0.6807  1.2817
  494MOL0     C66562   4.498   5.650   1.946  0.1447  0.6206  0.0280
  494MOL0     O66563   4.479   5.642   1.809 -0.7166 -0.2193  0.3554
  494MOL0     C66564   4.556   5.732   1.727 -0.5679  0.6597  0.6387
  494MOL0     C66565   4.577   5.702   1.575  0.8723  0.4445  0.0426
  494MOL0     C66566   4.692   5.780   1.507  0.1624  1.3820  0.9211
  494MOL0     C66567   4.832   5.712   1.499 -0.1824 -0.1211 -0.2128
  494MOL0     C66568   4.938   5.826   1.501 -0.2688  0.8683  0.5267
  494MOL0     C66569   5.077   5.771   1.469  0.8030  0.0337  0.9336
  494MOL0     C66570   5.122   5.639   1.543 -0.1915  0.0159 -0.2917
  494MOL0     C66571   5.261   5.587   1.507 -0.1185 -0.5540 -0.0775
  494MOL0     N66572   5.357   5.665   1.584  0.0422 -0.6696 -0.7734
  494MOL0     C66573   5.376   5.671   1.722 -0.3955 -0.0521  0.3425
  494MOL0     C66574   5.496   5.734   1.738  0.8183 -0.4237 -0.2158
  494MOL0     C66575   5.578   5.742   1.858 -0.2238 -0.2300  0.2410
  494MOL0     C66576   5.684   5.618   1.864  0.4354 -0.1188 -0.7383
  494MOL0     C66577   5.781   5.617   1.991 -0.5084  0.9876 -0.1526
  494MOL0     C66578   5.827   5.743   2.059 -0.0438  0.0543  0.3026
  494MOL0     O66579   5.906   5.704   2.174 -0.1008  0.2397  0.2027
  494MOL0     C66580   6.041   5.705   2.150 -0.4070 -0.4693  0.0544
  494MOL0     C66581   6.097   5.814   2.101 -0.4011 -0.2598  0.6017
  494MOL0     C66582   6.241   5.818   2.066 -0.4748  1.5020 -0.4729
  494MOL0     C66583   6.324   5.711   2.108 -0.5411 -1.1561  0.4494
  494MOL0     C66584   6.471   5.730   2.106 -0.0887 -0.4461  0.0867
  494MOL0     O66585   6.521   5.825   2.027 -0.1083 -0.5593  0.1251
  494MOL0     C66586   6.660   5.835   2.004 -0.1701  0.6285 -0.3233
  494MOL0     C66587   6.755   5.806   2.107 -0.5779  0.3113  0.2721
  494MOL0     C66588   6.895   5.814   2.077 -0.5991  0.0473  0.2032
  494MOL0     C66589   6.938   5.846   1.948 -1.0157  0.0494  0.0527
  494MOL0     O66590   7.071   5.857   1.911  0.2438  0.3533 -0.6404
  494MOL0     C66591   7.159   5.754   1.962  0.3535  0.7150 -0.4683
  494MOL0     C66592   7.300   5.752   1.896  0.0813 -0.2025  0.3603
  494MOL0     C66593   7.300   5.656   1.778  0.7145 -0.1642  0.1253
  494MOL0     C66594   7.446   5.655   1.727  0.6521  0.3300 -0.2310
  494MOL0     C66595   7.482   5.556   1.613  0.1472 -0.4929 -0.1706
  494MOL0     C66596   7.385   5.544   1.495 -0.0240 -0.3802  0.4928
  494MOL0     C66597   7.438   5.448   1.387  0.1422  1.1330 -0.1165
  494MOL0     C66598   7.416   5.307   1.423  0.5695  0.1577  0.0802
  494MOL0    Cl66599   7.490   5.191   1.314  0.6730  0.1701  0.2602
  494MOL0     C66600   6.843   5.867   1.838 -0.2415  0.9427 -0.2757
  494MOL0     C66601   6.706   5.862   1.872  1.0462  0.3391 -1.3147
  494MOL0     O66602   6.536   5.653   2.178  0.5002  0.4221 -0.0324
  494MOL0     C66603   6.259   5.597   2.163 -0.2515  0.5484 -0.5493
  494MOL0     C66604   6.120   5.589   2.174 -0.4262 -0.7288  0.1550
  494MOL0     N66605   5.549   5.781   1.620  0.5175  0.8338  0.2108
  494MOL0     N66606   5.460   5.740   1.533 -0.1993 -0.6324  0.7370
  494MOL0     C66607   4.429   5.562   2.027  0.0477  0.1096  0.5363
  494MOL0     C66608   4.440   5.554   2.166 -0.2447 -1.0478 -0.3952
  494MOL0     C66609   4.464   5.847   2.529 -0.0640  0.2249  0.1988
  494MOL0     C66610   4.596   5.891   2.538 -0.6498 -0.2720  0.4322
  494MOL0     C66611   4.639   5.972   2.639  0.5349 -2.1979 -0.1825
  494MOL0     C66612   4.545   6.033   2.723 -0.3336  0.0503 -0.9409
  494MOL0     O66613   4.584   6.122   2.822 -0.0205  0.2996 -0.5710
  494MOL0     C66614   4.511   6.252   2.815 -0.4601  0.9234 -0.0644
  494MOL0     C66615   4.595   6.375   2.842  0.5484  0.8355  0.6599
  494MOL0     C66616   4.691   6.388   2.717  0.3251  0.0602  0.6725
  494MOL0     C66617   4.799   6.470   2.779 -0.5467 -0.0502 -0.2894
  494MOL0     C66618   4.920   6.493   2.691  0.2772 -0.8337 -0.2578
  494MOL0     C66619   5.016   6.530   2.629  0.8187  0.3850  0.2177
  494MOL0     C66620   4.409   5.988   2.725 -0.6312  0.5028  0.2109
  494MOL0     C66621   4.370   5.896   2.628 -0.2886  0.1100  0.6131
  494MOL0     C66622   4.222   5.857   2.642  0.0519  0.2637 -0.5164
  494MOL0     H66623   4.625   5.837   2.190 -3.0008  2.9527 -1.3713
  494MOL0     H66624   4.610   5.834   1.955 -1.3289 -0.5580  0.2727
  494MOL0     H66625   4.513   5.832   1.740  0.4369  0.8070  3.4585
  494MOL0     H66626   4.657   5.741   1.768 -0.3043 -0.4377  0.2522
  494MOL0     H66627   4.478   5.707   1.527  2.0008 -2.4647 -2.9525
  494MOL0     H66628   4.599   5.597   1.553 -0.2520  0.1285  0.3447
  494MOL0     H66629   4.706   5.877   1.556  3.8048  2.3078 -1.5367
  494MOL0     H66630   4.663   5.798   1.404 -2.5493 -0.9897  1.1204
  494MOL0     H66631   4.859   5.634   1.571 -2.8720  0.5151  1.6269
  494MOL0     H66632   4.825   5.648   1.410  0.2631 -1.6645  0.8114
  494MOL0     H66633   4.913   5.908   1.434 -1.5345  0.2830  0.2446
  494MOL0     H66634   4.944   5.880   1.596  0.0221  0.4156  0.7684
  494MOL0     H66635   5.070   5.750   1.362 -0.2730 -1.1582  1.2185
  494MOL0     H66636   5.154   5.847   1.486  1.1025 -0.1994  0.6488
  494MOL0     H66637   5.054   5.556   1.520  0.9073 -0.0592 -3.8911
  494MOL0     H66638   5.112   5.668   1.647 -1.2968 -0.3421 -0.2851
  494MOL0     H66639   5.278   5.483   1.537  4.0019 -0.5731 -1.7744
  494MOL0     H66640   5.281   5.597   1.400 -1.0279 -0.3102 -0.2324
  494MOL0     H66641   5.314   5.621   1.796 -0.6538 -0.0902  0.1068
  494MOL0     H66642   5.634   5.836   1.858  0.1510 -0.3503 -2.4831
  494MOL0     H66643   5.508   5.752   1.941 -1.9283 -2.9027 -0.7260
  494MOL0     H66644   5.627   5.525   1.869  0.1843  0.0881  1.4743
  494MOL0     H66645   5.749   5.608   1.777  2.0892  1.1041  0.2709
  494MOL0     H66646   5.873   5.561   1.970  0.1365  0.1806  3.8607
  494MOL0     H66647   5.726   5.566   2.071  3.2991 -0.2735  1.9715
  494MOL0     H66648   5.741   5.798   2.098 -1.5712 -1.2654 -1.0404
  494MOL0     H66649   5.877   5.800   1.981 -3.3010 -0.2160 -2.1957
  494MOL0     H66650   6.027   5.893   2.075 -0.1973  1.0439  3.6466
  494MOL0     H66651   6.284   5.901   2.012 -0.8810  2.8658  1.2288
  494MOL0     H66652   6.732   5.785   2.211  2.6871 -1.5134  0.7588
  494MOL0     H66653   6.968   5.804   2.156  0.8202  0.6215 -0.9790
  494MOL0     H66654   7.185   5.772   2.067  2.6050  3.5802 -1.3682
  494MOL0     H66655   7.108   5.660   1.941  0.6957  0.5267 -0.4524
  494MOL0     H66656   7.334   5.854   1.873  0.1038 -0.0882  0.8844
  494MOL0     H66657   7.379   5.720   1.965  1.8830  0.1034 -1.4747
  494MOL0     H66658   7.271   5.555   1.808 -1.0393  0.8281  2.0975
  494MOL0     H66659   7.224   5.682   1.704 -1.3751 -1.3379  1.7378
  494MOL0     H66660   7.524   5.627   1.799  1.2143 -2.4689 -1.8036
  494MOL0     H66661   7.456   5.753   1.679 -0.1340  0.1652 -0.7398
  494MOL0     H66662   7.491   5.461   1.667  0.1331 -0.6227 -0.3964
  494MOL0     H66663   7.586   5.570   1.581  0.8573 -1.6094  1.5165
  494MOL0     H66664   7.287   5.512   1.533 -0.6409 -2.6484 -2.6020
  494MOL0     H66665   7.365   5.643   1.452  3.9679  0.2088 -0.4024
  494MOL0     H66666   7.546   5.460   1.376  0.4717  0.1300  1.6267
  494MOL0     H66667   7.392   5.480   1.293 -1.4352 -0.1492  0.1821
  494MOL0     H66668   7.460   5.283   1.520 -0.2573  2.3529  1.0773
  494MOL0     H66669   7.310   5.284   1.435  0.6161  0.0468  0.2853
  494MOL0     H66670   6.872   5.895   1.737 -1.8425  1.6242 -0.5766
  494MOL0     H66671   6.636   5.883   1.792 -0.5204  1.0201  0.1783
  494MOL0     H66672   6.309   5.507   2.196 -2.9572 -1.1853 -0.8170
  494MOL0     H66673   6.074   5.500   2.215 -3.8419  1.0939  0.6455
  494MOL0     H66674   4.349   5.510   1.975 -0.7683  2.3518 -0.5567
  494MOL0     H66675   4.388   5.482   2.228  1.6450 -0.8611  1.5259
  494MOL0     H66676   4.663   5.848   2.465 -2.5243 -1.2143 -0.8291
  494MOL0     H66677   4.741   6.008   2.642  0.4210 -1.4741 -2.5296
  494MOL0     H66678   4.439   6.249   2.897  1.0467 -0.8437  1.2674
  494MOL0     H66679   4.453   6.272   2.724 -2.2490 -1.5053  0.4572
  494MOL0     H66680   4.659   6.374   2.930  3.8769  0.2856 -1.5829
  494MOL0     H66681   4.525   6.459   2.851  1.2814  1.9048 -2.2958
  494MOL0     H66682   4.644   6.453   2.643  2.4566  3.2809  1.8983
  494MOL0     H66683   4.728   6.292   2.682  1.5941  0.4660  0.8315
  494MOL0     H66684   4.765   6.572   2.802 -0.6401  0.0914 -1.0320
  494MOL0     H66685   4.835   6.425   2.872 -0.8585  0.8016  0.2578
  494MOL0     H66686   5.082   6.582   2.562 -0.7342  1.6563 -0.4151
  494MOL0     H66687   4.337   6.035   2.790  0.3864  2.0658  0.2370
  494MOL0     H66688   4.212   5.754   2.607 -1.9887  1.0633 -2.5784
  494MOL0     H66689   4.188   5.859   2.746  1.2282 -1.4019 -0.0627
  494MOL0     H66690   4.153   5.916   2.581  1.0764  0.0177 -1.9577
  495MOL0     O66691   7.526   4.276   0.261 -0.0479 -0.4682  0.0136
  495MOL0     C66692   7.513   4.328   0.370  0.2801  0.0458 -0.2084
  495MOL0     O66693   7.604   4.420   0.416 -0.3332 -0.2290 -0.3988
  495MOL0     C66694   7.721   4.448   0.349 -0.5095  0.2787 -0.3795
  495MOL0     C66695   7.769   4.576   0.381 -0.1627 -0.3837 -0.8972
  495MOL0     C66696   7.894   4.607   0.337  0.1089 -0.3173 -1.3421
  495MOL0     C66697   7.979   4.523   0.273 -0.5046  0.3914  0.1574
  495MOL0     O66698   8.111   4.554   0.237  0.3355 -0.3414 -0.4217
  495MOL0     C66699   8.198   4.575   0.355  0.1187  0.5353  0.5091
  495MOL0     C66700   8.217   4.445   0.436  0.5083 -0.4274  0.1718
  495MOL0     C66701   8.314   4.470   0.555  0.0701  0.6507 -0.5835
  495MOL0     C66702   8.371   4.335   0.607 -0.3363  0.8144  0.5313
  495MOL0     C66703   8.268   4.224   0.649 -0.2916 -0.4809 -0.1652
  495MOL0     C66704   8.337   4.099   0.701 -0.0537 -1.1253 -0.8033
  495MOL0     C66705   8.236   3.986   0.708 -0.1932  0.2163  0.3735
  495MOL0     C66706   8.107   4.009   0.798  0.7154 -0.0141  0.6527
  495MOL0     N66707   8.042   3.880   0.809  0.1935 -0.4727 -0.1637
  495MOL0     C66708   7.932   3.864   0.728 -0.6050 -0.0179 -0.7924
  495MOL0     C66709   7.883   3.745   0.767  0.0375  0.0786  0.8819
  495MOL0     C66710   7.761   3.672   0.708 -0.4350  0.4721 -0.1983
  495MOL0     C66711   7.802   3.574   0.590  0.6798 -0.7717  0.1688
  495MOL0     C66712   7.851   3.655   0.466 -0.8540  0.5942  0.3410
  495MOL0     C66713   7.847   3.575   0.335 -0.3323  0.5283 -0.2121
  495MOL0     O66714   7.910   3.448   0.357  0.2876 -0.8452 -0.2439
  495MOL0     C66715   8.047   3.435   0.356 -0.1815  0.1094 -0.2234
  495MOL0     C66716   8.132   3.512   0.281  0.4912 -0.4595  0.7395
  495MOL0     C66717   8.265   3.479   0.288  0.3131  0.4672  0.1233
  495MOL0     C66718   8.321   3.381   0.377  0.1777 -0.1566  0.2556
  495MOL0     C66719   8.458   3.343   0.374 -0.0603 -0.0566 -0.1286
  495MOL0     O66720   8.497   3.223   0.416 -0.1573  0.0111  0.3906
  495MOL0     C66721   8.624   3.192   0.442 -0.6242  0.6227  0.2967
  495MOL0     C66722   8.708   3.162   0.342  0.2617  0.4910  0.4800
  495MOL0     C66723   8.843   3.133   0.369  0.9654  0.4150  0.4733
  495MOL0     C66724   8.882   3.128   0.505 -0.4359  0.0860  0.5032
  495MOL0     O66725   9.002   3.081   0.543 -1.1144  0.2087 -0.4477
  495MOL0     C66726   9.040   2.963   0.474 -0.1653  0.4522  0.0774
  495MOL0     C66727   9.172   2.917   0.540  0.2463  1.0060 -0.6158
  495MOL0     C66728   9.138   2.873   0.690 -0.6376 -0.0739 -0.3782
  495MOL0     C66729   9.258   2.793   0.740 -0.0831  0.1629 -1.3208
  495MOL0     C66730   9.244   2.750   0.889 -0.9856 -0.3795 -0.4125
  495MOL0     C66731   9.137   2.644   0.907 -0.7078  0.2848  0.1987
  495MOL0     C66732   9.098   2.637   1.055  0.3268  0.1381 -0.1964
  495MOL0     C66733   8.999   2.520   1.086 -0.9166 -0.3336  0.2497
  495MOL0    Cl66734   9.080   2.361   1.065 -0.5241 -0.2462 -0.2410
  495MOL0     C66735   8.795   3.153   0.603  0.6373  0.1096  0.3378
  495MOL0     C66736   8.667   3.176   0.572  0.3447  1.0143  0.1263
  495MOL0     O66737   8.532   3.430   0.333 -0.3994 -0.1378  0.1907
  495MOL0     C66738   8.236   3.322   0.465 -0.0295  0.6282 -0.2462
  495MOL0     C66739   8.102   3.352   0.456 -0.2066  1.1162  0.6293
  495MOL0     N66740   7.962   3.686   0.864 -0.7190 -0.3835  0.7924
  495MOL0     N66741   8.052   3.774   0.898  0.1396  0.4308  0.5347
  495MOL0     C66742   7.924   4.411   0.224  0.8355  0.2036  0.4668
  495MOL0     C66743   7.800   4.369   0.258 -0.0528 -0.5388  0.1417
  495MOL0     C66744   7.390   4.286   0.450 -0.6564  0.2128  0.1494
  495MOL0     C66745   7.383   4.327   0.587 -0.1000 -0.4058 -0.1598
  495MOL0     C66746   7.275   4.308   0.665  0.7471 -0.7714  0.0949
  495MOL0     C66747   7.173   4.223   0.632  0.0355  0.2243 -0.5427
  495MOL0     O66748   7.078   4.171   0.709  0.3223  0.4004 -0.0198
  495MOL0     C66749   7.084   4.192   0.849  0.8278  0.5449 -0.5700
  495MOL0     C66750   7.167   4.084   0.929  0.1049  0.4237 -0.6629
  495MOL0     C66751   7.314   4.068   0.883 -0.1629 -0.0407  1.0256
  495MOL0     C66752   7.381   3.975   0.988  0.0543  0.4267 -0.6634
  495MOL0     C66753   7.527   3.980   1.004  0.3640  0.2569  0.9564
  495MOL0     C66754   7.647   3.971   1.003  0.1812 -0.1364  0.2142
  495MOL0     C66755   7.174   4.167   0.499 -0.1262  0.5924  0.6424
  495MOL0     C66756   7.275   4.201   0.408 -1.0337 -0.5697  0.8471
  495MOL0     C66757   7.270   4.147   0.270 -0.5024  0.2440  0.5697
  495MOL0     H66758   7.722   4.649   0.446 -1.3765 -0.3622 -1.7514
  495MOL0     H66759   7.925   4.704   0.373  0.7453 -0.9725 -0.0793
  495MOL0     H66760   8.294   4.613   0.318  1.2502 -2.2778  0.2773
  495MOL0     H66761   8.153   4.642   0.429 -2.7249 -2.5428  1.7983
  495MOL0     H66762   8.247   4.357   0.378 -2.6593 -2.3974  1.2296
  495MOL0     H66763   8.120   4.405   0.469 -0.8703  2.4253 -0.1389
  495MOL0     H66764   8.262   4.518   0.638 -2.1956 -0.5548 -1.1944
  495MOL0     H66765   8.398   4.535   0.531  0.7514  0.6691  1.6745
  495MOL0     H66766   8.430   4.292   0.526 -2.2666  1.4583 -1.2994
  495MOL0     H66767   8.429   4.354   0.698  1.5795  0.6156 -0.6166
  495MOL0     H66768   8.213   4.269   0.732  2.3826  0.0594  1.4437
  495MOL0     H66769   8.197   4.201   0.569  0.7553  0.1305 -1.3052
  495MOL0     H66770   8.420   4.070   0.636 -0.2014 -2.4205 -0.4507
  495MOL0     H66771   8.381   4.123   0.798  1.6642 -1.6234 -1.4181
  495MOL0     H66772   8.295   3.900   0.741 -1.1364 -0.9605 -0.9187
  495MOL0     H66773   8.197   3.956   0.611 -0.8558 -1.3529  1.0822
  495MOL0     H66774   8.130   4.035   0.902 -2.8073 -1.0133  1.8039
  495MOL0     H66775   8.034   4.078   0.756 -0.6926 -1.8816 -0.0805
  495MOL0     H66776   7.877   3.933   0.664 -0.1426  1.4959  0.3852
  495MOL0     H66777   7.711   3.611   0.784  1.5394 -0.0528  0.7481
  495MOL0     H66778   7.688   3.744   0.670 -0.4582  1.0596  0.8918
  495MOL0     H66779   7.874   3.498   0.622  0.5077 -1.5400 -1.2307
  495MOL0     H66780   7.711   3.526   0.554 -0.1814  1.7627 -1.2843
  495MOL0     H66781   7.955   3.687   0.476 -0.2673 -0.8980 -0.7554
  495MOL0     H66782   7.798   3.750   0.461  0.4411  1.2937 -0.5805
  495MOL0     H66783   7.897   3.642   0.265  1.9133  0.2174  1.0057
  495MOL0     H66784   7.748   3.567   0.288 -0.2449 -1.2486 -0.1616
  495MOL0     H66785   8.095   3.585   0.211 -1.6499  0.7704  2.9903
  495MOL0     H66786   8.340   3.524   0.224  2.7227  1.9116  3.6269
  495MOL0     H66787   8.671   3.167   0.240  1.2455 -0.6065  0.0429
  495MOL0     H66788   8.899   3.108   0.279  0.7345  0.3743  0.3406
  495MOL0     H66789   8.956   2.894   0.489  0.1302  0.0796  0.0586
  495MOL0     H66790   9.056   2.972   0.366  1.3526  0.3977  0.2644
  495MOL0     H66791   9.212   2.828   0.491 -1.1452  0.7413 -1.3307
  495MOL0     H66792   9.252   2.989   0.523  1.9848 -0.8525 -0.6948
  495MOL0     H66793   9.146   2.958   0.758  0.4030 -1.4428  1.3126
  495MOL0     H66794   9.038   2.831   0.706 -0.3442 -0.1600  1.4924
  495MOL0     H66795   9.354   2.843   0.730  0.7731 -0.0985  3.1927
  495MOL0     H66796   9.265   2.700   0.682 -0.3358 -1.3700  0.9673
  495MOL0     H66797   9.220   2.837   0.951  0.3306 -1.0347  1.0916
  495MOL0     H66798   9.343   2.719   0.925 -0.5575  3.2893  2.1927
  495MOL0     H66799   9.054   2.660   0.838  0.7490  3.4812 -1.0188
  495MOL0     H66800   9.182   2.546   0.887  2.5034  1.6066  0.3075
  495MOL0     H66801   9.048   2.727   1.090  1.1221  0.7455 -0.5815
  495MOL0     H66802   9.184   2.614   1.119 -0.5249 -3.9111 -0.2385
  495MOL0     H66803   8.966   2.532   1.190 -1.0856 -2.3553  0.4727
  495MOL0     H66804   8.917   2.536   1.016  1.4293 -0.9099 -2.9020
  495MOL0     H66805   8.817   3.141   0.709 -0.1050 -2.8872  0.2514
  495MOL0     H66806   8.597   3.179   0.655  0.9625 -0.5038  0.7302
  495MOL0     H66807   8.269   3.247   0.535 -0.8875 -1.5122 -2.0085
  495MOL0     H66808   8.037   3.306   0.529 -1.3020  1.1279 -0.3145
  495MOL0     H66809   7.977   4.336   0.166 -0.5793  0.5579 -1.3733
  495MOL0     H66810   7.759   4.276   0.220  0.4160 -0.3525 -0.8521
  495MOL0     H66811   7.467   4.378   0.632 -1.7911  0.7563  1.8662
  495MOL0     H66812   7.280   4.359   0.761  1.8498  0.9561 -0.8315
  495MOL0     H66813   6.980   4.172   0.877  1.1764 -2.8596 -1.3064
  495MOL0     H66814   7.111   4.296   0.870  2.1317  0.2485 -0.6969
  495MOL0     H66815   7.107   3.995   0.911 -0.9506  1.0465 -0.3200
  495MOL0     H66816   7.160   4.113   1.034 -1.0465  1.2227 -0.9286
  495MOL0     H66817   7.361   4.167   0.880 -2.5211  1.1421 -0.8308
  495MOL0     H66818   7.327   4.024   0.784 -0.0302 -2.1221  1.9240
  495MOL0     H66819   7.349   4.009   1.087  0.6828 -0.1551 -0.2472
  495MOL0     H66820   7.351   3.870   0.988 -0.9322  0.6665  1.0995
  495MOL0     H66821   7.753   3.956   0.994  0.2205 -0.8751  1.7800
  495MOL0     H66822   7.098   4.094   0.472  2.5838 -3.8168  3.5639
  495MOL0     H66823   7.165   4.128   0.245 -0.5360  1.9533 -0.7486
  495MOL0     H66824   7.304   4.222   0.198 -0.5564  0.5166  0.8298
  495MOL0     H66825   7.328   4.054   0.261  2.9353  2.3426 -1.1143
  496MOL0     O66826   4.939   6.559  11.323 -0.4300 -0.4564  0.0905
  496MOL0     C66827   4.853   6.473  11.314  0.1919  0.5379  0.3371
  496MOL0     O66828   4.792   6.418  11.427  0.2946 -0.5838 -0.0830
  496MOL0     C66829   4.844   6.452  11.549  0.9551 -0.1175 -0.0310
  496MOL0     C66830   4.964   6.401  11.608 -0.2526  0.7442  0.5832
  496MOL0     C66831   5.011   6.442  11.730 -0.7272  0.1870 -0.1148
  496MOL0     C66832   4.931   6.526  11.807  0.4396 -0.3502  0.0597
  496MOL0     O66833   4.969   6.570  11.933  0.0978 -0.1504 -0.2111
  496MOL0     C66834   5.038   6.696  11.942  0.3223  0.4945 -0.7010
  496MOL0     C66835   5.160   6.694  12.041  0.3758 -0.9326 -0.5088
  496MOL0     C66836   5.100   6.648  12.183 -1.1271 -0.3861 -0.8233
  496MOL0     C66837   5.177   6.689  12.315 -0.0473  0.7017  0.8026
  496MOL0     C66838   5.153   6.596  12.425 -0.0923 -0.7223  0.8907
  496MOL0     C66839   5.235   6.467  12.430 -0.0566 -0.3592 -0.2761
  496MOL0     C66840   5.385   6.471  12.466 -0.3102  0.3669 -0.0550
  496MOL0     C66841   5.407   6.542  12.601 -0.2943  0.6308  0.2707
  496MOL0     N66842   5.549   6.542  12.643  0.7260  0.3078 -0.5196
  496MOL0     C66843   5.657   6.474  12.593 -0.1001  0.4704  0.1727
  496MOL0     C66844   5.758   6.519  12.673 -0.5246 -0.4509 -1.0645
  496MOL0     C66845   5.895   6.466  12.664 -0.0302  0.5480 -0.8679
  496MOL0     C66846   5.997   6.574  12.718  0.9297  0.1495  0.0395
  496MOL0     C66847   6.126   6.511  12.782  0.4269  0.1927 -0.3081
  496MOL0     C66848   6.247   6.608  12.783  0.0482 -0.9738 -0.3019
  496MOL0     O66849   6.358   6.519  12.802 -0.9885 -0.3421  0.3002
  496MOL0     C66850   6.472   6.571  12.861  0.0283  0.1673  0.3952
  496MOL0     C66851   6.549   6.479  12.936 -0.6837 -0.1918 -0.4677
  496MOL0     C66852   6.674   6.510  12.984 -0.8867  0.6094 -0.0093
  496MOL0     C66853   6.724   6.634  12.972  0.2464 -0.0208 -0.2475
  496MOL0     C66854   6.855   6.679  13.032  0.2697  0.6373  0.3187
  496MOL0     O66855   6.907   6.597  13.121  0.1485  0.3108  0.0342
  496MOL0     C66856   7.036   6.613  13.138 -0.4949  0.1322  0.4050
  496MOL0     C66857   7.086   6.633  13.267  0.9170  0.5400  0.6384
  496MOL0     C66858   7.220   6.652  13.293 -0.1557 -0.2855 -0.4714
  496MOL0     C66859   7.311   6.639  13.189  0.6767  0.8100  0.2409
  496MOL0     O66860   7.449   6.632  13.195  0.2136  0.5272  1.1817
  496MOL0     C66861   7.517   6.668  13.317  0.1442  0.4226  0.3687
  496MOL0     C66862   7.656   6.610  13.320  0.9735  0.3671 -0.1084
  496MOL0     C66863   7.749   6.671  13.208  1.4837 -0.5963  1.1040
  496MOL0     C66864   7.895   6.660  13.245  0.2312 -0.0797 -0.7479
  496MOL0     C66865   7.943   6.516  13.220 -0.1449 -1.0828  0.8077
  496MOL0     C66866   8.081   6.489  13.263 -0.5732  0.3206 -0.3261
  496MOL0     C66867   8.193   6.577  13.207 -0.5288 -0.8662  0.0167
  496MOL0     C66868   8.339   6.529  13.230  0.8739 -0.4586 -1.5133
  496MOL0    Cl66869   8.359   6.481  13.408  0.1026 -0.0355  0.7439
  496MOL0     C66870   7.266   6.620  13.052  0.6446  0.0390 -0.1232
  496MOL0     C66871   7.127   6.602  13.030 -0.5218 -0.2447 -0.4079
  496MOL0     O66872   6.907   6.773  12.976  0.2266 -0.4833 -0.0912
  496MOL0     C66873   6.643   6.729  12.905 -0.6945 -0.2930  0.3231
  496MOL0     C66874   6.519   6.698  12.856  0.0904  0.3717 -0.1246
  496MOL0     N66875   5.705   6.601  12.774 -0.4214  0.1909  0.2447
  496MOL0     N66876   5.577   6.606  12.760  0.0743  0.7222 -0.0380
  496MOL0     C66877   4.813   6.575  11.753 -0.6943 -0.2847 -1.0230
  496MOL0     C66878   4.767   6.533  11.627 -0.6459 -0.5517 -0.2003
  496MOL0     C66879   4.787   6.455  11.182 -0.9714 -0.1782  0.2145
  496MOL0     C66880   4.852   6.502  11.065  0.0979 -0.0808  0.7172
  496MOL0     C66881   4.804   6.478  10.936 -0.9971  1.0451  0.3177
  496MOL0     C66882   4.686   6.405  10.922 -0.7912 -0.3224 -0.7471
  496MOL0     O66883   4.629   6.378  10.798 -0.2651  0.2562 -0.7270
  496MOL0     C66884   4.619   6.483  10.700  1.0793 -0.0195 -0.9151
  496MOL0     C66885   4.502   6.583  10.727  0.0211  0.9414  1.2757
  496MOL0     C66886   4.470   6.664  10.593  0.4657  0.1561 -0.7726
  496MOL0     C66887   4.409   6.583  10.484  0.3463 -0.1246  0.5367
  496MOL0     C66888   4.500   6.565  10.372  0.3162 -0.1563  0.3905
  496MOL0     C66889   4.560   6.540  10.267 -0.0588 -0.7274  0.4831
  496MOL0     C66890   4.617   6.357  11.036 -0.2000 -0.4471 -0.4604
  496MOL0     C66891   4.662   6.386  11.163 -0.5507  0.0129  0.3943
  496MOL0     C66892   4.578   6.343  11.280  0.6124  0.0792 -0.2812
  496MOL0     H66893   5.022   6.341  11.538  1.7889  2.4167  0.7161
  496MOL0     H66894   5.102   6.396  11.767 -1.8638 -1.4054  0.8792
  496MOL0     H66895   5.080   6.716  11.843  1.8214 -0.5214 -0.3161
  496MOL0     H66896   4.976   6.779  11.977  0.7568  0.2179  0.8070
  496MOL0     H66897   5.214   6.789  12.048 -0.8785 -0.3013  1.3419
  496MOL0     H66898   5.229   6.612  12.021 -0.6110 -2.1213  0.8161
  496MOL0     H66899   5.074   6.542  12.186 -2.0042 -0.1970  2.4629
  496MOL0     H66900   5.000   6.692  12.197 -2.0329 -1.8165 -2.4592
  496MOL0     H66901   5.283   6.687  12.288 -0.0643  1.4108  0.6834
  496MOL0     H66902   5.138   6.787  12.340  1.3039  1.3062  0.6466
  496MOL0     H66903   5.175   6.661  12.509 -0.3063  1.4694 -0.6647
  496MOL0     H66904   5.046   6.574  12.426 -0.0275 -1.0270  1.2528
  496MOL0     H66905   5.180   6.394  12.489  1.4028 -3.0621 -2.0581
  496MOL0     H66906   5.220   6.431  12.327  0.2766 -2.3180  0.3241
  496MOL0     H66907   5.439   6.522  12.386  2.1386 -2.9540 -0.7612
  496MOL0     H66908   5.429   6.371  12.466  2.0878  1.3439 -0.2266
  496MOL0     H66909   5.380   6.647  12.600  1.5324  1.1532  0.9764
  496MOL0     H66910   5.335   6.501  12.672 -0.4754  1.4692  0.5830
  496MOL0     H66911   5.660   6.402  12.512 -3.0732  0.6283 -0.2067
  496MOL0     H66912   5.901   6.382  12.734  0.9375  0.8094 -0.6120
  496MOL0     H66913   5.917   6.427  12.564  1.9787  1.5465 -0.8801
  496MOL0     H66914   6.019   6.637  12.631 -0.0427  1.2622  0.5686
  496MOL0     H66915   5.965   6.652  12.787  1.5395 -0.3584  0.9163
  496MOL0     H66916   6.165   6.425  12.726  2.6904  0.6460  0.4501
  496MOL0     H66917   6.126   6.467  12.882  3.8591  0.0082 -0.2738
  496MOL0     H66918   6.236   6.672  12.871 -2.1975  0.1154 -1.3089
  496MOL0     H66919   6.255   6.665  12.691  2.9198 -2.8102 -1.3491
  496MOL0     H66920   6.519   6.378  12.959  1.8905 -0.3573  3.0422
  496MOL0     H66921   6.729   6.430  13.033  1.0398  0.8805 -1.6113
  496MOL0     H66922   7.013   6.649  13.345 -2.0157  1.8740 -2.1353
  496MOL0     H66923   7.261   6.685  13.388  0.0982 -3.0311  0.4705
  496MOL0     H66924   7.520   6.777  13.309  0.6818  0.2953 -3.9607
  496MOL0     H66925   7.472   6.627  13.408  1.7343 -2.2947  0.0432
  496MOL0     H66926   7.695   6.626  13.421 -2.9642 -1.8938  2.0010
  496MOL0     H66927   7.646   6.503  13.300  1.2676  0.6083 -1.6946
  496MOL0     H66928   7.728   6.636  13.107 -0.9300  2.6935  0.3161
  496MOL0     H66929   7.717   6.775  13.200  1.3497 -0.6370  1.1138
  496MOL0     H66930   7.909   6.680  13.352 -1.8350 -3.5178  0.3219
  496MOL0     H66931   7.966   6.726  13.195  1.7508  1.8950  3.5228
  496MOL0     H66932   7.948   6.484  13.115  1.3604 -0.4291  0.6556
  496MOL0     H66933   7.874   6.452  13.274 -5.0413  0.6089 -2.7579
  496MOL0     H66934   8.077   6.499  13.372 -3.6233 -0.8658 -0.2342
  496MOL0     H66935   8.103   6.384  13.241  2.4609  0.7163  0.4155
  496MOL0     H66936   8.175   6.681  13.235  0.9200 -0.7774  0.7214
  496MOL0     H66937   8.181   6.566  13.099  0.4960 -0.9172 -0.1044
  496MOL0     H66938   8.375   6.452  13.161 -0.6182 -2.5168 -0.1304
  496MOL0     H66939   8.413   6.609  13.220  1.8465 -1.2468 -0.9047
  496MOL0     H66940   7.342   6.600  12.977 -0.7753  1.2995 -2.0210
  496MOL0     H66941   7.090   6.598  12.928  1.4494 -1.1732 -1.1322
  496MOL0     H66942   6.684   6.829  12.896 -0.6298 -0.3768 -0.4648
  496MOL0     H66943   6.462   6.766  12.793  1.4469 -0.1104 -1.9818
  496MOL0     H66944   4.756   6.653  11.802  0.0933  0.8382 -1.8344
  496MOL0     H66945   4.677   6.585  11.597  0.0096  0.4722 -0.4416
  496MOL0     H66946   4.950   6.548  11.056  1.0333 -2.3033 -1.7840
  496MOL0     H66947   4.856   6.522  10.852 -0.4659 -0.4115 -0.1471
  496MOL0     H66948   4.596   6.423  10.611 -1.2987 -2.3183  1.0798
  496MOL0     H66949   4.710   6.543  10.698 -0.5402  2.7286  0.9010
  496MOL0     H66950   4.538   6.662  10.794  0.3464  2.9772 -1.1812
  496MOL0     H66951   4.414   6.535  10.772  0.3123 -0.4506  0.4217
  496MOL0     H66952   4.555   6.729  10.568  0.6879  0.5416  0.8661
  496MOL0     H66953   4.388   6.729  10.625 -0.8653 -0.9994 -1.7425
  496MOL0     H66954   4.387   6.481  10.518  1.8424 -0.7024 -0.1323
  496MOL0     H66955   4.317   6.626  10.443  0.4650  0.8287  1.2413
  496MOL0     H66956   4.606   6.509  10.175 -0.0247  0.7945 -0.0278
  496MOL0     H66957   4.529   6.295  11.023 -1.6320  1.2395  0.7410
  496MOL0     H66958   4.480   6.298  11.260 -0.0836  1.6847 -0.7217
  496MOL0     H66959   4.633   6.281  11.351 -2.4764 -0.6094  1.7005
  496MOL0     H66960   4.546   6.432  11.337 -1.6373 -2.8298  3.4930
  497MOL0     O66961   3.353  10.042   3.019 -0.1065  0.3944  0.4045
  497MOL0     C66962   3.345  10.158   2.987  0.5969  0.1106 -0.3653
  497MOL0     O66963   3.431  10.253   3.032 -0.1522 -0.2623 -0.1265
  497MOL0     C66964   3.555  10.228   3.079 -0.2345 -0.2697 -0.6933
  497MOL0     C66965   3.626  10.319   3.171  1.0833 -0.5411  0.2842
  497MOL0     C66966   3.762  10.283   3.203 -0.2225  0.3093  0.1601
  497MOL0     C66967   3.835  10.177   3.144  0.6844  1.3425  1.1621
  497MOL0     O66968   3.968  10.137   3.185  0.3164  0.4020 -0.0573
  497MOL0     C66969   3.999  10.171   3.317 -1.1412 -0.6654 -0.4845
  497MOL0     C66970   4.120  10.091   3.344 -0.0312 -0.4449 -0.5956
  497MOL0     C66971   4.187  10.147   3.475  0.3969 -0.6016 -0.1922
  497MOL0     C66972   4.296  10.062   3.528  0.7196 -0.0476 -0.0392
  497MOL0     C66973   4.397  10.133   3.616 -0.3710  0.6535  0.3564
  497MOL0     C66974   4.510  10.214   3.549 -1.1136  0.6343  0.9212
  497MOL0     C66975   4.584  10.146   3.440 -0.1670  0.2405 -0.0352
  497MOL0     C66976   4.650  10.013   3.481 -0.7742 -0.0094  0.2081
  497MOL0     N66977   4.726  10.023   3.601 -0.8090  0.0767  0.1087
  497MOL0     C66978   4.717   9.940   3.703 -0.9989 -0.5413  0.5453
  497MOL0     C66979   4.820   9.980   3.783 -0.6294 -0.2429 -0.6602
  497MOL0     C66980   4.851   9.921   3.924  0.2614 -0.4151  0.6285
  497MOL0     C66981   4.766   9.974   4.042  0.3219 -0.6925 -0.5463
  497MOL0     C66982   4.862   9.986   4.163  0.6556 -0.4893 -0.1548
  497MOL0     C66983   4.963  10.112   4.159  1.0184  0.3525 -0.0553
  497MOL0     O66984   5.037  10.100   4.277  0.1616  0.0012  0.6480
  497MOL0     C66985   5.158  10.151   4.286 -0.3272  0.1465 -0.4064
  497MOL0     C66986   5.221  10.133   4.406 -0.0624 -0.0322 -0.0262
  497MOL0     C66987   5.356  10.161   4.419  0.6221 -0.5207 -0.1448
  497MOL0     C66988   5.424  10.230   4.312 -0.9325  0.0507 -0.7501
  497MOL0     C66989   5.563  10.276   4.330  0.0205 -0.1809 -0.7992
  497MOL0     O66990   5.619  10.348   4.234 -0.1092 -0.0628 -0.2175
  497MOL0     C66991   5.752  10.387   4.260  0.4990 -0.4213  0.5111
  497MOL0     C66992   5.789  10.521   4.281  0.4418  0.1549  0.6535
  497MOL0     C66993   5.923  10.559   4.282 -0.2433  0.8895  0.0290
  497MOL0     C66994   6.031  10.474   4.273 -0.2361 -0.3634  0.0480
  497MOL0     O66995   6.159  10.526   4.280 -0.0353 -0.6261 -0.0488
  497MOL0     C66996   6.256  10.426   4.324  1.4831 -0.6172 -0.2744
  497MOL0     C66997   6.334  10.365   4.204 -1.1108  0.7088  0.0365
  497MOL0     C66998   6.380  10.475   4.114  0.2892 -0.4712 -0.3528
  497MOL0     C66999   6.500  10.447   4.035 -0.4031 -0.3246  0.0164
  497MOL0     C67000   6.547  10.580   3.977  0.1659 -1.0257 -0.1979
  497MOL0     C67001   6.650  10.588   3.867 -0.6809 -0.1284 -0.1048
  497MOL0     C67002   6.778  10.507   3.898  0.0207 -0.3966  1.4773
  497MOL0     C67003   6.880  10.495   3.788 -0.8605 -0.6064 -0.3309
  497MOL0    Cl67004   6.939  10.660   3.759 -0.3280 -0.0644  0.7386
  497MOL0     C67005   5.994  10.337   4.266  0.6246  0.9143  0.1830
  497MOL0     C67006   5.859  10.295   4.253  0.0625  0.0610 -0.4392
  497MOL0     O67007   5.615  10.240   4.439 -0.1720 -0.1030  0.8733
  497MOL0     C67008   5.362  10.244   4.190  0.5058 -0.5767 -0.3439
  497MOL0     C67009   5.229  10.206   4.178  1.0176  0.3092 -0.1220
  497MOL0     N67010   4.903  10.068   3.714  0.8829  0.0291  0.2946
  497MOL0     N67011   4.836  10.095   3.601  0.7581  0.2811 -0.5335
  497MOL0     C67012   3.768  10.095   3.049  0.1900 -0.6492 -0.3069
  497MOL0     C67013   3.625  10.117   3.030  0.6581 -0.1757 -0.6743
  497MOL0     C67014   3.214  10.206   2.925  0.3043  0.7412 -0.6667
  497MOL0     C67015   3.185  10.347   2.932 -1.3556  0.0870 -0.5961
  497MOL0     C67016   3.077  10.407   2.873 -0.9890 -0.4828 -0.2332
  497MOL0     C67017   2.977  10.330   2.821  0.2026  0.3563 -0.1429
  497MOL0     O67018   2.862  10.369   2.758  0.0532 -0.2619 -0.4489
  497MOL0     C67019   2.866  10.503   2.696  0.1260 -0.5142  0.0638
  497MOL0     C67020   2.740  10.521   2.629  0.4987 -1.3058  0.4526
  497MOL0     C67021   2.725  10.671   2.568 -0.6749 -0.1922  0.4307
  497MOL0     C67022   2.719  10.778   2.676  0.3212  0.5797  0.3861
  497MOL0     C67023   2.723  10.905   2.608 -0.3146 -0.3097 -0.2443
  497MOL0     C67024   2.726  11.011   2.546 -0.5442 -0.7632  1.1358
  497MOL0     C67025   2.994  10.188   2.821  0.2213  0.2199 -0.5565
  497MOL0     C67026   3.114  10.124   2.866 -0.1370 -0.2672  0.0738
  497MOL0     C67027   3.124   9.976   2.842  0.2468 -0.2677  0.0846
  497MOL0     H67028   3.579  10.405   3.217 -0.3545 -0.5420 -1.0917
  497MOL0     H67029   3.809  10.343   3.280 -0.2209 -0.6602  0.9395
  497MOL0     H67030   4.019  10.279   3.323 -1.3078 -0.6355 -0.4570
  497MOL0     H67031   3.923  10.155   3.393 -2.3020  1.1696 -1.1900
  497MOL0     H67032   4.190  10.106   3.262 -0.3934  0.6369 -0.7260
  497MOL0     H67033   4.085   9.988   3.356 -1.3637 -0.4398 -3.5415
  497MOL0     H67034   4.118  10.155   3.560  1.2271  2.8401  0.3218
  497MOL0     H67035   4.215  10.250   3.452  0.4082 -0.7039 -0.6366
  497MOL0     H67036   4.246   9.990   3.593 -0.9461  0.6527 -0.5097
  497MOL0     H67037   4.337   9.987   3.460 -0.4925 -2.5428  1.8330
  497MOL0     H67038   4.344  10.209   3.674 -0.0940  0.9973  0.1590
  497MOL0     H67039   4.439  10.054   3.680 -0.5890  0.4072  0.1957
  497MOL0     H67040   4.471  10.309   3.512 -2.0412 -0.1337 -0.1480
  497MOL0     H67041   4.584  10.244   3.624  1.3619  4.0484 -2.4948
  497MOL0     H67042   4.657  10.215   3.396 -0.0907  1.6745  2.2178
  497MOL0     H67043   4.504  10.124   3.369  0.2030  0.7704 -0.6257
  497MOL0     H67044   4.567   9.942   3.491  0.0557 -1.6359 -3.0235
  497MOL0     H67045   4.705   9.988   3.390 -0.4561 -0.3171  0.4819
  497MOL0     H67046   4.626   9.881   3.713 -2.0365  0.9340  0.2327
  497MOL0     H67047   4.837   9.813   3.912  2.3489 -0.6854  0.1320
  497MOL0     H67048   4.958   9.936   3.944  0.6484 -0.3013 -1.2839
  497MOL0     H67049   4.707  10.066   4.031  0.7577 -0.2943  0.3356
  497MOL0     H67050   4.676   9.915   4.063 -1.2423  1.5769 -0.5327
  497MOL0     H67051   4.904   9.886   4.173  0.0681 -0.6319  0.9252
  497MOL0     H67052   4.798  10.008   4.249 -2.4964 -1.3237 -2.1159
  497MOL0     H67053   4.897  10.199   4.150  0.0458 -0.5186 -2.0091
  497MOL0     H67054   5.027  10.111   4.071 -1.7999  2.0492 -2.2948
  497MOL0     H67055   5.162  10.087   4.485  1.2426 -0.3073  0.8168
  497MOL0     H67056   5.402  10.157   4.517 -2.3350  0.6954  1.4232
  497MOL0     H67057   5.713  10.598   4.278  1.6285  1.4125  1.6171
  497MOL0     H67058   5.956  10.662   4.298 -1.7451  1.3613  0.2943
  497MOL0     H67059   6.328  10.480   4.386  1.4559  1.6201 -2.0647
  497MOL0     H67060   6.220  10.347   4.390  0.0979  0.4467  0.3124
  497MOL0     H67061   6.425  10.312   4.235  1.4648  4.0232 -1.2018
  497MOL0     H67062   6.268  10.294   4.154 -1.3792 -0.4051  1.8456
  497MOL0     H67063   6.293  10.487   4.049 -0.5730 -1.1043  0.6391
  497MOL0     H67064   6.391  10.563   4.179 -0.7564 -1.2778  0.9822
  497MOL0     H67065   6.477  10.372   3.959  1.0665 -0.8493  0.0560
  497MOL0     H67066   6.566  10.404   4.111 -0.4938  2.4650  1.8262
  497MOL0     H67067   6.594  10.632   4.060  0.0666 -2.2680  0.6578
  497MOL0     H67068   6.453  10.617   3.933  0.8835  0.0548 -0.8697
  497MOL0     H67069   6.615  10.567   3.766  0.9114  1.4091 -1.0226
  497MOL0     H67070   6.663  10.696   3.864 -4.2388  0.4185 -2.6725
  497MOL0     H67071   6.749  10.406   3.927  2.4956 -1.6409 -0.0013
  497MOL0     H67072   6.828  10.541   3.989  0.0895 -0.0711  1.3172
  497MOL0     H67073   6.963  10.430   3.814 -1.0015 -0.1677  1.3104
  497MOL0     H67074   6.832  10.454   3.699  0.2175 -0.1890 -1.1321
  497MOL0     H67075   6.068  10.259   4.254 -0.7095 -1.0169  3.3692
  497MOL0     H67076   5.831  10.191   4.240  2.7275 -0.5144 -2.5133
  497MOL0     H67077   5.427  10.277   4.110  0.9996 -0.2638  0.1834
  497MOL0     H67078   5.194  10.228   4.078  2.0862  1.6374 -0.2463
  497MOL0     H67079   3.816  10.016   2.991 -0.9059  0.1034 -2.3689
  497MOL0     H67080   3.597  10.074   2.934 -2.4927  0.6873 -0.2551
  497MOL0     H67081   3.267  10.395   2.984 -1.1493 -0.6584 -0.2322
  497MOL0     H67082   3.073  10.515   2.883  3.2023 -0.1919 -0.0106
  497MOL0     H67083   2.942  10.510   2.618  0.7863  0.3987  0.7648
  497MOL0     H67084   2.887  10.584   2.767 -2.4474  2.2991 -2.1545
  497MOL0     H67085   2.659  10.502   2.700  0.2608 -0.6987  0.3445
  497MOL0     H67086   2.730  10.455   2.542  0.8760  0.8375 -1.2822
  497MOL0     H67087   2.634  10.671   2.508  0.5538 -0.0913 -1.5009
  497MOL0     H67088   2.808  10.700   2.502  0.9104 -1.9584  1.5266
  497MOL0     H67089   2.630  10.761   2.737  0.7492 -1.8386  0.4553
  497MOL0     H67090   2.804  10.775   2.745 -0.6310 -0.6015  1.5549
  497MOL0     H67091   2.731  11.108   2.501  2.7740 -0.5929  1.6556
  497MOL0     H67092   2.911  10.132   2.779 -1.3406  0.3559  2.1374
  497MOL0     H67093   3.157   9.926   2.934 -3.3602 -0.7539  1.2863
  497MOL0     H67094   3.025   9.938   2.816 -0.0314  0.9440 -0.6801
  497MOL0     H67095   3.181   9.954   2.752 -0.5729 -2.7165  0.0952
  498MOL0     O67096   0.361   4.639   9.799 -0.2556 -0.5084 -0.0128
  498MOL0     C67097   0.369   4.546   9.720 -0.0865  0.6014  0.6528
  498MOL0     O67098   0.480   4.507   9.649 -0.2646  0.1117 -0.3140
  498MOL0     C67099   0.573   4.599   9.623  0.3882 -0.0469 -0.2433
  498MOL0     C67100   0.549   4.705   9.542  0.4692 -0.4972 -0.2659
  498MOL0     C67101   0.648   4.804   9.503 -0.0533 -0.8199 -0.2154
  498MOL0     C67102   0.778   4.779   9.548 -0.1898 -0.6212 -1.3045
  498MOL0     O67103   0.880   4.864   9.512 -0.2701  0.0528 -0.4742
  498MOL0     C67104   1.012   4.816   9.515 -1.0801  0.4241 -0.0414
  498MOL0     C67105   1.099   4.921   9.450 -1.2588  0.0350 -0.2384
  498MOL0     C67106   1.129   5.040   9.548 -0.0386  0.2324  0.4978
  498MOL0     C67107   1.187   5.166   9.477  0.1115  0.5642  0.2702
  498MOL0     C67108   1.295   5.245   9.549 -0.9848 -0.1256 -0.6852
  498MOL0     C67109   1.247   5.358   9.638  0.3572  0.4604 -0.3235
  498MOL0     C67110   1.367   5.424   9.715 -0.9144  0.0181 -0.1140
  498MOL0     C67111   1.335   5.577   9.732  0.4537  0.6322 -0.1708
  498MOL0     N67112   1.219   5.607   9.819  0.2788  0.3401 -0.4174
  498MOL0     C67113   1.096   5.569   9.793  0.4876  0.4284  0.0294
  498MOL0     C67114   1.020   5.624   9.896  0.0603 -0.6080 -0.7249
  498MOL0     C67115   0.871   5.621   9.932  0.5127 -0.0043  0.3479
  498MOL0     C67116   0.792   5.731   9.851 -0.1656  0.2323  0.8702
  498MOL0     C67117   0.850   5.879   9.846  0.6522  0.3168  0.4768
  498MOL0     C67118   0.879   5.937   9.984 -0.7542 -0.7663 -0.3286
  498MOL0     O67119   0.763   5.919  10.068 -0.1509  0.1176 -0.7784
  498MOL0     C67120   0.739   6.001  10.175  0.1774  0.1974  0.3342
  498MOL0     C67121   0.819   6.122  10.201 -0.3256 -0.2441  0.3760
  498MOL0     C67122   0.790   6.197  10.312 -1.2594  0.2016 -0.2770
  498MOL0     C67123   0.687   6.171  10.397  0.5499  0.9277 -0.5046
  498MOL0     C67124   0.667   6.250  10.531 -0.7733  0.0546 -0.4516
  498MOL0     O67125   0.753   6.349  10.575 -0.8092  0.0350  0.1688
  498MOL0     C67126   0.755   6.402  10.702 -0.9760  0.0041 -0.3976
  498MOL0     C67127   0.711   6.339  10.818  0.2228 -0.2397 -0.3198
  498MOL0     C67128   0.732   6.400  10.946  0.8113  0.1892  0.4240
  498MOL0     C67129   0.777   6.533  10.954  0.0065  0.2592 -0.0631
  498MOL0     O67130   0.786   6.613  11.064 -0.9311  0.5824  0.0382
  498MOL0     C67131   0.669   6.616  11.147  0.5030 -0.5640  0.0125
  498MOL0     C67132   0.668   6.724  11.253  0.3495 -0.6256 -0.3315
  498MOL0     C67133   0.803   6.729  11.330  0.3026  0.3443 -0.1664
  498MOL0     C67134   0.844   6.882  11.328  0.4714  0.2052  0.1103
  498MOL0     C67135   0.889   6.917  11.188  0.2714 -0.2041  0.4506
  498MOL0     C67136   0.938   7.063  11.186 -0.1337 -0.1034 -0.0008
  498MOL0     C67137   0.974   7.088  11.043 -0.0629 -0.4561 -0.0101
  498MOL0     C67138   0.991   7.239  11.035 -0.1444 -0.2365  0.1161
  498MOL0    Cl67139   0.829   7.314  11.038  0.3101  0.1767  0.0511
  498MOL0     C67140   0.814   6.591  10.831 -0.0991 -0.9213 -0.1806
  498MOL0     C67141   0.809   6.531  10.710  0.4843 -0.3374  0.3125
  498MOL0     O67142   0.574   6.209  10.597 -0.7956  0.1174 -0.4463
  498MOL0     C67143   0.599   6.063  10.367 -0.5612  0.4590 -0.0175
  498MOL0     C67144   0.628   5.980  10.257 -0.0846  0.2629 -0.6035
  498MOL0     N67145   1.112   5.681   9.987 -0.1188  0.1332 -0.0640
  498MOL0     N67146   1.227   5.667   9.942 -0.3124  1.2580 -0.8871
  498MOL0     C67147   0.800   4.667   9.644  0.0826 -0.1180  0.1480
  498MOL0     C67148   0.698   4.578   9.672  0.2639  0.2529 -0.3471
  498MOL0     C67149   0.254   4.452   9.702 -0.0075 -0.0378  0.1022
  498MOL0     C67150   0.229   4.389   9.579 -0.0694 -1.1539 -0.3510
  498MOL0     C67151   0.124   4.296   9.564 -0.2282  0.5064  0.5229
  498MOL0     C67152   0.027   4.283   9.667 -0.2590 -0.1672  0.1178
  498MOL0     O67153  -0.085   4.215   9.628  0.6800 -0.2684 -0.2137
  498MOL0     C67154  -0.193   4.199   9.722  0.3091 -0.6458  0.4109
  498MOL0     C67155  -0.318   4.132   9.663 -0.0780 -0.3251  0.7622
  498MOL0     C67156  -0.378   4.212   9.555  0.9570  0.5280  0.6681
  498MOL0     C67157  -0.448   4.115   9.443  0.0620  0.2634 -0.4232
  498MOL0     C67158  -0.540   4.024   9.503 -0.1843 -0.6989 -0.1063
  498MOL0     C67159  -0.628   3.951   9.538 -0.3212 -0.3276  0.4848
  498MOL0     C67160   0.058   4.340   9.789 -0.5666 -0.2518 -0.0269
  498MOL0     C67161   0.170   4.415   9.811 -0.3683  1.0597 -0.0055
  498MOL0     C67162   0.183   4.465   9.954 -0.2056  0.1129 -0.1919
  498MOL0     H67163   0.447   4.710   9.505  0.5279 -0.4146 -0.4188
  498MOL0     H67164   0.624   4.891   9.442  0.4308 -1.0129 -0.6936
  498MOL0     H67165   1.050   4.814   9.618 -0.9658  3.4332  0.0598
  498MOL0     H67166   1.024   4.720   9.464  0.2488  1.5482 -1.9654
  498MOL0     H67167   1.041   4.950   9.362  1.5158 -1.1909 -2.6569
  498MOL0     H67168   1.199   4.885   9.423 -1.3022 -0.5633  0.3808
  498MOL0     H67169   1.211   5.012   9.614  2.1874  2.7887 -0.9967
  498MOL0     H67170   1.041   5.071   9.606 -1.0420  2.1662 -1.8918
  498MOL0     H67171   1.228   5.133   9.382 -1.3766 -0.5422 -0.0207
  498MOL0     H67172   1.100   5.223   9.444 -1.1869 -1.2102  0.4707
  498MOL0     H67173   1.368   5.186   9.605 -1.7846 -0.0644  0.4592
  498MOL0     H67174   1.334   5.299   9.462 -0.2863 -1.9706 -1.5636
  498MOL0     H67175   1.201   5.435   9.575  5.2212  1.9978 -2.4573
  498MOL0     H67176   1.170   5.323   9.708  1.6266 -1.4626  0.1974
  498MOL0     H67177   1.458   5.405   9.657 -1.6929 -3.2475 -0.4949
  498MOL0     H67178   1.391   5.387   9.815  2.2218  6.0890  1.9040
  498MOL0     H67179   1.420   5.637   9.767  0.1140  0.2477  1.3962
  498MOL0     H67180   1.312   5.620   9.634 -2.0289  0.2186  0.1531
  498MOL0     H67181   1.065   5.511   9.707 -0.1118 -2.0557  1.7968
  498MOL0     H67182   0.834   5.521   9.911  4.4019 -0.8628 -4.0663
  498MOL0     H67183   0.868   5.641  10.040  0.1793  0.8011  0.1954
  498MOL0     H67184   0.789   5.688   9.751  0.7363 -0.2280  1.0311
  498MOL0     H67185   0.687   5.740   9.879 -0.3913  4.1778 -0.6378
  498MOL0     H67186   0.790   5.933   9.773 -0.3876 -0.2626  0.8914
  498MOL0     H67187   0.948   5.870   9.797  0.6085 -1.4934  0.6578
  498MOL0     H67188   0.913   6.041   9.981 -1.4682 -0.4712  1.0477
  498MOL0     H67189   0.962   5.892  10.039 -0.8350  1.0822  1.4189
  498MOL0     H67190   0.905   6.151  10.140 -1.2799 -2.3322 -2.1371
  498MOL0     H67191   0.852   6.282  10.337  0.1117 -1.2634  1.7167
  498MOL0     H67192   0.673   6.238  10.817 -1.2473  0.2850 -1.4790
  498MOL0     H67193   0.688   6.354  11.034  1.3719 -1.6725 -0.2070
  498MOL0     H67194   0.578   6.627  11.088 -0.3176 -1.1583  1.1353
  498MOL0     H67195   0.651   6.521  11.197 -2.2547  0.2655  0.7511
  498MOL0     H67196   0.655   6.822  11.208  1.1680  0.9720  2.6436
  498MOL0     H67197   0.586   6.715  11.326  2.5271  0.1952  2.3739
  498MOL0     H67198   0.797   6.687  11.431 -1.3854  0.0984 -0.3415
  498MOL0     H67199   0.879   6.673  11.274 -0.6451  1.3155 -2.5469
  498MOL0     H67200   0.938   6.896  11.382  0.9915 -2.2644 -0.0732
  498MOL0     H67201   0.766   6.952  11.361 -0.6460 -0.3281 -1.2498
  498MOL0     H67202   0.810   6.911  11.113  1.5717 -2.1930 -0.8777
  498MOL0     H67203   0.968   6.851  11.151  1.6005  0.5306  1.8438
  498MOL0     H67204   0.851   7.116  11.224  1.1675  0.6545  2.0573
  498MOL0     H67205   1.032   7.070  11.241  0.8163 -0.5342 -1.4951
  498MOL0     H67206   0.905   7.054  10.966  0.2192 -2.0329  0.3894
  498MOL0     H67207   1.076   7.052  11.030  0.1109 -0.4083  1.0861
  498MOL0     H67208   1.051   7.291  11.110 -0.1704  2.5253 -1.6113
  498MOL0     H67209   1.039   7.265  10.940 -1.4165  2.3496  0.0973
  498MOL0     H67210   0.855   6.690  10.843  1.9864 -1.7118 -0.3343
  498MOL0     H67211   0.851   6.586  10.625  0.0482  0.4670  0.6029
  498MOL0     H67212   0.512   6.032  10.424 -0.7143  2.1759  0.7548
  498MOL0     H67213   0.559   5.906  10.219  2.4656 -1.7347 -1.6632
  498MOL0     H67214   0.896   4.643   9.690 -0.5805 -1.7719  0.7540
  498MOL0     H67215   0.721   4.493   9.736  3.7393  2.3848  1.5622
  498MOL0     H67216   0.296   4.421   9.500  1.7323 -0.4646  1.3908
  498MOL0     H67217   0.117   4.244   9.469  2.4403  2.0996 -0.6648
  498MOL0     H67218  -0.220   4.302   9.745  0.9400 -1.0165  3.1556
  498MOL0     H67219  -0.168   4.135   9.807 -1.5997 -1.6481  0.2796
  498MOL0     H67220  -0.394   4.116   9.740  0.1614 -0.8594  0.8908
  498MOL0     H67221  -0.278   4.035   9.632  0.0562  0.3716 -1.4145
  498MOL0     H67222  -0.299   4.274   9.512  1.3859  1.6762  2.9173
  498MOL0     H67223  -0.455   4.279   9.596 -0.4271 -0.7234  0.1970
  498MOL0     H67224  -0.494   4.169   9.360  1.6675  0.4380 -1.2451
  498MOL0     H67225  -0.377   4.047   9.397 -1.9278 -0.5925 -2.3973
  498MOL0     H67226  -0.694   3.873   9.570  1.7401 -2.3624  0.0315
  498MOL0     H67227  -0.019   4.316   9.861  1.3517  0.2010  2.2975
  498MOL0     H67228   0.112   4.409  10.015 -1.0795  2.0950  0.6875
  498MOL0     H67229   0.285   4.466   9.994 -0.1762  0.4125 -0.2721
  498MOL0     H67230   0.154   4.570   9.950  3.8021  1.3500 -1.3846
  499MOL0     O67231   4.403   5.424   7.815 -0.2305  0.8786  0.5092
  499MOL0     C67232   4.351   5.329   7.763  0.4717 -0.1673  0.2912
  499MOL0     O67233   4.388   5.199   7.776 -0.7639  0.1801 -0.3586
  499MOL0     C67234   4.516   5.171   7.846 -0.1940 -0.2752  0.6042
  499MOL0     C67235   4.632   5.154   7.776 -0.3027 -0.2624  1.0502
  499MOL0     C67236   4.749   5.114   7.836 -0.2224  0.7427  0.7305
  499MOL0     C67237   4.750   5.082   7.970  0.2377 -1.0957 -0.3888
  499MOL0     O67238   4.865   5.066   8.038 -0.0702 -0.0685 -0.2374
  499MOL0     C67239   4.991   5.036   7.976 -0.3003  0.1235 -0.1568
  499MOL0     C67240   5.092   5.026   8.092 -0.3357 -0.5906  1.5644
  499MOL0     C67241   5.107   4.880   8.147  0.6368  0.2194 -0.2443
  499MOL0     C67242   5.187   4.871   8.270 -0.4271 -0.1759  0.1823
  499MOL0     C67243   5.222   4.731   8.327  0.9302  0.1961  0.6599
  499MOL0     C67244   5.311   4.755   8.448 -0.9954 -0.0940 -0.3967
  499MOL0     C67245   5.241   4.822   8.557  0.0027  0.1876 -0.0169
  499MOL0     C67246   5.280   4.789   8.706  0.0586 -0.8155  0.0468
  499MOL0     N67247   5.399   4.866   8.743 -0.4097  0.4089  0.3794
  499MOL0     C67248   5.443   4.879   8.873 -0.1347 -1.3412  0.3459
  499MOL0     C67249   5.550   4.961   8.866 -0.4266  1.3459  0.1505
  499MOL0     C67250   5.625   5.006   8.990  0.1008 -0.2847 -0.1253
  499MOL0     C67251   5.756   5.073   8.947 -0.2586 -0.5915 -0.2217
  499MOL0     C67252   5.860   5.089   9.055  0.4621  0.2208 -0.2391
  499MOL0     C67253   5.990   5.148   8.992  0.0377  0.6609  0.7004
  499MOL0     O67254   5.969   5.275   8.926  0.2391  0.3364  0.0320
  499MOL0     C67255   6.080   5.349   8.929 -1.2859  0.6862  0.3629
  499MOL0     C67256   6.208   5.316   8.875 -0.2313 -0.4468  0.1016
  499MOL0     C67257   6.307   5.417   8.861 -0.1424 -0.4857  1.2505
  499MOL0     C67258   6.288   5.554   8.886 -0.2290 -0.1979 -0.1787
  499MOL0     C67259   6.394   5.649   8.873 -0.0277  0.4303 -0.3589
  499MOL0     O67260   6.502   5.600   8.812  0.0578  0.1371  1.1681
  499MOL0     C67261   6.624   5.676   8.820  0.6365  0.3652 -0.1623
  499MOL0     C67262   6.626   5.794   8.748  0.1874  0.1236 -0.1106
  499MOL0     C67263   6.739   5.876   8.759 -0.8609 -0.6783 -0.5601
  499MOL0     C67264   6.855   5.832   8.821  0.8027  0.4899  0.4686
  499MOL0     O67265   6.978   5.898   8.808  0.4144 -0.7027 -0.5939
  499MOL0     C67266   7.070   5.877   8.917  0.3448  0.1889  0.1644
  499MOL0     C67267   7.186   5.972   8.902  0.3589 -0.2813 -0.3325
  499MOL0     C67268   7.290   5.932   8.798 -0.9162 -0.6492 -0.5130
  499MOL0     C67269   7.379   5.825   8.863  0.4133 -0.1430 -0.1596
  499MOL0     C67270   7.491   5.766   8.773  1.0445 -0.5964  0.6649
  499MOL0     C67271   7.617   5.852   8.774  0.2551 -0.0132  0.0552
  499MOL0     C67272   7.739   5.767   8.740  0.1286 -0.2431 -0.0319
  499MOL0     C67273   7.864   5.831   8.794 -0.3657 -1.0711 -0.2926
  499MOL0    Cl67274   8.009   5.750   8.721 -0.1680 -0.1951  0.0134
  499MOL0     C67275   6.846   5.706   8.893 -0.0661 -0.6894 -0.2255
  499MOL0     C67276   6.730   5.628   8.883  0.1433 -0.0413 -0.1301
  499MOL0     O67277   6.370   5.764   8.897 -0.6776  0.5272 -0.2139
  499MOL0     C67278   6.167   5.583   8.942 -0.3077 -0.0387 -0.3390
  499MOL0     C67279   6.070   5.489   8.959 -0.2016  0.5064  0.6646
  499MOL0     N67280   5.571   4.995   8.734 -0.9915 -0.3081  0.5965
  499MOL0     N67281   5.475   4.949   8.658 -0.3013 -0.7656 -0.7058
  499MOL0     C67282   4.627   5.097   8.048 -1.1394 -0.3981 -0.9930
  499MOL0     C67283   4.505   5.127   7.979  0.0176  1.2173  0.0862
  499MOL0     C67284   4.218   5.340   7.693  0.7310 -0.2368 -0.4633
  499MOL0     C67285   4.167   5.232   7.616 -0.1080  1.0728 -0.1509
  499MOL0     C67286   4.048   5.240   7.540  0.0391  0.6933  0.3054
  499MOL0     C67287   3.962   5.350   7.555  0.4295  0.3193  1.0606
  499MOL0     O67288   3.835   5.359   7.494 -0.1901  0.3171  0.3458
  499MOL0     C67289   3.730   5.434   7.550  1.3610 -0.3488 -0.2912
  499MOL0     C67290   3.598   5.390   7.493 -0.1958  0.3543  0.4721
  499MOL0     C67291   3.548   5.266   7.572  0.0743 -0.1078  0.5108
  499MOL0     C67292   3.474   5.165   7.489  0.8839  0.3067  0.2282
  499MOL0     C67293   3.344   5.200   7.431  0.6971  0.5030  0.0064
  499MOL0     C67294   3.239   5.242   7.402  1.2408  0.7763 -0.5989
  499MOL0     C67295   4.010   5.459   7.622  0.9652  0.3895  0.3571
  499MOL0     C67296   4.134   5.463   7.694 -0.8176 -0.0878 -0.3047
  499MOL0     C67297   4.166   5.601   7.754  0.3714  0.3651 -0.6020
  499MOL0     H67298   4.633   5.182   7.671  0.8793  0.6577  1.2834
  499MOL0     H67299   4.844   5.105   7.785 -1.7634  0.9704 -2.4148
  499MOL0     H67300   4.980   4.941   7.923  0.5141  0.0942 -0.2847
  499MOL0     H67301   5.014   5.110   7.899 -3.4422  1.2835 -0.1146
  499MOL0     H67302   5.067   5.102   8.167 -0.4191  2.4779 -1.3204
  499MOL0     H67303   5.189   5.055   8.049 -2.8756  5.8110 -1.1338
  499MOL0     H67304   5.155   4.820   8.069 -0.5449  1.1199 -1.7189
  499MOL0     H67305   5.010   4.832   8.161 -0.8154  2.9908 -0.1684
  499MOL0     H67306   5.285   4.910   8.242 -0.3136 -1.4943 -1.3856
  499MOL0     H67307   5.138   4.929   8.349 -1.0395 -2.0595  1.2547
  499MOL0     H67308   5.127   4.684   8.356 -0.1998  1.4857 -0.7692
  499MOL0     H67309   5.264   4.672   8.245  0.4393  0.5105  0.1734
  499MOL0     H67310   5.334   4.654   8.482 -1.2842  0.3596  1.2327
  499MOL0     H67311   5.405   4.797   8.409 -0.2903 -1.7324 -0.5220
  499MOL0     H67312   5.136   4.792   8.546 -0.9263  2.7111  1.1327
  499MOL0     H67313   5.230   4.931   8.550 -2.7698  0.1539  1.9537
  499MOL0     H67314   5.200   4.808   8.777 -0.7809 -1.9822 -0.5502
  499MOL0     H67315   5.313   4.684   8.709 -0.8978 -1.0907  1.8398
  499MOL0     H67316   5.406   4.836   8.966 -1.4874 -2.2697 -0.6061
  499MOL0     H67317   5.561   5.074   9.048  0.2349  0.7206 -1.1254
  499MOL0     H67318   5.637   4.917   9.052 -1.5194 -0.5960 -0.2036
  499MOL0     H67319   5.805   5.026   8.861  0.8779 -1.1083  0.6834
  499MOL0     H67320   5.732   5.174   8.912  0.7776 -0.0946  0.4534
  499MOL0     H67321   5.868   4.992   9.106  2.7410  0.2179 -0.5010
  499MOL0     H67322   5.828   5.165   9.127 -2.1034  0.5742 -1.6423
  499MOL0     H67323   6.028   5.081   8.913  1.0403  1.8139  0.1689
  499MOL0     H67324   6.061   5.153   9.075  1.0247 -2.9640  0.2835
  499MOL0     H67325   6.233   5.216   8.842 -0.2178 -0.5276  0.3557
  499MOL0     H67326   6.398   5.388   8.810 -0.8960  0.3149 -0.6375
  499MOL0     H67327   6.529   5.816   8.706  0.0205  2.1536  1.1956
  499MOL0     H67328   6.748   5.972   8.710 -1.9046 -0.3208 -0.0661
  499MOL0     H67329   7.023   5.895   9.015 -2.0357 -0.9488 -0.6745
  499MOL0     H67330   7.103   5.774   8.908  0.8371  0.5051 -2.2301
  499MOL0     H67331   7.139   6.069   8.886 -1.4468 -0.8554  1.0842
  499MOL0     H67332   7.242   5.992   8.994 -0.3598  0.9614 -0.1464
  499MOL0     H67333   7.229   5.897   8.714  0.1520 -2.4550 -0.5970
  499MOL0     H67334   7.359   6.014   8.776  1.3821 -0.9711  4.1353
  499MOL0     H67335   7.310   5.741   8.879  0.5176 -0.5180 -1.5539
  499MOL0     H67336   7.420   5.850   8.961 -0.5624  1.5081 -0.1357
  499MOL0     H67337   7.452   5.756   8.671  3.1999  0.7358 -0.3696
  499MOL0     H67338   7.509   5.662   8.802  2.9282 -0.9348 -1.4630
  499MOL0     H67339   7.603   5.937   8.708 -0.4251 -0.0157  0.1913
  499MOL0     H67340   7.641   5.890   8.874 -0.2752 -1.7450  0.8798
  499MOL0     H67341   7.743   5.756   8.631  0.3146 -2.8616  0.1579
  499MOL0     H67342   7.730   5.664   8.777 -2.4899  0.1518  0.6196
  499MOL0     H67343   7.865   5.937   8.766 -3.0199 -0.1730  2.4796
  499MOL0     H67344   7.858   5.836   8.903 -1.0861  0.6781 -0.3771
  499MOL0     H67345   6.925   5.656   8.949  0.2488  0.0313 -0.0131
  499MOL0     H67346   6.722   5.535   8.939 -2.0874  1.2297  1.8679
  499MOL0     H67347   6.138   5.685   8.968  0.0169  0.6768 -2.5944
  499MOL0     H67348   5.975   5.527   8.995  0.7078  3.0257  0.5578
  499MOL0     H67349   4.627   5.073   8.153 -1.5533 -0.7497 -1.0709
  499MOL0     H67350   4.420   5.140   8.045 -0.9862 -0.5863 -0.7827
  499MOL0     H67351   4.222   5.140   7.607 -3.1458 -0.9652  0.4871
  499MOL0     H67352   4.019   5.155   7.479  1.9818 -0.7739  1.3291
  499MOL0     H67353   3.744   5.541   7.536  0.5721 -0.2923 -0.7143
  499MOL0     H67354   3.727   5.427   7.659 -1.2396  1.3434 -0.1550
  499MOL0     H67355   3.618   5.366   7.389 -2.2773 -1.2583  0.3746
  499MOL0     H67356   3.532   5.476   7.509 -0.4850  0.3970 -0.8336
  499MOL0     H67357   3.487   5.289   7.660  1.8298 -1.1431  2.0628
  499MOL0     H67358   3.633   5.217   7.621 -0.4514 -1.9004 -0.2563
  499MOL0     H67359   3.544   5.138   7.409  2.7450  1.2042  1.4650
  499MOL0     H67360   3.448   5.078   7.550 -1.8845  1.7031  1.1934
  499MOL0     H67361   3.150   5.298   7.382 -0.4041 -1.6379 -0.4731
  499MOL0     H67362   3.954   5.550   7.642  1.4482  1.2289 -1.8767
  499MOL0     H67363   4.129   5.582   7.855  0.9456  1.9197 -0.0548
  499MOL0     H67364   4.273   5.626   7.751  1.0570 -2.0762  1.1171
  499MOL0     H67365   4.110   5.685   7.712 -1.3336 -0.0960  0.6847
  500MOL0     O67366   5.115   2.737   5.360  0.3125  1.0229 -0.5256
  500MOL0     C67367   5.118   2.756   5.481  0.3117  0.4474  0.2797
  500MOL0     O67368   5.227   2.735   5.560  0.0906  0.6159 -0.2282
  500MOL0     C67369   5.355   2.760   5.509 -0.6283 -0.9355 -0.1594
  500MOL0     C67370   5.380   2.866   5.422 -0.5625 -0.6236 -0.3602
  500MOL0     C67371   5.509   2.885   5.372 -0.2727 -0.3317 -0.5981
  500MOL0     C67372   5.614   2.797   5.404 -0.4860  0.1933  0.0733
  500MOL0     O67373   5.736   2.790   5.339  0.4052 -0.5550  0.2947
  500MOL0     C67374   5.755   2.866   5.223 -1.3692  0.2081  0.9774
  500MOL0     C67375   5.892   2.830   5.168  0.7276 -0.1092 -0.7787
  500MOL0     C67376   6.005   2.853   5.268 -0.2999  0.0826 -0.1444
  500MOL0     C67377   6.138   2.854   5.190  0.1961  1.4334  0.5950
  500MOL0     C67378   6.165   2.725   5.101 -0.5570 -0.1700 -0.4251
  500MOL0     C67379   6.318   2.721   5.076  0.7157 -0.2123 -0.7715
  500MOL0     C67380   6.348   2.606   4.970 -0.1490 -0.4264 -0.1330
  500MOL0     C67381   6.483   2.612   4.898  0.2168  0.9235 -0.0451
  500MOL0     N67382   6.598   2.570   4.985 -0.0459  0.1537 -0.4601
  500MOL0     C67383   6.658   2.448   4.982 -0.0321  0.8726  0.3198
  500MOL0     C67384   6.789   2.462   5.014  0.0466 -0.5112  0.2394
  500MOL0     C67385   6.890   2.355   4.995 -0.9956  0.8395 -0.2346
  500MOL0     C67386   6.906   2.255   5.123  0.1726  0.9466 -0.9390
  500MOL0     C67387   7.058   2.223   5.150 -0.1497  0.4556 -0.5855
  500MOL0     C67388   7.142   2.330   5.220 -0.3708  0.4755  0.6199
  500MOL0     O67389   7.271   2.348   5.163  0.5620 -0.7130  0.5102
  500MOL0     C67390   7.326   2.475   5.152 -0.0003  0.5445  0.1607
  500MOL0     C67391   7.455   2.477   5.077  0.0614 -0.3548 -0.0508
  500MOL0     C67392   7.521   2.600   5.068 -0.0725 -0.1784 -0.3294
  500MOL0     C67393   7.479   2.713   5.146 -0.6567 -0.1090 -0.0721
  500MOL0     C67394   7.558   2.844   5.155 -0.5651  0.6417  0.0358
  500MOL0     O67395   7.509   2.956   5.230 -0.3036  0.2514 -0.4152
  500MOL0     C67396   7.585   3.063   5.251  0.3111  0.4103 -0.5511
  500MOL0     C67397   7.558   3.126   5.369  0.6720 -0.1066  0.5825
  500MOL0     C67398   7.608   3.246   5.408  0.3761  0.5225  0.3351
  500MOL0     C67399   7.696   3.321   5.329 -0.3078  1.0050 -0.0765
  500MOL0     O67400   7.740   3.441   5.369  0.1991  0.1990  0.5337
  500MOL0     C67401   7.869   3.418   5.419 -0.7673  0.8803  0.7361
  500MOL0     C67402   7.923   3.555   5.466  0.0749  0.7156  0.1812
  500MOL0     C67403   7.820   3.638   5.549  0.3357 -1.5166  0.3740
  500MOL0     C67404   7.899   3.748   5.632  0.4301  0.8659  0.6247
  500MOL0     C67405   7.864   3.736   5.776  0.5894  0.7293  0.0050
  500MOL0     C67406   7.941   3.844   5.853 -0.4979  0.2466 -0.3230
  500MOL0     C67407   7.880   3.866   5.999 -0.1900 -0.7063 -0.0484
  500MOL0     C67408   7.918   3.998   6.059  0.3455 -0.0588 -0.2512
  500MOL0    Cl67409   8.095   3.989   6.098 -0.1956  0.1485  0.2114
  500MOL0     C67410   7.743   3.254   5.210 -0.6206  0.0693 -0.4375
  500MOL0     C67411   7.676   3.134   5.169 -0.1779 -0.3518 -0.4525
  500MOL0     O67412   7.666   2.847   5.098  0.5294 -0.0415 -0.3338
  500MOL0     C67413   7.360   2.708   5.220 -0.2129 -0.5613  0.1947
  500MOL0     C67414   7.279   2.593   5.221  0.4045 -0.0319  1.0135
  500MOL0     N67415   6.806   2.593   5.041  0.5996  0.4290  0.3354
  500MOL0     N67416   6.694   2.659   5.019 -1.1287  0.4380 -0.3923
  500MOL0     C67417   5.588   2.694   5.502  0.2060  0.8067  0.9778
  500MOL0     C67418   5.456   2.676   5.556  0.2001  0.3163  1.0006
  500MOL0     C67419   4.993   2.795   5.553 -0.2448  0.0599 -0.2972
  500MOL0     C67420   4.996   2.823   5.685 -0.0231 -0.5616  0.4560
  500MOL0     C67421   4.884   2.854   5.760 -0.2787 -0.0524 -0.1928
  500MOL0     C67422   4.752   2.868   5.709 -0.4742  0.5978  0.1476
  500MOL0     O67423   4.646   2.923   5.784 -0.4118  0.2711  0.3301
  500MOL0     C67424   4.609   3.046   5.717 -0.9510  0.0110 -0.2975
  500MOL0     C67425   4.552   3.147   5.824 -0.1233 -0.1327  0.1121
  500MOL0     C67426   4.450   3.242   5.771  0.1409  0.3468  0.1321
  500MOL0     C67427   4.325   3.188   5.680 -0.7388 -0.7041  0.0845
  500MOL0     C67428   4.253   3.082   5.746  0.2995  0.5458  0.0334
  500MOL0     C67429   4.194   2.984   5.782  0.0006  0.0554 -0.8697
  500MOL0     C67430   4.755   2.850   5.573  0.1404  1.0181  0.1794
  500MOL0     C67431   4.860   2.808   5.503  0.3589 -0.1451  0.9314
  500MOL0     C67432   4.836   2.798   5.355  0.1246 -0.3370  0.4652
  500MOL0     H67433   5.298   2.932   5.396 -0.7156 -0.9457 -0.7149
  500MOL0     H67434   5.525   2.966   5.302  3.6014  0.2143  0.6502
  500MOL0     H67435   5.681   2.837   5.148 -0.5968 -0.4283  0.4368
  500MOL0     H67436   5.753   2.973   5.244 -1.8601  0.4162 -0.0662
  500MOL0     H67437   5.909   2.904   5.089 -2.5459  4.3167  2.2501
  500MOL0     H67438   5.901   2.729   5.125 -0.9841 -0.7954  0.3913
  500MOL0     H67439   5.999   2.765   5.333  0.4288  0.6966  0.7801
  500MOL0     H67440   5.986   2.945   5.323  2.2942  0.3694  0.3854
  500MOL0     H67441   6.149   2.946   5.132 -1.9505  1.4523  0.1410
  500MOL0     H67442   6.216   2.855   5.267 -0.4962  1.0970  1.3196
  500MOL0     H67443   6.119   2.637   5.147  0.2533 -0.1258  0.5004
  500MOL0     H67444   6.104   2.748   5.014 -3.0487  0.5898  1.4119
  500MOL0     H67445   6.350   2.818   5.038 -1.6315  1.1457  0.4824
  500MOL0     H67446   6.382   2.711   5.163  0.6702  0.1410 -0.6968
  500MOL0     H67447   6.274   2.609   4.890  0.6534 -0.6338 -0.9006
  500MOL0     H67448   6.340   2.509   5.021 -2.8273  0.0799  0.5914
  500MOL0     H67449   6.482   2.548   4.809 -2.5600  1.8035 -0.7441
  500MOL0     H67450   6.496   2.715   4.865  0.3434  0.8394 -0.2601
  500MOL0     H67451   6.615   2.358   4.940 -0.5299  1.4538 -0.4550
  500MOL0     H67452   6.877   2.294   4.905 -1.5656  0.0281  0.3872
  500MOL0     H67453   6.985   2.407   4.980  0.5399 -1.2684  1.5780
  500MOL0     H67454   6.870   2.301   5.215  0.4783 -2.3623  0.9898
  500MOL0     H67455   6.851   2.161   5.118 -0.4499  0.9953  2.5436
  500MOL0     H67456   7.109   2.199   5.056  1.3257 -1.1083  0.5539
  500MOL0     H67457   7.054   2.134   5.213 -1.3400  0.8074 -0.1363
  500MOL0     H67458   7.167   2.300   5.322  1.6384 -0.9806 -0.2389
  500MOL0     H67459   7.086   2.424   5.223 -0.2601  0.5418  3.3693
  500MOL0     H67460   7.498   2.390   5.028  0.0996 -0.6117  0.4326
  500MOL0     H67461   7.607   2.609   5.002 -1.1139  0.9110 -1.5917
  500MOL0     H67462   7.482   3.077   5.430  1.0815 -2.0619 -0.4095
  500MOL0     H67463   7.578   3.287   5.504  1.4638 -2.3542  2.0135
  500MOL0     H67464   7.862   3.353   5.507 -2.2429  0.3277  0.2400
  500MOL0     H67465   7.934   3.384   5.338 -2.9143  0.6612 -0.9608
  500MOL0     H67466   8.015   3.550   5.524 -1.1424  0.7397  2.2155
  500MOL0     H67467   7.946   3.606   5.372 -0.2406 -0.3527 -0.4981
  500MOL0     H67468   7.759   3.702   5.486  0.3963 -0.7474  1.0790
  500MOL0     H67469   7.759   3.578   5.617  3.5433 -0.8077  4.2711
  500MOL0     H67470   7.889   3.850   5.593  0.2671 -0.1560 -2.3081
  500MOL0     H67471   8.007   3.728   5.624 -0.1537 -2.4432 -0.6839
  500MOL0     H67472   7.892   3.634   5.805 -3.5781 -0.9107 -0.9712
  500MOL0     H67473   7.756   3.754   5.785  0.0304 -1.7318 -0.9814
  500MOL0     H67474   8.048   3.821   5.855 -1.0191 -3.0481 -2.3200
  500MOL0     H67475   7.928   3.937   5.797 -5.2570 -1.4094 -2.5138
  500MOL0     H67476   7.903   3.789   6.074  0.5882  0.2603  0.7359
  500MOL0     H67477   7.771   3.858   5.988 -0.2241 -0.9721  0.4293
  500MOL0     H67478   7.902   4.082   5.991 -1.5242  0.4485  0.7308
  500MOL0     H67479   7.864   4.022   6.151  0.9702  2.2033 -0.4089
  500MOL0     H67480   7.814   3.289   5.136  0.8195 -1.2897  0.2450
  500MOL0     H67481   7.701   3.100   5.069 -0.8284 -2.1845 -0.0175
  500MOL0     H67482   7.340   2.794   5.284 -2.6847 -0.9139  0.0023
  500MOL0     H67483   7.178   2.599   5.260 -1.0979  0.7549 -2.5722
  500MOL0     H67484   5.662   2.626   5.541  0.1717 -0.9700 -1.7859
  500MOL0     H67485   5.441   2.600   5.633 -3.3351  0.0983  0.2675
  500MOL0     H67486   5.090   2.807   5.736  0.4005 -0.8478 -0.4048
  500MOL0     H67487   4.897   2.855   5.868  2.1185  1.2720 -0.4030
  500MOL0     H67488   4.535   3.021   5.640 -1.8002  0.3232  0.4066
  500MOL0     H67489   4.686   3.096   5.657 -0.7894  0.2573  0.1124
  500MOL0     H67490   4.638   3.203   5.863 -0.4646  1.4636 -1.2890
  500MOL0     H67491   4.501   3.090   5.902 -1.8004 -2.2343 -2.3505
  500MOL0     H67492   4.500   3.322   5.717  0.6324 -0.5070 -0.7143
  500MOL0     H67493   4.396   3.291   5.852 -0.5940 -1.1530  0.5863
  500MOL0     H67494   4.260   3.273   5.658 -1.3839 -1.3584 -0.5819
  500MOL0     H67495   4.368   3.157   5.585  0.7463  2.2198 -0.3068
  500MOL0     H67496   4.139   2.907   5.832  0.5106  1.6836  2.5097
  500MOL0     H67497   4.659   2.847   5.524 -0.5688  0.6637  1.5268
  500MOL0     H67498   4.871   2.705   5.309  0.1669 -0.1297  0.0752
  500MOL0     H67499   4.730   2.799   5.328  0.7534  2.4636 -2.4068
  500MOL0     H67500   4.879   2.875   5.290  0.4804 -1.1714 -0.3136
  501MOL0     O67501  11.289   8.345   6.797  0.3616  0.0067 -0.1432
  501MOL0     C67502  11.180   8.354   6.747 -0.5398  0.1815 -0.1667
  501MOL0     O67503  11.077   8.278   6.784 -0.2619  0.0808 -0.0351
  501MOL0     C67504  11.080   8.197   6.889  0.9350  1.2419 -0.0217
  501MOL0     C67505  11.126   8.228   7.016  1.6441 -0.4082  0.3297
  501MOL0     C67506  11.095   8.157   7.131 -0.5575  0.4748  1.2100
  501MOL0     C67507  10.998   8.051   7.117 -0.0607 -1.1183 -0.3339
  501MOL0     O67508  10.965   7.991   7.235 -0.0343  0.3132  0.4565
  501MOL0     C67509  10.911   7.864   7.232 -0.7458 -0.5446 -0.1434
  501MOL0     C67510  10.864   7.814   7.368  0.1406  0.6842  0.1253
  501MOL0     C67511  10.727   7.855   7.425  0.5057 -0.5408 -0.2626
  501MOL0     C67512  10.721   7.829   7.578  0.0723  0.1510 -0.9863
  501MOL0     C67513  10.588   7.852   7.645  0.8057  0.2104 -0.9455
  501MOL0     C67514  10.604   7.807   7.787 -0.3423  0.4244 -0.5487
  501MOL0     C67515  10.492   7.877   7.871  0.2221  0.2657  0.2893
  501MOL0     C67516  10.361   7.793   7.857  0.1574 -0.4089 -0.7773
  501MOL0     N67517  10.290   7.769   7.724 -0.5767  0.5289  0.2414
  501MOL0     C67518  10.254   7.656   7.671 -0.0155 -0.4030  0.4091
  501MOL0     C67519  10.212   7.682   7.543  0.8528 -0.4144 -1.2322
  501MOL0     C67520  10.166   7.579   7.454  0.0145  0.0173  0.8550
  501MOL0     C67521  10.269   7.465   7.432  0.4038  1.0503  0.1073
  501MOL0     C67522  10.210   7.341   7.346  0.2856 -0.1204 -0.0240
  501MOL0     C67523  10.296   7.306   7.226 -0.3894 -0.8827 -0.1374
  501MOL0     O67524  10.262   7.171   7.164 -0.0136 -0.3333 -0.5115
  501MOL0     C67525  10.346   7.116   7.066  0.3414  0.4629 -0.1329
  501MOL0     C67526  10.463   7.177   7.017  0.3281  0.1832 -0.0001
  501MOL0     C67527  10.549   7.117   6.923  0.0449 -0.3254 -0.3770
  501MOL0     C67528  10.537   6.987   6.893  0.7040  0.3084 -0.9609
  501MOL0     C67529  10.633   6.923   6.811 -0.3545 -0.0360 -0.3510
  501MOL0     O67530  10.737   6.997   6.772 -0.3239 -0.9482 -0.1689
  501MOL0     C67531  10.826   6.939   6.682 -0.2178  1.1904 -0.7167
  501MOL0     C67532  10.912   6.840   6.733 -0.8931 -0.2745  0.2034
  501MOL0     C67533  11.015   6.784   6.655  0.1145  0.0267 -0.0201
  501MOL0     C67534  11.038   6.840   6.530  0.6187  0.0743 -0.1722
  501MOL0     O67535  11.141   6.790   6.446 -0.1863 -0.6745 -0.1880
  501MOL0     C67536  11.271   6.821   6.492  0.4916  0.0727 -0.7460
  501MOL0     C67537  11.378   6.798   6.389  0.3627 -0.3021  0.7382
  501MOL0     C67538  11.364   6.899   6.277 -0.4057 -0.1485 -1.3150
  501MOL0     C67539  11.469   6.880   6.168 -1.4241  1.0188  0.4958
  501MOL0     C67540  11.470   6.988   6.062 -0.6032 -0.8526  0.4677
  501MOL0     C67541  11.592   6.981   5.969  0.4696  0.8693 -0.1285
  501MOL0     C67542  11.621   6.844   5.902  0.5556  0.2141 -0.5098
  501MOL0     C67543  11.515   6.836   5.785  0.2102 -1.2561  0.0132
  501MOL0    Cl67544  11.584   6.904   5.648 -0.1353 -0.0909  0.1495
  501MOL0     C67545  10.953   6.931   6.476  0.2555  0.0460 -0.5408
  501MOL0     C67546  10.850   6.986   6.552  0.0369 -0.3246  0.3059
  501MOL0     O67547  10.614   6.800   6.797  0.6737 -0.1400  0.6579
  501MOL0     C67548  10.422   6.920   6.942  0.4727 -1.1793  0.4820
  501MOL0     C67549  10.336   6.980   7.035  0.4771  0.1566 -0.3831
  501MOL0     N67550  10.208   7.824   7.529  0.2546 -0.2185 -0.0039
  501MOL0     N67551  10.248   7.872   7.640 -0.5637  0.4532 -0.7382
  501MOL0     C67552  10.960   8.008   6.991 -0.6230 -1.2883  0.0875
  501MOL0     C67553  11.000   8.074   6.875 -0.2293 -0.0208  0.4331
  501MOL0     C67554  11.167   8.451   6.632  0.1170  0.4775 -0.4425
  501MOL0     C67555  11.272   8.548   6.611  0.8733 -0.2434 -0.0446
  501MOL0     C67556  11.266   8.635   6.497 -0.3063 -0.5678 -0.7529
  501MOL0     C67557  11.167   8.631   6.406  1.1398  0.7822 -0.4308
  501MOL0     O67558  11.179   8.724   6.306  0.1365  0.1328  0.0147
  501MOL0     C67559  11.064   8.738   6.219 -0.4389  0.2190  0.7913
  501MOL0     C67560  11.103   8.845   6.118 -0.7037  0.0673 -0.5107
  501MOL0     C67561  11.029   8.814   5.985  0.6106  0.1359 -0.9858
  501MOL0     C67562  11.075   8.922   5.886  0.6132 -0.8845 -0.4348
  501MOL0     C67563  11.017   8.909   5.750 -0.7263  0.2595 -0.8247
  501MOL0     C67564  10.980   8.906   5.639  0.0263  0.4975  0.3729
  501MOL0     C67565  11.073   8.531   6.419 -0.7412 -0.3840 -0.8334
  501MOL0     C67566  11.059   8.448   6.536 -0.1476  0.5217 -0.6302
  501MOL0     C67567  10.940   8.360   6.542  0.6215  0.0632  0.4077
  501MOL0     H67568  11.191   8.315   7.021  2.0837 -0.3095 -3.6434
  501MOL0     H67569  11.121   8.170   7.236 -1.2586  0.0185  1.4556
  501MOL0     H67570  10.824   7.871   7.165 -2.0382  2.4119  1.6573
  501MOL0     H67571  10.979   7.786   7.196 -1.2635 -0.3891 -1.5097
  501MOL0     H67572  10.945   7.840   7.436  0.9972 -2.6692  0.5749
  501MOL0     H67573  10.864   7.705   7.363  1.3787  0.6959 -0.6568
  501MOL0     H67574  10.649   7.805   7.367  0.6148 -0.9425 -0.0656
  501MOL0     H67575  10.714   7.964   7.422 -1.5129 -0.6269  1.9779
  501MOL0     H67576  10.756   7.726   7.586 -0.8088 -0.1470 -0.9786
  501MOL0     H67577  10.779   7.908   7.626 -1.9730  1.7318 -0.9763
  501MOL0     H67578  10.563   7.959   7.643  1.0246  0.4104  2.4033
  501MOL0     H67579  10.506   7.805   7.591  0.2209  0.7449 -0.5398
  501MOL0     H67580  10.593   7.699   7.801  1.8762  0.2759  0.4273
  501MOL0     H67581  10.698   7.838   7.834 -0.7987  0.0968  0.6167
  501MOL0     H67582  10.480   7.981   7.841  1.5778  1.3174  2.9940
  501MOL0     H67583  10.514   7.880   7.979 -0.4865 -0.6261  0.4686
  501MOL0     H67584  10.383   7.695   7.901 -0.7958 -0.4417 -0.3547
  501MOL0     H67585  10.281   7.843   7.912  0.4858 -0.4399 -0.2690
  501MOL0     H67586  10.259   7.556   7.715  0.1805 -0.7291 -0.3437
  501MOL0     H67587  10.079   7.529   7.499  0.3419 -2.4419 -1.0381
  501MOL0     H67588  10.154   7.633   7.360 -0.6909  1.4322  1.7355
  501MOL0     H67589  10.356   7.506   7.379 -0.6038 -1.3507 -3.8528
  501MOL0     H67590  10.305   7.421   7.525  0.2458  1.9280  0.5925
  501MOL0     H67591  10.108   7.365   7.317  0.5883 -0.8821 -1.8761
  501MOL0     H67592  10.206   7.257   7.416  2.5619 -0.5661 -0.3362
  501MOL0     H67593  10.401   7.312   7.259 -0.5115  0.3444  0.0930
  501MOL0     H67594  10.280   7.382   7.149 -0.7729  0.4041  1.1692
  501MOL0     H67595  10.470   7.281   7.044  3.1054  0.5313 -1.7041
  501MOL0     H67596  10.634   7.179   6.897  0.4545 -1.9439 -3.2576
  501MOL0     H67597  10.898   6.800   6.832  0.1096  0.3665  0.6226
  501MOL0     H67598  11.083   6.707   6.690  0.7590  1.4581  2.0538
  501MOL0     H67599  11.280   6.925   6.526 -1.6588 -0.0535  0.4452
  501MOL0     H67600  11.303   6.748   6.567  1.7494 -0.0283 -1.3716
  501MOL0     H67601  11.480   6.817   6.424  0.8114  4.6919 -2.1734
  501MOL0     H67602  11.368   6.698   6.346 -2.9056  0.0359  0.4479
  501MOL0     H67603  11.261   6.904   6.241 -0.9601  1.6774  0.3726
  501MOL0     H67604  11.393   6.992   6.325  1.4783 -0.9365 -0.8244
  501MOL0     H67605  11.448   6.782   6.123 -4.5510  1.1332  1.4845
  501MOL0     H67606  11.572   6.872   6.205 -1.6270 -0.8081  0.7569
  501MOL0     H67607  11.474   7.085   6.112  1.7413 -0.9823  0.6670
  501MOL0     H67608  11.382   6.985   5.998 -0.4587 -1.3811  0.2817
  501MOL0     H67609  11.578   7.053   5.888  1.6053 -1.2397 -2.3424
  501MOL0     H67610  11.687   7.015   6.012  0.0844  2.9806 -0.8285
  501MOL0     H67611  11.618   6.770   5.981 -2.1521  0.8749  0.0880
  501MOL0     H67612  11.720   6.845   5.855  0.4263  2.5446 -0.8476
  501MOL0     H67613  11.489   6.735   5.752  1.5953  0.2341 -7.1476
  501MOL0     H67614  11.424   6.896   5.799  1.4350  1.1460 -1.5552
  501MOL0     H67615  10.954   6.962   6.372  0.9024 -3.0042 -1.5378
  501MOL0     H67616  10.791   7.070   6.516 -0.0549 -0.7976 -0.6628
  501MOL0     H67617  10.420   6.811   6.942 -1.9021 -1.2769  3.6705
  501MOL0     H67618  10.253   6.926   7.079 -0.0032 -0.0101 -1.4463
  501MOL0     H67619  10.896   7.922   6.974 -1.1023 -0.6817 -1.2872
  501MOL0     H67620  10.962   8.047   6.777  0.8378  0.1086 -0.0319
  501MOL0     H67621  11.370   8.542   6.658  0.5901 -0.7827  0.4807
  501MOL0     H67622  11.346   8.703   6.468  0.5643 -2.2281 -2.4632
  501MOL0     H67623  10.971   8.758   6.274 -1.1232 -1.1105  0.1632
  501MOL0     H67624  11.049   8.643   6.168 -1.5457  1.9937 -2.5141
  501MOL0     H67625  11.212   8.845   6.110 -0.6966  1.2892 -0.5346
  501MOL0     H67626  11.080   8.944   6.158  1.4044  0.6532 -0.6339
  501MOL0     H67627  10.921   8.806   6.004  0.6733  3.1566  1.3022
  501MOL0     H67628  11.064   8.716   5.950 -1.1181  0.0320 -2.6319
  501MOL0     H67629  11.043   9.023   5.914  3.6348 -0.0856  0.5458
  501MOL0     H67630  11.184   8.930   5.888  0.5123  1.0991  0.8914
  501MOL0     H67631  10.941   8.891   5.541  0.9064  1.3448 -0.1259
  501MOL0     H67632  10.997   8.509   6.346 -0.2635 -1.3707 -1.0493
  501MOL0     H67633  10.874   8.362   6.454  0.3331  0.7781  0.6343
  501MOL0     H67634  10.972   8.258   6.566  0.1804  0.2842  2.0682
  501MOL0     H67635  10.867   8.388   6.619 -1.1983 -2.2228 -0.3501
  502MOL0     O67636   0.484   4.541   8.768 -0.6397  0.6552  0.5408
  502MOL0     C67637   0.543   4.536   8.658 -0.4100  0.5954 -0.2214
  502MOL0     O67638   0.495   4.509   8.529 -0.0974  0.4139 -0.3220
  502MOL0     C67639   0.359   4.493   8.520  0.2309 -0.6990  1.2061
  502MOL0     C67640   0.286   4.381   8.555  0.0565  0.6759  0.0448
  502MOL0     C67641   0.143   4.377   8.538  0.6800  0.7530 -0.5807
  502MOL0     C67642   0.070   4.475   8.475  0.1384 -1.0809  0.0534
  502MOL0     O67643  -0.063   4.447   8.450 -0.2169  0.8153  0.4669
  502MOL0     C67644  -0.151   4.551   8.407  0.2706 -0.2894 -0.9234
  502MOL0     C67645  -0.276   4.528   8.479 -0.2962 -0.0688  0.3821
  502MOL0     C67646  -0.373   4.418   8.416  0.5516 -0.0257  0.5650
  502MOL0     C67647  -0.438   4.465   8.288 -0.2948 -0.2099 -0.1003
  502MOL0     C67648  -0.529   4.351   8.227 -0.4132 -0.0872  0.0534
  502MOL0     C67649  -0.629   4.396   8.120  0.3631  0.4598 -0.5754
  502MOL0     C67650  -0.747   4.286   8.121 -1.1628 -0.3352 -0.3094
  502MOL0     C67651  -0.827   4.296   7.993  0.1049 -0.1621 -1.0369
  502MOL0     N67652  -0.746   4.237   7.889 -0.4562 -0.4509 -0.3465
  502MOL0     C67653  -0.679   4.312   7.796  0.5262  0.1431  0.3913
  502MOL0     C67654  -0.630   4.222   7.707 -1.0861 -0.0700  0.1148
  502MOL0     C67655  -0.555   4.246   7.575  0.2665 -0.5715 -1.0799
  502MOL0     C67656  -0.419   4.319   7.598  0.0627  0.0046  0.2729
  502MOL0     C67657  -0.309   4.212   7.606 -0.8312  1.1304 -0.1802
  502MOL0     C67658  -0.181   4.273   7.635  0.2047 -0.8958 -0.3734
  502MOL0     O67659  -0.183   4.320   7.769 -0.1055  0.0202 -0.0576
  502MOL0     C67660  -0.079   4.403   7.803 -0.0921  0.0426  0.3227
  502MOL0     C67661  -0.104   4.476   7.917  0.6926 -0.3548  0.4909
  502MOL0     C67662  -0.019   4.571   7.964 -0.3052  0.7506  0.2309
  502MOL0     C67663   0.106   4.584   7.897 -0.2806  0.1309 -0.3093
  502MOL0     C67664   0.204   4.690   7.938 -0.0677 -1.3102  1.3246
  502MOL0     O67665   0.271   4.766   7.839  0.1068  0.8304  0.4365
  502MOL0     C67666   0.362   4.859   7.876  0.2481  0.4681  0.0985
  502MOL0     C67667   0.501   4.848   7.885  0.0192 -0.1445  1.0249
  502MOL0     C67668   0.583   4.965   7.911  0.6149  0.1185  0.2308
  502MOL0     C67669   0.516   5.091   7.925  0.1367 -0.3539 -0.3554
  502MOL0     O67670   0.588   5.203   7.929 -0.1248  0.3142 -0.1927
  502MOL0     C67671   0.627   5.255   7.803  0.1066  0.6109 -0.5930
  502MOL0     C67672   0.730   5.367   7.818 -0.4869 -0.6441  0.9005
  502MOL0     C67673   0.728   5.435   7.680  0.6770  0.6893 -0.1033
  502MOL0     C67674   0.834   5.543   7.676 -0.1806 -0.2092 -0.1162
  502MOL0     C67675   0.842   5.587   7.536 -0.2378  0.4229  0.7467
  502MOL0     C67676   0.939   5.705   7.528 -0.0435 -0.0301  0.4498
  502MOL0     C67677   0.940   5.766   7.383  0.3623  0.5673 -0.1998
  502MOL0     C67678   1.020   5.900   7.381 -0.0519 -0.3573  0.3578
  502MOL0    Cl67679   1.190   5.906   7.336  0.2166 -0.2747  0.0211
  502MOL0     C67680   0.374   5.096   7.938  0.6349 -0.0008 -0.0067
  502MOL0     C67681   0.303   4.979   7.902 -0.2747 -0.1165  0.0146
  502MOL0     O67682   0.218   4.704   8.059  0.2103  0.1386  0.2316
  502MOL0     C67683   0.131   4.513   7.779 -0.2472  0.7457 -0.1669
  502MOL0     C67684   0.035   4.425   7.732  0.2673  0.2618 -0.6511
  502MOL0     N67685  -0.674   4.099   7.734  0.3020 -0.0380 -0.4352
  502MOL0     N67686  -0.749   4.109   7.841  0.0675  0.3041  0.0721
  502MOL0     C67687   0.138   4.592   8.433 -1.1272  0.0080 -0.0835
  502MOL0     C67688   0.283   4.598   8.459  0.2682 -0.5162  1.0473
  502MOL0     C67689   0.695   4.554   8.654  0.2223  0.0016 -0.1638
  502MOL0     C67690   0.747   4.627   8.547 -0.0814  0.7855  0.2486
  502MOL0     C67691   0.879   4.658   8.543  0.2477 -0.1319 -0.1298
  502MOL0     C67692   0.972   4.607   8.631 -0.2267 -0.0890 -0.4033
  502MOL0     O67693   1.104   4.646   8.614 -0.5451 -0.3042 -0.2900
  502MOL0     C67694   1.200   4.602   8.702 -0.4905  0.2411  0.0488
  502MOL0     C67695   1.321   4.696   8.693 -0.3934 -0.6181 -0.6840
  502MOL0     C67696   1.412   4.648   8.577  0.0872  0.0544  0.1284
  502MOL0     C67697   1.548   4.715   8.579  0.4576 -0.2912 -1.0188
  502MOL0     C67698   1.553   4.859   8.599  1.0375 -0.3245 -0.6436
  502MOL0     C67699   1.545   4.981   8.598  0.7232 -0.0149  0.2129
  502MOL0     C67700   0.918   4.528   8.739  0.4017 -0.0956  0.4353
  502MOL0     C67701   0.781   4.503   8.762 -0.1160 -0.0366 -0.1988
  502MOL0     C67702   0.739   4.420   8.885  0.1448 -0.1389 -0.0688
  502MOL0     H67703   0.333   4.299   8.609  1.5242  0.1415 -1.9234
  502MOL0     H67704   0.087   4.289   8.566 -2.7796  3.5396  2.2251
  502MOL0     H67705  -0.122   4.653   8.434 -3.3982  0.5057  0.7668
  502MOL0     H67706  -0.175   4.534   8.302  0.8317 -0.3037 -1.0512
  502MOL0     H67707  -0.329   4.622   8.461  0.3440  0.8551  2.9365
  502MOL0     H67708  -0.257   4.536   8.586  0.8128  2.0560  0.0798
  502MOL0     H67709  -0.442   4.383   8.494  3.0845  2.7920  4.4500
  502MOL0     H67710  -0.312   4.335   8.382 -2.8931 -3.6126  2.3338
  502MOL0     H67711  -0.507   4.543   8.321 -0.9251 -0.3212 -1.0858
  502MOL0     H67712  -0.358   4.497   8.220  1.5714  1.7780  2.8029
  502MOL0     H67713  -0.457   4.273   8.198  0.6782  0.5601  0.9330
  502MOL0     H67714  -0.589   4.310   8.309 -1.9997  0.8114 -0.6263
  502MOL0     H67715  -0.673   4.494   8.142 -1.0880  0.2547 -2.2862
  502MOL0     H67716  -0.580   4.408   8.023 -0.9217 -2.4853 -1.7219
  502MOL0     H67717  -0.804   4.313   8.210  1.8486 -0.0276  1.7020
  502MOL0     H67718  -0.702   4.187   8.134  1.0096  0.8425  2.1176
  502MOL0     H67719  -0.915   4.236   8.020  1.9805 -1.0960  4.0673
  502MOL0     H67720  -0.865   4.396   7.971  4.6280  2.0827  0.0224
  502MOL0     H67721  -0.679   4.419   7.808 -1.4904  0.0084  2.0530
  502MOL0     H67722  -0.540   4.155   7.515 -1.9143 -1.6710 -0.0803
  502MOL0     H67723  -0.624   4.307   7.517 -0.0812 -0.3957 -0.4855
  502MOL0     H67724  -0.407   4.390   7.516  1.2208 -1.0137 -0.4703
  502MOL0     H67725  -0.424   4.383   7.687  4.9868  2.7999 -1.0316
  502MOL0     H67726  -0.299   4.168   7.506 -1.9759 -0.7556  0.4911
  502MOL0     H67727  -0.326   4.129   7.674  1.0440 -0.8374 -1.9442
  502MOL0     H67728  -0.165   4.353   7.562 -0.6849 -2.1139 -1.9483
  502MOL0     H67729  -0.091   4.214   7.615  0.1801 -0.6444 -1.2522
  502MOL0     H67730  -0.188   4.451   7.982  0.9891  1.3643  1.5945
  502MOL0     H67731  -0.054   4.627   8.051 -0.1812 -0.7853  1.3016
  502MOL0     H67732   0.543   4.749   7.868  0.4842 -0.3619  3.1871
  502MOL0     H67733   0.691   4.968   7.915  0.6207  0.2330 -0.0037
  502MOL0     H67734   0.683   5.178   7.748  1.5353  2.2367 -1.4952
  502MOL0     H67735   0.539   5.288   7.747  0.6332  2.2036 -0.5205
  502MOL0     H67736   0.695   5.443   7.888 -1.2566 -1.6981  1.6825
  502MOL0     H67737   0.828   5.325   7.843 -0.6466 -0.5085  1.7764
  502MOL0     H67738   0.745   5.367   7.596  1.6617  0.9305 -0.1141
  502MOL0     H67739   0.629   5.476   7.657 -0.6960 -1.4197  1.6296
  502MOL0     H67740   0.927   5.496   7.711 -0.6377 -0.3614  0.9558
  502MOL0     H67741   0.815   5.623   7.748 -2.4156  1.1055 -2.0236
  502MOL0     H67742   0.746   5.613   7.491  0.7912  1.2157 -1.1223
  502MOL0     H67743   0.873   5.504   7.471 -3.3402  0.3297 -0.8023
  502MOL0     H67744   0.917   5.784   7.601 -0.4575 -1.7964  2.3174
  502MOL0     H67745   1.044   5.681   7.549 -0.5119 -1.3382  1.4731
  502MOL0     H67746   0.837   5.797   7.360  0.1930 -0.8463 -1.5872
  502MOL0     H67747   0.981   5.691   7.314  2.8015  1.2769  0.3906
  502MOL0     H67748   0.963   5.959   7.309  1.7387 -1.6146 -2.2758
  502MOL0     H67749   0.997   5.946   7.478 -0.4228 -0.1751  0.1846
  502MOL0     H67750   0.314   5.183   7.963  1.9441  0.8679  0.2080
  502MOL0     H67751   0.195   4.982   7.912 -0.4626 -2.5426 -0.6463
  502MOL0     H67752   0.223   4.527   7.723  0.0623  0.4781  0.2658
  502MOL0     H67753   0.056   4.361   7.647 -1.9426 -4.0468  1.6923
  502MOL0     H67754   0.088   4.671   8.378 -2.1859 -1.1548 -0.8534
  502MOL0     H67755   0.329   4.696   8.448  0.1486 -0.3650  1.8772
  502MOL0     H67756   0.687   4.653   8.460 -0.5046  1.8556  0.8401
  502MOL0     H67757   0.908   4.712   8.453  1.2870 -1.8418 -0.8986
  502MOL0     H67758   1.223   4.500   8.673 -2.5865  0.0815 -1.2964
  502MOL0     H67759   1.167   4.617   8.805 -1.3426  0.1484 -0.2041
  502MOL0     H67760   1.377   4.686   8.787  0.0701 -2.6651 -1.1211
  502MOL0     H67761   1.283   4.797   8.673 -1.6808 -0.8613  0.3496
  502MOL0     H67762   1.346   4.668   8.492  0.7013  0.0485 -0.3522
  502MOL0     H67763   1.429   4.540   8.582  0.1208  0.1044  1.5495
  502MOL0     H67764   1.607   4.669   8.660  3.2374  2.6890 -1.1558
  502MOL0     H67765   1.598   4.710   8.482 -0.7450  2.2196 -1.8416
  502MOL0     H67766   1.557   5.083   8.568 -1.8512 -0.1066 -1.4097
  502MOL0     H67767   0.979   4.464   8.802  1.3873  0.8360  0.4618
  502MOL0     H67768   0.815   4.354   8.927 -0.8357  0.1024  2.2045
  502MOL0     H67769   0.699   4.491   8.958  1.4966 -2.1108  2.7368
  502MOL0     H67770   0.656   4.356   8.852 -0.4206  1.4222 -1.8590
  503MOL0     O67771  11.175   3.668   3.693 -0.1534  0.1064  0.0642
  503MOL0     C67772  11.285   3.695   3.742  0.4404 -0.3269 -0.2557
  503MOL0     O67773  11.339   3.819   3.750 -1.1946 -0.0282  0.1504
  503MOL0     C67774  11.258   3.928   3.714  0.7419  0.6706 -0.4388
  503MOL0     C67775  11.246   4.036   3.811  0.1865 -0.2527  0.6881
  503MOL0     C67776  11.168   4.142   3.776 -0.7193 -0.1581 -0.0470
  503MOL0     C67777  11.092   4.136   3.658 -0.5751 -0.0951  0.5436
  503MOL0     O67778  11.006   4.242   3.618 -0.0042  0.0456 -0.7338
  503MOL0     C67779  10.978   4.357   3.702 -0.3633  0.3682 -0.5176
  503MOL0     C67780  10.901   4.472   3.630  0.0782  0.0966 -0.1183
  503MOL0     C67781  10.769   4.407   3.569 -0.0819 -0.4221  0.0846
  503MOL0     C67782  10.660   4.391   3.676 -0.2578  0.7540 -0.4188
  503MOL0     C67783  10.536   4.319   3.625  0.2177 -0.1205 -0.3192
  503MOL0     C67784  10.421   4.312   3.730  0.8638  0.1773 -0.0899
  503MOL0     C67785  10.407   4.420   3.826 -0.4194 -0.2164 -1.0122
  503MOL0     C67786  10.283   4.395   3.920 -0.2971 -0.1106  0.6412
  503MOL0     N67787  10.285   4.499   4.026  0.4805  0.4634 -0.0593
  503MOL0     C67788  10.327   4.629   4.016  0.3301  0.2817 -0.3968
  503MOL0     C67789  10.330   4.679   4.145  0.6210 -0.6000 -0.4792
  503MOL0     C67790  10.366   4.821   4.190 -0.1059 -0.2324 -1.2479
  503MOL0     C67791  10.531   4.866   4.177  1.2994  0.1805 -0.2909
  503MOL0     C67792  10.620   4.771   4.265  0.7805 -0.7868 -0.4677
  503MOL0     C67793  10.768   4.803   4.275  1.1816  0.5783  0.6968
  503MOL0     O67794  10.830   4.695   4.346 -0.0059 -0.8245 -0.0033
  503MOL0     C67795  10.962   4.683   4.329 -0.6388 -0.1319 -0.1177
  503MOL0     C67796  11.015   4.579   4.405 -0.1619 -0.1744  0.0508
  503MOL0     C67797  11.151   4.546   4.408 -0.9724 -0.1818  0.8184
  503MOL0     C67798  11.245   4.637   4.345  0.1238  0.5233 -0.3223
  503MOL0     C67799  11.401   4.624   4.332 -0.1067 -0.2493 -0.0254
  503MOL0     O67800  11.458   4.741   4.293 -0.2912 -0.0801 -0.8852
  503MOL0     C67801  11.592   4.756   4.275 -0.6366 -0.0429  0.1891
  503MOL0     C67802  11.640   4.791   4.146  0.5937  0.7379  0.1464
  503MOL0     C67803  11.774   4.796   4.123 -0.6137  0.8510  0.2129
  503MOL0     C67804  11.865   4.770   4.228 -0.0111 -0.6268 -0.4743
  503MOL0     O67805  11.995   4.802   4.199  0.3304  0.1283 -0.5941
  503MOL0     C67806  12.089   4.741   4.286  0.3911  0.2531  0.1022
  503MOL0     C67807  12.222   4.726   4.224  0.0599 -0.8416  0.1386
  503MOL0     C67808  12.344   4.719   4.322  0.7822  0.7820 -0.8788
  503MOL0     C67809  12.472   4.706   4.243 -0.0308 -0.0904 -0.5322
  503MOL0     C67810  12.592   4.672   4.346  0.3685 -0.0115 -0.5810
  503MOL0     C67811  12.730   4.646   4.282  0.4503 -0.3167  0.5448
  503MOL0     C67812  12.827   4.581   4.382  0.1634  0.9461 -1.1777
  503MOL0     C67813  12.958   4.524   4.315 -0.3615 -0.3550 -0.1578
  503MOL0    Cl67814  13.064   4.445   4.446  0.4346  0.2473 -0.0443
  503MOL0     C67815  11.816   4.742   4.366  0.3884  0.8562  0.5858
  503MOL0     C67816  11.679   4.726   4.380  0.3471  0.0112 -0.1441
  503MOL0     O67817  11.461   4.525   4.354  0.3870  0.6233 -0.0361
  503MOL0     C67818  11.185   4.746   4.273 -0.1705  0.2177  0.2485
  503MOL0     C67819  11.055   4.769   4.274 -0.0389  0.1087  0.5406
  503MOL0     N67820  10.279   4.576   4.229 -0.1568  0.8049 -0.2354
  503MOL0     N67821  10.263   4.467   4.156  0.2411 -0.7374  0.7805
  503MOL0     C67822  11.104   4.038   3.568 -0.2462  0.2170  0.5364
  503MOL0     C67823  11.196   3.939   3.593 -0.2411  0.2104  0.4922
  503MOL0     C67824  11.360   3.584   3.811  0.1899 -0.2068 -0.1493
  503MOL0     C67825  11.478   3.614   3.876 -0.1381 -0.9848 -0.3568
  503MOL0     C67826  11.557   3.522   3.954  0.3369 -0.0320  0.1084
  503MOL0     C67827  11.493   3.402   3.981 -0.7710 -0.7651 -0.5096
  503MOL0     O67828  11.545   3.304   4.067 -0.2183 -0.6279 -0.4429
  503MOL0     C67829  11.649   3.341   4.162  0.4343  0.6465 -0.8136
  503MOL0     C67830  11.586   3.374   4.294 -0.8124  0.4107  0.2561
  503MOL0     C67831  11.502   3.501   4.288  0.1622 -0.1799  0.5437
  503MOL0     C67832  11.473   3.539   4.433  0.1934 -0.8727 -0.4382
  503MOL0     C67833  11.372   3.454   4.497  1.0841 -0.4587 -0.6810
  503MOL0     C67834  11.288   3.395   4.569  0.2921 -0.0608  0.1319
  503MOL0     C67835  11.378   3.368   3.918 -0.1977  1.6407  0.7422
  503MOL0     C67836  11.311   3.456   3.829  0.2723  0.5370  1.1071
  503MOL0     C67837  11.184   3.412   3.765 -1.2339 -0.0605  0.5232
  503MOL0     H67838  11.308   4.035   3.900 -0.2933 -5.5787  1.2987
  503MOL0     H67839  11.166   4.230   3.840 -2.9820  0.4165 -0.8067
  503MOL0     H67840  10.930   4.347   3.800 -3.7531  2.0807 -1.8244
  503MOL0     H67841  11.075   4.406   3.717 -1.6699  2.6516  1.3524
  503MOL0     H67842  10.962   4.514   3.549  2.2271 -3.6585 -0.7081
  503MOL0     H67843  10.871   4.550   3.699  0.9571  0.5550 -0.2394
  503MOL0     H67844  10.790   4.313   3.518  1.3010 -1.4053  2.2947
  503MOL0     H67845  10.724   4.475   3.496  0.5463  1.9916  1.8423
  503MOL0     H67846  10.715   4.330   3.749 -1.0961  0.8384  0.2916
  503MOL0     H67847  10.642   4.489   3.720 -2.7295  0.1619  0.0635
  503MOL0     H67848  10.495   4.366   3.535 -0.8265  0.8413  0.6422
  503MOL0     H67849  10.564   4.220   3.587  1.3460  0.5663 -1.3623
  503MOL0     H67850  10.329   4.310   3.671  0.6170 -1.9551  0.3241
  503MOL0     H67851  10.433   4.221   3.789  1.6343  0.0898 -0.3604
  503MOL0     H67852  10.403   4.517   3.776  2.5190 -0.3092 -1.6221
  503MOL0     H67853  10.492   4.421   3.896 -1.5409  3.2644  0.4742
  503MOL0     H67854  10.189   4.405   3.864  0.0322  0.3439  0.1584
  503MOL0     H67855  10.280   4.293   3.959 -1.3418 -0.5454 -0.4949
  503MOL0     H67856  10.375   4.694   3.943 -3.1955  0.6955 -2.6018
  503MOL0     H67857  10.309   4.896   4.135 -2.2503  0.4543  1.6772
  503MOL0     H67858  10.327   4.834   4.291 -0.6849  0.7442 -1.5885
  503MOL0     H67859  10.563   4.885   4.074 -1.2523  3.0822 -0.6776
  503MOL0     H67860  10.544   4.963   4.224 -1.6282 -0.0373  1.2040
  503MOL0     H67861  10.613   4.669   4.226  1.7412 -1.5819  1.3265
  503MOL0     H67862  10.567   4.767   4.360  1.0075  0.0194 -0.3006
  503MOL0     H67863  10.786   4.892   4.336  0.1226  0.0659  1.8001
  503MOL0     H67864  10.803   4.819   4.172 -1.0651  0.4084 -0.1556
  503MOL0     H67865  10.936   4.517   4.445  0.5199 -1.8529 -1.1009
  503MOL0     H67866  11.172   4.449   4.454 -2.8644 -0.3002  1.5189
  503MOL0     H67867  11.564   4.819   4.074  1.2166  3.9426  0.5822
  503MOL0     H67868  11.820   4.841   4.036  0.8621 -0.3705  0.3146
  503MOL0     H67869  12.092   4.798   4.379 -1.2058  1.0926 -0.3137
  503MOL0     H67870  12.061   4.639   4.313  0.6414 -1.1173 -4.0256
  503MOL0     H67871  12.219   4.638   4.158 -0.3128 -0.4588 -0.3683
  503MOL0     H67872  12.231   4.816   4.163 -2.7169  0.5143  1.5439
  503MOL0     H67873  12.352   4.806   4.388  0.4665  2.7069 -3.2172
  503MOL0     H67874  12.334   4.626   4.378  1.7981  0.3599 -1.3682
  503MOL0     H67875  12.483   4.802   4.192 -3.7958  0.2994 -0.8445
  503MOL0     H67876  12.457   4.627   4.170  2.3836  1.0597 -2.4284
  503MOL0     H67877  12.554   4.580   4.390 -2.0174  0.3784 -1.6620
  503MOL0     H67878  12.608   4.744   4.427 -0.5058  0.6356 -0.9581
  503MOL0     H67879  12.719   4.591   4.188 -0.4639 -0.7390  0.8874
  503MOL0     H67880  12.780   4.740   4.255  0.3501 -0.8083 -1.5044
  503MOL0     H67881  12.781   4.494   4.430  0.0883  2.2765  1.2877
  503MOL0     H67882  12.845   4.652   4.463 -5.3105 -1.6631  2.9788
  503MOL0     H67883  12.935   4.457   4.232 -1.5271 -0.6615  0.3790
  503MOL0     H67884  13.012   4.605   4.267 -0.9459 -0.3016 -0.7384
  503MOL0     H67885  11.879   4.706   4.447 -1.5901  1.1846  2.3309
  503MOL0     H67886  11.639   4.694   4.476 -1.3289  2.3666  0.0301
  503MOL0     H67887  11.246   4.821   4.223 -1.1183  2.3546  2.1420
  503MOL0     H67888  11.016   4.848   4.210 -2.5231 -3.4234 -2.8628
  503MOL0     H67889  11.056   4.045   3.470  0.5101  1.2784  0.2236
  503MOL0     H67890  11.215   3.859   3.522  2.6334  3.4373 -2.7299
  503MOL0     H67891  11.515   3.716   3.868 -3.2071  0.1629 -1.1309
  503MOL0     H67892  11.646   3.554   4.007 -1.6373  0.9609  3.1287
  503MOL0     H67893  11.718   3.412   4.116  1.7389 -0.8679 -1.2801
  503MOL0     H67894  11.716   3.256   4.177 -1.6684 -0.9702 -0.0792
  503MOL0     H67895  11.666   3.398   4.365 -0.4670  2.8317 -0.8528
  503MOL0     H67896  11.526   3.294   4.338 -0.6840  0.4609  0.5296
  503MOL0     H67897  11.408   3.499   4.233 -0.6804  1.3394  1.8493
  503MOL0     H67898  11.561   3.576   4.233  0.7524 -2.7285 -2.6001
  503MOL0     H67899  11.569   3.539   4.487  0.0777 -5.2678  0.0704
  503MOL0     H67900  11.419   3.634   4.429  0.3860 -0.7844 -1.0465
  503MOL0     H67901  11.210   3.327   4.594  0.8824 -1.8715 -2.5127
  503MOL0     H67902  11.340   3.269   3.940  2.9475 -0.0784 -0.7959
  503MOL0     H67903  11.201   3.429   3.658 -0.4289 -0.7325  0.5345
  503MOL0     H67904  11.158   3.309   3.792 -0.4756 -0.8443 -1.5176
  503MOL0     H67905  11.103   3.480   3.793 -1.3938  1.1741 -2.4897
  504MOL0     O67906   2.467   7.099   4.605  0.5328  0.3601 -0.4455
  504MOL0     C67907   2.367   7.172   4.586 -0.7284 -0.3094 -0.1725
  504MOL0     O67908   2.373   7.289   4.527 -0.4262  0.0005  0.0407
  504MOL0     C67909   2.491   7.344   4.497  0.5568  0.6134  0.2210
  504MOL0     C67910   2.552   7.419   4.585 -0.6591  0.3683 -0.2539
  504MOL0     C67911   2.685   7.461   4.557 -0.0647 -0.7328 -0.3756
  504MOL0     C67912   2.755   7.433   4.435 -0.2216  0.7141 -0.1508
  504MOL0     O67913   2.883   7.446   4.408  0.2537 -0.3860 -0.1680
  504MOL0     C67914   2.965   7.537   4.499 -0.3797  0.6977  0.1143
  504MOL0     C67915   3.093   7.565   4.428 -0.4282 -0.6073 -0.2832
  504MOL0     C67916   3.189   7.654   4.509  0.4312 -0.1437  0.9635
  504MOL0     C67917   3.271   7.575   4.611 -0.4337  0.6435 -0.1112
  504MOL0     C67918   3.394   7.661   4.668 -0.3602 -0.1162 -0.3740
  504MOL0     C67919   3.462   7.593   4.789  0.2316  0.2005 -0.5201
  504MOL0     C67920   3.577   7.694   4.821  1.1335  0.6001 -0.5362
  504MOL0     C67921   3.643   7.656   4.953 -0.9599  0.9883  0.1286
  504MOL0     N67922   3.751   7.551   4.943  0.2272 -0.4353 -0.0348
  504MOL0     C67923   3.859   7.556   4.856  0.0280 -0.4910 -0.3951
  504MOL0     C67924   3.886   7.428   4.815  0.2240  0.2306 -0.6764
  504MOL0     C67925   3.990   7.393   4.714 -0.1214 -0.1121 -0.4404
  504MOL0     C67926   4.129   7.354   4.782  0.2876  0.3358 -0.1486
  504MOL0     C67927   4.127   7.205   4.842  0.2606  0.7765  0.2414
  504MOL0     C67928   4.259   7.174   4.912 -0.5692  0.0092  0.4774
  504MOL0     O67929   4.359   7.159   4.812 -0.0415  0.3804  0.2593
  504MOL0     C67930   4.481   7.113   4.852  0.3793  0.3188 -0.2967
  504MOL0     C67931   4.523   7.105   4.990  0.6202 -0.3856  0.0537
  504MOL0     C67932   4.654   7.083   5.016 -0.1300 -0.3762  0.1035
  504MOL0     C67933   4.748   7.061   4.913 -0.2604 -1.0292  0.0726
  504MOL0     C67934   4.889   7.017   4.944  1.4939  0.3922 -1.0848
  504MOL0     O67935   4.941   7.074   5.054  0.3257  0.7667  0.0357
  504MOL0     C67936   5.077   7.050   5.093  0.5223  0.4695  0.4722
  504MOL0     C67937   5.114   7.111   5.217  0.2904  0.3109 -0.2966
  504MOL0     C67938   5.241   7.097   5.268 -1.2454 -0.6908  0.8763
  504MOL0     C67939   5.343   7.030   5.189  0.9391 -0.5776 -0.0743
  504MOL0     O67940   5.468   7.014   5.242 -0.4078 -0.1999 -0.1313
  504MOL0     C67941   5.485   6.975   5.376 -0.0508  0.4144  0.1899
  504MOL0     C67942   5.459   6.825   5.407  0.1747  0.4011  0.1723
  504MOL0     C67943   5.554   6.742   5.320 -0.1405  0.4258 -1.1523
  504MOL0     C67944   5.677   6.696   5.395  0.0707  0.4941 -0.0383
  504MOL0     C67945   5.768   6.613   5.305  0.3952 -0.4049  0.3723
  504MOL0     C67946   5.703   6.503   5.214  0.0936  0.0615 -0.7198
  504MOL0     C67947   5.818   6.427   5.141 -0.1303  0.1082  0.0477
  504MOL0     C67948   5.869   6.488   5.007  0.2218 -0.3316  0.5947
  504MOL0    Cl67949   5.932   6.661   4.997  0.9064 -0.2271 -0.8639
  504MOL0     C67950   5.312   6.981   5.064 -0.0993 -0.1228  0.6865
  504MOL0     C67951   5.177   6.978   5.020  0.6513 -0.8210 -0.5368
  504MOL0     O67952   4.942   6.947   4.864 -0.7615  0.3107 -0.4546
  504MOL0     C67953   4.699   7.060   4.788 -0.3126 -0.0504  1.2593
  504MOL0     C67954   4.570   7.092   4.752 -0.1568 -0.2467  0.5222
  504MOL0     N67955   3.798   7.342   4.883  0.5332 -0.2560 -0.2729
  504MOL0     N67956   3.722   7.415   4.956  0.0086  0.7576 -0.1688
  504MOL0     C67957   2.681   7.359   4.344 -1.1288 -0.3767  0.4622
  504MOL0     C67958   2.551   7.311   4.375  0.1184  0.3511 -0.3279
  504MOL0     C67959   2.237   7.124   4.635  0.7403  0.6029  0.1548
  504MOL0     C67960   2.192   6.995   4.605 -0.3474  0.4207 -0.3298
  504MOL0     C67961   2.066   6.945   4.656  0.3279  1.0230 -0.7634
  504MOL0     C67962   1.989   7.025   4.742 -0.0384 -0.8392 -0.8886
  504MOL0     O67963   1.861   6.996   4.787  0.7428  0.0196  0.0647
  504MOL0     C67964   1.794   6.883   4.720  0.0898  0.3299 -0.5176
  504MOL0     C67965   1.652   6.855   4.778  0.7253 -0.1714 -0.3206
  504MOL0     C67966   1.652   6.808   4.918  0.4745 -0.3743 -0.4086
  504MOL0     C67967   1.667   6.656   4.915 -0.2203  0.6422 -0.5848
  504MOL0     C67968   1.591   6.605   5.024 -0.0415  0.2449 -0.1455
  504MOL0     C67969   1.518   6.550   5.098 -0.2158 -0.1377  0.3995
  504MOL0     C67970   2.043   7.151   4.783 -0.2856  0.2802  0.2614
  504MOL0     C67971   2.173   7.197   4.734  0.6161 -0.7072  0.4862
  504MOL0     C67972   2.230   7.314   4.801  0.3010 -0.7512  0.7886
  504MOL0     H67973   2.509   7.412   4.685  3.4361 -1.1962  1.6203
  504MOL0     H67974   2.732   7.501   4.646 -1.2933 -4.6268  2.2901
  504MOL0     H67975   2.907   7.625   4.529 -0.8546  0.2541  0.5095
  504MOL0     H67976   2.986   7.473   4.585  1.5816 -2.5262 -2.5004
  504MOL0     H67977   3.057   7.616   4.338 -2.9257 -1.7145  0.0218
  504MOL0     H67978   3.144   7.471   4.404  1.1563 -0.6316  2.6645
  504MOL0     H67979   3.123   7.729   4.553 -2.1908 -1.7177 -0.0537
  504MOL0     H67980   3.264   7.712   4.455  0.0409 -0.3890  0.1396
  504MOL0     H67981   3.206   7.547   4.695 -0.6443  3.4073  0.7275
  504MOL0     H67982   3.296   7.482   4.558 -2.5350 -0.5013  0.7610
  504MOL0     H67983   3.468   7.661   4.587 -0.1323 -1.7548 -0.1959
  504MOL0     H67984   3.349   7.758   4.688  1.3200  0.8721 -1.1729
  504MOL0     H67985   3.390   7.589   4.871 -0.2967  0.2832 -0.9712
  504MOL0     H67986   3.492   7.489   4.779 -2.7746 -1.1056  2.2871
  504MOL0     H67987   3.529   7.790   4.842 -0.0823 -0.3894  1.4198
  504MOL0     H67988   3.655   7.694   4.744 -0.9145 -0.5623 -2.7907
  504MOL0     H67989   3.693   7.745   4.993  0.3480 -0.3272  1.5653
  504MOL0     H67990   3.566   7.631   5.027 -0.1815  2.8289  1.6510
  504MOL0     H67991   3.902   7.647   4.816 -3.6034  1.5883 -0.0396
  504MOL0     H67992   3.955   7.304   4.662 -0.5064 -0.4797  0.4360
  504MOL0     H67993   4.012   7.479   4.650 -0.5034 -0.4314 -1.0145
  504MOL0     H67994   4.217   7.367   4.717 -0.5510  0.5477 -1.2797
  504MOL0     H67995   4.143   7.429   4.860  1.8491  0.7773 -0.7998
  504MOL0     H67996   4.116   7.132   4.761  0.3279  3.2775 -2.2051
  504MOL0     H67997   4.043   7.184   4.909  1.4383 -2.8023  0.8354
  504MOL0     H67998   4.259   7.086   4.978  1.8617 -2.7135 -2.7706
  504MOL0     H67999   4.301   7.260   4.966  1.5883 -0.1527 -0.8018
  504MOL0     H68000   4.462   7.145   5.071  0.4171 -1.6965  0.5750
  504MOL0     H68001   4.677   7.088   5.122 -2.7677  0.1791  0.7234
  504MOL0     H68002   5.040   7.170   5.271 -0.1997 -2.7909  2.7235
  504MOL0     H68003   5.265   7.151   5.359  0.1516  2.0232 -0.9490
  504MOL0     H68004   5.585   7.008   5.405 -1.0159  3.9042  0.0421
  504MOL0     H68005   5.418   7.037   5.437  1.9244  0.6180  2.2977
  504MOL0     H68006   5.462   6.805   5.514 -3.0792  0.3886  0.3343
  504MOL0     H68007   5.356   6.813   5.375 -0.4241  3.3719  0.7345
  504MOL0     H68008   5.499   6.655   5.281  0.9083  0.2848 -2.3991
  504MOL0     H68009   5.590   6.798   5.233  5.9388 -2.4808 -1.0013
  504MOL0     H68010   5.646   6.631   5.478  1.4454  1.6566  1.4423
  504MOL0     H68011   5.738   6.778   5.433  2.5816 -1.2462 -0.0353
  504MOL0     H68012   5.845   6.567   5.367  1.8719 -1.1779 -1.9426
  504MOL0     H68013   5.822   6.684   5.241  0.5287 -0.8963 -0.0597
  504MOL0     H68014   5.649   6.428   5.273 -1.4241  2.0497  0.5313
  504MOL0     H68015   5.634   6.552   5.144 -2.7853  0.3979  2.1407
  504MOL0     H68016   5.782   6.328   5.112  1.0403 -0.8579  1.6707
  504MOL0     H68017   5.900   6.412   5.212 -2.8936 -2.3243  3.1092
  504MOL0     H68018   5.939   6.430   4.946 -1.7810 -0.9386 -1.2338
  504MOL0     H68019   5.785   6.491   4.937 -0.5855 -1.5893  1.4626
  504MOL0     H68020   5.388   6.936   5.002  0.3182  0.8524  0.4759
  504MOL0     H68021   5.165   6.940   4.919 -0.4165  1.5171 -1.3620
  504MOL0     H68022   4.767   7.050   4.704 -0.9193  2.1156  0.4583
  504MOL0     H68023   4.548   7.118   4.649  0.1658 -0.9068  0.2822
  504MOL0     H68024   2.726   7.329   4.250  0.8681  0.5811  1.0710
  504MOL0     H68025   2.512   7.243   4.301  2.3073 -0.6866 -0.6166
  504MOL0     H68026   2.261   6.926   4.557 -0.6764  0.1329 -0.3892
  504MOL0     H68027   2.028   6.851   4.616  0.7415 -0.0638  1.2518
  504MOL0     H68028   1.838   6.787   4.748 -1.5530  0.1765  1.8054
  504MOL0     H68029   1.780   6.892   4.611 -0.4688  1.9634 -0.3335
  504MOL0     H68030   1.599   6.790   4.707  0.8898 -0.3566 -0.2759
  504MOL0     H68031   1.604   6.953   4.773 -0.0907 -0.5994 -3.6895
  504MOL0     H68032   1.558   6.836   4.966 -0.2870 -2.4182 -0.5930
  504MOL0     H68033   1.719   6.868   4.980 -0.4779 -0.1405  0.4220
  504MOL0     H68034   1.637   6.618   4.818 -0.6817  1.4443 -0.7666
  504MOL0     H68035   1.770   6.626   4.938 -0.3768  1.9592  2.2440
  504MOL0     H68036   1.443   6.506   5.160 -0.7169 -0.1467 -0.2007
  504MOL0     H68037   1.981   7.206   4.853 -2.1509 -1.5753  0.1689
  504MOL0     H68038   2.180   7.339   4.895 -1.6229 -2.1814  0.1983
  504MOL0     H68039   2.339   7.315   4.812  0.3499  0.3858  0.3060
  504MOL0     H68040   2.218   7.389   4.723 -0.3749 -1.6141  0.0552
  505MOL0     O68041   6.526  10.665   1.390 -0.0765 -0.1673  0.2907
  505MOL0     C68042   6.573  10.759   1.462  0.3146 -1.0612 -0.8991
  505MOL0     O68043   6.703  10.785   1.491  0.7365  0.3225  0.5338
  505MOL0     C68044   6.802  10.699   1.473  0.0187  0.5050 -0.1775
  505MOL0     C68045   6.808  10.595   1.382 -0.5702 -0.2720 -0.0619
  505MOL0     C68046   6.930  10.513   1.361 -0.5789 -0.3167 -0.6383
  505MOL0     C68047   7.050  10.557   1.425 -0.1204  0.6325 -0.5137
  505MOL0     O68048   7.160  10.489   1.377 -0.0511  0.1117 -0.1166
  505MOL0     C68049   7.275  10.479   1.473 -0.6646 -0.0869 -0.2537
  505MOL0     C68050   7.392  10.576   1.442  0.4781 -0.2786  0.3646
  505MOL0     C68051   7.479  10.537   1.319  0.3408 -0.4023  0.1299
  505MOL0     C68052   7.596  10.628   1.305  0.1058 -0.8570 -0.0451
  505MOL0     C68053   7.678  10.599   1.180  0.1151  0.3314  0.3333
  505MOL0     C68054   7.810  10.666   1.184 -0.2042  0.9530 -0.0145
  505MOL0     C68055   7.865  10.661   1.037  0.3540 -0.6894 -0.0377
  505MOL0     C68056   8.014  10.698   1.021  0.2238 -0.0712  0.1290
  505MOL0     N68057   8.020  10.839   1.071 -0.5366 -0.2864  0.5586
  505MOL0     C68058   7.990  10.947   0.994  1.0403 -0.2218  0.0391
  505MOL0     C68059   8.024  11.052   1.076 -0.4457 -0.5628 -0.7476
  505MOL0     C68060   8.016  11.201   1.052 -0.2419 -0.2006  0.0067
  505MOL0     C68061   7.887  11.263   1.096  0.4659  0.2964 -0.6283
  505MOL0     C68062   7.790  11.249   0.974  0.4122  0.0509 -0.1486
  505MOL0     C68063   7.665  11.336   0.996 -0.8443  0.2228  0.0476
  505MOL0     O68064   7.614  11.322   1.129  0.4621 -0.5767 -0.7202
  505MOL0     C68065   7.499  11.398   1.164  0.4888  0.3305  1.4044
  505MOL0     C68066   7.421  11.359   1.276  1.4434 -0.7777 -1.1611
  505MOL0     C68067   7.318  11.436   1.331  0.5900  0.5694 -0.0366
  505MOL0     C68068   7.279  11.552   1.273 -0.0047 -0.4932  0.1388
  505MOL0     C68069   7.177  11.648   1.330 -0.3399 -0.7009  0.6791
  505MOL0     O68070   7.125  11.744   1.247  0.5226 -0.1873  0.8384
  505MOL0     C68071   7.060  11.858   1.285 -0.2261  0.1211  1.1004
  505MOL0     C68072   6.983  11.924   1.192 -0.4083 -0.4511 -0.1777
  505MOL0     C68073   6.908  12.043   1.214 -0.4827  0.2015 -1.3033
  505MOL0     C68074   6.913  12.099   1.342  0.5094  0.1350 -0.1812
  505MOL0     O68075   6.841  12.212   1.357 -0.8707 -0.4934 -0.9800
  505MOL0     C68076   6.854  12.291   1.480 -0.3356  0.1118 -0.7309
  505MOL0     C68077   6.803  12.434   1.470  0.2932 -0.2086 -0.6565
  505MOL0     C68078   6.881  12.511   1.353  0.2648  1.1481  0.2914
  505MOL0     C68079   7.013  12.569   1.406  0.1131 -0.1081 -0.0467
  505MOL0     C68080   7.092  12.656   1.311  0.5798  0.0271  0.6437
  505MOL0     C68081   7.237  12.675   1.360  0.0926 -0.2382  0.4404
  505MOL0     C68082   7.301  12.758   1.245  0.0373  0.1942  1.1932
  505MOL0     C68083   7.449  12.812   1.295  0.7668 -0.1792 -0.4140
  505MOL0    Cl68084   7.556  12.683   1.350 -0.2934  0.2518  0.0447
  505MOL0     C68085   6.991  12.040   1.446 -0.4065  0.1606 -0.1624
  505MOL0     C68086   7.066  11.918   1.417  1.5176  0.8684  1.1190
  505MOL0     O68087   7.147  11.635   1.444  0.2935  0.1479 -0.2133
  505MOL0     C68088   7.342  11.592   1.153 -0.4316  0.4152 -0.9057
  505MOL0     C68089   7.455  11.520   1.099 -0.2275 -0.3501 -0.3919
  505MOL0     N68090   8.072  11.007   1.206  0.3406  0.3724  0.6372
  505MOL0     N68091   8.068  10.874   1.192  0.3575 -0.0090  0.1766
  505MOL0     C68092   7.046  10.667   1.514  0.8319 -0.2766 -0.2472
  505MOL0     C68093   6.922  10.725   1.543  0.4733 -0.6329  0.7927
  505MOL0     C68094   6.464  10.856   1.509 -0.5445  0.4969  0.3379
  505MOL0     C68095   6.496  10.993   1.511  0.2129  0.5651 -1.5239
  505MOL0     C68096   6.403  11.091   1.546  0.2653 -0.8881  0.1512
  505MOL0     C68097   6.275  11.057   1.576  0.1338  0.0928  0.5130
  505MOL0     O68098   6.183  11.165   1.598 -0.3476 -0.0626 -1.1205
  505MOL0     C68099   6.065  11.147   1.683  0.4293  1.0429  0.5421
  505MOL0     C68100   6.075  11.255   1.787  0.5068  0.3236 -0.1527
  505MOL0     C68101   5.976  11.226   1.901 -0.1196 -0.3095  0.1274
  505MOL0     C68102   5.838  11.283   1.881 -0.2604  0.1164 -0.3326
  505MOL0     C68103   5.751  11.268   2.003  0.0595  0.0200  1.1939
  505MOL0     C68104   5.677  11.249   2.097 -0.2874 -0.0863  0.0081
  505MOL0     C68105   6.235  10.920   1.574  0.2510 -0.1911  0.5786
  505MOL0     C68106   6.327  10.820   1.544  0.7024 -0.6649  1.4766
  505MOL0     C68107   6.280  10.684   1.541  0.1325  0.1541  0.5011
  505MOL0     H68108   6.719  10.559   1.332 -1.7098  0.5609  1.2949
  505MOL0     H68109   6.933  10.422   1.302  0.2995 -0.3121 -0.6054
  505MOL0     H68110   7.242  10.488   1.577 -1.0091 -0.0244 -0.3666
  505MOL0     H68111   7.323  10.381   1.466  4.1511  2.1047 -1.9842
  505MOL0     H68112   7.454  10.604   1.529  1.5819 -1.7610  0.0877
  505MOL0     H68113   7.352  10.673   1.411  1.1120 -0.2087 -0.2544
  505MOL0     H68114   7.415  10.544   1.230 -2.0866  1.5971  1.8692
  505MOL0     H68115   7.504  10.433   1.340  1.6141 -0.1819 -0.1887
  505MOL0     H68116   7.566  10.732   1.318  0.2925 -0.6745 -1.0240
  505MOL0     H68117   7.657  10.627   1.396 -1.9198 -0.0416  1.4147
  505MOL0     H68118   7.677  10.490   1.174  1.3030  0.1067  2.9458
  505MOL0     H68119   7.617  10.629   1.094 -4.0848  2.6234  3.6885
  505MOL0     H68120   7.805  10.774   1.203  0.2024  1.6385 -3.2830
  505MOL0     H68121   7.882  10.608   1.243 -1.0309 -2.8158 -2.3912
  505MOL0     H68122   7.798  10.716   0.970 -0.6619  0.4081  1.8167
  505MOL0     H68123   7.852  10.558   1.002  2.2276 -0.9911  0.0564
  505MOL0     H68124   8.083  10.645   1.087 -0.0869 -3.2309 -1.8675
  505MOL0     H68125   8.045  10.696   0.916  1.9916 -2.9854  0.6113
  505MOL0     H68126   7.968  10.942   0.888 -2.2748 -1.5261  0.6529
  505MOL0     H68127   8.076  11.265   1.117 -2.5558  3.3224 -1.0448
  505MOL0     H68128   8.061  11.233   0.959  2.7088 -0.6554  1.1707
  505MOL0     H68129   7.832  11.224   1.181 -2.1912  1.2450 -1.8197
  505MOL0     H68130   7.909  11.368   1.119 -0.4787  0.3263  0.2024
  505MOL0     H68131   7.754  11.146   0.959 -1.8759  0.7865 -0.0471
  505MOL0     H68132   7.839  11.287   0.884  2.7464  2.5496  2.0011
  505MOL0     H68133   7.588  11.311   0.923  2.1919 -0.2150 -3.3284
  505MOL0     H68134   7.692  11.439   0.968 -0.9913 -0.5029 -3.0796
  505MOL0     H68135   7.460  11.273   1.328 -0.3125 -0.5515  0.6533
  505MOL0     H68136   7.269  11.400   1.421  2.1278 -1.8128 -0.0866
  505MOL0     H68137   6.970  11.872   1.097 -0.4158  2.4552 -1.8921
  505MOL0     H68138   6.858  12.108   1.143  0.2658  1.7612 -0.4370
  505MOL0     H68139   6.782  12.235   1.541  0.3629 -1.0428 -0.9412
  505MOL0     H68140   6.956  12.283   1.520 -0.4359  0.8465 -0.3005
  505MOL0     H68141   6.694  12.441   1.465  0.0886 -0.7170  1.9668
  505MOL0     H68142   6.822  12.505   1.550 -0.7905  0.5836 -1.0915
  505MOL0     H68143   6.904  12.459   1.259 -2.4579  0.0257  0.1349
  505MOL0     H68144   6.800  12.578   1.321 -3.8079 -2.7111  1.3388
  505MOL0     H68145   7.073  12.483   1.439  0.1415 -0.6896 -1.5455
  505MOL0     H68146   6.992  12.634   1.492  1.3399  3.0711 -1.9577
  505MOL0     H68147   7.043  12.751   1.287 -1.9810 -1.3368  0.1936
  505MOL0     H68148   7.083  12.605   1.215  0.9212 -1.4279  1.3671
  505MOL0     H68149   7.252  12.728   1.455  1.6281 -0.1571  0.1760
  505MOL0     H68150   7.285  12.577   1.366 -4.4987 -2.6819  1.8048
  505MOL0     H68151   7.250  12.847   1.209  1.2511  1.4360  2.4341
  505MOL0     H68152   7.324  12.694   1.159 -0.1114 -0.1711  1.4213
  505MOL0     H68153   7.490  12.866   1.209  1.1088 -2.7421 -1.9588
  505MOL0     H68154   7.436  12.888   1.372  1.9218  0.9240 -1.2657
  505MOL0     H68155   6.994  12.083   1.545  2.1842 -3.1814  1.4198
  505MOL0     H68156   7.108  11.855   1.495 -0.7871 -2.8398 -0.3372
  505MOL0     H68157   7.306  11.680   1.102 -2.3456 -0.5509 -1.3354
  505MOL0     H68158   7.515  11.557   1.017  0.1123  0.6959  0.3195
  505MOL0     H68159   7.136  10.695   1.568  0.1564 -4.8713  3.9160
  505MOL0     H68160   6.927  10.815   1.604  3.9187 -0.1898  0.0922
  505MOL0     H68161   6.599  11.026   1.499  1.0936 -0.6184  1.7432
  505MOL0     H68162   6.437  11.194   1.544 -0.8493 -0.5143  0.0483
  505MOL0     H68163   6.070  11.050   1.733  1.9706  0.9832  0.3106
  505MOL0     H68164   5.975  11.154   1.620  1.3327  1.0130 -0.8005
  505MOL0     H68165   6.061  11.353   1.741  0.0704  1.5051  2.3265
  505MOL0     H68166   6.174  11.248   1.832  0.4769 -1.8148 -0.3263
  505MOL0     H68167   6.014  11.270   1.994 -2.0340 -0.3309  0.9669
  505MOL0     H68168   5.972  11.118   1.912  0.1302 -0.4902 -1.4209
  505MOL0     H68169   5.854  11.390   1.861  0.0191 -0.6251 -5.0490
  505MOL0     H68170   5.784  11.244   1.794  0.5306 -3.6573  0.7135
  505MOL0     H68171   5.633  11.217   2.189 -0.6332 -2.0001 -0.7711
  505MOL0     H68172   6.129  10.900   1.587  0.1306  1.0742  1.8528
  505MOL0     H68173   6.184  10.664   1.589 -3.9232  2.1373 -5.5924
  505MOL0     H68174   6.253  10.661   1.438  0.2401 -1.5489  0.8238
  505MOL0     H68175   6.365  10.620   1.569  0.1010 -1.5861 -2.9095
  506MOL0     O68176   7.214   3.134  10.180 -0.1629  0.4068 -0.1511
  506MOL0     C68177   7.237   3.146  10.301 -0.5880 -0.2625  0.4082
  506MOL0     O68178   7.164   3.095  10.403 -0.2715  0.7175  0.4357
  506MOL0     C68179   7.080   2.992  10.379 -1.5819  0.0598 -0.3692
  506MOL0     C68180   7.108   2.867  10.429  0.4857 -0.0563  0.5704
  506MOL0     C68181   7.024   2.762  10.393  0.4083 -0.0805 -0.0975
  506MOL0     C68182   6.910   2.787  10.314  0.9916  0.6945  0.1216
  506MOL0     O68183   6.819   2.694  10.270  0.2499 -0.2611  0.2158
  506MOL0     C68184   6.850   2.551  10.286 -1.0186 -0.1881  1.2144
  506MOL0     C68185   6.747   2.483  10.213 -0.1726  0.1665  0.2879
  506MOL0     C68186   6.737   2.518  10.066 -1.3361 -0.0684 -1.1711
  506MOL0     C68187   6.628   2.431  10.004  0.7714 -0.1885 -0.3281
  506MOL0     C68188   6.632   2.429   9.852  0.4302  0.7644  0.4064
  506MOL0     C68189   6.506   2.423   9.772  0.2880 -0.6464  0.5474
  506MOL0     C68190   6.545   2.424   9.623  0.1774  0.1695  0.3631
  506MOL0     C68191   6.543   2.555   9.539 -0.5281  0.2247 -0.1071
  506MOL0     N68192   6.412   2.582   9.484  0.0317 -0.1106  0.3101
  506MOL0     C68193   6.350   2.486   9.404  0.4871  0.0025  0.1399
  506MOL0     C68194   6.218   2.499   9.432 -0.3769 -0.6164  0.1280
  506MOL0     C68195   6.103   2.439   9.358 -0.5219 -1.2466  0.5473
  506MOL0     C68196   6.135   2.321   9.266  0.4681 -1.0163  0.3057
  506MOL0     C68197   6.140   2.195   9.351 -0.1842  0.2361 -1.2336
  506MOL0     C68198   6.211   2.090   9.261  0.9753  0.0769 -1.1331
  506MOL0     O68199   6.278   1.986   9.334  0.0419  0.0431  0.1232
  506MOL0     C68200   6.396   2.014   9.396 -0.1654 -0.1913  1.2181
  506MOL0     C68201   6.480   2.126   9.377 -0.4334  0.0112 -0.5491
  506MOL0     C68202   6.609   2.143   9.431  0.1156 -0.9805 -0.1187
  506MOL0     C68203   6.656   2.047   9.513  0.0450  0.6496 -0.1496
  506MOL0     C68204   6.784   2.057   9.589 -0.4336  0.1496  0.3288
  506MOL0     O68205   6.841   2.175   9.588 -0.4149 -0.1930 -0.4148
  506MOL0     C68206   6.970   2.196   9.645  0.5720 -1.2294  0.8555
  506MOL0     C68207   6.987   2.306   9.725  0.6693  0.1720  0.5012
  506MOL0     C68208   7.115   2.338   9.778 -0.8766  0.1713  0.5983
  506MOL0     C68209   7.226   2.265   9.730  0.2938  0.1318 -0.2241
  506MOL0     O68210   7.355   2.291   9.760 -0.3498 -0.0869  0.6069
  506MOL0     C68211   7.374   2.372   9.877 -0.0099  0.3443  0.1848
  506MOL0     C68212   7.521   2.381   9.905  0.0919  0.0287  0.0722
  506MOL0     C68213   7.572   2.237   9.938 -0.3920  0.6663 -0.0158
  506MOL0     C68214   7.707   2.241  10.003  0.6309  0.4934 -0.7280
  506MOL0     C68215   7.826   2.282   9.907 -0.3874  0.1488 -0.4244
  506MOL0     C68216   7.966   2.253   9.954 -0.4431 -0.0212  0.7446
  506MOL0     C68217   8.013   2.335  10.071 -0.1807  0.5114 -0.2967
  506MOL0     C68218   8.170   2.324  10.097 -1.1949  0.2009  0.7373
  506MOL0    Cl68219   8.206   2.371  10.261  0.0494  0.2628 -0.3659
  506MOL0     C68220   7.216   2.155   9.648 -0.5495 -0.7136  1.1112
  506MOL0     C68221   7.082   2.120   9.600  0.2384  0.4564  0.2825
  506MOL0     O68222   6.817   1.967   9.663 -0.1265  0.4221 -0.5540
  506MOL0     C68223   6.570   1.939   9.544 -0.4728  0.7678  0.0526
  506MOL0     C68224   6.447   1.921   9.480 -0.1124 -0.9284 -0.6038
  506MOL0     N68225   6.199   2.612   9.513 -0.4524 -0.2166  0.0306
  506MOL0     N68226   6.314   2.652   9.549 -0.1283  1.0903 -0.5139
  506MOL0     C68227   6.871   2.917  10.289  0.2322 -0.1092 -0.4905
  506MOL0     C68228   6.961   3.024  10.316  0.4582  0.0147 -0.6462
  506MOL0     C68229   7.354   3.225  10.325 -0.1164 -0.3143 -0.8430
  506MOL0     C68230   7.433   3.190  10.436  0.3347 -0.1322 -0.7605
  506MOL0     C68231   7.545   3.273  10.476 -0.2859 -0.2646 -0.9007
  506MOL0     C68232   7.584   3.385  10.398 -0.0784  1.1528 -0.7662
  506MOL0     O68233   7.681   3.471  10.437  0.7637 -0.0644  0.4461
  506MOL0     C68234   7.634   3.607  10.465 -0.6981 -0.3518  0.1423
  506MOL0     C68235   7.756   3.689  10.489  0.4100  0.5455 -0.5941
  506MOL0     C68236   7.724   3.839  10.530  0.5805 -0.5383 -0.4398
  506MOL0     C68237   7.852   3.924  10.544  0.3910 -0.3458 -0.8013
  506MOL0     C68238   7.959   3.908  10.458 -0.7314 -0.5944 -0.7442
  506MOL0     C68239   8.054   3.876  10.392  0.8224 -0.6642 -0.3354
  506MOL0     C68240   7.520   3.407  10.276 -0.6340  0.1797 -0.3724
  506MOL0     C68241   7.408   3.332  10.244 -0.6793  0.7645 -0.4375
  506MOL0     C68242   7.333   3.379  10.131  0.7643  0.1305  0.2576
  506MOL0     H68243   7.196   2.841  10.487 -0.3009 -0.1279  1.7705
  506MOL0     H68244   7.053   2.659  10.410 -0.4174 -0.4044 -0.5843
  506MOL0     H68245   6.948   2.525  10.246 -1.4047 -0.1647  0.2265
  506MOL0     H68246   6.859   2.527  10.393 -0.8203  0.7202  1.4099
  506MOL0     H68247   6.645   2.501  10.248 -0.8956  3.3109 -2.8442
  506MOL0     H68248   6.757   2.374  10.216  1.8095  0.2994 -0.1047
  506MOL0     H68249   6.838   2.513  10.025  1.6109 -0.5816  5.0471
  506MOL0     H68250   6.716   2.625  10.058 -2.0352 -0.1927 -1.1011
  506MOL0     H68251   6.645   2.327  10.033 -2.1575 -0.4737  0.6884
  506MOL0     H68252   6.535   2.470  10.047  0.1321 -1.0966 -0.8854
  506MOL0     H68253   6.663   2.530   9.823  1.8859  0.2313 -0.0152
  506MOL0     H68254   6.707   2.356   9.822  1.2632  1.8724 -0.3127
  506MOL0     H68255   6.447   2.335   9.801  0.5079 -1.2751 -0.8256
  506MOL0     H68256   6.440   2.509   9.781  1.0621  0.5022 -3.1668
  506MOL0     H68257   6.476   2.352   9.579 -1.2854  1.4753  0.4519
  506MOL0     H68258   6.648   2.389   9.607 -0.5710 -0.7343 -3.4558
  506MOL0     H68259   6.564   2.644   9.600  1.6244 -1.3762  1.6445
  506MOL0     H68260   6.624   2.559   9.465 -1.8214 -1.0410 -1.6706
  506MOL0     H68261   6.396   2.421   9.332 -2.1274 -1.5035 -0.3215
  506MOL0     H68262   6.027   2.431   9.436  0.9557 -2.6345  1.9221
  506MOL0     H68263   6.064   2.512   9.287  5.1132  0.2132 -1.5322
  506MOL0     H68264   6.048   2.329   9.200  0.4933 -0.7680  0.2995
  506MOL0     H68265   6.230   2.335   9.213  0.5720 -1.0787  0.4742
  506MOL0     H68266   6.041   2.159   9.382  1.1344 -1.6385  1.2081
  506MOL0     H68267   6.194   2.204   9.446 -0.0797 -2.3448 -0.9542
  506MOL0     H68268   6.288   2.138   9.200  2.3864  0.8271  1.1153
  506MOL0     H68269   6.134   2.040   9.201  0.8751  1.0047 -1.8105
  506MOL0     H68270   6.466   2.212   9.312 -1.7805 -0.0600 -0.3929
  506MOL0     H68271   6.656   2.241   9.424 -1.8498 -0.0970 -2.6406
  506MOL0     H68272   6.907   2.377   9.740 -0.4309 -0.0676 -3.1605
  506MOL0     H68273   7.129   2.436   9.824  0.8436 -0.2883  1.0963
  506MOL0     H68274   7.334   2.473   9.862 -0.2443  0.3739  0.9599
  506MOL0     H68275   7.324   2.312   9.954  1.5396 -1.9635 -0.5082
  506MOL0     H68276   7.574   2.417   9.816 -0.1284 -2.5429 -1.1720
  506MOL0     H68277   7.547   2.452   9.984  1.7026  0.4925 -0.8277
  506MOL0     H68278   7.502   2.188  10.007  1.6698  0.5526  2.1027
  506MOL0     H68279   7.570   2.181   9.844  0.2767 -1.0232  0.9215
  506MOL0     H68280   7.728   2.142  10.043  1.1664  1.4515  1.5030
  506MOL0     H68281   7.699   2.301  10.094 -1.7902 -0.0448 -0.5008
  506MOL0     H68282   7.810   2.388   9.881 -1.6385 -0.0559 -0.5648
  506MOL0     H68283   7.804   2.209   9.829  0.5506  0.9015 -1.4174
  506MOL0     H68284   7.979   2.147   9.980  1.2096 -0.0177  0.0176
  506MOL0     H68285   8.033   2.266   9.870  1.1879 -0.5428  1.9172
  506MOL0     H68286   7.967   2.289  10.159  1.3963 -2.8175 -1.0389
  506MOL0     H68287   7.982   2.440  10.064 -0.8993  0.2940 -0.3538
  506MOL0     H68288   8.207   2.227  10.064 -1.9456  0.4217 -0.8246
  506MOL0     H68289   8.224   2.399  10.037 -0.5371 -0.0797  0.9728
  506MOL0     H68290   7.303   2.112   9.599  0.2662  2.2150 -0.2431
  506MOL0     H68291   7.076   2.039   9.529  0.2332 -1.7415  2.6557
  506MOL0     H68292   6.604   1.857   9.608 -0.2385  1.9140  1.4461
  506MOL0     H68293   6.396   1.826   9.482 -1.3387 -0.2909  1.2372
  506MOL0     H68294   6.777   2.941  10.240 -0.6705  1.2430  1.7944
  506MOL0     H68295   6.941   3.124  10.279  0.9246  1.0511  1.6876
  506MOL0     H68296   7.401   3.110  10.503  2.0923 -0.7611 -0.6194
  506MOL0     H68297   7.592   3.243  10.570 -1.0035 -0.9018 -0.7306
  506MOL0     H68298   7.574   3.613  10.556  1.8790  1.6864  1.8712
  506MOL0     H68299   7.583   3.654  10.380  1.0159  1.2269 -0.0950
  506MOL0     H68300   7.813   3.698  10.396 -0.2440  2.8004 -0.8531
  506MOL0     H68301   7.806   3.643  10.575  0.1381 -0.1997 -0.8259
  506MOL0     H68302   7.659   3.832  10.618  0.0966  0.6792 -0.6841
  506MOL0     H68303   7.673   3.880  10.443  1.2285  0.9176 -0.1491
  506MOL0     H68304   7.822   4.029  10.547 -0.3972 -0.5628 -0.7412
  506MOL0     H68305   7.884   3.897  10.645 -0.8781 -1.5764 -0.6884
  506MOL0     H68306   8.147   3.856  10.342 -0.2210 -0.9155 -2.2803
  506MOL0     H68307   7.547   3.495  10.219 -0.7351 -0.5720 -1.6300
  506MOL0     H68308   7.235   3.414  10.165  0.0973 -0.5153 -0.9084
  506MOL0     H68309   7.375   3.469  10.086  1.4807  0.3102  1.2643
  506MOL0     H68310   7.324   3.306  10.050 -0.5073  1.4440 -0.8452
  507MOL0     O68311   8.432   5.826   4.511 -0.2735 -0.4556 -0.1958
  507MOL0     C68312   8.516   5.889   4.570 -0.0308 -0.2277  0.2055
  507MOL0     O68313   8.644   5.911   4.527 -0.0640  0.4090 -0.6149
  507MOL0     C68314   8.712   5.832   4.434  0.0338  0.4480  0.4354
  507MOL0     C68315   8.677   5.707   4.379  0.2650  0.2098  0.5411
  507MOL0     C68316   8.774   5.640   4.303 -0.9071 -0.0536 -0.9447
  507MOL0     C68317   8.904   5.685   4.271 -0.8532 -0.1352 -0.6655
  507MOL0     O68318   9.001   5.595   4.221 -0.0820  0.2207 -0.0685
  507MOL0     C68319   9.134   5.632   4.171  0.9375 -0.7032 -0.0757
  507MOL0     C68320   9.141   5.675   4.019  0.0775 -0.3220 -0.2208
  507MOL0     C68321   9.285   5.683   3.970 -0.7392 -0.2934  0.8568
  507MOL0     C68322   9.297   5.737   3.836  0.5240  0.0250 -0.1396
  507MOL0     C68323   9.439   5.762   3.782 -0.1675  0.2537  0.4803
  507MOL0     C68324   9.515   5.628   3.787 -0.8214 -0.1332 -0.4566
  507MOL0     C68325   9.653   5.630   3.723 -0.5791  0.9572 -0.5238
  507MOL0     C68326   9.712   5.490   3.757 -0.2682  0.0327 -0.2411
  507MOL0     N68327   9.837   5.483   3.682  0.0663 -0.4805  0.4431
  507MOL0     C68328   9.952   5.520   3.741 -0.0297 -0.1086 -0.5074
  507MOL0     C68329  10.043   5.515   3.638 -1.1188  1.0511 -0.4264
  507MOL0     C68330  10.195   5.531   3.645 -0.9496 -1.5918 -1.0963
  507MOL0     C68331  10.244   5.678   3.641 -0.0426  0.2181 -0.1864
  507MOL0     C68332  10.374   5.721   3.708  0.2171  0.2874 -0.4521
  507MOL0     C68333  10.497   5.638   3.667 -0.8638  0.4444  0.1613
  507MOL0     O68334  10.576   5.636   3.783 -0.7471  0.2742 -0.5763
  507MOL0     C68335  10.708   5.611   3.788  0.5707  0.0538 -0.1142
  507MOL0     C68336  10.773   5.546   3.679 -0.4091 -0.5215 -0.6039
  507MOL0     C68337  10.909   5.515   3.700 -0.0636 -0.5994  0.1239
  507MOL0     C68338  10.985   5.537   3.822 -0.0400 -1.1289 -0.0632
  507MOL0     C68339  11.132   5.506   3.817  0.5180  0.2377  0.4795
  507MOL0     O68340  11.179   5.422   3.714 -0.2344  0.2486 -0.6137
  507MOL0     C68341  11.306   5.373   3.729  0.0558 -0.1613  0.2571
  507MOL0     C68342  11.409   5.444   3.680  0.2156  0.0543  0.1928
  507MOL0     C68343  11.539   5.410   3.705 -0.0588  1.1752  0.0880
  507MOL0     C68344  11.560   5.299   3.790  0.6523 -1.4762 -0.8750
  507MOL0     O68345  11.687   5.274   3.838  0.9966  0.1324 -0.3667
  507MOL0     C68346  11.734   5.147   3.799 -0.2109  0.2969 -0.8289
  507MOL0     C68347  11.892   5.160   3.810  0.4165  0.3560  0.0558
  507MOL0     C68348  11.966   5.023   3.832 -0.1178  1.1275 -0.2372
  507MOL0     C68349  12.119   5.023   3.809  0.0514 -0.1460  1.1253
  507MOL0     C68350  12.172   4.880   3.841 -0.4563  0.4014 -0.1249
  507MOL0     C68351  12.322   4.860   3.798  0.2484  0.0156  0.0468
  507MOL0     C68352  12.348   4.712   3.799  0.6496  0.0506 -0.1453
  507MOL0     C68353  12.482   4.683   3.744 -0.1785  0.3348  0.0864
  507MOL0    Cl68354  12.610   4.687   3.870 -0.0366  0.0626 -0.2053
  507MOL0     C68355  11.454   5.217   3.822 -0.7984  0.4469  0.3055
  507MOL0     C68356  11.327   5.256   3.802  0.1311  0.1481  0.2479
  507MOL0     O68357  11.201   5.563   3.899  0.1422 -0.0375 -0.3415
  507MOL0     C68358  10.914   5.594   3.924 -0.3180 -0.4609 -0.4679
  507MOL0     C68359  10.782   5.632   3.908  0.0649  0.0634 -0.6033
  507MOL0     N68360   9.983   5.481   3.515  0.3037  0.1509 -0.4914
  507MOL0     N68361   9.856   5.464   3.547  0.6098 -0.9423  0.2125
  507MOL0     C68362   8.942   5.808   4.335 -0.0412 -0.7352  0.4169
  507MOL0     C68363   8.846   5.873   4.408 -0.8177 -0.3282  0.0431
  507MOL0     C68364   8.480   5.957   4.693 -0.8520 -0.0465 -0.3146
  507MOL0     C68365   8.548   6.073   4.736 -0.6433 -0.3765  0.0504
  507MOL0     C68366   8.524   6.139   4.862 -0.2016  0.0942  0.3508
  507MOL0     C68367   8.415   6.095   4.935 -0.5711  0.2822  0.6476
  507MOL0     O68368   8.389   6.156   5.055 -0.7108 -0.0818  0.4003
  507MOL0     C68369   8.249   6.179   5.089 -0.1540  0.1352 -0.1484
  507MOL0     C68370   8.230   6.298   5.192  0.4766  0.3088  0.1193
  507MOL0     C68371   8.241   6.258   5.340  0.6426  0.3820  0.1309
  507MOL0     C68372   8.198   6.362   5.441  0.4846 -0.0502  0.3201
  507MOL0     C68373   8.054   6.388   5.451 -0.2336 -0.2236  0.6459
  507MOL0     C68374   7.939   6.418   5.464 -0.0320 -0.5567 -0.4898
  507MOL0     C68375   8.351   5.980   4.891  0.1339 -0.1765 -0.2702
  507MOL0     C68376   8.384   5.910   4.777 -0.0002 -0.1888 -0.4170
  507MOL0     C68377   8.299   5.788   4.767  0.9252  0.2880 -0.3512
  507MOL0     H68378   8.575   5.673   4.388  0.0437  0.4243 -0.9598
  507MOL0     H68379   8.741   5.547   4.258 -0.5821  0.3592 -2.0730
  507MOL0     H68380   9.179   5.704   4.240  0.1695 -0.7491  0.4772
  507MOL0     H68381   9.190   5.538   4.164 -2.7454 -3.0718 -0.3296
  507MOL0     H68382   9.090   5.772   4.021 -1.1414 -0.9117  3.0281
  507MOL0     H68383   9.089   5.595   3.966 -0.0609  0.4945 -1.3565
  507MOL0     H68384   9.318   5.579   3.964  1.2568  0.3495 -0.0575
  507MOL0     H68385   9.346   5.729   4.048  1.6392 -2.7517  0.6127
  507MOL0     H68386   9.244   5.683   3.757  0.4812 -1.5924  0.9337
  507MOL0     H68387   9.249   5.835   3.842  1.8272  0.5936  1.9107
  507MOL0     H68388   9.424   5.786   3.677 -3.7902  0.2158  0.8815
  507MOL0     H68389   9.502   5.837   3.832  2.2758 -0.1104 -1.7939
  507MOL0     H68390   9.527   5.610   3.894 -0.0404 -2.4637 -0.8709
  507MOL0     H68391   9.450   5.548   3.750 -2.3267  0.6095  0.4908
  507MOL0     H68392   9.706   5.718   3.759 -0.7164  0.2729  1.4841
  507MOL0     H68393   9.647   5.642   3.615  0.5193 -1.7188 -0.9531
  507MOL0     H68394   9.728   5.472   3.864  0.5356  2.2685  0.0704
  507MOL0     H68395   9.659   5.409   3.708 -1.2805  1.9359 -2.4936
  507MOL0     H68396   9.981   5.533   3.845 -0.0603  0.5025 -0.5711
  507MOL0     H68397  10.231   5.484   3.737  0.3829 -0.9831 -1.2782
  507MOL0     H68398  10.239   5.477   3.561  0.5913 -1.5849 -0.3237
  507MOL0     H68399  10.253   5.699   3.534 -0.2484 -0.7610 -0.4073
  507MOL0     H68400  10.169   5.747   3.679  4.6781  4.8714  1.9792
  507MOL0     H68401  10.372   5.716   3.817 -1.6545  1.5438 -0.3784
  507MOL0     H68402  10.388   5.826   3.682 -0.5803  0.5772  0.2512
  507MOL0     H68403  10.545   5.683   3.579  0.4375  1.5229  1.3818
  507MOL0     H68404  10.462   5.536   3.647 -1.9412  0.8932 -0.3178
  507MOL0     H68405  10.734   5.541   3.578 -2.5119 -0.2459  0.1445
  507MOL0     H68406  10.970   5.495   3.612 -1.1276 -1.9335 -0.3408
  507MOL0     H68407  11.376   5.532   3.625 -1.5248  0.0699  1.1796
  507MOL0     H68408  11.625   5.468   3.672  0.4422  0.4397  0.0851
  507MOL0     H68409  11.709   5.073   3.876  0.8833 -0.2482 -0.9819
  507MOL0     H68410  11.703   5.119   3.698  2.5347 -0.5047 -1.5385
  507MOL0     H68411  11.928   5.203   3.716  0.8140  0.0274  0.0538
  507MOL0     H68412  11.926   5.219   3.895  1.3970 -0.4242  0.2275
  507MOL0     H68413  11.951   4.995   3.937 -0.9244 -1.5182 -0.9715
  507MOL0     H68414  11.911   4.953   3.769 -3.5294  1.2957  2.2549
  507MOL0     H68415  12.164   5.100   3.873 -0.7028  0.5740  0.8159
  507MOL0     H68416  12.148   5.045   3.706  0.2237 -0.7284  1.0466
  507MOL0     H68417  12.117   4.809   3.778  0.1326 -0.3221  0.1577
  507MOL0     H68418  12.147   4.853   3.944  2.1309  0.9124  0.7123
  507MOL0     H68419  12.327   4.899   3.696  0.0587 -0.4412 -0.1403
  507MOL0     H68420  12.385   4.921   3.863 -0.7217  1.6205 -0.4656
  507MOL0     H68421  12.279   4.669   3.726  2.1197  2.0238 -2.8974
  507MOL0     H68422  12.326   4.670   3.897 -2.5772  2.8321  0.5151
  507MOL0     H68423  12.480   4.582   3.701  1.5232  0.6566 -0.8381
  507MOL0     H68424  12.499   4.754   3.663 -1.1041  1.4724  0.8537
  507MOL0     H68425  11.469   5.126   3.879  0.9931 -0.1829 -1.1016
  507MOL0     H68426  11.238   5.208   3.841  0.5447 -0.9865 -0.1360
  507MOL0     H68427  10.973   5.618   4.012 -0.5961 -0.4644 -0.2789
  507MOL0     H68428  10.734   5.678   3.994  3.2016  1.9664  0.3133
  507MOL0     H68429   9.045   5.843   4.334 -0.0492 -0.6438  1.5597
  507MOL0     H68430   8.876   5.966   4.455 -0.6211 -1.5961  2.6081
  507MOL0     H68431   8.627   6.111   4.673  0.0303  0.6974  1.5138
  507MOL0     H68432   8.584   6.221   4.900 -2.5990  1.2633  1.9220
  507MOL0     H68433   8.204   6.086   5.125  0.3953 -0.4055 -0.8262
  507MOL0     H68434   8.192   6.199   4.997 -0.3858 -1.9212 -0.5059
  507MOL0     H68435   8.130   6.338   5.170  1.3879  1.2868 -2.6881
  507MOL0     H68436   8.307   6.373   5.171  0.6849 -0.4026 -1.8442
  507MOL0     H68437   8.347   6.237   5.353  0.9891  0.2039 -2.4939
  507MOL0     H68438   8.194   6.164   5.370  1.6905  0.0591  0.8151
  507MOL0     H68439   8.238   6.328   5.537 -0.5447 -0.6031  0.5706
  507MOL0     H68440   8.244   6.456   5.411  0.5992 -0.5784 -1.2336
  507MOL0     H68441   7.840   6.457   5.472  0.9861  1.9407  0.9006
  507MOL0     H68442   8.274   5.941   4.957  0.5481 -0.3224  0.1358
  507MOL0     H68443   8.340   5.701   4.714  2.7730  0.5053  0.6328
  507MOL0     H68444   8.275   5.745   4.865 -2.0103 -1.5304 -1.7259
  507MOL0     H68445   8.199   5.801   4.725  0.9057 -1.7907 -1.0586
  508MOL0     O68446   6.497   6.937   4.873 -0.3279  0.4889 -0.4951
  508MOL0     C68447   6.447   6.899   4.982  0.1166  0.7088  0.0588
  508MOL0     O68448   6.419   6.977   5.091  0.0152 -0.6531 -1.0470
  508MOL0     C68449   6.448   7.113   5.077  0.9507 -0.3248  0.2695
  508MOL0     C68450   6.582   7.157   5.054 -0.8910 -0.0718  0.7718
  508MOL0     C68451   6.595   7.286   5.009 -0.2865 -0.4023 -1.1997
  508MOL0     C68452   6.490   7.378   4.982  0.1445 -0.2621 -0.3768
  508MOL0     O68453   6.538   7.492   4.922 -0.6901 -0.7880 -0.2782
  508MOL0     C68454   6.448   7.567   4.848 -0.1013  0.1011 -0.3815
  508MOL0     C68455   6.495   7.715   4.810 -0.4834 -1.0322 -0.2945
  508MOL0     C68456   6.653   7.717   4.825 -0.0117 -0.3978  0.2745
  508MOL0     C68457   6.730   7.845   4.791 -0.2255  1.3908 -0.6995
  508MOL0     C68458   6.884   7.842   4.814  0.2468 -0.7282 -0.8719
  508MOL0     C68459   6.940   7.700   4.784  0.0933 -0.1830  0.7329
  508MOL0     C68460   7.094   7.683   4.781  0.1508 -1.0892 -0.3230
  508MOL0     C68461   7.150   7.731   4.909 -0.3674  0.3636 -0.4228
  508MOL0     N68462   7.294   7.766   4.895 -0.0942 -0.0556 -0.4371
  508MOL0     C68463   7.393   7.673   4.921  0.4651 -0.2162 -0.1307
  508MOL0     C68464   7.508   7.744   4.915  0.6199 -0.2535  0.8331
  508MOL0     C68465   7.654   7.705   4.924 -0.1849 -0.9775 -0.4448
  508MOL0     C68466   7.713   7.751   5.062  0.1666  0.7023  0.9063
  508MOL0     C68467   7.844   7.677   5.090 -0.5315  0.9198  0.0253
  508MOL0     C68468   7.958   7.743   5.015  0.3206 -1.1429  0.7386
  508MOL0     O68469   8.001   7.860   5.086  0.0188 -0.0577 -0.5242
  508MOL0     C68470   8.107   7.939   5.038 -0.4338  0.6902 -0.0045
  508MOL0     C68471   8.158   8.038   5.120 -0.3242 -0.6472 -0.7743
  508MOL0     C68472   8.270   8.116   5.087  0.1333  0.1027 -0.1299
  508MOL0     C68473   8.339   8.080   4.965 -0.0068  0.0920 -0.7305
  508MOL0     C68474   8.469   8.136   4.941  0.1425  0.0040  0.1528
  508MOL0     O68475   8.531   8.083   4.828  0.3399  0.2260 -0.7183
  508MOL0     C68476   8.663   8.108   4.822 -0.1542  1.0401 -0.0931
  508MOL0     C68477   8.706   8.152   4.701  0.2759 -0.1813  0.4321
  508MOL0     C68478   8.837   8.175   4.673 -0.5909  0.0247  0.1865
  508MOL0     C68479   8.928   8.165   4.772  0.0917  0.0042 -0.3724
  508MOL0     O68480   9.061   8.178   4.749  0.3275  0.5005  0.2583
  508MOL0     C68481   9.099   8.315   4.742 -0.2130 -0.8523 -0.5225
  508MOL0     C68482   9.197   8.355   4.629 -0.1861 -0.6159 -1.3009
  508MOL0     C68483   9.341   8.300   4.629 -0.4871 -0.3470 -0.8163
  508MOL0     C68484   9.346   8.184   4.534 -0.1694 -0.3908 -0.4237
  508MOL0     C68485   9.481   8.103   4.542  0.4053  0.3730 -0.2877
  508MOL0     C68486   9.525   8.076   4.679 -0.0494  0.6409 -0.2946
  508MOL0     C68487   9.651   7.996   4.684 -0.8532 -0.4824  0.3009
  508MOL0     C68488   9.778   8.060   4.737  0.2144  0.0146  0.4196
  508MOL0    Cl68489   9.917   7.956   4.682  0.2216 -0.1299  0.0778
  508MOL0     C68490   8.892   8.135   4.905  0.1302 -0.5265 -0.2830
  508MOL0     C68491   8.751   8.104   4.936 -0.5414 -0.7517 -0.3738
  508MOL0     O68492   8.492   8.250   4.993  0.2312 -0.7560  0.0149
  508MOL0     C68493   8.286   7.981   4.879  0.1139 -1.0202  0.0518
  508MOL0     C68494   8.171   7.913   4.916 -0.5542  0.2248 -0.1395
  508MOL0     N68495   7.472   7.870   4.871 -0.5138 -0.5365  0.5222
  508MOL0     N68496   7.348   7.881   4.854 -0.3713  0.1776 -0.1731
  508MOL0     C68497   6.364   7.325   4.991  0.2986 -0.0675 -0.3024
  508MOL0     C68498   6.336   7.197   5.039 -0.0340 -0.3117  0.8490
  508MOL0     C68499   6.413   6.752   4.997 -0.0142  0.3158 -0.7410
  508MOL0     C68500   6.489   6.673   5.078 -0.3769  0.7959 -0.5334
  508MOL0     C68501   6.489   6.529   5.076 -0.7499 -0.0157 -0.5059
  508MOL0     C68502   6.389   6.465   5.010  0.4811 -0.2395  0.1033
  508MOL0     O68503   6.383   6.333   5.029 -0.2535  0.2725  0.9246
  508MOL0     C68504   6.299   6.253   4.949 -0.0596 -0.2967  0.6478
  508MOL0     C68505   6.288   6.119   5.009  0.5285 -1.2661 -0.6199
  508MOL0     C68506   6.176   6.043   4.945  0.4110 -0.4501 -0.6161
  508MOL0     C68507   6.153   5.897   4.999  0.4261 -0.6184  0.0678
  508MOL0     C68508   6.100   5.911   5.131  0.3168  1.1011  0.1743
  508MOL0     C68509   6.049   5.908   5.241  0.7482 -0.0240 -0.6950
  508MOL0     C68510   6.294   6.548   4.936 -0.2623  0.1701  0.4354
  508MOL0     C68511   6.319   6.685   4.923 -0.0667 -0.7362 -0.2089
  508MOL0     C68512   6.231   6.768   4.827  0.4322  0.3146  0.3251
  508MOL0     H68513   6.657   7.080   5.072 -2.3457 -1.5949  0.5452
  508MOL0     H68514   6.692   7.328   5.032 -1.1601  1.9117 -1.4738
  508MOL0     H68515   6.427   7.507   4.759  0.0214  1.6785 -1.5137
  508MOL0     H68516   6.359   7.584   4.910 -0.7983  0.6328 -1.4818
  508MOL0     H68517   6.446   7.785   4.878  0.5008  0.0105 -0.6194
  508MOL0     H68518   6.465   7.749   4.710 -0.1252  0.2281  0.0090
  508MOL0     H68519   6.685   7.639   4.756 -0.7056  0.9200 -1.5987
  508MOL0     H68520   6.676   7.688   4.928  2.0318 -0.0130 -0.0338
  508MOL0     H68521   6.716   7.864   4.684  2.5958  4.9393 -0.6132
  508MOL0     H68522   6.682   7.931   4.839 -0.2979  3.0574 -3.5068
  508MOL0     H68523   6.933   7.920   4.756  1.5023  0.1859  1.3067
  508MOL0     H68524   6.893   7.862   4.921  0.2108 -1.6579 -0.6850
  508MOL0     H68525   6.911   7.624   4.858  1.4516 -0.9048  0.5521
  508MOL0     H68526   6.897   7.665   4.689 -2.5696  1.7333  1.1184
  508MOL0     H68527   7.139   7.725   4.690  2.6575  0.0976  1.3492
  508MOL0     H68528   7.108   7.575   4.770  2.9204 -1.0712  1.8060
  508MOL0     H68529   7.098   7.822   4.941  1.8509  0.9028  1.9661
  508MOL0     H68530   7.142   7.652   4.984 -3.0779 -1.7385 -2.6999
  508MOL0     H68531   7.380   7.574   4.964 -2.0483  0.4183  0.7241
  508MOL0     H68532   7.654   7.597   4.904 -0.4201 -0.7379 -1.9008
  508MOL0     H68533   7.708   7.757   4.844 -3.6845  1.2948 -1.5702
  508MOL0     H68534   7.725   7.859   5.071 -2.0109  1.2313 -1.3811
  508MOL0     H68535   7.639   7.725   5.138  1.4489 -4.4061  0.8036
  508MOL0     H68536   7.836   7.569   5.075  3.8890  0.6438 -1.9473
  508MOL0     H68537   7.857   7.687   5.198  1.7149  2.0825 -0.2826
  508MOL0     H68538   7.922   7.771   4.916 -2.1089  0.2749  1.9310
  508MOL0     H68539   8.036   7.667   5.015  0.3865 -1.0739  0.9043
  508MOL0     H68540   8.106   8.053   5.214 -1.4556 -0.2257 -1.4538
  508MOL0     H68541   8.287   8.188   5.167 -0.3428 -1.1582  1.1575
  508MOL0     H68542   8.628   8.150   4.625  0.0137  1.0014  0.6463
  508MOL0     H68543   8.862   8.209   4.573 -1.5483  2.7683  0.7654
  508MOL0     H68544   9.021   8.390   4.729  0.3909 -0.1731 -0.3382
  508MOL0     H68545   9.146   8.340   4.838  0.7591 -0.0234 -1.1879
  508MOL0     H68546   9.150   8.326   4.534  0.6389 -1.2967 -1.5089
  508MOL0     H68547   9.196   8.464   4.636 -1.8862 -0.6598 -0.2159
  508MOL0     H68548   9.409   8.371   4.580  0.9597 -3.3258 -3.5334
  508MOL0     H68549   9.369   8.279   4.733  1.8168  0.2269 -1.2565
  508MOL0     H68550   9.319   8.236   4.441 -2.7200  0.6354  0.8035
  508MOL0     H68551   9.269   8.112   4.564  1.5205 -2.2260 -0.2751
  508MOL0     H68552   9.567   8.161   4.506  2.6922 -1.8279  1.2323
  508MOL0     H68553   9.470   8.014   4.480 -0.8171  1.3146 -1.5003
  508MOL0     H68554   9.544   8.169   4.732 -2.2205  0.1118  1.5568
  508MOL0     H68555   9.446   8.026   4.735  1.6370 -1.2815  0.4938
  508MOL0     H68556   9.678   7.954   4.587  0.3644  1.1347 -0.0953
  508MOL0     H68557   9.630   7.903   4.738  0.6984 -3.4202 -3.6179
  508MOL0     H68558   9.803   8.152   4.682  0.8950  0.4286  1.3913
  508MOL0     H68559   9.777   8.073   4.846 -0.7673  0.9323  0.3239
  508MOL0     H68560   8.973   8.131   4.977 -1.0584 -2.2014  1.0516
  508MOL0     H68561   8.722   8.072   5.036 -0.4195  3.4187  1.1959
  508MOL0     H68562   8.323   7.955   4.780 -2.2314  0.0890 -1.2067
  508MOL0     H68563   8.146   7.828   4.853  0.7252 -1.5022  1.5721
  508MOL0     H68564   6.282   7.387   4.959 -0.2130  1.6639  3.7048
  508MOL0     H68565   6.240   7.145   5.035  0.9499 -2.2990  1.3684
  508MOL0     H68566   6.576   6.714   5.128  0.7695 -1.7719 -0.2383
  508MOL0     H68567   6.552   6.471   5.143 -1.5368  1.2823  1.4207
  508MOL0     H68568   6.341   6.250   4.848  1.8880  0.0428  1.4029
  508MOL0     H68569   6.197   6.292   4.956 -1.9945 -4.6636 -0.2411
  508MOL0     H68570   6.274   6.128   5.117  0.0803 -0.0987 -0.7634
  508MOL0     H68571   6.385   6.070   4.997  0.5306 -1.2117 -0.8224
  508MOL0     H68572   6.198   6.044   4.838  1.8167  1.9748 -0.3624
  508MOL0     H68573   6.086   6.101   4.969  1.9327  2.2966 -1.1727
  508MOL0     H68574   6.075   5.844   4.944  1.3023 -1.2870 -0.5590
  508MOL0     H68575   6.242   5.834   5.000 -0.4694 -2.0673 -2.5055
  508MOL0     H68576   6.013   5.910   5.342 -2.3847 -0.1730 -1.6995
  508MOL0     H68577   6.204   6.497   4.903 -1.8454  1.1369  2.9111
  508MOL0     H68578   6.278   6.768   4.729  1.2203  2.0013  0.6575
  508MOL0     H68579   6.128   6.732   4.826  0.8407 -0.8855 -0.2301
  508MOL0     H68580   6.224   6.873   4.859 -3.2805  0.4455 -0.4883
  509MOL0     O68581   9.782  10.015   3.257  0.8163  0.3828  0.3389
  509MOL0     C68582   9.852  10.025   3.356  0.3243  0.3568 -0.1853
  509MOL0     O68583   9.796  10.070   3.479  1.0780 -0.0551 -0.0466
  509MOL0     C68584   9.673  10.018   3.518 -0.5854  0.4548 -0.4072
  509MOL0     C68585   9.606  10.077   3.622 -0.3075  0.6788 -0.6275
  509MOL0     C68586   9.487  10.025   3.679  0.3626  0.3724 -0.7693
  509MOL0     C68587   9.426   9.911   3.623 -0.4103  0.2927  0.6003
  509MOL0     O68588   9.305   9.864   3.684 -0.4343 -0.0964  0.2370
  509MOL0     C68589   9.221   9.783   3.599 -0.6455 -0.2902  0.0033
  509MOL0     C68590   9.082   9.789   3.655  0.0189 -0.0811  0.3656
  509MOL0     C68591   9.039   9.933   3.694  0.5452 -0.1123  0.0003
  509MOL0     C68592   8.883   9.941   3.706  0.2380  0.4283 -0.0573
  509MOL0     C68593   8.839  10.054   3.803 -0.2986  0.1498  0.3468
  509MOL0     C68594   8.686  10.052   3.817  0.5813 -0.4409 -0.4339
  509MOL0     C68595   8.638  10.102   3.956 -0.0309  0.7348 -0.8044
  509MOL0     C68596   8.661  10.032   4.092 -0.4000  0.1919  0.8871
  509MOL0     N68597   8.641   9.881   4.088  0.3920 -0.4281 -0.6071
  509MOL0     C68598   8.528   9.825   4.029  0.4898  0.7378 -0.4690
  509MOL0     C68599   8.547   9.691   4.050  0.0141 -0.4549 -0.0011
  509MOL0     C68600   8.480   9.571   3.993 -0.1536  1.0203 -0.0738
  509MOL0     C68601   8.518   9.527   3.850  0.0039 -0.0306 -0.3136
  509MOL0     C68602   8.633   9.432   3.849 -0.6962  0.6681  0.1387
  509MOL0     C68603   8.774   9.488   3.872  0.0012  0.1664 -0.3114
  509MOL0     O68604   8.863   9.371   3.892  0.9298  0.7580  0.1627
  509MOL0     C68605   8.993   9.403   3.906  0.3298  0.6565  0.1672
  509MOL0     C68606   9.030   9.522   3.980 -1.0901  0.5069  0.4125
  509MOL0     C68607   9.161   9.571   3.971 -0.1109  0.0148 -0.1726
  509MOL0     C68608   9.267   9.490   3.906 -0.0677 -0.1774  0.2108
  509MOL0     C68609   9.407   9.536   3.898 -0.5120  0.2422  0.2862
  509MOL0     O68610   9.446   9.608   4.003  0.0315  0.3049 -0.1609
  509MOL0     C68611   9.566   9.680   4.013  0.5267 -0.7616  0.0547
  509MOL0     C68612   9.648   9.712   3.906  0.2503 -0.3705  0.1022
  509MOL0     C68613   9.738   9.815   3.919 -0.0546  0.2318  0.0352
  509MOL0     C68614   9.765   9.875   4.044 -0.7355  0.4960  0.1588
  509MOL0     O68615   9.869   9.971   4.065 -0.5188 -0.2369  0.5819
  509MOL0     C68616   9.935  10.019   3.948 -0.2355 -0.2047  0.0453
  509MOL0     C68617  10.040  10.125   3.994  1.3041  0.6023  0.2038
  509MOL0     C68618  10.104  10.177   3.863 -0.2817 -1.1352 -0.6757
  509MOL0     C68619  10.192  10.296   3.898  0.4200 -1.1149  0.1182
  509MOL0     C68620  10.192  10.401   3.783  0.4155  0.8911 -0.1831
  509MOL0     C68621  10.297  10.512   3.789 -0.2739 -0.8119  0.1422
  509MOL0     C68622  10.303  10.588   3.651  0.9735  0.3232  0.6750
  509MOL0     C68623  10.325  10.750   3.671  0.0499  0.2988 -0.1984
  509MOL0    Cl68624  10.483  10.766   3.755  0.3288 -0.1296  0.0154
  509MOL0     C68625   9.693   9.838   4.159 -0.2805  0.4870 -0.1148
  509MOL0     C68626   9.594   9.742   4.140  0.0089  0.7866  0.7808
  509MOL0     O68627   9.478   9.488   3.816 -0.3701 -0.2251  0.9588
  509MOL0     C68628   9.228   9.373   3.840 -0.7146  0.6431 -0.0343
  509MOL0     C68629   9.093   9.337   3.833  0.3637 -0.1665  0.0096
  509MOL0     N68630   8.664   9.677   4.125  0.1939  0.3735  0.8717
  509MOL0     N68631   8.721   9.792   4.148  0.1382  0.6809 -0.1870
  509MOL0     C68632   9.479   9.864   3.501 -0.1138  0.1638 -0.5407
  509MOL0     C68633   9.606   9.912   3.454 -0.3001 -0.1328  0.1397
  509MOL0     C68634  10.001  10.045   3.341 -0.3379 -1.1740 -1.1942
  509MOL0     C68635  10.061  10.128   3.437 -0.1309 -0.0948 -0.3825
  509MOL0     C68636  10.206  10.124   3.452 -0.6401  0.3422  0.7838
  509MOL0     C68637  10.286  10.072   3.353  0.5590 -0.3873 -0.0728
  509MOL0     O68638  10.418  10.107   3.371 -0.1021 -0.2784 -0.4826
  509MOL0     C68639  10.509  10.063   3.279 -0.3277  1.2742  1.1742
  509MOL0     C68640  10.590   9.950   3.352  0.5561 -0.7071  0.3874
  509MOL0     C68641  10.685   9.884   3.246 -0.5658 -0.6623 -0.1046
  509MOL0     C68642  10.782   9.978   3.174 -0.4916 -0.8853  0.0674
  509MOL0     C68643  10.867  10.062   3.265  0.1027  0.4691 -0.0470
  509MOL0     C68644  10.945  10.128   3.329  0.3185 -0.5462 -0.2858
  509MOL0     C68645  10.228   9.993   3.252  0.1323  0.2226  0.3973
  509MOL0     C68646  10.091   9.975   3.251  0.8568 -0.2058 -0.2716
  509MOL0     C68647  10.037   9.885   3.142 -0.6858  0.2437 -0.0082
  509MOL0     H68648   9.650  10.164   3.670 -0.5843  0.3556  0.2505
  509MOL0     H68649   9.437  10.079   3.758  1.6397  1.9704 -1.0041
  509MOL0     H68650   9.214   9.820   3.496 -1.0168  1.0433  0.4770
  509MOL0     H68651   9.269   9.685   3.600  1.0839  0.4789  2.7720
  509MOL0     H68652   9.064   9.715   3.734  1.6377 -1.5930 -0.6086
  509MOL0     H68653   9.019   9.753   3.573  3.8648 -1.0913 -2.3977
  509MOL0     H68654   9.083  10.007   3.627  1.5390 -1.0164 -0.3689
  509MOL0     H68655   9.088   9.961   3.788 -0.7826 -1.8222  1.2765
  509MOL0     H68656   8.837   9.954   3.608 -1.2668 -2.4974  0.1540
  509MOL0     H68657   8.848   9.846   3.748 -1.3070  0.9159 -0.1690
  509MOL0     H68658   8.888  10.037   3.899  3.6666 -1.0562 -1.6554
  509MOL0     H68659   8.868  10.150   3.760 -1.3458  0.3601  0.0664
  509MOL0     H68660   8.642  10.127   3.751  2.4361  1.6810  0.5975
  509MOL0     H68661   8.633   9.961   3.787 -2.4935  1.4901 -1.3060
  509MOL0     H68662   8.529  10.102   3.950 -0.1354 -0.2859  0.5841
  509MOL0     H68663   8.676  10.204   3.966  0.2057  0.9142 -2.9516
  509MOL0     H68664   8.763  10.049   4.128  0.8185  1.4443 -2.7428
  509MOL0     H68665   8.597  10.088   4.160 -1.2629  2.4216 -1.5736
  509MOL0     H68666   8.448   9.884   3.987 -2.0659 -0.1157  2.7296
  509MOL0     H68667   8.502   9.481   4.052  1.6874  0.9187 -0.8338
  509MOL0     H68668   8.372   9.584   4.000 -0.0645  1.9378 -0.2816
  509MOL0     H68669   8.425   9.489   3.808 -1.3363  0.8020  1.7278
  509MOL0     H68670   8.548   9.609   3.784 -0.5019 -2.9268 -4.5400
  509MOL0     H68671   8.629   9.383   3.751 -2.6880 -0.3807  0.6770
  509MOL0     H68672   8.612   9.354   3.923 -4.5774 -0.3784 -1.7791
  509MOL0     H68673   8.774   9.552   3.961 -2.1708  0.6473 -0.6175
  509MOL0     H68674   8.804   9.551   3.788  0.8231 -0.0578 -0.2021
  509MOL0     H68675   8.971   9.585   4.046  1.7515  4.2130 -0.2611
  509MOL0     H68676   9.199   9.661   4.018  2.2969 -0.6253 -0.7027
  509MOL0     H68677   9.628   9.667   3.809  1.2426 -0.3146 -0.1454
  509MOL0     H68678   9.799   9.845   3.834 -0.1109 -1.0911 -0.4968
  509MOL0     H68679   9.982   9.942   3.886 -0.3493  0.6287 -1.1050
  509MOL0     H68680   9.860  10.064   3.882 -1.3381 -3.6524 -1.2696
  509MOL0     H68681   9.985  10.202   4.048  0.9437  1.3113 -1.1426
  509MOL0     H68682  10.116  10.083   4.062 -0.4510 -0.3568  1.6704
  509MOL0     H68683  10.168  10.099   3.819  2.4366 -0.6361  2.0541
  509MOL0     H68684  10.022  10.207   3.799 -2.6418 -4.8604  0.2624
  509MOL0     H68685  10.293  10.260   3.920  1.0117  0.8659  0.9424
  509MOL0     H68686  10.162  10.344   3.992  1.4436  1.2284 -0.6553
  509MOL0     H68687  10.096  10.455   3.780  0.9214  1.7808 -1.1152
  509MOL0     H68688  10.196  10.342   3.692 -1.8946  0.3200  0.0369
  509MOL0     H68689  10.273  10.580   3.871  0.7998 -0.7290  0.4008
  509MOL0     H68690  10.398  10.472   3.799 -0.1296 -0.3426  0.5960
  509MOL0     H68691  10.201  10.580   3.613  0.7391 -0.8689  1.5055
  509MOL0     H68692  10.375  10.551   3.578 -0.8113 -0.7974 -0.5887
  509MOL0     H68693  10.328  10.807   3.578 -4.2575  0.3393 -0.5076
  509MOL0     H68694  10.240  10.786   3.730 -0.7059 -2.7892  0.7867
  509MOL0     H68695   9.715   9.894   4.249  1.6856 -0.7536  0.2411
  509MOL0     H68696   9.528   9.736   4.226 -1.3814  0.7847 -0.2476
  509MOL0     H68697   9.293   9.311   3.780 -1.3449  1.9991 -2.2390
  509MOL0     H68698   9.044   9.255   3.782 -1.0507  0.8695 -0.3464
  509MOL0     H68699   9.430   9.783   3.448  1.6026 -1.9353  0.9109
  509MOL0     H68700   9.641   9.856   3.368 -2.2477 -2.2021  0.5829
  509MOL0     H68701  10.007  10.195   3.504 -0.0840 -0.9048  0.4840
  509MOL0     H68702  10.263  10.179   3.526  2.0494  0.9744 -1.5977
  509MOL0     H68703  10.565  10.151   3.247 -0.0560 -0.0261 -2.3296
  509MOL0     H68704  10.472  10.014   3.189 -0.3105  1.6663  0.9527
  509MOL0     H68705  10.520   9.873   3.386 -1.0921  0.3939 -0.3739
  509MOL0     H68706  10.632  10.014   3.430 -3.2921  3.1551 -0.2842
  509MOL0     H68707  10.625   9.830   3.172  0.8730 -3.6889  0.7576
  509MOL0     H68708  10.751   9.811   3.294 -0.8845  0.4455  2.1631
  509MOL0     H68709  10.847   9.917   3.110 -2.0755 -0.9655 -1.5337
  509MOL0     H68710  10.734  10.054   3.111  0.7089  2.9775  3.3893
  509MOL0     H68711  10.995  10.195   3.396 -0.2586 -1.3794  1.0366
  509MOL0     H68712  10.278   9.932   3.177  2.0615  1.4423  0.6195
  509MOL0     H68713   9.955   9.823   3.181  1.6049 -1.8486  1.8237
  509MOL0     H68714   9.989   9.939   3.059 -0.0390 -0.5161 -0.8923
  509MOL0     H68715  10.117   9.822   3.103 -0.1382  1.5526 -1.0631
  510MOL0     O68716   7.597   9.993   6.987 -0.0634  0.5109 -0.2688
  510MOL0     C68717   7.611   9.878   7.029 -0.6488  0.1028 -0.7099
  510MOL0     O68718   7.514   9.798   7.063  0.8548 -0.1996 -0.5602
  510MOL0     C68719   7.381   9.816   7.037  0.5061  0.3115 -0.7385
  510MOL0     C68720   7.325   9.915   6.948 -0.2590  0.6574 -0.5380
  510MOL0     C68721   7.186   9.918   6.940  0.1150 -1.2360 -1.0476
  510MOL0     C68722   7.098   9.835   7.010  0.8784  0.3314  0.3255
  510MOL0     O68723   6.958   9.841   6.992  0.3992 -0.0809  0.5677
  510MOL0     C68724   6.863   9.801   7.094  0.5300 -0.2382  0.2522
  510MOL0     C68725   6.724   9.838   7.056  0.5566  0.0081 -0.2764
  510MOL0     C68726   6.619   9.806   7.166  0.5991  0.9497  0.1516
  510MOL0     C68727   6.476   9.776   7.117 -0.8710 -0.6618 -0.0272
  510MOL0     C68728   6.410   9.904   7.068  0.6842 -0.4081 -0.1460
  510MOL0     C68729   6.266   9.886   7.016  0.5874  0.6520  0.0072
  510MOL0     C68730   6.164   9.822   7.117  0.4181  0.2224 -0.2370
  510MOL0     C68731   6.121   9.930   7.210  0.2556 -0.5561 -0.4148
  510MOL0     N68732   6.040   9.880   7.329  0.5653  0.5533  0.0647
  510MOL0     C68733   5.918   9.810   7.329 -0.0703  0.7350 -0.0693
  510MOL0     C68734   5.901   9.763   7.452 -0.4824  0.0832  0.0013
  510MOL0     C68735   5.786   9.687   7.495 -0.6489  0.3548 -0.3956
  510MOL0     C68736   5.649   9.716   7.438  0.8268  0.5949  0.2415
  510MOL0     C68737   5.614   9.862   7.477 -0.0610 -0.4820  0.3555
  510MOL0     C68738   5.508   9.932   7.390  0.2554  0.0055  0.7133
  510MOL0     O68739   5.524   9.894   7.252 -0.2275  0.0940  0.5407
  510MOL0     C68740   5.635   9.949   7.184 -0.7104  0.0859 -0.0666
  510MOL0     C68741   5.673   9.886   7.062 -0.1821 -0.4429  0.7029
  510MOL0     C68742   5.773   9.937   6.980  0.2912  0.1562 -0.5069
  510MOL0     C68743   5.839  10.055   7.009  0.2695  0.5792 -0.5127
  510MOL0     C68744   5.936  10.114   6.910 -0.1138 -0.4809  0.2975
  510MOL0     O68745   5.971  10.247   6.937  0.9115  0.6334 -0.8365
  510MOL0     C68746   6.072  10.310   6.859  1.0925  0.4396 -0.0332
  510MOL0     C68747   6.209  10.319   6.892  1.1584  0.4287  0.2329
  510MOL0     C68748   6.290  10.398   6.817 -0.5123  0.1211  1.1461
  510MOL0     C68749   6.242  10.472   6.701 -0.5221  0.7000 -0.0973
  510MOL0     O68750   6.335  10.531   6.617  0.9080 -0.3891 -0.5113
  510MOL0     C68751   6.306  10.500   6.480 -1.3498  0.4242 -1.0373
  510MOL0     C68752   6.428  10.531   6.400 -0.3557 -0.1105 -0.7023
  510MOL0     C68753   6.464  10.687   6.396  0.7035  0.1633 -0.5031
  510MOL0     C68754   6.566  10.730   6.294  0.0779  0.2373 -0.4256
  510MOL0     C68755   6.573  10.875   6.272  0.3152  0.0185  0.8678
  510MOL0     C68756   6.683  10.919   6.166 -0.4673  0.8826 -0.5459
  510MOL0     C68757   6.824  10.890   6.191 -0.8113  0.1391  0.6820
  510MOL0     C68758   6.873  10.962   6.324  0.3521  0.0213  0.3038
  510MOL0    Cl68759   7.047  10.967   6.320  0.5467  0.2383  0.4459
  510MOL0     C68760   6.104  10.457   6.673  0.4210  0.4191  0.1756
  510MOL0     C68761   6.020  10.384   6.752  0.0469 -0.0778 -0.5369
  510MOL0     O68762   5.987  10.046   6.822 -0.0012  0.5868 -0.8951
  510MOL0     C68763   5.809  10.109   7.140 -0.1573  0.3391  0.5317
  510MOL0     C68764   5.696  10.068   7.223 -0.6678  0.1833  0.2048
  510MOL0     N68765   6.007   9.819   7.529 -0.0707 -0.3358  0.7012
  510MOL0     N68766   6.092   9.880   7.457  0.0667  0.1525  0.1431
  510MOL0     C68767   7.153   9.749   7.101 -0.5922  0.0810  0.7802
  510MOL0     C68768   7.296   9.734   7.112  0.7578 -0.2721 -0.3193
  510MOL0     C68769   7.751   9.828   7.033 -0.6377  0.6207  0.3375
  510MOL0     C68770   7.839   9.885   6.943 -0.1442  1.0500  0.0374
  510MOL0     C68771   7.964   9.828   6.924  0.0334 -0.0934  0.8194
  510MOL0     C68772   7.993   9.708   6.990  0.1473  0.2982  0.2201
  510MOL0     O68773   8.102   9.625   6.956  0.5026 -0.2413 -0.2737
  510MOL0     C68774   8.215   9.698   6.904  0.3284  0.7979 -0.5329
  510MOL0     C68775   8.336   9.626   6.942  0.2476 -0.3142  0.0450
  510MOL0     C68776   8.404   9.571   6.809  1.1348 -0.3913  0.1066
  510MOL0     C68777   8.454   9.426   6.829 -0.6701 -0.1617 -0.2203
  510MOL0     C68778   8.569   9.425   6.923 -0.1371 -1.1111  0.3525
  510MOL0     C68779   8.650   9.409   7.013  0.7607  0.0671 -0.2870
  510MOL0     C68780   7.911   9.658   7.085  1.0154 -0.8688  0.0692
  510MOL0     C68781   7.794   9.720   7.121 -0.0637 -0.2614  0.3183
  510MOL0     C68782   7.706   9.648   7.224  0.2575 -0.2799  0.1984
  510MOL0     H68783   7.386   9.976   6.882 -0.7629  1.1772 -0.5278
  510MOL0     H68784   7.149   9.990   6.867  3.2552  0.0092 -1.5719
  510MOL0     H68785   6.880   9.695   7.112  2.1953 -0.2778 -1.2753
  510MOL0     H68786   6.894   9.862   7.180 -1.2050 -1.0466  1.5011
  510MOL0     H68787   6.683   9.798   6.962  0.1810 -0.2544 -0.0041
  510MOL0     H68788   6.741   9.944   7.037  0.0425 -0.0403 -1.0912
  510MOL0     H68789   6.625   9.873   7.252  1.0560  0.2201  0.6989
  510MOL0     H68790   6.652   9.707   7.200  1.4543  0.5269 -1.7314
  510MOL0     H68791   6.478   9.690   7.049  0.1574  0.6592 -1.7578
  510MOL0     H68792   6.427   9.741   7.208 -0.8165  1.9844  1.1180
  510MOL0     H68793   6.412   9.985   7.141  1.0358  0.2067 -0.8147
  510MOL0     H68794   6.481   9.943   6.994  3.9980 -2.0503  1.9298
  510MOL0     H68795   6.221   9.973   6.967 -1.1746 -1.1400 -1.7462
  510MOL0     H68796   6.282   9.801   6.949 -3.0650 -1.0939  1.0970
  510MOL0     H68797   6.221   9.746   7.171 -1.8637  0.0620  2.1732
  510MOL0     H68798   6.075   9.781   7.067  0.0337 -0.6484  1.0960
  510MOL0     H68799   6.215   9.967   7.250  0.5512  0.1346 -1.7153
  510MOL0     H68800   6.074  10.010   7.153  1.3151 -0.7939 -1.6696
  510MOL0     H68801   5.855   9.791   7.243  0.6392  1.4988 -0.7704
  510MOL0     H68802   5.815   9.585   7.470  2.0372  1.1706 -1.0221
  510MOL0     H68803   5.774   9.700   7.603  1.0798 -1.6920  0.1098
  510MOL0     H68804   5.658   9.718   7.329 -1.7836  1.6335 -0.0377
  510MOL0     H68805   5.571   9.643   7.459 -0.5465 -0.4935 -6.3847
  510MOL0     H68806   5.701   9.927   7.464  0.2836 -0.2526  3.0675
  510MOL0     H68807   5.585   9.858   7.583  0.5687  3.9418  0.9020
  510MOL0     H68808   5.493  10.037   7.414 -3.9320 -0.4779  1.0783
  510MOL0     H68809   5.410   9.899   7.427 -0.2761  0.9947  0.2213
  510MOL0     H68810   5.621   9.794   7.039 -2.4386  0.7518  0.7525
  510MOL0     H68811   5.787   9.888   6.884  2.5753 -0.8692  0.2753
  510MOL0     H68812   6.249  10.283   6.987  0.6012 -0.1595  0.2473
  510MOL0     H68813   6.391  10.393   6.854 -1.4344 -1.0700  3.7582
  510MOL0     H68814   6.281  10.394   6.485  0.0433  0.1382  1.6673
  510MOL0     H68815   6.226  10.558   6.433  0.0934 -0.2464 -4.6241
  510MOL0     H68816   6.508  10.469   6.441 -1.7961 -0.1994  2.2844
  510MOL0     H68817   6.427  10.492   6.298  0.2914 -3.5641  0.4857
  510MOL0     H68818   6.376  10.738   6.356  0.0505 -1.6392 -1.4825
  510MOL0     H68819   6.501  10.710   6.497  2.0155 -2.4330 -0.2903
  510MOL0     H68820   6.554  10.672   6.203 -1.7500  0.1134 -0.1457
  510MOL0     H68821   6.666  10.705   6.331 -0.1748 -0.8314 -0.4410
  510MOL0     H68822   6.581  10.939   6.360 -2.3228  1.5343  0.1203
  510MOL0     H68823   6.475  10.900   6.231  0.1837 -0.0665  1.1332
  510MOL0     H68824   6.654  10.891   6.065  0.3533  3.4025 -1.5528
  510MOL0     H68825   6.673  11.028   6.161 -1.0170  0.8775  0.2415
  510MOL0     H68826   6.878  10.918   6.100 -1.7836 -1.0261 -0.2806
  510MOL0     H68827   6.842  10.783   6.197 -0.3447  0.1769  0.1073
  510MOL0     H68828   6.830  11.062   6.333  0.0264 -0.0217 -0.7501
  510MOL0     H68829   6.848  10.901   6.411  0.2825 -0.9169 -0.3597
  510MOL0     H68830   6.065  10.520   6.594 -1.1544 -0.1718  0.4601
  510MOL0     H68831   5.915  10.398   6.729  0.1164 -3.1883 -3.4121
  510MOL0     H68832   5.878  10.185   7.173  0.3186 -0.4844  1.4727
  510MOL0     H68833   5.664  10.116   7.315 -3.0456 -1.3669  0.2692
  510MOL0     H68834   7.087   9.684   7.158 -0.7193 -0.9745 -0.5187
  510MOL0     H68835   7.342   9.671   7.186 -0.4958 -0.4964  0.2922
  510MOL0     H68836   7.803   9.974   6.892 -3.2616  1.0736  2.0418
  510MOL0     H68837   8.024   9.878   6.848 -0.6595 -0.5758 -0.0653
  510MOL0     H68838   8.230   9.797   6.948  1.5929  0.5854 -0.4486
  510MOL0     H68839   8.185   9.716   6.800  0.4174 -0.6366 -0.8269
  510MOL0     H68840   8.318   9.543   7.011  0.3522 -1.7834 -1.6404
  510MOL0     H68841   8.401   9.697   6.995  0.8456 -2.6114  2.6667
  510MOL0     H68842   8.485   9.634   6.771  1.7870  0.3143  2.4591
  510MOL0     H68843   8.331   9.575   6.728  1.9474  2.1661 -0.5993
  510MOL0     H68844   8.376   9.364   6.874 -0.5154 -2.0689 -2.4042
  510MOL0     H68845   8.471   9.388   6.728 -1.3119  1.8487 -1.1306
  510MOL0     H68846   8.716   9.386   7.093 -0.6910  0.8126  1.1833
  510MOL0     H68847   7.947   9.571   7.138 -1.2343 -2.7849 -1.3403
  510MOL0     H68848   7.662   9.719   7.295  2.8261 -1.7165  3.4975
  510MOL0     H68849   7.622   9.588   7.189 -0.0880 -1.1270  2.3345
  510MOL0     H68850   7.765   9.585   7.291  2.8504  1.4401 -0.2914
  511MOL0     O68851   3.396   7.059   6.256 -0.3870  0.2908 -0.3099
  511MOL0     C68852   3.407   7.174   6.299 -0.6198  1.0255  0.0756
  511MOL0     O68853   3.524   7.234   6.336 -0.7017  0.3400 -0.6339
  511MOL0     C68854   3.629   7.164   6.402 -0.3804  0.8343  0.4900
  511MOL0     C68855   3.747   7.235   6.409 -0.1319  0.6586  0.4440
  511MOL0     C68856   3.858   7.171   6.462 -0.5231 -0.5159 -0.4874
  511MOL0     C68857   3.851   7.052   6.530  0.0213 -0.7378  0.1306
  511MOL0     O68858   3.950   6.991   6.607 -0.2798 -0.2624  0.3948
  511MOL0     C68859   4.086   7.043   6.626  0.2119  1.0415 -0.0102
  511MOL0     C68860   4.161   6.970   6.741 -0.2170  0.0024  1.0816
  511MOL0     C68861   4.217   6.828   6.703  1.0896 -0.7993 -0.4559
  511MOL0     C68862   4.375   6.805   6.696  0.7261 -0.7455 -0.3578
  511MOL0     C68863   4.427   6.748   6.822 -0.2482  0.1225 -0.2735
  511MOL0     C68864   4.583   6.746   6.822  0.3141  0.5573 -0.0072
  511MOL0     C68865   4.640   6.878   6.855 -0.4315 -0.1658 -0.1176
  511MOL0     C68866   4.794   6.869   6.887  0.3083 -0.2561 -0.2334
  511MOL0     N68867   4.842   7.003   6.922 -0.4341 -0.0480  0.1367
  511MOL0     C68868   4.877   7.112   6.836 -0.1941 -0.3599  0.4211
  511MOL0     C68869   4.896   7.232   6.908  0.0106  0.5752 -0.1661
  511MOL0     C68870   4.916   7.375   6.852  0.7039  0.2475 -1.3751
  511MOL0     C68871   5.012   7.397   6.735 -0.4487  0.6378 -0.4615
  511MOL0     C68872   5.038   7.538   6.707 -0.2956  0.4539 -0.4845
  511MOL0     C68873   5.096   7.620   6.829  0.3358  1.3895  0.0801
  511MOL0     O68874   5.188   7.561   6.919 -0.2756 -0.1804 -0.0301
  511MOL0     C68875   5.324   7.561   6.893  1.2314  0.5662 -0.5108
  511MOL0     C68876   5.389   7.483   6.974  0.0697 -0.3140  0.5583
  511MOL0     C68877   5.525   7.483   6.944 -0.9869  0.2494  0.0781
  511MOL0     C68878   5.599   7.554   6.855  0.6784  0.6048  0.2930
  511MOL0     C68879   5.744   7.555   6.838 -0.4724  0.4909  0.1800
  511MOL0     O68880   5.811   7.470   6.922 -0.2391 -0.1431 -0.3125
  511MOL0     C68881   5.945   7.482   6.935 -0.1345 -0.6882 -0.4251
  511MOL0     C68882   6.028   7.439   6.829  0.9417  0.3031  0.2738
  511MOL0     C68883   6.170   7.442   6.828 -0.3799  0.0044  0.2586
  511MOL0     C68884   6.232   7.473   6.953 -0.0764  0.2193 -0.9386
  511MOL0     O68885   6.370   7.461   6.964  0.4790  0.5444  0.1358
  511MOL0     C68886   6.419   7.333   6.928  0.1993 -0.2495  0.0189
  511MOL0     C68887   6.555   7.311   7.003  1.3573  0.6150  0.3939
  511MOL0     C68888   6.674   7.404   6.971 -0.3396 -0.4495 -0.6199
  511MOL0     C68889   6.699   7.425   6.820  0.1241 -0.2696  0.8318
  511MOL0     C68890   6.843   7.453   6.790 -0.1051  0.3102 -0.2545
  511MOL0     C68891   6.879   7.480   6.640 -0.4969  0.3498  0.2573
  511MOL0     C68892   7.024   7.517   6.620 -0.4640 -0.3659  0.0393
  511MOL0     C68893   7.069   7.557   6.484 -0.3512  0.1386  0.1509
  511MOL0    Cl68894   7.000   7.723   6.448  0.1145  0.1958 -0.0719
  511MOL0     C68895   6.150   7.524   7.055 -0.3185 -0.1864 -0.2048
  511MOL0     C68896   6.011   7.539   7.041 -0.3332  0.6247  0.2089
  511MOL0     O68897   5.797   7.629   6.748  0.6362 -0.1714 -0.2805
  511MOL0     C68898   5.519   7.614   6.768  0.2170  0.7315  0.3507
  511MOL0     C68899   5.385   7.632   6.789 -0.5638  0.8023  0.7665
  511MOL0     N68900   4.850   7.186   7.031 -0.5352  0.4125  0.1659
  511MOL0     N68901   4.828   7.060   7.047  0.6455  0.6888  0.3186
  511MOL0     C68902   3.721   6.988   6.536 -0.9815  0.0966  0.0508
  511MOL0     C68903   3.613   7.034   6.467 -0.8414 -0.6614  0.6894
  511MOL0     C68904   3.296   7.260   6.262  0.0227 -0.0444 -0.2276
  511MOL0     C68905   3.330   7.391   6.210 -0.3359  0.4666 -0.1089
  511MOL0     C68906   3.234   7.470   6.146  0.1773  0.1911 -0.7813
  511MOL0     C68907   3.099   7.444   6.145  0.3835 -0.1772 -0.8639
  511MOL0     O68908   3.014   7.537   6.087  0.4515  0.0621  0.2218
  511MOL0     C68909   2.881   7.529   6.124 -0.1123  0.5989  0.6083
  511MOL0     C68910   2.791   7.635   6.071 -0.5107 -0.4854  0.5666
  511MOL0     C68911   2.808   7.661   5.920 -0.7520 -0.7908  0.8313
  511MOL0     C68912   2.700   7.757   5.875 -0.5931  0.4010  0.8496
  511MOL0     C68913   2.725   7.898   5.907 -0.2200 -0.2022 -0.1775
  511MOL0     C68914   2.724   8.015   5.930  0.0320 -0.5221  0.1745
  511MOL0     C68915   3.067   7.317   6.192  0.6297 -0.1703  0.8842
  511MOL0     C68916   3.156   7.224   6.248 -0.5304  0.1374 -0.4940
  511MOL0     C68917   3.105   7.081   6.277 -0.3510  0.5219  0.4200
  511MOL0     H68918   3.768   7.328   6.357 -2.3839 -0.0673 -1.9481
  511MOL0     H68919   3.961   7.201   6.442 -0.1858 -0.7345  0.7978
  511MOL0     H68920   4.130   7.018   6.529  1.0177 -1.4161  0.9222
  511MOL0     H68921   4.092   7.151   6.642  1.9876  1.1177 -1.0129
  511MOL0     H68922   4.096   6.960   6.829 -1.6510  0.0446  0.0550
  511MOL0     H68923   4.252   7.026   6.763 -0.1719 -0.3604  1.8902
  511MOL0     H68924   4.179   6.809   6.602 -0.3894 -2.2350  0.3219
  511MOL0     H68925   4.179   6.757   6.777 -2.4504  2.6915  1.4202
  511MOL0     H68926   4.400   6.736   6.615 -0.6258  1.5095 -2.8693
  511MOL0     H68927   4.441   6.884   6.660 -0.9470 -0.0339 -2.0075
  511MOL0     H68928   4.395   6.814   6.903 -0.3134  1.2962 -1.2114
  511MOL0     H68929   4.384   6.648   6.831 -1.1789  0.6096  0.8426
  511MOL0     H68930   4.615   6.680   6.903  0.3936  3.8974  2.8914
  511MOL0     H68931   4.613   6.715   6.721 -0.8602 -1.7033  0.2583
  511MOL0     H68932   4.587   6.919   6.941  2.7588  2.3633  0.8815
  511MOL0     H68933   4.633   6.948   6.771  1.4779  1.8270  1.2550
  511MOL0     H68934   4.812   6.808   6.976 -3.7592 -2.0713 -0.4714
  511MOL0     H68935   4.846   6.815   6.807 -1.5809 -3.1756  0.3627
  511MOL0     H68936   4.894   7.103   6.729  4.4131  0.4469  0.8803
  511MOL0     H68937   4.816   7.395   6.813  0.2821  0.3367 -0.2798
  511MOL0     H68938   4.929   7.445   6.935  1.2214 -0.1534 -1.1088
  511MOL0     H68939   5.108   7.355   6.766 -0.7129  0.6416  0.3786
  511MOL0     H68940   4.984   7.345   6.643  0.9254 -1.9215  0.4647
  511MOL0     H68941   4.945   7.581   6.669 -1.9559 -1.9827  0.5224
  511MOL0     H68942   5.115   7.523   6.631 -0.7784 -1.0736 -0.7184
  511MOL0     H68943   5.006   7.648   6.884  1.0867 -1.6701  3.2489
  511MOL0     H68944   5.137   7.714   6.793  2.4361 -0.6898 -3.5775
  511MOL0     H68945   5.345   7.420   7.051 -2.6132  0.6889 -0.0342
  511MOL0     H68946   5.580   7.409   7.001 -0.6805 -0.2836 -0.8894
  511MOL0     H68947   5.968   7.398   6.748  1.1022  1.9385 -0.7249
  511MOL0     H68948   6.225   7.411   6.740  2.7137  3.6735  0.6739
  511MOL0     H68949   6.355   7.261   6.979 -0.3728  0.0137 -0.3264
  511MOL0     H68950   6.448   7.327   6.823  0.8968 -1.2803  0.2509
  511MOL0     H68951   6.538   7.306   7.111  1.7442 -0.8853  0.4054
  511MOL0     H68952   6.586   7.210   6.974 -1.4094 -0.9200  2.2841
  511MOL0     H68953   6.667   7.505   7.012 -3.4542 -1.1105  0.7245
  511MOL0     H68954   6.764   7.358   7.014  1.2451  2.4889 -0.5049
  511MOL0     H68955   6.624   7.491   6.776 -4.2418 -4.3343  1.3173
  511MOL0     H68956   6.668   7.339   6.760 -1.7353 -0.1147  1.4998
  511MOL0     H68957   6.908   7.377   6.832 -0.7729  1.1932  2.6273
  511MOL0     H68958   6.876   7.535   6.854  3.3125 -3.6615  3.6927
  511MOL0     H68959   6.863   7.386   6.587  1.0847 -0.0216  0.3716
  511MOL0     H68960   6.821   7.560   6.595  1.9540  2.6307  0.8878
  511MOL0     H68961   7.085   7.428   6.638  2.0256  1.3679  0.8031
  511MOL0     H68962   7.046   7.591   6.698 -0.8902 -0.6930  0.4748
  511MOL0     H68963   7.176   7.561   6.463  0.2625 -2.3297  2.3361
  511MOL0     H68964   7.033   7.484   6.411  2.1829 -1.0968  0.0363
  511MOL0     H68965   6.204   7.559   7.143 -0.7839 -2.3773  1.0319
  511MOL0     H68966   5.951   7.567   7.127 -1.0699  1.3691 -0.5354
  511MOL0     H68967   5.561   7.668   6.684  1.6258 -2.6547 -1.3139
  511MOL0     H68968   5.343   7.706   6.722 -0.8856 -1.4830 -1.7093
  511MOL0     H68969   3.704   6.899   6.595 -7.9225  0.1571 -1.0496
  511MOL0     H68970   3.521   6.977   6.476 -1.3835  0.2985  1.4131
  511MOL0     H68971   3.431   7.430   6.209  0.1913 -0.7679  1.1658
  511MOL0     H68972   3.260   7.567   6.104 -3.6360  1.0827 -1.4481
  511MOL0     H68973   2.881   7.526   6.234 -0.5393  0.1588  0.6006
  511MOL0     H68974   2.840   7.431   6.097 -1.1093 -0.5255  5.1906
  511MOL0     H68975   2.824   7.723   6.127 -0.1669 -1.6739  2.3014
  511MOL0     H68976   2.692   7.592   6.086 -0.5663 -0.0280  1.5531
  511MOL0     H68977   2.811   7.566   5.868 -1.1186  0.7354 -2.1828
  511MOL0     H68978   2.905   7.710   5.908 -0.4359 -1.7787 -0.9179
  511MOL0     H68979   2.697   7.751   5.766  0.6138  3.9678  0.5082
  511MOL0     H68980   2.599   7.732   5.909 -1.4643  0.2256 -1.6128
  511MOL0     H68981   2.711   8.119   5.953  2.3495  1.1512 -4.6972
  511MOL0     H68982   2.964   7.286   6.185  0.2951  0.9872  0.4802
  511MOL0     H68983   2.996   7.086   6.272 -0.3613 -0.2608 -2.4063
  511MOL0     H68984   3.134   7.008   6.200  1.3513  2.2969 -0.6926
  511MOL0     H68985   3.142   7.058   6.377 -0.5911  1.5817  0.7631
  512MOL0     O68986   9.493   3.574   1.338  0.4400 -0.3250 -0.1932
  512MOL0     C68987   9.387   3.518   1.379  0.7907  0.0281 -0.2069
  512MOL0     O68988   9.383   3.402   1.454 -0.3356 -0.4301  0.3286
  512MOL0     C68989   9.507   3.350   1.464 -0.3798 -0.3198  0.2295
  512MOL0     C68990   9.574   3.328   1.586  0.4130 -0.1985  0.4868
  512MOL0     C68991   9.701   3.282   1.588  0.2771 -0.6538  0.4848
  512MOL0     C68992   9.771   3.229   1.470  1.2724 -0.6665  0.1446
  512MOL0     O68993   9.894   3.172   1.459  0.6106  0.5962  0.2646
  512MOL0     C68994  10.001   3.218   1.544  0.1237 -0.3423  0.0520
  512MOL0     C68995  10.124   3.131   1.524  0.0003  0.5585 -0.8471
  512MOL0     C68996  10.253   3.191   1.585  0.1624 -0.9717 -1.1490
  512MOL0     C68997  10.353   3.090   1.625 -0.8127 -0.3221 -0.3103
  512MOL0     C68998  10.480   3.162   1.681 -0.0865  0.0270  0.1778
  512MOL0     C68999  10.579   3.051   1.719 -0.5844 -0.3305  0.1656
  512MOL0     C69000  10.724   3.083   1.704 -0.1623  0.9520 -0.6935
  512MOL0     C69001  10.775   3.193   1.788  0.1957 -0.9922  0.0008
  512MOL0     N69002  10.741   3.187   1.930  0.0594 -0.0603 -0.4911
  512MOL0     C69003  10.815   3.111   2.021  0.8242  0.1671  0.5059
  512MOL0     C69004  10.750   3.137   2.139 -0.0694 -0.8691  0.4742
  512MOL0     C69005  10.770   3.066   2.265 -0.6284  0.8829  0.3497
  512MOL0     C69006  10.902   3.125   2.324  0.0103 -0.7663  0.7937
  512MOL0     C69007  10.885   3.276   2.361 -0.0695 -0.4627  0.5319
  512MOL0     C69008  11.020   3.334   2.382  0.2069 -0.2983 -0.9339
  512MOL0     O69009  11.021   3.471   2.353 -0.2058  0.6005  0.0147
  512MOL0     C69010  11.131   3.552   2.373 -0.1514  0.0546  0.7323
  512MOL0     C69011  11.246   3.503   2.437 -0.6289 -0.2803  0.1522
  512MOL0     C69012  11.357   3.588   2.452  0.3738  0.0796 -0.7150
  512MOL0     C69013  11.359   3.720   2.392  0.2443  0.8835  0.5172
  512MOL0     C69014  11.469   3.814   2.421  0.6727 -0.1766  0.7730
  512MOL0     O69015  11.569   3.755   2.473 -0.1214 -0.4190 -0.0951
  512MOL0     C69016  11.685   3.811   2.524  0.2307 -0.5423  0.8126
  512MOL0     C69017  11.782   3.720   2.562 -0.0145 -0.9221 -0.3198
  512MOL0     C69018  11.911   3.757   2.593 -0.0921 -0.1772  0.6458
  512MOL0     C69019  11.955   3.891   2.584  0.9139  0.5319  0.0427
  512MOL0     O69020  12.086   3.928   2.592  0.0708  0.4206 -0.3112
  512MOL0     C69021  12.186   3.833   2.622  0.3523 -0.3031  0.7902
  512MOL0     C69022  12.311   3.921   2.611  0.2065  0.1891 -0.2818
  512MOL0     C69023  12.318   4.009   2.743 -0.6444 -0.0797 -0.1466
  512MOL0     C69024  12.430   4.112   2.727 -0.2684 -0.6843  0.1409
  512MOL0     C69025  12.491   4.175   2.845 -0.1276  0.3103 -0.7828
  512MOL0     C69026  12.575   4.298   2.804  0.4304  0.8248 -0.0546
  512MOL0     C69027  12.663   4.352   2.912  0.0349  0.6922  1.1417
  512MOL0     C69028  12.589   4.410   3.019 -0.1525 -0.6524 -0.3145
  512MOL0    Cl69029  12.702   4.480   3.136  0.4224  0.2242  0.1366
  512MOL0     C69030  11.853   3.982   2.546 -0.4476 -1.0969 -0.2959
  512MOL0     C69031  11.722   3.947   2.522 -1.1770  0.8274 -0.0758
  512MOL0     O69032  11.447   3.940   2.410  0.1937  0.5221 -0.2043
  512MOL0     C69033  11.246   3.761   2.320  0.4141 -0.1792 -0.2797
  512MOL0     C69034  11.134   3.680   2.306 -0.5614 -0.9943  0.9108
  512MOL0     N69035  10.641   3.218   2.117 -0.0899  0.0031 -0.0111
  512MOL0     N69036  10.639   3.250   1.993 -0.4408  0.3601 -0.4601
  512MOL0     C69037   9.694   3.247   1.354 -0.7107  0.2321  0.3937
  512MOL0     C69038   9.571   3.304   1.349  0.3766  0.2107  0.2333
  512MOL0     C69039   9.258   3.585   1.326  0.1752  0.6465 -0.8768
  512MOL0     C69040   9.272   3.716   1.275 -0.2138 -0.6987 -0.1127
  512MOL0     C69041   9.158   3.785   1.232  1.5005  0.3578 -0.0224
  512MOL0     C69042   9.029   3.736   1.253 -0.2026  0.1758 -0.1659
  512MOL0     O69043   8.914   3.812   1.214  0.3036  1.0450 -0.5120
  512MOL0     C69044   8.919   3.874   1.085  0.5437 -0.4710  0.7436
  512MOL0     C69045   8.797   3.819   1.002 -0.6473 -1.5522 -0.4078
  512MOL0     C69046   8.664   3.852   1.071  0.4534  0.2087 -0.4570
  512MOL0     C69047   8.553   3.845   0.975 -0.0831 -0.2028 -0.2362
  512MOL0     C69048   8.442   3.916   1.033 -1.0537 -0.2825  0.2442
  512MOL0     C69049   8.355   3.987   1.070 -0.7758  0.1495 -1.0422
  512MOL0     C69050   9.013   3.608   1.303 -0.2344  0.4334 -0.4550
  512MOL0     C69051   9.127   3.528   1.338 -0.4546 -0.0718 -0.1580
  512MOL0     C69052   9.115   3.386   1.367  0.2588  0.5931 -0.3197
  512MOL0     H69053   9.515   3.351   1.674  1.6284  1.9067  0.8070
  512MOL0     H69054   9.759   3.275   1.680  2.9514 -2.2680 -1.1721
  512MOL0     H69055  10.010   3.322   1.509 -1.4816 -0.3581 -0.5107
  512MOL0     H69056   9.972   3.223   1.650  1.6701 -0.4254  0.4996
  512MOL0     H69057  10.142   3.098   1.421  0.6702 -1.9578 -0.0124
  512MOL0     H69058  10.097   3.050   1.592  1.2738  1.9951  1.4951
  512MOL0     H69059  10.222   3.255   1.669  0.1148 -2.4836  0.0296
  512MOL0     H69060  10.307   3.260   1.520  2.1252  2.0595  3.2075
  512MOL0     H69061  10.310   3.028   1.704  1.2893 -0.9286  0.4204
  512MOL0     H69062  10.372   3.018   1.544  3.5806 -0.0128  0.2050
  512MOL0     H69063  10.528   3.222   1.603 -0.6315 -1.8426 -1.6712
  512MOL0     H69064  10.454   3.232   1.760  2.2973  1.6992 -0.3844
  512MOL0     H69065  10.579   3.013   1.821  2.7622 -2.2917 -0.3991
  512MOL0     H69066  10.561   2.961   1.659  0.7352 -0.8141  0.4750
  512MOL0     H69067  10.742   3.107   1.599  1.2109  1.2660 -0.4066
  512MOL0     H69068  10.791   2.997   1.717 -0.6857  0.8638  1.8181
  512MOL0     H69069  10.884   3.196   1.776  0.2570 -1.0077  0.5365
  512MOL0     H69070  10.742   3.291   1.753  0.6896 -0.2872  1.3926
  512MOL0     H69071  10.895   3.042   1.996 -0.1107 -0.0551 -2.2220
  512MOL0     H69072  10.696   3.087   2.343 -0.7413  1.1277  0.1802
  512MOL0     H69073  10.788   2.961   2.242  1.6910  1.5290 -1.1612
  512MOL0     H69074  10.919   3.071   2.418 -0.4000  0.3134  1.5111
  512MOL0     H69075  10.984   3.103   2.256 -0.8161 -2.6487  0.3562
  512MOL0     H69076  10.826   3.306   2.448  2.2545  2.2828  1.3259
  512MOL0     H69077  10.844   3.335   2.278 -2.0790 -0.8775  1.1942
  512MOL0     H69078  11.102   3.287   2.327  0.4289  0.8107 -1.5798
  512MOL0     H69079  11.039   3.330   2.489 -1.7588  0.3352 -0.5048
  512MOL0     H69080  11.244   3.410   2.492  2.4669 -0.9343 -0.6654
  512MOL0     H69081  11.436   3.551   2.516  0.5340  0.8777 -0.4374
  512MOL0     H69082  11.767   3.613   2.553  0.7463 -1.1628  0.9381
  512MOL0     H69083  11.983   3.678   2.610 -0.3095 -1.2033 -2.5166
  512MOL0     H69084  12.173   3.786   2.719  2.7755 -3.0164 -0.0412
  512MOL0     H69085  12.195   3.758   2.542  0.6053  2.3620 -1.8864
  512MOL0     H69086  12.406   3.868   2.602 -0.2396 -0.4525 -1.5497
  512MOL0     H69087  12.303   3.985   2.523 -1.8626  0.7927  0.2892
  512MOL0     H69088  12.224   4.065   2.752 -1.9511 -1.0795 -4.7425
  512MOL0     H69089  12.325   3.939   2.827  0.8976  0.1463 -0.0595
  512MOL0     H69090  12.399   4.203   2.675  2.3192  0.5331  0.5733
  512MOL0     H69091  12.514   4.061   2.679 -0.8062 -0.9029 -0.5722
  512MOL0     H69092  12.557   4.109   2.902 -0.5514  0.5410 -0.0009
  512MOL0     H69093  12.408   4.193   2.915 -0.7884 -3.0465 -0.5357
  512MOL0     H69094  12.641   4.264   2.724 -0.8438  1.0008 -1.2077
  512MOL0     H69095  12.515   4.378   2.762 -2.1969 -0.8672  0.2491
  512MOL0     H69096  12.714   4.432   2.858 -1.3998  1.2742  0.6118
  512MOL0     H69097  12.718   4.271   2.960 -1.5058 -0.6307  0.7698
  512MOL0     H69098  12.529   4.494   2.982  1.2692  0.5534 -0.0320
  512MOL0     H69099  12.528   4.330   3.060 -0.6021 -1.5022 -2.4895
  512MOL0     H69100  11.890   4.084   2.545 -1.0872 -0.7917  1.9347
  512MOL0     H69101  11.658   4.032   2.500 -1.1522  0.9688  0.3997
  512MOL0     H69102  11.241   3.864   2.285 -2.9553  0.3783  1.4350
  512MOL0     H69103  11.050   3.714   2.246  1.1375 -0.3502 -1.2758
  512MOL0     H69104   9.747   3.230   1.261 -0.2108  1.2677  0.4685
  512MOL0     H69105   9.516   3.299   1.255  0.8840  0.9533 -0.1132
  512MOL0     H69106   9.369   3.761   1.263 -0.0890 -0.5421  1.2843
  512MOL0     H69107   9.177   3.874   1.173  0.8991  0.1712 -0.5065
  512MOL0     H69108   9.007   3.847   1.026  0.2156  1.2609 -0.6222
  512MOL0     H69109   8.916   3.984   1.087  0.8020 -0.3236 -2.4666
  512MOL0     H69110   8.824   3.718   0.973  3.6210 -0.8343  0.4663
  512MOL0     H69111   8.800   3.882   0.912  0.9307 -0.9570  0.0269
  512MOL0     H69112   8.666   3.952   1.115 -1.1112  0.1790 -0.2705
  512MOL0     H69113   8.644   3.778   1.149  0.0680 -0.5980 -1.3028
  512MOL0     H69114   8.575   3.902   0.884 -0.4443 -0.4457 -0.4791
  512MOL0     H69115   8.534   3.742   0.946 -0.7245 -0.2176  0.2306
  512MOL0     H69116   8.281   4.059   1.099 -2.3942 -1.2481 -1.5487
  512MOL0     H69117   8.910   3.574   1.305  0.6994 -2.6658 -0.4771
  512MOL0     H69118   9.019   3.361   1.320  0.2346  1.3794 -0.6938
  512MOL0     H69119   9.197   3.337   1.312 -0.8283  2.3135 -3.7626
  512MOL0     H69120   9.117   3.360   1.473 -0.5223 -0.4852 -0.5526
  513MOL0     O69121   3.604   4.080   4.856 -0.1655  0.2219 -0.1808
  513MOL0     C69122   3.512   3.999   4.841  0.2081 -0.0767 -0.2795
  513MOL0     O69123   3.392   3.998   4.919 -0.5814 -0.1788 -0.2834
  513MOL0     C69124   3.335   4.116   4.968 -0.5550  0.2528  0.9329
  513MOL0     C69125   3.234   4.086   5.064 -0.0078  0.2900  0.5667
  513MOL0     C69126   3.160   4.186   5.130 -1.0590 -0.3869 -0.3080
  513MOL0     C69127   3.182   4.323   5.088  0.3921  0.4948 -0.8438
  513MOL0     O69128   3.104   4.410   5.149 -0.0502 -0.0155  0.2638
  513MOL0     C69129   3.103   4.538   5.080  0.1754  0.2462  0.1554
  513MOL0     C69130   2.973   4.618   5.093  0.7997  0.1422  0.3098
  513MOL0     C69131   2.968   4.677   5.237  0.0139  0.6481 -0.2148
  513MOL0     C69132   2.858   4.779   5.259 -0.1456 -0.4814  0.0247
  513MOL0     C69133   2.855   4.842   5.400  0.0498 -0.5449 -0.2844
  513MOL0     C69134   2.739   4.948   5.427  0.1310  0.1827  0.0605
  513MOL0     C69135   2.605   4.924   5.348 -0.2658  0.2241  0.0442
  513MOL0     C69136   2.495   5.028   5.382  0.4075 -0.0891  0.2101
  513MOL0     N69137   2.371   5.007   5.315  0.4375  0.4001 -0.0383
  513MOL0     C69138   2.346   5.028   5.179  1.0469 -0.5245 -0.1347
  513MOL0     C69139   2.227   4.968   5.161  0.5051  0.7471  0.0656
  513MOL0     C69140   2.153   4.959   5.043  0.7468  1.1395  1.0900
  513MOL0     C69141   2.176   4.815   4.973 -0.1931 -0.5761 -0.7934
  513MOL0     C69142   2.094   4.826   4.848  0.2087 -0.5451 -0.7338
  513MOL0     C69143   2.143   4.729   4.733  0.5173 -0.3265  0.5244
  513MOL0     O69144   2.181   4.607   4.790 -0.8948 -0.4093  0.1740
  513MOL0     C69145   2.094   4.498   4.783  0.0322 -0.4124  0.0841
  513MOL0     C69146   1.950   4.511   4.766  0.4302  0.0325  0.6608
  513MOL0     C69147   1.874   4.393   4.762 -0.0800 -0.1736  0.0331
  513MOL0     C69148   1.929   4.264   4.768  0.2997  0.1285  0.8476
  513MOL0     C69149   1.844   4.142   4.750  0.1180 -0.0738  0.5488
  513MOL0     O69150   1.716   4.165   4.712 -0.1382  0.2523  0.7864
  513MOL0     C69151   1.643   4.043   4.692 -0.2417 -0.4920 -0.3229
  513MOL0     C69152   1.668   3.949   4.592 -0.4505  0.0268  0.9408
  513MOL0     C69153   1.593   3.835   4.583  0.5801  0.1947  0.1173
  513MOL0     C69154   1.487   3.810   4.672  0.2497 -0.3853  0.3122
  513MOL0     O69155   1.416   3.694   4.647  0.1497 -0.0394 -0.1644
  513MOL0     C69156   1.316   3.719   4.540 -0.0090 -0.6812  0.7512
  513MOL0     C69157   1.215   3.605   4.530 -0.0960  0.0920 -0.2376
  513MOL0     C69158   1.113   3.618   4.410 -0.0354  0.5671  0.0066
  513MOL0     C69159   1.178   3.652   4.279 -0.3957  0.0982 -0.0645
  513MOL0     C69160   1.105   3.624   4.147  0.1117  0.4845 -0.6303
  513MOL0     C69161   0.968   3.683   4.160  0.2875  0.0625  1.0548
  513MOL0     C69162   0.870   3.654   4.052 -0.5384 -0.0758  0.4298
  513MOL0     C69163   0.823   3.507   4.032 -0.4874  0.7859 -0.4297
  513MOL0    Cl69164   0.962   3.414   3.949  0.1532 -0.1766  0.3447
  513MOL0     C69165   1.452   3.905   4.770 -0.2835 -0.6544 -0.4240
  513MOL0     C69166   1.529   4.022   4.781 -0.2088 -0.5189  0.0656
  513MOL0     O69167   1.896   4.031   4.776  0.1279 -0.2801  0.2553
  513MOL0     C69168   2.067   4.250   4.792  0.3541 -0.1664  0.4449
  513MOL0     C69169   2.145   4.368   4.797  0.6441  1.2534  0.0903
  513MOL0     N69170   2.179   4.914   5.274 -0.3896  0.4242 -0.2556
  513MOL0     N69171   2.264   4.943   5.365 -0.2961 -0.3788 -0.0380
  513MOL0     C69172   3.292   4.357   5.008 -0.1293  0.1026 -0.8959
  513MOL0     C69173   3.359   4.250   4.947  0.5473  0.2702  0.0684
  513MOL0     C69174   3.526   3.894   4.729 -0.3636 -1.0248 -0.8753
  513MOL0     C69175   3.410   3.839   4.680 -0.1562 -0.1096  0.5053
  513MOL0     C69176   3.418   3.736   4.590 -0.1066 -0.5328  0.7547
  513MOL0     C69177   3.537   3.685   4.548 -1.2363 -0.4512  1.0694
  513MOL0     O69178   3.540   3.591   4.455 -0.1237 -0.2436  0.8860
  513MOL0     C69179   3.598   3.461   4.498  0.0315 -0.2140  0.2372
  513MOL0     C69180   3.487   3.367   4.539 -0.6937  0.7916  0.3331
  513MOL0     C69181   3.535   3.236   4.583  0.5456  1.4874 -0.3774
  513MOL0     C69182   3.418   3.138   4.616 -0.3528 -0.0533 -0.9402
  513MOL0     C69183   3.484   3.013   4.657  0.2481  0.3144 -0.6450
  513MOL0     C69184   3.540   2.906   4.679 -0.8582  0.7317 -0.4649
  513MOL0     C69185   3.656   3.741   4.599 -1.4011 -0.6814  0.3298
  513MOL0     C69186   3.654   3.855   4.677  0.0162  0.1996 -0.4181
  513MOL0     C69187   3.785   3.903   4.723  0.2106  1.0331  0.3412
  513MOL0     H69188   3.228   3.979   5.079 -0.0312  0.1884 -0.1422
  513MOL0     H69189   3.092   4.158   5.210 -0.2987  0.5847  0.7065
  513MOL0     H69190   3.189   4.595   5.116 -1.0974  0.7462  2.5726
  513MOL0     H69191   3.109   4.516   4.973 -0.8288  0.9676 -0.0617
  513MOL0     H69192   2.891   4.546   5.084  4.0004 -3.6459 -1.5462
  513MOL0     H69193   2.974   4.691   5.012  0.7857 -2.0948 -1.8591
  513MOL0     H69194   3.058   4.738   5.247 -0.7144  1.5533  1.0403
  513MOL0     H69195   2.966   4.595   5.309  2.2656 -0.7927 -1.6906
  513MOL0     H69196   2.870   4.858   5.184 -0.3488 -0.3984  0.0787
  513MOL0     H69197   2.769   4.716   5.246 -1.3583  0.6032  2.3715
  513MOL0     H69198   2.841   4.764   5.475  1.0491  1.1956  1.8221
  513MOL0     H69199   2.953   4.883   5.427 -0.2419 -2.6299  5.2261
  513MOL0     H69200   2.724   4.949   5.535 -0.1289 -1.4380  0.0605
  513MOL0     H69201   2.773   5.048   5.398 -0.3939  0.1498 -0.7343
  513MOL0     H69202   2.569   4.822   5.363 -2.4750  0.8934 -0.4096
  513MOL0     H69203   2.608   4.928   5.239 -3.5708  0.1442 -0.1483
  513MOL0     H69204   2.464   5.020   5.487 -1.7041  0.5831 -0.3016
  513MOL0     H69205   2.536   5.128   5.366 -2.2389  0.8960 -1.1668
  513MOL0     H69206   2.410   5.072   5.103 -0.6060 -0.9079 -1.8235
  513MOL0     H69207   2.045   4.967   5.061 -0.4109  1.9331 -4.4902
  513MOL0     H69208   2.166   5.044   4.976  1.0985  1.2169  1.2518
  513MOL0     H69209   2.281   4.799   4.947 -0.0879 -2.7146  0.6540
  513MOL0     H69210   2.142   4.730   5.033 -0.0462  0.7337  1.2383
  513MOL0     H69211   2.089   4.926   4.803  0.7863 -0.7212 -1.1925
  513MOL0     H69212   1.994   4.791   4.874 -0.5212 -0.6059 -3.3686
  513MOL0     H69213   2.233   4.770   4.688  0.5300  0.9690  1.6504
  513MOL0     H69214   2.067   4.707   4.657  0.9974 -1.2423  0.2922
  513MOL0     H69215   1.899   4.606   4.770  1.4352  0.5669  1.2579
  513MOL0     H69216   1.769   4.420   4.751  0.4680  3.2619  1.8726
  513MOL0     H69217   1.741   3.975   4.516 -1.0724  1.7388  0.8837
  513MOL0     H69218   1.615   3.761   4.507 -2.6407 -0.7776 -0.0085
  513MOL0     H69219   1.269   3.818   4.544  0.7335 -0.3424  1.3151
  513MOL0     H69220   1.376   3.714   4.448 -1.7701 -2.9131 -0.3636
  513MOL0     H69221   1.265   3.509   4.515 -0.1844 -0.1549  0.9309
  513MOL0     H69222   1.169   3.590   4.628  0.5983 -3.5693 -0.3227
  513MOL0     H69223   1.061   3.523   4.398 -0.4742  0.7897  0.1110
  513MOL0     H69224   1.026   3.679   4.436 -0.7620 -1.3282  2.3881
  513MOL0     H69225   1.266   3.589   4.266 -0.9248 -0.7430  0.3897
  513MOL0     H69226   1.205   3.758   4.287 -0.0856 -0.0150  0.4258
  513MOL0     H69227   1.091   3.517   4.125 -1.9438  0.3290  1.0934
  513MOL0     H69228   1.159   3.662   4.061  0.8461  0.2900 -0.2610
  513MOL0     H69229   0.915   3.647   4.249  0.1118 -2.0248  0.1514
  513MOL0     H69230   0.985   3.790   4.175  1.9911 -0.4824  3.6848
  513MOL0     H69231   0.910   3.692   3.957 -0.0142 -0.2079  0.5901
  513MOL0     H69232   0.778   3.703   4.085 -0.9976 -2.4095  2.9453
  513MOL0     H69233   0.799   3.451   4.123  3.2942  2.5937  1.9629
  513MOL0     H69234   0.732   3.515   3.972 -2.5242 -0.8912  2.2068
  513MOL0     H69235   1.363   3.886   4.829  0.7336 -1.9293  0.7534
  513MOL0     H69236   1.521   4.096   4.861  1.2335  0.1474 -0.3775
  513MOL0     H69237   2.109   4.150   4.787  1.8035  0.4456 -0.3073
  513MOL0     H69238   2.247   4.348   4.828  0.4949 -2.1814 -1.1814
  513MOL0     H69239   3.311   4.454   4.963 -0.2165  1.4952  1.8246
  513MOL0     H69240   3.431   4.282   4.873  2.1136  2.0637  2.2462
  513MOL0     H69241   3.314   3.875   4.715 -0.7002  0.8027 -1.7711
  513MOL0     H69242   3.320   3.697   4.564 -2.0079  1.5126  4.1683
  513MOL0     H69243   3.671   3.468   4.579 -0.5058 -0.4402  0.7462
  513MOL0     H69244   3.642   3.413   4.411 -1.2341  0.3862 -0.7659
  513MOL0     H69245   3.424   3.343   4.453  0.5965 -2.2255  0.1293
  513MOL0     H69246   3.427   3.421   4.613 -2.0734 -1.3563  0.8540
  513MOL0     H69247   3.578   3.244   4.684  1.3506 -1.3797 -0.4033
  513MOL0     H69248   3.611   3.198   4.515  0.3470 -1.5273  0.9257
  513MOL0     H69249   3.355   3.183   4.694  1.3166  1.0931 -0.2094
  513MOL0     H69250   3.358   3.127   4.525  2.0579  1.3036 -2.7900
  513MOL0     H69251   3.598   2.817   4.696 -0.4499  1.2800  1.1960
  513MOL0     H69252   3.748   3.696   4.565 -1.6714 -0.7063 -0.3973
  513MOL0     H69253   3.783   4.008   4.694 -3.8503  1.1532  0.5028
  513MOL0     H69254   3.793   3.902   4.833  1.2004  3.5974  0.3659
  513MOL0     H69255   3.871   3.849   4.682 -1.1759 -0.9003 -0.1797
  514MOL0     O69256   5.409   3.875   3.304 -0.7430 -0.2955 -0.5799
  514MOL0     C69257   5.394   3.784   3.386  0.3968 -0.2390 -1.7258
  514MOL0     O69258   5.487   3.724   3.464  0.0076  0.5010 -0.4863
  514MOL0     C69259   5.622   3.714   3.433  0.9063 -0.0689 -0.6695
  514MOL0     C69260   5.684   3.743   3.312  0.5509 -0.0761 -0.0985
  514MOL0     C69261   5.816   3.726   3.298 -1.0511 -0.7968 -0.3029
  514MOL0     C69262   5.904   3.683   3.399  0.1212 -0.4423  0.2710
  514MOL0     O69263   6.038   3.672   3.372  0.1178  0.1245 -0.1195
  514MOL0     C69264   6.135   3.744   3.447  0.4442 -0.2764 -0.6956
  514MOL0     C69265   6.276   3.695   3.425  0.0493 -0.3446  0.1318
  514MOL0     C69266   6.280   3.556   3.489  0.9831  0.0541  0.2906
  514MOL0     C69267   6.423   3.506   3.456 -0.1471  0.3042  0.5288
  514MOL0     C69268   6.448   3.370   3.517 -0.1201 -0.1234 -0.1313
  514MOL0     C69269   6.594   3.327   3.472 -0.8170  0.7983  0.4477
  514MOL0     C69270   6.622   3.186   3.527  0.0296  0.7372 -0.0925
  514MOL0     C69271   6.555   3.084   3.427 -0.5425  0.9350  0.0661
  514MOL0     N69272   6.561   2.953   3.485 -0.0853  0.5161  0.7640
  514MOL0     C69273   6.680   2.899   3.521  0.4486  0.8410  0.2075
  514MOL0     C69274   6.652   2.778   3.573  0.2134 -0.0754  0.3983
  514MOL0     C69275   6.759   2.684   3.636  0.3572  0.3366 -0.4374
  514MOL0     C69276   6.802   2.586   3.532 -0.2011  0.1134  0.9725
  514MOL0     C69277   6.946   2.538   3.571  0.5930  0.0944 -0.5447
  514MOL0     C69278   6.974   2.412   3.489 -0.9878 -0.3416  0.6536
  514MOL0     O69279   7.007   2.451   3.354  0.0421 -0.5333 -0.1755
  514MOL0     C69280   7.140   2.432   3.316  0.2775 -0.7635 -1.2144
  514MOL0     C69281   7.189   2.300   3.298  0.5862 -0.2013 -0.3194
  514MOL0     C69282   7.321   2.287   3.251  0.0391 -0.2247  0.3095
  514MOL0     C69283   7.405   2.393   3.231  0.0496 -0.1638 -0.5714
  514MOL0     C69284   7.549   2.369   3.190  0.1517 -0.0343 -0.5096
  514MOL0     O69285   7.614   2.478   3.135  0.6387 -0.1027  0.0044
  514MOL0     C69286   7.736   2.461   3.081 -0.2701  0.2254 -1.0725
  514MOL0     C69287   7.760   2.463   2.949 -0.5991  0.2569 -0.6209
  514MOL0     C69288   7.889   2.446   2.901 -0.5648 -0.3459 -0.4048
  514MOL0     C69289   7.991   2.423   2.992 -0.2065 -0.3822  0.4940
  514MOL0     O69290   8.120   2.399   2.959  0.0011 -0.1176  0.0731
  514MOL0     C69291   8.158   2.263   2.955  0.0073  0.5788 -0.6318
  514MOL0     C69292   8.269   2.223   2.861 -0.2302  0.1266  0.1360
  514MOL0     C69293   8.304   2.080   2.878 -0.6157 -0.0528  0.3759
  514MOL0     C69294   8.369   2.016   2.755  0.1257  0.1517 -0.2146
  514MOL0     C69295   8.422   1.876   2.781 -0.4810  0.0968 -0.4784
  514MOL0     C69296   8.312   1.765   2.772 -0.5462 -0.9106  0.2597
  514MOL0     C69297   8.356   1.625   2.839  0.6542  0.0687 -0.5266
  514MOL0     C69298   8.462   1.551   2.759 -0.4565 -1.1739  0.2312
  514MOL0    Cl69299   8.496   1.394   2.834  0.0357 -0.0920  0.0759
  514MOL0     C69300   7.966   2.414   3.126 -0.8744  0.4537  0.0520
  514MOL0     C69301   7.836   2.435   3.173 -0.6828  0.7052 -0.4508
  514MOL0     O69302   7.594   2.254   3.192  0.2616 -0.8410  0.1804
  514MOL0     C69303   7.355   2.519   3.259  0.1718 -0.2616 -0.3610
  514MOL0     C69304   7.221   2.539   3.297  0.2687  0.3426 -0.4977
  514MOL0     N69305   6.523   2.753   3.549 -0.4014  0.1429  0.5753
  514MOL0     N69306   6.465   2.858   3.500 -0.1439 -0.5363 -0.1707
  514MOL0     C69307   5.839   3.662   3.515 -0.4433 -0.4814 -0.4610
  514MOL0     C69308   5.705   3.668   3.534 -0.6314  0.6186  0.2025
  514MOL0     C69309   5.254   3.745   3.415  0.2201 -0.0334 -0.1157
  514MOL0     C69310   5.204   3.637   3.335  0.0796 -0.3329 -0.1642
  514MOL0     C69311   5.066   3.617   3.332 -0.0070 -0.4652 -1.3393
  514MOL0     C69312   4.977   3.672   3.417 -0.3882 -0.1270 -0.9305
  514MOL0     O69313   4.848   3.637   3.407 -0.4170 -0.3369 -0.6508
  514MOL0     C69314   4.754   3.681   3.505  0.1822 -0.0691 -0.0963
  514MOL0     C69315   4.712   3.818   3.483  1.2514 -1.5443 -1.0981
  514MOL0     C69316   4.627   3.878   3.597  0.3391  0.7010 -0.1236
  514MOL0     C69317   4.526   3.782   3.654  0.7239 -0.1573  0.3037
  514MOL0     C69318   4.427   3.857   3.745 -0.1596  0.1348  0.2828
  514MOL0     C69319   4.355   3.921   3.813  0.3378  0.2484 -1.5120
  514MOL0     C69320   5.031   3.768   3.506  0.4042 -0.6101 -0.5550
  514MOL0     C69321   5.167   3.800   3.509  0.1541 -0.3448  0.3897
  514MOL0     C69322   5.205   3.922   3.585 -0.2639  0.6131  0.4456
  514MOL0     H69323   5.625   3.770   3.225 -0.3943 -1.2234  0.1485
  514MOL0     H69324   5.867   3.755   3.207  1.9048 -0.7752  1.2537
  514MOL0     H69325   6.131   3.853   3.435  0.2101  0.0530  1.7450
  514MOL0     H69326   6.106   3.741   3.553  1.5757  0.0363 -0.3674
  514MOL0     H69327   6.348   3.761   3.473  1.9084 -2.3198  0.1969
  514MOL0     H69328   6.290   3.682   3.317 -1.7074 -1.2684 -0.0290
  514MOL0     H69329   6.213   3.479   3.449  3.2955 -1.6579 -0.5411
  514MOL0     H69330   6.263   3.574   3.595  1.6247  3.1298 -0.0523
  514MOL0     H69331   6.429   3.503   3.346  2.4070 -0.7080  0.6284
  514MOL0     H69332   6.497   3.577   3.493  0.4658 -0.0612  0.0347
  514MOL0     H69333   6.430   3.379   3.624 -0.7130  2.0185 -0.3748
  514MOL0     H69334   6.374   3.301   3.475 -1.7179  1.1695  0.4394
  514MOL0     H69335   6.624   3.335   3.368 -1.1424 -2.0753  0.0533
  514MOL0     H69336   6.666   3.392   3.523 -0.6275  1.8191 -1.0618
  514MOL0     H69337   6.595   3.181   3.633  4.0378 -3.5234  1.0240
  514MOL0     H69338   6.730   3.172   3.534  0.1051  1.3172 -0.0043
  514MOL0     H69339   6.453   3.110   3.398 -0.0240  1.6552 -1.1483
  514MOL0     H69340   6.614   3.086   3.335  1.0339 -0.1721  0.9927
  514MOL0     H69341   6.777   2.948   3.512 -0.6370  2.8799 -1.4296
  514MOL0     H69342   6.844   2.746   3.666  0.2973  0.9512 -1.4649
  514MOL0     H69343   6.712   2.632   3.719  2.2444  0.2382  0.6143
  514MOL0     H69344   6.727   2.506   3.532  0.3562 -0.4203  0.4430
  514MOL0     H69345   6.809   2.623   3.430 -2.1676 -1.3644  0.2367
  514MOL0     H69346   6.943   2.518   3.679  0.0542 -2.7825 -1.0191
  514MOL0     H69347   7.020   2.616   3.551  2.2741  0.0508  4.2234
  514MOL0     H69348   6.888   2.346   3.480 -1.1391  0.0376 -0.9580
  514MOL0     H69349   7.050   2.355   3.544  0.4466 -0.1937 -1.1019
  514MOL0     H69350   7.117   2.220   3.311 -1.0817  1.4663  1.1464
  514MOL0     H69351   7.353   2.190   3.213 -0.7520  0.7767 -3.3409
  514MOL0     H69352   7.677   2.485   2.882  0.9810  3.9458 -1.6166
  514MOL0     H69353   7.917   2.430   2.797  0.3603  0.8126 -0.3584
  514MOL0     H69354   8.189   2.233   3.055 -2.9697  0.1145  0.2648
  514MOL0     H69355   8.069   2.203   2.935 -0.2248  0.8613 -0.4637
  514MOL0     H69356   8.240   2.242   2.757 -2.5324 -1.7719  0.3406
  514MOL0     H69357   8.362   2.272   2.889  1.8620 -4.1185  1.5740
  514MOL0     H69358   8.382   2.088   2.954  0.0081  3.1507 -0.4862
  514MOL0     H69359   8.216   2.022   2.911 -2.2923  1.6154 -0.9704
  514MOL0     H69360   8.454   2.081   2.734  0.8661 -0.9371 -0.7150
  514MOL0     H69361   8.300   2.016   2.670  0.3382  0.8980 -0.3918
  514MOL0     H69362   8.455   1.856   2.883  0.2274  0.2797 -0.6652
  514MOL0     H69363   8.503   1.850   2.712 -1.0534 -1.4453 -0.6075
  514MOL0     H69364   8.229   1.809   2.829 -1.2120 -0.6104 -0.9236
  514MOL0     H69365   8.280   1.750   2.669  1.4458  2.2500 -0.9846
  514MOL0     H69366   8.273   1.555   2.847  1.8406 -1.1906  1.9400
  514MOL0     H69367   8.394   1.644   2.940  2.7213 -1.3890 -0.9517
  514MOL0     H69368   8.427   1.532   2.656 -1.1643 -0.1267  0.2660
  514MOL0     H69369   8.555   1.607   2.750 -0.3611 -1.3017  0.4259
  514MOL0     H69370   8.045   2.371   3.187 -0.5887 -0.7719 -1.1057
  514MOL0     H69371   7.819   2.413   3.278  1.0902 -0.8943 -0.4538
  514MOL0     H69372   7.421   2.603   3.243  0.4550  0.1647  2.4754
  514MOL0     H69373   7.174   2.635   3.319 -0.7806 -0.5669  1.6556
  514MOL0     H69374   5.905   3.625   3.593 -0.8557 -0.3440 -0.0443
  514MOL0     H69375   5.648   3.639   3.622 -0.5125 -1.3699 -0.3341
  514MOL0     H69376   5.267   3.584   3.265 -2.1230  0.3376 -2.8372
  514MOL0     H69377   5.014   3.559   3.256 -1.0363 -1.8421  0.3206
  514MOL0     H69378   4.796   3.674   3.606  0.6875  2.3304 -0.0909
  514MOL0     H69379   4.673   3.611   3.485  2.2648 -2.5866 -0.3043
  514MOL0     H69380   4.651   3.828   3.392  0.8368 -2.9249 -1.0045
  514MOL0     H69381   4.802   3.878   3.472 -0.0705  1.5231  2.7605
  514MOL0     H69382   4.582   3.970   3.560  0.7643  2.2711  2.8962
  514MOL0     H69383   4.698   3.906   3.676 -0.1761 -0.2830  0.7284
  514MOL0     H69384   4.470   3.728   3.577 -0.8688 -1.2810  2.1532
  514MOL0     H69385   4.568   3.706   3.720  0.7921  0.7058  1.2797
  514MOL0     H69386   4.302   3.975   3.889  1.0240  0.3559 -1.0935
  514MOL0     H69387   4.959   3.817   3.570  0.7405 -1.9947  0.9290
  514MOL0     H69388   5.124   3.943   3.655 -3.9803 -0.3530 -3.1386
  514MOL0     H69389   5.294   3.908   3.646 -0.7511 -3.1644  0.5442
  514MOL0     H69390   5.218   4.003   3.513  2.0052  0.4427  0.5852
  515MOL0     O69391  11.179   9.228   6.380  0.7183 -0.3262 -0.5112
  515MOL0     C69392  11.226   9.189   6.280 -0.1081 -0.4221  0.2678
  515MOL0     O69393  11.336   9.110   6.274  0.3973 -1.0013 -0.0127
  515MOL0     C69394  11.398   9.080   6.393 -0.5062  0.5763 -0.5076
  515MOL0     C69395  11.354   8.995   6.486  0.1580  0.4984  0.6062
  515MOL0     C69396  11.435   8.941   6.591  0.5497 -0.1466  0.4726
  515MOL0     C69397  11.570   8.979   6.594  0.5779 -0.3272 -1.0842
  515MOL0     O69398  11.660   8.931   6.687 -0.2177  0.2753  0.2047
  515MOL0     C69399  11.614   8.824   6.783 -1.3014 -0.0560  0.3667
  515MOL0     C69400  11.726   8.766   6.862  0.0551 -0.6426  0.0109
  515MOL0     C69401  11.766   8.858   6.977  0.5425  0.0770  0.6453
  515MOL0     C69402  11.825   8.780   7.098  0.5106  0.0742  0.4461
  515MOL0     C69403  11.867   8.880   7.201  0.7218 -0.0832 -0.1910
  515MOL0     C69404  11.882   8.808   7.340  0.6894  0.2108 -0.4322
  515MOL0     C69405  11.914   8.930   7.433 -0.9285  0.4496 -0.9774
  515MOL0     C69406  11.958   8.899   7.585  0.0071  1.3471  0.1778
  515MOL0     N69407  11.857   8.822   7.651  0.2145 -0.3650 -1.3490
  515MOL0     C69408  11.842   8.684   7.656  0.3016 -0.2900  0.5287
  515MOL0     C69409  11.727   8.677   7.739  0.4196 -0.1208  0.1939
  515MOL0     C69410  11.646   8.557   7.775  0.1396  0.7163  0.4093
  515MOL0     C69411  11.556   8.529   7.670  0.5445 -0.7360  0.5225
  515MOL0     C69412  11.472   8.398   7.680 -0.0594 -0.0748  0.6855
  515MOL0     C69413  11.372   8.378   7.563 -1.2534 -0.4184 -0.1576
  515MOL0     O69414  11.448   8.361   7.440  0.1190 -0.1531 -0.0862
  515MOL0     C69415  11.398   8.424   7.327 -0.2821 -0.3144 -0.4011
  515MOL0     C69416  11.487   8.480   7.232  0.5278 -1.0855  0.6292
  515MOL0     C69417  11.447   8.554   7.122  0.1046  0.8429  0.4959
  515MOL0     C69418  11.305   8.579   7.105  1.5273  0.3719  0.0424
  515MOL0     C69419  11.252   8.662   7.002  1.2745  0.7093  0.1147
  515MOL0     O69420  11.124   8.685   7.005 -0.1823  0.2919 -0.4161
  515MOL0     C69421  11.057   8.740   6.899  0.7754  0.1963  0.1823
  515MOL0     C69422  10.933   8.690   6.880  0.2179 -0.3910  0.2837
  515MOL0     C69423  10.856   8.723   6.764  0.5543  0.4868 -0.2495
  515MOL0     C69424  10.902   8.819   6.666  0.5332  0.9928  0.8597
  515MOL0     O69425  10.823   8.846   6.553  0.4478  0.1314  0.6679
  515MOL0     C69426  10.736   8.965   6.565 -0.3198  0.4052 -0.4703
  515MOL0     C69427  10.656   8.995   6.435  0.6761  0.2226 -1.3170
  515MOL0     C69428  10.745   9.004   6.320 -0.3082 -0.3185  0.6967
  515MOL0     C69429  10.669   9.064   6.208  0.9856 -1.5932 -0.4513
  515MOL0     C69430  10.768   9.072   6.089  0.6525 -0.4618  0.5074
  515MOL0     C69431  10.714   9.152   5.967  0.2352 -0.4577 -0.0860
  515MOL0     C69432  10.592   9.098   5.897  0.3709  0.1528 -0.4363
  515MOL0     C69433  10.612   8.948   5.863 -0.4879  0.2520 -0.6361
  515MOL0    Cl69434  10.474   8.905   5.772 -0.2810  0.2041  0.0588
  515MOL0     C69435  11.024   8.877   6.693  0.1500 -0.7667  0.7064
  515MOL0     C69436  11.103   8.842   6.811 -0.0374 -0.1602  1.2594
  515MOL0     O69437  11.333   8.714   6.931 -0.0294 -0.3284 -0.1147
  515MOL0     C69438  11.217   8.524   7.197  0.2239 -0.0238  0.2379
  515MOL0     C69439  11.261   8.458   7.317  0.3021  0.6033  0.6584
  515MOL0     N69440  11.684   8.807   7.770  0.2027  0.3943 -0.6105
  515MOL0     N69441  11.758   8.891   7.709 -0.2021 -0.1362 -0.3584
  515MOL0     C69442  11.618   9.061   6.494 -0.0803  0.5275  0.6040
  515MOL0     C69443  11.533   9.111   6.393 -0.1086 -0.9135 -0.0127
  515MOL0     C69444  11.182   9.263   6.152 -0.2861  0.5837  0.3159
  515MOL0     C69445  11.054   9.325   6.160  0.1275  0.5567 -0.4077
  515MOL0     C69446  10.995   9.383   6.049 -0.0957 -0.0983 -0.8120
  515MOL0     C69447  11.062   9.382   5.928  1.2750  0.5513  0.3495
  515MOL0     O69448  10.979   9.438   5.833 -0.9514  0.3440 -0.0341
  515MOL0     C69449  10.995   9.395   5.693  0.3568  0.2063 -0.3392
  515MOL0     C69450  10.852   9.377   5.631 -0.7775  0.8102  0.2100
  515MOL0     C69451  10.824   9.246   5.568  1.0408  0.3933  0.7774
  515MOL0     C69452  10.678   9.242   5.529  0.4247 -0.1424  0.7269
  515MOL0     C69453  10.647   9.114   5.458  0.3293  0.2742  0.3546
  515MOL0     C69454  10.615   9.004   5.406  0.0464 -0.6996  0.1866
  515MOL0     C69455  11.192   9.319   5.912 -0.1551  0.6429  0.1265
  515MOL0     C69456  11.245   9.250   6.022  0.4383 -0.3448 -0.9070
  515MOL0     C69457  11.371   9.166   5.994 -0.4562  1.4025  0.3965
  515MOL0     H69458  11.253   8.965   6.462 -0.1699  1.4176  0.8053
  515MOL0     H69459  11.394   8.866   6.658 -2.2997  3.5945  3.3317
  515MOL0     H69460  11.539   8.874   6.845 -1.6984 -3.4991  3.0169
  515MOL0     H69461  11.572   8.738   6.731  0.5672 -1.0651  0.4308
  515MOL0     H69462  11.820   8.757   6.808  0.3317  2.4249 -0.2067
  515MOL0     H69463  11.697   8.666   6.896  3.8393 -3.6049 -4.2261
  515MOL0     H69464  11.679   8.916   7.010  0.9257  2.4558 -2.1011
  515MOL0     H69465  11.831   8.931   6.927  1.0672 -1.3756 -0.8884
  515MOL0     H69466  11.752   8.713   7.145 -0.6665  1.9393  1.4039
  515MOL0     H69467  11.905   8.717   7.059 -0.0294  0.3948 -1.2571
  515MOL0     H69468  11.956   8.930   7.164  1.4652 -0.5809  0.8799
  515MOL0     H69469  11.795   8.962   7.209  0.3843 -0.3800 -0.1506
  515MOL0     H69470  11.794   8.750   7.367  0.1401  0.4398 -1.6659
  515MOL0     H69471  11.965   8.737   7.330 -1.8401 -3.2780  1.2431
  515MOL0     H69472  11.827   8.996   7.428 -2.0193 -0.5658  2.0058
  515MOL0     H69473  11.999   8.987   7.396  1.0353  0.5923  3.2386
  515MOL0     H69474  12.055   8.848   7.593 -1.1157 -0.6669  1.5016
  515MOL0     H69475  11.971   8.998   7.631  2.3526  0.6490  1.1945
  515MOL0     H69476  11.908   8.613   7.608  0.8406 -0.1629  1.0667
  515MOL0     H69477  11.704   8.466   7.790 -1.0843  0.0898  1.6074
  515MOL0     H69478  11.595   8.566   7.872 -0.7364 -4.5242  0.7346
  515MOL0     H69479  11.487   8.613   7.674  0.0932 -1.1311  1.6794
  515MOL0     H69480  11.602   8.521   7.572  1.2760 -3.5176  1.0000
  515MOL0     H69481  11.414   8.384   7.772  1.7164 -0.9009  1.7209
  515MOL0     H69482  11.547   8.319   7.688  3.3829  2.9993  1.1505
  515MOL0     H69483  11.304   8.463   7.566 -1.1162 -0.3097 -0.1091
  515MOL0     H69484  11.314   8.287   7.581 -1.1286 -0.0466  2.4446
  515MOL0     H69485  11.585   8.436   7.246  0.9481 -0.8586 -1.3363
  515MOL0     H69486  11.520   8.587   7.049  0.8763 -3.6925 -1.1721
  515MOL0     H69487  10.892   8.625   6.957 -0.5541 -0.7884 -0.4368
  515MOL0     H69488  10.755   8.686   6.746  0.8211 -0.7753  0.6897
  515MOL0     H69489  10.662   8.925   6.635  0.0039 -1.5030 -1.1559
  515MOL0     H69490  10.790   9.046   6.614  1.4236 -1.1942  0.3321
  515MOL0     H69491  10.573   8.927   6.414  1.5607 -0.7817 -1.6012
  515MOL0     H69492  10.613   9.095   6.444  2.0141  0.7359 -0.1474
  515MOL0     H69493  10.834   9.061   6.349  0.4866  0.5497 -2.8748
  515MOL0     H69494  10.783   8.908   6.284  1.0480  0.8173 -1.0878
  515MOL0     H69495  10.624   9.160   6.235  0.2932 -2.0429  0.0041
  515MOL0     H69496  10.592   8.991   6.184  0.1963 -1.0511  0.3560
  515MOL0     H69497  10.794   8.973   6.050  1.6581  0.3756 -1.0732
  515MOL0     H69498  10.860   9.121   6.121 -0.1629  2.4680 -1.1834
  515MOL0     H69499  10.705   9.256   5.999  0.6466 -0.4031 -0.1461
  515MOL0     H69500  10.798   9.147   5.897  0.1410 -1.2556 -0.1573
  515MOL0     H69501  10.583   9.166   5.812 -1.3324 -0.6922 -0.9685
  515MOL0     H69502  10.494   9.117   5.941 -0.8560  1.3683 -3.3739
  515MOL0     H69503  10.694   8.940   5.792 -2.6968 -2.4048 -3.1423
  515MOL0     H69504  10.634   8.887   5.951 -0.4158  0.4832 -0.4927
  515MOL0     H69505  11.060   8.931   6.606 -2.3813  0.0130  0.0394
  515MOL0     H69506  11.206   8.874   6.824  0.2644 -1.3443  1.9403
  515MOL0     H69507  11.111   8.544   7.183  0.3872  0.8127  0.1488
  515MOL0     H69508  11.197   8.409   7.389  1.1410 -0.8478  0.4474
  515MOL0     H69509  11.720   9.093   6.478 -0.1595 -0.4202 -2.2262
  515MOL0     H69510  11.565   9.172   6.309  2.1711 -0.4167  1.1602
  515MOL0     H69511  11.007   9.327   6.258  0.7003 -1.4346 -0.0255
  515MOL0     H69512  10.899   9.430   6.066 -0.0148 -0.2378  0.1068
  515MOL0     H69513  11.045   9.298   5.706  0.5001  0.5428  1.9547
  515MOL0     H69514  11.067   9.449   5.632 -2.1277  1.8077 -2.0410
  515MOL0     H69515  10.835   9.459   5.562 -2.6161 -0.2451 -0.6706
  515MOL0     H69516  10.783   9.386   5.715 -1.0719 -2.3814  0.4188
  515MOL0     H69517  10.842   9.169   5.644 -3.5872 -3.2081 -1.2476
  515MOL0     H69518  10.894   9.239   5.484  1.1753  1.2042  0.8187
  515MOL0     H69519  10.610   9.244   5.615 -0.1342 -3.3746  0.5100
  515MOL0     H69520  10.651   9.326   5.465  3.3453  0.6523  0.3951
  515MOL0     H69521  10.568   8.915   5.370 -3.2128  1.2517 -0.7422
  515MOL0     H69522  11.240   9.314   5.814 -3.5242  0.9812 -1.7003
  515MOL0     H69523  11.410   9.163   5.892 -0.9472 -2.2851  0.1939
  515MOL0     H69524  11.456   9.207   6.049  0.8963  1.3267 -1.5405
  515MOL0     H69525  11.347   9.063   6.019 -3.5219  2.3215  1.6420
  516MOL0     O69526   1.981  11.137   3.030  0.2643 -0.5301 -0.2498
  516MOL0     C69527   1.932  11.156   2.920  0.7169  0.0463  0.0228
  516MOL0     O69528   1.794  11.143   2.889 -0.0179  0.0829  0.6700
  516MOL0     C69529   1.715  11.090   2.989 -0.1912  0.0802  0.6342
  516MOL0     C69530   1.667  10.963   2.985  0.1905  0.8862 -0.5030
  516MOL0     C69531   1.582  10.911   3.089 -0.6510  0.2617 -0.1114
  516MOL0     C69532   1.540  10.994   3.197  0.1439 -0.9009  0.8063
  516MOL0     O69533   1.448  10.946   3.284  0.8062 -0.6783 -0.4896
  516MOL0     C69534   1.414  11.019   3.407  0.7303  0.0862 -0.3478
  516MOL0     C69535   1.338  10.940   3.512  0.4027 -0.1431  0.1047
  516MOL0     C69536   1.195  10.918   3.470  0.3219  0.4121 -0.4475
  516MOL0     C69537   1.111  10.823   3.553  1.2076 -0.2419 -1.0594
  516MOL0     C69538   0.960  10.830   3.560  0.4695 -0.3315 -0.1817
  516MOL0     C69539   0.906  10.729   3.663 -0.0552 -0.3863  0.9805
  516MOL0     C69540   0.778  10.783   3.732  0.3337 -0.1540 -0.4420
  516MOL0     C69541   0.651  10.805   3.649 -0.2684 -0.0710  0.2005
  516MOL0     N69542   0.579  10.678   3.609  0.2973 -0.7836 -0.0630
  516MOL0     C69543   0.486  10.619   3.698 -0.7503  0.0941  0.8613
  516MOL0     C69544   0.444  10.508   3.630 -0.3147 -0.0006  0.1931
  516MOL0     C69545   0.330  10.412   3.658 -0.0960 -0.7238 -0.3489
  516MOL0     C69546   0.293  10.294   3.570 -0.3522 -0.1342  0.5970
  516MOL0     C69547   0.180  10.197   3.624 -0.1190  0.4346  0.6791
  516MOL0     C69548   0.170  10.070   3.538  0.1206 -0.4760  0.7290
  516MOL0     O69549   0.168   9.959   3.622 -0.0805  0.7446  0.2042
  516MOL0     C69550   0.281   9.881   3.636  0.5083  1.1943 -0.1425
  516MOL0     C69551   0.253   9.761   3.703 -0.5826  0.4925  0.1770
  516MOL0     C69552   0.350   9.661   3.705 -0.1507  0.3943  0.5335
  516MOL0     C69553   0.483   9.685   3.652  0.0000 -1.4339 -0.2217
  516MOL0     C69554   0.582   9.579   3.663 -0.7234 -0.8978  0.7555
  516MOL0     O69555   0.706   9.609   3.609  0.6825 -0.1112  0.3319
  516MOL0     C69556   0.794   9.509   3.623 -0.3867  0.6305  0.5030
  516MOL0     C69557   0.913   9.535   3.692 -0.2127  0.7486  0.4164
  516MOL0     C69558   1.010   9.431   3.692  1.0177 -0.0619 -1.1880
  516MOL0     C69559   0.989   9.311   3.630 -0.3104  0.6615  0.0706
  516MOL0     O69560   1.092   9.225   3.648 -0.2411 -0.5498 -0.7421
  516MOL0     C69561   1.099   9.112   3.560 -0.8918  0.4679  0.2502
  516MOL0     C69562   1.239   9.037   3.584  0.4183  0.5907  0.1085
  516MOL0     C69563   1.271   8.916   3.496 -0.2659 -0.0999  0.0840
  516MOL0     C69564   1.152   8.848   3.432  0.3178 -0.0095 -0.5243
  516MOL0     C69565   1.182   8.736   3.332 -0.6534  0.4381  0.3854
  516MOL0     C69566   1.265   8.620   3.394 -0.3485  0.3066  0.6684
  516MOL0     C69567   1.191   8.561   3.526 -0.0286 -0.0332  0.7387
  516MOL0     C69568   1.102   8.451   3.489 -0.1096  0.3297  0.6497
  516MOL0    Cl69569   1.032   8.383   3.637 -0.1166 -0.2385 -0.1151
  516MOL0     C69570   0.880   9.291   3.545 -0.3837 -0.8895  0.6302
  516MOL0     C69571   0.788   9.391   3.543  0.2786 -1.0423 -0.5772
  516MOL0     O69572   0.547   9.468   3.710 -0.2065  0.0888  0.6938
  516MOL0     C69573   0.511   9.811   3.594 -0.3242 -0.7132  0.5869
  516MOL0     C69574   0.410   9.905   3.589  0.3068 -0.0659 -0.6624
  516MOL0     N69575   0.494  10.512   3.499  0.4882  0.2248  0.1901
  516MOL0     N69576   0.575  10.618   3.490 -0.0875 -0.1766 -0.7588
  516MOL0     C69577   1.592  11.125   3.192  0.3984 -0.9689 -0.2475
  516MOL0     C69578   1.684  11.165   3.099  0.3888  0.0051 -0.1524
  516MOL0     C69579   2.018  11.197   2.812 -0.9541 -0.8312 -0.4166
  516MOL0     C69580   1.954  11.211   2.686  0.0267 -0.3266  0.0382
  516MOL0     C69581   2.014  11.290   2.582 -0.2832  0.3252 -0.1448
  516MOL0     C69582   2.146  11.353   2.596 -0.5909 -0.1282 -0.3669
  516MOL0     O69583   2.203  11.429   2.492 -0.4354 -0.7727 -0.4019
  516MOL0     C69584   2.127  11.458   2.377 -0.1117 -0.1107 -0.4354
  516MOL0     C69585   2.205  11.539   2.281 -0.3846  1.1312  0.8755
  516MOL0     C69586   2.162  11.693   2.279 -0.1037  1.0384  0.3791
  516MOL0     C69587   2.229  11.778   2.162 -1.0984 -0.0395 -1.5780
  516MOL0     C69588   2.138  11.882   2.124  0.0022 -0.8250  0.5329
  516MOL0     C69589   2.073  11.968   2.076 -0.3212  0.2555  0.6057
  516MOL0     C69590   2.211  11.325   2.714 -0.6551  0.5886  0.0700
  516MOL0     C69591   2.147  11.257   2.825  0.4907  0.0642 -1.3057
  516MOL0     C69592   2.224  11.251   2.946 -0.2561 -0.9973  0.5827
  516MOL0     H69593   1.680  10.899   2.899 -3.0522 -0.0638 -0.4363
  516MOL0     H69594   1.553  10.807   3.081  0.8513 -0.0865 -1.8892
  516MOL0     H69595   1.502  11.052   3.463 -0.7869  1.9571  1.0458
  516MOL0     H69596   1.342  11.097   3.384 -0.1227 -1.0092 -1.5229
  516MOL0     H69597   1.334  11.007   3.599  2.3181 -1.1435  1.0186
  516MOL0     H69598   1.403  10.855   3.534  2.2370  2.0979  4.7229
  516MOL0     H69599   1.189  10.886   3.365  0.2937  0.1434 -0.3656
  516MOL0     H69600   1.149  11.016   3.476  1.3419  0.8769  0.0283
  516MOL0     H69601   1.140  10.718   3.542  0.5220 -0.7010  1.1511
  516MOL0     H69602   1.141  10.848   3.655 -3.4776  2.4496 -0.0438
  516MOL0     H69603   0.922  10.924   3.602 -1.2724 -0.5346 -1.2408
  516MOL0     H69604   0.920  10.825   3.458  1.9100  1.6280 -0.9157
  516MOL0     H69605   0.884  10.633   3.616  0.9107  0.1818 -0.7291
  516MOL0     H69606   0.974  10.700   3.744 -0.9473  2.4383  2.8752
  516MOL0     H69607   0.805  10.877   3.780 -3.4036  0.3448  0.9702
  516MOL0     H69608   0.746  10.712   3.809 -0.4760  0.3210 -0.3333
  516MOL0     H69609   0.588  10.873   3.708 -0.0770 -0.1459  0.4951
  516MOL0     H69610   0.678  10.865   3.562 -1.4525  0.7465  0.3763
  516MOL0     H69611   0.465  10.644   3.801 -0.3593 -0.0312  0.9721
  516MOL0     H69612   0.374  10.359   3.743  1.2119 -1.9964 -1.7513
  516MOL0     H69613   0.242  10.470   3.686 -0.0689  0.6751 -2.8525
  516MOL0     H69614   0.247  10.336   3.481  2.2636 -0.4340 -0.9694
  516MOL0     H69615   0.379  10.233   3.541 -0.1319  0.1989  0.5479
  516MOL0     H69616   0.083  10.247   3.629 -0.3230 -0.0344  1.4346
  516MOL0     H69617   0.208  10.171   3.726  3.0547  1.2718  0.1341
  516MOL0     H69618   0.241  10.060   3.455  1.1936 -2.8738  1.8510
  516MOL0     H69619   0.078  10.065   3.478 -0.9655 -0.4795  2.3281
  516MOL0     H69620   0.157   9.750   3.753 -0.0467 -0.1457  1.1019
  516MOL0     H69621   0.320   9.563   3.741 -1.2799  0.5464  0.0546
  516MOL0     H69622   0.933   9.635   3.728  1.7078  0.0721  1.3164
  516MOL0     H69623   1.102   9.447   3.748  0.9764  0.3781 -1.2422
  516MOL0     H69624   1.011   9.046   3.558  2.2254 -4.1795 -0.1817
  516MOL0     H69625   1.110   9.165   3.465  1.1296  0.3420  0.3775
  516MOL0     H69626   1.311   9.115   3.559  0.8632  0.7683  1.8518
  516MOL0     H69627   1.246   9.007   3.689 -2.8268 -2.2880 -0.2867
  516MOL0     H69628   1.327   8.953   3.410 -2.4274 -1.7861 -2.2003
  516MOL0     H69629   1.336   8.846   3.549  1.6145  2.1566  0.9106
  516MOL0     H69630   1.094   8.920   3.374  0.7082  0.5169 -0.2709
  516MOL0     H69631   1.088   8.811   3.514 -0.7113  1.2610 -0.7304
  516MOL0     H69632   1.233   8.766   3.240  1.5023  0.4702  1.5186
  516MOL0     H69633   1.087   8.698   3.293  0.6514 -1.1731 -1.4452
  516MOL0     H69634   1.280   8.545   3.316 -0.0010  1.5493 -0.4980
  516MOL0     H69635   1.370   8.645   3.412  0.0311 -2.0006  2.1753
  516MOL0     H69636   1.132   8.627   3.591  1.5158  1.4882  0.6824
  516MOL0     H69637   1.274   8.513   3.578  0.0363  0.6869  1.3256
  516MOL0     H69638   1.010   8.486   3.441 -0.3708  1.0388  1.6441
  516MOL0     H69639   1.147   8.369   3.432 -4.3312 -0.6703 -1.7372
  516MOL0     H69640   0.876   9.206   3.478  0.5773 -2.6034  2.6275
  516MOL0     H69641   0.703   9.391   3.476 -0.7497 -0.8856  0.6646
  516MOL0     H69642   0.617   9.836   3.586 -0.5891  0.7464  1.2987
  516MOL0     H69643   0.442   9.995   3.537  0.1531  0.4285  0.0978
  516MOL0     H69644   1.583  11.189   3.279  2.2114 -0.2774 -0.5135
  516MOL0     H69645   1.730  11.263   3.112  0.7499 -0.0294 -1.0979
  516MOL0     H69646   1.857  11.178   2.652  0.3633  0.3544 -1.7063
  516MOL0     H69647   1.955  11.298   2.491 -0.5265  2.0140  0.1339
  516MOL0     H69648   2.038  11.516   2.404  1.7987  3.8525 -1.8256
  516MOL0     H69649   2.096  11.364   2.331 -2.0697 -0.3894  1.2730
  516MOL0     H69650   2.195  11.509   2.177 -0.5682  0.9201  0.9533
  516MOL0     H69651   2.313  11.545   2.297  0.0126  1.6372 -1.6568
  516MOL0     H69652   2.192  11.741   2.373 -0.7635 -0.4823  1.3996
  516MOL0     H69653   2.054  11.708   2.268 -0.2231  0.9652  1.3365
  516MOL0     H69654   2.325  11.820   2.193 -1.2363 -0.2682 -0.8217
  516MOL0     H69655   2.256  11.706   2.084  0.2540  0.6979 -1.8091
  516MOL0     H69656   2.018  12.030   2.008  0.6630 -1.4048 -1.8400
  516MOL0     H69657   2.310  11.369   2.719 -0.5363  0.6991 -2.1968
  516MOL0     H69658   2.233  11.149   2.983  0.5361 -1.5878 -1.1393
  516MOL0     H69659   2.326  11.287   2.930 -0.0357 -2.5367 -1.9858
  516MOL0     H69660   2.159  11.302   3.017 -0.4906 -2.0633  1.1504
  517MOL0     O69661   9.073   7.170   0.265  0.2871 -0.8242  0.7948
  517MOL0     C69662   8.981   7.176   0.346  0.4964 -0.0953  0.3400
  517MOL0     O69663   8.986   7.134   0.482  0.0019  0.2784  0.2099
  517MOL0     C69664   9.094   7.071   0.539 -0.2037  0.4029  0.4055
  517MOL0     C69665   9.225   7.047   0.496  0.5672  0.1098  0.1611
  517MOL0     C69666   9.314   6.987   0.586 -0.3139 -0.5203  0.6968
  517MOL0     C69667   9.270   6.949   0.717  0.1849  0.3281  0.1856
  517MOL0     O69668   9.360   6.895   0.802 -0.0048 -0.0474  0.1820
  517MOL0     C69669   9.392   6.755   0.775  1.1554 -0.6217  0.1541
  517MOL0     C69670   9.292   6.669   0.851 -0.0597 -0.1049 -1.0078
  517MOL0     C69671   9.361   6.542   0.896  0.3768  0.1689 -0.9069
  517MOL0     C69672   9.276   6.458   0.994  0.3612  0.0579  0.0147
  517MOL0     C69673   9.350   6.325   1.030 -0.5810  0.0023 -0.2397
  517MOL0     C69674   9.351   6.214   0.917  0.9140 -0.0466 -0.0009
  517MOL0     C69675   9.221   6.208   0.826 -0.4660  0.1900 -0.2900
  517MOL0     C69676   9.088   6.174   0.890  0.1284 -0.0993  0.6237
  517MOL0     N69677   9.072   6.041   0.945  0.6719 -0.8496  0.1947
  517MOL0     C69678   9.110   6.000   1.075 -0.3395 -0.1885  1.3295
  517MOL0     C69679   9.057   5.878   1.089 -0.2506  0.7632 -0.7045
  517MOL0     C69680   9.075   5.784   1.207 -0.2389  0.2656 -0.3774
  517MOL0     C69681   9.219   5.790   1.259  0.5783  0.7492 -0.6676
  517MOL0     C69682   9.246   5.714   1.386  0.0163  0.1148  0.9659
  517MOL0     C69683   9.400   5.694   1.409 -0.0224  0.0110 -0.1387
  517MOL0     O69684   9.466   5.831   1.419  0.3128  0.6841 -0.3391
  517MOL0     C69685   9.575   5.847   1.339  0.1624  0.5281  0.2240
  517MOL0     C69686   9.563   5.875   1.202 -0.5492 -0.1514  0.0113
  517MOL0     C69687   9.673   5.892   1.122  0.6125 -0.2872  0.0372
  517MOL0     C69688   9.807   5.889   1.176  0.5092  0.7501 -0.7930
  517MOL0     C69689   9.925   5.896   1.089 -0.3447  0.5956 -0.6242
  517MOL0     O69690  10.043   5.849   1.152 -0.0278  0.0925  0.4358
  517MOL0     C69691  10.149   5.819   1.065 -0.4757  0.1574 -0.3920
  517MOL0     C69692  10.166   5.685   1.026 -0.7343 -0.1295 -1.0911
  517MOL0     C69693  10.249   5.652   0.924  0.6166 -0.9434  0.1492
  517MOL0     C69694  10.334   5.752   0.872 -0.4154  0.4265 -0.3944
  517MOL0     O69695  10.410   5.750   0.758  0.0195  0.0535 -0.1026
  517MOL0     C69696  10.430   5.629   0.690  0.0324 -0.0597  0.3650
  517MOL0     C69697  10.328   5.634   0.575 -0.4475 -0.1586  0.0504
  517MOL0     C69698  10.378   5.544   0.462  0.4874 -0.8070  0.3221
  517MOL0     C69699  10.296   5.558   0.331  1.0379 -0.0397 -1.5067
  517MOL0     C69700  10.151   5.503   0.356 -0.3816  0.7078  0.4211
  517MOL0     C69701  10.068   5.536   0.226 -0.2755 -0.1304  0.6742
  517MOL0     C69702   9.919   5.552   0.245  0.3219 -0.0226  0.2763
  517MOL0     C69703   9.888   5.696   0.273  0.9078 -0.2543 -0.9313
  517MOL0    Cl69704   9.712   5.693   0.332 -0.1039  0.1835 -0.1660
  517MOL0     C69705  10.335   5.881   0.927 -0.4199 -0.5109  0.9316
  517MOL0     C69706  10.234   5.916   1.016  0.1949 -0.0816 -0.1980
  517MOL0     O69707   9.911   5.920   0.971  0.8091 -0.3111 -0.1004
  517MOL0     C69708   9.815   5.871   1.319 -0.1394 -0.1647 -0.6328
  517MOL0     C69709   9.699   5.850   1.400  1.2337 -0.2339  0.0041
  517MOL0     N69710   9.010   5.831   0.969 -0.4518 -0.8048  0.1964
  517MOL0     N69711   9.026   5.925   0.886 -0.3009 -0.6502  0.7837
  517MOL0     C69712   9.145   6.972   0.756  0.0538 -0.5905  0.2733
  517MOL0     C69713   9.053   7.035   0.668 -0.3165  1.0306  0.9186
  517MOL0     C69714   8.850   7.222   0.290  0.1506  0.1064  0.0441
  517MOL0     C69715   8.734   7.238   0.376 -0.6079  0.8348 -0.3059
  517MOL0     C69716   8.617   7.299   0.340  0.6374 -0.5795 -0.2546
  517MOL0     C69717   8.595   7.334   0.206 -0.7095 -0.5365  0.3873
  517MOL0     O69718   8.477   7.376   0.157 -0.5142 -0.6739  0.3316
  517MOL0     C69719   8.450   7.389   0.021 -0.4615 -0.1345 -0.3816
  517MOL0     C69720   8.303   7.441   0.004  0.6087  0.9155 -0.5270
  517MOL0     C69721   8.196   7.360   0.084  0.5590  0.7231 -0.1264
  517MOL0     C69722   8.087   7.465   0.111  0.5048 -0.6018  0.2302
  517MOL0     C69723   7.973   7.392   0.161 -0.0272  0.7719 -0.0287
  517MOL0     C69724   7.872   7.347   0.204  0.0483  0.4395  0.4753
  517MOL0     C69725   8.711   7.326   0.124 -0.7983  0.2917 -0.7150
  517MOL0     C69726   8.831   7.268   0.158 -1.1739  0.1175 -0.5640
  517MOL0     C69727   8.928   7.260   0.045  0.0667 -0.5565 -0.1944
  517MOL0     H69728   9.260   7.071   0.397 -1.2434 -1.9219 -1.0645
  517MOL0     H69729   9.418   6.979   0.557 -0.3891  2.6706 -0.8479
  517MOL0     H69730   9.387   6.721   0.671  1.7236  1.5508 -0.6394
  517MOL0     H69731   9.490   6.739   0.821  0.7844 -0.9756  0.8443
  517MOL0     H69732   9.213   6.644   0.779 -0.1555 -0.8362 -0.6598
  517MOL0     H69733   9.250   6.711   0.943  2.5514 -1.7378  1.0737
  517MOL0     H69734   9.461   6.562   0.937 -0.1076  1.1616 -0.1662
  517MOL0     H69735   9.376   6.473   0.812  0.3979 -2.0053  0.7878
  517MOL0     H69736   9.266   6.512   1.088  2.4951 -0.9822  0.9261
  517MOL0     H69737   9.181   6.423   0.953  0.0955 -0.9084  1.3631
  517MOL0     H69738   9.458   6.341   1.040 -0.4540 -0.7099 -0.4120
  517MOL0     H69739   9.320   6.275   1.123  0.7879 -0.2361  0.0979
  517MOL0     H69740   9.441   6.229   0.857  1.4708 -3.2619 -0.1607
  517MOL0     H69741   9.364   6.116   0.964 -1.8137  0.1354  1.3848
  517MOL0     H69742   9.245   6.136   0.747  2.6510 -1.1460  1.6813
  517MOL0     H69743   9.219   6.305   0.775  1.9370  0.2067 -0.4912
  517MOL0     H69744   9.065   6.242   0.973 -1.1049 -0.0184  0.2412
  517MOL0     H69745   8.999   6.176   0.826 -0.0732 -1.3648  0.8260
  517MOL0     H69746   9.158   6.064   1.148  0.6899  0.6858 -0.0617
  517MOL0     H69747   9.015   5.821   1.291 -0.6806 -1.8572  0.3061
  517MOL0     H69748   9.030   5.690   1.174  1.0858 -0.8131  0.7969
  517MOL0     H69749   9.287   5.755   1.181  1.4470  1.6998 -0.3585
  517MOL0     H69750   9.241   5.896   1.277  4.2463 -0.0274  0.3313
  517MOL0     H69751   9.191   5.620   1.389 -1.3844  0.9082  1.1860
  517MOL0     H69752   9.218   5.777   1.472  0.5484  0.4813  0.8795
  517MOL0     H69753   9.444   5.630   1.331 -1.4574 -2.2115  0.7696
  517MOL0     H69754   9.411   5.643   1.505  1.8185  2.3305  0.9957
  517MOL0     H69755   9.472   5.873   1.143  0.9704 -1.5233 -2.4671
  517MOL0     H69756   9.665   5.912   1.016  2.3298 -0.6673 -0.1916
  517MOL0     H69757  10.089   5.617   1.060  0.0852  1.0733  4.1347
  517MOL0     H69758  10.241   5.556   0.873 -3.2579 -0.8702  0.3603
  517MOL0     H69759  10.532   5.629   0.651  0.9357 -0.3523  2.6275
  517MOL0     H69760  10.422   5.541   0.755  0.2308 -0.3327  0.0287
  517MOL0     H69761  10.231   5.597   0.609 -1.3952  1.3825 -0.8704
  517MOL0     H69762  10.320   5.736   0.535  1.2483 -0.7731 -2.0187
  517MOL0     H69763  10.477   5.572   0.425 -0.3696 -1.9919 -3.3357
  517MOL0     H69764  10.385   5.439   0.491 -0.8200 -0.5548  1.6442
  517MOL0     H69765  10.334   5.508   0.242 -0.1809 -2.0621 -0.9408
  517MOL0     H69766  10.288   5.667   0.320 -1.2275  0.6495  3.9123
  517MOL0     H69767  10.111   5.539   0.452  0.2257  0.2778  0.8397
  517MOL0     H69768  10.155   5.395   0.373  0.8442  1.0410  2.8287
  517MOL0     H69769  10.115   5.613   0.163 -1.6546 -0.9180 -1.4260
  517MOL0     H69770  10.075   5.443   0.168 -0.2816  0.4475 -0.2685
  517MOL0     H69771   9.881   5.490   0.327 -0.8775  0.2563 -0.0393
  517MOL0     H69772   9.863   5.525   0.155  3.0262  1.0327 -1.8465
  517MOL0     H69773   9.969   5.725   0.340  1.6308  1.3124 -2.4173
  517MOL0     H69774   9.895   5.761   0.186  0.6445 -1.2732 -1.7454
  517MOL0     H69775  10.400   5.962   0.896  0.6577 -1.4007  0.7960
  517MOL0     H69776  10.216   6.019   1.046  1.0442  0.6309 -1.9947
  517MOL0     H69777   9.912   5.845   1.358  0.9254 -3.2938 -4.6055
  517MOL0     H69778   9.702   5.837   1.508 -2.1279 -7.4726 -0.1882
  517MOL0     H69779   9.107   6.934   0.850 -1.8313 -0.4047 -0.3740
  517MOL0     H69780   8.949   7.049   0.695 -0.6860 -0.8911  0.6965
  517MOL0     H69781   8.750   7.217   0.481  0.9223  0.3010 -0.6141
  517MOL0     H69782   8.544   7.319   0.418  0.2024 -0.1047 -0.7812
  517MOL0     H69783   8.464   7.294  -0.031  0.7148 -0.2196  0.0583
  517MOL0     H69784   8.503   7.472  -0.028 -0.7498 -1.0019 -2.2707
  517MOL0     H69785   8.271   7.427  -0.100 -0.9820 -1.2839  0.1754
  517MOL0     H69786   8.305   7.538   0.052  0.7372 -0.6238  2.8489
  517MOL0     H69787   8.218   7.316   0.182 -0.5159  0.7912  0.1665
  517MOL0     H69788   8.163   7.283   0.013  1.0033  0.8559 -0.4783
  517MOL0     H69789   8.121   7.533   0.190 -1.7588  2.2436 -1.0422
  517MOL0     H69790   8.061   7.521   0.021  1.3944 -1.8552 -0.8550
  517MOL0     H69791   7.786   7.292   0.238 -1.0462  2.3790  0.9706
  517MOL0     H69792   8.697   7.338   0.017 -0.8611  1.3002 -0.6066
  517MOL0     H69793   8.880   7.292  -0.048  0.1477  2.3424  0.6558
  517MOL0     H69794   9.001   7.341   0.060 -1.5665  0.4757  3.1604
  517MOL0     H69795   8.975   7.162   0.033  0.9532  0.0405 -2.0898
  518MOL0     O69796   3.494   7.646   1.153 -0.0354 -1.0550 -0.4357
  518MOL0     C69797   3.569   7.550   1.152  0.0740  0.6015  0.5694
  518MOL0     O69798   3.684   7.536   1.223 -0.5274 -0.5778  0.5853
  518MOL0     C69799   3.751   7.633   1.287 -0.0204  0.8812 -0.0723
  518MOL0     C69800   3.886   7.658   1.260 -0.6498  1.0604  0.4548
  518MOL0     C69801   3.947   7.754   1.346  0.2692  0.6028  0.6592
  518MOL0     C69802   3.883   7.815   1.454 -0.2461 -0.9171  0.2629
  518MOL0     O69803   3.959   7.914   1.516  0.3520 -0.0998 -0.5679
  518MOL0     C69804   3.926   7.958   1.646  0.4241  0.3362  0.0306
  518MOL0     C69805   4.047   8.003   1.726 -0.0416  0.2162 -0.1385
  518MOL0     C69806   4.169   7.908   1.705 -0.5839 -0.5640  0.7398
  518MOL0     C69807   4.158   7.795   1.807  0.1673  0.0966 -0.3738
  518MOL0     C69808   4.261   7.678   1.776 -0.3682 -0.9450  0.2193
  518MOL0     C69809   4.236   7.616   1.637 -0.4221  0.3468  0.2036
  518MOL0     C69810   4.323   7.484   1.610  0.4867  0.4543 -0.0160
  518MOL0     C69811   4.255   7.350   1.647  0.2987  0.1546  0.4930
  518MOL0     N69812   4.156   7.307   1.551  0.0454 -0.0397  0.2122
  518MOL0     C69813   4.031   7.353   1.524  0.3616 -0.0100  0.2386
  518MOL0     C69814   3.983   7.272   1.426  0.1379  0.8492  0.1324
  518MOL0     C69815   3.844   7.269   1.380  0.0732  0.5044 -0.2347
  518MOL0     C69816   3.764   7.157   1.459 -0.5421 -0.0392 -0.7454
  518MOL0     C69817   3.621   7.123   1.414  0.4677  0.0238 -0.3923
  518MOL0     C69818   3.550   7.047   1.514  0.3927 -0.1608  0.0125
  518MOL0     O69819   3.405   7.077   1.514  0.5820 -0.4634 -0.2873
  518MOL0     C69820   3.325   7.009   1.419 -0.2488  0.8626 -1.0113
  518MOL0     C69821   3.369   6.901   1.346 -0.4450  0.2487  0.3926
  518MOL0     C69822   3.281   6.812   1.273  0.5109  0.1804  0.5387
  518MOL0     C69823   3.143   6.843   1.266 -0.6017 -0.5423 -0.3604
  518MOL0     C69824   3.058   6.759   1.196  0.7267  0.8334  0.3562
  518MOL0     O69825   3.106   6.645   1.140 -0.1582 -0.2411 -0.2557
  518MOL0     C69826   3.042   6.582   1.038  0.9382  0.5750 -0.0670
  518MOL0     C69827   3.053   6.444   1.031  0.0864 -0.6362 -0.8997
  518MOL0     C69828   2.985   6.377   0.933 -0.0648  0.7458 -0.5142
  518MOL0     C69829   2.909   6.442   0.839  0.1963  0.0908 -0.1075
  518MOL0     O69830   2.842   6.385   0.739 -0.9527 -0.2248 -0.0199
  518MOL0     C69831   2.924   6.281   0.682  0.0349  0.8617 -0.0337
  518MOL0     C69832   2.886   6.272   0.530  0.8457  0.1524 -0.4232
  518MOL0     C69833   2.727   6.255   0.503  0.1494 -0.1953  0.4664
  518MOL0     C69834   2.696   6.227   0.349  0.9397  0.0152  0.6741
  518MOL0     C69835   2.548   6.193   0.328  0.0029 -0.2354  0.0964
  518MOL0     C69836   2.482   6.141   0.201 -0.0312 -1.1801  0.0112
  518MOL0     C69837   2.556   6.018   0.133  0.1747  0.4515 -1.4237
  518MOL0     C69838   2.581   5.900   0.232  0.1757  0.1929  0.1113
  518MOL0    Cl69839   2.668   5.772   0.143 -0.2304  0.1118 -0.4742
  518MOL0     C69840   2.909   6.585   0.838 -0.9521  0.2407  0.6258
  518MOL0     C69841   2.977   6.650   0.936 -0.4985 -0.3717  0.1938
  518MOL0     O69842   2.948   6.807   1.169 -0.2700  0.9605 -0.0248
  518MOL0     C69843   3.099   6.961   1.328 -1.2865 -0.6276 -1.4227
  518MOL0     C69844   3.189   7.035   1.415 -0.4861  0.1361  0.0375
  518MOL0     N69845   4.094   7.189   1.384  0.6929  0.3402 -0.3782
  518MOL0     N69846   4.187   7.214   1.464 -0.2048  0.8871  0.0996
  518MOL0     C69847   3.745   7.799   1.471 -0.4788 -0.8776 -0.7368
  518MOL0     C69848   3.684   7.705   1.388  0.5002  0.6697  0.4703
  518MOL0     C69849   3.530   7.424   1.078  0.3669  0.4453 -0.8424
  518MOL0     C69850   3.588   7.303   1.117  0.2449  0.1883  0.2969
  518MOL0     C69851   3.561   7.183   1.050 -0.2077 -0.0245 -0.1311
  518MOL0     C69852   3.464   7.179   0.951 -0.7462  0.5931 -0.1685
  518MOL0     O69853   3.440   7.052   0.900  1.3353  0.0577  0.6813
  518MOL0     C69854   3.299   7.032   0.879 -0.4245 -0.7152 -0.2864
  518MOL0     C69855   3.251   6.891   0.929 -0.4784 -1.2036 -0.2073
  518MOL0     C69856   3.284   6.771   0.832  0.1262 -0.8575  1.3036
  518MOL0     C69857   3.235   6.805   0.696 -1.0128 -0.6465 -0.1147
  518MOL0     C69858   3.191   6.688   0.615 -0.3639  0.3011 -0.5842
  518MOL0     C69859   3.170   6.590   0.542  0.0449  0.7366  0.4778
  518MOL0     C69860   3.396   7.300   0.916 -0.2777 -0.3023 -0.5498
  518MOL0     C69861   3.423   7.424   0.986  0.6548  0.3340 -0.2223
  518MOL0     C69862   3.333   7.535   0.945  0.5035  0.6571 -0.7565
  518MOL0     H69863   3.940   7.602   1.184 -3.9859 -0.6287 -0.8543
  518MOL0     H69864   4.050   7.784   1.334  0.3846 -0.8085 -2.9867
  518MOL0     H69865   3.848   8.034   1.654 -0.8568 -0.9138 -0.1582
  518MOL0     H69866   3.875   7.884   1.709  1.2609 -1.1076 -0.9338
  518MOL0     H69867   4.018   8.010   1.831 -2.0055  1.5103 -0.6922
  518MOL0     H69868   4.076   8.104   1.695 -0.3334  0.0047 -1.1669
  518MOL0     H69869   4.266   7.956   1.716  0.0678 -2.0109  1.5976
  518MOL0     H69870   4.162   7.873   1.601 -1.0009  2.6224 -0.4066
  518MOL0     H69871   4.179   7.839   1.905 -3.9205  1.6963 -0.0170
  518MOL0     H69872   4.060   7.747   1.805 -0.2651  0.9466 -2.5956
  518MOL0     H69873   4.364   7.717   1.777 -0.2079 -1.2855 -1.1299
  518MOL0     H69874   4.253   7.603   1.856  0.5622  0.5879  1.8263
  518MOL0     H69875   4.130   7.593   1.622 -0.3449 -1.9535  2.4362
  518MOL0     H69876   4.273   7.688   1.563 -0.7687  0.9536  0.6163
  518MOL0     H69877   4.417   7.505   1.662 -0.6716  0.6851  2.1218
  518MOL0     H69878   4.332   7.484   1.501 -2.3409  2.0911 -0.3548
  518MOL0     H69879   4.335   7.277   1.652 -1.4748 -2.1275 -1.9735
  518MOL0     H69880   4.207   7.362   1.745 -0.1366  0.3232  0.2615
  518MOL0     H69881   3.970   7.430   1.569 -0.7489 -0.1419 -0.9852
  518MOL0     H69882   3.791   7.362   1.404 -0.2631  0.1055  0.6099
  518MOL0     H69883   3.841   7.241   1.274  0.0759  3.1825 -0.9966
  518MOL0     H69884   3.821   7.064   1.457  1.8134  1.3117  0.1980
  518MOL0     H69885   3.776   7.187   1.564  1.3278 -1.8753 -0.3662
  518MOL0     H69886   3.630   7.071   1.318  1.6364 -0.2802 -0.1351
  518MOL0     H69887   3.573   7.220   1.396 -1.2589 -0.6666  0.2923
  518MOL0     H69888   3.586   7.080   1.612 -0.2472  0.8345 -0.0661
  518MOL0     H69889   3.571   6.940   1.503 -1.9705 -0.7815  1.0176
  518MOL0     H69890   3.476   6.880   1.348  0.2847  3.3252 -0.9085
  518MOL0     H69891   3.334   6.740   1.211 -1.1783  0.2717 -1.0995
  518MOL0     H69892   3.106   6.393   1.111  0.2061  1.6255  0.5438
  518MOL0     H69893   2.983   6.268   0.935  1.3117  0.7046 -0.5822
  518MOL0     H69894   3.027   6.312   0.697 -0.9028  3.5343  1.5379
  518MOL0     H69895   2.908   6.194   0.746 -1.6768  1.1555  0.0036
  518MOL0     H69896   2.927   6.357   0.476  1.3532  2.1626  2.8258
  518MOL0     H69897   2.927   6.189   0.471 -0.1077 -0.0887 -0.7685
  518MOL0     H69898   2.701   6.169   0.566 -0.1108 -1.1365 -0.8883
  518MOL0     H69899   2.668   6.342   0.531  3.8181  2.6748  0.0116
  518MOL0     H69900   2.760   6.145   0.316  0.3878  0.7291 -2.5678
  518MOL0     H69901   2.725   6.320   0.299 -0.0372 -0.4788 -0.8710
  518MOL0     H69902   2.481   6.276   0.350 -1.4312 -0.5512 -2.6352
  518MOL0     H69903   2.521   6.126   0.411  2.9177 -0.1407  1.2447
  518MOL0     H69904   2.378   6.113   0.218 -0.0334 -0.9559  0.3778
  518MOL0     H69905   2.480   6.222   0.127 -0.0675  0.4302  1.7224
  518MOL0     H69906   2.646   6.048   0.079  0.5600  2.7025  0.3733
  518MOL0     H69907   2.482   5.989   0.057 -2.8804  1.1481  1.0748
  518MOL0     H69908   2.651   5.928   0.312  1.3090 -2.3571  0.0999
  518MOL0     H69909   2.490   5.865   0.280 -0.0677  0.1842 -0.3527
  518MOL0     H69910   2.863   6.629   0.750  0.0620  0.3534  0.1456
  518MOL0     H69911   2.986   6.757   0.928  2.4477 -0.6821 -2.1622
  518MOL0     H69912   2.999   7.003   1.331 -0.8355  0.7637 -3.4121
  518MOL0     H69913   3.149   7.108   1.486  0.6539  1.2482 -0.4292
  518MOL0     H69914   3.688   7.854   1.544  1.6172  1.7462 -0.9113
  518MOL0     H69915   3.579   7.700   1.413  0.6777  1.5018  1.4786
  518MOL0     H69916   3.670   7.300   1.188  0.8587 -2.2092 -0.4232
  518MOL0     H69917   3.620   7.093   1.064 -0.2718  0.1125  1.1195
  518MOL0     H69918   3.277   7.040   0.772  3.3367  2.8434 -1.0601
  518MOL0     H69919   3.239   7.111   0.925  0.8372 -0.5906  1.2563
  518MOL0     H69920   3.144   6.894   0.948 -0.7574  1.0690 -1.7771
  518MOL0     H69921   3.311   6.867   1.017  1.8197  0.2895 -1.2699
  518MOL0     H69922   3.247   6.670   0.850  0.2054 -1.6296 -2.1434
  518MOL0     H69923   3.393   6.765   0.837  0.0379 -3.1707  1.6269
  518MOL0     H69924   3.136   6.851   0.703 -0.3192  0.9961 -0.7715
  518MOL0     H69925   3.308   6.863   0.640 -0.2285 -3.0000 -1.7291
  518MOL0     H69926   3.158   6.499   0.487  0.6429  1.2339 -0.5163
  518MOL0     H69927   3.328   7.292   0.832 -0.3830  0.5305 -0.5552
  518MOL0     H69928   3.409   7.603   0.906  1.3284  0.5609  0.6171
  518MOL0     H69929   3.267   7.500   0.865  0.5123 -0.1765 -0.4104
  518MOL0     H69930   3.278   7.559   1.037  2.6901 -1.0002  1.0921
  519MOL0     O69931   8.454   2.310   6.209  0.2713  0.4136 -0.7672
  519MOL0     C69932   8.383   2.255   6.286  0.0497 -0.9117  0.0481
  519MOL0     O69933   8.414   2.226   6.420  0.0937 -0.1879  0.3286
  519MOL0     C69934   8.530   2.279   6.461 -1.5205 -0.3268  0.3868
  519MOL0     C69935   8.529   2.389   6.542  0.3089  0.6885 -0.5970
  519MOL0     C69936   8.644   2.446   6.604  0.0028 -0.3531  0.3887
  519MOL0     C69937   8.764   2.360   6.596 -0.8783 -0.9342 -0.1952
  519MOL0     O69938   8.880   2.372   6.666 -0.1489 -0.2721  0.3117
  519MOL0     C69939   8.911   2.487   6.739  0.6510 -0.4188  0.2496
  519MOL0     C69940   9.022   2.480   6.837 -1.1111  0.0384  0.1867
  519MOL0     C69941   9.025   2.605   6.910  0.1861 -0.2522 -0.8040
  519MOL0     C69942   9.135   2.596   7.012 -0.1361  0.1418 -0.1772
  519MOL0     C69943   9.140   2.725   7.084 -0.6128 -0.6752 -0.0386
  519MOL0     C69944   9.257   2.737   7.180  0.4604 -0.4304  0.3831
  519MOL0     C69945   9.392   2.767   7.103 -0.1655  0.3143  0.4220
  519MOL0     C69946   9.498   2.728   7.205  0.1229  0.7635  0.2986
  519MOL0     N69947   9.638   2.747   7.166 -0.6915  1.1532  0.1057
  519MOL0     C69948   9.715   2.690   7.059  0.1721 -0.1301 -1.1744
  519MOL0     C69949   9.846   2.705   7.094  1.1916  0.1560 -0.4998
  519MOL0     C69950   9.954   2.641   6.998 -0.2814 -0.0978 -0.0492
  519MOL0     C69951  10.084   2.718   6.972 -0.8529  0.0641  0.7459
  519MOL0     C69952  10.075   2.851   6.882  0.4553 -0.3690 -0.7106
  519MOL0     C69953  10.141   2.983   6.915 -0.5538  0.6912 -0.1667
  519MOL0     O69954  10.281   2.968   6.898 -0.2820  0.2553  0.1413
  519MOL0     C69955  10.357   3.084   6.924 -0.3585  0.4014  0.2912
  519MOL0     C69956  10.307   3.210   6.967  1.4067 -0.3591  0.4308
  519MOL0     C69957  10.388   3.322   6.975  0.0067  0.1935 -0.1778
  519MOL0     C69958  10.521   3.324   6.940 -0.9098  0.2855 -0.0132
  519MOL0     C69959  10.605   3.451   6.932  0.0298  0.2992 -0.7153
  519MOL0     O69960  10.734   3.447   6.886  0.0513 -0.5200  0.2387
  519MOL0     C69961  10.813   3.558   6.873 -0.2332  0.7445  0.3508
  519MOL0     C69962  10.914   3.541   6.780  1.0567 -0.1850  0.3582
  519MOL0     C69963  11.008   3.642   6.772 -0.3214 -0.6351  0.3266
  519MOL0     C69964  11.002   3.758   6.854 -0.5084  0.5332  0.7664
  519MOL0     O69965  11.101   3.840   6.826  0.4482 -0.0248  0.4865
  519MOL0     C69966  11.090   3.974   6.865 -0.0690 -0.4525 -0.4691
  519MOL0     C69967  11.206   4.050   6.789 -0.4479  0.2447  0.5131
  519MOL0     C69968  11.332   4.023   6.867 -0.4151 -0.0292  0.5833
  519MOL0     C69969  11.453   4.071   6.798 -0.5326  0.2347  0.1255
  519MOL0     C69970  11.575   4.077   6.887 -0.4158 -0.1283 -0.5585
  519MOL0     C69971  11.696   4.119   6.804 -0.0121  1.1618 -1.1995
  519MOL0     C69972  11.717   4.075   6.660  0.5833  0.5825  0.2599
  519MOL0     C69973  11.841   4.127   6.598 -0.0340  0.3948  0.0126
  519MOL0    Cl69974  11.828   4.301   6.586  0.5849  0.1711 -0.1055
  519MOL0     C69975  10.902   3.771   6.949 -0.3194 -1.2025 -0.2450
  519MOL0     C69976  10.807   3.668   6.961  0.6369  0.4615  1.0424
  519MOL0     O69977  10.546   3.547   6.968 -0.2671 -0.1997 -0.0060
  519MOL0     C69978  10.580   3.198   6.913  0.6802 -0.1286 -0.3632
  519MOL0     C69979  10.498   3.079   6.903 -0.0969 -0.8096 -0.9600
  519MOL0     N69980   9.848   2.781   7.206  0.2611  0.8969  0.2234
  519MOL0     N69981   9.729   2.806   7.243 -0.3216 -0.3140  0.0145
  519MOL0     C69982   8.768   2.257   6.504  0.1122  0.3617 -0.3483
  519MOL0     C69983   8.651   2.216   6.431 -0.2750 -0.1142 -0.4375
  519MOL0     C69984   8.260   2.202   6.232  0.2110  0.1883 -0.4514
  519MOL0     C69985   8.235   2.071   6.258  0.5709 -0.0621  0.4302
  519MOL0     C69986   8.101   2.027   6.251  0.3709 -0.1709  0.9622
  519MOL0     C69987   8.005   2.104   6.186  0.6156  0.2372 -0.2633
  519MOL0     O69988   7.881   2.040   6.161  0.1933  1.1484  0.1248
  519MOL0     C69989   7.772   2.119   6.122  1.1092  0.1444  0.0995
  519MOL0     C69990   7.738   2.100   5.977  0.1236  0.4643 -0.3180
  519MOL0     C69991   7.610   2.175   5.950 -0.7637  0.4552 -0.4276
  519MOL0     C69992   7.552   2.124   5.816 -0.0729  0.1451 -0.7935
  519MOL0     C69993   7.429   2.194   5.802 -0.3285 -0.8535  0.3309
  519MOL0     C69994   7.323   2.255   5.787  0.3469  0.1209 -0.1491
  519MOL0     C69995   8.036   2.234   6.144  0.1907 -0.0832 -0.1432
  519MOL0     C69996   8.164   2.282   6.165  0.1878  0.2175 -0.3581
  519MOL0     C69997   8.185   2.428   6.133 -1.0859 -0.0749  0.4779
  519MOL0     H69998   8.432   2.436   6.556 -0.0445  0.1975 -1.3638
  519MOL0     H69999   8.648   2.535   6.666  3.5132 -0.9138  1.1870
  519MOL0     H70000   8.913   2.579   6.678  2.3758 -0.2377  0.5151
  519MOL0     H70001   8.828   2.500   6.808 -0.6995 -1.3577 -1.1231
  519MOL0     H70002   9.119   2.474   6.787 -0.5786  0.0592  1.1869
  519MOL0     H70003   9.002   2.389   6.893  0.1463 -1.3912 -1.5662
  519MOL0     H70004   8.929   2.620   6.962  0.9426  0.6410  0.4018
  519MOL0     H70005   9.043   2.697   6.853 -1.7713 -0.4050 -1.7745
  519MOL0     H70006   9.112   2.516   7.084 -1.5472  0.4611 -0.2412
  519MOL0     H70007   9.232   2.577   6.966 -0.1937  2.0191 -1.1475
  519MOL0     H70008   9.147   2.811   7.017  0.5459 -1.0169 -0.3931
  519MOL0     H70009   9.048   2.717   7.143  0.5988 -2.8557  1.7622
  519MOL0     H70010   9.239   2.805   7.264 -0.9662 -1.4296  0.9326
  519MOL0     H70011   9.268   2.640   7.231 -0.2991 -0.2090  0.9885
  519MOL0     H70012   9.405   2.873   7.079  0.5415 -0.0946 -1.2202
  519MOL0     H70013   9.406   2.712   7.009 -0.4360 -2.6501  1.9828
  519MOL0     H70014   9.474   2.782   7.297  0.6955 -0.8849  1.4729
  519MOL0     H70015   9.476   2.623   7.228  1.0972  0.0734 -1.6834
  519MOL0     H70016   9.665   2.640   6.976 -1.1070 -0.4867 -0.2266
  519MOL0     H70017   9.985   2.543   7.036 -0.9803 -0.3540 -0.1129
  519MOL0     H70018   9.903   2.615   6.904  0.9184 -0.0225 -0.7486
  519MOL0     H70019  10.136   2.742   7.065  0.6967  1.2604 -0.3802
  519MOL0     H70020  10.141   2.645   6.913 -0.1588  0.4748  0.8963
  519MOL0     H70021   9.970   2.881   6.884  1.0032  2.1351 -3.0545
  519MOL0     H70022  10.079   2.838   6.774 -1.9681  2.5309 -1.2866
  519MOL0     H70023  10.121   3.008   7.019  0.3217 -1.5851  0.5946
  519MOL0     H70024  10.100   3.062   6.851 -0.8395 -0.2975 -1.2253
  519MOL0     H70025  10.200   3.224   6.979  0.8600 -1.0343 -2.6424
  519MOL0     H70026  10.333   3.413   6.999 -2.2001 -0.5576 -2.0429
  519MOL0     H70027  10.915   3.452   6.718  2.0568 -0.6300  0.9828
  519MOL0     H70028  11.089   3.638   6.700 -1.3730 -1.5229 -0.8588
  519MOL0     H70029  10.998   4.024   6.834  1.1453  0.4956 -2.7516
  519MOL0     H70030  11.097   3.988   6.973 -0.6203 -2.4189 -0.1242
  519MOL0     H70031  11.224   4.012   6.688  0.9172 -0.4624  0.9906
  519MOL0     H70032  11.196   4.158   6.792 -0.0840  0.2737  3.0076
  519MOL0     H70033  11.320   4.075   6.963 -2.1299  0.7370 -0.0239
  519MOL0     H70034  11.345   3.914   6.874 -1.1758 -0.2681 -1.1845
  519MOL0     H70035  11.433   4.170   6.756 -3.7326  0.1929  1.3510
  519MOL0     H70036  11.467   3.998   6.717  1.1226  0.6187  0.0165
  519MOL0     H70037  11.582   3.981   6.940 -1.3652 -0.3979 -0.9000
  519MOL0     H70038  11.557   4.143   6.971 -0.6088 -1.0825  0.1708
  519MOL0     H70039  11.685   4.228   6.795 -0.5983  1.3808  1.2347
  519MOL0     H70040  11.787   4.096   6.861 -0.7912 -0.2114 -0.4589
  519MOL0     H70041  11.636   4.103   6.593  0.2713 -0.8612  0.0095
  519MOL0     H70042  11.722   3.966   6.661 -1.8693  0.3576  3.5798
  519MOL0     H70043  11.933   4.109   6.655 -0.1799 -1.3859 -0.2453
  519MOL0     H70044  11.857   4.095   6.495  0.9184  1.8101 -0.3113
  519MOL0     H70045  10.877   3.861   7.004  1.9752 -0.4599 -0.3385
  519MOL0     H70046  10.734   3.672   7.041  1.3042 -0.3936  1.7258
  519MOL0     H70047  10.686   3.186   6.892  1.0740 -0.0038  1.3793
  519MOL0     H70048  10.550   2.993   6.860  0.4565 -0.8688 -0.1789
  519MOL0     H70049   8.863   2.206   6.487 -1.8755 -3.7806 -0.3072
  519MOL0     H70050   8.649   2.136   6.357  1.9115  0.0825 -0.7742
  519MOL0     H70051   8.296   2.001   6.315  0.6045  0.4263  1.0024
  519MOL0     H70052   8.082   1.926   6.285 -0.7039  0.2100  1.5336
  519MOL0     H70053   7.790   2.224   6.143  1.3840 -0.5145  3.8781
  519MOL0     H70054   7.692   2.083   6.188  0.8646 -1.1203 -0.8367
  519MOL0     H70055   7.727   1.993   5.956  2.3582 -0.9943  4.4981
  519MOL0     H70056   7.813   2.143   5.909 -0.8748  1.1907 -0.9834
  519MOL0     H70057   7.637   2.280   5.933 -0.0375  0.0312 -2.0527
  519MOL0     H70058   7.545   2.175   6.038 -1.0150  2.2624 -0.5673
  519MOL0     H70059   7.625   2.148   5.738  2.4076  2.8905  2.1370
  519MOL0     H70060   7.524   2.018   5.820 -3.8250  1.0196  1.6640
  519MOL0     H70061   7.236   2.317   5.779 -0.1713 -0.5783 -0.0114
  519MOL0     H70062   7.967   2.292   6.084 -3.0633 -3.0980  0.3733
  519MOL0     H70063   8.097   2.492   6.124 -0.6676  0.3483 -0.7838
  519MOL0     H70064   8.245   2.464   6.217 -0.1304 -3.2036  1.2905
  519MOL0     H70065   8.251   2.432   6.045 -1.0581  0.1811  0.5107
  520MOL0     O70066   7.853   6.085  10.138  0.0372 -0.0938 -0.4734
  520MOL0     C70067   7.861   6.118  10.254  0.7808 -1.1830 -0.5586
  520MOL0     O70068   7.911   6.231  10.298 -0.5356  0.0022  0.0378
  520MOL0     C70069   7.981   6.321  10.214 -1.8290 -0.3910  0.4526
  520MOL0     C70070   8.114   6.306  10.212 -0.4142 -0.3561  1.0823
  520MOL0     C70071   8.186   6.394  10.124 -0.1681 -0.5555  0.0837
  520MOL0     C70072   8.126   6.487  10.037 -0.8699 -0.0805 -0.6830
  520MOL0     O70073   8.210   6.562   9.953 -0.0890 -0.5850  0.3132
  520MOL0     C70074   8.149   6.636   9.844 -0.1350 -0.2667 -0.2836
  520MOL0     C70075   8.113   6.554   9.717  0.2528  0.2141  0.5320
  520MOL0     C70076   8.225   6.470   9.670  0.3365 -0.1359  0.5695
  520MOL0     C70077   8.357   6.549   9.624  0.1156  0.0079  0.4772
  520MOL0     C70078   8.489   6.510   9.706 -0.6072 -0.4405  0.6802
  520MOL0     C70079   8.535   6.367   9.687  0.2379 -0.6436  1.2857
  520MOL0     C70080   8.657   6.317   9.777 -1.0145  0.7217 -0.2852
  520MOL0     C70081   8.624   6.301   9.925 -0.1711  0.2552  1.1213
  520MOL0     N70082   8.724   6.215   9.994  0.1579 -0.6411  0.3718
  520MOL0     C70083   8.715   6.083  10.015 -0.2226  0.6384  0.1896
  520MOL0     C70084   8.829   6.049  10.081  0.0756  0.1680 -0.5763
  520MOL0     C70085   8.882   5.915  10.136 -0.9947 -0.6918  0.2249
  520MOL0     C70086   9.023   5.893  10.062 -0.2059 -0.6746  0.0520
  520MOL0     C70087   9.092   5.765  10.110 -0.6539 -0.0751 -0.1080
  520MOL0     C70088   9.244   5.745  10.065  0.0922 -0.0580 -0.0011
  520MOL0     O70089   9.326   5.851  10.106 -0.1966 -0.5062  0.2253
  520MOL0     C70090   9.457   5.843  10.067  0.1730  0.8408 -0.1905
  520MOL0     C70091   9.550   5.923  10.129  0.3333  0.3871  0.1780
  520MOL0     C70092   9.689   5.902  10.118 -0.4851 -0.8587 -0.8370
  520MOL0     C70093   9.737   5.812  10.027 -0.1813 -0.0632  0.3981
  520MOL0     C70094   9.875   5.814   9.989  0.7456  0.3757 -0.0453
  520MOL0     O70095   9.918   5.714   9.907  0.0762 -0.0636  0.0643
  520MOL0     C70096  10.045   5.703   9.863 -0.3911 -0.5362 -0.3787
  520MOL0     C70097  10.060   5.707   9.728 -1.4746 -0.4369 -0.9588
  520MOL0     C70098  10.184   5.697   9.670 -0.4798 -0.1550 -0.0399
  520MOL0     C70099  10.297   5.704   9.744 -0.3376 -0.8977 -0.7967
  520MOL0     O70100  10.419   5.723   9.695  0.2062 -0.7505 -0.4269
  520MOL0     C70101  10.455   5.642   9.587 -0.8040  0.3486  0.9692
  520MOL0     C70102  10.609   5.667   9.558  0.0082 -0.1117 -0.2650
  520MOL0     C70103  10.662   5.572   9.453  0.9847  0.3695  0.2143
  520MOL0     C70104  10.705   5.433   9.504 -0.4943  0.5415  0.7230
  520MOL0     C70105  10.798   5.347   9.425  0.7094 -0.4429  0.1357
  520MOL0     C70106  10.937   5.410   9.401  0.5425 -0.6152  0.3082
  520MOL0     C70107  10.960   5.493   9.278  0.3998  0.1137  0.1632
  520MOL0     C70108  10.909   5.439   9.143  0.3499  0.1903 -0.4712
  520MOL0    Cl70109  10.918   5.572   9.018  0.4582  0.0541 -0.4609
  520MOL0     C70110  10.285   5.681   9.882 -1.2913 -0.5995 -0.2521
  520MOL0     C70111  10.162   5.686   9.945 -0.2443 -0.0851 -0.6662
  520MOL0     O70112   9.940   5.909  10.029  0.0853  0.0081 -0.5593
  520MOL0     C70113   9.645   5.744   9.945 -0.8035 -0.9904 -0.1508
  520MOL0     C70114   9.505   5.756   9.968  0.2923 -0.2760 -0.4174
  520MOL0     N70115   8.903   6.165  10.099  0.1672  0.0582 -0.2243
  520MOL0     N70116   8.844   6.264  10.046  0.3468 -0.2764  0.2086
  520MOL0     C70117   7.984   6.496  10.037  0.1431 -0.3753 -0.0934
  520MOL0     C70118   7.913   6.414  10.128  0.4043  0.3809  0.6081
  520MOL0     C70119   7.796   6.031  10.354  0.2722  0.4515  0.1788
  520MOL0     C70120   7.774   6.084  10.486  0.0373  0.2113 -0.1038
  520MOL0     C70121   7.694   6.015  10.581 -0.0790  0.1181 -1.0917
  520MOL0     C70122   7.647   5.891  10.542 -0.0105  0.8538 -0.8684
  520MOL0     O70123   7.590   5.827  10.650  0.0960  0.3433  0.8417
  520MOL0     C70124   7.521   5.706  10.635  1.0034  0.6028 -0.1100
  520MOL0     C70125   7.471   5.670  10.772  0.1982 -0.8106 -0.1533
  520MOL0     C70126   7.336   5.728  10.805 -0.9019  0.7718  1.0177
  520MOL0     C70127   7.286   5.705  10.951  0.6638  0.1972  0.2749
  520MOL0     C70128   7.251   5.568  10.976  0.3155  0.4122 -0.4994
  520MOL0     C70129   7.209   5.459  10.985 -0.3102  0.8388 -0.0096
  520MOL0     C70130   7.671   5.831  10.421 -0.0034  0.4498 -0.1397
  520MOL0     C70131   7.747   5.899  10.323 -0.3561 -0.7728  0.1536
  520MOL0     C70132   7.766   5.823  10.182  0.0706 -0.4184 -0.3055
  520MOL0     H70133   8.161   6.230  10.274  2.0011 -0.8342 -1.1209
  520MOL0     H70134   8.294   6.381  10.116 -0.0847 -1.7297  2.4342
  520MOL0     H70135   8.071   6.704   9.881  2.2172  3.0079 -0.9439
  520MOL0     H70136   8.237   6.692   9.814  2.6174 -2.3444  3.0400
  520MOL0     H70137   8.085   6.625   9.639 -0.9905 -1.1674 -0.3458
  520MOL0     H70138   8.026   6.491   9.740  0.4280  0.2879  1.4071
  520MOL0     H70139   8.204   6.403   9.587  1.2272  0.6281 -0.2944
  520MOL0     H70140   8.243   6.404   9.756  0.2546  2.1446  2.4146
  520MOL0     H70141   8.368   6.536   9.516  0.1948 -2.8386  0.7334
  520MOL0     H70142   8.340   6.655   9.645  1.7746  0.4689 -0.3592
  520MOL0     H70143   8.583   6.558   9.679  1.5919 -3.2731  2.6713
  520MOL0     H70144   8.468   6.535   9.811  0.8246  2.1283  0.4421
  520MOL0     H70145   8.449   6.301   9.700 -1.5074  1.1378 -0.5588
  520MOL0     H70146   8.559   6.348   9.582 -1.9617  0.9569  0.4218
  520MOL0     H70147   8.739   6.389   9.766 -0.8395  0.7114  0.7940
  520MOL0     H70148   8.691   6.226   9.728 -1.0722 -1.5307  3.4287
  520MOL0     H70149   8.611   6.399   9.973 -1.0365 -0.0197  1.4639
  520MOL0     H70150   8.526   6.253   9.934 -0.3253  0.8351  3.0998
  520MOL0     H70151   8.630   6.023   9.985  0.5880 -1.0992  1.2079
  520MOL0     H70152   8.901   5.904  10.244 -3.3109 -0.6795  0.6739
  520MOL0     H70153   8.812   5.836  10.110 -1.8070  0.4290 -1.1346
  520MOL0     H70154   9.002   5.883   9.955 -0.6394  2.1384 -0.2027
  520MOL0     H70155   9.086   5.978  10.090  3.2593 -3.5280  1.8086
  520MOL0     H70156   9.035   5.681  10.070 -2.4408  0.3606  1.3921
  520MOL0     H70157   9.088   5.756  10.219  1.6535  1.4192  0.1761
  520MOL0     H70158   9.245   5.748   9.956 -3.8917  2.1035 -0.1593
  520MOL0     H70159   9.284   5.653  10.109  2.5229  0.5394 -0.7896
  520MOL0     H70160   9.506   6.003  10.188 -2.1502 -0.5280 -0.3125
  520MOL0     H70161   9.738   5.974  10.182  0.1518 -0.5713 -1.6197
  520MOL0     H70162   9.981   5.744   9.663  0.0013  1.7853 -1.6018
  520MOL0     H70163  10.196   5.711   9.563  1.2468 -2.4770 -0.2332
  520MOL0     H70164  10.443   5.535   9.609 -0.1463  0.4651  1.9657
  520MOL0     H70165  10.398   5.664   9.496 -3.2831  2.9424  2.9597
  520MOL0     H70166  10.623   5.770   9.523 -0.5149 -0.0782 -0.3824
  520MOL0     H70167  10.669   5.663   9.650 -1.0603 -1.3712  0.4152
  520MOL0     H70168  10.581   5.563   9.381  1.4826 -0.1326 -0.2906
  520MOL0     H70169  10.752   5.612   9.404  0.6188  0.7063 -0.1971
  520MOL0     H70170  10.610   5.380   9.511  0.7327 -2.4398 -2.3374
  520MOL0     H70171  10.751   5.428   9.603  2.7588  0.1977 -0.6833
  520MOL0     H70172  10.747   5.306   9.337 -0.1438  2.5684 -0.9076
  520MOL0     H70173  10.799   5.263   9.494 -0.2110  1.6695  2.9004
  520MOL0     H70174  10.964   5.467   9.490  1.5103  1.6049 -1.3373
  520MOL0     H70175  10.997   5.318   9.400 -1.1692 -1.8074  0.9018
  520MOL0     H70176  11.069   5.500   9.280  0.3687  0.5221  0.6979
  520MOL0     H70177  10.920   5.595   9.283 -0.0682 -0.0110 -0.8674
  520MOL0     H70178  10.948   5.342   9.112 -3.7521 -1.2974 -1.6043
  520MOL0     H70179  10.801   5.424   9.152  0.1405  0.6098 -2.0334
  520MOL0     H70180  10.376   5.672   9.940 -1.3819  1.6511  0.2983
  520MOL0     H70181  10.137   5.685  10.051  3.2897 -2.3591  0.3267
  520MOL0     H70182   9.682   5.677   9.868  3.1833  0.0368  0.6505
  520MOL0     H70183   9.439   5.697   9.905  1.8912 -0.8174 -1.6541
  520MOL0     H70184   7.932   6.573   9.982  4.5577  2.4590 -0.8111
  520MOL0     H70185   7.807   6.425  10.148  0.5430  0.2327  1.4769
  520MOL0     H70186   7.815   6.183  10.504  0.2927  0.2907 -1.0497
  520MOL0     H70187   7.675   6.058  10.679  4.1637  0.8944 -0.4364
  520MOL0     H70188   7.594   5.635  10.594  2.5107  2.5407 -0.9084
  520MOL0     H70189   7.430   5.714  10.574  1.0180 -1.1804 -0.4357
  520MOL0     H70190   7.550   5.695  10.843  2.4499 -0.9799 -2.4570
  520MOL0     H70191   7.475   5.561  10.768  2.5225 -0.7415 -2.2006
  520MOL0     H70192   7.256   5.689  10.742  2.5632 -1.0918 -2.7338
  520MOL0     H70193   7.343   5.836  10.786  1.8389  0.2223 -2.1756
  520MOL0     H70194   7.363   5.733  11.024  2.1050 -1.6308 -0.4284
  520MOL0     H70195   7.203   5.774  10.968 -0.3173 -0.6284 -0.9278
  520MOL0     H70196   7.172   5.359  11.000  0.6835  0.1108 -2.0019
  520MOL0     H70197   7.623   5.738  10.393  0.8076 -0.0252  0.0389
  520MOL0     H70198   7.762   5.714  10.195  2.7876 -0.4126  1.2671
  520MOL0     H70199   7.689   5.855  10.112 -0.2014  1.4427  0.7875
  520MOL0     H70200   7.859   5.838  10.126 -0.1311  0.6805 -0.3691
  521MOL0     O70201   9.533   9.087   4.761  0.6305  0.2100 -0.1212
  521MOL0     C70202   9.459   9.179   4.798 -0.5128 -0.2655  0.7987
  521MOL0     O70203   9.465   9.316   4.767  0.5545  0.4965 -1.1422
  521MOL0     C70204   9.579   9.368   4.706  0.1368 -1.3480 -0.1562
  521MOL0     C70205   9.715   9.348   4.742 -0.2889  0.0254  0.0447
  521MOL0     C70206   9.820   9.388   4.656  0.2748  0.4603 -0.1049
  521MOL0     C70207   9.800   9.470   4.546  0.1663  0.0570  0.2741
  521MOL0     O70208   9.913   9.525   4.474  0.2966  0.6554 -0.1654
  521MOL0     C70209   9.901   9.618   4.363  0.8982 -0.1420 -0.7206
  521MOL0     C70210  10.022   9.640   4.271  1.2199  0.4350  0.5920
  521MOL0     C70211  10.146   9.671   4.357 -0.1070 -0.4798 -0.3808
  521MOL0     C70212  10.270   9.665   4.265 -0.2475  0.0115 -0.0964
  521MOL0     C70213  10.396   9.694   4.348 -0.5019 -1.1447 -0.3242
  521MOL0     C70214  10.527   9.697   4.257 -0.2243  0.1261  0.2689
  521MOL0     C70215  10.648   9.700   4.347 -0.6312  0.4163 -0.4307
  521MOL0     C70216  10.758   9.767   4.270  0.2305 -0.8600 -0.0629
  521MOL0     N70217  10.898   9.739   4.335  0.3037  0.6522  0.0922
  521MOL0     C70218  10.949   9.613   4.366 -0.1470 -0.5466 -0.3280
  521MOL0     C70219  11.073   9.642   4.429  0.1079 -0.2406  0.3193
  521MOL0     C70220  11.170   9.556   4.494 -0.1269 -0.0178 -0.7562
  521MOL0     C70221  11.202   9.420   4.435  0.0674  0.3958  0.5618
  521MOL0     C70222  11.325   9.357   4.499 -0.4285  0.0391  0.4484
  521MOL0     C70223  11.462   9.411   4.452 -0.6209 -0.2511  0.4311
  521MOL0     O70224  11.562   9.306   4.465 -0.2906  0.0159  0.0287
  521MOL0     C70225  11.694   9.346   4.461 -0.2888  0.1069  0.5387
  521MOL0     C70226  11.788   9.248   4.471  0.2134 -0.4348 -0.4907
  521MOL0     C70227  11.928   9.281   4.467  1.1161  0.5800  0.7872
  521MOL0     C70228  11.963   9.417   4.443 -0.4682  0.7411 -0.6203
  521MOL0     C70229  12.107   9.449   4.436  0.8166 -0.9490 -0.3925
  521MOL0     O70230  12.191   9.352   4.479  0.1407  0.6715  0.2238
  521MOL0     C70231  12.326   9.349   4.457  0.2250  0.2289  0.5567
  521MOL0     C70232  12.392   9.248   4.525  0.2028  0.0051 -1.1046
  521MOL0     C70233  12.529   9.239   4.528  0.4892  0.1022 -0.4723
  521MOL0     C70234  12.607   9.329   4.452 -0.0030 -0.8396  0.5403
  521MOL0     O70235  12.745   9.312   4.467  0.1236  0.1208  0.1696
  521MOL0     C70236  12.832   9.400   4.394 -0.4159  0.4058  0.4112
  521MOL0     C70237  12.973   9.338   4.389 -0.2503 -0.4737  0.0923
  521MOL0     C70238  13.030   9.329   4.529  0.1366  0.1774 -1.1944
  521MOL0     C70239  13.177   9.287   4.518  0.7200  0.4649 -0.3745
  521MOL0     C70240  13.236   9.277   4.661  0.9339  0.5763 -0.4484
  521MOL0     C70241  13.392   9.249   4.658 -0.2978 -0.1422 -0.7345
  521MOL0     C70242  13.440   9.208   4.798 -0.1853 -0.3256 -0.9905
  521MOL0     C70243  13.409   9.315   4.898 -0.8517 -0.7392  0.6655
  521MOL0    Cl70244  13.496   9.287   5.058 -0.1670  0.2228  0.0498
  521MOL0     C70245  12.541   9.432   4.371 -1.0127  0.6723  0.2838
  521MOL0     C70246  12.398   9.436   4.374 -0.4324 -0.4263 -0.1501
  521MOL0     O70247  12.136   9.567   4.420 -0.4722 -0.3074  1.1314
  521MOL0     C70248  11.868   9.511   4.424 -0.2710  0.0049 -0.0256
  521MOL0     C70249  11.729   9.485   4.444 -0.8836  0.5943  0.6347
  521MOL0     N70250  11.084   9.779   4.450  0.4627  0.6338  0.9165
  521MOL0     N70251  10.983   9.839   4.387 -0.2381  0.2476 -1.1521
  521MOL0     C70252   9.667   9.498   4.511 -0.9962  0.6270  0.7700
  521MOL0     C70253   9.563   9.441   4.584  0.0748  0.9831 -1.2103
  521MOL0     C70254   9.327   9.135   4.852 -0.1496  0.6904 -0.3108
  521MOL0     C70255   9.216   9.210   4.814 -0.2528  0.1902 -0.7080
  521MOL0     C70256   9.077   9.170   4.826 -0.9436  0.4409  0.4010
  521MOL0     C70257   9.055   9.056   4.902  0.4377 -0.2580 -0.1645
  521MOL0     O70258   8.933   9.019   4.956 -0.0699  0.2005  0.8339
  521MOL0     C70259   8.817   9.093   4.918  0.0731 -0.2102 -0.1010
  521MOL0     C70260   8.697   9.030   4.992 -0.5832  0.5165 -0.4233
  521MOL0     C70261   8.669   8.880   4.952 -0.1219 -0.8279 -0.2535
  521MOL0     C70262   8.621   8.785   5.054  0.3552 -0.5396 -0.5023
  521MOL0     C70263   8.490   8.821   5.093  1.4110 -0.0872  0.4823
  521MOL0     C70264   8.369   8.853   5.112 -1.1498 -0.2124  0.4563
  521MOL0     C70265   9.168   8.987   4.953  0.2429 -0.0415 -0.1470
  521MOL0     C70266   9.301   9.018   4.923  0.3589 -0.2395  0.7674
  521MOL0     C70267   9.407   8.941   4.996 -0.1576 -0.1837 -0.7153
  521MOL0     H70268   9.758   9.299   4.829  4.1332  0.7512 -1.4607
  521MOL0     H70269   9.918   9.347   4.679 -0.9010 -3.2775 -0.9720
  521MOL0     H70270   9.829   9.574   4.293  2.4604 -1.6480 -1.4554
  521MOL0     H70271   9.855   9.712   4.397 -0.4299 -0.3421 -1.8499
  521MOL0     H70272   9.981   9.713   4.201 -2.9750 -0.1878  2.0863
  521MOL0     H70273  10.025   9.546   4.216 -0.5569 -0.9051  2.5976
  521MOL0     H70274  10.161   9.598   4.438 -1.7667 -1.5190 -0.9776
  521MOL0     H70275  10.133   9.769   4.404 -1.0755 -0.1292 -1.3520
  521MOL0     H70276  10.275   9.569   4.213  0.1687  0.7229 -1.4500
  521MOL0     H70277  10.259   9.744   4.189  4.1788  0.3986 -0.6118
  521MOL0     H70278  10.386   9.783   4.410 -1.7100 -0.3218 -1.6307
  521MOL0     H70279  10.403   9.624   4.432 -3.8995  2.3592  3.2956
  521MOL0     H70280  10.510   9.613   4.189 -2.3702  1.6661 -1.2429
  521MOL0     H70281  10.535   9.781   4.187  1.2783 -1.8508 -2.1116
  521MOL0     H70282  10.680   9.600   4.376 -2.1873 -0.5135 -1.7229
  521MOL0     H70283  10.624   9.752   4.440 -0.0104  0.8374 -0.4989
  521MOL0     H70284  10.756   9.726   4.168  1.7641 -1.1775  0.0153
  521MOL0     H70285  10.738   9.874   4.260 -0.9343 -0.9672  0.9656
  521MOL0     H70286  10.908   9.513   4.351  3.1896 -1.6999 -3.3185
  521MOL0     H70287  11.263   9.613   4.489  0.5317 -1.1326 -1.6244
  521MOL0     H70288  11.145   9.544   4.599  2.7571  2.3402  0.3478
  521MOL0     H70289  11.121   9.351   4.461  1.4858 -1.5653 -0.0279
  521MOL0     H70290  11.207   9.430   4.327 -1.7406 -0.2416  0.3800
  521MOL0     H70291  11.310   9.250   4.482  0.2848  0.0656 -0.4303
  521MOL0     H70292  11.317   9.377   4.606  1.1094 -0.5631  0.6978
  521MOL0     H70293  11.490   9.494   4.517  0.5502 -0.3715  0.1037
  521MOL0     H70294  11.454   9.451   4.350 -1.0294  0.2792  0.6637
  521MOL0     H70295  11.766   9.142   4.486  4.1250 -1.2647  0.5580
  521MOL0     H70296  11.996   9.197   4.464  0.7417  0.1855  2.2939
  521MOL0     H70297  12.337   9.176   4.585 -2.1119  2.0523 -0.5995
  521MOL0     H70298  12.582   9.168   4.591 -0.1096 -0.1746 -0.2720
  521MOL0     H70299  12.803   9.397   4.289  0.0473  1.1373  0.2483
  521MOL0     H70300  12.847   9.501   4.434  1.0774  0.7683 -0.9488
  521MOL0     H70301  12.978   9.234   4.355 -0.3318  0.3234 -2.5559
  521MOL0     H70302  13.034   9.406   4.329 -2.1030 -0.1961 -1.5841
  521MOL0     H70303  13.023   9.428   4.576 -2.0071 -0.7490  0.6132
  521MOL0     H70304  12.965   9.260   4.584  1.3496  0.1488  0.2622
  521MOL0     H70305  13.239   9.358   4.462  3.9661 -2.7385 -1.2321
  521MOL0     H70306  13.171   9.194   4.461 -1.9401  1.2814 -1.6102
  521MOL0     H70307  13.179   9.201   4.716  1.1814  0.8364  0.1825
  521MOL0     H70308  13.217   9.377   4.699 -0.0268  0.0897  0.4171
  521MOL0     H70309  13.428   9.172   4.590  2.2059  0.5056 -0.2278
  521MOL0     H70310  13.442   9.340   4.623 -1.0600  0.5019 -0.1753
  521MOL0     H70311  13.546   9.184   4.794 -0.0444  0.3862 -2.4421
  521MOL0     H70312  13.376   9.133   4.844 -2.8754  1.9981 -0.6643
  521MOL0     H70313  13.444   9.412   4.861  1.1078 -1.2554  1.0350
  521MOL0     H70314  13.303   9.322   4.923 -0.7090  4.1934  0.9067
  521MOL0     H70315  12.599   9.487   4.298 -3.4190 -0.1190 -2.4204
  521MOL0     H70316  12.350   9.518   4.322  0.5133 -1.1075 -2.1677
  521MOL0     H70317  11.891   9.616   4.442 -1.3698 -0.2210  3.6412
  521MOL0     H70318  11.665   9.573   4.453  0.6638  1.6203  2.2932
  521MOL0     H70319   9.638   9.566   4.432 -0.3799 -1.7338 -1.5948
  521MOL0     H70320   9.469   9.487   4.557  0.9543  2.3491 -2.0450
  521MOL0     H70321   9.237   9.289   4.743 -1.3714  1.8279  0.6854
  521MOL0     H70322   8.996   9.229   4.784  1.7898  2.8976 -1.9815
  521MOL0     H70323   8.793   9.080   4.812 -0.3612  0.0069 -0.0316
  521MOL0     H70324   8.837   9.199   4.936  2.1023 -0.0743 -2.5584
  521MOL0     H70325   8.614   9.095   4.964 -0.9337 -1.5149 -5.0900
  521MOL0     H70326   8.718   9.032   5.099 -0.8438 -0.8907 -0.3306
  521MOL0     H70327   8.759   8.824   4.925  0.5405 -1.7289  3.3679
  521MOL0     H70328   8.598   8.882   4.868  0.5668  1.5713 -0.8581
  521MOL0     H70329   8.603   8.689   5.004  1.9322  0.2933 -2.8265
  521MOL0     H70330   8.692   8.767   5.135  1.4128  0.8313 -1.0923
  521MOL0     H70331   8.266   8.877   5.123 -1.0061  1.5160 -1.4083
  521MOL0     H70332   9.153   8.914   5.032 -1.5807  0.7042  0.2652
  521MOL0     H70333   9.466   9.012   5.054 -3.2394 -0.3989  3.0715
  521MOL0     H70334   9.357   8.883   5.074  0.8724  1.0664  0.9249
  521MOL0     H70335   9.464   8.896   4.913  0.1428  0.9659 -1.1530
  522MOL0     O70336   1.371   2.449  11.069 -0.0184  0.1624 -0.0494
  522MOL0     C70337   1.291   2.364  11.111 -0.7736 -0.6583 -0.0788
  522MOL0     O70338   1.306   2.224  11.099 -0.1095 -0.4267  0.3446
  522MOL0     C70339   1.432   2.180  11.061  0.7150 -0.4780 -0.4260
  522MOL0     C70340   1.516   2.131  11.162  0.0735  0.6374 -0.5068
  522MOL0     C70341   1.648   2.095  11.147 -0.3942  0.2089 -0.7760
  522MOL0     C70342   1.683   2.100  11.013  0.3785  0.4762  1.1341
  522MOL0     O70343   1.812   2.049  10.989 -0.2407  0.2734  0.2467
  522MOL0     C70344   1.895   2.103  10.878  0.1074  0.3040  0.1817
  522MOL0     C70345   2.045   2.116  10.922  0.0386  1.0553 -0.1209
  522MOL0     C70346   2.139   2.185  10.818 -0.3345 -0.2150 -1.1868
  522MOL0     C70347   2.187   2.136  10.679 -0.6977 -0.4644 -0.2040
  522MOL0     C70348   2.267   2.245  10.610 -0.0496  0.0006  0.9347
  522MOL0     C70349   2.344   2.186  10.493  0.8499 -0.8729  0.2652
  522MOL0     C70350   2.398   2.301  10.402  0.1209  0.0286  0.7797
  522MOL0     C70351   2.505   2.263  10.298  0.1705 -0.2399 -0.2490
  522MOL0     N70352   2.640   2.249  10.352  0.6907 -0.6191  0.6731
  522MOL0     C70353   2.740   2.334  10.321 -0.6798 -0.3959 -1.0833
  522MOL0     C70354   2.852   2.280  10.375  0.0745 -0.2870  0.6543
  522MOL0     C70355   2.995   2.337  10.353 -0.3948 -0.1045  0.4696
  522MOL0     C70356   3.048   2.339  10.207 -0.0736  0.2820  0.2650
  522MOL0     C70357   3.052   2.204  10.145 -0.2059  0.0446  0.2481
  522MOL0     C70358   3.171   2.202  10.050  0.1555  0.1917 -0.5243
  522MOL0     O70359   3.298   2.203  10.110 -0.8724 -0.3240  0.2117
  522MOL0     C70360   3.419   2.224  10.036  0.1204 -0.2927 -0.4114
  522MOL0     C70361   3.430   2.233   9.896  0.4691 -0.5812  0.5773
  522MOL0     C70362   3.557   2.240   9.837  0.6007  0.3442  0.0096
  522MOL0     C70363   3.672   2.224   9.913  0.2409  0.1293  0.1567
  522MOL0     C70364   3.808   2.221   9.852  0.0728 -0.0046 -0.0205
  522MOL0     O70365   3.908   2.255   9.943 -0.2208 -0.1005  0.3577
  522MOL0     C70366   4.036   2.247   9.895  0.4672 -0.8104 -0.1823
  522MOL0     C70367   4.071   2.301   9.768  0.2391  0.8568 -0.9050
  522MOL0     C70368   4.204   2.280   9.721  0.4846 -0.9470 -0.5105
  522MOL0     C70369   4.305   2.211   9.791  0.1401 -1.4314  0.1371
  522MOL0     O70370   4.431   2.214   9.743 -0.4972  0.2338 -0.1632
  522MOL0     C70371   4.504   2.097   9.751 -0.6030  0.1622  0.1284
  522MOL0     C70372   4.611   2.083   9.633  0.3092  0.6603 -0.4361
  522MOL0     C70373   4.719   2.194   9.641 -0.2870 -0.1651  0.4752
  522MOL0     C70374   4.678   2.323   9.574  0.7505  0.3468 -0.0228
  522MOL0     C70375   4.790   2.428   9.572 -0.6695  0.0203  0.3499
  522MOL0     C70376   4.757   2.550   9.486 -0.0396  0.0090  0.1284
  522MOL0     C70377   4.863   2.664   9.494 -0.5064 -0.2184 -0.0319
  522MOL0     C70378   4.971   2.679   9.387 -0.0791  0.3365  0.5814
  522MOL0    Cl70379   4.898   2.685   9.233 -0.0828 -0.0125  0.0660
  522MOL0     C70380   4.265   2.158   9.918 -0.0148 -1.1914 -0.1811
  522MOL0     C70381   4.136   2.179   9.966 -0.6600 -0.6331  0.2142
  522MOL0     O70382   3.811   2.188   9.728  0.4983  0.1428 -0.8088
  522MOL0     C70383   3.665   2.194  10.048 -0.3753 -0.3924 -0.6645
  522MOL0     C70384   3.535   2.203  10.109 -0.9412 -0.6017 -1.1360
  522MOL0     N70385   2.818   2.169  10.440  0.2291 -0.8688  0.2418
  522MOL0     N70386   2.696   2.140  10.422  0.0782 -0.5352  0.4181
  522MOL0     C70387   1.599   2.131  10.904  0.2761  0.3610  0.1847
  522MOL0     C70388   1.470   2.175  10.931 -0.0298 -0.6047  0.4193
  522MOL0     C70389   1.180   2.422  11.188  0.8863 -0.0467 -0.6218
  522MOL0     C70390   1.070   2.340  11.216 -1.8993  0.2163  0.2353
  522MOL0     C70391   0.957   2.381  11.293 -0.7630  0.3919  0.5410
  522MOL0     C70392   0.946   2.512  11.330  0.0278  0.2407  0.3854
  522MOL0     O70393   0.845   2.551  11.417  0.0511  0.0318  0.2373
  522MOL0     C70394   0.800   2.690  11.421 -0.1531  0.4334  0.2975
  522MOL0     C70395   0.651   2.684  11.458  0.0277  0.7631  0.3720
  522MOL0     C70396   0.620   2.618  11.592  0.0314 -0.2333  0.1303
  522MOL0     C70397   0.470   2.614  11.623  0.3974  0.4835 -0.1473
  522MOL0     C70398   0.407   2.497  11.558 -0.4060 -0.0636 -0.9406
  522MOL0     C70399   0.369   2.397  11.502 -0.3444  0.6622  0.1141
  522MOL0     C70400   1.046   2.600  11.297 -0.2785  0.6967 -0.0082
  522MOL0     C70401   1.158   2.560  11.224  0.6600 -0.3313 -0.0820
  522MOL0     C70402   1.238   2.670  11.165 -0.3194 -0.3613 -0.3551
  522MOL0     H70403   1.478   2.129  11.264  0.9878  1.0290 -0.1440
  522MOL0     H70404   1.724   2.061  11.216 -0.1815  0.7763 -0.7248
  522MOL0     H70405   1.893   2.036  10.791  0.2326  1.4476 -0.7154
  522MOL0     H70406   1.864   2.199  10.838  0.5293  0.9399  1.3222
  522MOL0     H70407   2.075   2.012  10.931  2.1168  1.6568  0.4236
  522MOL0     H70408   2.061   2.172  11.014 -0.1941 -1.2853  1.4064
  522MOL0     H70409   2.231   2.205  10.873  0.4944 -0.3600 -2.4709
  522MOL0     H70410   2.085   2.278  10.796  0.3723  0.6447  0.5126
  522MOL0     H70411   2.249   2.048  10.698  1.3190  0.3952 -2.2379
  522MOL0     H70412   2.104   2.112  10.612 -0.2160  1.2614 -1.4987
  522MOL0     H70413   2.197   2.324  10.583 -1.6230 -0.7521  2.5785
  522MOL0     H70414   2.341   2.279  10.684  2.8106 -1.3573 -1.1126
  522MOL0     H70415   2.427   2.126  10.533 -0.4204 -3.4222 -0.7157
  522MOL0     H70416   2.268   2.137  10.432  0.5001  2.3648 -2.1437
  522MOL0     H70417   2.442   2.383  10.459 -0.2530  0.3739  0.5795
  522MOL0     H70418   2.311   2.332  10.343  2.0329  1.5137 -1.4037
  522MOL0     H70419   2.483   2.163  10.259 -1.7658  0.2846 -0.6540
  522MOL0     H70420   2.501   2.326  10.208  1.0344  0.2174  0.0184
  522MOL0     H70421   2.739   2.423  10.259  0.2359  0.8001  0.5784
  522MOL0     H70422   2.992   2.440  10.390  1.0542  0.0864  0.1155
  522MOL0     H70423   3.056   2.272  10.417  0.8358  0.0472 -0.5191
  522MOL0     H70424   2.988   2.412  10.151 -2.2354 -1.4516  0.1677
  522MOL0     H70425   3.148   2.380  10.215  0.1214 -0.5368  2.7140
  522MOL0     H70426   2.956   2.201  10.092  1.3445  1.4037 -2.8913
  522MOL0     H70427   3.066   2.126  10.220  0.2219  0.5290  0.6908
  522MOL0     H70428   3.161   2.293   9.991 -0.8660 -1.7225 -3.5049
  522MOL0     H70429   3.166   2.120   9.977  3.3447  1.2979 -2.1381
  522MOL0     H70430   3.341   2.248   9.835  0.6330  1.2498  0.7228
  522MOL0     H70431   3.570   2.257   9.730 -0.9848 -0.6714 -0.3770
  522MOL0     H70432   3.992   2.343   9.706 -0.8786 -2.2988 -1.7861
  522MOL0     H70433   4.236   2.300   9.619  1.8103 -0.2618  0.0129
  522MOL0     H70434   4.547   2.107   9.851  0.2884  1.2863 -0.3461
  522MOL0     H70435   4.439   2.009   9.749  0.3245 -0.6679  2.7819
  522MOL0     H70436   4.650   1.981   9.627  1.1580  0.9691 -0.2332
  522MOL0     H70437   4.555   2.097   9.539 -0.4375 -1.8162 -0.4196
  522MOL0     H70438   4.752   2.225   9.740 -0.3300 -0.4068  0.5662
  522MOL0     H70439   4.804   2.154   9.584 -1.6587 -0.0722 -1.7500
  522MOL0     H70440   4.603   2.368   9.639  1.6212  1.9650 -0.0720
  522MOL0     H70441   4.630   2.299   9.479 -2.6908  0.0214  1.6625
  522MOL0     H70442   4.874   2.375   9.527 -1.2069  0.0548 -0.7197
  522MOL0     H70443   4.818   2.453   9.675  4.9206  1.7081 -1.2131
  522MOL0     H70444   4.746   2.520   9.381 -0.0816 -1.8140  0.6097
  522MOL0     H70445   4.665   2.600   9.515  0.2221  0.2333  0.5726
  522MOL0     H70446   4.914   2.650   9.590  0.2484 -0.8390 -0.5062
  522MOL0     H70447   4.817   2.763   9.503  0.3401  0.2832 -1.0320
  522MOL0     H70448   5.017   2.776   9.405 -0.4243  0.3761  1.2750
  522MOL0     H70449   5.040   2.595   9.397  1.3290  1.1601 -1.5461
  522MOL0     H70450   4.329   2.112   9.993 -0.9097 -0.7021  0.9019
  522MOL0     H70451   4.110   2.149  10.067  1.0451  4.4945  2.5362
  522MOL0     H70452   3.746   2.188  10.120 -1.4460  3.8449  1.2101
  522MOL0     H70453   3.519   2.189  10.216 -0.4408  3.9982 -0.2298
  522MOL0     H70454   1.618   2.104  10.800 -4.3098 -3.2031 -0.0437
  522MOL0     H70455   1.395   2.181  10.853  0.0520 -1.3524  0.2717
  522MOL0     H70456   1.081   2.240  11.175  2.6035  1.0639 -1.1917
  522MOL0     H70457   0.887   2.308  11.334 -0.4660  1.1268  2.4505
  522MOL0     H70458   0.816   2.749  11.330  1.8980  0.0119  0.3283
  522MOL0     H70459   0.859   2.744  11.496 -0.9663  1.2054  0.3918
  522MOL0     H70460   0.603   2.626  11.379 -1.0560 -1.0967  2.3136
  522MOL0     H70461   0.616   2.788  11.453 -1.6947  0.2250  0.3185
  522MOL0     H70462   0.677   2.664  11.674 -0.1983  0.2332  0.0285
  522MOL0     H70463   0.662   2.517  11.596 -0.8973 -0.6465 -0.3164
  522MOL0     H70464   0.463   2.592  11.730  0.0605  3.3045  0.5092
  522MOL0     H70465   0.426   2.713  11.607 -1.0378 -0.0933  0.1230
  522MOL0     H70466   0.332   2.314  11.446  0.2554 -1.3690  2.5304
  522MOL0     H70467   1.019   2.703  11.317 -1.8672  0.0757  1.2537
  522MOL0     H70468   1.342   2.652  11.191 -0.9289  0.4148  3.2415
  522MOL0     H70469   1.227   2.683  11.057  1.3722  0.6618 -0.4406
  522MOL0     H70470   1.226   2.770  11.208  1.1064 -1.4130  2.7993
  523MOL0     O70471   0.845   1.933   3.697  0.0588 -0.4474 -0.6588
  523MOL0     C70472   0.810   1.993   3.593 -0.2513  0.1138  0.1097
  523MOL0     O70473   0.900   2.052   3.509 -0.4868  0.6027  0.5227
  523MOL0     C70474   1.025   2.017   3.539 -0.8177  0.4497  0.2755
  523MOL0     C70475   1.061   1.885   3.511 -0.7456  0.7559 -0.5737
  523MOL0     C70476   1.194   1.842   3.508  0.7044  0.4601 -0.2151
  523MOL0     C70477   1.289   1.925   3.558 -0.7173 -0.5564  0.9938
  523MOL0     O70478   1.416   1.890   3.592 -0.0755  0.4752  0.0295
  523MOL0     C70479   1.472   1.779   3.515  0.2359 -1.2115  0.1918
  523MOL0     C70480   1.619   1.785   3.522  0.7171 -0.2804 -0.3476
  523MOL0     C70481   1.686   1.666   3.447  0.0852 -0.5929  0.1381
  523MOL0     C70482   1.830   1.696   3.436  0.2072  0.0845  0.2423
  523MOL0     C70483   1.912   1.580   3.375  0.6781  0.3062 -0.0328
  523MOL0     C70484   2.072   1.595   3.398  0.1681 -0.2798 -0.9118
  523MOL0     C70485   2.148   1.461   3.360 -0.1948 -0.4766  0.5974
  523MOL0     C70486   2.289   1.461   3.415 -0.6262  0.0148 -0.0380
  523MOL0     N70487   2.358   1.332   3.381 -0.0343  0.2752 -0.2621
  523MOL0     C70488   2.407   1.246   3.480 -0.1033  0.4642 -0.3549
  523MOL0     C70489   2.449   1.141   3.406 -0.3365  1.0295 -1.2039
  523MOL0     C70490   2.503   1.008   3.449  0.0616  0.6664 -0.4611
  523MOL0     C70491   2.632   0.962   3.369 -0.2002  0.0494 -0.7242
  523MOL0     C70492   2.695   0.838   3.431  0.0451  0.4115 -0.3095
  523MOL0     C70493   2.807   0.795   3.341 -0.4216 -0.2932 -0.0294
  523MOL0     O70494   2.915   0.890   3.334 -0.3794  0.4926 -0.4682
  523MOL0     C70495   3.020   0.819   3.280 -0.3270  0.1405 -0.6603
  523MOL0     C70496   3.136   0.840   3.340  0.2708  0.1369 -0.0583
  523MOL0     C70497   3.247   0.751   3.306  0.2482  0.0004 -0.8650
  523MOL0     C70498   3.246   0.672   3.193 -0.5842  0.6833 -0.4797
  523MOL0     C70499   3.357   0.581   3.162  0.4453  0.0481 -0.6741
  523MOL0     O70500   3.381   0.547   3.027 -0.3317  0.7634 -0.2514
  523MOL0     C70501   3.504   0.483   3.014  0.3977  0.6567  0.3056
  523MOL0     C70502   3.612   0.569   2.987 -0.6052 -0.0143  0.7315
  523MOL0     C70503   3.737   0.511   2.968 -0.1738 -0.0052 -0.1408
  523MOL0     C70504   3.755   0.374   2.966 -0.4391  0.8617 -1.4346
  523MOL0     O70505   3.881   0.337   2.928  0.0844 -0.0627  0.3626
  523MOL0     C70506   3.933   0.212   2.967  1.2339 -0.4831 -0.6506
  523MOL0     C70507   4.080   0.206   2.946  0.1008  0.3251 -0.7166
  523MOL0     C70508   4.145   0.077   2.982  0.1622  0.4574 -0.6371
  523MOL0     C70509   4.153  -0.035   2.873 -0.2523  0.0039 -0.6306
  523MOL0     C70510   4.290  -0.097   2.873 -0.1035  0.1546  0.5745
  523MOL0     C70511   4.320  -0.178   2.997  0.0456 -0.6774 -1.2509
  523MOL0     C70512   4.451  -0.254   2.995  0.4161  0.0053 -0.2097
  523MOL0     C70513   4.436  -0.383   2.920 -0.5170  0.9610  0.5831
  523MOL0    Cl70514   4.584  -0.473   2.935  0.3051 -0.0431 -0.1808
  523MOL0     C70515   3.652   0.298   3.006 -0.1474 -0.0823  0.3528
  523MOL0     C70516   3.523   0.352   3.017  0.4144  0.1094  0.3707
  523MOL0     O70517   3.434   0.558   3.257 -0.0570 -0.1387  0.0745
  523MOL0     C70518   3.129   0.680   3.113 -0.3684  0.4937  0.6081
  523MOL0     C70519   3.021   0.753   3.161  0.5555  0.4566  0.0240
  523MOL0     N70520   2.426   1.165   3.264  0.2662  0.2986  0.0650
  523MOL0     N70521   2.370   1.277   3.260  0.2534 -0.1281 -0.2945
  523MOL0     C70522   1.261   2.056   3.584  0.7079  0.0228  0.4646
  523MOL0     C70523   1.123   2.101   3.574  0.0906  0.5496 -0.0041
  523MOL0     C70524   0.669   2.013   3.559 -0.9166  0.5909  0.4150
  523MOL0     C70525   0.641   2.012   3.418 -0.8857  0.1285  0.1873
  523MOL0     C70526   0.515   2.028   3.369 -0.4810 -0.0973  1.0764
  523MOL0     C70527   0.403   2.045   3.451 -0.2262 -0.0601  0.6353
  523MOL0     O70528   0.275   2.054   3.412 -0.2788  0.7701 -0.5490
  523MOL0     C70529   0.253   2.106   3.277 -0.0415 -0.5485  0.0068
  523MOL0     C70530   0.104   2.165   3.274 -0.9427 -0.0811 -0.1110
  523MOL0     C70531  -0.010   2.067   3.310  0.0192 -0.9173  0.1846
  523MOL0     C70532  -0.148   2.132   3.292 -0.5748  0.0760 -0.1244
  523MOL0     C70533  -0.252   2.031   3.311 -0.2655 -0.4804  0.1567
  523MOL0     C70534  -0.341   1.958   3.340  0.7968  0.2358  0.5860
  523MOL0     C70535   0.425   2.035   3.588 -0.0311  0.0156  0.6051
  523MOL0     C70536   0.562   2.019   3.644 -0.5382 -0.1011  0.8205
  523MOL0     C70537   0.573   2.022   3.793  0.1625 -0.2065 -0.3044
  523MOL0     H70538   0.983   1.816   3.481  1.5574 -1.1043 -2.6703
  523MOL0     H70539   1.220   1.742   3.475 -2.0904  0.0469 -1.4837
  523MOL0     H70540   1.448   1.677   3.548  1.6677 -2.0942 -1.3957
  523MOL0     H70541   1.443   1.784   3.410  0.0961  0.7113  0.2878
  523MOL0     H70542   1.645   1.782   3.629  0.1741  1.4514 -0.1361
  523MOL0     H70543   1.657   1.877   3.477  0.4985  0.0003  0.0394
  523MOL0     H70544   1.644   1.668   3.346  2.5542 -2.6356 -1.0240
  523MOL0     H70545   1.662   1.568   3.490  2.3900 -1.6927 -0.9022
  523MOL0     H70546   1.848   1.780   3.368 -3.8203 -0.6082 -1.9284
  523MOL0     H70547   1.864   1.726   3.536 -2.8456  1.2935  1.0160
  523MOL0     H70548   1.874   1.490   3.425 -3.6421  2.2253  0.5190
  523MOL0     H70549   1.883   1.564   3.270 -0.5085 -3.2637  0.6803
  523MOL0     H70550   2.118   1.675   3.341  2.2840 -1.6506 -1.2266
  523MOL0     H70551   2.082   1.606   3.507 -1.4588 -2.9660 -0.3802
  523MOL0     H70552   2.147   1.443   3.252  1.3601 -1.0686  0.6530
  523MOL0     H70553   2.086   1.383   3.406 -0.4834  0.7885  2.4385
  523MOL0     H70554   2.331   1.546   3.359 -0.5443  1.0125  1.4986
  523MOL0     H70555   2.279   1.492   3.519 -0.1619  0.4203 -0.1100
  523MOL0     H70556   2.404   1.262   3.587 -1.2964  0.8565 -0.4349
  523MOL0     H70557   2.537   1.022   3.552 -1.8006 -1.0734  0.4562
  523MOL0     H70558   2.422   0.934   3.447  0.1027  0.5912  0.2750
  523MOL0     H70559   2.596   0.958   3.265  0.8126  2.2137 -1.2143
  523MOL0     H70560   2.700   1.048   3.365 -2.5479  2.0080 -1.3827
  523MOL0     H70561   2.620   0.759   3.438  0.4892 -0.0599 -0.7864
  523MOL0     H70562   2.739   0.858   3.529  0.9529 -1.0940 -0.3779
  523MOL0     H70563   2.781   0.773   3.237  0.4395 -0.7315 -0.1617
  523MOL0     H70564   2.845   0.704   3.389  2.0219  0.9931  0.6897
  523MOL0     H70565   3.145   0.906   3.426  2.5092 -0.0669 -0.0822
  523MOL0     H70566   3.333   0.769   3.370 -1.6229  2.4211  1.1722
  523MOL0     H70567   3.595   0.674   2.965 -0.6446 -0.7567 -3.6326
  523MOL0     H70568   3.819   0.579   2.945 -2.5021  3.7370  1.6780
  523MOL0     H70569   3.919   0.202   3.075  1.2235 -2.2198 -0.7902
  523MOL0     H70570   3.882   0.137   2.905 -0.5573 -1.5589  1.9634
  523MOL0     H70571   4.110   0.230   2.844  5.1521  5.3245  1.3957
  523MOL0     H70572   4.122   0.282   3.012 -2.6588 -0.9473  2.8395
  523MOL0     H70573   4.244   0.107   3.018 -0.0217  1.2261 -0.7449
  523MOL0     H70574   4.104   0.028   3.070 -2.3170  1.8694 -0.8995
  523MOL0     H70575   4.119   0.005   2.777 -1.9743 -2.7982 -1.3320
  523MOL0     H70576   4.077  -0.108   2.904  1.5744 -1.2569  1.0541
  523MOL0     H70577   4.361  -0.013   2.873  1.8293 -1.3698  2.8939
  523MOL0     H70578   4.304  -0.145   2.775  0.6416  1.6676 -0.1091
  523MOL0     H70579   4.307  -0.120   3.089 -0.4520  1.2667 -2.5014
  523MOL0     H70580   4.242  -0.253   3.015  1.1481 -1.5170  0.2679
  523MOL0     H70581   4.493  -0.260   3.096  0.1636 -1.2440 -0.1583
  523MOL0     H70582   4.526  -0.194   2.944  0.2259  0.0844 -0.3971
  523MOL0     H70583   4.358  -0.451   2.955  1.3444 -1.2418  0.7016
  523MOL0     H70584   4.411  -0.364   2.816  2.3886 -3.5082 -1.2208
  523MOL0     H70585   3.665   0.194   3.033 -0.3987 -0.1842  0.0898
  523MOL0     H70586   3.441   0.285   3.038  0.2578  0.7793  2.0408
  523MOL0     H70587   3.111   0.623   3.023 -0.6919  1.3447  0.1213
  523MOL0     H70588   2.928   0.768   3.108 -0.8630 -0.9789  1.9639
  523MOL0     H70589   1.342   2.122   3.615  0.9201  0.3643 -0.7403
  523MOL0     H70590   1.100   2.207   3.581 -2.7234 -0.0380  0.8154
  523MOL0     H70591   0.720   2.007   3.343 -0.1414  0.6070  0.9211
  523MOL0     H70592   0.498   2.021   3.262 -2.0221 -2.5394  1.4080
  523MOL0     H70593   0.264   2.024   3.206  0.7679 -0.2214 -0.2622
  523MOL0     H70594   0.317   2.193   3.258  1.8040 -1.3586  2.0836
  523MOL0     H70595   0.084   2.201   3.172 -1.6207  0.7098  0.2919
  523MOL0     H70596   0.094   2.250   3.342  0.8229 -1.1285  1.5582
  523MOL0     H70597   0.009   2.048   3.416  1.3784 -0.5432  0.0216
  523MOL0     H70598  -0.006   1.974   3.252 -0.2493 -0.5755 -0.3944
  523MOL0     H70599  -0.148   2.204   3.375  0.0661  1.1935 -1.0598
  523MOL0     H70600  -0.159   2.183   3.196  1.1854 -0.3050 -0.5712
  523MOL0     H70601  -0.408   1.880   3.368  0.4370 -0.3898 -1.8347
  523MOL0     H70602   0.336   2.054   3.646  0.3412  2.7798  0.3687
  523MOL0     H70603   0.477   1.999   3.839  0.0814  2.0016  0.7662
  523MOL0     H70604   0.649   1.954   3.832 -0.2186  0.0940  1.0036
  523MOL0     H70605   0.594   2.125   3.827 -1.1561 -0.4484  1.3475
  524MOL0     O70606   4.629   2.810   5.020 -0.1758  0.2937  0.5900
  524MOL0     C70607   4.592   2.697   5.005 -0.8431  0.8779 -0.0159
  524MOL0     O70608   4.677   2.595   4.961 -0.4715  0.1410  0.0651
  524MOL0     C70609   4.786   2.620   4.880 -0.2334  0.4804 -0.6906
  524MOL0     C70610   4.912   2.644   4.940 -0.4565 -0.5587 -0.2874
  524MOL0     C70611   5.029   2.651   4.862 -0.1681 -0.1154 -0.1134
  524MOL0     C70612   5.022   2.640   4.727 -0.5586  0.4699  0.3984
  524MOL0     O70613   5.143   2.650   4.665 -0.5264 -0.1947 -0.1430
  524MOL0     C70614   5.167   2.689   4.524 -0.6333  0.7117 -0.1709
  524MOL0     C70615   5.317   2.669   4.480 -0.1232 -0.6141  0.5193
  524MOL0     C70616   5.400   2.790   4.521  0.0552  0.1604 -0.2633
  524MOL0     C70617   5.548   2.770   4.500 -0.5907  0.2644 -0.0690
  524MOL0     C70618   5.637   2.896   4.511 -0.5267 -0.1836 -0.3764
  524MOL0     C70619   5.611   2.972   4.639 -0.7693  0.4263 -0.0882
  524MOL0     C70620   5.715   3.087   4.666 -0.5253  0.5265  0.6926
  524MOL0     C70621   5.691   3.178   4.787 -0.9332 -0.5360 -1.1045
  524MOL0     N70622   5.807   3.262   4.816 -0.0573  0.2836  0.9118
  524MOL0     C70623   5.806   3.398   4.831 -0.2649 -0.2014 -0.0648
  524MOL0     C70624   5.938   3.435   4.825  0.3014 -0.9392  0.3712
  524MOL0     C70625   5.986   3.577   4.840 -0.9063 -0.0421  0.3862
  524MOL0     C70626   6.124   3.617   4.778 -0.0582  0.4781  0.0117
  524MOL0     C70627   6.116   3.595   4.632 -0.0385 -0.1751 -0.1057
  524MOL0     C70628   6.224   3.660   4.551  0.4172 -0.0631 -0.4297
  524MOL0     O70629   6.240   3.803   4.546  0.5027 -0.1924  0.0642
  524MOL0     C70630   6.333   3.871   4.629  0.7225 -0.0211 -0.2399
  524MOL0     C70631   6.375   3.995   4.589  0.3608 -0.9958  0.5154
  524MOL0     C70632   6.475   4.063   4.663 -0.4167 -0.1950  0.2751
  524MOL0     C70633   6.533   4.006   4.782  0.6526 -0.4382 -0.7623
  524MOL0     C70634   6.638   4.077   4.860 -0.4070  0.9623 -0.0090
  524MOL0     O70635   6.670   4.209   4.832  0.4947 -0.2231  0.5666
  524MOL0     C70636   6.783   4.260   4.896  0.2361 -0.7431 -0.2041
  524MOL0     C70637   6.783   4.278   5.033 -1.4368  0.2975 -0.7683
  524MOL0     C70638   6.892   4.341   5.099  0.8720 -0.0033  0.5918
  524MOL0     C70639   6.993   4.386   5.022 -1.1478  0.0672  0.2582
  524MOL0     O70640   7.099   4.456   5.073  0.2474  0.0890 -0.1046
  524MOL0     C70641   7.129   4.582   5.018  0.6074 -0.2456 -0.5424
  524MOL0     C70642   7.014   4.686   5.025  0.0563 -0.1124  0.1601
  524MOL0     C70643   6.995   4.712   5.173  0.5985 -0.5490 -0.2471
  524MOL0     C70644   6.857   4.784   5.188 -0.8804 -0.3332 -0.7275
  524MOL0     C70645   6.823   4.808   5.338  1.2444  1.1615 -0.0822
  524MOL0     C70646   6.728   4.925   5.352 -0.1343  0.3605 -0.5969
  524MOL0     C70647   6.711   4.950   5.505  0.0845 -0.4357  0.1723
  524MOL0     C70648   6.640   5.076   5.538 -0.0478 -1.0290  0.4590
  524MOL0    Cl70649   6.713   5.237   5.477 -0.1163  0.0537 -0.2873
  524MOL0     C70650   6.991   4.365   4.879  0.1755 -1.0588 -1.1285
  524MOL0     C70651   6.884   4.307   4.816 -0.0439  0.7580  0.7337
  524MOL0     O70652   6.698   4.002   4.939 -0.0539 -0.3409  0.4953
  524MOL0     C70653   6.482   3.883   4.823 -0.1655  0.3630  0.3346
  524MOL0     C70654   6.375   3.822   4.754 -0.4400 -0.2943  0.4294
  524MOL0     N70655   6.017   3.321   4.809 -0.3001 -0.4751 -0.2648
  524MOL0     N70656   5.937   3.223   4.813  0.1467  0.3401 -0.4739
  524MOL0     C70657   4.902   2.607   4.660  0.3971  0.5347 -0.7822
  524MOL0     C70658   4.789   2.585   4.741  0.4963  0.1373 -0.7253
  524MOL0     C70659   4.446   2.677   5.016  0.4058 -0.4425  0.0697
  524MOL0     C70660   4.383   2.593   4.921  0.4026  0.2059 -0.5234
  524MOL0     C70661   4.245   2.583   4.915 -0.0802  1.2489 -0.3559
  524MOL0     C70662   4.162   2.638   5.013  0.6235  0.1699 -0.2123
  524MOL0     O70663   4.028   2.616   5.027  0.0658 -0.1166  0.1922
  524MOL0     C70664   3.953   2.538   4.928  0.7845  0.3660  0.4985
  524MOL0     C70665   3.808   2.522   4.978  0.4432  0.0870  0.1186
  524MOL0     C70666   3.708   2.640   4.938 -0.9868  0.0550  0.6255
  524MOL0     C70667   3.575   2.615   4.997  0.2693  0.2009 -0.1356
  524MOL0     C70668   3.460   2.695   4.957  0.3043  0.1575  0.8513
  524MOL0     C70669   3.369   2.783   4.933  0.0323 -0.7428  0.0294
  524MOL0     C70670   4.223   2.711   5.114 -0.5041  0.0658 -1.4087
  524MOL0     C70671   4.362   2.745   5.114  0.0708  0.3464 -1.1498
  524MOL0     C70672   4.421   2.826   5.223 -0.3722 -0.9587  0.0731
  524MOL0     H70673   4.908   2.660   5.047 -2.6239 -1.8933 -0.1042
  524MOL0     H70674   5.133   2.673   4.881  0.3825 -2.8350  0.5358
  524MOL0     H70675   5.103   2.648   4.446  3.8340 -0.4726 -3.6406
  524MOL0     H70676   5.151   2.797   4.520  1.8132  1.3331  2.7338
  524MOL0     H70677   5.318   2.668   4.371  0.1952  1.2364  0.4768
  524MOL0     H70678   5.359   2.572   4.507  1.3934 -0.3081 -0.6603
  524MOL0     H70679   5.392   2.815   4.627  0.8993  0.7838 -0.3399
  524MOL0     H70680   5.370   2.886   4.477  3.0129  1.8570  1.1262
  524MOL0     H70681   5.603   2.704   4.567  1.1266  1.3806 -0.3322
  524MOL0     H70682   5.565   2.729   4.400  3.8531  1.5741 -0.0808
  524MOL0     H70683   5.743   2.867   4.514 -1.0215 -2.0104  0.1308
  524MOL0     H70684   5.612   2.962   4.427 -0.4975  0.9050  0.4458
  524MOL0     H70685   5.510   3.014   4.632 -0.3921  1.4463  0.3943
  524MOL0     H70686   5.612   2.910   4.729  1.6793 -0.2664 -0.5404
  524MOL0     H70687   5.729   3.147   4.575 -1.3014  1.0976  0.9419
  524MOL0     H70688   5.806   3.026   4.674 -0.9698 -0.1347  0.7751
  524MOL0     H70689   5.599   3.238   4.793  1.2048  2.8526  1.3876
  524MOL0     H70690   5.697   3.104   4.867 -0.3358 -1.9849 -2.4394
  524MOL0     H70691   5.723   3.464   4.850  1.6681  1.7920  2.0585
  524MOL0     H70692   5.912   3.651   4.809 -0.3471  0.2563 -0.2444
  524MOL0     H70693   5.988   3.590   4.949 -3.7321  3.0421  0.2002
  524MOL0     H70694   6.162   3.715   4.807  2.4808 -0.4967  0.2298
  524MOL0     H70695   6.200   3.552   4.822  0.3407 -0.5425 -2.0707
  524MOL0     H70696   6.029   3.643   4.586  0.9906  0.6357 -1.2555
  524MOL0     H70697   6.126   3.487   4.621 -0.3676 -0.3089  0.7687
  524MOL0     H70698   6.193   3.632   4.450  1.0476 -2.4705 -0.0220
  524MOL0     H70699   6.323   3.624   4.581  0.0076 -0.3616  0.5974
  524MOL0     H70700   6.350   4.041   4.494 -0.8975 -1.2478  0.7156
  524MOL0     H70701   6.512   4.159   4.627  0.4445 -1.5673 -2.8450
  524MOL0     H70702   6.692   4.241   5.079  0.4738 -0.2348  2.9883
  524MOL0     H70703   6.887   4.352   5.207 -0.2831 -2.7821  0.9012
  524MOL0     H70704   7.212   4.629   5.070  0.4741 -1.2149  0.6052
  524MOL0     H70705   7.170   4.569   4.917  0.2737  0.5195 -0.7838
  524MOL0     H70706   7.036   4.776   4.967 -1.4155  0.2926  0.1848
  524MOL0     H70707   6.925   4.640   4.982  0.0649 -1.3846  1.4134
  524MOL0     H70708   6.991   4.615   5.223  0.9731 -1.5385 -2.0463
  524MOL0     H70709   7.081   4.767   5.211  0.5804 -1.0295  0.4885
  524MOL0     H70710   6.784   4.725   5.132  0.8865 -0.4244 -3.1015
  524MOL0     H70711   6.856   4.879   5.135  1.8598  0.6087  0.6948
  524MOL0     H70712   6.915   4.840   5.387  1.7611  3.0709 -2.1240
  524MOL0     H70713   6.798   4.711   5.384  3.1942 -0.9611 -3.0982
  524MOL0     H70714   6.772   5.016   5.310 -1.1572  0.2256 -2.0172
  524MOL0     H70715   6.628   4.906   5.312  0.1932 -0.9966 -0.8090
  524MOL0     H70716   6.813   4.938   5.543  1.6686  2.3736 -2.7139
  524MOL0     H70717   6.649   4.868   5.544 -2.3341  2.0408  1.9811
  524MOL0     H70718   6.535   5.067   5.508  0.1393 -3.4087  0.3338
  524MOL0     H70719   6.637   5.081   5.647 -1.8571 -0.3646  0.4252
  524MOL0     H70720   7.060   4.409   4.808  0.3059 -0.6237 -0.7397
  524MOL0     H70721   6.880   4.303   4.707  3.1601 -0.1189  0.5565
  524MOL0     H70722   6.534   3.836   4.905  0.8962  2.9112  1.1896
  524MOL0     H70723   6.361   3.723   4.796  1.4889 -0.0380  1.8366
  524MOL0     H70724   4.902   2.582   4.555  2.3522 -2.0220 -0.2712
  524MOL0     H70725   4.701   2.541   4.695 -0.3273 -0.4275  1.2463
  524MOL0     H70726   4.447   2.548   4.847  1.2868 -0.7946  0.8086
  524MOL0     H70727   4.204   2.524   4.834 -1.3870  1.8271 -0.1521
  524MOL0     H70728   4.010   2.444   4.928  2.4484  1.3089  1.6908
  524MOL0     H70729   3.965   2.595   4.835 -1.2972  3.2715  1.8691
  524MOL0     H70730   3.812   2.506   5.086 -0.7495 -1.4000 -0.0239
  524MOL0     H70731   3.778   2.423   4.941  2.1547 -0.7169  0.7938
  524MOL0     H70732   3.700   2.632   4.829  1.1501  3.6402  0.0730
  524MOL0     H70733   3.756   2.735   4.960  1.9454 -0.7115 -1.8369
  524MOL0     H70734   3.550   2.512   4.968 -0.2055 -0.0553  1.1090
  524MOL0     H70735   3.589   2.619   5.105  0.3488 -1.9056 -0.0189
  524MOL0     H70736   3.299   2.859   4.905  0.2071 -1.0087 -1.2040
  524MOL0     H70737   4.166   2.743   5.200  0.4483 -1.2414 -0.2354
  524MOL0     H70738   4.350   2.887   5.281 -0.2342 -0.1562 -0.5888
  524MOL0     H70739   4.470   2.771   5.304 -2.1497  2.7947  4.1281
  524MOL0     H70740   4.491   2.899   5.182 -2.6459  0.6145 -1.2068
  525MOL0     O70741   7.930   5.329   9.152  0.1995  0.0451  0.2245
  525MOL0     C70742   7.953   5.230   9.087  0.1873 -0.2699  0.2031
  525MOL0     O70743   7.875   5.169   8.994  0.1461  0.1718  0.7686
  525MOL0     C70744   7.745   5.199   8.997  0.0990  0.6538  0.2271
  525MOL0     C70745   7.695   5.302   8.914  0.5537  0.4366  0.3480
  525MOL0     C70746   7.563   5.352   8.925  0.2957  0.0044  0.5678
  525MOL0     C70747   7.483   5.289   9.016  0.8896 -0.7764 -0.1587
  525MOL0     O70748   7.349   5.332   9.025 -0.2055  0.0286 -0.0502
  525MOL0     C70749   7.323   5.456   9.098  1.1578  0.6802 -0.4365
  525MOL0     C70750   7.168   5.439   9.135 -0.4916  0.3627 -0.6109
  525MOL0     C70751   7.092   5.563   9.188  0.5205  0.1752 -0.2452
  525MOL0     C70752   6.962   5.494   9.243 -0.2652 -0.5803 -0.0855
  525MOL0     C70753   6.858   5.598   9.275 -0.4953 -0.2409 -0.2530
  525MOL0     C70754   6.735   5.552   9.358 -0.2992  1.0992  0.0948
  525MOL0     C70755   6.630   5.657   9.360  0.2283 -0.5853  0.1072
  525MOL0     C70756   6.538   5.669   9.229 -0.6831 -0.5941  0.2129
  525MOL0     N70757   6.465   5.542   9.222  0.0266 -0.2081  0.1765
  525MOL0     C70758   6.352   5.496   9.290 -0.4565  0.5647 -0.4291
  525MOL0     C70759   6.324   5.376   9.250  0.0985 -0.6596  0.3391
  525MOL0     C70760   6.214   5.286   9.295 -0.7925  0.1110 -0.3567
  525MOL0     C70761   6.231   5.246   9.444  0.0815 -0.4379  0.1579
  525MOL0     C70762   6.165   5.107   9.481  0.9947 -0.5121  1.0190
  525MOL0     C70763   6.021   5.082   9.451 -0.5503  0.2630  0.5028
  525MOL0     O70764   5.942   5.191   9.500 -0.9938 -0.4198  0.6936
  525MOL0     C70765   5.812   5.192   9.496  0.6855 -0.2449  0.3106
  525MOL0     C70766   5.745   5.309   9.532 -0.2744  0.5192  0.2550
  525MOL0     C70767   5.611   5.319   9.544 -0.0155  1.0790 -0.3551
  525MOL0     C70768   5.521   5.215   9.509  0.0977 -0.5890  0.4294
  525MOL0     C70769   5.373   5.225   9.518 -0.3748  0.3948 -0.6324
  525MOL0     O70770   5.317   5.340   9.576  0.3820  0.1140 -0.0137
  525MOL0     C70771   5.176   5.347   9.579  0.1694  0.3456  0.5211
  525MOL0     C70772   5.114   5.291   9.688  0.1158 -0.3835 -0.7379
  525MOL0     C70773   4.976   5.308   9.701 -0.0910  1.2786  0.1461
  525MOL0     C70774   4.904   5.380   9.605  0.1304  0.0238  0.0693
  525MOL0     O70775   4.770   5.376   9.616  0.1576  0.2817 -0.6579
  525MOL0     C70776   4.683   5.410   9.509  0.6935  0.6063 -0.4320
  525MOL0     C70777   4.537   5.351   9.537  0.4834  0.7337 -0.0394
  525MOL0     C70778   4.437   5.407   9.445  0.7470 -0.4417 -1.0967
  525MOL0     C70779   4.433   5.351   9.308  0.2673 -0.0195  0.4262
  525MOL0     C70780   4.382   5.203   9.288  0.5102 -0.2384  0.4619
  525MOL0     C70781   4.391   5.165   9.139 -0.3175 -0.3920 -0.3631
  525MOL0     C70782   4.525   5.162   9.077 -0.1103 -0.1674 -0.0993
  525MOL0     C70783   4.550   5.044   8.981  0.1616 -0.6161  0.2016
  525MOL0    Cl70784   4.687   5.093   8.867 -0.5495 -0.0799 -0.3298
  525MOL0     C70785   4.968   5.439   9.488  1.2460 -0.6200 -0.8922
  525MOL0     C70786   5.105   5.421   9.476 -0.1263 -0.1092 -0.9775
  525MOL0     O70787   5.308   5.125   9.478  0.2001 -0.1680  0.0743
  525MOL0     C70788   5.588   5.095   9.459 -0.0106  0.1575 -1.0209
  525MOL0     C70789   5.727   5.085   9.449  0.3957 -0.3189 -0.1569
  525MOL0     N70790   6.425   5.333   9.156 -0.2926  0.2337 -0.8129
  525MOL0     N70791   6.507   5.442   9.137  0.0337  0.2946  0.3783
  525MOL0     C70792   7.529   5.183   9.090  0.7981 -0.3343  0.3222
  525MOL0     C70793   7.661   5.129   9.074  0.7424 -0.0367  0.3788
  525MOL0     C70794   8.085   5.168   9.121  0.3344 -0.0794 -0.5056
  525MOL0     C70795   8.094   5.032   9.156  0.0580  0.1434 -0.2657
  525MOL0     C70796   8.210   4.971   9.197  0.4784  0.0617 -0.1145
  525MOL0     C70797   8.327   5.054   9.218  0.3760  0.8299 -0.0594
  525MOL0     O70798   8.450   5.005   9.261 -0.4686  0.5636  0.1394
  525MOL0     C70799   8.465   4.871   9.312  0.1646 -0.0149  0.3623
  525MOL0     C70800   8.515   4.782   9.201  0.1945  0.2910  0.4235
  525MOL0     C70801   8.673   4.797   9.186 -0.7516 -1.1653 -0.4577
  525MOL0     C70802   8.740   4.697   9.100 -0.4010 -0.2923 -0.2618
  525MOL0     C70803   8.649   4.643   9.001 -0.0591  0.4697  0.1235
  525MOL0     C70804   8.571   4.600   8.919  0.0996 -0.0852  0.2546
  525MOL0     C70805   8.313   5.192   9.192 -0.6977 -0.0437 -0.5069
  525MOL0     C70806   8.195   5.248   9.139  0.2152 -0.7332  0.2442
  525MOL0     C70807   8.212   5.399   9.097 -0.1713 -0.1916  0.3768
  525MOL0     H70808   7.769   5.350   8.850  0.9124 -2.0880 -1.2797
  525MOL0     H70809   7.539   5.440   8.867  0.5156  0.3488  1.0003
  525MOL0     H70810   7.381   5.460   9.191  1.1678  2.8327 -0.5020
  525MOL0     H70811   7.342   5.544   9.037 -0.0372  0.2822 -1.4225
  525MOL0     H70812   7.167   5.351   9.200 -0.9881  0.1549 -0.8917
  525MOL0     H70813   7.106   5.403   9.053  0.5077 -1.4089 -0.6233
  525MOL0     H70814   7.063   5.633   9.109 -0.6678 -0.0728 -0.0474
  525MOL0     H70815   7.142   5.620   9.267 -0.0102  4.6354 -2.7995
  525MOL0     H70816   6.922   5.420   9.174 -3.1809  1.3477 -0.6291
  525MOL0     H70817   7.000   5.439   9.330  2.4411 -0.4169 -1.0649
  525MOL0     H70818   6.907   5.667   9.344 -0.1441  0.8236 -1.5211
  525MOL0     H70819   6.825   5.658   9.189  1.2991 -0.6431 -1.2631
  525MOL0     H70820   6.710   5.455   9.313  0.5749  1.7024 -1.7658
  525MOL0     H70821   6.777   5.528   9.456 -2.7923 -1.7246  0.6319
  525MOL0     H70822   6.677   5.755   9.369  1.3309 -0.9214 -1.4861
  525MOL0     H70823   6.560   5.631   9.440 -1.3157  4.4746  0.7179
  525MOL0     H70824   6.470   5.754   9.242  1.7885  1.7472 -1.1021
  525MOL0     H70825   6.593   5.695   9.138 -2.6158  1.0387 -0.5649
  525MOL0     H70826   6.291   5.561   9.352  0.6107  2.9121 -1.6938
  525MOL0     H70827   6.118   5.337   9.285 -0.8020  0.5751  1.7078
  525MOL0     H70828   6.211   5.189   9.244 -1.9745 -0.9119  1.5580
  525MOL0     H70829   6.338   5.228   9.462  0.8755  1.4196 -2.1605
  525MOL0     H70830   6.194   5.325   9.509 -0.7776 -2.2348  1.9583
  525MOL0     H70831   6.170   5.099   9.590 -1.4327 -1.6587  1.0891
  525MOL0     H70832   6.231   5.035   9.431  1.4448 -0.2975  1.2983
  525MOL0     H70833   5.981   4.986   9.483 -0.5899  0.6312  1.6162
  525MOL0     H70834   6.022   5.087   9.342  1.8450  1.4648  0.5155
  525MOL0     H70835   5.805   5.398   9.545  2.1752 -0.4932 -2.9190
  525MOL0     H70836   5.570   5.413   9.581 -3.1807 -1.3970  3.1079
  525MOL0     H70837   5.171   5.226   9.754 -1.7339  0.9398  2.3991
  525MOL0     H70838   4.933   5.270   9.793  3.0118  2.2930  2.1599
  525MOL0     H70839   4.673   5.519   9.505  0.9523  0.6431 -0.0634
  525MOL0     H70840   4.723   5.382   9.411 -1.1029  0.9329 -1.3030
  525MOL0     H70841   4.535   5.242   9.532 -1.2652  0.7408 -0.2170
  525MOL0     H70842   4.492   5.367   9.636 -5.2925 -2.2362 -1.7647
  525MOL0     H70843   4.336   5.401   9.486  1.1570 -2.4369 -0.2940
  525MOL0     H70844   4.464   5.512   9.434 -1.5756  0.3178 -0.1955
  525MOL0     H70845   4.535   5.354   9.269  0.9263  1.0741  2.0850
  525MOL0     H70846   4.374   5.425   9.253 -0.7243 -1.3851 -0.3953
  525MOL0     H70847   4.282   5.184   9.328  0.2898  1.0856  0.5901
  525MOL0     H70848   4.457   5.142   9.340 -0.1749 -2.5775 -1.1331
  525MOL0     H70849   4.359   5.061   9.135  0.0229 -0.4811 -0.8267
  525MOL0     H70850   4.338   5.225   9.064 -0.8754 -0.8715 -0.3570
  525MOL0     H70851   4.605   5.155   9.152  0.0899 -1.0499 -0.3914
  525MOL0     H70852   4.534   5.255   9.020  1.2248  0.6532  1.3938
  525MOL0     H70853   4.581   4.956   9.038  1.0790  1.6407  3.4747
  525MOL0     H70854   4.461   5.020   8.923  0.2822  1.0300 -0.7125
  525MOL0     H70855   4.906   5.501   9.425  0.2950 -0.5643  0.0742
  525MOL0     H70856   5.165   5.485   9.412  0.1342  0.2284 -0.4010
  525MOL0     H70857   5.524   5.017   9.418 -1.7801  1.0572 -0.0954
  525MOL0     H70858   5.779   4.993   9.428  1.5157 -0.1218  1.5756
  525MOL0     H70859   7.453   5.126   9.142 -1.0161  1.3148 -0.3923
  525MOL0     H70860   7.693   5.044   9.132  1.7369  0.7219  0.9665
  525MOL0     H70861   8.008   4.970   9.131 -0.7028  1.3258 -0.6814
  525MOL0     H70862   8.214   4.866   9.221  4.2277  0.3397  1.2088
  525MOL0     H70863   8.367   4.842   9.352  1.6981  0.3722  4.9774
  525MOL0     H70864   8.542   4.862   9.389  2.7836  1.3199 -1.9230
  525MOL0     H70865   8.449   4.788   9.114 -1.1376 -1.8931  1.2090
  525MOL0     H70866   8.499   4.680   9.236  3.4260 -0.0496  1.1850
  525MOL0     H70867   8.718   4.792   9.285 -0.5759  0.6743 -0.4066
  525MOL0     H70868   8.699   4.894   9.142 -0.9455 -1.1380 -0.5148
  525MOL0     H70869   8.829   4.733   9.047  1.3302 -2.6589  0.8320
  525MOL0     H70870   8.775   4.619   9.169 -0.0259  0.4035  0.3472
  525MOL0     H70871   8.507   4.563   8.842  0.9724  0.7898 -0.9313
  525MOL0     H70872   8.391   5.260   9.222 -1.0190 -0.2873  0.9263
  525MOL0     H70873   8.161   5.418   9.002 -4.2453  0.4468  2.4717
  525MOL0     H70874   8.166   5.469   9.166 -0.1691  2.3132 -1.9746
  525MOL0     H70875   8.319   5.418   9.083 -0.1337 -0.9822 -0.5363
  526MOL0     O70876   0.766   5.399   1.707  0.4886 -0.5454 -0.2635
  526MOL0     C70877   0.803   5.439   1.819  0.0970  0.4132  0.4874
  526MOL0     O70878   0.914   5.510   1.843 -0.1066  0.5481 -0.0020
  526MOL0     C70879   1.000   5.535   1.738  0.2260 -0.0886  0.2214
  526MOL0     C70880   1.039   5.665   1.715 -0.0182 -0.2498 -0.6168
  526MOL0     C70881   1.112   5.700   1.602 -1.1079 -0.6884  0.8534
  526MOL0     C70882   1.161   5.608   1.511  0.3085 -0.9916  0.3207
  526MOL0     O70883   1.221   5.660   1.409 -0.4949  0.3002  0.4172
  526MOL0     C70884   1.172   5.611   1.288  0.7792  0.2066 -0.6038
  526MOL0     C70885   1.224   5.704   1.178 -0.7133 -0.0367 -0.4182
  526MOL0     C70886   1.146   5.656   1.053 -0.3177  0.6608 -0.6535
  526MOL0     C70887   1.204   5.723   0.927  0.3490  0.0007 -0.6559
  526MOL0     C70888   1.125   5.657   0.811  0.3154 -0.8632  0.2379
  526MOL0     C70889   1.173   5.709   0.667 -0.2035 -0.7718 -0.4097
  526MOL0     C70890   1.110   5.646   0.546 -0.8152  0.7208 -0.3375
  526MOL0     C70891   0.968   5.696   0.519 -0.0743  0.5470  0.9329
  526MOL0     N70892   0.912   5.648   0.392  0.8058 -0.4342  0.0165
  526MOL0     C70893   0.838   5.532   0.380 -0.2190  0.3637  0.0664
  526MOL0     C70894   0.791   5.532   0.254 -0.1675 -0.5048  0.6031
  526MOL0     C70895   0.703   5.418   0.198 -0.5015 -0.6462 -0.3006
  526MOL0     C70896   0.721   5.278   0.251  0.3541  0.6856  0.9782
  526MOL0     C70897   0.867   5.231   0.245  0.2768 -0.2606  0.1499
  526MOL0     C70898   0.930   5.218   0.097 -0.5493 -0.4459 -0.1522
  526MOL0     O70899   1.067   5.165   0.109 -0.3682 -0.4132 -0.5553
  526MOL0     C70900   1.168   5.253   0.091 -0.0851 -0.4140  0.3618
  526MOL0     C70901   1.276   5.204   0.008  0.4088 -0.3451 -0.0665
  526MOL0     C70902   1.393   5.278  -0.007 -0.2753  0.3594 -0.4278
  526MOL0     C70903   1.404   5.400   0.062  0.0487 -0.7602  0.7447
  526MOL0     C70904   1.525   5.488   0.054 -0.8940  1.0700 -0.0151
  526MOL0     O70905   1.640   5.426  -0.003 -0.1546  0.0843  0.2068
  526MOL0     C70906   1.744   5.503  -0.033 -0.9326 -0.4777  1.0203
  526MOL0     C70907   1.864   5.441   0.000 -0.5959  0.5909 -0.0701
  526MOL0     C70908   1.982   5.519  -0.009  0.8325  0.0986 -0.5366
  526MOL0     C70909   1.985   5.648  -0.071 -0.1026  0.4004 -0.2029
  526MOL0     O70910   2.097   5.713  -0.131  0.3436 -0.2026 -0.6671
  526MOL0     C70911   2.208   5.696  -0.037  0.7231 -0.0456  0.1379
  526MOL0     C70912   2.263   5.830  -0.020  0.0265  0.2183  0.5110
  526MOL0     C70913   2.173   5.927   0.056 -0.3807 -0.7449 -0.8570
  526MOL0     C70914   2.189   5.897   0.208 -0.3203 -0.3154 -0.3081
  526MOL0     C70915   2.123   6.001   0.308 -0.6865 -0.2151  1.2218
  526MOL0     C70916   1.976   5.999   0.312 -0.4997  0.7980 -0.7521
  526MOL0     C70917   1.918   6.102   0.402 -0.2219  0.0362 -0.4371
  526MOL0     C70918   1.775   6.132   0.378 -0.2633 -0.8022 -0.1838
  526MOL0    Cl70919   1.690   5.967   0.336  0.0154 -0.0604 -0.5031
  526MOL0     C70920   1.870   5.702  -0.102  0.4856 -1.0512  0.3250
  526MOL0     C70921   1.749   5.633  -0.080 -0.0149 -0.1661 -0.3855
  526MOL0     O70922   1.519   5.594   0.114  0.2118 -0.3898  0.1146
  526MOL0     C70923   1.294   5.448   0.135  0.4080  0.6300 -0.8334
  526MOL0     C70924   1.179   5.375   0.144 -0.3808 -0.5273 -0.1351
  526MOL0     N70925   0.830   5.649   0.198 -0.0038 -0.0621 -0.1378
  526MOL0     N70926   0.916   5.711   0.279 -0.0006 -0.2572  0.3559
  526MOL0     C70927   1.132   5.475   1.536 -1.0446 -0.1793  0.1502
  526MOL0     C70928   1.053   5.437   1.644 -0.6598  0.4068  0.1866
  526MOL0     C70929   0.720   5.410   1.929 -0.0821 -0.0808 -0.1666
  526MOL0     C70930   0.585   5.374   1.899  1.0760  0.2155 -0.3749
  526MOL0     C70931   0.499   5.341   2.007 -0.2116  0.3819 -0.0026
  526MOL0     C70932   0.545   5.333   2.140 -0.5608 -0.9160  0.3870
  526MOL0     O70933   0.453   5.312   2.237 -0.4613 -0.0246  0.1358
  526MOL0     C70934   0.415   5.423   2.316  0.0078 -0.4084 -0.2762
  526MOL0     C70935   0.262   5.417   2.315  0.3418 -0.8474  0.9705
  526MOL0     C70936   0.214   5.298   2.397 -0.5166 -0.6192  0.9564
  526MOL0     C70937   0.243   5.317   2.547 -0.5715  0.6150 -0.3164
  526MOL0     C70938   0.209   5.193   2.618  0.0110 -0.2074  0.5301
  526MOL0     C70939   0.180   5.090   2.681 -0.9349  0.2854  0.0111
  526MOL0     C70940   0.672   5.375   2.165 -0.1686 -0.6265  0.1558
  526MOL0     C70941   0.762   5.400   2.063 -0.2646  0.2052 -0.3461
  526MOL0     C70942   0.911   5.418   2.093  0.3644  0.1515  0.4740
  526MOL0     H70943   1.009   5.742   1.786  0.5196 -1.0711  0.5358
  526MOL0     H70944   1.133   5.804   1.577  3.0613 -0.2816  4.8497
  526MOL0     H70945   1.214   5.513   1.264 -0.4763 -1.0500  1.8791
  526MOL0     H70946   1.063   5.601   1.291  0.5995  1.9462  0.3028
  526MOL0     H70947   1.328   5.685   1.151 -1.3970 -2.6069 -1.5142
  526MOL0     H70948   1.195   5.805   1.209 -1.9235 -0.0910 -1.3271
  526MOL0     H70949   1.043   5.686   1.078  1.2775  3.0055  4.5040
  526MOL0     H70950   1.157   5.548   1.035  0.0058 -0.2238  3.7138
  526MOL0     H70951   1.197   5.832   0.927 -1.4722  0.0012  2.5205
  526MOL0     H70952   1.304   5.680   0.919  0.6027  0.4242  0.2165
  526MOL0     H70953   1.143   5.550   0.826 -1.7084 -1.1840  0.6748
  526MOL0     H70954   1.018   5.678   0.818  0.5082 -0.2690  1.9118
  526MOL0     H70955   1.173   5.818   0.653  1.9919 -0.4237  1.5564
  526MOL0     H70956   1.278   5.677   0.668 -0.2059 -0.9103 -2.0822
  526MOL0     H70957   1.116   5.537   0.556  0.5071  0.7189 -0.9565
  526MOL0     H70958   1.172   5.672   0.460 -2.4156 -1.1530 -2.1689
  526MOL0     H70959   0.897   5.666   0.596 -0.0329 -1.1501  0.3354
  526MOL0     H70960   0.975   5.805   0.524  0.4283  0.7447 -2.0344
  526MOL0     H70961   0.810   5.465   0.460  0.9776  0.9028  0.9707
  526MOL0     H70962   0.600   5.452   0.207 -0.0776  0.7766 -0.6074
  526MOL0     H70963   0.722   5.414   0.090  0.4329 -1.8919 -0.1094
  526MOL0     H70964   0.683   5.273   0.353  0.1972 -0.7318  0.8655
  526MOL0     H70965   0.651   5.217   0.194  0.7386  0.2946  0.9192
  526MOL0     H70966   0.862   5.128   0.283 -0.9567 -0.1673  0.2730
  526MOL0     H70967   0.929   5.285   0.316  0.0977 -0.3278  0.3592
  526MOL0     H70968   0.925   5.307   0.034 -0.5348  3.4425  4.6823
  526MOL0     H70969   0.887   5.135   0.041 -3.1116 -0.3437  1.5063
  526MOL0     H70970   1.264   5.107  -0.041  0.0174 -1.2431  1.7075
  526MOL0     H70971   1.479   5.249  -0.065 -0.0126 -0.5522  0.3808
  526MOL0     H70972   1.871   5.345   0.049 -0.9406  1.5528  1.9707
  526MOL0     H70973   2.072   5.469   0.027  0.6056  1.1564  1.6288
  526MOL0     H70974   2.184   5.647   0.057  0.1296 -0.6325 -0.3101
  526MOL0     H70975   2.278   5.630  -0.090 -0.6930 -0.4497 -1.3085
  526MOL0     H70976   2.365   5.828   0.019  0.0170 -2.3265  0.5874
  526MOL0     H70977   2.270   5.869  -0.122  4.3356  0.0442  0.5711
  526MOL0     H70978   2.195   6.034   0.047 -3.5040  0.4271  2.7918
  526MOL0     H70979   2.068   5.922   0.028 -0.8901 -0.4151  0.8598
  526MOL0     H70980   2.296   5.890   0.227  0.0368  2.6964 -0.6610
  526MOL0     H70981   2.149   5.799   0.235  1.1049 -1.1442 -1.0796
  526MOL0     H70982   2.142   6.099   0.261  0.1144 -1.9594 -2.4938
  526MOL0     H70983   2.173   5.993   0.404 -0.6137  2.0528  1.4242
  526MOL0     H70984   1.939   6.015   0.210 -4.8380 -0.7363  0.3402
  526MOL0     H70985   1.956   5.898   0.349  1.1214 -0.2711 -2.6339
  526MOL0     H70986   1.980   6.192   0.391 -3.2007  2.3429  0.4188
  526MOL0     H70987   1.922   6.071   0.506  0.9416 -0.4300 -0.6018
  526MOL0     H70988   1.728   6.179   0.465  0.1272 -2.2382  0.8330
  526MOL0     H70989   1.769   6.203   0.295 -1.2345  1.2158  1.5235
  526MOL0     H70990   1.875   5.798  -0.151 -0.0509 -1.2116 -0.0406
  526MOL0     H70991   1.656   5.682  -0.104  0.4624  0.1793 -1.6200
  526MOL0     H70992   1.308   5.536   0.197 -1.6885 -2.0433  4.0026
  526MOL0     H70993   1.105   5.421   0.209  1.7061  2.7641  0.1431
  526MOL0     H70994   1.147   5.398   1.460 -2.0672  0.3804 -0.6369
  526MOL0     H70995   1.020   5.334   1.643  1.2970 -0.2623 -0.6986
  526MOL0     H70996   0.550   5.361   1.798  2.5362  1.2436 -1.0536
  526MOL0     H70997   0.396   5.320   1.981 -0.1518  0.8148 -0.6055
  526MOL0     H70998   0.451   5.517   2.272 -1.2764  0.5433  0.6182
  526MOL0     H70999   0.461   5.425   2.416  0.0011  0.6309 -0.2754
  526MOL0     H71000   0.228   5.400   2.213 -0.9749 -0.4604  1.3292
  526MOL0     H71001   0.239   5.511   2.366  5.6910  0.9929  0.6937
  526MOL0     H71002   0.247   5.201   2.358 -1.5658 -0.3636 -0.6772
  526MOL0     H71003   0.105   5.301   2.387 -0.3337  1.9856 -1.4518
  526MOL0     H71004   0.351   5.327   2.560  0.2372  0.6779 -5.0700
  526MOL0     H71005   0.206   5.413   2.584  1.4315  1.6844 -0.9073
  526MOL0     H71006   0.175   5.002   2.742 -0.7824 -0.6249 -1.2608
  526MOL0     H71007   0.695   5.390   2.270  0.6416  3.4856 -0.4598
  526MOL0     H71008   0.949   5.367   2.182 -3.4326 -3.5138  0.2609
  526MOL0     H71009   0.970   5.371   2.013 -1.4852 -3.1526  0.8906
  526MOL0     H71010   0.922   5.527   2.094 -0.5858  0.2851 -0.6986
  527MOL0     O71011   3.150   5.407   6.508  0.1204  0.1602  0.3848
  527MOL0     C71012   3.145   5.505   6.577 -0.1777  0.0893  0.0184
  527MOL0     O71013   3.248   5.543   6.659 -0.4864  0.1575 -0.6186
  527MOL0     C71014   3.356   5.466   6.663 -0.7823 -0.6761  0.9485
  527MOL0     C71015   3.374   5.374   6.763 -0.0378 -0.6387 -0.0061
  527MOL0     C71016   3.497   5.304   6.765 -0.0667  0.4961 -0.0851
  527MOL0     C71017   3.590   5.314   6.659  1.2353  0.1376 -0.0436
  527MOL0     O71018   3.710   5.244   6.656 -0.4024  0.1640 -0.4385
  527MOL0     C71019   3.778   5.204   6.776 -0.2561 -0.3607 -0.5345
  527MOL0     C71020   3.930   5.180   6.749 -0.2387  0.7299 -1.0076
  527MOL0     C71021   3.993   5.317   6.701 -0.2744 -0.6063 -0.5663
  527MOL0     C71022   4.150   5.302   6.705 -0.3800  0.6865 -0.9893
  527MOL0     C71023   4.216   5.307   6.849 -0.1069 -0.1128  0.5541
  527MOL0     C71024   4.368   5.304   6.842  0.6246  0.0525  0.3247
  527MOL0     C71025   4.433   5.246   6.959  1.5401  0.4972  0.0121
  527MOL0     C71026   4.450   5.334   7.081 -0.4196 -0.7403 -0.0631
  527MOL0     N71027   4.506   5.259   7.192  0.2676  0.0174  0.2532
  527MOL0     C71028   4.629   5.212   7.192  0.7387  0.8205  0.1277
  527MOL0     C71029   4.649   5.145   7.305 -0.2110  0.0985 -0.0254
  527MOL0     C71030   4.773   5.061   7.338 -0.1251  0.7003 -0.7390
  527MOL0     C71031   4.870   5.115   7.436  0.1364  0.1722  0.0874
  527MOL0     C71032   4.987   5.016   7.456 -0.3887  0.6823  0.5115
  527MOL0     C71033   5.084   5.065   7.565  0.7576  0.3885 -0.5785
  527MOL0     O71034   5.197   4.986   7.560 -0.4165  0.0183  0.5590
  527MOL0     C71035   5.298   5.015   7.656  0.2033  0.4994  0.7020
  527MOL0     C71036   5.403   4.923   7.671  0.3568  0.7578  0.0819
  527MOL0     C71037   5.496   4.937   7.765  1.0328 -0.5085  0.5191
  527MOL0     C71038   5.490   5.039   7.859 -0.5458  0.3824  1.2213
  527MOL0     C71039   5.579   5.055   7.984 -0.1362  0.3350 -0.2925
  527MOL0     O71040   5.685   4.960   8.004  0.1793 -0.3367 -0.1752
  527MOL0     C71041   5.750   4.975   8.123  0.7271 -0.3886  0.3772
  527MOL0     C71042   5.883   5.018   8.118  0.2117  1.2114  0.1113
  527MOL0     C71043   5.959   5.014   8.238  0.2376 -0.1653 -0.1586
  527MOL0     C71044   5.906   4.979   8.361  0.1062 -0.3449 -0.1205
  527MOL0     O71045   5.981   4.976   8.475 -0.2052 -0.7905  0.3939
  527MOL0     C71046   6.010   5.110   8.526 -0.2273 -1.0711 -0.0889
  527MOL0     C71047   5.881   5.164   8.590 -0.4609 -0.4324 -0.6810
  527MOL0     C71048   5.817   5.259   8.494  0.7831  0.0440 -0.1980
  527MOL0     C71049   5.689   5.340   8.560 -0.7710  0.3930  0.3039
  527MOL0     C71050   5.619   5.437   8.461 -0.3215 -0.5083  0.8552
  527MOL0     C71051   5.552   5.362   8.348 -0.0147 -1.2852 -0.0338
  527MOL0     C71052   5.453   5.261   8.392  0.0128 -0.8078  0.2510
  527MOL0     C71053   5.342   5.239   8.293  0.1556  0.4561 -0.6594
  527MOL0    Cl71054   5.226   5.376   8.316  0.1299  0.2178  0.4268
  527MOL0     C71055   5.775   4.948   8.363  0.0553 -0.1169  0.1493
  527MOL0     C71056   5.692   4.935   8.253  0.0577 -0.4164 -0.2824
  527MOL0     O71057   5.571   5.153   8.052  0.0730  0.3192  0.1840
  527MOL0     C71058   5.390   5.135   7.838  0.7586 -0.4313 -0.0373
  527MOL0     C71059   5.294   5.121   7.734 -0.6758  0.3442 -0.5995
  527MOL0     N71060   4.525   5.152   7.376  0.1466  0.7212 -0.6161
  527MOL0     N71061   4.442   5.220   7.300  0.3474  0.0933 -0.2473
  527MOL0     C71062   3.567   5.405   6.557 -0.1189 -0.0756 -0.0822
  527MOL0     C71063   3.442   5.469   6.551 -0.5456  0.2737  0.3746
  527MOL0     C71064   3.019   5.582   6.582  0.3337  0.1508  0.6824
  527MOL0     C71065   2.890   5.519   6.585 -0.2873  0.7656  0.2600
  527MOL0     C71066   2.776   5.593   6.617  0.8533 -0.4757  0.2449
  527MOL0     C71067   2.782   5.726   6.653  0.1536 -0.2085  0.8742
  527MOL0     O71068   2.660   5.797   6.662 -0.1984 -0.1117  0.1315
  527MOL0     C71069   2.647   5.925   6.730  0.3757 -0.3420 -0.0690
  527MOL0     C71070   2.626   6.036   6.613 -0.2298  0.5278  0.5873
  527MOL0     C71071   2.595   6.179   6.660  0.6668 -0.4424 -0.2994
  527MOL0     C71072   2.708   6.251   6.734 -1.4263 -0.4430 -0.3698
  527MOL0     C71073   2.835   6.234   6.661  0.8568 -0.0114 -0.1240
  527MOL0     C71074   2.935   6.208   6.605 -0.5893  0.1905  0.3153
  527MOL0     C71075   2.902   5.791   6.647 -0.3503  0.3956 -0.3588
  527MOL0     C71076   3.014   5.725   6.614  0.2131 -0.1769  0.5441
  527MOL0     C71077   3.150   5.797   6.621 -0.1886  0.1924 -0.2779
  527MOL0     H71078   3.317   5.380   6.855 -1.1348  0.6493 -0.7348
  527MOL0     H71079   3.516   5.235   6.847 -1.2355 -1.6356 -1.5169
  527MOL0     H71080   3.768   5.273   6.860 -2.3794 -0.4603 -0.6714
  527MOL0     H71081   3.737   5.110   6.813 -0.3810  0.5872  1.9615
  527MOL0     H71082   3.949   5.102   6.676  1.1002  2.1742 -2.2759
  527MOL0     H71083   3.981   5.154   6.843 -1.3003  1.9397 -0.0530
  527MOL0     H71084   3.951   5.386   6.775 -0.4879 -2.8599  1.5789
  527MOL0     H71085   3.965   5.339   6.598  0.0339 -0.5624 -0.6407
  527MOL0     H71086   4.183   5.212   6.652 -0.2416  1.7439 -2.7737
  527MOL0     H71087   4.186   5.389   6.650  0.7047 -0.3363 -1.9511
  527MOL0     H71088   4.169   5.387   6.906 -1.3368  0.3978 -1.0885
  527MOL0     H71089   4.173   5.222   6.904 -3.7584  1.5297  0.5485
  527MOL0     H71090   4.398   5.246   6.754  0.5293 -1.2089  1.0967
  527MOL0     H71091   4.410   5.402   6.818 -1.3233  1.0502  0.7909
  527MOL0     H71092   4.531   5.208   6.927  0.5680 -2.8043  0.6259
  527MOL0     H71093   4.373   5.158   6.984 -0.4481 -0.1080 -5.4535
  527MOL0     H71094   4.517   5.418   7.056 -0.7957 -0.5557 -0.4578
  527MOL0     H71095   4.354   5.367   7.121  0.1282 -0.8185  1.3990
  527MOL0     H71096   4.712   5.230   7.126  0.9578  0.3309  0.2621
  527MOL0     H71097   4.729   4.971   7.381  4.0977 -2.0207 -1.5099
  527MOL0     H71098   4.814   5.022   7.244 -1.5206 -2.7293 -0.0693
  527MOL0     H71099   4.906   5.211   7.399 -0.0232 -0.6562 -2.4154
  527MOL0     H71100   4.821   5.131   7.532  2.0711  0.7873  1.0133
  527MOL0     H71101   5.036   5.012   7.358 -0.1646  1.6666  0.5747
  527MOL0     H71102   4.949   4.917   7.481  2.5511 -0.4281  1.0112
  527MOL0     H71103   5.027   5.047   7.657 -1.7582  0.2426 -2.0503
  527MOL0     H71104   5.098   5.173   7.554  2.5935  0.4348  1.5780
  527MOL0     H71105   5.405   4.840   7.602  3.2092  0.4228  0.4391
  527MOL0     H71106   5.573   4.864   7.790  1.7745  0.1935  0.3478
  527MOL0     H71107   5.930   5.043   8.023  0.1193 -0.6758 -0.4704
  527MOL0     H71108   6.066   5.033   8.248  0.7882 -3.0283  0.2594
  527MOL0     H71109   6.079   5.095   8.609 -0.8990  1.3875  1.0165
  527MOL0     H71110   6.045   5.189   8.459 -1.0431  0.7998  1.5446
  527MOL0     H71111   5.818   5.079   8.616  2.4287 -2.1097  1.4748
  527MOL0     H71112   5.907   5.221   8.681 -0.1656 -2.5266  0.6086
  527MOL0     H71113   5.888   5.332   8.456  0.3329  1.2177  1.1310
  527MOL0     H71114   5.776   5.207   8.407 -1.8058 -1.3267  1.7015
  527MOL0     H71115   5.727   5.413   8.632 -1.3362 -0.1389  1.1683
  527MOL0     H71116   5.623   5.274   8.618  1.2069 -0.4099  1.7444
  527MOL0     H71117   5.685   5.512   8.418 -2.4764 -0.3084 -2.5202
  527MOL0     H71118   5.541   5.494   8.512 -0.9488 -1.4934  1.0378
  527MOL0     H71119   5.493   5.431   8.286  1.6415 -0.0294 -0.2844
  527MOL0     H71120   5.618   5.303   8.283 -1.0912 -1.1467 -1.3222
  527MOL0     H71121   5.400   5.289   8.484  0.6603 -0.1992  0.4411
  527MOL0     H71122   5.511   5.171   8.411  2.0174  0.2236 -0.7304
  527MOL0     H71123   5.383   5.231   8.192  0.6812  2.1433 -0.6078
  527MOL0     H71124   5.294   5.144   8.317 -1.6990  1.3374 -0.7359
  527MOL0     H71125   5.718   4.927   8.453 -1.2729 -1.9816 -1.0365
  527MOL0     H71126   5.586   4.918   8.263  0.3504 -2.6582 -0.4431
  527MOL0     H71127   5.384   5.220   7.905  1.7327 -0.1045 -0.3455
  527MOL0     H71128   5.225   5.204   7.727 -0.1132  0.9460  0.6390
  527MOL0     H71129   3.635   5.422   6.475  0.0573  1.4573  0.3485
  527MOL0     H71130   3.416   5.530   6.466 -4.1880  0.2990  1.3761
  527MOL0     H71131   2.872   5.419   6.546 -0.3732  0.6081  0.6949
  527MOL0     H71132   2.681   5.542   6.612 -0.6260  1.9104  1.9316
  527MOL0     H71133   2.730   5.959   6.792 -0.8243  4.0134 -0.5341
  527MOL0     H71134   2.553   5.927   6.785  1.0241 -3.1599  1.3112
  527MOL0     H71135   2.532   6.013   6.562 -0.2198  2.4329 -0.4022
  527MOL0     H71136   2.713   6.031   6.546 -1.6711 -2.2169 -1.2603
  527MOL0     H71137   2.523   6.162   6.741  1.0530 -3.6862 -0.5266
  527MOL0     H71138   2.546   6.242   6.586 -1.1828 -1.2482  0.1824
  527MOL0     H71139   2.689   6.359   6.735  0.4576 -0.0760  0.1685
  527MOL0     H71140   2.710   6.213   6.836  1.8782 -3.0140 -1.1926
  527MOL0     H71141   3.024   6.183   6.551 -1.0816  0.5039 -0.6807
  527MOL0     H71142   2.916   5.896   6.674 -2.1086  0.3062  1.1304
  527MOL0     H71143   3.212   5.763   6.538  1.3914  0.2442  0.8254
  527MOL0     H71144   3.146   5.906   6.613  1.6134  0.4017  0.9253
  527MOL0     H71145   3.199   5.774   6.716 -1.1264  1.1385  0.4553
  528MOL0     O71146   2.778   5.002   0.261  0.4293  0.7010 -0.2541
  528MOL0     C71147   2.734   4.995   0.372  0.2566  0.3863  0.1166
  528MOL0     O71148   2.807   4.994   0.486 -0.7010 -0.3984 -0.0532
  528MOL0     C71149   2.942   4.963   0.492  0.8794  0.8042  0.4155
  528MOL0     C71150   3.003   5.011   0.605 -1.0420  0.5844 -0.4245
  528MOL0     C71151   3.138   4.970   0.633  0.0762 -0.0862 -1.0985
  528MOL0     C71152   3.211   4.893   0.534 -0.3446  0.1823 -0.1536
  528MOL0     O71153   3.339   4.850   0.540 -0.1842 -0.1546  0.1183
  528MOL0     C71154   3.438   4.924   0.617  0.4163  0.3720 -0.5133
  528MOL0     C71155   3.461   4.862   0.752 -0.1550 -0.1661  0.9807
  528MOL0     C71156   3.536   4.953   0.843  0.1286 -0.0091 -0.1039
  528MOL0     C71157   3.584   4.882   0.967  0.3023 -0.7770  0.1123
  528MOL0     C71158   3.713   4.946   1.016 -0.5964 -0.3454  0.8557
  528MOL0     C71159   3.829   4.905   0.929 -0.9577  0.4328  0.5468
  528MOL0     C71160   3.954   4.987   0.967  0.6770 -0.6869  0.9069
  528MOL0     C71161   4.056   4.966   0.856  1.0092  0.1723 -0.7838
  528MOL0     N71162   4.189   5.011   0.873  0.2496  0.0646 -0.0091
  528MOL0     C71163   4.271   4.971   0.977 -0.5277 -0.2360  0.1083
  528MOL0     C71164   4.376   5.060   0.984  0.9213 -0.4192 -0.3462
  528MOL0     C71165   4.478   5.060   1.091  0.0742 -0.1507  0.1995
  528MOL0     C71166   4.604   4.992   1.057 -0.0756  0.2311  0.0921
  528MOL0     C71167   4.710   4.981   1.162  0.4972 -1.1272 -0.0874
  528MOL0     C71168   4.848   4.950   1.117  0.9621 -0.1078 -0.3038
  528MOL0     O71169   4.930   4.973   1.230  0.5904  0.2465 -0.3153
  528MOL0     C71170   5.057   4.921   1.234  0.3357  0.8310  0.0988
  528MOL0     C71171   5.106   4.910   1.363 -0.0280  0.0311 -0.6630
  528MOL0     C71172   5.241   4.875   1.378  0.6294  0.1361  0.3518
  528MOL0     C71173   5.324   4.841   1.268  0.4964 -0.4790  0.0298
  528MOL0     C71174   5.448   4.775   1.286 -0.4034  0.9086 -0.2928
  528MOL0     O71175   5.555   4.807   1.208 -0.3055 -0.0954 -0.5954
  528MOL0     C71176   5.673   4.725   1.233  0.0247 -0.2223  0.2188
  528MOL0     C71177   5.668   4.585   1.222 -0.2728  0.4000 -0.1923
  528MOL0     C71178   5.776   4.499   1.252 -0.5797 -0.0554 -0.1817
  528MOL0     C71179   5.902   4.562   1.290 -0.5661  0.3825 -0.1105
  528MOL0     O71180   6.020   4.491   1.317 -0.2703 -0.3634 -0.1265
  528MOL0     C71181   6.045   4.398   1.219  0.0612  0.0818 -0.4612
  528MOL0     C71182   6.160   4.316   1.271 -0.0056 -0.1124  0.3389
  528MOL0     C71183   6.231   4.240   1.153 -0.8308  0.0592 -0.2282
  528MOL0     C71184   6.345   4.325   1.098 -0.0999  0.4426  0.3023
  528MOL0     C71185   6.462   4.338   1.192 -0.2139 -0.3033  0.3923
  528MOL0     C71186   6.594   4.349   1.109 -0.0206  0.7751  0.4349
  528MOL0     C71187   6.716   4.345   1.204  1.2595  0.5434 -1.1898
  528MOL0     C71188   6.836   4.322   1.116  0.2421  0.0185  0.1650
  528MOL0    Cl71189   6.975   4.315   1.227 -0.6421  0.2768  0.0091
  528MOL0     C71190   5.908   4.700   1.301  0.1808 -0.1021 -0.3442
  528MOL0     C71191   5.795   4.783   1.276  0.4746  0.1815 -0.9203
  528MOL0     O71192   5.443   4.690   1.370  0.0688  0.1400  0.4794
  528MOL0     C71193   5.277   4.846   1.135 -0.3607  0.2494 -0.1641
  528MOL0     C71194   5.139   4.888   1.125  0.8796 -0.1656 -0.1562
  528MOL0     N71195   4.367   5.142   0.880 -0.5705 -0.2175  0.4124
  528MOL0     N71196   4.256   5.117   0.812  0.2048 -0.1434 -0.0451
  528MOL0     C71197   3.140   4.838   0.437 -0.3403  0.3235 -0.0877
  528MOL0     C71198   3.009   4.876   0.414  0.0622  0.0477  0.9574
  528MOL0     C71199   2.584   5.022   0.388  1.2216  0.9791 -1.3709
  528MOL0     C71200   2.536   5.050   0.518  1.0310  0.8918  0.3149
  528MOL0     C71201   2.398   5.084   0.545  0.0893 -0.1282  0.3252
  528MOL0     C71202   2.311   5.102   0.443  0.2744 -0.0896  0.2051
  528MOL0     O71203   2.183   5.136   0.489  0.2945  0.9699  0.0549
  528MOL0     C71204   2.085   5.177   0.392  0.1362  0.3258 -0.0058
  528MOL0     C71205   1.938   5.157   0.437 -0.1728  0.4387 -0.5058
  528MOL0     C71206   1.896   5.008   0.435 -0.0241  0.3452  0.6675
  528MOL0     C71207   1.763   4.973   0.497  0.5635 -0.4490 -0.3835
  528MOL0     C71208   1.720   4.831   0.485 -0.2432  1.2081 -0.2653
  528MOL0     C71209   1.665   4.725   0.481  0.5255  0.3473 -0.2753
  528MOL0     C71210   2.355   5.080   0.316  0.3590  0.4642  0.1689
  528MOL0     C71211   2.486   5.028   0.279  0.9140 -0.1652 -1.0681
  528MOL0     C71212   2.521   5.010   0.130  0.1686  0.7008  0.4563
  528MOL0     H71213   2.935   5.061   0.673 -0.8435 -0.7398  0.8006
  528MOL0     H71214   3.199   4.995   0.719  0.4755 -0.3576 -1.3038
  528MOL0     H71215   3.526   4.929   0.553 -1.6425 -0.1354 -3.5997
  528MOL0     H71216   3.401   5.025   0.639 -1.9835 -0.7506  0.9861
  528MOL0     H71217   3.524   4.773   0.743 -0.6201 -0.5259  1.2548
  528MOL0     H71218   3.365   4.844   0.801 -0.0972 -0.0853  1.1241
  528MOL0     H71219   3.476   5.042   0.868  2.2098  0.7130  2.7790
  528MOL0     H71220   3.621   4.990   0.784 -1.0310  0.5732 -1.4976
  528MOL0     H71221   3.498   4.898   1.033 -0.8998 -1.9377 -1.0914
  528MOL0     H71222   3.609   4.777   0.947 -0.8616 -1.6265  2.6974
  528MOL0     H71223   3.704   5.053   1.035  1.0633 -0.3914  2.1833
  528MOL0     H71224   3.743   4.908   1.114  0.8581  1.6044  1.2349
  528MOL0     H71225   3.840   4.797   0.946  0.1520  0.5590  0.6841
  528MOL0     H71226   3.805   4.907   0.822 -1.0343  0.6350  0.5673
  528MOL0     H71227   3.983   4.949   1.066 -0.8534 -0.0914  1.6077
  528MOL0     H71228   3.926   5.092   0.972  1.8603 -0.3474  0.7769
  528MOL0     H71229   4.070   4.860   0.833  2.2565  0.2013 -0.2203
  528MOL0     H71230   4.012   5.017   0.770 -0.4949 -0.7078 -0.5780
  528MOL0     H71231   4.258   4.888   1.047  0.2070 -2.6246 -2.4116
  528MOL0     H71232   4.501   5.164   1.115 -0.6081  0.1085 -0.2403
  528MOL0     H71233   4.426   5.011   1.174  1.9766 -0.9104  0.9837
  528MOL0     H71234   4.582   4.888   1.029  2.4979 -0.4269  0.2399
  528MOL0     H71235   4.644   5.034   0.964  0.0002  0.0328  0.0339
  528MOL0     H71236   4.669   4.899   1.222 -2.1437 -0.1287 -0.4061
  528MOL0     H71237   4.703   5.076   1.216  0.3394 -1.6663  0.8575
  528MOL0     H71238   4.875   5.021   1.039  2.4198 -3.4571 -3.1086
  528MOL0     H71239   4.845   4.846   1.083 -0.1513 -0.1805 -0.0129
  528MOL0     H71240   5.056   4.958   1.448  1.3700  4.8868 -2.2746
  528MOL0     H71241   5.277   4.894   1.478  2.3614  2.1152 -0.5625
  528MOL0     H71242   5.571   4.538   1.205  0.5394 -1.2087 -0.5556
  528MOL0     H71243   5.757   4.393   1.244 -1.0602 -0.4453  3.8432
  528MOL0     H71244   5.964   4.325   1.217 -1.7393  1.5927  3.7860
  528MOL0     H71245   6.065   4.440   1.120 -2.5086  1.5886 -0.4392
  528MOL0     H71246   6.237   4.376   1.321  0.4666 -1.0310  0.7438
  528MOL0     H71247   6.126   4.250   1.351  0.0213  2.0408  2.2470
  528MOL0     H71248   6.278   4.145   1.179 -0.7658 -0.1372 -1.0265
  528MOL0     H71249   6.164   4.226   1.067 -2.5038  1.5058  0.7534
  528MOL0     H71250   6.319   4.421   1.052  1.7132  1.4746  1.3142
  528MOL0     H71251   6.384   4.254   1.024 -0.1390 -1.8952  2.3817
  528MOL0     H71252   6.473   4.248   1.253  1.2827 -0.3093  0.1533
  528MOL0     H71253   6.448   4.423   1.259 -0.4701 -0.6491  0.7791
  528MOL0     H71254   6.588   4.267   1.037 -2.5505  3.3190 -2.5540
  528MOL0     H71255   6.600   4.445   1.057 -0.0416 -1.0756 -3.3525
  528MOL0     H71256   6.701   4.270   1.283 -0.3029 -0.9744 -2.8349
  528MOL0     H71257   6.732   4.436   1.263 -1.3674 -0.4102  1.1960
  528MOL0     H71258   6.824   4.222   1.073  3.5290 -0.8040  0.8872
  528MOL0     H71259   6.844   4.400   1.039  1.2036  1.2954  1.5029
  528MOL0     H71260   5.994   4.760   1.326  1.4693 -0.4732 -3.4165
  528MOL0     H71261   5.780   4.890   1.289 -1.3311 -0.3989  5.6866
  528MOL0     H71262   5.342   4.829   1.050 -1.2953 -5.7328 -0.1178
  528MOL0     H71263   5.101   4.899   1.024 -0.3855 -0.3316  0.2930
  528MOL0     H71264   3.186   4.775   0.362 -1.1493  0.1365 -0.4415
  528MOL0     H71265   2.956   4.831   0.331  1.5752  3.7302 -2.3790
  528MOL0     H71266   2.595   5.038   0.608  2.2190  0.2360 -0.5158
  528MOL0     H71267   2.355   5.111   0.641  1.3467  3.1897  0.0626
  528MOL0     H71268   2.088   5.113   0.303  1.4414 -0.4915  0.6087
  528MOL0     H71269   2.099   5.283   0.369  1.4118 -0.1656 -1.6708
  528MOL0     H71270   1.878   5.217   0.368 -1.3181 -1.5043 -1.3059
  528MOL0     H71271   1.924   5.205   0.534  1.4037  0.3884 -0.2380
  528MOL0     H71272   1.968   4.952   0.493  1.4309 -0.0067 -1.3570
  528MOL0     H71273   1.903   4.969   0.333  0.4166  3.1455 -0.4778
  528MOL0     H71274   1.771   5.006   0.602  2.1440 -0.1220 -0.5838
  528MOL0     H71275   1.686   5.039   0.455 -0.2834 -1.4538 -0.4602
  528MOL0     H71276   1.625   4.625   0.477 -1.4629  1.0519  0.4645
  528MOL0     H71277   2.277   5.085   0.241  0.0390 -0.4880  0.4361
  528MOL0     H71278   2.604   5.077   0.103  1.6688 -0.7089  1.4330
  528MOL0     H71279   2.548   4.905   0.120  0.8937  0.7160  2.0736
  528MOL0     H71280   2.446   5.036   0.055  0.9989 -0.8046 -0.9721
  529MOL0     O71281   2.134   6.497   3.527  0.0874 -0.8681 -0.4253
  529MOL0     C71282   2.126   6.461   3.648  0.2810  0.0646  0.6580
  529MOL0     O71283   2.236   6.427   3.724  0.0349 -0.4686 -0.3499
  529MOL0     C71284   2.359   6.443   3.668  0.0336 -1.0677 -0.2248
  529MOL0     C71285   2.414   6.333   3.598  0.1261  0.3758 -0.3652
  529MOL0     C71286   2.544   6.344   3.545 -0.1856  0.2275  0.1787
  529MOL0     C71287   2.627   6.451   3.568  0.1552 -0.6136  1.2574
  529MOL0     O71288   2.751   6.442   3.526 -0.1296 -0.1164  0.3245
  529MOL0     C71289   2.789   6.399   3.396  0.4352 -0.5052 -0.2780
  529MOL0     C71290   2.928   6.431   3.346 -0.2260  1.0445  0.8298
  529MOL0     C71291   2.940   6.577   3.320 -0.4848  0.0741  0.2283
  529MOL0     C71292   3.075   6.620   3.267  0.2349 -1.1300 -0.2875
  529MOL0     C71293   3.063   6.774   3.243  0.4759  0.4695  0.0057
  529MOL0     C71294   3.184   6.837   3.169 -0.9879 -0.3547  0.9000
  529MOL0     C71295   3.187   6.991   3.163  0.0224 -0.0874  0.2780
  529MOL0     C71296   3.294   7.028   3.063 -0.2632  0.1882 -0.0637
  529MOL0     N71297   3.408   7.097   3.121  0.0407  0.8647 -0.0367
  529MOL0     C71298   3.453   7.223   3.093  0.2833 -0.1543 -0.2182
  529MOL0     C71299   3.563   7.223   3.176  0.1134  0.6495 -0.4972
  529MOL0     C71300   3.661   7.333   3.211  0.0099 -0.0213  0.6008
  529MOL0     C71301   3.802   7.286   3.250 -0.0845 -1.4429  0.0066
  529MOL0     C71302   3.810   7.273   3.400 -0.2833  0.0633 -0.0837
  529MOL0     C71303   3.962   7.235   3.439 -0.8442  0.2523 -0.3877
  529MOL0     O71304   4.046   7.325   3.377 -0.4806 -0.4861  0.1950
  529MOL0     C71305   4.169   7.345   3.430 -0.3721  0.9489  0.0880
  529MOL0     C71306   4.225   7.464   3.455 -0.8003  0.0030  0.1409
  529MOL0     C71307   4.350   7.478   3.510 -0.5371 -0.2800  0.4698
  529MOL0     C71308   4.426   7.364   3.546  0.9541 -0.3740  0.3327
  529MOL0     C71309   4.552   7.377   3.615 -0.4698  0.0340 -0.3098
  529MOL0     O71310   4.603   7.263   3.675 -0.1722  0.2305 -0.1298
  529MOL0     C71311   4.724   7.282   3.748  0.2506  0.1555 -1.5791
  529MOL0     C71312   4.733   7.209   3.866  0.1574 -0.1929 -0.3564
  529MOL0     C71313   4.847   7.203   3.939  0.1239 -0.2217  0.2432
  529MOL0     C71314   4.965   7.269   3.914 -0.2304 -0.6154  0.4978
  529MOL0     O71315   5.075   7.274   3.995 -0.3210 -0.3273  0.5223
  529MOL0     C71316   5.063   7.204   4.119 -0.4005 -0.2129 -0.3525
  529MOL0     C71317   5.203   7.212   4.190 -0.5527  0.8753  0.1930
  529MOL0     C71318   5.224   7.330   4.284  0.1258 -0.5204 -0.1480
  529MOL0     C71319   5.335   7.283   4.388 -0.5919 -0.2118  0.3971
  529MOL0     C71320   5.481   7.285   4.341  0.5601  0.3433  0.2179
  529MOL0     C71321   5.573   7.225   4.453 -1.1014 -0.0682  0.5939
  529MOL0     C71322   5.703   7.165   4.396 -0.5793  1.1775 -0.2776
  529MOL0     C71323   5.791   7.267   4.319  0.2724  0.0526 -0.1006
  529MOL0    Cl71324   5.948   7.190   4.264 -0.0493  0.0103 -0.1590
  529MOL0     C71325   4.958   7.355   3.800  0.1056 -0.0621 -0.5874
  529MOL0     C71326   4.841   7.353   3.722  0.0086 -1.0456 -0.3788
  529MOL0     O71327   4.615   7.486   3.617 -0.1024 -0.1837 -0.0546
  529MOL0     C71328   4.381   7.243   3.495 -0.7726 -0.1186 -0.4301
  529MOL0     C71329   4.256   7.236   3.436  0.3908  0.3543 -0.1870
  529MOL0     N71330   3.580   7.101   3.235  0.7503 -0.3410 -0.3852
  529MOL0     N71331   3.479   7.021   3.206  0.3196 -0.3745  0.1235
  529MOL0     C71332   2.576   6.563   3.642 -0.0472  0.0192 -0.2786
  529MOL0     C71333   2.451   6.553   3.693  0.9010  0.1226  0.4932
  529MOL0     C71334   1.988   6.468   3.712 -0.2394  0.0736 -0.2771
  529MOL0     C71335   1.879   6.460   3.632  0.7962  0.1282  0.3776
  529MOL0     C71336   1.753   6.469   3.697  0.4046 -0.6052 -0.0170
  529MOL0     C71337   1.732   6.464   3.827 -0.6434 -0.0687  0.4267
  529MOL0     O71338   1.600   6.456   3.875  0.1699 -0.8959 -0.0293
  529MOL0     C71339   1.567   6.374   3.988 -0.2177 -0.8102  0.0328
  529MOL0     C71340   1.418   6.359   4.006  0.8019 -0.1532  0.5299
  529MOL0     C71341   1.353   6.292   3.885 -0.6120  0.7449  0.0413
  529MOL0     C71342   1.259   6.374   3.797 -0.3917  0.0889  0.6552
  529MOL0     C71343   1.220   6.301   3.676 -0.6820 -0.0770 -0.5833
  529MOL0     C71344   1.202   6.246   3.566 -0.3587 -0.3488 -0.7319
  529MOL0     C71345   1.843   6.480   3.908  0.1601  0.6384 -0.1850
  529MOL0     C71346   1.974   6.474   3.854  0.4036 -1.0373  0.3102
  529MOL0     C71347   2.084   6.509   3.949  0.3146  0.0403 -0.0306
  529MOL0     H71348   2.356   6.241   3.600  1.6638 -0.6820 -1.5547
  529MOL0     H71349   2.588   6.252   3.508  0.0062  0.0988  0.7125
  529MOL0     H71350   2.775   6.290   3.397 -0.6296 -0.3858 -0.5337
  529MOL0     H71351   2.711   6.438   3.329 -0.3328 -1.8167 -0.1982
  529MOL0     H71352   2.957   6.375   3.257 -0.7666 -0.5192  1.5999
  529MOL0     H71353   2.999   6.396   3.422 -0.6914  0.0649  0.8216
  529MOL0     H71354   2.923   6.629   3.415 -0.2128  0.1958  0.2124
  529MOL0     H71355   2.870   6.604   3.240  1.0015 -0.6573 -1.3680
  529MOL0     H71356   3.153   6.606   3.343 -0.8421 -1.1319  0.8569
  529MOL0     H71357   3.109   6.566   3.179  1.1096  0.4350 -0.9657
  529MOL0     H71358   2.977   6.803   3.182 -0.5921  2.3766  2.2568
  529MOL0     H71359   3.060   6.831   3.336  1.0915 -1.0779  1.0100
  529MOL0     H71360   3.284   6.802   3.196 -0.6404  0.4102  0.6310
  529MOL0     H71361   3.175   6.794   3.068  3.2064 -0.2057  0.2901
  529MOL0     H71362   3.206   7.039   3.260 -0.0286 -0.8995  0.6971
  529MOL0     H71363   3.094   7.038   3.131  1.2722  0.5423 -2.8256
  529MOL0     H71364   3.327   6.940   3.007 -3.9436 -1.6168  0.2604
  529MOL0     H71365   3.251   7.095   2.988 -2.4467  2.5804  3.0605
  529MOL0     H71366   3.408   7.305   3.037 -1.5722 -0.5363  0.6474
  529MOL0     H71367   3.671   7.383   3.114 -0.9076  0.8466  0.9408
  529MOL0     H71368   3.627   7.404   3.287 -0.2495 -2.1610  2.5925
  529MOL0     H71369   3.825   7.185   3.213 -1.2420 -2.0795  0.9214
  529MOL0     H71370   3.886   7.343   3.212  0.4932 -1.5906  1.0282
  529MOL0     H71371   3.746   7.197   3.446  1.2068 -0.1321  1.7804
  529MOL0     H71372   3.787   7.376   3.428  0.8198  0.6719 -1.3093
  529MOL0     H71373   3.989   7.132   3.413  0.9996  0.2874  1.1727
  529MOL0     H71374   3.970   7.239   3.548 -1.5868  0.9543 -0.3481
  529MOL0     H71375   4.170   7.551   3.423 -1.1126 -0.5587 -0.8897
  529MOL0     H71376   4.376   7.579   3.537  4.4613 -1.5746  1.4547
  529MOL0     H71377   4.645   7.158   3.903 -0.7893  1.2276 -0.5748
  529MOL0     H71378   4.850   7.148   4.033  2.5855  0.8612  0.8530
  529MOL0     H71379   4.984   7.250   4.179  0.2321  0.8094 -0.2668
  529MOL0     H71380   5.033   7.101   4.097 -4.2486  1.1476 -2.4053
  529MOL0     H71381   5.220   7.120   4.248  4.3460  0.7628 -0.9973
  529MOL0     H71382   5.281   7.210   4.114 -1.4231  0.9329 -0.7273
  529MOL0     H71383   5.261   7.418   4.230  0.1327  0.3120  1.1769
  529MOL0     H71384   5.130   7.362   4.329  0.4708  1.7557 -0.8916
  529MOL0     H71385   5.314   7.189   4.440  0.1085 -0.1784  0.7496
  529MOL0     H71386   5.323   7.358   4.467 -2.9525 -0.3068  0.2210
  529MOL0     H71387   5.512   7.389   4.329 -0.2358  0.6856  1.0824
  529MOL0     H71388   5.492   7.235   4.244 -2.1241 -1.9431  0.9430
  529MOL0     H71389   5.597   7.288   4.539 -0.4781 -0.8822  1.0393
  529MOL0     H71390   5.511   7.144   4.494 -1.0881  0.0939  0.9346
  529MOL0     H71391   5.684   7.084   4.324 -0.5875  1.5031 -0.6477
  529MOL0     H71392   5.754   7.120   4.481 -0.0515  1.9814 -0.1550
  529MOL0     H71393   5.734   7.295   4.230 -2.5316  1.6723  2.0250
  529MOL0     H71394   5.806   7.361   4.373  0.2191  1.5755 -2.6172
  529MOL0     H71395   5.036   7.424   3.769  0.1325 -1.1028 -3.0464
  529MOL0     H71396   4.845   7.432   3.646  2.6022  0.7796  1.4567
  529MOL0     H71397   4.440   7.153   3.484  1.1138  0.9531  0.5274
  529MOL0     H71398   4.226   7.150   3.377 -1.8118  0.7779  0.2186
  529MOL0     H71399   2.640   6.650   3.654 -0.6294  0.0150  5.2531
  529MOL0     H71400   2.414   6.627   3.763 -0.6508  0.7607 -0.9299
  529MOL0     H71401   1.881   6.463   3.524  2.3659 -1.9390  0.2821
  529MOL0     H71402   1.664   6.463   3.634  1.2314 -0.3446 -1.2359
  529MOL0     H71403   1.615   6.414   4.078  2.4243 -0.3215 -1.4963
  529MOL0     H71404   1.607   6.273   3.977 -1.4677 -1.2069 -1.2336
  529MOL0     H71405   1.376   6.460   4.014 -0.4504 -0.6362  0.1916
  529MOL0     H71406   1.402   6.303   4.098 -0.3850 -2.6550 -1.0971
  529MOL0     H71407   1.304   6.199   3.916 -0.3131  0.1677 -1.1723
  529MOL0     H71408   1.437   6.245   3.833  0.9219  2.3482  0.9601
  529MOL0     H71409   1.172   6.394   3.859  0.0705 -0.6814  1.5757
  529MOL0     H71410   1.306   6.467   3.765  4.1215 -2.6987 -1.8929
  529MOL0     H71411   1.175   6.200   3.474  1.8492  0.4894 -1.8713
  529MOL0     H71412   1.805   6.492   4.009 -2.3441  4.5099 -1.3771
  529MOL0     H71413   2.160   6.430   3.948 -1.6486 -2.1024  2.8999
  529MOL0     H71414   2.123   6.606   3.918 -2.6967  3.1197  4.5348
  529MOL0     H71415   2.040   6.521   4.048  0.5192  0.6842 -0.0121
  530MOL0     O71416  11.064   8.664   9.845  0.4557 -0.3805 -0.4419
  530MOL0     C71417  11.003   8.719   9.937  0.2351  0.0490  0.5767
  530MOL0     O71418  11.065   8.797  10.031  0.0391  0.0427 -0.4138
  530MOL0     C71419  11.184   8.856   9.991 -0.4104  0.9044  0.1432
  530MOL0     C71420  11.305   8.809  10.050 -0.5233 -0.2645  0.2403
  530MOL0     C71421  11.426   8.877  10.034 -0.0130  0.1962  0.3398
  530MOL0     C71422  11.426   8.989   9.950  0.0746 -0.5315 -0.6477
  530MOL0     O71423  11.539   9.062   9.939  0.2127 -0.4518  0.2842
  530MOL0     C71424  11.590   9.101   9.813  0.2312  1.0998  0.3553
  530MOL0     C71425  11.742   9.147   9.829 -0.0136  0.3324 -0.1484
  530MOL0     C71426  11.834   9.040   9.877  0.3830  0.1596 -0.0892
  530MOL0     C71427  11.828   9.007  10.024 -0.0811  0.1145 -0.3040
  530MOL0     C71428  11.931   8.910  10.072  0.3434 -0.1256  0.2793
  530MOL0     C71429  12.034   8.998  10.151 -0.2691  0.0344  0.0918
  530MOL0     C71430  12.132   8.904  10.218  1.2100  0.0945  0.1221
  530MOL0     C71431  12.255   8.983  10.271  0.3310 -0.3481 -0.0543
  530MOL0     N71432  12.366   8.904  10.333  0.8710 -0.9942  0.4732
  530MOL0     C71433  12.391   8.880  10.468 -0.2485 -1.0293  0.1124
  530MOL0     C71434  12.508   8.813  10.466  0.3114  0.5440 -0.4212
  530MOL0     C71435  12.562   8.738  10.585 -0.2575 -0.2341  0.0448
  530MOL0     C71436  12.663   8.832  10.650  0.1540 -0.1708 -0.6433
  530MOL0     C71437  12.776   8.872  10.552  0.4065 -0.2942  0.0376
  530MOL0     C71438  12.912   8.906  10.620  0.0028 -0.6127 -0.1850
  530MOL0     O71439  12.881   9.019  10.702 -0.8209  0.6576 -0.3868
  530MOL0     C71440  12.983   9.045  10.782  0.0736  0.7328  0.6685
  530MOL0     C71441  13.078   9.144  10.747  0.2634  0.0379  0.1394
  530MOL0     C71442  13.181   9.160  10.840  0.2197  0.1879 -0.2751
  530MOL0     C71443  13.197   9.075  10.957  0.8412  0.7451  0.0350
  530MOL0     C71444  13.306   9.087  11.049 -0.2380  0.6676  0.2080
  530MOL0     O71445  13.330   8.978  11.119  0.0751 -0.1618 -0.0567
  530MOL0     C71446  13.436   8.976  11.208  0.3851  0.4941  0.3946
  530MOL0     C71447  13.512   8.867  11.229 -0.3269 -0.8736  0.3175
  530MOL0     C71448  13.593   8.858  11.335  0.0513  0.3596 -0.3846
  530MOL0     C71449  13.603   8.960  11.430  0.3677  0.6146 -0.2995
  530MOL0     O71450  13.683   8.944  11.539  0.7354 -0.6254  0.4354
  530MOL0     C71451  13.676   9.043  11.642 -0.1486 -0.0632  0.0126
  530MOL0     C71452  13.774   8.987  11.741 -1.2447  0.1384  0.1541
  530MOL0     C71453  13.767   9.041  11.885  0.2875 -0.3976 -0.2109
  530MOL0     C71454  13.883   8.979  11.970 -0.2590  0.0625  0.8901
  530MOL0     C71455  13.850   8.976  12.115  0.2357 -0.1449 -0.1100
  530MOL0     C71456  13.763   8.854  12.166  0.0127 -0.1430 -0.0252
  530MOL0     C71457  13.724   8.880  12.317  0.5363  0.3176  1.1165
  530MOL0     C71458  13.707   8.749  12.390  1.2444  0.5206  0.5508
  530MOL0    Cl71459  13.599   8.622  12.302  0.1206 -0.1748 -0.1000
  530MOL0     C71460  13.537   9.080  11.402  0.7244 -0.7717  0.3177
  530MOL0     C71461  13.459   9.089  11.290  0.2191 -0.9328 -0.1452
  530MOL0     O71462  13.368   9.196  11.050 -0.1107 -0.2198  0.4517
  530MOL0     C71463  13.097   8.983  10.987  0.4841 -0.0941  0.2353
  530MOL0     C71464  12.984   8.973  10.900  1.4142  0.3351  0.0912
  530MOL0     N71465  12.557   8.800  10.338  0.2937 -0.4767  0.1963
  530MOL0     N71466  12.471   8.860  10.259  0.4859 -0.0239  0.2662
  530MOL0     C71467  11.311   9.019   9.878 -0.7469  0.3405 -0.1685
  530MOL0     C71468  11.190   8.958   9.898  0.4472  1.1525 -0.7281
  530MOL0     C71469  10.867   8.685   9.962 -0.8980  0.5476 -1.1236
  530MOL0     C71470  10.824   8.679  10.092 -1.0619 -0.9181 -0.3581
  530MOL0     C71471  10.691   8.649  10.115  0.6289 -0.0911 -0.5316
  530MOL0     C71472  10.591   8.629  10.023  0.7646 -0.7229 -0.4131
  530MOL0     O71473  10.467   8.597  10.072 -1.0521  0.3637  0.2691
  530MOL0     C71474  10.367   8.541   9.990  0.1105  0.2316  0.3921
  530MOL0     C71475  10.315   8.419  10.056 -0.4083  0.2676  0.3242
  530MOL0     C71476  10.182   8.372  10.000  1.0944 -0.0396  0.3401
  530MOL0     C71477  10.131   8.253  10.070 -0.1581 -0.6700  0.9284
  530MOL0     C71478  10.071   8.269  10.202 -0.2668  0.4366  0.5381
  530MOL0     C71479  10.033   8.275  10.319 -0.0442  0.0007  0.4461
  530MOL0     C71480  10.634   8.644   9.894 -0.1235  1.0046  0.9853
  530MOL0     C71481  10.771   8.659   9.862 -0.4974  0.1260 -0.0579
  530MOL0     C71482  10.817   8.657   9.720 -0.3850 -0.2271 -0.4812
  530MOL0     H71483  11.305   8.727  10.121  1.1674 -1.0558 -0.6207
  530MOL0     H71484  11.522   8.844  10.070 -0.1546 -0.4460  0.1396
  530MOL0     H71485  11.581   9.021   9.739 -0.4416  2.4150 -1.0499
  530MOL0     H71486  11.531   9.188   9.781 -0.5756 -0.2180 -1.9952
  530MOL0     H71487  11.747   9.240   9.886  2.9553  0.8587 -1.0563
  530MOL0     H71488  11.780   9.183   9.732 -0.3698  1.5616  0.1522
  530MOL0     H71489  11.931   9.084   9.855 -0.1501  0.2662 -2.4337
  530MOL0     H71490  11.836   8.953   9.811 -1.9159 -0.4496  0.5401
  530MOL0     H71491  11.828   9.107  10.067 -0.3634 -0.2744  0.6182
  530MOL0     H71492  11.732   8.958  10.040  0.1550 -0.6377 -1.0527
  530MOL0     H71493  11.889   8.831  10.135  1.9388 -0.2691  1.2313
  530MOL0     H71494  11.979   8.860   9.988  0.4243 -2.2011  1.4899
  530MOL0     H71495  12.089   9.070  10.089 -1.9469  0.5674 -0.8127
  530MOL0     H71496  11.983   9.064  10.222  1.4280 -0.5832  1.9812
  530MOL0     H71497  12.164   8.828  10.146 -1.0728 -0.5708 -0.2553
  530MOL0     H71498  12.097   8.850  10.306  0.9491 -3.1348 -1.7822
  530MOL0     H71499  12.302   9.047  10.195  1.1771 -0.1226  0.6526
  530MOL0     H71500  12.220   9.061  10.338 -0.0414  1.1532 -1.8891
  530MOL0     H71501  12.318   8.900  10.546 -0.4304  1.2273 -0.5689
  530MOL0     H71502  12.479   8.699  10.644 -0.0818 -3.3719 -1.5569
  530MOL0     H71503  12.620   8.656  10.544 -1.1314 -0.7380 -0.2169
  530MOL0     H71504  12.617   8.925  10.683  2.2566  0.1311  1.7731
  530MOL0     H71505  12.715   8.785  10.734  0.2808  1.5875  0.2932
  530MOL0     H71506  12.747   8.960  10.494  1.6750  1.3800  1.7984
  530MOL0     H71507  12.792   8.796  10.475  2.1884 -0.8084  0.8538
  530MOL0     H71508  13.001   8.933  10.562  1.2320 -1.0574  1.4058
  530MOL0     H71509  12.944   8.821  10.682 -0.1762 -2.1078 -2.0617
  530MOL0     H71510  13.061   9.213  10.665 -0.1925 -0.5210 -0.2417
  530MOL0     H71511  13.256   9.236  10.817  0.0268 -0.3104 -2.8250
  530MOL0     H71512  13.495   8.786  11.159 -1.5488 -0.6756  0.3579
  530MOL0     H71513  13.634   8.760  11.353 -0.5239  0.2749  0.5026
  530MOL0     H71514  13.703   9.140  11.599  0.7872 -1.0129 -1.6343
  530MOL0     H71515  13.580   9.051  11.693 -0.1304  1.7147 -0.1673
  530MOL0     H71516  13.763   8.879  11.746  0.4386 -0.1134 -0.8183
  530MOL0     H71517  13.872   9.011  11.699 -0.8228  1.8666  1.9540
  530MOL0     H71518  13.788   9.148  11.875 -0.3613 -0.4592 -3.9229
  530MOL0     H71519  13.671   9.028  11.934  0.7065 -1.5241  0.3633
  530MOL0     H71520  13.973   9.035  11.943  0.1101 -0.0919  1.7912
  530MOL0     H71521  13.884   8.874  11.939 -0.8424  0.8271 -2.1334
  530MOL0     H71522  13.795   9.068  12.136  0.1768  0.5087 -2.8055
  530MOL0     H71523  13.936   8.981  12.183 -0.9908  1.5888  1.4225
  530MOL0     H71524  13.668   8.843  12.113 -0.7166  0.9066  1.0262
  530MOL0     H71525  13.824   8.764  12.151  0.6495  0.5399 -1.7813
  530MOL0     H71526  13.626   8.929  12.313  0.1776 -0.4497 -0.1428
  530MOL0     H71527  13.794   8.948  12.366  0.0767  0.0679  2.1392
  530MOL0     H71528  13.807   8.706  12.391  0.2272 -2.1364 -0.6507
  530MOL0     H71529  13.660   8.763  12.488  0.9506 -2.4868  0.9578
  530MOL0     H71530  13.550   9.173  11.457 -0.2233  1.0122 -2.3132
  530MOL0     H71531  13.407   9.184  11.277  2.0367  0.1222 -0.0556
  530MOL0     H71532  13.093   8.932  11.083 -1.8116  1.8085  1.2654
  530MOL0     H71533  12.910   8.898  10.927  2.2284 -0.8899 -1.0424
  530MOL0     H71534  11.326   9.099   9.806  0.8652  0.4761  0.2746
  530MOL0     H71535  11.106   8.996   9.841  0.1201  0.2238 -0.8756
  530MOL0     H71536  10.885   8.697  10.179 -1.2014  1.4232 -0.6989
  530MOL0     H71537  10.666   8.645  10.221  0.9026  3.3814 -0.2314
  530MOL0     H71538  10.419   8.498   9.904 -0.6835 -1.8389  0.9043
  530MOL0     H71539  10.291   8.618   9.975 -0.3513 -0.2258  0.3633
  530MOL0     H71540  10.316   8.439  10.163  2.6289 -1.8371  0.8237
  530MOL0     H71541  10.393   8.343  10.052 -0.9778 -0.3160  0.0926
  530MOL0     H71542  10.198   8.349   9.895  0.8596  0.2868  0.2297
  530MOL0     H71543  10.102   8.445  10.017  2.6210  1.8812 -0.3617
  530MOL0     H71544  10.052   8.214  10.005  0.7132 -1.5143  0.3515
  530MOL0     H71545  10.200   8.168  10.067  1.2696  0.3903 -3.8334
  530MOL0     H71546  10.000   8.282  10.421 -0.2347 -3.0931  0.6925
  530MOL0     H71547  10.576   8.652   9.802  0.8231  1.3018  0.3997
  530MOL0     H71548  10.872   8.748   9.697 -0.2257 -0.2075 -0.0347
  530MOL0     H71549  10.880   8.571   9.696 -0.8950 -0.4059 -1.2296
  530MOL0     H71550  10.740   8.664   9.643  0.6033  1.0124 -1.3916
  531MOL0     O71551   4.130   6.871   9.840  0.5886 -1.1027  1.0493
  531MOL0     C71552   4.066   6.896   9.737 -0.2163 -0.0297 -0.2589
  531MOL0     O71553   3.930   6.880   9.718  0.1651  0.2944 -0.2154
  531MOL0     C71554   3.839   6.880   9.824  0.2773  0.0628  0.2104
  531MOL0     C71555   3.863   6.836   9.960 -0.9117 -0.0093 -0.2273
  531MOL0     C71556   3.762   6.827  10.054 -0.0797 -0.0263 -0.2949
  531MOL0     C71557   3.631   6.847  10.010  0.5398  0.0649 -0.0318
  531MOL0     O71558   3.528   6.859  10.098  0.4013  0.1542  0.1775
  531MOL0     C71559   3.557   6.897  10.229  0.3248  0.2921  0.6097
  531MOL0     C71560   3.446   6.882  10.325 -0.6256 -0.3459  0.5925
  531MOL0     C71561   3.411   6.735  10.365 -0.0211  0.2579 -0.0944
  531MOL0     C71562   3.463   6.695  10.507 -0.2075 -1.0392  0.0502
  531MOL0     C71563   3.419   6.552  10.552 -0.5571  0.3867 -0.4342
  531MOL0     C71564   3.468   6.424  10.476  0.5716 -0.6236 -0.9053
  531MOL0     C71565   3.604   6.385  10.509 -0.4018 -0.4827  0.8572
  531MOL0     C71566   3.639   6.274  10.416 -0.1566 -0.5505 -0.7957
  531MOL0     N71567   3.667   6.313  10.280  0.7407  0.5051 -0.4570
  531MOL0     C71568   3.767   6.389  10.229 -0.4288  0.4673 -0.7610
  531MOL0     C71569   3.764   6.362  10.099 -0.4883 -0.4623  0.0703
  531MOL0     C71570   3.853   6.412   9.986 -0.1542  0.0604 -0.5655
  531MOL0     C71571   3.972   6.318   9.966  0.5483 -0.3263 -0.3789
  531MOL0     C71572   4.107   6.381  10.005 -0.4054 -0.1052  0.3477
  531MOL0     C71573   4.223   6.287   9.970  0.0701 -0.2908  0.3999
  531MOL0     O71574   4.202   6.160  10.032 -0.0452 -0.7743 -0.7975
  531MOL0     C71575   4.274   6.119  10.139 -0.3511  0.3754 -0.4726
  531MOL0     C71576   4.332   6.202  10.238  0.0405  0.0887  0.1768
  531MOL0     C71577   4.383   6.154  10.356 -0.2417 -0.4159 -0.3195
  531MOL0     C71578   4.383   6.012  10.383 -0.2022  0.6004  0.3936
  531MOL0     C71579   4.421   5.945  10.506 -0.1507  0.0684  0.3632
  531MOL0     O71580   4.394   5.811  10.532 -0.9696 -0.1746 -0.3560
  531MOL0     C71581   4.414   5.754  10.659 -0.3389  0.6259  0.3399
  531MOL0     C71582   4.314   5.704  10.739 -0.6584  0.6947 -0.1844
  531MOL0     C71583   4.337   5.633  10.856 -0.0931 -0.0043 -0.0223
  531MOL0     C71584   4.469   5.602  10.901  0.8593  0.3571  0.6793
  531MOL0     O71585   4.490   5.508  11.002 -0.1329 -0.3261 -0.4679
  531MOL0     C71586   4.412   5.393  11.014 -0.0703 -0.2470 -0.6852
  531MOL0     C71587   4.423   5.299  10.893  0.1597  0.4330 -0.1728
  531MOL0     C71588   4.325   5.174  10.909 -0.3636  0.3362 -0.5633
  531MOL0     C71589   4.328   5.090  10.785  0.0872  0.4894  0.4316
  531MOL0     C71590   4.225   4.977  10.789  0.0034 -0.2333 -0.4487
  531MOL0     C71591   4.185   4.919  10.656 -0.1792 -0.4421 -0.3591
  531MOL0     C71592   4.064   4.831  10.675  0.5267 -0.6955  0.4324
  531MOL0     C71593   4.001   4.798  10.535  0.1834  0.5798  0.1585
  531MOL0    Cl71594   3.854   4.708  10.580  0.1004 -0.3437  0.1951
  531MOL0     C71595   4.572   5.662  10.829 -0.2913 -1.0806  0.0106
  531MOL0     C71596   4.547   5.727  10.702  0.9616 -0.8167 -0.1488
  531MOL0     O71597   4.475   6.019  10.588 -0.1330 -0.4016  0.5653
  531MOL0     C71598   4.320   5.928  10.288  0.1965 -0.1555 -0.0108
  531MOL0     C71599   4.270   5.979  10.168 -0.5797 -0.9379  0.2198
  531MOL0     N71600   3.654   6.287  10.073  0.4392 -0.6399  0.1164
  531MOL0     N71601   3.597   6.262  10.187  0.8650  0.0350 -0.7893
  531MOL0     C71602   3.604   6.880   9.878 -0.3299 -0.4106 -0.7434
  531MOL0     C71603   3.708   6.896   9.788  0.3385  1.0202 -0.7973
  531MOL0     C71604   4.133   6.941   9.613 -0.2960  0.5593 -1.2833
  531MOL0     C71605   4.056   6.966   9.497  0.4207  0.2274 -0.3954
  531MOL0     C71606   4.101   7.050   9.405  0.4427  0.6915  0.9273
  531MOL0     C71607   4.229   7.088   9.405 -0.7887  0.6954  1.2502
  531MOL0     O71608   4.267   7.179   9.309  1.2157  0.1662  0.0973
  531MOL0     C71609   4.399   7.234   9.290  0.0402  0.7708  0.4154
  531MOL0     C71610   4.391   7.366   9.218 -0.0566 -0.0229  0.2655
  531MOL0     C71611   4.408   7.363   9.063 -0.0666 -0.6740 -0.0352
  531MOL0     C71612   4.295   7.289   8.993  0.3411 -0.5271  0.7864
  531MOL0     C71613   4.323   7.296   8.848 -0.9328  0.0741  0.0392
  531MOL0     C71614   4.329   7.276   8.728  0.0116 -1.0172 -0.0244
  531MOL0     C71615   4.314   7.042   9.504  0.3616  0.6214  0.1735
  531MOL0     C71616   4.268   6.964   9.609  0.8333 -1.3950  0.0104
  531MOL0     C71617   4.380   6.935   9.713  0.6487 -0.9559 -0.3253
  531MOL0     H71618   3.957   6.808  10.007 -0.8584 -1.5707 -1.2028
  531MOL0     H71619   3.781   6.784  10.152 -0.3477  3.4660  1.4521
  531MOL0     H71620   3.644   6.852  10.278  2.4103  2.7044 -0.6447
  531MOL0     H71621   3.581   7.003  10.220 -0.2833  0.4021  0.2264
  531MOL0     H71622   3.358   6.945  10.306  0.0226  0.0713 -1.3338
  531MOL0     H71623   3.488   6.927  10.415 -0.4895 -0.3243  0.5187
  531MOL0     H71624   3.462   6.668  10.295 -1.8773 -0.4553 -0.8431
  531MOL0     H71625   3.303   6.719  10.353  0.0574 -0.2542 -0.1610
  531MOL0     H71626   3.572   6.684  10.498 -0.3402 -1.5994 -1.1111
  531MOL0     H71627   3.443   6.772  10.582  2.9497 -2.0791  2.1913
  531MOL0     H71628   3.449   6.537  10.656 -0.8513 -0.1849 -0.4276
  531MOL0     H71629   3.310   6.551  10.550 -0.6412 -2.1860  0.9235
  531MOL0     H71630   3.397   6.344  10.502  0.9173 -1.3349 -2.0986
  531MOL0     H71631   3.456   6.437  10.368  3.8776 -0.7976 -1.3948
  531MOL0     H71632   3.605   6.349  10.612  0.8860  0.6189  1.2450
  531MOL0     H71633   3.678   6.465  10.506 -0.3573 -0.5266  0.7555
  531MOL0     H71634   3.722   6.219  10.460 -1.1764 -0.9416  0.7346
  531MOL0     H71635   3.555   6.205  10.407 -0.5111 -0.8190  3.0913
  531MOL0     H71636   3.835   6.448  10.289 -2.5423  0.7584  1.4926
  531MOL0     H71637   3.800   6.440   9.894 -0.9335 -0.5804 -0.3260
  531MOL0     H71638   3.891   6.510  10.017 -0.4669 -0.1211  0.4245
  531MOL0     H71639   3.963   6.228  10.028  2.0317 -0.5808 -0.4905
  531MOL0     H71640   3.975   6.283   9.863 -1.0779 -1.1358 -0.1737
  531MOL0     H71641   4.124   6.391  10.113  1.9669 -0.8617  0.1112
  531MOL0     H71642   4.135   6.470   9.947  0.7267 -2.3539 -2.8144
  531MOL0     H71643   4.322   6.322  10.000 -1.2139  3.0099  1.1758
  531MOL0     H71644   4.227   6.279   9.860 -3.5667 -0.2899  0.1455
  531MOL0     H71645   4.348   6.308  10.224  1.3277  0.4895  3.7573
  531MOL0     H71646   4.443   6.222  10.416 -2.3156 -0.5644  2.1012
  531MOL0     H71647   4.215   5.712  10.694  0.1874  3.1171 -1.8159
  531MOL0     H71648   4.254   5.580  10.902  0.9927 -2.3415 -0.5749
  531MOL0     H71649   4.449   5.343  11.104 -1.8617  0.5665  0.5617
  531MOL0     H71650   4.307   5.412  11.035 -0.1233 -2.0613  0.9125
  531MOL0     H71651   4.405   5.355  10.801 -0.2928  1.5188  0.5613
  531MOL0     H71652   4.525   5.259  10.885  0.3741  1.3589 -3.1689
  531MOL0     H71653   4.346   5.105  10.991 -0.1914 -0.4387 -1.2485
  531MOL0     H71654   4.223   5.212  10.913 -0.4336  0.5194 -2.9100
  531MOL0     H71655   4.430   5.055  10.766 -0.2778 -0.6110  0.4508
  531MOL0     H71656   4.310   5.159  10.702 -0.9066  1.0052  1.0631
  531MOL0     H71657   4.139   5.020  10.841 -0.6602  2.0537 -3.2045
  531MOL0     H71658   4.273   4.903  10.854  0.7781  0.6049 -0.0375
  531MOL0     H71659   4.166   4.999  10.584  0.1691 -1.3853 -1.5370
  531MOL0     H71660   4.265   4.857  10.615 -0.0090 -1.0753  0.8711
  531MOL0     H71661   3.988   4.892  10.724  1.2029  1.9075 -1.5093
  531MOL0     H71662   4.093   4.739  10.726 -0.2165 -0.1385  1.9109
  531MOL0     H71663   3.965   4.881  10.474  1.6991  0.0837 -1.4894
  531MOL0     H71664   4.072   4.735  10.481 -1.4458 -1.6252  0.4271
  531MOL0     H71665   4.672   5.650  10.869  0.1551  1.0042 -0.3768
  531MOL0     H71666   4.626   5.755  10.633 -0.9185  2.0126 -1.3313
  531MOL0     H71667   4.299   5.823  10.303  3.1636 -0.7468  0.5816
  531MOL0     H71668   4.237   5.911  10.090  0.6472 -0.1342 -1.0650
  531MOL0     H71669   3.503   6.913   9.855  0.4084  2.3027 -0.5088
  531MOL0     H71670   3.678   6.932   9.691 -1.5534 -0.4703 -0.8233
  531MOL0     H71671   3.948   6.954   9.506  0.4421  0.4203  0.1875
  531MOL0     H71672   4.030   7.089   9.333  3.8638  3.8083 -1.1043
  531MOL0     H71673   4.453   7.154   9.239 -2.0572 -0.8312  0.5611
  531MOL0     H71674   4.451   7.245   9.386  1.6736 -0.0623 -0.3451
  531MOL0     H71675   4.473   7.427   9.256 -1.4631  1.7765  0.5251
  531MOL0     H71676   4.301   7.417   9.253  1.9539  3.3812  0.9505
  531MOL0     H71677   4.506   7.316   9.051  1.3424  2.5780 -3.4369
  531MOL0     H71678   4.423   7.464   9.022 -2.4766  0.5069  1.7672
  531MOL0     H71679   4.303   7.184   9.020 -0.2515 -0.4173  1.3995
  531MOL0     H71680   4.204   7.343   9.019  1.6528  2.7975 -0.8977
  531MOL0     H71681   4.361   7.274   8.626 -1.4965 -1.8538 -0.5085
  531MOL0     H71682   4.418   7.070   9.506  0.4764  1.2272 -4.0757
  531MOL0     H71683   4.476   6.920   9.661 -1.2991 -2.2440 -3.8820
  531MOL0     H71684   4.377   7.016   9.787 -3.2986  0.7469 -2.1046
  531MOL0     H71685   4.353   6.848   9.774 -0.3907  0.4052  1.2457
  532MOL0     O71686  10.676   9.270   1.112  0.0815  0.2448 -0.1762
  532MOL0     C71687  10.646   9.233   1.226 -0.0787 -0.3984 -1.1489
  532MOL0     O71688  10.733   9.215   1.324  0.2836  0.5158  0.3731
  532MOL0     C71689  10.863   9.194   1.291 -0.1163  0.5369  0.1430
  532MOL0     C71690  10.954   9.270   1.358  0.4175  0.3790  0.1057
  532MOL0     C71691  11.092   9.258   1.341 -0.1943  0.6582  0.2538
  532MOL0     C71692  11.150   9.165   1.257  0.3168 -1.1186  0.4150
  532MOL0     O71693  11.287   9.166   1.229  0.4138  0.3736  0.0609
  532MOL0     C71694  11.379   9.224   1.322  0.4896  0.3426  0.4565
  532MOL0     C71695  11.512   9.166   1.333 -0.4397 -0.0021  0.2633
  532MOL0     C71696  11.599   9.210   1.213  0.9762 -0.6917  0.0034
  532MOL0     C71697  11.745   9.185   1.221  0.1298 -0.4795  0.6206
  532MOL0     C71698  11.817   9.276   1.325 -0.7213 -0.0924  1.2895
  532MOL0     C71699  11.970   9.258   1.324 -0.5738 -0.2103 -0.4123
  532MOL0     C71700  12.043   9.311   1.204  0.7950  0.2654  0.1502
  532MOL0     C71701  12.182   9.362   1.242 -0.0329 -0.0864  0.3954
  532MOL0     N71702  12.269   9.255   1.301 -0.5854 -0.1118  0.5554
  532MOL0     C71703  12.296   9.218   1.429 -0.2643  0.7285  0.7586
  532MOL0     C71704  12.380   9.113   1.420  0.6432 -0.2517  0.2440
  532MOL0     C71705  12.436   9.049   1.537 -0.8387  0.3279 -0.4562
  532MOL0     C71706  12.584   9.034   1.511 -0.5386  0.2181 -0.8433
  532MOL0     C71707  12.658   9.038   1.645 -0.0928  0.2751  0.3283
  532MOL0     C71708  12.798   8.993   1.625 -0.0823  0.4382  0.4059
  532MOL0     O71709  12.858   9.013   1.744  0.3196  0.0816  0.2883
  532MOL0     C71710  12.995   9.009   1.739  0.1937 -0.3072 -0.1960
  532MOL0     C71711  13.077   8.981   1.633  0.8047  0.1904  1.4111
  532MOL0     C71712  13.214   8.986   1.639 -0.5782 -0.6989 -0.2454
  532MOL0     C71713  13.277   9.016   1.767 -0.6266  0.3214  0.0549
  532MOL0     C71714  13.425   9.021   1.780  0.0830  0.3465 -0.5973
  532MOL0     O71715  13.470   9.114   1.875  0.2265  0.2327 -0.0377
  532MOL0     C71716  13.604   9.139   1.899 -0.1714  0.3483  0.6587
  532MOL0     C71717  13.636   9.255   1.966  0.2651 -0.5580 -0.3333
  532MOL0     C71718  13.764   9.313   1.976 -0.1369 -0.8118 -0.1332
  532MOL0     C71719  13.881   9.237   1.932  0.3286  1.1399 -0.4554
  532MOL0     O71720  14.011   9.271   1.926 -0.8583  1.1417 -0.3028
  532MOL0     C71721  14.058   9.395   1.988  0.1340  0.3814  0.1910
  532MOL0     C71722  14.192   9.426   1.922 -0.3583  0.6754  0.3364
  532MOL0     C71723  14.264   9.532   1.997 -0.8848  0.1728 -0.4683
  532MOL0     C71724  14.398   9.570   1.918 -0.0571  0.0669 -0.5837
  532MOL0     C71725  14.509   9.469   1.935  1.0403 -0.8926  0.8687
  532MOL0     C71726  14.557   9.442   2.077  0.3888  0.3125 -0.0367
  532MOL0     C71727  14.633   9.557   2.142 -0.4634 -0.5627  0.2315
  532MOL0     C71728  14.720   9.504   2.263  0.1081  0.3858 -0.5583
  532MOL0    Cl71729  14.832   9.362   2.221 -0.4762 -0.3998  0.1237
  532MOL0     C71730  13.845   9.120   1.870 -0.3143  0.0368  0.4655
  532MOL0     C71731  13.717   9.076   1.844 -0.0995  0.1457  0.0822
  532MOL0     O71732  13.500   8.956   1.708  0.5390 -0.9698 -0.1716
  532MOL0     C71733  13.195   9.049   1.879 -1.0631  0.1522  0.8109
  532MOL0     C71734  13.056   9.045   1.858 -0.4298  0.7599  0.0526
  532MOL0     N71735  12.387   9.075   1.286 -0.7006  0.0995  0.6029
  532MOL0     N71736  12.315   9.152   1.219 -0.1332 -1.2616  0.5312
  532MOL0     C71737  11.060   9.092   1.181 -0.2416 -0.1147  1.2186
  532MOL0     C71738  10.918   9.102   1.197  0.4758 -0.0101 -0.1327
  532MOL0     C71739  10.507   9.194   1.253  0.8857  0.0552  0.4698
  532MOL0     C71740  10.448   9.254   1.372  0.5485  0.9898  0.0372
  532MOL0     C71741  10.324   9.211   1.415  1.3335  0.2627 -0.4855
  532MOL0     C71742  10.262   9.100   1.351  0.8241 -0.4212 -0.7382
  532MOL0     O71743  10.134   9.052   1.387  0.0326 -0.5741 -0.7440
  532MOL0     C71744  10.055   9.118   1.489  0.2492 -0.2689  0.8169
  532MOL0     C71745   9.916   9.130   1.437 -0.1797  0.7634  0.1021
  532MOL0     C71746   9.805   9.193   1.516  0.7707 -0.3115 -0.6065
  532MOL0     C71747   9.744   9.298   1.436  0.8242 -0.4894  0.7518
  532MOL0     C71748   9.643   9.377   1.497 -0.1256 -0.5301 -0.3983
  532MOL0     C71749   9.560   9.436   1.558 -0.5774  0.5650 -0.6478
  532MOL0     C71750  10.312   9.050   1.235  0.1195  0.7167  0.1397
  532MOL0     C71751  10.429   9.100   1.179  0.5257 -0.9533 -0.3625
  532MOL0     C71752  10.475   9.045   1.043  0.2645 -0.3315 -0.2659
  532MOL0     H71753  10.916   9.351   1.419  1.3782  1.4255 -0.6385
  532MOL0     H71754  11.156   9.331   1.389  2.1545  0.2216 -2.0672
  532MOL0     H71755  11.391   9.331   1.303  1.0987  0.2039  0.0607
  532MOL0     H71756  11.345   9.210   1.425  0.6739 -0.7288  0.3800
  532MOL0     H71757  11.501   9.057   1.338  0.2576 -0.0085  3.3376
  532MOL0     H71758  11.564   9.194   1.425  0.4722 -3.9735  1.1322
  532MOL0     H71759  11.575   9.316   1.197 -3.9900 -1.8155 -1.8834
  532MOL0     H71760  11.568   9.166   1.118  1.2937 -0.8522 -0.0262
  532MOL0     H71761  11.766   9.084   1.259 -0.7629  0.0748  2.7036
  532MOL0     H71762  11.792   9.208   1.125 -1.8065 -0.3185 -0.3179
  532MOL0     H71763  11.794   9.383   1.313  1.1811  0.8794  4.7590
  532MOL0     H71764  11.777   9.261   1.426  0.4567 -0.2758  1.7473
  532MOL0     H71765  12.005   9.293   1.421  0.3475 -1.4318 -0.2765
  532MOL0     H71766  11.992   9.151   1.329 -1.8302 -0.7078 -3.4012
  532MOL0     H71767  11.992   9.397   1.160 -0.5316 -2.5358 -4.5870
  532MOL0     H71768  12.046   9.233   1.127 -0.1521  1.0272 -0.6748
  532MOL0     H71769  12.222   9.416   1.156 -2.0543 -0.4515 -0.8362
  532MOL0     H71770  12.162   9.435   1.320 -0.4577 -0.5939  0.7693
  532MOL0     H71771  12.270   9.263   1.525 -0.1583  0.5812  0.8563
  532MOL0     H71772  12.427   9.122   1.619  2.4953  2.4137 -1.7163
  532MOL0     H71773  12.392   8.951   1.556  3.5309 -2.2378 -2.1922
  532MOL0     H71774  12.613   8.946   1.452 -1.9460  1.2654 -3.2567
  532MOL0     H71775  12.621   9.113   1.445 -1.6781  1.7719  0.2930
  532MOL0     H71776  12.611   8.978   1.724 -0.5436 -0.3412 -0.3984
  532MOL0     H71777  12.664   9.146   1.663 -1.7825  0.3772  0.4196
  532MOL0     H71778  12.850   9.065   1.560  1.6264 -0.2293  0.9785
  532MOL0     H71779  12.804   8.891   1.586 -1.6621  1.3710 -2.6540
  532MOL0     H71780  13.042   8.962   1.532  2.4260  0.8486  0.6906
  532MOL0     H71781  13.271   8.963   1.550 -2.4045 -0.0023 -1.6567
  532MOL0     H71782  13.554   9.312   2.010  0.0352  0.5577 -2.1199
  532MOL0     H71783  13.764   9.412   2.021 -3.0019 -0.8548  0.1192
  532MOL0     H71784  13.994   9.483   1.976  0.2734  0.6646  1.4234
  532MOL0     H71785  14.074   9.367   2.093 -1.1498 -1.6848 -0.1040
  532MOL0     H71786  14.257   9.339   1.934 -0.0823  0.9071  0.5496
  532MOL0     H71787  14.173   9.451   1.818  0.1149 -0.7662 -0.1221
  532MOL0     H71788  14.204   9.622   2.006 -2.5759 -1.1169  3.1223
  532MOL0     H71789  14.278   9.500   2.101  2.5177 -1.9677 -1.3981
  532MOL0     H71790  14.434   9.665   1.956  2.7204 -1.8879  2.1927
  532MOL0     H71791  14.379   9.575   1.810  0.3280 -2.0414 -0.7978
  532MOL0     H71792  14.590   9.495   1.867  0.6934 -0.8640  0.4591
  532MOL0     H71793  14.465   9.382   1.886 -0.0242 -0.4819  1.0502
  532MOL0     H71794  14.470   9.423   2.140  1.1751  0.7113  1.2176
  532MOL0     H71795  14.626   9.357   2.066  0.2116  0.4684 -3.3421
  532MOL0     H71796  14.562   9.636   2.166 -0.9618 -1.3126  1.2956
  532MOL0     H71797  14.694   9.594   2.059 -3.3119  3.7996 -0.1992
  532MOL0     H71798  14.770   9.592   2.305 -0.8290 -0.0014  1.4711
  532MOL0     H71799  14.649   9.463   2.335  0.9857  1.2345  0.8315
  532MOL0     H71800  13.927   9.063   1.828 -1.4870 -2.2274  1.0382
  532MOL0     H71801  13.715   8.993   1.774 -2.6941  1.2102 -1.2548
  532MOL0     H71802  13.224   9.072   1.981 -1.3979  0.7146  0.7839
  532MOL0     H71803  13.001   9.069   1.948 -2.1809  0.1186 -0.7961
  532MOL0     H71804  11.092   9.021   1.105 -0.5416  0.9191  0.0793
  532MOL0     H71805  10.859   9.044   1.126  2.0943 -0.9604 -0.7520
  532MOL0     H71806  10.510   9.327   1.423 -2.0939  2.6714  1.1094
  532MOL0     H71807  10.296   9.238   1.517  0.2730  1.0663 -0.9771
  532MOL0     H71808  10.086   9.223   1.496 -1.8158  0.2967  2.1703
  532MOL0     H71809  10.068   9.078   1.590  1.2922 -1.5443  0.2155
  532MOL0     H71810   9.885   9.026   1.425 -1.5152  1.2626 -0.9919
  532MOL0     H71811   9.929   9.180   1.340  0.4503  1.1379  0.3694
  532MOL0     H71812   9.854   9.236   1.604 -1.7726  2.1012 -0.2284
  532MOL0     H71813   9.735   9.112   1.539  1.8544 -1.8389 -2.3820
  532MOL0     H71814   9.821   9.367   1.400 -2.0338  0.3914 -4.7047
  532MOL0     H71815   9.702   9.248   1.349 -0.6896  0.1334  1.0998
  532MOL0     H71816   9.496   9.503   1.612  0.7452  1.0033  0.4051
  532MOL0     H71817  10.268   8.968   1.179  1.9278  0.2441 -0.6759
  532MOL0     H71818  10.380   9.015   0.998 -0.8670  0.4136  1.5044
  532MOL0     H71819  10.522   9.129   0.991 -0.4750  0.1187 -0.2122
  532MOL0     H71820  10.549   8.964   1.051  0.0857 -0.5655 -0.9520
  533MOL0     O71821   2.326  11.362  10.939 -0.2380 -0.1773  0.3552
  533MOL0     C71822   2.250  11.277  10.892  0.1432 -0.2176  0.4639
  533MOL0     O71823   2.262  11.141  10.907 -0.0074 -0.4771 -0.4633
  533MOL0     C71824   2.385  11.098  10.922  0.4225  0.7982 -0.2705
  533MOL0     C71825   2.457  11.051  10.819 -0.8102  0.0564  0.2445
  533MOL0     C71826   2.582  11.003  10.847  0.0297  0.2398  0.5507
  533MOL0     C71827   2.639  10.993  10.970 -0.0052  0.0103 -0.8986
  533MOL0     O71828   2.764  10.941  10.983 -0.6662  0.0168  0.2425
  533MOL0     C71829   2.844  11.003  11.083 -0.4042 -0.9435 -0.3072
  533MOL0     C71830   2.991  10.965  11.056  0.6799  0.7398  0.0946
  533MOL0     C71831   2.997  10.808  11.031 -0.4598 -0.4969 -0.7370
  533MOL0     C71832   2.938  10.722  11.137 -1.5274  1.0128 -0.4180
  533MOL0     C71833   2.888  10.598  11.073  0.6537  0.0802  0.2311
  533MOL0     C71834   2.994  10.493  11.028  0.1179  0.3315  0.0050
  533MOL0     C71835   2.967  10.415  10.897 -0.3896  0.0454 -0.6061
  533MOL0     C71836   3.068  10.307  10.873 -0.1013  0.8737 -0.1254
  533MOL0     N71837   3.198  10.347  10.815  0.5326 -0.4161 -0.3281
  533MOL0     C71838   3.254  10.315  10.701  0.6491  0.0249 -0.6044
  533MOL0     C71839   3.365  10.390  10.696 -0.4723 -0.0210  0.7576
  533MOL0     C71840   3.470  10.389  10.593  0.4493  0.8102 -0.4247
  533MOL0     C71841   3.585  10.290  10.614 -0.1007 -0.0379 -0.2977
  533MOL0     C71842   3.531  10.147  10.637  0.1818  0.1450 -0.2922
  533MOL0     C71843   3.633  10.044  10.651 -0.7350 -0.1353 -0.4627
  533MOL0     O71844   3.710  10.047  10.522 -0.2569  0.5570 -0.5292
  533MOL0     C71845   3.836  10.009  10.553  0.0621  0.1217  0.2091
  533MOL0     C71846   3.880   9.909  10.644  0.2144 -0.2506  0.1042
  533MOL0     C71847   4.015   9.904  10.685 -0.3441  0.9180 -0.7427
  533MOL0     C71848   4.112  10.001  10.637  1.3717  0.0700 -0.0224
  533MOL0     C71849   4.250   9.996  10.674  0.5850  0.0311  0.1993
  533MOL0     O71850   4.335  10.089  10.628  0.2648  0.0661 -0.4326
  533MOL0     C71851   4.469  10.073  10.657 -0.2109 -0.5211  0.6270
  533MOL0     C71852   4.560  10.042  10.559  0.0822  1.0690  0.2857
  533MOL0     C71853   4.698  10.030  10.587  0.0793  0.2291  0.0145
  533MOL0     C71854   4.743  10.049  10.718  0.4668  0.5560 -0.2534
  533MOL0     O71855   4.865  10.017  10.753 -0.8787 -0.2215  0.3756
  533MOL0     C71856   4.942   9.911  10.697 -0.6491  0.0702  0.8697
  533MOL0     C71857   4.875   9.779  10.736  1.0627 -0.5285  0.4637
  533MOL0     C71858   4.875   9.694  10.614  0.9357  0.6278  0.7245
  533MOL0     C71859   4.784   9.573  10.642 -0.2004  0.9318 -0.2129
  533MOL0     C71860   4.674   9.537  10.538 -0.2893 -0.1329  0.1236
  533MOL0     C71861   4.536   9.603  10.568 -0.5518 -0.9439 -0.7024
  533MOL0     C71862   4.423   9.507  10.552  0.6694  1.3922  0.0418
  533MOL0     C71863   4.297   9.570  10.613 -0.6727  0.0719 -0.1698
  533MOL0    Cl71864   4.152   9.465  10.584  0.4875 -0.1771 -0.0921
  533MOL0     C71865   4.656  10.104  10.809 -0.3993  0.1261  0.2394
  533MOL0     C71866   4.522  10.120  10.780 -0.4804 -0.3107  0.2006
  533MOL0     O71867   4.287   9.895  10.730 -0.7529  0.2617  0.2194
  533MOL0     C71868   4.060  10.106  10.564 -0.5561 -0.1373  1.0622
  533MOL0     C71869   3.926  10.096  10.513 -0.4012 -0.3660 -1.4158
  533MOL0     N71870   3.369  10.467  10.810  0.4049 -0.6532  1.1704
  533MOL0     N71871   3.268  10.440  10.886 -0.3922  0.1197  0.7396
  533MOL0     C71872   2.560  11.041  11.079  0.6226  0.6189  0.0882
  533MOL0     C71873   2.436  11.103  11.056 -0.7213 -0.0515  0.1997
  533MOL0     C71874   2.129  11.318  10.812 -0.9607 -0.1130  0.3366
  533MOL0     C71875   2.042  11.217  10.770 -0.6952  0.8594 -0.6326
  533MOL0     C71876   1.929  11.245  10.694  0.0836  0.9533 -0.4748
  533MOL0     C71877   1.917  11.370  10.632 -0.7985  1.1953 -0.1135
  533MOL0     O71878   1.815  11.401  10.546 -0.0280  0.1391  0.3652
  533MOL0     C71879   1.717  11.305  10.513  1.1111  0.4607  0.1002
  533MOL0     C71880   1.620  11.366  10.424 -0.8215  0.3212  0.2593
  533MOL0     C71881   1.497  11.278  10.402  0.0140 -0.4906 -0.1904
  533MOL0     C71882   1.396  11.364  10.323  0.2351  0.2593  0.0711
  533MOL0     C71883   1.275  11.285  10.287  0.4169 -0.0721  0.6609
  533MOL0     C71884   1.174  11.215  10.260 -0.5503 -0.9481 -0.3744
  533MOL0     C71885   2.004  11.478  10.672  0.4171  0.0729  0.1664
  533MOL0     C71886   2.103  11.453  10.768 -0.0054 -0.1550 -0.3931
  533MOL0     C71887   2.194  11.569  10.804 -0.0463 -0.1580 -0.0840
  533MOL0     H71888   2.426  11.038  10.715  0.7912  3.0915 -0.7309
  533MOL0     H71889   2.645  10.980  10.762  1.9746 -0.8445  2.2026
  533MOL0     H71890   2.835  11.112  11.080 -1.9887 -0.9321  2.1676
  533MOL0     H71891   2.809  10.973  11.182 -2.6890 -1.6903 -1.2576
  533MOL0     H71892   3.063  10.984  11.135  0.7952 -0.4785  0.3128
  533MOL0     H71893   3.037  11.013  10.969  3.1649 -4.2665 -1.8008
  533MOL0     H71894   3.100  10.778  11.009  0.2028 -0.2862  1.7938
  533MOL0     H71895   2.945  10.785  10.937 -3.0140 -0.5477  0.5940
  533MOL0     H71896   3.027  10.684  11.189 -3.2736 -0.6930  1.5297
  533MOL0     H71897   2.854  10.765  11.193 -1.8329 -2.3409  2.0664
  533MOL0     H71898   2.827  10.548  11.148  1.1967 -0.1720  0.5121
  533MOL0     H71899   2.821  10.632  10.993  0.7437 -1.7051 -0.6485
  533MOL0     H71900   3.088  10.549  11.027  0.0130  0.5411  0.8565
  533MOL0     H71901   2.998  10.427  11.115 -0.1695  1.2742  0.7461
  533MOL0     H71902   2.975  10.489  10.817  1.9406  0.8046  0.2567
  533MOL0     H71903   2.862  10.385  10.908  0.3767 -1.9035  4.2908
  533MOL0     H71904   3.091  10.249  10.963 -0.4508  0.6092 -0.2077
  533MOL0     H71905   3.015  10.253  10.795 -0.5785  0.1975  0.6599
  533MOL0     H71906   3.225  10.235  10.633  0.2537 -0.3121 -0.0496
  533MOL0     H71907   3.429  10.367  10.494  0.8269 -3.0868  0.1291
  533MOL0     H71908   3.523  10.484  10.583 -1.9059  2.2900  0.1994
  533MOL0     H71909   3.653  10.296  10.528  2.1608  3.7991  1.4669
  533MOL0     H71910   3.647  10.318  10.700  0.6498  0.3792 -0.9610
  533MOL0     H71911   3.468  10.115  10.554 -0.0860 -0.5791  0.1755
  533MOL0     H71912   3.467  10.146  10.726  3.0893 -2.4799  2.0271
  533MOL0     H71913   3.580   9.949  10.660  1.5540 -1.4559  0.1253
  533MOL0     H71914   3.697  10.062  10.738 -1.5837 -1.9046  0.5875
  533MOL0     H71915   3.813   9.836  10.687 -1.5037  0.4063 -1.3465
  533MOL0     H71916   4.048   9.824  10.750  0.0062  2.7158  1.3951
  533MOL0     H71917   4.527  10.006  10.462 -3.6739  1.1862  1.3964
  533MOL0     H71918   4.761   9.998  10.505 -0.9477  0.7533 -1.0020
  533MOL0     H71919   4.940   9.924  10.588 -2.2450 -2.8667  0.4457
  533MOL0     H71920   5.045   9.903  10.733  0.3496 -1.1773 -1.9677
  533MOL0     H71921   4.918   9.725  10.821 -1.4169 -2.8628  0.3979
  533MOL0     H71922   4.773   9.805  10.767  1.2873 -1.1737  1.7975
  533MOL0     H71923   4.842   9.753  10.528 -0.1368 -1.2513 -0.1985
  533MOL0     H71924   4.980   9.665  10.605  0.0335 -2.4268 -0.9413
  533MOL0     H71925   4.751   9.585  10.746  1.3620 -1.4085  0.6231
  533MOL0     H71926   4.848   9.484  10.640 -2.4639 -0.8196 -0.3069
  533MOL0     H71927   4.661   9.428  10.542  0.5077 -0.2057  1.1704
  533MOL0     H71928   4.710   9.542  10.435 -0.0841 -1.7633  0.0954
  533MOL0     H71929   4.527   9.646  10.668  1.3994 -2.3524  0.1269
  533MOL0     H71930   4.529   9.683  10.494  2.5601  1.3156  1.2118
  533MOL0     H71931   4.445   9.415  10.607 -0.4547  1.1042  0.0326
  533MOL0     H71932   4.409   9.493  10.444  0.0906  1.0983  0.1534
  533MOL0     H71933   4.319   9.579  10.720  2.6538 -0.8909 -0.6487
  533MOL0     H71934   4.277   9.672  10.581 -0.7914 -0.3220 -1.4248
  533MOL0     H71935   4.692  10.121  10.910  0.0637  1.3462 -0.1077
  533MOL0     H71936   4.460  10.164  10.857  0.0726 -1.1941  1.1814
  533MOL0     H71937   4.121  10.185  10.522 -2.3671 -0.2434 -2.1268
  533MOL0     H71938   3.878  10.174  10.455 -0.7994 -0.0048 -0.6169
  533MOL0     H71939   2.595  11.033  11.182 -0.5151 -1.2552  0.3706
  533MOL0     H71940   2.385  11.134  11.146  2.3722 -0.5875  2.3193
  533MOL0     H71941   2.049  11.117  10.810  2.5672  0.5664 -1.6711
  533MOL0     H71942   1.860  11.163  10.675 -0.5397  1.6892 -1.4557
  533MOL0     H71943   1.672  11.282  10.610  0.0632 -0.5366 -0.6000
  533MOL0     H71944   1.756  11.213  10.468 -1.7751  0.2197 -2.2085
  533MOL0     H71945   1.672  11.391  10.331  0.0606  0.5082  0.7928
  533MOL0     H71946   1.577  11.455  10.469 -2.6144  1.0806 -2.6558
  533MOL0     H71947   1.448  11.258  10.497 -3.4098  0.9234 -1.5106
  533MOL0     H71948   1.517  11.189  10.340  0.6022 -1.0800  0.8199
  533MOL0     H71949   1.365  11.459  10.367 -1.7309  0.0545 -0.7195
  533MOL0     H71950   1.444  11.400  10.231 -0.0119 -2.5629 -1.2849
  533MOL0     H71951   1.093  11.145  10.254 -0.4988 -0.8958 -4.3971
  533MOL0     H71952   1.979  11.578  10.636 -0.5277 -1.0222 -2.4387
  533MOL0     H71953   2.142  11.660  10.772 -2.6133 -2.8188 -4.4652
  533MOL0     H71954   2.225  11.582  10.908  0.3035 -0.4156 -0.1524
  533MOL0     H71955   2.285  11.569  10.743 -0.4646  2.9052 -0.9009
  534MOL0     O71956   9.866   5.407   2.752 -0.6845  0.1840 -0.9912
  534MOL0     C71957   9.802   5.393   2.856 -0.1277 -0.2253  0.6882
  534MOL0     O71958   9.861   5.392   2.983 -0.6766  0.0397  0.3236
  534MOL0     C71959  10.002   5.395   2.990  0.6633  0.2183  0.1927
  534MOL0     C71960  10.086   5.284   3.019 -0.1923 -0.0369 -0.2099
  534MOL0     C71961  10.231   5.299   3.013  0.5356  0.0091  0.3897
  534MOL0     C71962  10.292   5.412   2.969  0.3373 -0.2775  0.0583
  534MOL0     O71963  10.435   5.404   2.968  0.1444  0.0272  0.6691
  534MOL0     C71964  10.490   5.450   2.839 -0.2594 -0.0165 -0.2051
  534MOL0     C71965  10.637   5.442   2.824  0.1283  0.4879 -0.4959
  534MOL0     C71966  10.703   5.564   2.896 -0.3403  0.3503 -0.4318
  534MOL0     C71967  10.858   5.550   2.906  0.4988  0.9548 -0.4336
  534MOL0     C71968  10.936   5.678   2.896  0.0621 -0.1733 -0.7088
  534MOL0     C71969  11.076   5.650   2.930  0.1394 -1.1692 -0.3908
  534MOL0     C71970  11.177   5.763   2.890  0.1959 -0.4500 -0.0937
  534MOL0     C71971  11.299   5.761   2.974 -0.3634  1.4920  0.4549
  534MOL0     N71972  11.427   5.699   2.921  0.4388 -0.5402 -0.2257
  534MOL0     C71973  11.470   5.573   2.973 -0.7901  0.5834 -0.1489
  534MOL0     C71974  11.586   5.552   2.909  0.3794 -0.2244  0.6671
  534MOL0     C71975  11.662   5.423   2.919  0.4088  0.1964  0.9249
  534MOL0     C71976  11.807   5.457   2.955 -0.5852 -0.5256  0.4080
  534MOL0     C71977  11.891   5.502   2.829  0.5965  0.2716  0.7398
  534MOL0     C71978  12.041   5.530   2.853 -0.6197 -0.1274  0.1026
  534MOL0     O71979  12.093   5.428   2.950  0.4619 -0.7800  0.6512
  534MOL0     C71980  12.222   5.419   2.980 -0.6407 -0.7273  0.3593
  534MOL0     C71981  12.333   5.498   2.931 -0.0354 -0.1857 -0.4333
  534MOL0     C71982  12.461   5.476   2.972 -0.5208  0.2996 -0.9591
  534MOL0     C71983  12.492   5.375   3.068 -0.3908  0.6477  0.2977
  534MOL0     C71984  12.628   5.369   3.123 -0.5074  0.1663 -0.8775
  534MOL0     O71985  12.716   5.471   3.096  0.0435 -0.1682 -0.2421
  534MOL0     C71986  12.852   5.444   3.124  0.5560  0.4715  0.2631
  534MOL0     C71987  12.920   5.410   3.241 -0.3611  0.1570 -0.7677
  534MOL0     C71988  13.054   5.387   3.258 -0.7651  0.1181  0.2279
  534MOL0     C71989  13.135   5.391   3.139  0.2889 -0.3431 -0.5164
  534MOL0     O71990  13.268   5.362   3.136 -0.4058  0.8263 -0.8790
  534MOL0     C71991  13.323   5.271   3.225  0.6294 -0.5612 -0.2272
  534MOL0     C71992  13.469   5.253   3.213 -0.6980 -0.8772  0.3385
  534MOL0     C71993  13.497   5.194   3.071 -0.7774  1.3351 -0.7218
  534MOL0     C71994  13.645   5.186   3.038  0.0452 -0.0054  0.1355
  534MOL0     C71995  13.660   5.128   2.895 -0.2473 -0.6817  0.4973
  534MOL0     C71996  13.553   5.174   2.794 -0.4048  0.5114 -0.4682
  534MOL0     C71997  13.589   5.139   2.656  0.1764  0.2504  0.0838
  534MOL0     C71998  13.467   5.191   2.572  0.1205  0.3820  0.5263
  534MOL0    Cl71999  13.459   5.146   2.402 -0.3605 -0.5665 -0.0051
  534MOL0     C72000  13.075   5.432   3.018  0.4635  0.2310 -0.4200
  534MOL0     C72001  12.934   5.443   3.009 -0.1952 -0.1413 -0.9176
  534MOL0     O72002  12.662   5.267   3.192 -0.5275 -0.6470  0.0535
  534MOL0     C72003  12.389   5.285   3.108 -0.5555 -0.3648  0.4332
  534MOL0     C72004  12.258   5.307   3.063  0.1542 -0.8505  0.8232
  534MOL0     N72005  11.606   5.657   2.821  0.2944  0.5531 -0.7846
  534MOL0     N72006  11.514   5.751   2.831  0.8688 -0.9350  0.1011
  534MOL0     C72007  10.199   5.521   2.940  0.2840 -0.5943 -0.5028
  534MOL0     C72008  10.058   5.512   2.941 -0.4277 -0.3428 -0.2102
  534MOL0     C72009   9.657   5.366   2.840 -0.1241 -0.8855  0.7530
  534MOL0     C72010   9.570   5.396   2.947 -0.8098  0.7207  0.3788
  534MOL0     C72011   9.432   5.355   2.957  1.3409  0.4149  0.1895
  534MOL0     C72012   9.377   5.294   2.842  0.1368 -0.4789  0.6682
  534MOL0     O72013   9.244   5.254   2.826 -0.1282  0.2705  0.3255
  534MOL0     C72014   9.140   5.312   2.909  0.0471  0.4325  0.1202
  534MOL0     C72015   9.012   5.306   2.826 -0.0042 -0.1382  0.3693
  534MOL0     C72016   9.033   5.350   2.674 -0.2792 -0.2923  0.7251
  534MOL0     C72017   8.909   5.322   2.584  0.0637 -0.1891 -0.0044
  534MOL0     C72018   8.792   5.411   2.605 -0.8722 -1.2759  0.2511
  534MOL0     C72019   8.708   5.493   2.634 -0.1667 -1.6661  0.0668
  534MOL0     C72020   9.460   5.266   2.734  0.1800 -0.3138  0.2303
  534MOL0     C72021   9.593   5.304   2.730 -0.0028  0.7718  0.3314
  534MOL0     C72022   9.666   5.264   2.609 -0.6039 -0.0858  0.8522
  534MOL0     H72023  10.062   5.179   3.035  1.6812 -0.3693  0.6326
  534MOL0     H72024  10.286   5.207   3.027  1.4458  0.5702  0.5637
  534MOL0     H72025  10.437   5.403   2.756 -1.8505 -1.1304  1.3412
  534MOL0     H72026  10.468   5.556   2.829  1.2211  0.4528  1.0796
  534MOL0     H72027  10.652   5.445   2.715  0.2122 -1.5494 -0.5781
  534MOL0     H72028  10.672   5.347   2.866  0.8893  1.4927  1.2220
  534MOL0     H72029  10.675   5.565   3.001  2.9169 -3.0578  0.6803
  534MOL0     H72030  10.674   5.660   2.852  3.1509  1.8266  0.1585
  534MOL0     H72031  10.868   5.508   3.006 -0.2751 -0.4565 -0.9212
  534MOL0     H72032  10.889   5.477   2.831  1.2330  1.5024 -0.6715
  534MOL0     H72033  10.924   5.713   2.793 -1.6867  0.6315 -0.2725
  534MOL0     H72034  10.893   5.760   2.954 -0.3988 -0.2230 -0.9725
  534MOL0     H72035  11.089   5.627   3.036  1.3942  2.5431  0.3972
  534MOL0     H72036  11.102   5.564   2.867 -1.5893 -2.2045  0.2401
  534MOL0     H72037  11.128   5.857   2.917  1.2011 -0.6171  2.7614
  534MOL0     H72038  11.201   5.757   2.784  2.0641 -1.6549  0.3399
  534MOL0     H72039  11.330   5.866   2.985  1.4478  1.2190 -1.4432
  534MOL0     H72040  11.276   5.721   3.073  0.3559  0.0068  0.0397
  534MOL0     H72041  11.422   5.513   3.050  0.0289  1.3782  1.0130
  534MOL0     H72042  11.615   5.362   2.997  1.3804  1.2483  2.3897
  534MOL0     H72043  11.654   5.375   2.821 -2.0362  0.7957  0.7538
  534MOL0     H72044  11.802   5.542   3.023 -1.3318  0.0697 -0.3741
  534MOL0     H72045  11.863   5.377   3.004  0.7461  0.7155  0.9766
  534MOL0     H72046  11.851   5.587   2.773  2.5580 -1.9109 -4.6372
  534MOL0     H72047  11.879   5.422   2.756  0.3280  1.3152 -0.3947
  534MOL0     H72048  12.058   5.627   2.901  3.1583  0.5921 -2.2471
  534MOL0     H72049  12.096   5.534   2.758 -1.6293  0.0207 -0.4928
  534MOL0     H72050  12.320   5.587   2.871 -0.3498  1.9033  2.5208
  534MOL0     H72051  12.536   5.544   2.931  1.3195 -1.5163 -0.7574
  534MOL0     H72052  12.864   5.386   3.331  0.6047  0.3363 -0.0972
  534MOL0     H72053  13.086   5.348   3.353 -1.6557  0.9032  0.8686
  534MOL0     H72054  13.313   5.309   3.328  2.1107  1.5538 -0.7853
  534MOL0     H72055  13.270   5.176   3.224 -0.7911 -0.0765  4.2663
  534MOL0     H72056  13.531   5.344   3.214 -1.4769 -0.3331  0.7709
  534MOL0     H72057  13.496   5.181   3.290  1.0680  3.3195  4.1124
  534MOL0     H72058  13.462   5.090   3.079  0.9203  0.6480 -1.6301
  534MOL0     H72059  13.442   5.250   2.995 -1.7044  0.0513 -1.0378
  534MOL0     H72060  13.692   5.116   3.108 -0.9843 -0.2014  0.6512
  534MOL0     H72061  13.688   5.286   3.038  0.5132 -0.2070 -0.2045
  534MOL0     H72062  13.672   5.020   2.886 -0.0092 -0.5299 -1.2750
  534MOL0     H72063  13.755   5.165   2.855 -1.7992  2.3216 -0.7267
  534MOL0     H72064  13.464   5.114   2.816  0.2009 -0.5661 -0.9143
  534MOL0     H72065  13.535   5.281   2.810  2.8109  0.9291  1.3408
  534MOL0     H72066  13.613   5.035   2.630 -1.2333 -0.0792  0.0102
  534MOL0     H72067  13.678   5.195   2.627 -1.1034  4.0239  2.7676
  534MOL0     H72068  13.373   5.165   2.622  1.4121 -1.4431  2.1725
  534MOL0     H72069  13.482   5.299   2.559  0.0252  0.3554  0.1999
  534MOL0     H72070  13.129   5.424   2.924  0.5916 -0.7586 -0.2786
  534MOL0     H72071  12.877   5.475   2.923 -0.7012 -0.3062 -0.6457
  534MOL0     H72072  12.430   5.206   3.170  3.6601  0.7446 -0.6221
  534MOL0     H72073  12.175   5.256   3.112  1.1887 -2.1544  1.2734
  534MOL0     H72074  10.236   5.617   2.908  0.1044 -0.3352  0.0556
  534MOL0     H72075   9.990   5.592   2.912 -2.6643 -1.5251  1.4662
  534MOL0     H72076   9.613   5.430   3.041  0.3799 -0.9339  0.4863
  534MOL0     H72077   9.369   5.365   3.044 -0.5560  1.0406 -1.1810
  534MOL0     H72078   9.162   5.417   2.929 -0.3226  0.9026 -1.7353
  534MOL0     H72079   9.130   5.257   3.003  2.3426  0.1883  0.2882
  534MOL0     H72080   8.941   5.378   2.869  0.0323  0.3538 -0.3890
  534MOL0     H72081   8.981   5.201   2.829  1.0501 -0.6246 -2.6512
  534MOL0     H72082   9.101   5.276   2.629 -0.5787 -1.1535  1.6610
  534MOL0     H72083   9.073   5.451   2.656 -1.3854 -0.2187 -1.6724
  534MOL0     H72084   8.934   5.329   2.478 -0.8942  1.5232 -0.1631
  534MOL0     H72085   8.882   5.218   2.604  0.1836  0.3072  3.3044
  534MOL0     H72086   8.639   5.571   2.658 -0.3021 -1.6361 -0.4029
  534MOL0     H72087   9.404   5.214   2.658 -5.7344  1.8756  2.4601
  534MOL0     H72088   9.739   5.186   2.634  1.1129 -0.8414 -4.9511
  534MOL0     H72089   9.597   5.217   2.539  1.2431  0.1913 -1.2619
  534MOL0     H72090   9.724   5.331   2.545 -0.8885  0.4419  1.1441
  535MOL0     O72091   2.123   8.506   1.537  0.0552  0.1023  0.1455
  535MOL0     C72092   2.021   8.464   1.481  0.0872  0.2250 -0.8665
  535MOL0     O72093   2.023   8.404   1.358  0.2253 -0.0245 -0.0951
  535MOL0     C72094   2.143   8.359   1.312  0.7580 -0.2828 -0.7637
  535MOL0     C72095   2.189   8.228   1.352  0.3909 -0.8754  0.2318
  535MOL0     C72096   2.317   8.195   1.306 -0.1301 -0.1261 -0.1959
  535MOL0     C72097   2.394   8.275   1.220 -0.6688 -0.2689 -0.1502
  535MOL0     O72098   2.522   8.243   1.168  0.3324  0.3527 -0.0858
  535MOL0     C72099   2.583   8.114   1.193 -0.5033  0.3354 -0.3043
  535MOL0     C72100   2.551   7.989   1.115  0.1195 -0.1733 -0.4366
  535MOL0     C72101   2.515   8.026   0.968 -0.5555 -0.3986  0.1719
  535MOL0     C72102   2.498   7.898   0.881 -0.5669 -0.7864  0.3146
  535MOL0     C72103   2.398   7.790   0.917 -0.7095  0.3417  0.0052
  535MOL0     C72104   2.252   7.819   0.903 -0.0341  0.6378 -0.1341
  535MOL0     C72105   2.202   7.877   1.040  1.0343  0.7580  0.6801
  535MOL0     C72106   2.050   7.918   1.028  0.3706 -0.2148  0.0706
  535MOL0     N72107   2.023   8.045   0.948 -0.3159  0.8972 -0.5039
  535MOL0     C72108   2.009   8.157   1.015  0.8952 -0.5928 -0.1345
  535MOL0     C72109   1.931   8.235   0.946  0.0156 -0.4598 -0.1126
  535MOL0     C72110   1.881   8.363   0.991  0.8242  0.1458  0.0864
  535MOL0     C72111   1.777   8.420   0.887  0.0068  0.8108 -0.5113
  535MOL0     C72112   1.668   8.498   0.964 -0.0337 -0.2814  0.1646
  535MOL0     C72113   1.534   8.516   0.890  1.0497 -0.3676  0.2005
  535MOL0     O72114   1.490   8.389   0.851  0.0446 -0.3693  0.1167
  535MOL0     C72115   1.360   8.375   0.807  0.2068  0.5030 -0.3932
  535MOL0     C72116   1.313   8.260   0.740 -0.0698  1.0284  0.0417
  535MOL0     C72117   1.190   8.255   0.678  0.1832  0.1355  0.2385
  535MOL0     C72118   1.103   8.360   0.681  0.4324  0.2266  0.3310
  535MOL0     C72119   0.971   8.342   0.626  0.6555 -0.5459  0.7060
  535MOL0     O72120   0.866   8.382   0.709 -0.4129  0.5112 -0.4351
  535MOL0     C72121   0.739   8.382   0.665  0.1790  0.6298 -0.9764
  535MOL0     C72122   0.684   8.263   0.618  0.2504  0.2022 -0.1878
  535MOL0     C72123   0.552   8.251   0.590 -0.1722  0.3612  0.0540
  535MOL0     C72124   0.465   8.366   0.604 -0.5479  0.1837  0.0381
  535MOL0     O72125   0.342   8.373   0.552 -0.2849 -0.5284  0.3739
  535MOL0     C72126   0.298   8.259   0.471 -0.5953  0.6456  0.2285
  535MOL0     C72127   0.155   8.263   0.425 -0.2078  0.0484  0.0696
  535MOL0     C72128   0.137   8.146   0.327 -0.2378  0.2426  0.0800
  535MOL0     C72129   0.147   8.184   0.176  0.5095 -0.3974 -1.1916
  535MOL0     C72130   0.037   8.288   0.135 -0.7848 -0.5416 -0.4332
  535MOL0     C72131  -0.111   8.245   0.155  0.9374 -0.7543 -0.0681
  535MOL0     C72132  -0.198   8.353   0.089  0.5938 -0.0572  0.1534
  535MOL0     C72133  -0.349   8.328   0.112 -0.0646 -0.3602 -0.0506
  535MOL0    Cl72134  -0.434   8.466   0.042 -0.0110  0.3258  0.3019
  535MOL0     C72135   0.524   8.491   0.654 -0.0558  0.1911  0.6802
  535MOL0     C72136   0.657   8.496   0.684  0.4854  0.0292  0.0658
  535MOL0     O72137   0.957   8.307   0.510 -0.1163 -0.0068 -0.5268
  535MOL0     C72138   1.143   8.472   0.753 -0.9156  0.6912  1.1656
  535MOL0     C72139   1.271   8.482   0.800  0.0051 -0.6654  0.5281
  535MOL0     N72140   1.915   8.166   0.822  0.2816  0.2554  0.4369
  535MOL0     N72141   1.978   8.059   0.822  0.7562 -0.1762  0.3018
  535MOL0     C72142   2.329   8.387   1.161  0.3999 -0.8979 -0.4301
  535MOL0     C72143   2.212   8.429   1.214  0.4235  0.2741  0.7456
  535MOL0     C72144   1.896   8.512   1.540  0.4545  0.0377  1.2859
  535MOL0     C72145   1.893   8.625   1.621 -0.0627 -0.1467  1.2702
  535MOL0     C72146   1.778   8.660   1.692 -0.8263 -0.5221 -0.2549
  535MOL0     C72147   1.664   8.578   1.685  0.1872  0.1118 -0.5837
  535MOL0     O72148   1.552   8.608   1.761 -0.2302 -1.0230  0.1310
  535MOL0     C72149   1.536   8.524   1.874 -0.4779  0.2675 -0.3838
  535MOL0     C72150   1.448   8.592   1.983 -0.9218 -0.0545  0.1847
  535MOL0     C72151   1.473   8.738   2.004  0.3201 -0.4483  0.2507
  535MOL0     C72152   1.357   8.794   2.096  0.4275  1.1353  0.0300
  535MOL0     C72153   1.365   8.932   2.122 -0.8472 -1.5021  0.4186
  535MOL0     C72154   1.401   9.047   2.119 -0.1324 -0.1299 -0.7689
  535MOL0     C72155   1.663   8.473   1.603  0.1193  0.4922  0.1196
  535MOL0     C72156   1.778   8.437   1.524 -0.0440 -0.2436 -0.3186
  535MOL0     C72157   1.771   8.303   1.451  0.6930 -0.4058 -0.7457
  535MOL0     H72158   2.130   8.161   1.415 -2.4710 -1.2241 -2.5930
  535MOL0     H72159   2.371   8.107   1.340 -0.3064  0.5128  1.8779
  535MOL0     H72160   2.689   8.127   1.169 -0.7758  0.8230 -1.2846
  535MOL0     H72161   2.582   8.089   1.300 -3.2370  0.9329 -0.0995
  535MOL0     H72162   2.467   7.945   1.170 -0.4048  0.8752 -0.3843
  535MOL0     H72163   2.628   7.912   1.105 -0.0756 -0.5009  0.4739
  535MOL0     H72164   2.597   8.081   0.922 -1.8038 -0.5126 -2.4244
  535MOL0     H72165   2.425   8.087   0.954 -0.7623 -1.3518 -3.7214
  535MOL0     H72166   2.479   7.934   0.780  2.2641 -0.6866 -0.2688
  535MOL0     H72167   2.594   7.846   0.875 -0.0222  0.1709  0.5845
  535MOL0     H72168   2.431   7.704   0.858 -1.5817  0.7887 -1.1693
  535MOL0     H72169   2.426   7.757   1.018  0.4182  0.9325 -0.0871
  535MOL0     H72170   2.231   7.877   0.812 -2.0028 -0.9271 -0.7332
  535MOL0     H72171   2.195   7.727   0.894 -1.1384  1.4314 -1.9384
  535MOL0     H72172   2.263   7.966   1.057  3.3924 -0.4186 -1.0457
  535MOL0     H72173   2.211   7.815   1.130  1.1596  1.5334  1.2095
  535MOL0     H72174   1.997   7.835   0.979 -0.0102  0.3892 -0.5721
  535MOL0     H72175   1.996   7.935   1.121  0.2467  0.9041 -0.1955
  535MOL0     H72176   2.046   8.170   1.116 -2.7375 -2.3151  1.6165
  535MOL0     H72177   1.836   8.353   1.090 -2.7829  0.1304 -1.4190
  535MOL0     H72178   1.968   8.428   0.999  4.0392 -3.6119 -0.9742
  535MOL0     H72179   1.828   8.489   0.821  2.1738 -2.4853 -2.5789
  535MOL0     H72180   1.734   8.334   0.835 -0.4711  0.2124  0.8059
  535MOL0     H72181   1.701   8.596   0.999 -0.9612  0.2657 -0.4351
  535MOL0     H72182   1.649   8.430   1.047  3.1034 -1.0757  0.3751
  535MOL0     H72183   1.542   8.584   0.805 -1.1038 -2.3215 -1.7232
  535MOL0     H72184   1.469   8.566   0.963  0.2494  3.1469 -2.6533
  535MOL0     H72185   1.391   8.185   0.754  0.0609  1.1986  0.2409
  535MOL0     H72186   1.162   8.160   0.633  1.2736 -0.2952  0.4568
  535MOL0     H72187   0.749   8.180   0.592  0.1242 -0.4650  1.5125
  535MOL0     H72188   0.525   8.149   0.566 -0.0999  0.7444 -1.8572
  535MOL0     H72189   0.365   8.245   0.386 -0.3325 -2.1064  0.7913
  535MOL0     H72190   0.299   8.163   0.524 -1.5625 -0.2629 -1.3022
  535MOL0     H72191   0.095   8.241   0.514  0.1598 -0.4858  0.1912
  535MOL0     H72192   0.129   8.364   0.392  0.4202 -0.3399 -1.7394
  535MOL0     H72193   0.214   8.071   0.351  1.6769  1.8951 -0.5958
  535MOL0     H72194   0.034   8.118   0.349 -0.9677  0.1340 -3.0105
  535MOL0     H72195   0.146   8.094   0.113  2.2713 -0.9719 -0.4419
  535MOL0     H72196   0.244   8.229   0.153  0.2223  0.2046 -1.2420
  535MOL0     H72197   0.052   8.303   0.028  0.0174 -3.9070 -0.9046
  535MOL0     H72198   0.067   8.384   0.176  0.7762 -1.2679  0.2018
  535MOL0     H72199  -0.146   8.144   0.131 -0.1354 -0.4077  0.0136
  535MOL0     H72200  -0.124   8.249   0.264  1.8273  2.0963  0.0035
  535MOL0     H72201  -0.174   8.349  -0.018  1.2158 -1.9038  0.3293
  535MOL0     H72202  -0.171   8.450   0.132 -2.0008  1.7537 -2.0002
  535MOL0     H72203  -0.377   8.240   0.054  1.5773 -0.4080 -0.8406
  535MOL0     H72204  -0.373   8.319   0.219 -0.7534 -0.8708 -0.2463
  535MOL0     H72205   0.473   8.586   0.665 -0.3668 -0.2130  3.5631
  535MOL0     H72206   0.700   8.591   0.711  1.7819 -1.4936  4.1648
  535MOL0     H72207   1.079   8.560   0.757 -2.3375 -0.2860  0.5457
  535MOL0     H72208   1.301   8.576   0.845 -2.2596 -1.4511  4.0273
  535MOL0     H72209   2.384   8.438   1.083  2.4259 -1.1533  0.7551
  535MOL0     H72210   2.164   8.518   1.175  4.5442  1.8956 -1.2325
  535MOL0     H72211   1.983   8.683   1.635 -1.2271  2.5331 -1.3636
  535MOL0     H72212   1.761   8.746   1.756 -1.6868  0.9827 -2.3806
  535MOL0     H72213   1.632   8.506   1.924 -1.8325 -0.8435  2.0109
  535MOL0     H72214   1.486   8.432   1.844  0.6940 -0.9038  1.0992
  535MOL0     H72215   1.472   8.543   2.077  2.7168 -0.0605 -0.5884
  535MOL0     H72216   1.344   8.574   1.953 -1.1521  0.4109  0.6841
  535MOL0     H72217   1.473   8.794   1.910 -0.1210  3.7931  2.5169
  535MOL0     H72218   1.566   8.771   2.050 -0.5437 -1.6430  3.1113
  535MOL0     H72219   1.259   8.778   2.050  0.9438  1.3375 -1.1841
  535MOL0     H72220   1.356   8.736   2.188  0.8610  1.1161  0.0244
  535MOL0     H72221   1.459   9.137   2.107  1.0715 -1.0786 -2.5418
  535MOL0     H72222   1.569   8.419   1.604 -0.2914  1.1917  1.5719
  535MOL0     H72223   1.783   8.306   1.342 -1.1395 -0.6279 -0.9819
  535MOL0     H72224   1.850   8.238   1.490 -0.3513  0.7769  3.9154
  535MOL0     H72225   1.669   8.265   1.459  0.9795 -1.6375 -2.3110
  536MOL0     O72226  10.011  11.155   4.428  0.5432 -1.0055  0.0072
  536MOL0     C72227   9.973  11.069   4.348  0.1712 -0.3211  0.6268
  536MOL0     O72228  10.037  11.033   4.237 -1.0440 -0.4992  0.4695
  536MOL0     C72229  10.166  11.067   4.214  0.9312 -0.5059 -0.0194
  536MOL0     C72230  10.196  11.202   4.180 -0.0292 -0.1970  0.1338
  536MOL0     C72231  10.325  11.235   4.148  0.2287  0.7632  0.6101
  536MOL0     C72232  10.429  11.136   4.147  0.4948 -0.6569  0.0632
  536MOL0     O72233  10.546  11.179   4.102  0.1004 -0.4765 -0.0811
  536MOL0     C72234  10.653  11.078   4.084 -0.1096 -0.4312  0.3671
  536MOL0     C72235  10.784  11.158   4.038 -0.0163  1.5675 -0.7764
  536MOL0     C72236  10.897  11.051   4.058  0.5503  0.2006  0.1966
  536MOL0     C72237  11.013  11.087   3.969 -1.1800  0.5752  0.3660
  536MOL0     C72238  11.134  10.989   3.999 -0.3311 -0.4618  0.7324
  536MOL0     C72239  11.120  10.845   3.964 -0.6307  0.1047 -0.0276
  536MOL0     C72240  11.243  10.770   4.004 -0.6033  0.9100 -0.3375
  536MOL0     C72241  11.235  10.623   4.034  0.0044  0.8411  0.0883
  536MOL0     N72242  11.237  10.546   3.898  0.7168 -0.0952 -0.3810
  536MOL0     C72243  11.156  10.449   3.846  0.1922  0.1876 -0.2536
  536MOL0     C72244  11.231  10.394   3.741  0.2677 -0.8306 -0.2331
  536MOL0     C72245  11.170  10.302   3.641 -0.0531 -0.6109  0.6627
  536MOL0     C72246  11.198  10.163   3.692  0.1716 -0.2174  0.4800
  536MOL0     C72247  11.198  10.061   3.578  0.1386 -0.3913 -0.0099
  536MOL0     C72248  11.245   9.916   3.625  0.0715 -0.0316 -0.4089
  536MOL0     O72249  11.181   9.863   3.742 -0.0885  0.1542  0.0099
  536MOL0     C72250  11.045   9.847   3.743 -0.9660  0.4063 -0.3003
  536MOL0     C72251  10.968   9.801   3.637  0.2933 -0.5710  0.8556
  536MOL0     C72252  10.836   9.787   3.657  0.0636 -0.6497 -0.2517
  536MOL0     C72253  10.771   9.811   3.781 -0.2454  0.0871 -0.0765
  536MOL0     C72254  10.627   9.812   3.783  0.8186 -0.4325 -0.2613
  536MOL0     O72255  10.561   9.767   3.675  0.3397  0.6841  0.5929
  536MOL0     C72256  10.424   9.734   3.661 -1.4911 -0.4674 -0.8222
  536MOL0     C72257  10.322   9.826   3.655 -0.2629  0.1624  0.2681
  536MOL0     C72258  10.191   9.800   3.662 -0.1271 -0.1861 -0.0111
  536MOL0     C72259  10.146   9.673   3.660  1.2781  0.5350 -0.9335
  536MOL0     O72260  10.009   9.659   3.660  0.2197  0.6085  0.2212
  536MOL0     C72261   9.941   9.573   3.560 -0.3196 -0.2970 -0.2245
  536MOL0     C72262   9.799   9.546   3.618 -0.0889 -0.8150  0.7213
  536MOL0     C72263   9.703   9.457   3.549 -0.8900 -0.1655 -0.5936
  536MOL0     C72264   9.691   9.315   3.616  0.1079  0.4660 -0.5682
  536MOL0     C72265   9.569   9.236   3.566 -0.6644  0.1414  0.0441
  536MOL0     C72266   9.567   9.085   3.600  0.6844 -1.0848 -0.0358
  536MOL0     C72267   9.431   9.015   3.587 -0.1527 -0.2091  0.1976
  536MOL0     C72268   9.450   8.871   3.584  0.6337  0.1575 -0.0742
  536MOL0    Cl72269   9.290   8.795   3.581 -0.0628  0.5382  0.0096
  536MOL0     C72270  10.238   9.568   3.652  0.3685 -0.5663  0.2130
  536MOL0     C72271  10.380   9.599   3.657  0.1365  0.6136 -0.1411
  536MOL0     O72272  10.569   9.848   3.887 -0.2741  0.2559  0.1968
  536MOL0     C72273  10.850   9.846   3.894  0.8088 -0.0099  0.3362
  536MOL0     C72274  10.986   9.875   3.868  1.1080  0.6630 -0.9409
  536MOL0     N72275  11.348  10.454   3.733 -1.1540  0.2567 -0.6511
  536MOL0     N72276  11.355  10.539   3.828 -0.5354 -0.5182 -0.1789
  536MOL0     C72277  10.395  11.007   4.194 -0.8437  0.4428  0.7635
  536MOL0     C72278  10.268  10.966   4.218  1.1043  0.0480 -0.7719
  536MOL0     C72279   9.839  11.007   4.379 -0.2345  0.0268  0.2508
  536MOL0     C72280   9.804  10.888   4.327  0.1254  0.7045  0.5889
  536MOL0     C72281   9.679  10.834   4.336  0.4584  0.1936  0.2503
  536MOL0     C72282   9.581  10.897   4.414  0.3280  0.2400  0.5883
  536MOL0     O72283   9.457  10.858   4.450 -0.2189 -0.7007  0.4262
  536MOL0     C72284   9.398  10.749   4.385  0.2442 -0.3957 -0.5205
  536MOL0     C72285   9.339  10.776   4.247 -0.3128 -0.7300  0.9988
  536MOL0     C72286   9.241  10.902   4.266 -0.4993  0.4829 -0.0456
  536MOL0     C72287   9.126  10.861   4.179 -0.1571 -0.8556 -0.4226
  536MOL0     C72288   9.025  10.974   4.178 -0.1141 -0.5231  0.1306
  536MOL0     C72289   8.951  11.079   4.167 -1.4939  0.4743  0.4175
  536MOL0     C72290   9.613  11.016   4.471  0.1044 -0.7648 -0.5260
  536MOL0     C72291   9.737  11.076   4.455 -0.2498  0.5156  0.5747
  536MOL0     C72292   9.751  11.218   4.501  0.3659  0.1139 -0.4113
  536MOL0     H72293  10.113  11.272   4.185  0.4077  0.5438 -2.0782
  536MOL0     H72294  10.337  11.339   4.119  0.9735  0.4144 -0.4100
  536MOL0     H72295  10.677  11.032   4.180  0.0122  0.2036  0.6471
  536MOL0     H72296  10.625  10.999   4.014  3.5073  0.1550 -2.0163
  536MOL0     H72297  10.798  11.240   4.108  1.0184 -0.1544  1.1451
  536MOL0     H72298  10.773  11.208   3.941  2.5873  2.0102 -0.9182
  536MOL0     H72299  10.868  10.950   4.027 -0.8041  0.5041  0.4181
  536MOL0     H72300  10.920  11.060   4.165 -0.7918 -0.7920  0.5824
  536MOL0     H72301  10.980  11.075   3.866  3.1010  0.1152 -1.1438
  536MOL0     H72302  11.039  11.192   3.983  2.0744 -0.2278  1.1509
  536MOL0     H72303  11.220  11.025   3.941 -0.9892 -5.0009 -3.7265
  536MOL0     H72304  11.149  10.996   4.107 -3.0723 -0.2622  1.1730
  536MOL0     H72305  11.032  10.822   4.025 -1.6354  0.2465 -1.3691
  536MOL0     H72306  11.110  10.835   3.855 -1.6118  1.5325 -0.1068
  536MOL0     H72307  11.282  10.805   4.100  0.8201  0.3577 -0.6908
  536MOL0     H72308  11.322  10.784   3.930  0.0588  0.8519  0.3536
  536MOL0     H72309  11.329  10.597   4.083 -0.1916  0.2772  0.1688
  536MOL0     H72310  11.144  10.598   4.089 -1.3406 -0.8288 -2.6766
  536MOL0     H72311  11.052  10.426   3.867  0.0887 -0.7856 -1.6806
  536MOL0     H72312  11.062  10.303   3.621 -0.2962 -1.5191  1.8578
  536MOL0     H72313  11.214  10.311   3.541  1.6649  2.8058  1.5661
  536MOL0     H72314  11.298  10.161   3.736  0.2169 -2.6598  0.3674
  536MOL0     H72315  11.143  10.137   3.782  2.0937  1.2345  2.1937
  536MOL0     H72316  11.251  10.096   3.490 -2.1234  0.8444 -0.9455
  536MOL0     H72317  11.097  10.057   3.535  1.0614  2.5612 -2.8182
  536MOL0     H72318  11.353   9.908   3.642  0.1216  1.6404  0.3347
  536MOL0     H72319  11.215   9.847   3.546 -1.7383 -0.5213  0.6554
  536MOL0     H72320  11.018   9.781   3.543  1.6986  1.0068  1.2008
  536MOL0     H72321  10.786   9.746   3.570  4.1995  2.5223 -4.6786
  536MOL0     H72322  10.337   9.932   3.639 -0.2295  0.0117 -0.8326
  536MOL0     H72323  10.119   9.880   3.662  0.3871  0.2875 -0.7208
  536MOL0     H72324   9.940   9.624   3.463 -1.1959  0.3850  0.1239
  536MOL0     H72325   9.989   9.475   3.557 -0.5375 -0.4957  1.5116
  536MOL0     H72326   9.803   9.529   3.726  1.8247 -0.3073  0.7669
  536MOL0     H72327   9.754   9.646   3.618 -1.0889 -1.2426  1.9875
  536MOL0     H72328   9.604   9.502   3.542  0.1812  2.2052 -1.9329
  536MOL0     H72329   9.740   9.447   3.447 -0.7569 -1.1268 -0.4556
  536MOL0     H72330   9.674   9.332   3.722 -1.2623  1.2565 -0.8898
  536MOL0     H72331   9.787   9.265   3.598  0.5359  1.9862 -3.0812
  536MOL0     H72332   9.569   9.241   3.456  3.3094  2.2538 -0.0620
  536MOL0     H72333   9.485   9.295   3.604 -1.3151  1.2481 -2.7920
  536MOL0     H72334   9.651   9.035   3.551  1.0683 -0.8508  0.3727
  536MOL0     H72335   9.589   9.080   3.707 -1.5194  0.1799  0.5451
  536MOL0     H72336   9.392   9.036   3.487  0.3315 -0.5677 -0.0683
  536MOL0     H72337   9.358   9.042   3.665  1.4781 -0.7229  1.9755
  536MOL0     H72338   9.504   8.842   3.494  2.0518 -2.3240  1.4394
  536MOL0     H72339   9.516   8.835   3.663  4.8031  0.2232 -3.2167
  536MOL0     H72340  10.198   9.468   3.644 -2.9456  0.6373 -0.0003
  536MOL0     H72341  10.458   9.523   3.662  2.2564  2.4001 -2.9081
  536MOL0     H72342  10.806   9.862   3.992 -0.7679 -1.8733  0.0129
  536MOL0     H72343  11.040   9.911   3.956 -0.5460 -1.3149  1.0160
  536MOL0     H72344  10.472  10.930   4.192  0.0062  1.2827 -0.8071
  536MOL0     H72345  10.226  10.868   4.240 -2.0010  1.3549 -0.3108
  536MOL0     H72346   9.876  10.836   4.266  1.9345  1.9339  1.5859
  536MOL0     H72347   9.651  10.747   4.277 -1.0975  0.9792 -0.2108
  536MOL0     H72348   9.324  10.706   4.453 -1.1778  1.8208 -0.5514
  536MOL0     H72349   9.475  10.672   4.387 -0.0343 -0.6701  1.0752
  536MOL0     H72350   9.281  10.688   4.216 -1.5298  0.3652  0.0457
  536MOL0     H72351   9.406  10.796   4.164 -1.8632 -1.3815 -0.4609
  536MOL0     H72352   9.296  10.989   4.229  0.7828  1.1572  3.1310
  536MOL0     H72353   9.222  10.924   4.371 -1.6491  1.8002 -0.5038
  536MOL0     H72354   9.153  10.844   4.074  0.5583  2.1852 -0.8283
  536MOL0     H72355   9.080  10.772   4.221 -2.3980  0.9616  1.2606
  536MOL0     H72356   8.895  11.170   4.158  1.3661  2.3401  0.0510
  536MOL0     H72357   9.531  11.059   4.528  1.1575  1.2331 -0.4234
  536MOL0     H72358   9.821  11.221   4.585 -2.0529  0.6318  1.6889
  536MOL0     H72359   9.774  11.275   4.410 -2.4935 -0.2094 -1.4331
  536MOL0     H72360   9.657  11.260   4.538  1.6001  2.5539  0.1807
  537MOL0     O72361   1.064   6.947   6.045  0.3521  1.3720 -0.1115
  537MOL0     C72362   1.068   6.832   6.089  0.1964 -0.3430  0.7809
  537MOL0     O72363   1.168   6.784   6.163 -0.3148  0.3704 -0.4452
  537MOL0     C72364   1.294   6.792   6.113 -0.3329 -0.2410  0.1971
  537MOL0     C72365   1.332   6.715   6.003  0.5532 -0.4519 -0.1082
  537MOL0     C72366   1.469   6.704   5.962 -0.0583  0.1001 -0.1102
  537MOL0     C72367   1.566   6.763   6.030  0.5155 -0.5156  0.4622
  537MOL0     O72368   1.691   6.754   5.972 -0.1917  1.1645  0.0135
  537MOL0     C72369   1.806   6.784   6.051  0.6870 -0.6429  0.6055
  537MOL0     C72370   1.909   6.700   5.963 -0.3565  0.3418 -0.4299
  537MOL0     C72371   2.035   6.703   6.053 -0.1397 -0.7439 -0.4182
  537MOL0     C72372   2.170   6.646   5.995 -0.1528 -0.3492  1.1175
  537MOL0     C72373   2.254   6.766   5.952 -0.3086  0.8257  0.3799
  537MOL0     C72374   2.389   6.723   5.884 -0.8520  0.7237 -0.4960
  537MOL0     C72375   2.496   6.648   5.974 -0.4357  0.4267 -0.2632
  537MOL0     C72376   2.556   6.742   6.080 -0.2546 -0.0425  0.5352
  537MOL0     N72377   2.638   6.657   6.168  0.2225 -0.2502 -0.3182
  537MOL0     C72378   2.753   6.598   6.139 -0.2706 -0.2037 -0.1356
  537MOL0     C72379   2.763   6.504   6.234 -0.5839  0.1183 -0.0462
  537MOL0     C72380   2.866   6.396   6.238  0.0683 -0.3059 -0.1562
  537MOL0     C72381   2.985   6.453   6.312 -0.4537 -0.0961 -0.2603
  537MOL0     C72382   3.116   6.384   6.273 -0.9398  0.4694  0.1187
  537MOL0     C72383   3.237   6.483   6.289  0.3061  0.0191 -0.1200
  537MOL0     O72384   3.272   6.519   6.427 -0.3476  0.3218  0.2234
  537MOL0     C72385   3.287   6.419   6.519 -0.3826 -0.5647 -0.7127
  537MOL0     C72386   3.358   6.297   6.512 -0.8887  0.7418  0.1795
  537MOL0     C72387   3.363   6.203   6.616 -0.1555 -0.0582 -0.2176
  537MOL0     C72388   3.296   6.228   6.739  0.0060 -0.2452  0.2964
  537MOL0     C72389   3.300   6.124   6.851  0.2926 -0.5165 -0.6690
  537MOL0     O72390   3.237   6.165   6.964  0.4961 -0.2910 -0.2864
  537MOL0     C72391   3.212   6.084   7.072 -0.0585 -0.5295 -0.8316
  537MOL0     C72392   3.282   6.115   7.186  0.5206 -0.1655  0.1031
  537MOL0     C72393   3.259   6.044   7.309  0.4548  0.1121 -0.9192
  537MOL0     C72394   3.164   5.940   7.309 -0.5920 -0.4606  0.9450
  537MOL0     O72395   3.135   5.868   7.423  0.3285 -0.0821  0.6345
  537MOL0     C72396   3.229   5.777   7.479 -0.3921 -0.8820  0.3565
  537MOL0     C72397   3.170   5.639   7.475 -0.0810 -0.0470 -0.1515
  537MOL0     C72398   3.040   5.626   7.565  0.3045 -0.3749 -0.2103
  537MOL0     C72399   2.912   5.694   7.508 -0.9858 -0.5986  0.3030
  537MOL0     C72400   2.784   5.636   7.568  0.4213 -0.1308  0.0886
  537MOL0     C72401   2.661   5.702   7.516  0.6990 -0.0715 -0.1078
  537MOL0     C72402   2.627   5.666   7.366  0.0162  0.5230  0.2972
  537MOL0     C72403   2.562   5.787   7.308 -0.2679  1.1563 -0.3027
  537MOL0    Cl72404   2.419   5.840   7.406 -0.3001 -0.1995 -0.0915
  537MOL0     C72405   3.105   5.903   7.189  0.3712  0.4330 -1.3694
  537MOL0     C72406   3.125   5.975   7.071  0.0695 -0.4263  0.2396
  537MOL0     O72407   3.357   6.011   6.837  0.9074 -0.1353 -0.0706
  537MOL0     C72408   3.228   6.353   6.756 -0.3132 -0.0051  0.4533
  537MOL0     C72409   3.220   6.442   6.646  0.2264 -0.2857  0.0750
  537MOL0     N72410   2.665   6.522   6.330 -0.0400  0.0792  0.3896
  537MOL0     N72411   2.582   6.609   6.287 -0.5864  0.1554  0.3054
  537MOL0     C72412   1.537   6.841   6.152  0.0585 -0.4734  0.9620
  537MOL0     C72413   1.397   6.851   6.184 -0.4860  0.3958 -0.0072
  537MOL0     C72414   0.968   6.743   6.044  0.0812  0.4337  0.4711
  537MOL0     C72415   0.910   6.757   5.919  0.2556  0.3369  0.8941
  537MOL0     C72416   0.814   6.662   5.870 -0.6252 -0.3949  0.4926
  537MOL0     C72417   0.771   6.555   5.938 -0.1668 -0.4512  0.0335
  537MOL0     O72418   0.674   6.463   5.899 -0.1023  1.0119  0.4747
  537MOL0     C72419   0.613   6.457   5.765  0.0899 -0.0216 -0.2152
  537MOL0     C72420   0.475   6.512   5.762  0.0829 -0.2415  0.5473
  537MOL0     C72421   0.368   6.411   5.805 -0.2707  0.6298  0.2552
  537MOL0     C72422   0.356   6.404   5.955 -1.1921 -0.3865  0.2199
  537MOL0     C72423   0.213   6.390   5.999 -0.6383 -0.7968 -0.0964
  537MOL0     C72424   0.107   6.373   6.051  0.1833 -0.3001 -0.3057
  537MOL0     C72425   0.818   6.541   6.074 -0.0079  0.4602 -0.6774
  537MOL0     C72426   0.920   6.627   6.124  0.6487 -0.4217  0.5076
  537MOL0     C72427   0.968   6.586   6.264 -1.1064 -0.5809  0.1274
  537MOL0     H72428   1.259   6.668   5.938 -2.0182  0.5187  1.9318
  537MOL0     H72429   1.488   6.648   5.871  0.7793 -0.2645  0.2716
  537MOL0     H72430   1.830   6.890   6.040  0.9815 -0.7766 -0.0699
  537MOL0     H72431   1.803   6.745   6.153  1.2582  1.0352  1.2819
  537MOL0     H72432   1.919   6.739   5.862  3.7642 -2.9193 -1.5531
  537MOL0     H72433   1.872   6.597   5.962  0.2664  0.0694  1.2328
  537MOL0     H72434   2.019   6.644   6.144  0.7553 -3.4106 -1.9078
  537MOL0     H72435   2.057   6.807   6.081  0.3754 -0.8398 -0.4647
  537MOL0     H72436   2.235   6.588   6.062  0.4943 -1.3139 -0.3036
  537MOL0     H72437   2.155   6.589   5.903  1.2790 -1.3739  1.4814
  537MOL0     H72438   2.187   6.812   5.878  0.5175  1.2462 -0.1290
  537MOL0     H72439   2.282   6.837   6.030  0.3844  2.0382 -0.9225
  537MOL0     H72440   2.358   6.656   5.803  1.0585  0.8622 -1.3810
  537MOL0     H72441   2.446   6.809   5.850 -2.3952  2.3222  0.7430
  537MOL0     H72442   2.577   6.607   5.913 -0.9866 -1.5175  0.2507
  537MOL0     H72443   2.453   6.562   6.027  1.8941 -1.5915 -1.4163
  537MOL0     H72444   2.626   6.806   6.026 -0.5943  0.7044  0.9633
  537MOL0     H72445   2.487   6.794   6.148  0.4333 -1.1611  2.1526
  537MOL0     H72446   2.818   6.604   6.052 -1.4610  0.5343 -0.9997
  537MOL0     H72447   2.823   6.310   6.291 -0.5848 -0.6079 -1.1627
  537MOL0     H72448   2.896   6.357   6.141  1.4176  2.5953 -1.0274
  537MOL0     H72449   2.994   6.561   6.298  2.6773 -0.4489 -1.9255
  537MOL0     H72450   2.968   6.434   6.419 -0.6708 -0.1975 -0.3114
  537MOL0     H72451   3.118   6.338   6.174  0.0039 -1.6097  1.0230
  537MOL0     H72452   3.135   6.299   6.340  2.2173  3.0902  2.9000
  537MOL0     H72453   3.213   6.581   6.245  2.5468  0.7675  0.1962
  537MOL0     H72454   3.323   6.446   6.232 -0.3169  0.4679 -1.4048
  537MOL0     H72455   3.422   6.269   6.429  1.7932 -0.4548  2.4509
  537MOL0     H72456   3.425   6.115   6.603 -0.0997  0.0793 -0.9247
  537MOL0     H72457   3.356   6.194   7.190  2.6659 -1.9565 -1.5591
  537MOL0     H72458   3.306   6.061   7.406  0.4875 -3.6176 -0.1281
  537MOL0     H72459   3.325   5.774   7.426 -1.3110 -0.7600 -1.3776
  537MOL0     H72460   3.246   5.810   7.582 -3.4727  0.1524  0.6181
  537MOL0     H72461   3.144   5.622   7.370 -0.4595  0.1435 -0.0890
  537MOL0     H72462   3.245   5.564   7.503 -1.5057 -2.3403 -2.0390
  537MOL0     H72463   3.018   5.520   7.579  1.0181 -0.5388 -0.2930
  537MOL0     H72464   3.054   5.677   7.661  1.6338  1.4658 -1.3084
  537MOL0     H72465   2.916   5.679   7.400 -0.1053 -2.9851  0.5988
  537MOL0     H72466   2.914   5.802   7.528  1.6782 -0.2183 -1.5332
  537MOL0     H72467   2.796   5.661   7.674 -0.7321  0.1937  0.1662
  537MOL0     H72468   2.767   5.528   7.567  2.0876 -0.4160 -1.2393
  537MOL0     H72469   2.578   5.685   7.585  1.2311 -0.5735  0.4247
  537MOL0     H72470   2.683   5.809   7.528 -3.4007  0.8981  0.1400
  537MOL0     H72471   2.550   5.589   7.360 -0.2965  0.5811  2.5524
  537MOL0     H72472   2.722   5.643   7.317  0.2709  5.4112 -2.1886
  537MOL0     H72473   2.640   5.858   7.280 -0.6365  1.0541 -1.6442
  537MOL0     H72474   2.514   5.758   7.214  0.8150 -3.5986  0.3564
  537MOL0     H72475   3.035   5.822   7.204  1.4454 -0.2797  0.0433
  537MOL0     H72476   3.064   5.957   6.983 -0.9932 -1.5802  1.1758
  537MOL0     H72477   3.163   6.363   6.842  1.4263  0.6343  1.7504
  537MOL0     H72478   3.141   6.516   6.653 -0.1596 -0.7015  0.1945
  537MOL0     H72479   1.613   6.895   6.208 -0.4425  0.6168  0.6298
  537MOL0     H72480   1.367   6.909   6.271 -1.6034 -0.0922 -0.0501
  537MOL0     H72481   0.945   6.838   5.855  0.6554 -0.6707 -0.2025
  537MOL0     H72482   0.776   6.678   5.769 -3.0935 -1.3266  1.1846
  537MOL0     H72483   0.620   6.357   5.722 -0.4689  0.5713 -1.7243
  537MOL0     H72484   0.687   6.509   5.703 -0.1326  2.1853  1.2350
  537MOL0     H72485   0.464   6.554   5.661  1.4818 -1.7355 -0.2881
  537MOL0     H72486   0.460   6.598   5.828 -2.3200 -0.1937  0.0450
  537MOL0     H72487   0.381   6.311   5.763  0.6242  0.4960  0.8277
  537MOL0     H72488   0.274   6.445   5.761  0.2615  2.3353  0.3488
  537MOL0     H72489   0.417   6.326   5.999  1.4675  0.7253 -1.2514
  537MOL0     H72490   0.391   6.500   5.994  0.3780 -1.0249  0.4585
  537MOL0     H72491   0.018   6.351   6.107 -1.2716  4.5992 -0.2260
  537MOL0     H72492   0.780   6.463   6.139 -0.2625  0.1987 -1.1290
  537MOL0     H72493   0.916   6.491   6.284 -1.6249 -0.2019  0.6238
  537MOL0     H72494   1.076   6.577   6.271 -1.1541 -2.3322 -0.8482
  537MOL0     H72495   0.937   6.658   6.340  1.4701 -1.0245  1.7307
  538MOL0     O72496   3.567   5.486   3.891 -0.5828 -0.2750  0.4932
  538MOL0     C72497   3.511   5.465   3.784  0.4819  0.6374 -0.4419
  538MOL0     O72498   3.495   5.557   3.681 -0.0676 -1.1095 -0.3361
  538MOL0     C72499   3.558   5.676   3.704 -0.1652  1.4123  0.4228
  538MOL0     C72500   3.699   5.673   3.671 -0.0598  0.7342 -0.2216
  538MOL0     C72501   3.766   5.799   3.682 -0.4456 -0.8108 -1.0175
  538MOL0     C72502   3.696   5.908   3.750  0.3117  0.4323  0.6496
  538MOL0     O72503   3.758   6.030   3.742 -0.9894 -0.0992  0.1497
  538MOL0     C72504   3.765   6.102   3.869  0.3184  0.2411 -0.6376
  538MOL0     C72505   3.913   6.130   3.890  1.2133  0.2598 -0.3326
  538MOL0     C72506   4.000   6.006   3.894 -0.2440 -0.0985 -0.5319
  538MOL0     C72507   4.133   6.030   3.969 -0.2923 -0.1675  0.0083
  538MOL0     C72508   4.118   6.077   4.116 -0.7099  0.7736  0.1689
  538MOL0     C72509   4.262   6.070   4.170 -0.8779 -0.6775 -0.7015
  538MOL0     C72510   4.259   6.091   4.326 -0.4424  0.1192 -0.6729
  538MOL0     C72511   4.382   6.151   4.393 -0.7227 -0.1391 -0.7946
  538MOL0     N72512   4.499   6.070   4.361 -0.1151 -0.4224  0.2060
  538MOL0     C72513   4.525   5.943   4.406  0.3447 -0.1100 -0.5388
  538MOL0     C72514   4.636   5.897   4.330  0.5600 -0.4742 -0.2957
  538MOL0     C72515   4.706   5.765   4.371 -0.1734 -0.4874 -0.7377
  538MOL0     C72516   4.752   5.771   4.516 -0.7681  0.3431 -0.2150
  538MOL0     C72517   4.822   5.901   4.562  0.8314 -0.0530 -0.4672
  538MOL0     C72518   4.880   5.893   4.703  0.7181 -0.3013  0.5643
  538MOL0     O72519   5.025   5.912   4.711 -0.1697  0.9262  0.4724
  538MOL0     C72520   5.109   5.800   4.689 -0.3512 -0.1201  0.3875
  538MOL0     C72521   5.241   5.833   4.694 -0.1476  0.0083 -0.7289
  538MOL0     C72522   5.344   5.734   4.676  0.2275  0.7305 -0.1932
  538MOL0     C72523   5.309   5.596   4.661  0.4906 -0.1362  0.4473
  538MOL0     C72524   5.419   5.497   4.659  0.7778 -0.1396  0.2422
  538MOL0     O72525   5.372   5.372   4.695 -0.4087 -0.1139 -0.0172
  538MOL0     C72526   5.467   5.273   4.695 -0.3508  1.0564 -0.2638
  538MOL0     C72527   5.538   5.236   4.577  0.9861  0.4412 -0.1263
  538MOL0     C72528   5.632   5.129   4.575  0.5186 -0.2997  0.4916
  538MOL0     C72529   5.665   5.073   4.703 -0.3433 -0.4672  0.9905
  538MOL0     O72530   5.738   4.955   4.709  0.9340 -0.2131  0.4219
  538MOL0     C72531   5.871   4.970   4.654  0.5481  0.3631 -0.0821
  538MOL0     C72532   5.965   5.018   4.762  0.0437  0.7026 -0.0876
  538MOL0     C72533   6.102   5.029   4.698 -0.0224 -0.5982  0.1945
  538MOL0     C72534   6.208   5.036   4.803  0.4421  0.1786 -0.3812
  538MOL0     C72535   6.347   5.028   4.739  0.4283  1.1197 -0.1303
  538MOL0     C72536   6.456   5.060   4.844  0.2362 -0.3113  0.0522
  538MOL0     C72537   6.604   5.056   4.787 -0.5740 -1.0931  0.0014
  538MOL0     C72538   6.715   5.027   4.889  0.2605 -0.3155 -0.6994
  538MOL0    Cl72539   6.699   5.141   5.027  0.0764 -0.2385 -0.1851
  538MOL0     C72540   5.595   5.116   4.818  0.7145 -0.4671  0.2646
  538MOL0     C72541   5.494   5.215   4.816  0.0567  0.8354 -0.3264
  538MOL0     O72542   5.533   5.532   4.612  0.5273  0.0088 -0.1808
  538MOL0     C72543   5.178   5.566   4.665 -0.4955 -0.7369 -0.5436
  538MOL0     C72544   5.081   5.662   4.687  0.1315 -0.4167  0.0858
  538MOL0     N72545   4.668   6.000   4.250 -1.0584 -0.0778 -0.1065
  538MOL0     N72546   4.597   6.107   4.275 -0.2898  0.2551  0.6576
  538MOL0     C72547   3.558   5.900   3.787  0.5184  0.5520  0.0392
  538MOL0     C72548   3.495   5.782   3.764  0.4160  0.5176  0.1123
  538MOL0     C72549   3.439   5.333   3.766 -0.0223 -0.2479  0.2014
  538MOL0     C72550   3.371   5.268   3.874 -0.3367  0.0317  0.1102
  538MOL0     C72551   3.287   5.155   3.846  0.5383  0.5337  0.0155
  538MOL0     C72552   3.282   5.090   3.726  1.0134 -0.0453  0.7944
  538MOL0     O72553   3.204   4.980   3.724  0.3456  0.1071  0.0567
  538MOL0     C72554   3.224   4.889   3.619 -0.4804 -0.0868 -0.3540
  538MOL0     C72555   3.115   4.793   3.639 -0.2184 -0.4008 -0.6852
  538MOL0     C72556   2.979   4.852   3.587  1.2305 -0.2728 -0.0144
  538MOL0     C72557   2.865   4.746   3.598 -0.5629  0.5239 -0.1142
  538MOL0     C72558   2.736   4.799   3.559 -0.5751  0.5900 -0.2142
  538MOL0     C72559   2.622   4.823   3.525  0.4052 -0.2429  0.3686
  538MOL0     C72560   3.366   5.144   3.622  0.5923 -0.6986 -0.1266
  538MOL0     C72561   3.446   5.264   3.644 -0.3396 -0.0618  0.6034
  538MOL0     C72562   3.532   5.308   3.528  0.4450 -0.5079  0.3427
  538MOL0     H72563   3.741   5.582   3.630  2.0076  1.6115 -0.1795
  538MOL0     H72564   3.861   5.830   3.641 -1.5556  3.9282 -0.5555
  538MOL0     H72565   3.702   6.192   3.861 -0.4628 -0.4605 -3.8536
  538MOL0     H72566   3.720   6.050   3.954 -0.3954 -1.1011 -1.8074
  538MOL0     H72567   3.912   6.176   3.989 -0.7071  0.7058 -0.5155
  538MOL0     H72568   3.953   6.197   3.814 -2.6017  3.4772  0.2089
  538MOL0     H72569   4.017   5.953   3.800 -1.0306 -1.4822  0.0681
  538MOL0     H72570   3.944   5.927   3.944  0.6495 -0.5998 -0.3001
  538MOL0     H72571   4.184   5.934   3.964 -0.3086 -0.2146  0.6055
  538MOL0     H72572   4.192   6.113   3.927  0.6256 -0.3817  0.8425
  538MOL0     H72573   4.085   6.180   4.131 -0.1591  0.8797  0.7008
  538MOL0     H72574   4.054   6.000   4.158 -0.7551  1.2997  1.0985
  538MOL0     H72575   4.293   5.970   4.139 -1.1017 -0.5822 -1.2590
  538MOL0     H72576   4.327   6.146   4.126  0.0274 -1.3226 -0.5058
  538MOL0     H72577   4.242   5.992   4.369 -0.0023  1.2089  2.2383
  538MOL0     H72578   4.175   6.157   4.348  1.1384  1.9654  0.1690
  538MOL0     H72579   4.405   6.257   4.377 -1.8660  0.9280  3.4884
  538MOL0     H72580   4.358   6.148   4.499 -2.3459  3.0496 -0.9430
  538MOL0     H72581   4.463   5.890   4.477  0.5481 -2.8235 -2.2424
  538MOL0     H72582   4.639   5.679   4.376  1.5744 -2.0157  5.2742
  538MOL0     H72583   4.790   5.750   4.302  1.0761  1.6395  0.2109
  538MOL0     H72584   4.663   5.755   4.579 -0.3831 -0.8929  0.0337
  538MOL0     H72585   4.816   5.684   4.534 -1.9623 -0.4802  0.1965
  538MOL0     H72586   4.749   5.982   4.558  1.8739  0.8870 -0.7429
  538MOL0     H72587   4.901   5.922   4.489  1.4639  0.7702  0.4245
  538MOL0     H72588   4.838   5.806   4.755 -0.4789 -0.8169 -1.1785
  538MOL0     H72589   4.841   5.985   4.748  3.5723  1.4784 -0.3458
  538MOL0     H72590   5.264   5.938   4.708 -1.2090  0.4368 -2.0513
  538MOL0     H72591   5.448   5.764   4.679  1.4258 -2.9667  0.5754
  538MOL0     H72592   5.512   5.287   4.485  1.0940  1.6671  0.5043
  538MOL0     H72593   5.679   5.104   4.480 -0.8201  2.8028 -1.1272
  538MOL0     H72594   5.897   4.873   4.611  1.3245  1.5366 -2.3936
  538MOL0     H72595   5.870   5.033   4.565 -1.3635  1.8653  0.9086
  538MOL0     H72596   5.941   5.120   4.793  3.3157  2.0177 -1.4328
  538MOL0     H72597   5.969   4.955   4.852  2.8324  2.8433  1.4156
  538MOL0     H72598   6.127   4.945   4.632 -2.1943  0.8261 -2.6882
  538MOL0     H72599   6.116   5.118   4.636 -3.0859  0.0140  0.2507
  538MOL0     H72600   6.203   4.963   4.884 -2.0603 -0.0704 -0.6768
  538MOL0     H72601   6.187   5.132   4.850 -0.8321  2.4996 -5.0361
  538MOL0     H72602   6.353   5.096   4.653  0.5363  0.7400 -0.4268
  538MOL0     H72603   6.369   4.935   4.685  1.3607  0.9591  0.5026
  538MOL0     H72604   6.438   5.163   4.876  1.2078 -0.8435  2.5763
  538MOL0     H72605   6.443   4.991   4.928 -1.7582 -2.7860 -2.0925
  538MOL0     H72606   6.619   5.153   4.739 -1.4453 -1.8433 -1.9048
  538MOL0     H72607   6.623   4.980   4.710  0.3861 -1.2446  0.3725
  538MOL0     H72608   6.712   4.925   4.930  2.8572 -0.2689 -0.1976
  538MOL0     H72609   6.810   5.027   4.836  1.3809  0.9514  1.1857
  538MOL0     H72610   5.612   5.078   4.918 -0.9488  2.0438  1.6236
  538MOL0     H72611   5.455   5.262   4.905 -0.3958  2.6082 -1.4113
  538MOL0     H72612   5.153   5.462   4.651 -0.8187 -1.1221  2.2852
  538MOL0     H72613   4.981   5.619   4.689  0.6189 -1.5941  0.2577
  538MOL0     H72614   3.498   5.984   3.822  1.8031  0.4357  2.7505
  538MOL0     H72615   3.389   5.774   3.783  0.0885  0.4599 -1.6147
  538MOL0     H72616   3.373   5.323   3.968  2.6517  3.4899 -1.7199
  538MOL0     H72617   3.241   5.104   3.929 -1.8991 -1.5318 -2.4312
  538MOL0     H72618   3.326   4.852   3.635 -0.9587 -0.4293  2.4181
  538MOL0     H72619   3.218   4.938   3.522 -0.3827  1.9377  0.6099
  538MOL0     H72620   3.108   4.766   3.745 -0.3965 -1.0025 -0.8442
  538MOL0     H72621   3.143   4.705   3.580 -0.2168 -1.9498  1.4605
  538MOL0     H72622   2.992   4.879   3.481 -3.9005 -0.9111 -1.0525
  538MOL0     H72623   2.955   4.945   3.638  1.1997 -0.1231 -0.2961
  538MOL0     H72624   2.881   4.652   3.545 -0.3672 -0.1151  1.0470
  538MOL0     H72625   2.858   4.726   3.705 -0.0021  0.6222 -0.0560
  538MOL0     H72626   2.520   4.852   3.513  0.6916  2.2521  2.9059
  538MOL0     H72627   3.368   5.088   3.530 -0.8976 -1.0150  0.0204
  538MOL0     H72628   3.508   5.403   3.479  0.3001 -2.1921 -3.1949
  538MOL0     H72629   3.639   5.306   3.549  0.9644  0.5779 -1.8592
  538MOL0     H72630   3.510   5.241   3.444 -3.6565  0.6936  0.2485
  539MOL0     O72631   6.031   0.392  11.330  0.6516 -0.1027  0.4787
  539MOL0     C72632   5.958   0.398  11.233  0.2364 -0.7998  0.1012
  539MOL0     O72633   5.991   0.445  11.111 -0.2731  0.4168  0.5330
  539MOL0     C72634   6.121   0.496  11.101 -0.1382 -0.4095 -0.2258
  539MOL0     C72635   6.189   0.439  10.996  0.4967  0.6362  0.4473
  539MOL0     C72636   6.318   0.484  10.972  0.3279  0.4974 -0.2028
  539MOL0     C72637   6.376   0.585  11.044 -0.4140 -0.9813  1.2184
  539MOL0     O72638   6.504   0.635  11.027  0.0542  0.3859 -0.1458
  539MOL0     C72639   6.582   0.575  10.921 -0.2598  0.2188  0.5596
  539MOL0     C72640   6.729   0.632  10.934  0.5178  0.7175 -0.3692
  539MOL0     C72641   6.793   0.599  11.058  0.1801 -0.4520  0.3043
  539MOL0     C72642   6.922   0.665  11.062 -1.5343  0.7582 -0.1108
  539MOL0     C72643   7.001   0.622  11.187 -0.4060 -0.5303  0.2549
  539MOL0     C72644   7.145   0.673  11.179  0.0101 -0.7995 -0.0727
  539MOL0     C72645   7.149   0.828  11.162  0.4480  1.3783 -0.3004
  539MOL0     C72646   7.290   0.878  11.191  0.3818  0.1851 -0.1085
  539MOL0     N72647   7.384   0.864  11.079  0.9548  0.0509  0.2369
  539MOL0     C72648   7.464   0.757  11.052 -0.3793 -0.5724 -0.1699
  539MOL0     C72649   7.573   0.801  10.986  0.9983  0.3370 -0.1703
  539MOL0     C72650   7.689   0.715  10.940 -0.3273  0.0654 -0.7316
  539MOL0     C72651   7.798   0.782  10.843  0.7186 -0.0413  0.9861
  539MOL0     C72652   7.892   0.900  10.908 -0.2559  0.0192 -0.1061
  539MOL0     C72653   7.966   0.860  11.041  0.7888 -0.7944 -0.0041
  539MOL0     O72654   8.016   0.731  11.017  0.0934  0.6019  0.8508
  539MOL0     C72655   8.084   0.665  11.115  0.5264  0.0629  0.0120
  539MOL0     C72656   8.107   0.530  11.108  0.2467  0.3128 -0.3120
  539MOL0     C72657   8.180   0.453  11.203  0.0530 -0.4130  0.3133
  539MOL0     C72658   8.231   0.524  11.323  0.4101 -0.2244  0.3517
  539MOL0     C72659   8.326   0.461  11.413 -0.2781 -0.3875  0.0493
  539MOL0     O72660   8.346   0.334  11.399  0.3173  0.3223 -0.3433
  539MOL0     C72661   8.453   0.261  11.459  0.0586  0.3877 -0.1469
  539MOL0     C72662   8.491   0.291  11.592  0.6610  0.2874 -0.3401
  539MOL0     C72663   8.587   0.214  11.652 -0.4373 -0.3013  0.5187
  539MOL0     C72664   8.644   0.106  11.586  0.2442  0.7152  0.6395
  539MOL0     O72665   8.725   0.030  11.665 -0.2327  0.3968  0.2526
  539MOL0     C72666   8.718  -0.110  11.665  1.0254  0.1671 -0.2255
  539MOL0     C72667   8.803  -0.176  11.779 -0.6821  0.8528 -0.0839
  539MOL0     C72668   8.942  -0.117  11.776 -0.4778 -1.0836  0.4715
  539MOL0     C72669   9.028  -0.174  11.886  0.1169 -0.5874 -0.2018
  539MOL0     C72670   9.161  -0.082  11.892  0.5856 -0.2773  0.6385
  539MOL0     C72671   9.256  -0.114  12.012  0.3098 -1.0591  0.6991
  539MOL0     C72672   9.313  -0.259  12.037 -0.0782 -0.6959 -0.1766
  539MOL0     C72673   9.339  -0.341  11.914 -0.7901  0.1507 -0.1620
  539MOL0    Cl72674   9.503  -0.304  11.847 -0.2072 -0.3574 -0.1899
  539MOL0     C72675   8.591   0.067  11.459 -0.0652  0.7534 -0.4871
  539MOL0     C72676   8.514   0.154  11.396  0.7113  0.3718 -0.0321
  539MOL0     O72677   8.395   0.534  11.483 -0.4179 -0.0234 -0.0934
  539MOL0     C72678   8.209   0.667  11.330 -0.1935 -0.6568  0.5694
  539MOL0     C72679   8.139   0.733  11.231 -0.2180  0.7744  0.2218
  539MOL0     N72680   7.534   0.928  10.952  0.8741 -0.1043  0.0004
  539MOL0     N72681   7.432   0.969  11.005  0.7006 -0.5205  0.2837
  539MOL0     C72682   6.302   0.655  11.138 -1.2668 -0.8809  0.7430
  539MOL0     C72683   6.181   0.600  11.172  0.0308 -0.4591 -0.5268
  539MOL0     C72684   5.819   0.358  11.248 -0.8827  0.4315 -0.0854
  539MOL0     C72685   5.729   0.367  11.135  0.7853  1.0289  0.0168
  539MOL0     C72686   5.604   0.314  11.133  0.5170 -0.3840 -1.4868
  539MOL0     C72687   5.548   0.279  11.257 -0.7147  0.5788  0.6431
  539MOL0     O72688   5.414   0.262  11.267 -0.2515  1.0966  0.0558
  539MOL0     C72689   5.319   0.291  11.162 -0.9639 -0.1682 -0.8710
  539MOL0     C72690   5.175   0.268  11.210 -0.4636 -0.0857 -0.2355
  539MOL0     C72691   5.146   0.134  11.255  0.3179  1.1099 -0.0600
  539MOL0     C72692   5.108   0.042  11.143 -0.4842 -0.5442 -0.6429
  539MOL0     C72693   5.089  -0.096  11.200  0.4717 -0.2017  0.6694
  539MOL0     C72694   5.088  -0.212  11.243 -0.5236 -0.1459 -0.3623
  539MOL0     C72695   5.625   0.267  11.370 -0.0530  0.5068 -0.8098
  539MOL0     C72696   5.761   0.311  11.369  0.6365  0.6640  0.1216
  539MOL0     C72697   5.835   0.288  11.503  0.4160 -0.4125  0.4514
  539MOL0     H72698   6.146   0.354  10.942  0.7137  2.1704 -2.3661
  539MOL0     H72699   6.370   0.424  10.898  2.1207  1.9135 -0.1701
  539MOL0     H72700   6.585   0.469  10.946  0.3163  0.6971  2.7248
  539MOL0     H72701   6.555   0.588  10.815 -0.7319  2.1722  0.8773
  539MOL0     H72702   6.731   0.741  10.922 -1.7763  1.0813  1.6857
  539MOL0     H72703   6.786   0.598  10.847 -0.4557  2.4195 -1.7420
  539MOL0     H72704   6.804   0.493  11.084  2.1187 -0.0324  1.3849
  539MOL0     H72705   6.735   0.640  11.141 -0.2907 -2.1980  0.8791
  539MOL0     H72706   6.983   0.636  10.975  0.6107 -0.7896  1.7952
  539MOL0     H72707   6.907   0.774  11.065 -3.4984  0.6501 -2.4992
  539MOL0     H72708   6.955   0.665  11.276 -0.8804  1.1806 -0.7592
  539MOL0     H72709   7.008   0.514  11.201  0.3283 -0.0877  4.5268
  539MOL0     H72710   7.206   0.639  11.263 -0.1611 -2.4731 -0.5853
  539MOL0     H72711   7.187   0.644  11.081 -0.6637  0.5223 -0.7814
  539MOL0     H72712   7.074   0.871  11.229  0.7058 -1.7434  2.2620
  539MOL0     H72713   7.126   0.854  11.058  0.7702 -1.0834 -1.0656
  539MOL0     H72714   7.280   0.985  11.207  1.2431  0.5496 -1.7474
  539MOL0     H72715   7.335   0.830  11.279 -1.9358 -0.3646  0.8410
  539MOL0     H72716   7.443   0.662  11.100 -0.0480  1.1797  3.7982
  539MOL0     H72717   7.729   0.680  11.035 -1.3480 -0.9277 -0.6499
  539MOL0     H72718   7.651   0.625  10.891 -1.4664  1.2130 -2.0453
  539MOL0     H72719   7.862   0.709  10.792 -1.9963 -3.4629  2.0744
  539MOL0     H72720   7.746   0.829  10.759  1.1820  0.9979  1.2722
  539MOL0     H72721   7.853   1.001  10.924  2.3401  1.1740 -0.5325
  539MOL0     H72722   7.973   0.920  10.837 -0.5926  2.6626  0.1652
  539MOL0     H72723   7.895   0.864  11.124  2.0526 -1.6926  1.1369
  539MOL0     H72724   8.047   0.932  11.055  1.9500 -2.0355 -0.2121
  539MOL0     H72725   8.084   0.474  11.017  0.1102 -1.6735  0.8793
  539MOL0     H72726   8.195   0.347  11.187  0.1942 -0.3177 -0.2139
  539MOL0     H72727   8.448   0.370  11.651 -0.1150 -0.3640 -0.0174
  539MOL0     H72728   8.611   0.232  11.756 -3.3724  2.6733  0.8586
  539MOL0     H72729   8.613  -0.135  11.679  1.2358 -0.9467 -0.5204
  539MOL0     H72730   8.758  -0.152  11.572 -2.4403 -2.3102 -0.8090
  539MOL0     H72731   8.760  -0.168  11.879  1.2358 -2.7074  1.2287
  539MOL0     H72732   8.826  -0.282  11.767  1.4093  1.1035  1.1228
  539MOL0     H72733   8.986  -0.129  11.676  1.2084  2.5287  0.6141
  539MOL0     H72734   8.944  -0.009  11.796  3.0328 -1.0002  0.2231
  539MOL0     H72735   9.042  -0.281  11.867 -1.0110 -0.9524  0.9048
  539MOL0     H72736   8.977  -0.165  11.982  2.3150  3.9411  0.7947
  539MOL0     H72737   9.126   0.021  11.903  0.5769  0.0296 -1.6535
  539MOL0     H72738   9.213  -0.089  11.795  0.0449  0.6341  0.2742
  539MOL0     H72739   9.336  -0.040  11.996 -0.8638  0.5145  1.7753
  539MOL0     H72740   9.218  -0.080  12.109 -0.4622  0.3932 -0.0716
  539MOL0     H72741   9.231  -0.316  12.082 -1.3982  0.0669 -1.5433
  539MOL0     H72742   9.399  -0.241  12.103 -0.9425 -0.5740  0.9285
  539MOL0     H72743   9.339  -0.448  11.937 -2.4710  0.1446 -0.0595
  539MOL0     H72744   9.263  -0.328  11.837 -1.2261  1.9594  0.5073
  539MOL0     H72745   8.649  -0.011  11.411  2.9029  0.7838  2.6224
  539MOL0     H72746   8.484   0.129  11.295  4.1585  0.8406 -1.3094
  539MOL0     H72747   8.248   0.725  11.412  0.7153 -2.0922  1.2009
  539MOL0     H72748   8.135   0.842  11.233 -1.3696  0.8179  3.7927
  539MOL0     H72749   6.342   0.738  11.195  0.9267 -0.1750 -1.6363
  539MOL0     H72750   6.125   0.660  11.243 -0.9289  2.4654 -3.4654
  539MOL0     H72751   5.771   0.410  11.044 -0.4514  0.9154 -0.6217
  539MOL0     H72752   5.541   0.340  11.049  0.9406  3.0478 -0.8926
  539MOL0     H72753   5.332   0.217  11.083  1.7370  0.4142 -1.0532
  539MOL0     H72754   5.329   0.390  11.115 -3.0192  0.7462  0.4407
  539MOL0     H72755   5.108   0.282  11.125 -1.7649 -0.1597  0.7502
  539MOL0     H72756   5.152   0.345  11.283 -0.5080  0.7208 -1.0857
  539MOL0     H72757   5.070   0.131  11.334  1.9845 -4.7178  1.8359
  539MOL0     H72758   5.234   0.095  11.307 -0.0860 -0.5603 -0.5582
  539MOL0     H72759   5.008   0.074  11.113 -0.3519  0.9572  0.3665
  539MOL0     H72760   5.177   0.045  11.059  1.1158  1.7898  0.6392
  539MOL0     H72761   5.087  -0.313  11.279  3.1131 -1.8459 -4.0879
  539MOL0     H72762   5.572   0.238  11.460  1.9290  1.5672  0.7781
  539MOL0     H72763   5.889   0.378  11.534 -1.3181  0.6943  0.3952
  539MOL0     H72764   5.775   0.271  11.593  0.3768  2.7571  1.1371
  539MOL0     H72765   5.912   0.211  11.498 -0.9854 -1.8392  0.0864
  540MOL0     O72766   7.845   2.392   0.321 -0.0296 -1.0399  0.1552
  540MOL0     C72767   7.751   2.445   0.384 -0.8041 -0.1563 -0.5049
  540MOL0     O72768   7.762   2.495   0.507  0.0328  0.2326  0.1071
  540MOL0     C72769   7.883   2.484   0.568 -0.1394  0.5104  0.3619
  540MOL0     C72770   7.907   2.370   0.651  0.0950  0.5447  0.1730
  540MOL0     C72771   8.019   2.359   0.731  0.4812  0.2634 -0.3193
  540MOL0     C72772   8.111   2.464   0.720 -0.1364 -1.1687 -0.3198
  540MOL0     O72773   8.216   2.463   0.817 -0.5466  0.6547 -0.0174
  540MOL0     C72774   8.247   2.584   0.884 -0.4745 -0.0419 -0.6433
  540MOL0     C72775   8.321   2.560   1.011 -0.2669  0.6069 -0.1467
  540MOL0     C72776   8.447   2.472   0.990 -0.1380  0.7336  0.6070
  540MOL0     C72777   8.510   2.447   1.127 -0.4990  0.2848 -0.1561
  540MOL0     C72778   8.646   2.353   1.119  0.1453  0.2654 -0.2531
  540MOL0     C72779   8.713   2.317   1.245 -0.3296  0.7365  0.0067
  540MOL0     C72780   8.819   2.199   1.232 -0.4514 -0.3857 -0.0515
  540MOL0     C72781   8.895   2.179   1.361  0.3354  0.7981  0.0967
  540MOL0     N72782   8.984   2.282   1.412 -0.3152  0.1910  0.1188
  540MOL0     C72783   9.120   2.267   1.421 -0.0962  0.2143  0.5258
  540MOL0     C72784   9.162   2.350   1.516  0.5304 -0.3020  1.4426
  540MOL0     C72785   9.305   2.365   1.558  0.7450  0.8056  0.3227
  540MOL0     C72786   9.399   2.400   1.439 -0.4940 -0.2945 -0.7821
  540MOL0     C72787   9.546   2.417   1.487  0.2087  0.4003  0.6908
  540MOL0     C72788   9.608   2.280   1.534 -0.3494 -0.2093 -0.0752
  540MOL0     O72789   9.752   2.298   1.555  0.5469 -0.8159  0.0979
  540MOL0     C72790   9.831   2.271   1.454 -0.2960  0.1581  0.2505
  540MOL0     C72791   9.836   2.143   1.400  0.2233 -0.4817  0.0573
  540MOL0     C72792   9.925   2.111   1.298  0.1950 -0.0802 -0.4617
  540MOL0     C72793  10.027   2.191   1.270 -0.3393  0.5835  0.4253
  540MOL0     C72794  10.138   2.153   1.175  1.8369 -0.9173  0.1816
  540MOL0     O72795  10.142   2.018   1.142 -0.0008  0.1332  0.0870
  540MOL0     C72796  10.219   1.983   1.036  0.4024 -0.3316  0.2550
  540MOL0     C72797  10.312   1.886   1.050 -0.2073 -1.1863 -0.1895
  540MOL0     C72798  10.404   1.869   0.942 -0.0342  0.0737 -0.8679
  540MOL0     C72799  10.389   1.930   0.814 -1.0707 -0.0951 -0.9444
  540MOL0     O72800  10.484   1.898   0.717 -0.7303  0.1980 -0.4823
  540MOL0     C72801  10.446   1.911   0.582 -0.1928 -0.0267 -0.0599
  540MOL0     C72802  10.460   2.057   0.537  1.1516 -0.2087  0.1889
  540MOL0     C72803  10.600   2.116   0.508  0.3456  0.6734 -0.2073
  540MOL0     C72804  10.597   2.269   0.513 -0.0018 -0.0806  0.3058
  540MOL0     C72805  10.741   2.319   0.472  0.0666 -0.7919 -0.1590
  540MOL0     C72806  10.746   2.475   0.458  0.7350 -0.3168 -0.1557
  540MOL0     C72807  10.888   2.526   0.445 -0.8020  0.1861  0.1962
  540MOL0     C72808  10.898   2.660   0.366  0.1975  0.5560 -0.6211
  540MOL0    Cl72809  11.043   2.763   0.397  0.4523  0.2709 -0.0920
  540MOL0     C72810  10.280   2.016   0.808  0.1366  1.0825  0.6563
  540MOL0     C72811  10.196   2.046   0.918  0.4204  0.6084 -0.5884
  540MOL0     O72812  10.219   2.237   1.140 -0.0809 -0.2508 -0.0754
  540MOL0     C72813  10.029   2.320   1.324 -0.1194 -0.9827 -0.6116
  540MOL0     C72814   9.934   2.359   1.423 -0.3408 -0.1343 -0.6334
  540MOL0     N72815   9.053   2.432   1.552  0.2360  0.5977  0.4199
  540MOL0     N72816   8.945   2.390   1.484 -0.2006 -0.2208  0.3146
  540MOL0     C72817   8.094   2.569   0.616 -0.6295  0.4418 -0.2832
  540MOL0     C72818   7.980   2.580   0.550 -0.4551 -0.1071  0.6852
  540MOL0     C72819   7.634   2.470   0.297 -0.7211  0.0966  0.0381
  540MOL0     C72820   7.630   2.602   0.247 -0.3169  0.7266  0.0698
  540MOL0     C72821   7.509   2.650   0.199 -0.4658 -0.0426  0.0115
  540MOL0     C72822   7.401   2.567   0.185 -0.1877 -0.0293  0.2161
  540MOL0     O72823   7.289   2.624   0.139  0.7053 -0.4319 -0.0169
  540MOL0     C72824   7.165   2.553   0.138  0.4161  0.0313 -0.1252
  540MOL0     C72825   7.146   2.471   0.012 -0.6686 -0.7184 -0.7099
  540MOL0     C72826   6.995   2.427  -0.008  0.5788 -0.8973 -0.5423
  540MOL0     C72827   6.961   2.355  -0.142 -0.1479 -0.2664 -0.1472
  540MOL0     C72828   7.003   2.218  -0.125  0.1522  0.1845 -0.2657
  540MOL0     C72829   7.037   2.101  -0.122  0.0978  0.6848  0.7390
  540MOL0     C72830   7.408   2.433   0.223 -0.3787  0.1841  0.7036
  540MOL0     C72831   7.531   2.380   0.271 -0.1952 -1.0694 -0.1188
  540MOL0     C72832   7.537   2.239   0.301  0.0023  0.3785 -0.2029
  540MOL0     H72833   7.825   2.299   0.654 -1.2143  2.0451  1.6579
  540MOL0     H72834   8.043   2.279   0.800  0.2587  1.9941  1.8825
  540MOL0     H72835   8.318   2.642   0.824 -1.2409  1.8882  0.2237
  540MOL0     H72836   8.159   2.650   0.891 -1.5484 -1.5256  0.4829
  540MOL0     H72837   8.253   2.501   1.073  0.5484  1.3409  1.4952
  540MOL0     H72838   8.347   2.649   1.068  1.5682 -0.3001  0.5418
  540MOL0     H72839   8.516   2.514   0.916  0.2764 -0.2416  0.4206
  540MOL0     H72840   8.403   2.379   0.953  1.8290  0.2902 -0.7641
  540MOL0     H72841   8.547   2.545   1.159  2.7155 -1.1450  0.9453
  540MOL0     H72842   8.428   2.421   1.194 -1.0730  1.0006 -0.5664
  540MOL0     H72843   8.604   2.269   1.064 -3.5362  0.9341  1.2951
  540MOL0     H72844   8.718   2.404   1.054  0.2285  1.1078  0.4656
  540MOL0     H72845   8.764   2.402   1.291 -1.6564 -0.2441  3.6497
  540MOL0     H72846   8.634   2.299   1.318 -1.6919 -1.7317 -1.8785
  540MOL0     H72847   8.895   2.203   1.153 -2.7120 -3.5643 -2.6586
  540MOL0     H72848   8.764   2.106   1.215 -1.3848 -0.1551  1.5378
  540MOL0     H72849   8.825   2.160   1.443  0.1743 -0.9633 -0.3985
  540MOL0     H72850   8.948   2.085   1.344  2.1037  1.8351 -0.3342
  540MOL0     H72851   9.172   2.179   1.386 -2.1167 -0.3263 -1.3891
  540MOL0     H72852   9.301   2.459   1.614  0.7292  0.7010  0.4985
  540MOL0     H72853   9.331   2.283   1.625 -1.2294 -0.7669 -0.7044
  540MOL0     H72854   9.397   2.323   1.362  0.0014  0.5249 -1.6379
  540MOL0     H72855   9.360   2.493   1.396 -1.5662 -0.3487  0.0289
  540MOL0     H72856   9.547   2.497   1.561 -0.5912 -0.4966  1.6969
  540MOL0     H72857   9.591   2.461   1.398  1.7585 -0.4548  1.0028
  540MOL0     H72858   9.584   2.202   1.461 -1.6593  0.6008 -0.5551
  540MOL0     H72859   9.564   2.247   1.628 -0.4572 -1.1352 -0.4348
  540MOL0     H72860   9.755   2.074   1.422  0.0651  0.1392  1.5120
  540MOL0     H72861   9.894   2.019   1.250 -2.0098  0.8561 -0.9605
  540MOL0     H72862  10.314   1.833   1.144  3.1173  0.5643  0.8834
  540MOL0     H72863  10.486   1.802   0.967 -1.1963 -0.9726  0.3266
  540MOL0     H72864  10.513   1.845   0.526 -0.7953 -0.5002 -0.2284
  540MOL0     H72865  10.345   1.885   0.551 -0.5136  0.0399  0.8888
  540MOL0     H72866  10.394   2.070   0.450  0.2932  0.3227  0.9098
  540MOL0     H72867  10.411   2.115   0.615 -1.4132 -0.4729 -1.1077
  540MOL0     H72868  10.673   2.066   0.573 -1.5046 -2.1885 -0.1315
  540MOL0     H72869  10.626   2.092   0.405 -1.5117 -0.1319 -0.5264
  540MOL0     H72870  10.567   2.316   0.607  4.0131  3.1667  0.3104
  540MOL0     H72871  10.521   2.289   0.437  0.8188 -1.0472 -0.8008
  540MOL0     H72872  10.760   2.278   0.373 -0.4839 -1.4251 -0.0086
  540MOL0     H72873  10.832   2.287   0.523  2.3362  2.0217 -2.1340
  540MOL0     H72874  10.683   2.516   0.378  0.6707 -0.3615 -0.1284
  540MOL0     H72875  10.702   2.520   0.547 -0.5820  1.4240 -1.6147
  540MOL0     H72876  10.952   2.458   0.389 -0.7436  0.5717 -0.2071
  540MOL0     H72877  10.934   2.534   0.544 -1.8585 -1.5406  0.8835
  540MOL0     H72878  10.897   2.654   0.256 -0.5612 -2.4505 -0.5338
  540MOL0     H72879  10.808   2.717   0.385 -0.9123 -1.5476  0.7564
  540MOL0     H72880  10.243   2.066   0.719 -0.7073 -0.1899  0.2486
  540MOL0     H72881  10.114   2.116   0.911 -2.0864 -1.5964  3.2209
  540MOL0     H72882  10.107   2.392   1.299  3.2274 -4.0567  0.0802
  540MOL0     H72883   9.954   2.452   1.474  0.7576 -1.1433  0.8656
  540MOL0     H72884   8.173   2.643   0.608 -0.2951  0.2725  1.0836
  540MOL0     H72885   7.967   2.669   0.489  1.7405 -0.8724 -1.0492
  540MOL0     H72886   7.710   2.672   0.271 -1.5640  1.5905  1.9305
  540MOL0     H72887   7.494   2.755   0.176 -3.0886  0.1859  2.1828
  540MOL0     H72888   7.086   2.628   0.141 -1.0200 -1.4470  0.5888
  540MOL0     H72889   7.143   2.488   0.223  2.1840 -1.4607 -0.7505
  540MOL0     H72890   7.212   2.383   0.014 -1.3157 -1.3309 -3.0140
  540MOL0     H72891   7.187   2.519  -0.077 -0.3607 -1.5798 -1.0519
  540MOL0     H72892   6.937   2.520  -0.001  1.1498 -0.6186  0.9506
  540MOL0     H72893   6.963   2.368   0.078 -1.7763  0.4170 -0.4513
  540MOL0     H72894   6.856   2.360  -0.173  0.6156  1.4971 -2.7870
  540MOL0     H72895   7.012   2.402  -0.227 -1.4216  0.8856 -0.3137
  540MOL0     H72896   7.086   2.006  -0.127  4.2439  2.5903  0.2610
  540MOL0     H72897   7.343   2.355   0.184  1.7379 -1.6661  0.6388
  540MOL0     H72898   7.486   2.209   0.393  1.2227 -0.1675  0.3096
  540MOL0     H72899   7.482   2.190   0.221 -0.2541  0.2807  0.0323
  540MOL0     H72900   7.639   2.199   0.298  0.3849  1.3381 -0.5433
  541MOL0     O72901   5.152   9.353   0.186 -0.2386  0.9682  0.3614
  541MOL0     C72902   5.170   9.440   0.271 -0.2040  0.7194  0.2926
  541MOL0     O72903   5.285   9.483   0.328 -0.1266  0.3778  0.0438
  541MOL0     C72904   5.406   9.425   0.294 -0.6951  0.5632  0.3566
  541MOL0     C72905   5.436   9.377   0.165  0.0850  1.0371 -0.2837
  541MOL0     C72906   5.564   9.313   0.139  0.2172 -0.3748 -0.3377
  541MOL0     C72907   5.663   9.295   0.233 -0.5818 -0.1584 -0.3615
  541MOL0     O72908   5.791   9.246   0.202 -0.6088 -0.2163  0.3067
  541MOL0     C72909   5.848   9.290   0.080  0.4070 -0.0866  0.8587
  541MOL0     C72910   5.848   9.452   0.064  0.5263  0.0437  0.5987
  541MOL0     C72911   5.938   9.515   0.165 -0.6538 -0.6207  0.1438
  541MOL0     C72912   5.925   9.673   0.180  0.4457 -0.6486 -0.7114
  541MOL0     C72913   6.006   9.735   0.288  0.8224 -0.0039  0.2177
  541MOL0     C72914   5.955   9.868   0.341  0.5512 -0.2631 -0.2075
  541MOL0     C72915   6.040   9.925   0.455 -0.3551  0.3010 -0.3692
  541MOL0     C72916   6.011  10.064   0.501  0.5180 -0.0880 -0.4060
  541MOL0     N72917   6.132  10.100   0.583  0.1018 -0.5156  1.2099
  541MOL0     C72918   6.148  10.068   0.717 -0.2946  0.4021  0.1640
  541MOL0     C72919   6.247  10.154   0.763 -0.2091 -0.2565  0.8086
  541MOL0     C72920   6.281  10.166   0.908 -0.8340  0.1135  0.1576
  541MOL0     C72921   6.435  10.187   0.938  0.3039  0.7387 -0.3225
  541MOL0     C72922   6.464  10.336   0.901  1.0585  0.3023 -0.0261
  541MOL0     C72923   6.590  10.377   0.947 -0.6600  0.2946 -0.1925
  541MOL0     O72924   6.697  10.283   0.899  1.0774  0.7517 -0.9075
  541MOL0     C72925   6.829  10.320   0.910 -0.4465  0.6559  0.3138
  541MOL0     C72926   6.865  10.446   0.975  0.2215 -0.1889 -0.5084
  541MOL0     C72927   7.001  10.489   0.971 -0.3908 -0.2096  0.6944
  541MOL0     C72928   7.099  10.416   0.896  0.1099 -0.0166 -0.5975
  541MOL0     C72929   7.236  10.477   0.874  1.2412 -0.2747  0.6418
  541MOL0     O72930   7.340  10.398   0.868 -0.6686 -0.3665 -0.1147
  541MOL0     C72931   7.462  10.434   0.818 -0.8729  0.6535  0.0114
  541MOL0     C72932   7.473  10.476   0.678  0.5492 -0.0706  0.4480
  541MOL0     C72933   7.595  10.480   0.612 -0.8323  0.8910  0.2347
  541MOL0     C72934   7.717  10.463   0.682  0.1653  0.3751 -0.4630
  541MOL0     O72935   7.836  10.487   0.624  0.1477 -0.0445  0.2618
  541MOL0     C72936   7.960  10.416   0.683  0.1030  0.3027  0.1752
  541MOL0     C72937   7.949  10.262   0.661 -0.4902 -0.1152 -0.4883
  541MOL0     C72938   7.909  10.227   0.520 -0.5067  0.0253 -0.3760
  541MOL0     C72939   7.928  10.076   0.487 -0.3501  0.6349  0.1561
  541MOL0     C72940   8.075  10.029   0.452 -0.1624 -0.1892 -0.7628
  541MOL0     C72941   8.070   9.881   0.438 -0.9626 -0.0996  0.7674
  541MOL0     C72942   8.214   9.836   0.399  0.5459  0.0950 -0.3978
  541MOL0     C72943   8.224   9.804   0.250 -0.1928  0.0128  0.1347
  541MOL0    Cl72944   8.108   9.687   0.176  0.5611  0.4044 -0.0824
  541MOL0     C72945   7.701  10.423   0.816 -0.4394 -0.5590  0.1211
  541MOL0     C72946   7.582  10.416   0.877  0.2217 -0.3547 -0.3485
  541MOL0     O72947   7.239  10.600   0.864  0.9519  0.4807 -0.2861
  541MOL0     C72948   7.062  10.293   0.841 -0.2518 -0.0756  0.4273
  541MOL0     C72949   6.934  10.251   0.837 -0.0411  1.8008 -0.2855
  541MOL0     N72950   6.292  10.228   0.655 -0.3935 -0.9691 -0.2969
  541MOL0     N72951   6.220  10.205   0.557  0.1647  0.4055 -0.5254
  541MOL0     C72952   5.635   9.350   0.362 -0.8101 -0.4890  0.0464
  541MOL0     C72953   5.509   9.414   0.387 -0.1151 -0.1711 -1.0958
  541MOL0     C72954   5.044   9.508   0.307 -0.5963 -0.0804  0.9885
  541MOL0     C72955   4.949   9.535   0.202  0.2839 -0.1076 -0.1404
  541MOL0     C72956   4.841   9.611   0.228 -0.0899  0.1955 -0.3757
  541MOL0     C72957   4.800   9.638   0.357 -0.2424 -0.7219 -0.2762
  541MOL0     O72958   4.671   9.695   0.366 -0.1206  0.7523  0.0796
  541MOL0     C72959   4.674   9.825   0.422  0.1321 -0.4897 -0.1323
  541MOL0     C72960   4.609   9.925   0.326  0.4437 -0.2840  0.4471
  541MOL0     C72961   4.461   9.896   0.307 -0.0514 -0.1117 -0.1891
  541MOL0     C72962   4.384  10.007   0.228  0.2045  0.0882 -0.5699
  541MOL0     C72963   4.247   9.954   0.196 -0.2561 -0.2937 -0.6923
  541MOL0     C72964   4.134   9.927   0.168  0.7134  0.3547 -0.1187
  541MOL0     C72965   4.890   9.621   0.458 -0.2768  0.1410 -0.8247
  541MOL0     C72966   5.007   9.548   0.436 -0.0756 -0.0402  0.0469
  541MOL0     C72967   5.113   9.540   0.547 -0.4842 -0.4111  0.3928
  541MOL0     H72968   5.361   9.390   0.087 -1.5766  0.4701  1.1420
  541MOL0     H72969   5.586   9.267   0.043 -2.1142 -1.9861 -0.2002
  541MOL0     H72970   5.945   9.241   0.082  0.4148 -0.3468 -1.9231
  541MOL0     H72971   5.795   9.235   0.001  0.1759 -1.4774  1.9612
  541MOL0     H72972   5.741   9.475   0.071 -0.0116  0.0198 -4.2258
  541MOL0     H72973   5.878   9.479  -0.038 -2.7191  3.4678  0.3182
  541MOL0     H72974   6.042   9.494   0.139 -0.3180 -0.4681  1.3087
  541MOL0     H72975   5.902   9.468   0.258 -3.9387  0.6726 -0.3257
  541MOL0     H72976   5.928   9.726   0.085 -2.3156  1.4055  0.2002
  541MOL0     H72977   5.822   9.691   0.212  0.7405 -0.6045  0.2361
  541MOL0     H72978   6.006   9.663   0.370  1.7277  0.3413  0.5377
  541MOL0     H72979   6.115   9.729   0.273  0.4939 -2.9668 -1.8130
  541MOL0     H72980   5.961   9.945   0.264  1.9502  0.3419  0.4759
  541MOL0     H72981   5.852   9.844   0.371  1.0434 -1.4244  0.6269
  541MOL0     H72982   6.147   9.918   0.434 -0.2327  0.6487  0.1262
  541MOL0     H72983   6.026   9.859   0.541  2.0246  0.2037  0.0080
  541MOL0     H72984   6.019  10.134   0.417  4.4301  0.0187 -0.1417
  541MOL0     H72985   5.920  10.073   0.560  1.4323 -1.3052  1.2607
  541MOL0     H72986   6.088   9.995   0.770 -1.0811  0.6102 -0.4153
  541MOL0     H72987   6.230  10.236   0.975  2.1873 -0.8073  3.7622
  541MOL0     H72988   6.268  10.076   0.968 -0.4753 -0.0834 -0.0507
  541MOL0     H72989   6.455  10.152   1.040  1.1612 -2.4106 -1.4498
  541MOL0     H72990   6.485  10.115   0.873 -0.2924 -0.1569  0.1927
  541MOL0     H72991   6.388  10.398   0.950  0.5762 -0.7817  0.6343
  541MOL0     H72992   6.453  10.360   0.795 -2.1725 -0.0613  0.1217
  541MOL0     H72993   6.590  10.365   1.055  4.6849 -1.9862 -0.1369
  541MOL0     H72994   6.606  10.479   0.909  0.3459 -0.7449 -2.7624
  541MOL0     H72995   6.799  10.505   1.037  2.9484  0.3250  2.1188
  541MOL0     H72996   7.033  10.580   1.022 -0.6346  0.1647  0.1869
  541MOL0     H72997   7.379  10.471   0.623 -0.8522 -0.0110  2.6906
  541MOL0     H72998   7.586  10.494   0.505 -1.6426 -0.5806  0.0780
  541MOL0     H72999   8.051  10.454   0.634 -0.4840  0.8281 -0.5347
  541MOL0     H73000   7.972  10.435   0.790 -2.4269 -2.3932  1.0536
  541MOL0     H73001   8.043  10.211   0.682  0.6887  1.1459 -2.4118
  541MOL0     H73002   7.873  10.219   0.728  0.2618 -1.5385 -0.5071
  541MOL0     H73003   7.809  10.268   0.499  0.2820  2.2228 -0.1307
  541MOL0     H73004   7.974  10.284   0.453  2.3857 -1.7236  0.7722
  541MOL0     H73005   7.861  10.071   0.400  0.6405  3.0002 -0.8213
  541MOL0     H73006   7.884  10.016   0.568  0.4308  2.2344  1.8431
  541MOL0     H73007   8.139  10.047   0.540 -2.7762 -2.1626  1.7507
  541MOL0     H73008   8.116  10.080   0.365  1.3118 -2.5406 -1.5612
  541MOL0     H73009   8.035   9.834   0.530  1.7472  0.4023  2.1692
  541MOL0     H73010   8.000   9.847   0.361  0.0492 -1.2608  0.3230
  541MOL0     H73011   8.228   9.735   0.440 -0.9986 -0.3333 -0.8518
  541MOL0     H73012   8.292   9.907   0.429 -1.6985  3.9418 -2.9517
  541MOL0     H73013   8.219   9.902   0.200  0.0080 -0.4005 -0.7122
  541MOL0     H73014   8.324   9.764   0.231  1.2720  2.0643  2.7387
  541MOL0     H73015   7.790  10.398   0.872 -0.8092  1.5428  1.7688
  541MOL0     H73016   7.582  10.372   0.976 -0.2157  1.3983  0.4810
  541MOL0     H73017   7.141  10.248   0.780 -0.1652  1.5377 -0.7338
  541MOL0     H73018   6.908  10.161   0.784  1.6413  1.4049 -0.4788
  541MOL0     H73019   5.704   9.361   0.445 -0.1027 -2.3170 -0.2583
  541MOL0     H73020   5.481   9.455   0.484 -0.6671  1.2617 -1.8274
  541MOL0     H73021   4.963   9.505   0.098 -0.6652  1.3009 -0.7036
  541MOL0     H73022   4.777   9.634   0.143 -0.2404 -0.7463 -0.5268
  541MOL0     H73023   4.778   9.853   0.444  0.3348 -1.7402  0.6132
  541MOL0     H73024   4.623   9.838   0.518 -0.3711  1.8477 -0.6437
  541MOL0     H73025   4.658   9.919   0.229  0.5639 -0.8682  0.5401
  541MOL0     H73026   4.630  10.027   0.360 -0.0118 -0.1005  0.1916
  541MOL0     H73027   4.413   9.887   0.405  1.3128 -1.9266  0.3559
  541MOL0     H73028   4.442   9.803   0.252 -1.6981 -0.4888  0.9429
  541MOL0     H73029   4.382  10.104   0.279  1.1363 -1.1672  1.9790
  541MOL0     H73030   4.424  10.023   0.127  0.4005 -1.6658 -0.8016
  541MOL0     H73031   4.030   9.908   0.155  0.3351  3.2518 -2.4255
  541MOL0     H73032   4.873   9.657   0.559 -5.6445 -1.7656 -0.7020
  541MOL0     H73033   5.151   9.437   0.547 -0.2475 -0.3270 -0.0061
  541MOL0     H73034   5.193   9.608   0.515 -1.0539 -0.3381 -0.9658
  541MOL0     H73035   5.071   9.576   0.641 -0.2908 -0.0848  0.3537
  542MOL0     O73036   3.739   3.194   8.795 -1.2674  0.8025 -0.7181
  542MOL0     C73037   3.688   3.104   8.734  0.1896  0.5193  0.7015
  542MOL0     O73038   3.730   3.066   8.605  0.6090 -0.1211  0.3912
  542MOL0     C73039   3.809   3.163   8.542  0.0923  0.7315 -0.2283
  542MOL0     C73040   3.755   3.230   8.433  0.2178  0.8429 -0.3672
  542MOL0     C73041   3.832   3.316   8.352  0.4171 -0.0802 -0.0337
  542MOL0     C73042   3.972   3.341   8.388 -0.5949 -0.4109  0.2959
  542MOL0     O73043   4.062   3.426   8.337 -0.7079 -0.5061  0.3406
  542MOL0     C73044   4.029   3.517   8.233  0.7446  0.1995  1.1687
  542MOL0     C73045   4.152   3.614   8.219 -0.9017 -0.3996 -0.7324
  542MOL0     C73046   4.273   3.540   8.153  0.2802  0.2880  0.1795
  542MOL0     C73047   4.361   3.644   8.096  0.5052  0.0896 -0.1323
  542MOL0     C73048   4.475   3.681   8.205  0.3476  1.4273  0.3052
  542MOL0     C73049   4.551   3.788   8.146 -0.0487 -0.1430 -0.6105
  542MOL0     C73050   4.661   3.826   8.252  0.4113 -0.6110 -0.2949
  542MOL0     C73051   4.771   3.919   8.197  0.5234 -0.8898  0.7975
  542MOL0     N73052   4.828   3.861   8.077 -0.4928  0.0573 -0.5165
  542MOL0     C73053   4.879   3.732   8.063 -0.3156 -0.5375 -0.2271
  542MOL0     C73054   4.937   3.723   7.941  0.0442 -0.1519  0.0509
  542MOL0     C73055   5.021   3.606   7.880 -0.1145 -0.0233  0.1870
  542MOL0     C73056   5.122   3.542   7.983  0.3390 -0.1076  0.0422
  542MOL0     C73057   5.227   3.638   8.031 -0.4449 -0.8028  0.0664
  542MOL0     C73058   5.328   3.682   7.925  0.9869 -0.7752 -0.4322
  542MOL0     O73059   5.382   3.574   7.849  0.1856  0.3160 -0.4097
  542MOL0     C73060   5.484   3.488   7.897  0.3662 -0.5472 -0.5061
  542MOL0     C73061   5.468   3.407   8.006  0.3493  1.2062  0.2334
  542MOL0     C73062   5.578   3.310   8.038  1.6339  0.2012  0.7519
  542MOL0     C73063   5.693   3.312   7.964  0.2108 -0.1430  0.3680
  542MOL0     C73064   5.804   3.226   8.011  0.6581 -0.1500 -0.6801
  542MOL0     O73065   5.923   3.251   7.946 -0.8852  0.0537 -0.0162
  542MOL0     C73066   6.029   3.162   7.981 -0.3821 -0.2704 -0.0049
  542MOL0     C73067   6.161   3.206   7.967 -0.1141  0.3841 -1.1156
  542MOL0     C73068   6.269   3.109   7.980 -0.3183 -0.4983 -0.0100
  542MOL0     C73069   6.245   2.976   8.013 -0.0743  0.0832  0.0400
  542MOL0     O73070   6.350   2.892   8.017 -0.4587 -0.3777 -0.8406
  542MOL0     C73071   6.425   2.890   8.141 -0.1594 -0.1208 -0.6929
  542MOL0     C73072   6.522   2.774   8.128 -0.0106 -0.2738 -0.6386
  542MOL0     C73073   6.605   2.746   8.262  0.1709  1.2635  0.2855
  542MOL0     C73074   6.723   2.666   8.226 -0.5477  0.0137  0.0126
  542MOL0     C73075   6.800   2.624   8.355 -0.2576  0.0819  0.7940
  542MOL0     C73076   6.918   2.533   8.330 -0.8057  0.0092  0.3223
  542MOL0     C73077   6.964   2.493   8.476 -0.0031 -0.8726 -0.3558
  542MOL0     C73078   7.081   2.400   8.472 -0.4219 -0.0529 -0.1340
  542MOL0    Cl73079   7.039   2.235   8.432 -0.2212 -0.4524  0.1228
  542MOL0     C73080   6.111   2.927   8.012  0.7817  0.5965  0.2518
  542MOL0     C73081   6.007   3.021   7.985 -0.5285  0.7770 -0.1906
  542MOL0     O73082   5.783   3.154   8.105  0.1656 -0.1336 -0.6339
  542MOL0     C73083   5.706   3.402   7.858  0.5747 -0.5014  0.2398
  542MOL0     C73084   5.600   3.492   7.821  0.9783  0.0766  0.2769
  542MOL0     N73085   4.919   3.848   7.878  0.3257 -0.4264  0.4828
  542MOL0     N73086   4.843   3.926   7.957  0.7444  0.1030  0.5044
  542MOL0     C73087   4.021   3.276   8.503 -0.5917 -0.6570  0.1419
  542MOL0     C73088   3.944   3.189   8.580 -0.7009  0.4822  0.0051
  542MOL0     C73089   3.582   3.015   8.785  0.3765 -0.2783  0.3367
  542MOL0     C73090   3.525   2.921   8.701 -0.7156 -1.3162 -0.5278
  542MOL0     C73091   3.433   2.825   8.734 -0.4625  0.2853 -0.0183
  542MOL0     C73092   3.379   2.824   8.864 -0.0276 -1.0810  0.7057
  542MOL0     O73093   3.286   2.731   8.900 -0.2592  0.0080  0.1950
  542MOL0     C73094   3.210   2.662   8.793 -0.0041 -1.4902 -0.3635
  542MOL0     C73095   3.126   2.552   8.865 -1.0994  0.6887 -0.2859
  542MOL0     C73096   3.061   2.599   8.993 -0.1693  0.6620 -0.7576
  542MOL0     C73097   2.991   2.741   8.986 -0.0405  0.7388 -0.0041
  542MOL0     C73098   2.911   2.744   8.860  0.2496  0.4497 -0.2427
  542MOL0     C73099   2.834   2.768   8.766 -0.5344 -0.2753  0.3933
  542MOL0     C73100   3.429   2.930   8.948 -0.2106  0.2227  0.6816
  542MOL0     C73101   3.528   3.026   8.917 -0.4369 -1.2094 -0.4129
  542MOL0     C73102   3.562   3.140   9.009  0.1470  0.2029  0.6870
  542MOL0     H73103   3.649   3.216   8.417  0.3802 -0.7802 -0.1684
  542MOL0     H73104   3.782   3.374   8.274 -0.1250 -1.4425 -0.7456
  542MOL0     H73105   3.993   3.465   8.144 -0.9429 -0.7704  2.3548
  542MOL0     H73106   3.939   3.573   8.259  0.2922  1.9040 -3.2269
  542MOL0     H73107   4.173   3.654   8.318 -2.4389 -3.1565  0.8143
  542MOL0     H73108   4.120   3.705   8.166 -1.0064  1.1931  1.8973
  542MOL0     H73109   4.243   3.457   8.089 -1.3025 -0.1187  1.3854
  542MOL0     H73110   4.327   3.492   8.235  1.1883 -0.8767 -1.0673
  542MOL0     H73111   4.412   3.602   8.010 -1.6947  1.6351 -2.3400
  542MOL0     H73112   4.308   3.729   8.051 -1.1297 -0.6423  0.3409
  542MOL0     H73113   4.416   3.702   8.295 -3.3155  0.9659 -1.7539
  542MOL0     H73114   4.539   3.597   8.234  0.4863  1.9886  1.6997
  542MOL0     H73115   4.607   3.749   8.061  1.2737  3.1958 -1.4260
  542MOL0     H73116   4.488   3.872   8.113  0.5369  1.1575  1.3673
  542MOL0     H73117   4.712   3.745   8.304 -2.7053 -1.6016  1.5143
  542MOL0     H73118   4.640   3.898   8.331  0.7531  1.7443 -2.2109
  542MOL0     H73119   4.732   4.019   8.179 -2.5658 -1.9343  1.1311
  542MOL0     H73120   4.850   3.922   8.273  2.9124  1.9463 -1.5453
  542MOL0     H73121   4.891   3.661   8.145  1.1278  0.2396  0.2649
  542MOL0     H73122   4.944   3.533   7.851 -2.2980  2.6067 -1.0455
  542MOL0     H73123   5.056   3.643   7.784 -3.7339  1.8494 -0.5921
  542MOL0     H73124   5.069   3.509   8.072  0.8615 -1.6254 -0.1859
  542MOL0     H73125   5.166   3.456   7.932 -2.7372 -0.9962 -1.3425
  542MOL0     H73126   5.271   3.591   8.119  0.4650 -1.1855 -0.5790
  542MOL0     H73127   5.174   3.723   8.075 -0.8727 -0.8653 -0.3116
  542MOL0     H73128   5.410   3.734   7.975 -0.2820  2.2077 -1.2265
  542MOL0     H73129   5.283   3.758   7.862 -0.3547  0.1544  1.5534
  542MOL0     H73130   5.378   3.391   8.065  1.8561  0.5064  2.4537
  542MOL0     H73131   5.553   3.239   8.116 -0.6509 -2.0049 -1.7896
  542MOL0     H73132   6.188   3.309   7.947  0.8543  0.4400  0.3370
  542MOL0     H73133   6.363   3.158   7.960 -1.1483 -0.0121 -3.1997
  542MOL0     H73134   6.480   2.984   8.155  2.9873 -1.8547 -0.4023
  542MOL0     H73135   6.364   2.865   8.228  0.5509 -1.5602 -0.5879
  542MOL0     H73136   6.465   2.681   8.118  0.3948 -0.3681 -2.3799
  542MOL0     H73137   6.594   2.793   8.048  2.3442  3.6133  2.0235
  542MOL0     H73138   6.643   2.838   8.308  2.6736  1.0285 -1.1247
  542MOL0     H73139   6.540   2.706   8.340  0.3448 -0.0378 -0.2112
  542MOL0     H73140   6.794   2.713   8.159  0.6947 -1.7697  0.0204
  542MOL0     H73141   6.687   2.575   8.177 -1.2183  0.2381  0.0748
  542MOL0     H73142   6.731   2.573   8.423  1.7309 -1.7936  1.4796
  542MOL0     H73143   6.830   2.712   8.414 -2.0316  1.0570  0.3247
  542MOL0     H73144   6.878   2.449   8.273 -1.0051  1.5786 -1.9806
  542MOL0     H73145   6.994   2.575   8.263 -0.3077 -0.5748  0.5033
  542MOL0     H73146   6.893   2.448   8.546 -0.0790 -0.5070 -0.1935
  542MOL0     H73147   6.999   2.578   8.535  0.3278 -0.6837 -0.8187
  542MOL0     H73148   7.160   2.432   8.403  0.7092 -1.7797  0.2968
  542MOL0     H73149   7.135   2.406   8.567 -0.7291 -0.0429  0.0388
  542MOL0     H73150   6.082   2.822   8.013 -1.8655  1.1706  3.1748
  542MOL0     H73151   5.907   2.978   7.975  0.2096 -1.3156  0.7387
  542MOL0     H73152   5.792   3.406   7.791  0.3162  2.1203 -0.0423
  542MOL0     H73153   5.608   3.555   7.733 -0.8551 -2.5480 -1.9577
  542MOL0     H73154   4.125   3.282   8.533  0.1562 -2.7651 -1.8052
  542MOL0     H73155   3.992   3.118   8.646  0.3171  0.6504 -0.5186
  542MOL0     H73156   3.563   2.923   8.599  0.5845  4.5512 -0.2590
  542MOL0     H73157   3.416   2.740   8.669 -0.0137 -2.4698  3.1947
  542MOL0     H73158   3.285   2.606   8.736 -0.8578 -3.6541  0.5274
  542MOL0     H73159   3.147   2.726   8.731  0.6164  1.6237  2.0154
  542MOL0     H73160   3.201   2.475   8.884 -1.4793  0.1741 -0.8412
  542MOL0     H73161   3.051   2.514   8.795 -2.3213  0.2728  1.2063
  542MOL0     H73162   3.128   2.592   9.079 -1.9158  1.5903  0.7430
  542MOL0     H73163   2.986   2.523   9.020  0.2047 -0.1723 -1.9544
  542MOL0     H73164   2.933   2.772   9.073  1.7770 -1.2929  2.0581
  542MOL0     H73165   3.079   2.806   8.987  1.9107 -1.6936  2.4906
  542MOL0     H73166   2.747   2.801   8.714 -0.4165  0.9924  0.9676
  542MOL0     H73167   3.392   2.928   9.051 -1.8446  0.3370  0.1209
  542MOL0     H73168   3.550   3.238   8.962  2.4929  0.3557  0.3254
  542MOL0     H73169   3.488   3.134   9.090 -0.0308 -2.0646  0.4266
  542MOL0     H73170   3.665   3.143   9.043  0.2599  3.3570  0.3032
  543MOL0     O73171   4.004   6.070   8.726  0.3077  0.2000 -0.2059
  543MOL0     C73172   3.967   6.135   8.631 -0.1997 -0.6196  1.0508
  543MOL0     O73173   4.052   6.180   8.528 -0.2130 -0.5272  0.4657
  543MOL0     C73174   4.181   6.140   8.544 -0.2019  1.2157 -0.0045
  543MOL0     C73175   4.229   6.051   8.449 -0.3686 -1.0626  0.8155
  543MOL0     C73176   4.360   5.999   8.451  0.0556 -0.7855  0.2881
  543MOL0     C73177   4.452   6.046   8.553 -0.0548 -0.5089  0.4897
  543MOL0     O73178   4.582   6.010   8.550  0.6646  0.5778 -0.6015
  543MOL0     C73179   4.632   5.892   8.478 -0.1913  0.6404  0.8283
  543MOL0     C73180   4.774   5.881   8.533  0.0065  0.4788  1.1192
  543MOL0     C73181   4.845   5.750   8.492  0.2030 -0.1285 -0.9443
  543MOL0     C73182   4.995   5.764   8.523 -0.2697 -0.1372  0.1599
  543MOL0     C73183   5.075   5.661   8.437  0.4383 -0.0742 -0.9511
  543MOL0     C73184   5.228   5.680   8.469  0.0418  0.3643 -0.4555
  543MOL0     C73185   5.310   5.804   8.427  0.9561  0.0716  0.0254
  543MOL0     C73186   5.446   5.789   8.476 -0.7788 -0.4300 -0.1886
  543MOL0     N73187   5.504   5.921   8.463 -1.4381 -0.5245  0.4071
  543MOL0     C73188   5.510   6.015   8.557  0.4592  0.3183  0.3393
  543MOL0     C73189   5.586   6.119   8.503  0.6384  0.8759  0.2301
  543MOL0     C73190   5.624   6.240   8.587 -0.3017  0.1843 -1.0145
  543MOL0     C73191   5.588   6.369   8.523 -0.1311  0.0689 -0.1667
  543MOL0     C73192   5.659   6.486   8.585 -0.5214  0.2238  0.2721
  543MOL0     C73193   5.625   6.618   8.519 -0.0526 -0.5051 -0.6881
  543MOL0     O73194   5.504   6.658   8.580  0.1673 -0.0575  0.1490
  543MOL0     C73195   5.448   6.775   8.542 -0.1921 -0.1573 -0.1641
  543MOL0     C73196   5.314   6.790   8.576 -0.4705 -0.1190  0.1178
  543MOL0     C73197   5.251   6.908   8.540  0.1440  0.5638  0.2929
  543MOL0     C73198   5.309   7.017   8.467 -0.0718  1.7344 -0.5672
  543MOL0     C73199   5.240   7.130   8.411 -0.2898  1.3124 -0.2532
  543MOL0     O73200   5.310   7.212   8.324 -0.5673  0.2695  0.0758
  543MOL0     C73201   5.248   7.327   8.287  0.3975 -0.0686  0.6056
  543MOL0     C73202   5.302   7.451   8.325  0.4905 -1.0100  0.2021
  543MOL0     C73203   5.259   7.576   8.285 -0.2930  0.3474 -0.2580
  543MOL0     C73204   5.153   7.578   8.192  0.1774 -0.4307 -0.6243
  543MOL0     O73205   5.101   7.693   8.138 -0.5702 -0.2835 -0.2136
  543MOL0     C73206   5.209   7.787   8.108 -0.5122 -0.5511  0.5734
  543MOL0     C73207   5.144   7.897   8.014 -0.1160 -0.0894 -0.2457
  543MOL0     C73208   5.241   8.015   7.979  0.8910  0.2531  0.1549
  543MOL0     C73209   5.152   8.132   7.938 -0.4012  0.0287  0.9556
  543MOL0     C73210   5.238   8.256   7.918 -0.3862  0.0002 -0.2458
  543MOL0     C73211   5.309   8.292   8.053 -0.2032 -0.3683 -0.5164
  543MOL0     C73212   5.326   8.441   8.051  0.4739 -0.0989  0.3841
  543MOL0     C73213   5.425   8.498   8.160  0.4662 -0.0802 -1.3203
  543MOL0    Cl73214   5.347   8.438   8.316  0.0206 -0.6594  0.4787
  543MOL0     C73215   5.094   7.462   8.158  0.0575  0.1700 -0.1131
  543MOL0     C73216   5.137   7.334   8.203 -0.5906 -0.0001  1.1555
  543MOL0     O73217   5.123   7.139   8.447 -0.1376 -0.5476 -0.2640
  543MOL0     C73218   5.446   6.998   8.434  0.5661 -0.2158  0.4184
  543MOL0     C73219   5.513   6.878   8.469  0.4978  0.1856  0.2290
  543MOL0     N73220   5.641   6.078   8.388  0.4585  0.2726  0.2778
  543MOL0     N73221   5.585   5.967   8.361  0.0121  0.0908 -0.7088
  543MOL0     C73222   4.408   6.145   8.639  0.2235  0.0892 -1.0057
  543MOL0     C73223   4.270   6.179   8.643 -0.4262 -0.9469  0.5251
  543MOL0     C73224   3.822   6.167   8.616 -0.1395 -0.3453  0.7496
  543MOL0     C73225   3.787   6.273   8.524  0.0988  0.0343  0.1487
  543MOL0     C73226   3.651   6.287   8.487 -0.7853  0.1630  0.3545
  543MOL0     C73227   3.547   6.223   8.563  0.1425  0.0465  0.7568
  543MOL0     O73228   3.417   6.269   8.533 -0.0203  0.0907  0.2191
  543MOL0     C73229   3.308   6.213   8.605  0.0911  1.2341  0.2798
  543MOL0     C73230   3.177   6.244   8.547  0.5126 -0.2072 -0.1073
  543MOL0     C73231   3.157   6.392   8.509  0.1530  0.1811  0.5857
  543MOL0     C73232   3.012   6.414   8.463 -0.0350  0.0118  1.2432
  543MOL0     C73233   2.979   6.346   8.338 -0.1838  0.0494  1.4104
  543MOL0     C73234   2.952   6.293   8.230 -0.3291  0.7673 -0.5435
  543MOL0     C73235   3.581   6.136   8.665 -0.2074  0.0825  0.3703
  543MOL0     C73236   3.716   6.109   8.692 -0.8114  0.6554 -0.8305
  543MOL0     C73237   3.754   6.012   8.806  0.5176 -0.3759  0.5744
  543MOL0     H73238   4.165   6.041   8.361  0.8148 -2.0490  0.0306
  543MOL0     H73239   4.390   5.936   8.369 -1.4399 -1.1404 -0.0205
  543MOL0     H73240   4.577   5.802   8.507 -0.9613  1.6370  2.6348
  543MOL0     H73241   4.634   5.912   8.370  0.1979 -2.1506  0.2314
  543MOL0     H73242   4.783   5.890   8.641  0.4315 -2.3169  1.3776
  543MOL0     H73243   4.827   5.968   8.494  0.8919 -1.0299 -1.2650
  543MOL0     H73244   4.815   5.740   8.387 -1.4522  1.9817 -0.7619
  543MOL0     H73245   4.798   5.670   8.549 -1.1100 -0.0290 -1.8291
  543MOL0     H73246   5.031   5.863   8.493  0.8868 -0.1883  1.2983
  543MOL0     H73247   5.012   5.741   8.629 -4.9192 -1.0273  0.9386
  543MOL0     H73248   5.030   5.565   8.462 -1.2152  1.5560  3.2395
  543MOL0     H73249   5.061   5.673   8.329  2.1486  0.2916 -1.1550
  543MOL0     H73250   5.249   5.662   8.575 -0.8129 -0.0957 -0.3556
  543MOL0     H73251   5.292   5.609   8.416  3.0679  1.4955  1.4118
  543MOL0     H73252   5.261   5.892   8.472 -0.5310 -0.5159 -0.3790
  543MOL0     H73253   5.309   5.814   8.318  0.5856  0.6054  0.0712
  543MOL0     H73254   5.441   5.770   8.584  0.1583  4.3507  0.9470
  543MOL0     H73255   5.504   5.714   8.422 -1.5082 -2.4353  1.6833
  543MOL0     H73256   5.461   6.025   8.653  3.8665  4.1469  1.9935
  543MOL0     H73257   5.581   6.228   8.687  2.4032  0.4274  0.2749
  543MOL0     H73258   5.732   6.248   8.600 -0.4533 -0.3880  0.8830
  543MOL0     H73259   5.613   6.368   8.416 -1.0246 -0.0037 -0.3841
  543MOL0     H73260   5.481   6.374   8.544  0.0735  0.3497  0.8790
  543MOL0     H73261   5.765   6.465   8.569 -0.3946  1.3800 -0.5909
  543MOL0     H73262   5.631   6.488   8.690 -2.3643 -0.4136 -0.1716
  543MOL0     H73263   5.617   6.598   8.412 -0.2280 -1.5472 -0.4941
  543MOL0     H73264   5.714   6.680   8.538 -2.0508  1.7148  2.2415
  543MOL0     H73265   5.255   6.714   8.626  2.9611 -1.2323  2.9283
  543MOL0     H73266   5.144   6.903   8.559  0.5660 -0.0461  3.0001
  543MOL0     H73267   5.399   7.442   8.373  1.3897 -1.5266 -1.6189
  543MOL0     H73268   5.307   7.667   8.317 -1.1433  0.2376  1.4442
  543MOL0     H73269   5.242   7.832   8.201  2.0456  0.8441 -0.8935
  543MOL0     H73270   5.292   7.739   8.055  0.8678  0.8478  1.4012
  543MOL0     H73271   5.120   7.861   7.913  0.0737  0.2354 -0.4082
  543MOL0     H73272   5.052   7.929   8.064  0.2019 -3.0146  2.5378
  543MOL0     H73273   5.286   8.035   8.077 -3.2217 -1.2317  2.5741
  543MOL0     H73274   5.314   7.998   7.899 -1.0381  0.0960 -1.6570
  543MOL0     H73275   5.076   8.163   8.010 -3.3711  1.3360 -2.4276
  543MOL0     H73276   5.089   8.097   7.855 -1.6128 -1.1960  2.3486
  543MOL0     H73277   5.170   8.336   7.889 -0.4821 -0.0937 -0.2835
  543MOL0     H73278   5.309   8.246   7.835  0.5278 -0.2849  0.5511
  543MOL0     H73279   5.254   8.261   8.142  0.6518  1.4907  0.7118
  543MOL0     H73280   5.409   8.249   8.057  1.1004  2.3877 -1.4421
  543MOL0     H73281   5.230   8.493   8.054  0.6069  0.2273 -0.8171
  543MOL0     H73282   5.375   8.457   7.955  0.7056 -0.6254  0.4114
  543MOL0     H73283   5.524   8.456   8.143 -0.0526 -1.1260 -1.9055
  543MOL0     H73284   5.423   8.606   8.150 -0.5152 -0.3514 -5.9049
  543MOL0     H73285   5.010   7.462   8.089 -0.9359  0.0191  1.0600
  543MOL0     H73286   5.092   7.248   8.153  1.0086  0.6204 -1.5691
  543MOL0     H73287   5.486   7.078   8.373  0.2698 -1.1711 -1.0868
  543MOL0     H73288   5.613   6.862   8.430  0.5183  0.4504  0.1734
  543MOL0     H73289   4.478   6.197   8.703 -0.0348 -1.6379  0.7990
  543MOL0     H73290   4.235   6.252   8.715 -1.3216 -0.1068 -0.7292
  543MOL0     H73291   3.856   6.343   8.478  0.0946  0.1441  0.3106
  543MOL0     H73292   3.625   6.358   8.410 -0.7554 -0.7870 -0.5505
  543MOL0     H73293   3.312   6.233   8.712 -3.6866 -4.1055  1.8205
  543MOL0     H73294   3.330   6.106   8.599  4.2267  1.9686 -1.0429
  543MOL0     H73295   3.100   6.207   8.615  1.4746 -0.6102  0.7978
  543MOL0     H73296   3.171   6.175   8.463  0.1180  0.4831 -0.6571
  543MOL0     H73297   3.217   6.423   8.423 -1.7419  2.5461 -0.0161
  543MOL0     H73298   3.164   6.469   8.587 -0.5405  0.5516  0.2969
  543MOL0     H73299   2.938   6.380   8.536 -0.3674 -0.0446  0.8782
  543MOL0     H73300   3.003   6.522   8.446  5.8275  0.6055 -0.2456
  543MOL0     H73301   2.928   6.241   8.139  2.9686 -2.2838  0.0683
  543MOL0     H73302   3.506   6.101   8.735 -1.0696  2.6417  0.8325
  543MOL0     H73303   3.663   5.987   8.862 -0.0884  0.9896  0.2455
  543MOL0     H73304   3.791   5.921   8.758 -1.6819  0.2316 -2.5883
  543MOL0     H73305   3.818   6.071   8.872 -0.0448  0.3920  0.4602
  544MOL0     O73306   7.420   4.845   4.591 -0.5738 -0.2822 -0.6447
  544MOL0     C73307   7.382   4.731   4.587  0.0949 -0.5318 -0.5571
  544MOL0     O73308   7.455   4.616   4.570 -0.5352 -0.0569 -0.1336
  544MOL0     C73309   7.588   4.618   4.546 -0.4976  0.1386 -0.3222
  544MOL0     C73310   7.632   4.491   4.511 -0.4634 -0.9241 -0.8682
  544MOL0     C73311   7.766   4.470   4.481  0.1153 -0.4554  0.2873
  544MOL0     C73312   7.846   4.581   4.472 -0.0645  0.6254  0.1333
  544MOL0     O73313   7.977   4.546   4.445 -0.4050  0.3342 -0.2793
  544MOL0     C73314   8.073   4.645   4.405  0.4952 -0.2313 -0.6183
  544MOL0     C73315   8.218   4.598   4.407  0.1953  0.1825 -0.1346
  544MOL0     C73316   8.276   4.591   4.544 -0.5091  0.4855 -0.1486
  544MOL0     C73317   8.432   4.570   4.537  1.0291  0.3787 -0.2355
  544MOL0     C73318   8.490   4.590   4.679 -0.0331 -0.1500 -0.6293
  544MOL0     C73319   8.635   4.536   4.696 -0.0085 -0.7900  0.0631
  544MOL0     C73320   8.701   4.588   4.823  0.0244  0.0928  0.6977
  544MOL0     C73321   8.632   4.528   4.936 -0.2873  0.5408 -0.1644
  544MOL0     N73322   8.698   4.567   5.062 -0.8930  0.8440 -0.1317
  544MOL0     C73323   8.842   4.591   5.087  0.1547  1.2571  0.0726
  544MOL0     C73324   8.855   4.595   5.222 -0.2094  0.1861  0.4473
  544MOL0     C73325   8.979   4.617   5.305 -0.7670 -0.4593 -0.1625
  544MOL0     C73326   9.024   4.482   5.366 -0.0590  0.3138 -0.4329
  544MOL0     C73327   9.122   4.505   5.483  0.4919  0.0569  0.7111
  544MOL0     C73328   9.246   4.583   5.433  0.1378 -0.6368  0.3787
  544MOL0     O73329   9.352   4.572   5.521 -0.7154 -0.7263  0.2944
  544MOL0     C73330   9.473   4.614   5.473 -0.9056 -0.0020  0.4642
  544MOL0     C73331   9.494   4.676   5.352 -0.4909  0.0749 -0.2987
  544MOL0     C73332   9.622   4.740   5.335  0.0267 -0.2654  0.4645
  544MOL0     C73333   9.730   4.740   5.429  0.3211  0.3524 -0.9679
  544MOL0     C73334   9.867   4.802   5.404  0.8038  0.3305  0.9065
  544MOL0     O73335   9.964   4.798   5.504  0.1919 -0.6324 -0.0545
  544MOL0     C73336  10.088   4.851   5.478 -0.4158 -0.3236  0.1183
  544MOL0     C73337  10.196   4.807   5.556  0.1705 -0.2292 -0.3628
  544MOL0     C73338  10.328   4.853   5.540  0.0950 -0.3799  0.2386
  544MOL0     C73339  10.353   4.960   5.458 -0.9384 -0.3156 -0.0916
  544MOL0     O73340  10.476   5.023   5.442 -0.0174 -0.0405  0.2167
  544MOL0     C73341  10.571   5.028   5.555  0.7191 -0.4716  0.0056
  544MOL0     C73342  10.594   5.177   5.591  1.2590 -0.0377 -0.4514
  544MOL0     C73343  10.711   5.199   5.685 -0.6063 -0.8481 -0.2462
  544MOL0     C73344  10.712   5.343   5.752 -1.2906  1.4726  0.0597
  544MOL0     C73345  10.778   5.448   5.655 -0.1736 -0.2947  0.3793
  544MOL0     C73346  10.843   5.557   5.737  0.4051 -0.4207  0.5976
  544MOL0     C73347  10.749   5.613   5.847 -0.6028 -0.2247  0.1663
  544MOL0     C73348  10.840   5.694   5.939  0.3772  0.6496 -0.1710
  544MOL0    Cl73349  10.946   5.589   6.056 -0.3346  0.1401  0.4850
  544MOL0     C73350  10.248   5.009   5.384 -0.1155 -0.4731 -0.5720
  544MOL0     C73351  10.121   4.964   5.395  0.5958  0.2195 -0.0695
  544MOL0     O73352   9.884   4.848   5.292 -0.5470 -0.3171  0.1755
  544MOL0     C73353   9.700   4.670   5.546  0.7144 -0.8576  0.1265
  544MOL0     C73354   9.573   4.612   5.570 -0.2742  0.1587  0.7463
  544MOL0     N73355   8.736   4.557   5.273 -0.3133 -0.4536 -0.0545
  544MOL0     N73356   8.648   4.536   5.181 -0.1710 -0.3744 -0.0788
  544MOL0     C73357   7.801   4.712   4.491 -0.3132 -0.2694  0.8851
  544MOL0     C73358   7.677   4.729   4.541  0.0688  0.7722 -0.4428
  544MOL0     C73359   7.233   4.699   4.599 -0.4543 -0.1410  0.1748
  544MOL0     C73360   7.177   4.581   4.552 -0.2910 -0.1983 -0.1079
  544MOL0     C73361   7.039   4.539   4.564 -0.3692  0.0132  0.2976
  544MOL0     C73362   6.952   4.623   4.624 -0.0805 -0.8493 -0.7341
  544MOL0     O73363   6.823   4.580   4.626 -0.4290  0.5254 -0.3616
  544MOL0     C73364   6.720   4.623   4.714  0.8195 -0.1841 -0.4176
  544MOL0     C73365   6.583   4.582   4.667  0.2449  0.2371  0.2826
  544MOL0     C73366   6.474   4.610   4.777 -0.6611  0.5970  0.7199
  544MOL0     C73367   6.335   4.558   4.736 -0.0935  0.6127  0.4128
  544MOL0     C73368   6.317   4.419   4.783 -0.6725 -0.0323  0.3376
  544MOL0     C73369   6.306   4.304   4.814  0.3083  0.0492 -0.0867
  544MOL0     C73370   7.003   4.752   4.670  0.2246  0.7052 -0.1220
  544MOL0     C73371   7.144   4.784   4.658  0.2018 -0.7355 -0.0333
  544MOL0     C73372   7.174   4.917   4.739 -0.8934  0.1949  0.4818
  544MOL0     H73373   7.568   4.405   4.505  0.2192 -1.3553 -2.3208
  544MOL0     H73374   7.799   4.367   4.472 -1.6021 -1.1341  1.2040
  544MOL0     H73375   8.051   4.664   4.300  0.6944 -0.3817 -0.6889
  544MOL0     H73376   8.057   4.733   4.468 -2.5050 -1.5031  0.5942
  544MOL0     H73377   8.276   4.656   4.335  2.2859  0.0961  1.3481
  544MOL0     H73378   8.226   4.496   4.367  2.0195  0.8822 -1.7247
  544MOL0     H73379   8.227   4.502   4.583  0.4739 -1.2545 -2.6727
  544MOL0     H73380   8.257   4.686   4.596  1.4375  0.1368  1.3207
  544MOL0     H73381   8.453   4.466   4.511  1.1244 -0.1214  1.6661
  544MOL0     H73382   8.478   4.639   4.465 -0.3428  1.2141 -0.3458
  544MOL0     H73383   8.503   4.697   4.696  1.1671 -0.3356 -0.2509
  544MOL0     H73384   8.418   4.546   4.749 -1.6555 -1.5665 -3.0284
  544MOL0     H73385   8.642   4.427   4.693  1.2511 -0.7647  0.9463
  544MOL0     H73386   8.690   4.565   4.607 -1.8555 -0.9532 -1.1845
  544MOL0     H73387   8.688   4.697   4.833  0.6109  0.2263  0.1054
  544MOL0     H73388   8.807   4.567   4.809 -0.5847 -0.9921 -3.7919
  544MOL0     H73389   8.524   4.540   4.949 -0.4361 -0.0913 -0.7394
  544MOL0     H73390   8.649   4.420   4.924  0.5065  0.5080  1.0878
  544MOL0     H73391   8.921   4.593   5.014 -0.2026  0.6343 -0.3363
  544MOL0     H73392   9.058   4.664   5.245 -0.1889 -1.8428 -0.5259
  544MOL0     H73393   8.952   4.693   5.379  0.2286 -0.3531  0.1177
  544MOL0     H73394   8.939   4.426   5.406 -1.3631  0.6290 -2.5893
  544MOL0     H73395   9.066   4.414   5.291 -0.5471  0.3834 -0.7772
  544MOL0     H73396   9.157   4.412   5.528  0.4191 -1.5872 -2.3646
  544MOL0     H73397   9.061   4.565   5.552 -0.7600  2.2306 -2.0839
  544MOL0     H73398   9.215   4.686   5.416 -1.7363 -1.3522 -1.0039
  544MOL0     H73399   9.270   4.539   5.336 -2.1025  0.7260 -0.8855
  544MOL0     H73400   9.425   4.688   5.269  1.2904  0.5233 -1.7556
  544MOL0     H73401   9.633   4.773   5.231 -1.5228 -0.6197  0.1685
  544MOL0     H73402  10.182   4.723   5.625 -1.0122 -2.7813 -3.4555
  544MOL0     H73403  10.404   4.820   5.610 -0.9304 -0.5435  1.3073
  544MOL0     H73404  10.530   4.975   5.641 -0.4636 -0.6455 -0.6489
  544MOL0     H73405  10.665   4.979   5.530  0.0752 -0.7840 -1.9307
  544MOL0     H73406  10.603   5.237   5.500  4.0554  0.0058 -0.2528
  544MOL0     H73407  10.500   5.197   5.643  1.4898 -1.2684  0.4732
  544MOL0     H73408  10.712   5.123   5.764  0.3280  1.3993  2.0341
  544MOL0     H73409  10.800   5.185   5.624 -0.1484  3.7599 -0.9858
  544MOL0     H73410  10.772   5.332   5.843 -0.0359 -1.2068 -0.9801
  544MOL0     H73411  10.610   5.357   5.789 -1.0835 -0.4194  1.5128
  544MOL0     H73412  10.698   5.477   5.587 -0.2343  1.9451  1.3167
  544MOL0     H73413  10.848   5.397   5.589  0.2044  0.0890  0.4831
  544MOL0     H73414  10.926   5.509   5.789  0.7059 -0.9996 -0.3829
  544MOL0     H73415  10.889   5.641   5.683 -0.9738 -0.1820 -0.2609
  544MOL0     H73416  10.707   5.531   5.905 -1.2648  0.7561  1.1082
  544MOL0     H73417  10.670   5.678   5.807 -1.7421 -1.0893  0.9706
  544MOL0     H73418  10.906   5.758   5.881  2.1686 -0.2946  0.7570
  544MOL0     H73419  10.764   5.753   5.992 -2.5455 -0.5460 -2.6968
  544MOL0     H73420  10.257   5.094   5.318 -0.6674 -1.7230 -2.3358
  544MOL0     H73421  10.049   5.029   5.345  0.7245  1.3950  1.2064
  544MOL0     H73422   9.767   4.662   5.631  0.0469 -2.6799  0.5320
  544MOL0     H73423   9.562   4.572   5.671  2.0208 -0.0053  0.9903
  544MOL0     H73424   7.868   4.796   4.477 -1.5057  0.7640  1.2653
  544MOL0     H73425   7.647   4.831   4.564 -1.2520  0.1229  0.9199
  544MOL0     H73426   7.240   4.510   4.500 -2.5353 -1.1597 -1.7097
  544MOL0     H73427   6.999   4.450   4.518  3.8091 -1.9286 -0.0458
  544MOL0     H73428   6.720   4.730   4.736 -1.5567 -0.5591  1.8888
  544MOL0     H73429   6.734   4.578   4.814  1.7542  0.4638 -0.2390
  544MOL0     H73430   6.590   4.477   4.636 -0.3620 -0.0445  1.0791
  544MOL0     H73431   6.552   4.636   4.577  0.4773  0.3579  0.2739
  544MOL0     H73432   6.456   4.715   4.802 -1.6642  0.5728  0.1596
  544MOL0     H73433   6.519   4.563   4.865  1.2668  0.0195 -0.5044
  544MOL0     H73434   6.252   4.617   4.777 -0.7339 -0.4317  0.6516
  544MOL0     H73435   6.316   4.570   4.629  2.6446 -0.9351 -0.3381
  544MOL0     H73436   6.309   4.203   4.850 -0.0624 -0.3544 -1.1362
  544MOL0     H73437   6.933   4.824   4.712 -2.1651 -0.1556 -2.3719
  544MOL0     H73438   7.229   4.990   4.680 -0.1871  0.5360  1.5289
  544MOL0     H73439   7.088   4.968   4.784 -0.2254  2.9009 -1.1093
  544MOL0     H73440   7.246   4.885   4.815 -0.5091  1.3309  0.6187
  545MOL0     O73441   7.569   0.673   8.484 -0.7477  0.5767  0.1295
  545MOL0     C73442   7.540   0.681   8.600  0.5478 -0.3029  0.5741
  545MOL0     O73443   7.628   0.729   8.700  0.1573  0.2758 -0.2082
  545MOL0     C73444   7.749   0.780   8.652 -0.7467 -0.5290 -0.6855
  545MOL0     C73445   7.753   0.898   8.585  0.9338  0.9546 -0.9813
  545MOL0     C73446   7.867   0.942   8.530 -0.6160  0.3139 -0.3563
  545MOL0     C73447   7.985   0.876   8.532 -0.2738 -0.2936  0.2468
  545MOL0     O73448   8.105   0.904   8.465 -0.8885 -0.2275  0.0623
  545MOL0     C73449   8.091   0.952   8.335  0.2822 -0.2748 -0.2795
  545MOL0     C73450   8.222   0.973   8.260  0.0918  0.1913 -0.6618
  545MOL0     C73451   8.328   1.029   8.340 -0.0868  0.2196 -0.2885
  545MOL0     C73452   8.462   1.051   8.269 -0.7710 -0.4602  0.0731
  545MOL0     C73453   8.582   1.064   8.365 -0.3519 -0.3912 -1.2400
  545MOL0     C73454   8.696   1.153   8.316 -1.1582  0.2427  0.0207
  545MOL0     C73455   8.829   1.091   8.348 -0.1808 -1.0605 -0.6612
  545MOL0     C73456   8.863   1.119   8.496 -0.0162  0.1868 -0.5050
  545MOL0     N73457   8.991   1.075   8.545 -0.4837  0.4307  1.1325
  545MOL0     C73458   9.037   0.949   8.554 -1.0797  0.1597 -0.3833
  545MOL0     C73459   9.145   0.951   8.633  0.4054  0.2268 -0.1007
  545MOL0     C73460   9.211   0.825   8.681  0.3894  0.1525 -0.5566
  545MOL0     C73461   9.349   0.802   8.627  1.5562  0.3066 -0.0107
  545MOL0     C73462   9.352   0.803   8.478 -0.2726  0.4839 -0.2113
  545MOL0     C73463   9.498   0.798   8.429 -0.3091  0.5281  0.4864
  545MOL0     O73464   9.553   0.670   8.460 -0.6384 -0.7923  0.9837
  545MOL0     C73465   9.689   0.658   8.449 -0.5816 -0.3373  0.0318
  545MOL0     C73466   9.753   0.539   8.488 -0.8644  0.3889 -0.7036
  545MOL0     C73467   9.890   0.525   8.479 -0.6995  0.9865 -0.6702
  545MOL0     C73468   9.975   0.627   8.446 -0.1080 -1.3608  0.0982
  545MOL0     C73469  10.120   0.618   8.440  0.3149 -0.3796 -0.2075
  545MOL0     O73470  10.199   0.727   8.413  0.0540 -0.1376 -0.2862
  545MOL0     C73471  10.334   0.701   8.428  0.6232 -0.1049 -0.2954
  545MOL0     C73472  10.406   0.627   8.335  0.0935 -0.0022  0.6790
  545MOL0     C73473  10.545   0.607   8.353  0.6066 -0.4801 -0.6404
  545MOL0     C73474  10.613   0.668   8.473  0.2702 -0.3202  0.5229
  545MOL0     O73475  10.742   0.667   8.502 -0.3020  0.4777 -0.3369
  545MOL0     C73476  10.823   0.547   8.455  0.2062 -0.5680  1.2173
  545MOL0     C73477  10.898   0.602   8.331 -0.5700  0.1647 -0.8316
  545MOL0     C73478  11.030   0.684   8.362  0.7489  0.4967  0.0982
  545MOL0     C73479  11.121   0.713   8.235 -0.4989  0.2637  0.6296
  545MOL0     C73480  11.267   0.763   8.265  0.9888  0.8870 -0.2792
  545MOL0     C73481  11.351   0.727   8.144  0.1899  0.2062 -0.6395
  545MOL0     C73482  11.481   0.797   8.147  0.1406  0.0446  0.3445
  545MOL0     C73483  11.560   0.759   8.023  0.2112  0.3203 -1.1837
  545MOL0    Cl73484  11.731   0.807   8.021  0.3023  0.0611 -0.5218
  545MOL0     C73485  10.535   0.730   8.563 -1.1181 -0.4727  0.3010
  545MOL0     C73486  10.397   0.748   8.536 -0.1385 -0.4338  0.0736
  545MOL0     O73487  10.165   0.502   8.463  0.2498 -0.3067  0.5138
  545MOL0     C73488   9.911   0.746   8.411 -0.0406 -0.2969 -0.4866
  545MOL0     C73489   9.777   0.766   8.415 -0.3778  0.1849 -0.8065
  545MOL0     N73490   9.174   1.082   8.663  0.0939  0.5421  0.4988
  545MOL0     N73491   9.074   1.148   8.624 -0.1189 -0.7498 -0.2387
  545MOL0     C73492   7.984   0.754   8.604 -0.1370  0.0628  0.4210
  545MOL0     C73493   7.869   0.705   8.663  0.1548  0.3241  0.5798
  545MOL0     C73494   7.404   0.632   8.631 -0.8316  0.0840 -0.8947
  545MOL0     C73495   7.394   0.539   8.731  1.1957 -0.3592  0.3435
  545MOL0     C73496   7.271   0.500   8.763  0.8066 -0.2847  0.4896
  545MOL0     C73497   7.153   0.535   8.685  0.0340  0.0585 -0.7470
  545MOL0     O73498   7.017   0.504   8.708 -0.1540  0.2143 -0.0752
  545MOL0     C73499   7.009   0.377   8.774 -0.8591 -0.3662 -0.4264
  545MOL0     C73500   6.858   0.342   8.782  0.8156 -0.2756 -0.0591
  545MOL0     C73501   6.834   0.200   8.825 -0.2072  0.0958  0.7089
  545MOL0     C73502   6.719   0.182   8.929  0.1959  0.1954 -1.0892
  545MOL0     C73503   6.592   0.175   8.867  0.0265  0.5452  0.2263
  545MOL0     C73504   6.485   0.157   8.813  0.4050 -0.1770 -0.0568
  545MOL0     C73505   7.166   0.630   8.585 -1.2525 -0.2517  0.4461
  545MOL0     C73506   7.296   0.675   8.552  0.4084 -0.1823  0.3883
  545MOL0     C73507   7.312   0.787   8.452  0.7152 -0.9178  0.1862
  545MOL0     H73508   7.658   0.946   8.568 -0.1651 -0.5412  0.5929
  545MOL0     H73509   7.855   1.042   8.490  2.2868  0.3793 -1.3353
  545MOL0     H73510   8.027   0.881   8.282 -1.3678 -0.1149  1.3937
  545MOL0     H73511   8.041   1.049   8.342  2.1168  0.5893  2.5923
  545MOL0     H73512   8.195   1.036   8.175 -1.6236  0.4929  0.0705
  545MOL0     H73513   8.243   0.870   8.232 -1.1015  0.1941 -1.6657
  545MOL0     H73514   8.348   0.962   8.425 -1.5978 -1.6595 -1.3543
  545MOL0     H73515   8.282   1.118   8.384  1.9103  0.9779  0.3975
  545MOL0     H73516   8.490   0.968   8.203 -2.0277  1.9272 -3.8146
  545MOL0     H73517   8.454   1.144   8.212  0.3495  0.6430  1.6129
  545MOL0     H73518   8.545   1.098   8.462 -2.5744 -0.9401 -1.8501
  545MOL0     H73519   8.620   0.964   8.389  2.0902  1.2821  3.0460
  545MOL0     H73520   8.694   1.166   8.207 -4.5339  0.6316  0.0090
  545MOL0     H73521   8.692   1.253   8.361  0.5549 -0.2758  1.4004
  545MOL0     H73522   8.903   1.136   8.282  0.3528 -5.0163 -3.0720
  545MOL0     H73523   8.835   0.984   8.324 -0.9987 -1.5514  1.1393
  545MOL0     H73524   8.866   1.225   8.525 -0.5904 -0.6069  2.8888
  545MOL0     H73525   8.786   1.071   8.557  0.3304  2.5435  1.9659
  545MOL0     H73526   8.995   0.859   8.510 -0.0341 -0.4938 -0.0638
  545MOL0     H73527   9.222   0.838   8.789 -0.3757 -1.5374 -0.2464
  545MOL0     H73528   9.143   0.739   8.672  1.5133 -0.8212 -0.0226
  545MOL0     H73529   9.413   0.874   8.678  1.3798 -0.8128  1.8719
  545MOL0     H73530   9.390   0.702   8.647 -0.2145 -0.1362  1.8009
  545MOL0     H73531   9.316   0.904   8.454 -1.2214  0.0255 -0.7805
  545MOL0     H73532   9.289   0.730   8.427 -1.0164  0.5021  0.6631
  545MOL0     H73533   9.548   0.884   8.476  0.4515 -0.6959  2.0054
  545MOL0     H73534   9.509   0.819   8.322 -2.0583 -0.3320  0.1087
  545MOL0     H73535   9.690   0.461   8.528 -3.8613  2.5027 -0.9936
  545MOL0     H73536   9.939   0.430   8.498  2.3504  2.4138 -0.7118
  545MOL0     H73537  10.353   0.582   8.252  0.9885 -0.1165  0.1553
  545MOL0     H73538  10.603   0.544   8.286  0.7809  1.0084 -1.9636
  545MOL0     H73539  10.889   0.513   8.535  0.8301 -1.8367  0.1992
  545MOL0     H73540  10.763   0.460   8.427 -0.4117 -0.2504  1.5340
  545MOL0     H73541  10.929   0.529   8.255 -0.7354 -0.1255 -0.6205
  545MOL0     H73542  10.826   0.666   8.279 -2.3423 -2.3446 -1.6542
  545MOL0     H73543  11.000   0.776   8.413 -0.6237 -0.1284  0.4793
  545MOL0     H73544  11.095   0.624   8.426 -0.7819  0.3752  1.6255
  545MOL0     H73545  11.069   0.788   8.174 -1.6204 -1.2831 -0.3952
  545MOL0     H73546  11.125   0.614   8.188  0.5983  0.8627 -0.5779
  545MOL0     H73547  11.302   0.702   8.350 -1.2476 -1.2225 -0.7818
  545MOL0     H73548  11.266   0.867   8.298 -1.0296  0.4338  1.3145
  545MOL0     H73549  11.361   0.619   8.149 -2.2651 -0.0776 -0.6575
  545MOL0     H73550  11.301   0.763   8.054 -0.1780  0.3776 -0.3679
  545MOL0     H73551  11.543   0.765   8.230 -0.4389 -1.5911  0.1898
  545MOL0     H73552  11.463   0.905   8.157 -0.2749  0.1308 -1.0403
  545MOL0     H73553  11.551   0.653   7.999  1.3985 -0.0793  0.0347
  545MOL0     H73554  11.504   0.816   7.948  0.3945 -1.0033 -2.3823
  545MOL0     H73555  10.575   0.784   8.648 -1.9733  2.4802 -1.0302
  545MOL0     H73556  10.351   0.811   8.612 -1.1951 -0.8293 -0.2129
  545MOL0     H73557   9.973   0.821   8.363 -0.8763  2.5254  2.4643
  545MOL0     H73558   9.753   0.866   8.379 -1.3247  0.6949  1.1048
  545MOL0     H73559   8.069   0.687   8.605 -2.0885 -2.8768  4.9352
  545MOL0     H73560   7.882   0.617   8.726  0.3126  0.7770  1.1786
  545MOL0     H73561   7.481   0.499   8.782  1.2849  1.6815  1.9232
  545MOL0     H73562   7.260   0.430   8.845  1.4574 -2.9821 -1.5503
  545MOL0     H73563   7.045   0.390   8.876  0.3180 -1.9229 -0.6046
  545MOL0     H73564   7.062   0.290   8.733  1.5748 -0.2662  2.1673
  545MOL0     H73565   6.812   0.363   8.685 -1.1168 -0.9402  0.6565
  545MOL0     H73566   6.823   0.415   8.856  2.7423  4.3013 -3.2231
  545MOL0     H73567   6.932   0.163   8.858  0.7013  0.6791 -1.1779
  545MOL0     H73568   6.818   0.142   8.734  0.8974 -0.1344  0.6497
  545MOL0     H73569   6.734   0.086   8.980 -0.2288  2.1638  3.2377
  545MOL0     H73570   6.719   0.263   9.003  1.7968 -0.9565  0.2527
  545MOL0     H73571   6.396   0.135   8.757  0.8297 -1.5990 -0.2168
  545MOL0     H73572   7.084   0.674   8.529 -1.2419 -2.4427 -1.4053
  545MOL0     H73573   7.377   0.866   8.490  2.6463 -1.8076 -1.1104
  545MOL0     H73574   7.365   0.755   8.361  3.8776  1.3188  1.0763
  545MOL0     H73575   7.221   0.843   8.427  1.0855 -1.0147 -1.5054
  546MOL0     O73576   9.136   8.025   1.819  0.4009  0.0648 -0.1896
  546MOL0     C73577   9.116   8.037   1.935 -0.2879  0.1012  0.5336
  546MOL0     O73578   9.200   8.022   2.036 -0.0076  0.0761 -0.0960
  546MOL0     C73579   9.315   7.963   2.016  0.5975 -1.0835  0.1863
  546MOL0     C73580   9.426   8.017   2.079  0.1797 -0.4186  0.3920
  546MOL0     C73581   9.551   7.959   2.080 -0.4566 -0.4319  0.2392
  546MOL0     C73582   9.565   7.827   2.027 -0.0454 -1.0220  0.1601
  546MOL0     O73583   9.690   7.773   2.047  0.0563 -0.5128 -0.0482
  546MOL0     C73584   9.721   7.649   1.986  0.1983 -0.7002  0.9651
  546MOL0     C73585   9.686   7.529   2.065  0.3860 -0.4543  0.4875
  546MOL0     C73586   9.806   7.482   2.150 -1.6096 -0.6509  1.1441
  546MOL0     C73587   9.792   7.410   2.285  0.0317 -0.9093  0.6030
  546MOL0     C73588   9.913   7.341   2.345 -0.7911  0.4115 -1.3820
  546MOL0     C73589   9.965   7.202   2.279  0.1605  0.0797 -0.5733
  546MOL0     C73590  10.091   7.225   2.193 -0.1076  0.7783  0.8970
  546MOL0     C73591  10.207   7.251   2.282  0.7977 -0.2256 -0.3557
  546MOL0     N73592  10.310   7.145   2.283 -0.3547  0.5018  0.4798
  546MOL0     C73593  10.421   7.135   2.200  0.1265 -0.8176 -0.3000
  546MOL0     C73594  10.477   7.020   2.232 -0.0163 -0.1963  0.3937
  546MOL0     C73595  10.592   6.961   2.152  1.1911  0.2300 -0.7189
  546MOL0     C73596  10.727   7.000   2.199 -0.1741  1.3386  0.0394
  546MOL0     C73597  10.745   7.145   2.215  0.7974 -0.4070 -0.3643
  546MOL0     C73598  10.898   7.174   2.240 -0.5765  0.9315 -0.6378
  546MOL0     O73599  10.947   7.144   2.372 -0.6093 -0.4261  0.1960
  546MOL0     C73600  11.080   7.169   2.392 -0.3562  0.2872 -0.1236
  546MOL0     C73601  11.166   7.245   2.307 -0.4088 -0.0111  0.2821
  546MOL0     C73602  11.301   7.266   2.343 -0.2155  0.7190 -0.2324
  546MOL0     C73603  11.346   7.226   2.476  1.0520 -0.6001 -0.1758
  546MOL0     C73604  11.497   7.230   2.502  0.5048 -0.4777  0.2999
  546MOL0     O73605  11.580   7.258   2.408 -0.0159 -0.3920  0.3792
  546MOL0     C73606  11.708   7.309   2.442  0.1268  0.1885  0.2883
  546MOL0     C73607  11.733   7.396   2.547  0.6041 -0.2212 -0.1118
  546MOL0     C73608  11.860   7.441   2.574 -0.1785  0.9970  0.0352
  546MOL0     C73609  11.967   7.398   2.497 -1.0768 -0.0818  0.8673
  546MOL0     O73610  12.091   7.452   2.528 -0.2191  0.0911 -0.7154
  546MOL0     C73611  12.207   7.379   2.513  0.2288  1.3067  0.4186
  546MOL0     C73612  12.247   7.300   2.643  1.0716  0.2151  1.3795
  546MOL0     C73613  12.402   7.270   2.650  0.6975  0.7735 -0.4708
  546MOL0     C73614  12.420   7.191   2.784 -0.0034 -0.4737 -0.1040
  546MOL0     C73615  12.562   7.140   2.799 -0.3068  0.9110  0.2230
  546MOL0     C73616  12.657   7.255   2.819  0.3858  0.1317 -0.7077
  546MOL0     C73617  12.792   7.189   2.853 -0.5103  0.0637  0.2460
  546MOL0     C73618  12.894   7.301   2.848 -0.8892  0.4199 -0.3213
  546MOL0    Cl73619  13.052   7.221   2.898 -0.2860  0.1729 -0.2693
  546MOL0     C73620  11.945   7.300   2.394 -0.0454  0.4901 -1.2132
  546MOL0     C73621  11.819   7.261   2.373 -0.1759 -0.6892 -0.3432
  546MOL0     O73622  11.521   7.197   2.621  0.3887  0.0972  0.6762
  546MOL0     C73623  11.247   7.173   2.562 -0.4105 -0.1887 -0.4471
  546MOL0     C73624  11.129   7.136   2.516  0.3945  0.2398 -0.4593
  546MOL0     N73625  10.408   6.969   2.339 -0.6216  0.1938 -0.5010
  546MOL0     N73626  10.308   7.044   2.367 -0.4495  0.4386  0.3559
  546MOL0     C73627   9.453   7.773   1.954  0.9269 -0.1282 -0.8483
  546MOL0     C73628   9.329   7.843   1.950 -0.0323 -0.0545 -0.3907
  546MOL0     C73629   8.973   8.054   1.979 -0.7360  0.3415  0.1495
  546MOL0     C73630   8.944   8.164   2.069  0.4119 -0.2004  0.7508
  546MOL0     C73631   8.808   8.187   2.110 -1.1872 -0.2858  0.2115
  546MOL0     C73632   8.707   8.108   2.068 -0.3589 -0.3106 -0.7303
  546MOL0     O73633   8.577   8.144   2.091  0.1073  0.1578 -0.5365
  546MOL0     C73634   8.471   8.102   2.004 -0.3749  0.0789  0.7638
  546MOL0     C73635   8.366   8.203   1.995 -0.2513  0.8351 -0.2443
  546MOL0     C73636   8.246   8.171   1.900  0.3107  0.5938 -0.0013
  546MOL0     C73637   8.260   8.218   1.755 -0.1386  0.2521 -0.3399
  546MOL0     C73638   8.265   8.367   1.752  0.2789 -0.1096 -0.3127
  546MOL0     C73639   8.250   8.481   1.790 -0.7810  0.4771 -0.4043
  546MOL0     C73640   8.740   7.994   2.001  0.2936 -0.1324  0.8718
  546MOL0     C73641   8.869   7.963   1.962 -0.3120 -0.2267 -0.1732
  546MOL0     C73642   8.890   7.825   1.911  0.4978  1.4189  0.2207
  546MOL0     H73643   9.414   8.113   2.130 -0.3000 -2.7323  5.1926
  546MOL0     H73644   9.636   8.000   2.133 -0.4320 -1.2519  0.8364
  546MOL0     H73645   9.669   7.650   1.890 -1.0904  0.9573  1.6247
  546MOL0     H73646   9.827   7.644   1.959  0.1318 -0.1454  0.5910
  546MOL0     H73647   9.649   7.451   1.998  0.4319  0.8570 -1.1105
  546MOL0     H73648   9.602   7.559   2.129  2.0499  0.2204  2.4856
  546MOL0     H73649   9.854   7.579   2.166  3.6448 -2.3608 -2.0281
  546MOL0     H73650   9.872   7.419   2.089 -2.8142  0.8288 -1.9026
  546MOL0     H73651   9.758   7.487   2.355  0.2975  0.8704 -1.1470
  546MOL0     H73652   9.721   7.327   2.279  3.9305 -4.5299 -0.9200
  546MOL0     H73653   9.995   7.413   2.350  1.0651 -1.6920  0.2885
  546MOL0     H73654   9.883   7.298   2.441  2.7250 -0.9041 -0.7396
  546MOL0     H73655   9.984   7.121   2.349 -0.2504 -0.5688 -1.1933
  546MOL0     H73656   9.886   7.167   2.211 -0.7015 -1.8657  1.3218
  546MOL0     H73657  10.080   7.306   2.120  1.7052  0.6034  0.3928
  546MOL0     H73658  10.097   7.135   2.130 -2.6853 -0.4858  2.2571
  546MOL0     H73659  10.253   7.346   2.254  0.0943  0.0413 -0.6300
  546MOL0     H73660  10.172   7.260   2.385  0.7934 -0.6033 -0.3208
  546MOL0     H73661  10.447   7.201   2.117 -1.0111 -0.8029 -0.6612
  546MOL0     H73662  10.585   6.852   2.153 -1.4054  0.3424 -0.6720
  546MOL0     H73663  10.599   6.991   2.047  2.5440  0.2962 -0.6336
  546MOL0     H73664  10.745   6.945   2.291 -3.2738  2.7519  1.6347
  546MOL0     H73665  10.793   6.960   2.122 -1.1041 -2.5045  1.0387
  546MOL0     H73666  10.687   7.188   2.297 -2.5711 -0.9741 -2.2440
  546MOL0     H73667  10.717   7.199   2.124  2.0845 -1.6186 -1.5317
  546MOL0     H73668  10.904   7.283   2.233  2.1486  0.9268  0.3497
  546MOL0     H73669  10.950   7.118   2.162 -2.1454  0.5979 -1.4853
  546MOL0     H73670  11.127   7.271   2.210 -0.0218 -0.1329  0.0914
  546MOL0     H73671  11.370   7.322   2.281 -1.4087  1.3387 -1.0328
  546MOL0     H73672  11.653   7.435   2.608 -1.6524 -3.4723 -0.7563
  546MOL0     H73673  11.885   7.505   2.657  0.1970  0.3393  0.4359
  546MOL0     H73674  12.206   7.313   2.426  1.8199 -0.1969  1.4617
  546MOL0     H73675  12.283   7.457   2.502 -0.0278  1.5155  0.1442
  546MOL0     H73676  12.221   7.359   2.731  1.0334  1.8455  0.3158
  546MOL0     H73677  12.178   7.216   2.646  0.9453  0.3348  1.7853
  546MOL0     H73678  12.419   7.205   2.563 -1.5978  0.8645 -1.0495
  546MOL0     H73679  12.456   7.365   2.656  0.6886  0.7146  0.6809
  546MOL0     H73680  12.354   7.103   2.779 -0.9736  0.1530  1.0991
  546MOL0     H73681  12.389   7.246   2.873  0.1923  0.8923 -0.8519
  546MOL0     H73682  12.595   7.075   2.718  4.8106 -1.8104  3.9222
  546MOL0     H73683  12.558   7.080   2.890  1.9528 -1.3659 -1.0701
  546MOL0     H73684  12.655   7.313   2.726  0.8963  1.7118  0.2295
  546MOL0     H73685  12.625   7.319   2.902 -1.7587 -0.4242 -1.0250
  546MOL0     H73686  12.818   7.116   2.776  0.8063 -1.1253  1.7566
  546MOL0     H73687  12.794   7.144   2.953  2.9663  1.1528  0.7865
  546MOL0     H73688  12.909   7.342   2.748  1.1506 -0.3690 -0.3961
  546MOL0     H73689  12.862   7.378   2.919 -1.3553 -2.6898  3.1818
  546MOL0     H73690  12.025   7.263   2.331  1.7771 -1.0571  1.7916
  546MOL0     H73691  11.809   7.194   2.288 -2.3943 -1.3551  0.3823
  546MOL0     H73692  11.280   7.162   2.665  1.4299 -0.2014 -0.9971
  546MOL0     H73693  11.060   7.085   2.582 -1.3286  2.5334 -0.3460
  546MOL0     H73694   9.462   7.673   1.913  1.1582  0.7770 -3.1278
  546MOL0     H73695   9.248   7.786   1.906  2.0142 -0.9715 -3.2838
  546MOL0     H73696   9.026   8.228   2.099  2.3675 -0.9791 -2.5362
  546MOL0     H73697   8.786   8.277   2.166 -2.2811 -0.8351  0.6844
  546MOL0     H73698   8.429   8.009   2.043 -1.2368  0.2581  0.2821
  546MOL0     H73699   8.519   8.075   1.909  0.3447  0.2233  1.0749
  546MOL0     H73700   8.417   8.292   1.956  0.3351  0.8164  0.4504
  546MOL0     H73701   8.309   8.218   2.088 -0.7145 -0.3944 -0.3154
  546MOL0     H73702   8.155   8.213   1.945 -0.1838 -1.5453  1.1317
  546MOL0     H73703   8.230   8.063   1.895 -0.9243  0.7692 -0.1392
  546MOL0     H73704   8.341   8.177   1.694 -1.6809  0.1250 -2.4284
  546MOL0     H73705   8.171   8.194   1.696 -0.0577  0.8730 -0.7295
  546MOL0     H73706   8.232   8.579   1.829 -1.2690  0.4165 -0.4700
  546MOL0     H73707   8.654   7.934   1.973  1.4173 -0.7559 -1.5142
  546MOL0     H73708   8.793   7.777   1.894  1.3811  0.1628 -1.5916
  546MOL0     H73709   8.957   7.826   1.825  2.8462 -0.4639  1.8969
  546MOL0     H73710   8.929   7.754   1.985 -1.2778 -1.6418 -1.5589
  547MOL0     O73711   7.672   0.896   1.258 -0.1690  0.2192 -0.1539
  547MOL0     C73712   7.640   0.894   1.145  0.1964  0.5491  0.1932
  547MOL0     O73713   7.710   0.841   1.041 -0.4802 -0.1884 -1.2195
  547MOL0     C73714   7.843   0.805   1.052 -0.1090 -0.1017 -0.4975
  547MOL0     C73715   7.938   0.855   1.141 -0.0703 -0.2920 -0.8756
  547MOL0     C73716   8.070   0.817   1.138  0.0037 -0.8274  0.1237
  547MOL0     C73717   8.106   0.726   1.032 -0.4940 -0.6456 -0.1752
  547MOL0     O73718   8.237   0.691   1.009  1.0862  0.3930 -0.1629
  547MOL0     C73719   8.353   0.758   1.060  0.4934  0.2956 -0.0012
  547MOL0     C73720   8.477   0.676   1.034  0.1389  0.3029  0.6122
  547MOL0     C73721   8.485   0.535   1.102  0.2923 -0.4402  0.1600
  547MOL0     C73722   8.634   0.493   1.125  0.8509 -0.4151  0.5803
  547MOL0     C73723   8.634   0.338   1.156 -0.3763  0.6652  0.4198
  547MOL0     C73724   8.777   0.277   1.173 -0.5574 -0.1485 -0.2739
  547MOL0     C73725   8.845   0.306   1.311  0.3867 -0.1940  0.2236
  547MOL0     C73726   8.984   0.249   1.331  0.8625 -0.4758 -0.1525
  547MOL0     N73727   9.081   0.335   1.262  0.0346  0.7603 -0.3847
  547MOL0     C73728   9.168   0.414   1.329 -0.4212 -0.3948 -0.1882
  547MOL0     C73729   9.256   0.441   1.225  0.0201 -0.6467  0.7936
  547MOL0     C73730   9.365   0.545   1.231 -1.5560 -0.1949 -0.0864
  547MOL0     C73731   9.321   0.687   1.181 -0.3718 -0.3101  0.3644
  547MOL0     C73732   9.411   0.801   1.231  0.9110  0.8000 -0.1595
  547MOL0     C73733   9.537   0.826   1.150  0.5311  0.0968  0.0653
  547MOL0     O73734   9.628   0.710   1.128  0.1311 -1.3243  0.4949
  547MOL0     C73735   9.719   0.709   1.027 -0.5294 -0.1117  0.4407
  547MOL0     C73736   9.730   0.808   0.924 -0.5529  0.8186  0.0537
  547MOL0     C73737   9.840   0.813   0.838  0.0949 -0.4866  1.4050
  547MOL0     C73738   9.931   0.706   0.823 -0.7169 -0.2380 -0.4227
  547MOL0     C73739  10.045   0.705   0.728  0.0105  0.8099 -0.1452
  547MOL0     O73740  10.061   0.831   0.668  0.1699 -0.3663  0.1812
  547MOL0     C73741  10.167   0.859   0.581 -0.1715  0.2550 -0.2522
  547MOL0     C73742  10.154   0.977   0.501 -0.9649  0.2370 -0.8129
  547MOL0     C73743  10.228   0.999   0.390 -0.1783 -0.0882 -0.5866
  547MOL0     C73744  10.339   0.925   0.360 -0.0659  0.3912 -0.3382
  547MOL0     O73745  10.417   0.983   0.266 -0.2843  0.2269  0.2355
  547MOL0     C73746  10.516   0.897   0.200  0.6045  0.5327  0.2244
  547MOL0     C73747  10.659   0.927   0.247 -0.4660 -0.3044  1.0919
  547MOL0     C73748  10.704   1.056   0.175  0.6950 -0.0141  0.3016
  547MOL0     C73749  10.840   1.106   0.221  0.2086  0.1050  0.2869
  547MOL0     C73750  10.898   1.220   0.132 -0.4947 -0.0559 -0.1302
  547MOL0     C73751  11.035   1.179   0.075 -0.0529 -0.1366 -0.6011
  547MOL0     C73752  11.083   1.273  -0.033 -0.4747  0.3877 -0.3626
  547MOL0     C73753  11.111   1.407   0.022 -0.4389  0.2300  0.6277
  547MOL0    Cl73754  11.259   1.428   0.105 -0.2574 -0.3669 -0.4222
  547MOL0     C73755  10.360   0.809   0.437 -0.4910  0.4037  0.1511
  547MOL0     C73756  10.275   0.769   0.540  0.5081  0.1218 -0.0451
  547MOL0     O73757  10.105   0.598   0.709 -0.1624  0.0099 -0.6584
  547MOL0     C73758   9.913   0.601   0.915  1.3301 -0.0478 -0.0605
  547MOL0     C73759   9.821   0.605   1.017  0.7847 -0.4934 -0.0362
  547MOL0     N73760   9.207   0.383   1.109 -0.1122  0.0849  0.5658
  547MOL0     N73761   9.102   0.314   1.136 -0.5197  0.4807  0.1377
  547MOL0     C73762   8.015   0.682   0.927 -0.0607  0.3107  0.0532
  547MOL0     C73763   7.882   0.708   0.958  0.7778 -0.2687  1.1410
  547MOL0     C73764   7.507   0.933   1.109 -0.5368  0.7619  0.1991
  547MOL0     C73765   7.473   0.979   0.970 -0.2471  0.2765 -1.0614
  547MOL0     C73766   7.339   1.016   0.929  0.4214 -0.5911  0.0922
  547MOL0     C73767   7.242   1.018   1.021  0.6279  0.5570 -0.1472
  547MOL0     O73768   7.119   1.046   0.992  0.0671  0.5918  0.1529
  547MOL0     C73769   7.095   1.186   0.958  0.1254  0.4684  0.7279
  547MOL0     C73770   6.943   1.226   0.942 -1.1307  0.6412  0.0806
  547MOL0     C73771   6.947   1.371   0.907  0.3995 -0.0341 -1.2016
  547MOL0     C73772   6.816   1.440   0.875  0.4738 -0.8141  0.0219
  547MOL0     C73773   6.717   1.406   0.977  0.1850  0.6310  0.9614
  547MOL0     C73774   6.627   1.375   1.052  0.8697  1.2457 -0.1155
  547MOL0     C73775   7.266   0.978   1.150 -0.3892  0.4167  0.8436
  547MOL0     C73776   7.394   0.941   1.194  0.0804 -0.0298 -0.6626
  547MOL0     C73777   7.406   0.913   1.344  0.7062  1.2168  0.0210
  547MOL0     H73778   7.907   0.921   1.221 -2.6916 -2.3637 -0.0384
  547MOL0     H73779   8.141   0.859   1.208 -2.2948  3.6707  0.1220
  547MOL0     H73780   8.371   0.854   1.011  1.2257  0.4111  0.4647
  547MOL0     H73781   8.345   0.766   1.169 -0.3522 -2.8053  0.2504
  547MOL0     H73782   8.558   0.743   1.062  1.8970 -1.7124  0.6589
  547MOL0     H73783   8.478   0.659   0.925  0.1709 -1.7520  0.8823
  547MOL0     H73784   8.425   0.465   1.043 -1.6361  0.8950  0.4330
  547MOL0     H73785   8.436   0.543   1.199  0.7621 -0.3467  0.3957
  547MOL0     H73786   8.694   0.509   1.036 -0.5662 -0.1617 -0.3586
  547MOL0     H73787   8.687   0.549   1.203  1.5913  0.6441 -0.6430
  547MOL0     H73788   8.585   0.318   1.252  2.7633 -0.8420  1.8354
  547MOL0     H73789   8.583   0.289   1.073  0.7403  2.5877 -1.4827
  547MOL0     H73790   8.775   0.167   1.167  0.3612 -0.1036 -1.9873
  547MOL0     H73791   8.843   0.309   1.092  1.3623  0.5540  1.4966
  547MOL0     H73792   8.797   0.279   1.405 -0.2565  0.2630  0.0323
  547MOL0     H73793   8.850   0.415   1.318 -1.9509 -0.0219 -0.1025
  547MOL0     H73794   8.998   0.240   1.439 -1.3229  0.3675  0.2607
  547MOL0     H73795   8.986   0.148   1.289  0.8942 -0.1917 -0.8573
  547MOL0     H73796   9.170   0.441   1.434  0.5317 -2.8545  0.4949
  547MOL0     H73797   9.406   0.558   1.331 -3.4054 -0.7905  0.7951
  547MOL0     H73798   9.438   0.496   1.165 -0.7202  0.8613  0.0344
  547MOL0     H73799   9.311   0.672   1.073 -3.5359 -4.1440  0.9431
  547MOL0     H73800   9.221   0.713   1.217 -0.0831 -0.6705  1.4499
  547MOL0     H73801   9.425   0.779   1.337  3.3424 -0.1592 -0.6033
  547MOL0     H73802   9.351   0.892   1.238 -0.2878 -0.0694  1.4161
  547MOL0     H73803   9.594   0.915   1.181 -1.5731  0.6870  2.5966
  547MOL0     H73804   9.498   0.856   1.052  0.4248 -0.7470 -0.1518
  547MOL0     H73805   9.662   0.892   0.932  0.0499  1.4327 -1.0986
  547MOL0     H73806   9.847   0.897   0.770 -3.5932 -1.6104 -0.6474
  547MOL0     H73807  10.078   1.047   0.536 -1.1443  0.9007 -2.4318
  547MOL0     H73808  10.214   1.080   0.319  0.6677  1.9211  1.4358
  547MOL0     H73809  10.486   0.793   0.209  1.0737  0.4502  0.9068
  547MOL0     H73810  10.506   0.928   0.096  0.5857  5.0863  1.3338
  547MOL0     H73811  10.659   0.950   0.354 -2.4138 -0.8283  1.2538
  547MOL0     H73812  10.729   0.846   0.226 -0.9628 -0.1372 -1.4668
  547MOL0     H73813  10.698   1.043   0.066  0.7445  0.8051  0.1947
  547MOL0     H73814  10.625   1.128   0.198 -0.0168 -0.7633  0.2657
  547MOL0     H73815  10.913   1.025   0.216  0.9076  0.7580 -0.3740
  547MOL0     H73816  10.845   1.148   0.322 -0.7227  0.9884 -0.0155
  547MOL0     H73817  10.908   1.308   0.196  1.4680 -1.1053  1.1220
  547MOL0     H73818  10.834   1.246   0.047  0.4000 -0.3492 -0.9101
  547MOL0     H73819  11.117   1.171   0.148 -0.5301  0.7190  0.0410
  547MOL0     H73820  11.032   1.078   0.033 -0.2678  0.2100 -1.4381
  547MOL0     H73821  11.006   1.276  -0.111  0.7554 -1.5366 -1.7271
  547MOL0     H73822  11.163   1.222  -0.087  1.7382  0.9208  2.2094
  547MOL0     H73823  11.115   1.483  -0.057 -2.8055  2.2131  2.2420
  547MOL0     H73824  11.031   1.448   0.084  0.0490  0.5471  1.0666
  547MOL0     H73825  10.449   0.749   0.419 -1.6176 -2.0851  2.3078
  547MOL0     H73826  10.301   0.676   0.590  1.1154  0.2249 -0.1725
  547MOL0     H73827   9.985   0.520   0.922  2.9705  1.3012 -0.4030
  547MOL0     H73828   9.801   0.534   1.097 -1.7207  0.2749  0.1280
  547MOL0     H73829   8.050   0.609   0.854  0.7872  1.1443 -0.4043
  547MOL0     H73830   7.815   0.656   0.891  1.1773 -0.5297  0.9378
  547MOL0     H73831   7.552   0.992   0.896  0.2844  0.1024 -0.5326
  547MOL0     H73832   7.323   1.053   0.828 -1.9876  2.6952  1.5145
  547MOL0     H73833   7.144   1.204   0.862 -4.1946 -1.4505 -2.1562
  547MOL0     H73834   7.143   1.258   1.026 -0.8980 -0.7051  2.7988
  547MOL0     H73835   6.884   1.198   1.030 -0.4195 -1.7921 -0.1448
  547MOL0     H73836   6.903   1.162   0.862 -1.2383  2.7009 -1.6130
  547MOL0     H73837   6.984   1.365   0.804  2.1614  1.0875 -0.6851
  547MOL0     H73838   7.003   1.431   0.980  0.2626  0.8237 -1.7809
  547MOL0     H73839   6.835   1.548   0.870 -0.7246 -0.6253 -1.2762
  547MOL0     H73840   6.774   1.403   0.781  1.9556 -3.7724  0.4318
  547MOL0     H73841   6.542   1.354   1.114  0.8294  1.2138 -0.1813
  547MOL0     H73842   7.187   0.989   1.224  1.5914  0.1935  3.1325
  547MOL0     H73843   7.318   0.947   1.400  0.2507  2.5244 -1.4255
  547MOL0     H73844   7.410   0.805   1.356  2.2704  1.3749  1.3373
  547MOL0     H73845   7.497   0.953   1.390  2.0322  0.5993 -1.9293
  548MOL0     O73846   4.825  10.187   5.344 -0.1529 -0.1991 -0.1093
  548MOL0     C73847   4.707  10.171   5.330 -0.2086 -0.9082 -0.2930
  548MOL0     O73848   4.632  10.233   5.233  0.2147 -0.5663  0.0894
  548MOL0     C73849   4.676  10.342   5.164 -0.3716  0.5951 -0.1948
  548MOL0     C73850   4.744  10.443   5.230  0.3981  0.1472  0.9161
  548MOL0     C73851   4.793  10.546   5.156 -0.0397  0.3043  0.2064
  548MOL0     C73852   4.763  10.557   5.017 -0.3049 -0.7379 -0.4522
  548MOL0     O73853   4.845  10.641   4.948  0.5476 -0.5320  0.8273
  548MOL0     C73854   4.758  10.721   4.865  0.6099 -0.5010 -0.9028
  548MOL0     C73855   4.847  10.838   4.827  0.1986 -0.8607  0.1856
  548MOL0     C73856   4.792  10.906   4.691  0.0452  0.7290 -1.0127
  548MOL0     C73857   4.906  10.988   4.624  0.1625 -0.7922  0.7232
  548MOL0     C73858   4.838  11.066   4.512  0.2706  0.5581 -0.4928
  548MOL0     C73859   4.928  11.183   4.459 -0.5244  0.4428  0.1266
  548MOL0     C73860   4.848  11.273   4.362  0.5572 -0.0384 -0.9650
  548MOL0     C73861   4.942  11.382   4.303  0.2250  0.0564 -1.4972
  548MOL0     N73862   4.870  11.494   4.247 -0.7242  0.3086  0.4201
  548MOL0     C73863   4.854  11.620   4.301 -0.7649 -0.5789  0.3868
  548MOL0     C73864   4.793  11.688   4.202  0.8375 -0.8063 -0.2938
  548MOL0     C73865   4.756  11.841   4.204 -1.0251 -0.3420 -0.0107
  548MOL0     C73866   4.881  11.916   4.263  0.8247  0.2773  0.5063
  548MOL0     C73867   5.001  11.898   4.168  0.4755  0.7427  0.1660
  548MOL0     C73868   5.118  11.992   4.200 -0.6392 -0.8058  0.6565
  548MOL0     O73869   5.205  11.940   4.294 -0.0517 -0.7801  0.0556
  548MOL0     C73870   5.331  11.993   4.303  0.0415 -0.0155 -0.6971
  548MOL0     C73871   5.398  12.069   4.207 -0.7099  0.7661 -0.0455
  548MOL0     C73872   5.520  12.128   4.244 -0.3235 -0.2307 -0.4096
  548MOL0     C73873   5.592  12.100   4.361  0.3363 -0.1883 -1.2901
  548MOL0     C73874   5.726  12.166   4.392  0.1139  1.3170 -0.1858
  548MOL0     O73875   5.785  12.130   4.508 -0.4292  0.1483 -0.2187
  548MOL0     C73876   5.885  12.194   4.568 -0.3636 -1.2288  0.5334
  548MOL0     C73877   6.019  12.152   4.546 -0.0026  0.3963 -0.0140
  548MOL0     C73878   6.123  12.210   4.619  0.1042  0.6946 -0.0992
  548MOL0     C73879   6.098  12.328   4.694  0.2870  0.2064  0.3631
  548MOL0     O73880   6.199  12.379   4.774  0.2418 -0.1736 -0.0388
  548MOL0     C73881   6.237  12.514   4.766 -0.0465  0.0297 -0.5223
  548MOL0     C73882   6.332  12.554   4.647 -0.2016  0.4399  0.9697
  548MOL0     C73883   6.456  12.468   4.637 -0.4706 -0.1216 -0.1817
  548MOL0     C73884   6.571  12.535   4.715 -0.1625  0.1804 -0.1936
  548MOL0     C73885   6.697  12.453   4.739 -0.3770 -0.1542  0.1116
  548MOL0     C73886   6.782  12.448   4.611 -0.5473  0.1037  0.8285
  548MOL0     C73887   6.916  12.383   4.635 -0.1439  0.9939 -0.0859
  548MOL0     C73888   6.994  12.342   4.506  0.4124 -0.4166  0.1879
  548MOL0    Cl73889   6.981  12.482   4.391  0.1150  0.1809  0.2556
  548MOL0     C73890   5.968  12.378   4.713 -0.0621  0.3405 -0.4535
  548MOL0     C73891   5.859  12.303   4.654 -0.3530  0.2174  0.6395
  548MOL0     O73892   5.774  12.246   4.316  0.2281  0.3940 -0.0338
  548MOL0     C73893   5.525  12.017   4.453 -0.3523  1.2206  0.5165
  548MOL0     C73894   5.395  11.974   4.429  0.1093  0.6539  0.6306
  548MOL0     N73895   4.783  11.617   4.086  0.2364 -1.1714  0.3536
  548MOL0     N73896   4.829  11.500   4.111  0.0728  0.2084  0.5556
  548MOL0     C73897   4.697  10.460   4.954  0.0966  0.1371 -0.3117
  548MOL0     C73898   4.636  10.354   5.025 -0.2471  0.3646 -0.7572
  548MOL0     C73899   4.637  10.097   5.433 -0.4952  0.0737 -0.9601
  548MOL0     C73900   4.513  10.138   5.473 -0.3075  0.1811 -0.2687
  548MOL0     C73901   4.441  10.083   5.580  0.2198 -0.1627  0.4137
  548MOL0     C73902   4.494   9.972   5.646  0.5236 -0.7191 -0.0642
  548MOL0     O73903   4.422   9.926   5.755  0.0410  0.2780 -0.1204
  548MOL0     C73904   4.360   9.802   5.729  1.3512 -0.2731  0.5507
  548MOL0     C73905   4.215   9.830   5.693  0.4354 -0.1038  0.7355
  548MOL0     C73906   4.138   9.887   5.813  0.3396 -0.7942 -0.1600
  548MOL0     C73907   3.986   9.883   5.796  0.0933  0.1758  0.0826
  548MOL0     C73908   3.931   9.995   5.720  0.6905  0.0098  0.6528
  548MOL0     C73909   3.861  10.087   5.675 -0.4594 -0.3454  0.2243
  548MOL0     C73910   4.612   9.917   5.605 -0.1933  0.0608 -0.1198
  548MOL0     C73911   4.688   9.980   5.506  0.4299 -0.6906  0.4515
  548MOL0     C73912   4.815   9.926   5.480  0.8663  0.1016 -0.1103
  548MOL0     H73913   4.772  10.434   5.334  1.9605  4.3755  1.0243
  548MOL0     H73914   4.841  10.620   5.219  2.7641 -1.4631  0.3463
  548MOL0     H73915   4.733  10.666   4.773  1.3405 -2.4833  0.0156
  548MOL0     H73916   4.668  10.755   4.916  1.1610  0.2086 -0.3877
  548MOL0     H73917   4.950  10.811   4.803  1.4517  3.6943 -0.5893
  548MOL0     H73918   4.847  10.915   4.905 -0.6902  0.1253 -0.7484
  548MOL0     H73919   4.695  10.954   4.709 -0.2244 -0.3036  0.5929
  548MOL0     H73920   4.772  10.827   4.618  0.7888  0.4934 -0.9679
  548MOL0     H73921   4.954  11.052   4.699 -2.2155  0.3124  1.3931
  548MOL0     H73922   4.985  10.924   4.584 -1.1666 -3.1698  1.7450
  548MOL0     H73923   4.807  11.005   4.427  0.5368  0.3643 -0.4507
  548MOL0     H73924   4.748  11.114   4.554 -0.7524 -0.4161 -1.4871
  548MOL0     H73925   4.959  11.248   4.542  0.2507 -1.0385  1.0330
  548MOL0     H73926   5.021  11.157   4.407 -1.0765 -0.4043 -0.4577
  548MOL0     H73927   4.773  11.328   4.420  0.5043  2.3679 -3.1614
  548MOL0     H73928   4.795  11.219   4.283 -0.6065 -0.3523 -0.0083
  548MOL0     H73929   5.004  11.425   4.383 -1.4831  1.1085 -0.6743
  548MOL0     H73930   5.015  11.340   4.233  1.7667  1.2626 -0.6700
  548MOL0     H73931   4.904  11.646   4.394  0.6049 -0.2933 -0.4010
  548MOL0     H73932   4.720  11.872   4.106 -1.0265 -1.9372 -0.5487
  548MOL0     H73933   4.669  11.845   4.270 -0.3010  1.2998  0.9083
  548MOL0     H73934   4.847  12.016   4.294 -2.2260 -0.5804  0.2148
  548MOL0     H73935   4.907  11.871   4.359  1.2192  0.2772  0.4025
  548MOL0     H73936   4.968  11.924   4.067  0.2086 -2.6203 -0.7292
  548MOL0     H73937   5.035  11.794   4.159  2.7347  1.3690  0.7267
  548MOL0     H73938   5.074  12.087   4.230 -2.0334 -0.2734 -2.6301
  548MOL0     H73939   5.174  11.996   4.106 -1.4415 -0.2118  0.1891
  548MOL0     H73940   5.359  12.079   4.107  2.9506  0.4273 -1.6401
  548MOL0     H73941   5.562  12.194   4.169  2.7015  0.0771  1.3712
  548MOL0     H73942   6.040  12.066   4.484  0.2431  0.6199 -0.2433
  548MOL0     H73943   6.220  12.161   4.630 -1.4077 -2.3004  1.0216
  548MOL0     H73944   6.147  12.575   4.753 -0.0796  0.5515  1.7306
  548MOL0     H73945   6.282  12.543   4.861 -2.0684  2.6155 -0.2434
  548MOL0     H73946   6.273  12.548   4.555  1.3128 -0.0984  0.0015
  548MOL0     H73947   6.367  12.658   4.649  0.8571  0.3939 -3.9754
  548MOL0     H73948   6.446  12.365   4.672  2.4565 -1.1736 -2.0802
  548MOL0     H73949   6.485  12.467   4.531 -1.6488 -2.5128 -0.5724
  548MOL0     H73950   6.533  12.574   4.810 -1.9272  1.2083 -1.2535
  548MOL0     H73951   6.603  12.624   4.660 -2.0340  1.4929  0.7361
  548MOL0     H73952   6.685  12.348   4.768 -0.5027 -0.6294 -1.5212
  548MOL0     H73953   6.755  12.507   4.815 -1.3331 -0.4798  1.0920
  548MOL0     H73954   6.717  12.401   4.537 -1.3181  1.2896  0.7170
  548MOL0     H73955   6.798  12.552   4.579 -0.1175 -0.5759 -1.2951
  548MOL0     H73956   6.907  12.296   4.701  0.5384  1.7053  0.9693
  548MOL0     H73957   6.976  12.458   4.687  0.3293  0.1411  0.6331
  548MOL0     H73958   7.099  12.332   4.534  0.3771  0.5842  0.7315
  548MOL0     H73959   6.957  12.252   4.456 -0.4849  0.1244 -0.1526
  548MOL0     H73960   5.937  12.462   4.774 -1.2554  1.3454 -2.3523
  548MOL0     H73961   5.753  12.319   4.673 -0.9882  1.5658 -3.2125
  548MOL0     H73962   5.572  11.988   4.546  1.5890  0.2283 -0.6954
  548MOL0     H73963   5.347  11.919   4.509  1.6812  0.0442  1.1914
  548MOL0     H73964   4.698  10.456   4.846 -1.9959  2.3636 -0.4932
  548MOL0     H73965   4.576  10.278   4.976 -0.3872  1.1075 -1.7558
  548MOL0     H73966   4.464  10.217   5.418 -1.7129 -0.0353  0.6234
  548MOL0     H73967   4.343  10.127   5.588  0.3886  0.9096 -2.3507
  548MOL0     H73968   4.369   9.752   5.826  1.4632 -1.4713 -0.0674
  548MOL0     H73969   4.412   9.744   5.653 -0.3024  0.5863 -1.3420
  548MOL0     H73970   4.163   9.737   5.666  0.7452  0.1719 -0.9465
  548MOL0     H73971   4.214   9.889   5.601 -0.8029 -2.0552 -0.5750
  548MOL0     H73972   4.159   9.992   5.838 -2.9870 -0.2038  0.5895
  548MOL0     H73973   4.159   9.828   5.903  4.1268  1.8720  0.9423
  548MOL0     H73974   3.949   9.787   5.760 -0.4342 -0.2250  1.6032
  548MOL0     H73975   3.958   9.894   5.901 -0.7946  0.7121 -0.1972
  548MOL0     H73976   3.797  10.164   5.637 -0.4991 -0.1794  0.6257
  548MOL0     H73977   4.646   9.835   5.667 -0.2000 -0.6274 -1.0048
  548MOL0     H73978   4.878   9.970   5.557  0.7461 -0.1036  0.1047
  548MOL0     H73979   4.824   9.818   5.497  1.8882  0.3097  0.8116
  548MOL0     H73980   4.860   9.944   5.381 -0.2813 -1.8779 -1.0672
  549MOL0     O73981   6.642   3.661  11.258  0.8463 -0.5317  0.2242
  549MOL0     C73982   6.536   3.721  11.285  0.2923  0.1682  0.5030
  549MOL0     O73983   6.527   3.853  11.324  0.0836 -0.1556  0.4074
  549MOL0     C73984   6.637   3.923  11.361  0.1434  0.1943 -0.4382
  549MOL0     C73985   6.725   3.877  11.467  0.9207  0.1623  0.3363
  549MOL0     C73986   6.841   3.954  11.490  0.2522 -0.0176 -0.0501
  549MOL0     C73987   6.864   4.077  11.435 -0.0384  0.6247  0.3298
  549MOL0     O73988   6.964   4.152  11.490 -0.2846  0.6418 -0.4299
  549MOL0     C73989   7.046   4.230  11.402 -0.3744  0.2653 -0.4948
  549MOL0     C73990   7.168   4.157  11.350 -0.4548 -0.6592 -0.0435
  549MOL0     C73991   7.270   4.256  11.288 -0.6031  0.4571 -0.3575
  549MOL0     C73992   7.408   4.202  11.277 -0.3842  0.3862 -0.0055
  549MOL0     C73993   7.506   4.323  11.285 -0.0718  0.7966  0.6157
  549MOL0     C73994   7.655   4.281  11.285 -0.6040  0.3735  0.0560
  549MOL0     C73995   7.754   4.399  11.269 -0.4348 -0.4228 -0.3874
  549MOL0     C73996   7.897   4.334  11.270 -0.4399 -0.2504  0.2542
  549MOL0     N73997   8.009   4.434  11.243  0.3398 -0.3502 -0.4202
  549MOL0     C73998   8.045   4.529  11.329 -0.7596 -0.4894 -0.2282
  549MOL0     C73999   8.177   4.568  11.290 -0.0877 -0.4031 -1.0654
  549MOL0     C74000   8.278   4.657  11.352 -0.1428  0.5966  0.0847
  549MOL0     C74001   8.236   4.807  11.324 -0.6873 -0.0259  0.2709
  549MOL0     C74002   8.335   4.923  11.383 -0.1139  0.2619 -0.4794
  549MOL0     C74003   8.373   4.896  11.532 -0.0190  0.5286  0.7379
  549MOL0     O74004   8.438   4.769  11.552 -0.3206 -0.0490 -0.7010
  549MOL0     C74005   8.572   4.782  11.576  0.5841  0.2347 -0.1448
  549MOL0     C74006   8.642   4.690  11.664 -0.6061  0.0265  0.6116
  549MOL0     C74007   8.783   4.700  11.682  0.7000  0.0561  0.3572
  549MOL0     C74008   8.856   4.806  11.639 -0.4682 -0.5120 -0.0174
  549MOL0     C74009   9.005   4.800  11.659 -0.1069 -0.1148 -0.0353
  549MOL0     O74010   9.077   4.887  11.588 -0.3456 -0.3813 -0.2873
  549MOL0     C74011   9.207   4.930  11.627  0.1634 -0.9949  0.7489
  549MOL0     C74012   9.258   4.927  11.757 -1.1912  0.9032  0.2243
  549MOL0     C74013   9.394   4.969  11.781 -0.4899  0.6908 -0.9849
  549MOL0     C74014   9.471   5.026  11.681  0.4453  0.5787 -0.4135
  549MOL0     O74015   9.595   5.078  11.713  0.2477 -0.1891  1.0201
  549MOL0     C74016   9.703   5.081  11.615 -0.0575  0.3647 -0.2933
  549MOL0     C74017   9.833   5.071  11.698 -0.0745  0.3330 -0.1438
  549MOL0     C74018   9.961   5.059  11.608  0.5358  0.0923  0.4750
  549MOL0     C74019  10.088   5.087  11.691 -0.7939 -0.8932 -0.2272
  549MOL0     C74020  10.228   5.085  11.619  0.0174  0.5373  0.3672
  549MOL0     C74021  10.338   5.129  11.716  0.3224  0.4999  0.2237
  549MOL0     C74022  10.348   5.055  11.851 -0.1178 -1.4682  1.3008
  549MOL0     C74023  10.439   5.134  11.950 -0.0076  0.0880 -0.0393
  549MOL0    Cl74024  10.603   5.156  11.883  0.0143  0.0767  0.3136
  549MOL0     C74025   9.419   5.025  11.548  0.0251 -0.4734  0.0400
  549MOL0     C74026   9.290   4.978  11.523 -0.2325 -0.6853  0.5967
  549MOL0     O74027   9.053   4.720  11.733 -0.0044  1.0391 -0.9097
  549MOL0     C74028   8.787   4.901  11.560  0.3925  0.1124 -0.1524
  549MOL0     C74029   8.648   4.887  11.525  0.4697 -1.1224  0.3156
  549MOL0     N74030   8.206   4.511  11.176  0.4562  0.4929  0.0275
  549MOL0     N74031   8.111   4.427  11.153 -1.0701 -0.6201 -0.4024
  549MOL0     C74032   6.765   4.128  11.346 -0.1611  0.4966  0.0991
  549MOL0     C74033   6.661   4.051  11.306  0.6040 -0.9566 -0.3831
  549MOL0     C74034   6.409   3.641  11.283  0.7273  0.5424 -0.6627
  549MOL0     C74035   6.292   3.723  11.280  0.2828 -0.2755 -0.6098
  549MOL0     C74036   6.166   3.673  11.276  0.1295 -0.1234 -0.3835
  549MOL0     C74037   6.153   3.527  11.277 -0.1113  0.6958 -0.1544
  549MOL0     O74038   6.030   3.463  11.287  0.3749 -0.0372  0.0710
  549MOL0     C74039   5.919   3.503  11.207  0.4873  0.4208 -0.7867
  549MOL0     C74040   5.787   3.437  11.253 -0.0319  0.9906  0.0733
  549MOL0     C74041   5.663   3.513  11.224 -0.5777  0.5533 -0.4321
  549MOL0     C74042   5.636   3.564  11.085  0.7325  0.8418  0.2937
  549MOL0     C74043   5.645   3.449  10.995  1.1132 -0.3732 -0.4582
  549MOL0     C74044   5.654   3.332  10.954  0.3914  0.3424 -0.3521
  549MOL0     C74045   6.259   3.447  11.272  0.7583 -0.8349  1.0900
  549MOL0     C74046   6.389   3.498  11.287  0.1355 -0.3516 -0.0610
  549MOL0     C74047   6.488   3.395  11.318 -0.2771 -1.0104 -0.8834
  549MOL0     H74048   6.707   3.781  11.512 -0.8564 -0.3956 -1.4167
  549MOL0     H74049   6.915   3.916  11.560  3.5219 -0.3084 -3.3425
  549MOL0     H74050   6.982   4.256  11.316  0.1901 -3.5695 -2.3258
  549MOL0     H74051   7.080   4.317  11.459 -0.6611  0.2416 -0.2862
  549MOL0     H74052   7.133   4.088  11.273  0.0907 -0.9653 -0.0256
  549MOL0     H74053   7.225   4.098  11.422 -0.7012  0.5996  1.2313
  549MOL0     H74054   7.282   4.345  11.350  2.7977  0.2685 -0.5751
  549MOL0     H74055   7.240   4.290  11.189  1.2022  1.3393 -0.6352
  549MOL0     H74056   7.412   4.120  11.349 -4.1197 -0.4284 -0.5278
  549MOL0     H74057   7.432   4.158  11.180 -0.9251 -0.3280  0.1779
  549MOL0     H74058   7.487   4.377  11.191  0.1193  2.3072  1.4082
  549MOL0     H74059   7.478   4.388  11.368 -2.5570  3.0276 -1.7478
  549MOL0     H74060   7.677   4.242  11.385 -0.1697 -2.0529 -0.9222
  549MOL0     H74061   7.678   4.209  11.206  0.8017 -1.4735  2.0206
  549MOL0     H74062   7.747   4.469  11.353  0.6353 -1.6365  0.7555
  549MOL0     H74063   7.734   4.453  11.177 -1.7756  2.4744  1.4747
  549MOL0     H74064   7.921   4.275  11.359  0.5390 -1.0372 -0.5001
  549MOL0     H74065   7.895   4.262  11.187  0.1307  1.2942 -1.1346
  549MOL0     H74066   7.982   4.561  11.411 -1.9295 -1.1958 -0.8231
  549MOL0     H74067   8.270   4.634  11.459  0.4436  4.1198  1.0173
  549MOL0     H74068   8.375   4.622  11.315  0.7505  2.0220  0.9613
  549MOL0     H74069   8.238   4.823  11.216 -0.2988  1.8194  0.5178
  549MOL0     H74070   8.133   4.813  11.360 -0.5805 -0.2551  0.6244
  549MOL0     H74071   8.289   5.021  11.372 -2.5971 -0.7595  0.0600
  549MOL0     H74072   8.428   4.933  11.327  0.8807 -0.1514  1.0235
  549MOL0     H74073   8.285   4.892  11.597  0.4633  1.4847  1.4817
  549MOL0     H74074   8.428   4.985  11.566  0.5902  0.2612  0.4807
  549MOL0     H74075   8.601   4.605  11.718 -0.3644 -0.5622 -0.1198
  549MOL0     H74076   8.831   4.622  11.740 -0.7920  0.0723  1.6913
  549MOL0     H74077   9.193   4.891  11.835  0.4787 -3.0114  0.0461
  549MOL0     H74078   9.434   4.987  11.880 -2.2940 -0.9934  0.1330
  549MOL0     H74079   9.702   4.998  11.543 -0.2728 -1.3853  1.6251
  549MOL0     H74080   9.709   5.175  11.559  2.3640  0.7319  0.4624
  549MOL0     H74081   9.830   5.160  11.762 -1.3283 -0.2972  0.7042
  549MOL0     H74082   9.834   4.978  11.755  4.5917 -1.7648 -2.9774
  549MOL0     H74083   9.956   4.961  11.558 -1.7881 -0.1501  1.0405
  549MOL0     H74084   9.962   5.133  11.528 -2.8303 -0.4209 -0.2197
  549MOL0     H74085  10.082   5.020  11.778 -0.1482  1.9948  2.2376
  549MOL0     H74086  10.079   5.182  11.745  2.1387 -1.0585  0.7200
  549MOL0     H74087  10.213   5.150  11.532 -2.0699  1.6025  1.4456
  549MOL0     H74088  10.241   4.989  11.568 -1.8949  1.8556 -2.9547
  549MOL0     H74089  10.437   5.118  11.670  1.0008 -3.6899  2.2063
  549MOL0     H74090  10.310   5.231  11.744  1.8142  0.2535  2.9341
  549MOL0     H74091  10.388   4.955  11.832 -2.1596 -1.9208 -1.2276
  549MOL0     H74092  10.245   5.048  11.888 -1.3958  2.9414 -0.7044
  549MOL0     H74093  10.391   5.230  11.973 -1.3402 -0.0928 -1.8273
  549MOL0     H74094  10.443   5.081  12.046  1.6626 -1.9783 -1.1609
  549MOL0     H74095   9.485   5.043  11.464 -2.4368 -2.5685 -2.5802
  549MOL0     H74096   9.244   4.990  11.425 -2.5567 -0.9399  1.5908
  549MOL0     H74097   8.836   4.995  11.537  0.0413 -0.3150 -2.9664
  549MOL0     H74098   8.604   4.962  11.460 -0.8774  1.9637  4.3817
  549MOL0     H74099   6.765   4.230  11.309 -0.4393 -0.1856 -1.8699
  549MOL0     H74100   6.595   4.080  11.225 -1.7083 -1.5877  1.1865
  549MOL0     H74101   6.289   3.830  11.264  0.4742 -0.1834 -0.0563
  549MOL0     H74102   6.085   3.745  11.284 -0.2933 -0.8062  2.5815
  549MOL0     H74103   5.938   3.494  11.099 -0.9578  0.4372 -1.0607
  549MOL0     H74104   5.920   3.608  11.235  0.2918  0.7020 -1.7799
  549MOL0     H74105   5.780   3.421  11.361 -0.2255  2.5283  0.3033
  549MOL0     H74106   5.784   3.336  11.209 -3.5057  0.3753  1.4037
  549MOL0     H74107   5.664   3.604  11.284 -0.0203  0.5680 -0.4572
  549MOL0     H74108   5.579   3.448  11.251 -0.9847  1.3219  0.1808
  549MOL0     H74109   5.537   3.611  11.083  0.6779  0.7357  0.6079
  549MOL0     H74110   5.698   3.651  11.061 -1.7166  2.3091 -1.2968
  549MOL0     H74111   5.674   3.230  10.927  0.2903 -0.0062  0.8386
  549MOL0     H74112   6.227   3.344  11.281 -2.1252 -0.0099  1.6692
  549MOL0     H74113   6.447   3.295  11.339  0.3471 -0.4928  3.8920
  549MOL0     H74114   6.550   3.387  11.228  1.2209 -2.1962  0.2075
  549MOL0     H74115   6.548   3.423  11.405 -1.8140  1.5636 -0.5480
  550MOL0     O74116   2.986   1.183   0.500 -0.1249  0.4630 -0.6262
  550MOL0     C74117   2.960   1.239   0.607 -0.4694 -0.9943 -0.0031
  550MOL0     O74118   3.008   1.367   0.653  0.0553  0.1499  0.4683
  550MOL0     C74119   3.082   1.440   0.569  0.6143  0.6734  1.1683
  550MOL0     C74120   3.188   1.504   0.632 -0.2269 -0.0847 -0.6768
  550MOL0     C74121   3.279   1.582   0.573  0.5213  0.5845 -0.0878
  550MOL0     C74122   3.282   1.598   0.431  0.1337  0.3834 -0.6226
  550MOL0     O74123   3.378   1.659   0.356 -0.0680 -0.2091 -0.1869
  550MOL0     C74124   3.449   1.764   0.423 -0.9514  0.0892  0.1296
  550MOL0     C74125   3.534   1.832   0.312 -0.6319 -0.8029  0.2566
  550MOL0     C74126   3.614   1.946   0.376  0.6774 -0.4302  0.2270
  550MOL0     C74127   3.679   2.031   0.270 -0.5052 -0.8113  0.1490
  550MOL0     C74128   3.743   2.172   0.320  0.3136 -0.2259  0.8830
  550MOL0     C74129   3.759   2.277   0.206  0.5564 -0.3357 -0.7914
  550MOL0     C74130   3.827   2.194   0.079  0.4592  0.0431 -0.5427
  550MOL0     C74131   3.907   2.294  -0.001  0.5030  0.8158  0.1697
  550MOL0     N74132   3.823   2.380  -0.083 -0.2215  0.5286  0.0060
  550MOL0     C74133   3.882   2.470  -0.172  0.1376  0.7100  0.0351
  550MOL0     C74134   3.787   2.496  -0.260 -1.3435 -0.3757  0.3173
  550MOL0     C74135   3.812   2.569  -0.389 -0.1607 -0.7082  0.7326
  550MOL0     C74136   3.796   2.490  -0.516  0.7039  0.3715  0.4608
  550MOL0     C74137   3.809   2.580  -0.636  1.1154 -0.2663 -0.2424
  550MOL0     C74138   3.940   2.562  -0.711  0.1909  0.2802  0.4195
  550MOL0     O74139   4.057   2.570  -0.636 -0.2610 -0.2154  0.3559
  550MOL0     C74140   4.172   2.513  -0.704 -0.0828  0.3121 -0.6871
  550MOL0     C74141   4.181   2.482  -0.840  0.2715  0.0533  0.2046
  550MOL0     C74142   4.295   2.424  -0.892  0.5032 -0.4416  0.4791
  550MOL0     C74143   4.402   2.392  -0.819  0.5748  0.1653 -0.7188
  550MOL0     C74144   4.529   2.349  -0.869  0.3702  0.2437 -0.2721
  550MOL0     O74145   4.633   2.309  -0.787 -0.3098  0.6419 -0.9479
  550MOL0     C74146   4.752   2.279  -0.842  0.3758 -0.3953  0.1615
  550MOL0     C74147   4.781   2.141  -0.873  0.4529 -0.5972 -0.4159
  550MOL0     C74148   4.907   2.107  -0.917 -0.5608 -0.8408  0.7319
  550MOL0     C74149   4.999   2.203  -0.954 -0.2774 -0.4986  0.2450
  550MOL0     O74150   5.137   2.179  -0.997 -0.4183 -0.8454 -0.0244
  550MOL0     C74151   5.160   2.070  -1.082  0.1379 -0.0007  1.2549
  550MOL0     C74152   5.221   2.131  -1.217 -0.4804  0.7062  0.0564
  550MOL0     C74153   5.235   2.012  -1.318 -0.3640 -1.1811 -0.1609
  550MOL0     C74154   5.365   2.020  -1.394 -1.1076  0.5071  1.2643
  550MOL0     C74155   5.430   1.887  -1.449 -0.0839 -0.3673  1.0045
  550MOL0     C74156   5.498   1.914  -1.583 -0.6391  0.1508  0.5207
  550MOL0     C74157   5.604   2.033  -1.589  0.4573  0.1875  0.1994
  550MOL0     C74158   5.696   2.048  -1.474 -0.4607  0.5773  0.9899
  550MOL0    Cl74159   5.759   1.879  -1.414 -0.0269  0.6722  0.4408
  550MOL0     C74160   4.959   2.335  -0.956 -1.4049 -0.1453  0.7180
  550MOL0     C74161   4.840   2.377  -0.894  0.0507 -0.2441 -0.0388
  550MOL0     O74162   4.539   2.364  -0.988  0.2469 -0.0427  0.2616
  550MOL0     C74163   4.396   2.417  -0.682  0.5029  0.5776 -0.4720
  550MOL0     C74164   4.279   2.476  -0.621  0.0289 -0.1991  0.5569
  550MOL0     N74165   3.676   2.422  -0.222  0.1015 -0.0099  0.3074
  550MOL0     N74166   3.695   2.354  -0.111  0.0655 -0.8733 -0.7336
  550MOL0     C74167   3.180   1.528   0.364 -0.0428  0.3246  0.1948
  550MOL0     C74168   3.073   1.456   0.431 -0.7623 -0.2487  0.4062
  550MOL0     C74169   2.909   1.148   0.716  0.2277 -0.1780 -0.1118
  550MOL0     C74170   2.990   1.136   0.834  0.3121  0.5089  0.2486
  550MOL0     C74171   2.950   1.036   0.930 -0.4988  0.1358  0.4442
  550MOL0     C74172   2.849   0.945   0.905  0.9275  0.3164  0.1699
  550MOL0     O74173   2.833   0.850   1.008 -0.0458 -0.3198 -0.1348
  550MOL0     C74174   2.762   0.733   0.989 -0.1802  0.5432 -0.0410
  550MOL0     C74175   2.815   0.614   1.062 -0.5240  0.0456 -0.3133
  550MOL0     C74176   2.948   0.575   0.997  0.3152  0.6301 -0.1881
  550MOL0     C74177   2.998   0.430   1.030 -0.0612 -0.2537  0.1770
  550MOL0     C74178   3.032   0.413   1.175 -0.1099 -0.2866 -0.4228
  550MOL0     C74179   3.068   0.392   1.288  0.1059  0.2733 -0.5998
  550MOL0     C74180   2.777   0.960   0.789  0.3909 -0.3670  0.5679
  550MOL0     C74181   2.795   1.067   0.692  0.5606 -0.3474 -0.5213
  550MOL0     C74182   2.691   1.074   0.583 -0.1576 -0.5182 -0.1313
  550MOL0     H74183   3.189   1.497   0.741 -0.9360 -0.5248 -0.6958
  550MOL0     H74184   3.368   1.611   0.628  1.2080 -2.4419  0.5843
  550MOL0     H74185   3.385   1.843   0.463 -1.9449 -1.4605  1.8332
  550MOL0     H74186   3.513   1.717   0.499 -3.4470 -1.6556  1.3344
  550MOL0     H74187   3.464   1.869   0.236 -0.2969  2.3275  1.3564
  550MOL0     H74188   3.610   1.764   0.272  0.6489  0.8437 -0.1916
  550MOL0     H74189   3.690   1.910   0.446  1.6832 -0.2110 -0.7327
  550MOL0     H74190   3.540   2.009   0.427  0.1625 -1.7981  1.2592
  550MOL0     H74191   3.757   1.979   0.213 -0.0250  0.3245 -0.2559
  550MOL0     H74192   3.608   2.069   0.197 -0.1381  1.1871  0.7531
  550MOL0     H74193   3.690   2.214   0.405  0.1863 -3.5929  2.5990
  550MOL0     H74194   3.841   2.144   0.360  0.0601 -1.8636  0.4381
  550MOL0     H74195   3.665   2.327   0.183 -0.4907 -1.4265  0.9473
  550MOL0     H74196   3.826   2.358   0.238 -1.8803  1.6716 -0.5178
  550MOL0     H74197   3.746   2.139   0.031 -0.5772  1.2692 -0.2593
  550MOL0     H74198   3.894   2.115   0.114 -0.7127 -0.3654  0.8753
  550MOL0     H74199   3.969   2.345   0.073  1.3623  1.4426 -0.9407
  550MOL0     H74200   3.976   2.246  -0.072 -0.0898 -1.3957  1.0219
  550MOL0     H74201   3.987   2.494  -0.179  0.9703 -2.6403 -0.8052
  550MOL0     H74202   3.750   2.658  -0.392  1.0269  0.1834  1.5885
  550MOL0     H74203   3.913   2.612  -0.390  0.2374 -1.5656  1.8451
  550MOL0     H74204   3.863   2.404  -0.521 -0.4855 -0.6392  1.3429
  550MOL0     H74205   3.689   2.464  -0.516  0.3485  1.5479 -1.7293
  550MOL0     H74206   3.809   2.679  -0.589  0.3210 -0.2498 -0.2576
  550MOL0     H74207   3.722   2.570  -0.701 -0.3369  0.5335  1.4989
  550MOL0     H74208   3.944   2.651  -0.775  0.2270  0.0447  0.0953
  550MOL0     H74209   3.940   2.474  -0.776 -2.5788  0.5015  0.0216
  550MOL0     H74210   4.117   2.513  -0.922  1.1876 -1.8336 -1.3123
  550MOL0     H74211   4.295   2.424  -1.000  0.9577  0.2716  0.4789
  550MOL0     H74212   4.714   2.057  -0.857  1.2921 -1.6783 -2.2165
  550MOL0     H74213   4.933   2.002  -0.927 -1.0830 -0.8632 -0.7320
  550MOL0     H74214   5.235   2.011  -1.029  1.6820 -0.7348 -1.5071
  550MOL0     H74215   5.071   2.011  -1.104  0.8583 -0.7679  0.2667
  550MOL0     H74216   5.137   2.195  -1.247 -1.7263  0.2855  2.3757
  550MOL0     H74217   5.316   2.179  -1.190  0.1366 -0.5052  0.0938
  550MOL0     H74218   5.226   1.913  -1.272  0.5962 -1.8965 -1.4638
  550MOL0     H74219   5.153   2.028  -1.388  0.1389 -3.4288 -1.3330
  550MOL0     H74220   5.438   2.068  -1.327 -0.1213  3.0303 -1.3815
  550MOL0     H74221   5.343   2.099  -1.466 -2.5365 -0.6315  0.4129
  550MOL0     H74222   5.343   1.824  -1.470 -1.0290  0.6493  1.7726
  550MOL0     H74223   5.495   1.838  -1.376  0.0731 -0.5134  0.7692
  550MOL0     H74224   5.549   1.820  -1.606 -1.0016  0.2826 -0.8690
  550MOL0     H74225   5.427   1.933  -1.663 -0.4598  1.3999  0.6370
  550MOL0     H74226   5.549   2.128  -1.596 -1.9256 -1.0670  0.6825
  550MOL0     H74227   5.666   2.023  -1.679  2.5156 -0.1364  1.6013
  550MOL0     H74228   5.780   2.111  -1.506 -0.4230  0.0733  0.0671
  550MOL0     H74229   5.648   2.108  -1.397  0.8292  3.2579 -0.1864
  550MOL0     H74230   5.031   2.409  -0.991 -1.1661 -0.9215 -0.4886
  550MOL0     H74231   4.823   2.481  -0.871  0.0697 -0.0463 -0.9040
  550MOL0     H74232   4.485   2.413  -0.620 -0.4096 -0.5896  0.8290
  550MOL0     H74233   4.274   2.495  -0.515 -1.1578 -1.7032  0.8038
  550MOL0     H74234   3.194   1.514   0.257  2.4313  1.5989  0.2815
  550MOL0     H74235   2.999   1.398   0.376 -0.4039 -1.2331  0.9457
  550MOL0     H74236   3.082   1.187   0.859  0.8888 -0.6395  0.4832
  550MOL0     H74237   3.010   1.023   1.020  2.1697 -0.7176 -1.3533
  550MOL0     H74238   2.750   0.704   0.884  0.3556 -1.1827  0.3413
  550MOL0     H74239   2.658   0.757   1.014 -1.3878 -0.5048 -3.5648
  550MOL0     H74240   2.731   0.544   1.062 -3.8583  3.5860  3.0239
  550MOL0     H74241   2.835   0.636   1.167  0.0087 -3.4724  0.4384
  550MOL0     H74242   3.026   0.641   1.034 -1.8087  2.3685  1.4289
  550MOL0     H74243   2.942   0.588   0.888  0.6295 -2.6472 -0.7022
  550MOL0     H74244   2.923   0.355   1.005  0.2915 -0.7135  0.4901
  550MOL0     H74245   3.089   0.409   0.975 -0.7053  2.1434 -2.0255
  550MOL0     H74246   3.109   0.359   1.381  1.1585  0.1131 -1.0986
  550MOL0     H74247   2.691   0.896   0.773 -0.8856  0.7303  2.5563
  550MOL0     H74248   2.680   0.974   0.540 -2.1634 -0.0234 -0.8825
  550MOL0     H74249   2.596   1.103   0.628 -0.0092 -0.7196  0.3160
  550MOL0     H74250   2.725   1.144   0.506  4.2496 -3.1967 -0.9975
  551MOL0     O74251   8.054   0.894   5.654 -0.5468 -0.9418  0.4034
  551MOL0     C74252   8.073   0.794   5.726  0.2863 -0.4567 -0.1080
  551MOL0     O74253   8.195   0.747   5.764 -0.0666 -1.0253 -0.1710
  551MOL0     C74254   8.275   0.839   5.824  0.0361 -0.0957  0.1331
  551MOL0     C74255   8.228   0.958   5.880 -0.0579 -0.1654  1.0634
  551MOL0     C74256   8.317   1.054   5.925 -0.7202 -0.6658  0.5615
  551MOL0     C74257   8.452   1.032   5.942  0.2948 -0.1445  0.8778
  551MOL0     O74258   8.542   1.116   5.996 -0.4689  0.3965  0.5483
  551MOL0     C74259   8.505   1.241   6.048  0.2849 -0.2461 -0.3675
  551MOL0     C74260   8.639   1.294   6.112 -0.0265 -0.0105  0.1461
  551MOL0     C74261   8.623   1.432   6.172  0.0355 -0.4531  0.4052
  551MOL0     C74262   8.521   1.428   6.294 -0.9607 -0.5627  0.2977
  551MOL0     C74263   8.505   1.560   6.373 -0.3365 -0.6994  0.5457
  551MOL0     C74264   8.357   1.572   6.396  0.3187 -0.0513 -0.5050
  551MOL0     C74265   8.305   1.706   6.441  0.4212  0.2892  0.0524
  551MOL0     C74266   8.356   1.744   6.577  0.2584  0.4349  0.4316
  551MOL0     N74267   8.285   1.672   6.682 -1.2128  0.1693 -0.8224
  551MOL0     C74268   8.352   1.652   6.800 -0.5048  0.1342  0.4782
  551MOL0     C74269   8.255   1.620   6.890 -0.4169 -0.8644  0.2541
  551MOL0     C74270   8.267   1.552   7.029  0.3944 -0.8819  0.2468
  551MOL0     C74271   8.328   1.638   7.139  0.0553 -0.6299 -0.2191
  551MOL0     C74272   8.231   1.750   7.176 -0.7095  0.4303 -0.0112
  551MOL0     C74273   8.287   1.858   7.273  0.3206  0.1477  0.1186
  551MOL0     O74274   8.391   1.928   7.203  0.6823  0.2948  0.0079
  551MOL0     C74275   8.489   1.979   7.277  0.0632  0.5425  0.2253
  551MOL0     C74276   8.621   1.943   7.281  0.5003  0.3452  0.1342
  551MOL0     C74277   8.719   2.006   7.370  0.2232  0.5205 -0.3607
  551MOL0     C74278   8.675   2.107   7.457 -0.1020  0.5952 -0.4746
  551MOL0     C74279   8.764   2.184   7.547 -0.3013  1.1559 -0.5384
  551MOL0     O74280   8.722   2.287   7.629  0.3453  0.4824 -0.1389
  551MOL0     C74281   8.818   2.353   7.705 -0.4591  0.0315  0.3956
  551MOL0     C74282   8.788   2.390   7.837  0.3807  0.0028  0.7885
  551MOL0     C74283   8.880   2.449   7.922  0.0250  0.0712 -0.4357
  551MOL0     C74284   9.003   2.484   7.875 -0.2895  0.6096 -0.1367
  551MOL0     O74285   9.077   2.553   7.962 -0.9671  0.3601 -0.7912
  551MOL0     C74286   9.219   2.540   7.963 -0.0516  0.3871 -0.4709
  551MOL0     C74287   9.283   2.624   8.075 -0.3783  0.2916 -0.9599
  551MOL0     C74288   9.434   2.648   8.034  0.4312 -0.3109 -0.6877
  551MOL0     C74289   9.524   2.675   8.154  0.1411 -0.2830  0.6144
  551MOL0     C74290   9.667   2.717   8.103  0.8966 -0.2690 -0.3950
  551MOL0     C74291   9.760   2.751   8.216  0.4412  0.5322 -0.0875
  551MOL0     C74292   9.739   2.890   8.274  0.5697 -0.5109 -0.3941
  551MOL0     C74293   9.795   2.906   8.412 -0.8107  0.4103  0.8692
  551MOL0    Cl74294   9.975   2.917   8.422 -0.1954  0.2567  0.6981
  551MOL0     C74295   9.041   2.457   7.748 -0.1861 -0.2087 -0.0655
  551MOL0     C74296   8.954   2.381   7.667  0.4074 -0.4299  0.7162
  551MOL0     O74297   8.876   2.142   7.550 -0.3016  0.3342 -0.3429
  551MOL0     C74298   8.538   2.150   7.446 -0.1117  0.3928  0.2026
  551MOL0     C74299   8.450   2.086   7.360 -0.3081 -0.3337 -0.5671
  551MOL0     N74300   8.128   1.635   6.823  1.1032 -0.4131 -0.0222
  551MOL0     N74301   8.154   1.665   6.696  0.5338 -0.2928 -0.0949
  551MOL0     C74302   8.491   0.900   5.912  0.5128  0.1854 -0.0535
  551MOL0     C74303   8.408   0.809   5.849 -0.4343 -0.0308  0.0967
  551MOL0     C74304   7.963   0.712   5.775  0.4577 -0.4213 -0.0046
  551MOL0     C74305   7.828   0.731   5.720 -0.6488  0.7281 -0.7444
  551MOL0     C74306   7.727   0.649   5.758  0.2648 -0.1950 -0.3285
  551MOL0     C74307   7.745   0.571   5.872 -0.0695  0.0271  0.2936
  551MOL0     O74308   7.653   0.477   5.911  0.0998  0.1662  0.0968
  551MOL0     C74309   7.514   0.480   5.866  0.6743 -0.5132  0.1688
  551MOL0     C74310   7.416   0.401   5.941 -0.1287 -0.0889  0.5732
  551MOL0     C74311   7.473   0.255   5.945 -0.0135 -0.3271 -0.3624
  551MOL0     C74312   7.377   0.153   5.999  0.2724 -0.4473  0.4939
  551MOL0     C74313   7.411   0.024   5.946  0.0188  0.4157 -0.2337
  551MOL0     C74314   7.448  -0.097   5.905 -0.7439  0.0261  0.1523
  551MOL0     C74315   7.874   0.555   5.920  0.8571 -0.4466  0.1309
  551MOL0     C74316   7.982   0.618   5.882 -1.4768  0.9922  0.0759
  551MOL0     C74317   8.109   0.573   5.947 -0.0487  0.1200 -0.4997
  551MOL0     H74318   8.124   0.988   5.870 -0.0380 -0.2595  0.5289
  551MOL0     H74319   8.290   1.156   5.949  1.0538 -0.0343  0.0280
  551MOL0     H74320   8.466   1.314   5.976 -0.9038  0.9784  1.4194
  551MOL0     H74321   8.436   1.226   6.132  2.2270 -0.7464  1.2278
  551MOL0     H74322   8.717   1.302   6.035  1.4513 -1.0880  1.4548
  551MOL0     H74323   8.683   1.223   6.183  0.4053 -1.8693 -1.8661
  551MOL0     H74324   8.586   1.503   6.097  0.6330 -1.3594 -0.7669
  551MOL0     H74325   8.715   1.463   6.221 -0.7732  0.1629  1.5809
  551MOL0     H74326   8.429   1.393   6.246 -0.9787  0.9415 -0.8112
  551MOL0     H74327   8.542   1.342   6.359 -0.0822 -0.3362  0.3155
  551MOL0     H74328   8.564   1.565   6.465 -0.1584  0.6514  0.3776
  551MOL0     H74329   8.543   1.634   6.301  0.7103 -1.9926 -0.2755
  551MOL0     H74330   8.299   1.551   6.306  0.3708  0.0509 -0.5626
  551MOL0     H74331   8.322   1.500   6.471  2.4983 -2.6224 -1.7457
  551MOL0     H74332   8.196   1.699   6.443  0.3245  1.2816 -0.9218
  551MOL0     H74333   8.326   1.782   6.365  0.2509 -1.9649 -2.3722
  551MOL0     H74334   8.462   1.719   6.580  0.8006  2.3946 -0.4309
  551MOL0     H74335   8.333   1.850   6.590  2.0170  0.7415  1.1816
  551MOL0     H74336   8.460   1.655   6.813 -0.1998 -0.4747 -1.5961
  551MOL0     H74337   8.168   1.523   7.065  0.4236  0.7206  1.7856
  551MOL0     H74338   8.336   1.469   7.012 -0.9924 -1.4811 -3.2564
  551MOL0     H74339   8.338   1.564   7.219  0.6809  0.0092  0.3017
  551MOL0     H74340   8.427   1.664   7.102  0.5541 -1.2871  0.6271
  551MOL0     H74341   8.149   1.701   7.228  0.1249 -0.5138  0.4539
  551MOL0     H74342   8.186   1.805   7.093  1.3356  2.0455 -0.1307
  551MOL0     H74343   8.320   1.817   7.369 -1.3457  3.0559  2.0998
  551MOL0     H74344   8.211   1.936   7.288  1.8727  1.5726  0.8955
  551MOL0     H74345   8.655   1.866   7.213 -0.3130 -1.2815  1.4843
  551MOL0     H74346   8.822   1.973   7.376 -0.8539 -2.9109  2.0416
  551MOL0     H74347   8.686   2.381   7.873 -1.1679  4.5247 -1.6792
  551MOL0     H74348   8.862   2.477   8.026  0.1162  0.8593 -0.6222
  551MOL0     H74349   9.238   2.435   7.987  1.4401  0.8823  0.5908
  551MOL0     H74350   9.270   2.560   7.869  4.1358 -2.2576  0.9733
  551MOL0     H74351   9.233   2.721   8.083 -1.4200  0.0268 -3.4171
  551MOL0     H74352   9.271   2.570   8.170 -2.9635 -0.5060 -1.6500
  551MOL0     H74353   9.475   2.556   7.991  1.1894  0.2525 -1.1876
  551MOL0     H74354   9.429   2.733   7.966  1.4811 -1.3290 -2.1044
  551MOL0     H74355   9.553   2.583   8.206  0.6643  0.2691  1.3268
  551MOL0     H74356   9.492   2.755   8.221  0.0280 -0.7949  1.1815
  551MOL0     H74357   9.661   2.806   8.038 -0.5134  0.9869  1.3566
  551MOL0     H74358   9.714   2.636   8.048 -0.8643 -0.9385 -0.9860
  551MOL0     H74359   9.769   2.671   8.291  1.9425  0.6567 -0.1104
  551MOL0     H74360   9.861   2.753   8.174  0.2744 -1.0876 -0.6531
  551MOL0     H74361   9.632   2.910   8.292  1.3062  2.0339  1.7652
  551MOL0     H74362   9.783   2.969   8.212  1.1660  1.0722  1.8947
  551MOL0     H74363   9.760   2.997   8.461  1.1538  0.4595  2.2681
  551MOL0     H74364   9.762   2.818   8.468 -2.2769 -0.3573 -1.0664
  551MOL0     H74365   9.140   2.482   7.710  0.1797  1.7564  1.9671
  551MOL0     H74366   8.984   2.361   7.564 -4.2008 -1.9161 -0.6087
  551MOL0     H74367   8.508   2.229   7.515  1.0259  3.2574 -2.3561
  551MOL0     H74368   8.348   2.122   7.349 -0.3196  0.4056  1.4887
  551MOL0     H74369   8.588   0.859   5.936  0.1052 -0.9496 -0.3057
  551MOL0     H74370   8.447   0.714   5.812 -0.4403  0.1990 -0.5055
  551MOL0     H74371   7.824   0.799   5.635  1.8476  2.5663  0.4715
  551MOL0     H74372   7.632   0.638   5.707 -1.0024 -0.4951  1.9467
  551MOL0     H74373   7.512   0.443   5.763 -1.4786  1.4899 -0.5823
  551MOL0     H74374   7.466   0.578   5.857  0.4468 -0.8048 -3.2219
  551MOL0     H74375   7.325   0.401   5.882 -0.1986  1.5401  0.6382
  551MOL0     H74376   7.389   0.445   6.038 -0.7349  0.9292 -0.0475
  551MOL0     H74377   7.560   0.254   6.012 -2.0294  1.5887  2.5648
  551MOL0     H74378   7.502   0.223   5.845  0.3458 -0.7076 -0.1419
  551MOL0     H74379   7.377   0.162   6.108  2.5561  1.0407  0.4344
  551MOL0     H74380   7.275   0.167   5.960  0.2530 -0.7886  0.4177
  551MOL0     H74381   7.469  -0.199   5.880 -3.0086  0.2686 -3.3869
  551MOL0     H74382   7.892   0.492   6.007  2.0225  1.2458  1.1790
  551MOL0     H74383   8.168   0.654   5.991 -0.0748  1.1031 -2.1784
  551MOL0     H74384   8.100   0.493   6.021 -2.1688  1.6726  1.0627
  551MOL0     H74385   8.175   0.533   5.869 -0.1052 -2.5970  0.7468
  552MOL0     O74386  10.216   4.576   6.398  0.7299  0.5132 -0.9674
  552MOL0     C74387  10.171   4.468   6.428 -0.5792  1.3524  0.0926
  552MOL0     O74388  10.247   4.343   6.454  0.5011 -0.7323 -0.2175
  552MOL0     C74389  10.362   4.331   6.394  0.0816 -0.2907 -0.8632
  552MOL0     C74390  10.482   4.336   6.478  0.5992 -0.2026  0.0994
  552MOL0     C74391  10.606   4.335   6.420  0.5167 -0.1151  0.2357
  552MOL0     C74392  10.619   4.341   6.272 -0.1461 -0.5610 -0.3688
  552MOL0     O74393  10.740   4.358   6.202  0.7556 -0.4623  0.0132
  552MOL0     C74394  10.861   4.301   6.259 -1.0362  0.0823  0.6103
  552MOL0     C74395  10.983   4.325   6.161  0.3682  0.7479  0.3972
  552MOL0     C74396  11.007   4.480   6.156  0.6097 -0.2751  0.5021
  552MOL0     C74397  11.141   4.509   6.094 -0.1397 -1.2768 -0.8524
  552MOL0     C74398  11.158   4.458   5.950  0.0781 -0.8923  0.2858
  552MOL0     C74399  11.268   4.513   5.861 -0.6555  0.5697 -0.4681
  552MOL0     C74400  11.395   4.461   5.920 -0.5424 -0.4828  0.7497
  552MOL0     C74401  11.512   4.533   5.841  0.4744  0.7295 -0.1625
  552MOL0     N74402  11.534   4.678   5.872  0.2315  0.0158  0.7335
  552MOL0     C74403  11.528   4.735   5.991 -0.0320 -0.3734 -0.1312
  552MOL0     C74404  11.548   4.871   5.958 -0.1714 -0.0116  0.3466
  552MOL0     C74405  11.556   4.986   6.053 -0.0838 -0.8847 -0.2553
  552MOL0     C74406  11.682   5.014   6.136  0.4198 -0.4945 -0.2302
  552MOL0     C74407  11.800   5.047   6.046 -0.9511  0.1613 -0.0990
  552MOL0     C74408  11.939   5.015   6.103  0.4265 -0.6541  0.3867
  552MOL0     O74409  11.965   5.093   6.222  0.4555  0.4382  0.3954
  552MOL0     C74410  12.090   5.115   6.252  0.5283 -0.0736 -0.9011
  552MOL0     C74411  12.147   5.243   6.236  0.7584 -0.0690 -0.1830
  552MOL0     C74412  12.277   5.275   6.263 -0.7346  0.2643  0.0761
  552MOL0     C74413  12.367   5.176   6.304 -0.5342  0.1629  1.2325
  552MOL0     C74414  12.507   5.200   6.341 -0.5364 -0.4321  1.3024
  552MOL0     O74415  12.575   5.091   6.378  0.0577 -0.1165 -0.3055
  552MOL0     C74416  12.709   5.101   6.419 -0.9096 -0.0241 -0.5791
  552MOL0     C74417  12.752   5.077   6.553  0.0548  0.0615 -0.6641
  552MOL0     C74418  12.889   5.087   6.582  1.0016 -0.2696 -0.3037
  552MOL0     C74419  12.979   5.139   6.493  0.4127 -0.0446  0.0224
  552MOL0     O74420  13.104   5.132   6.543 -0.2246 -0.5146 -0.0124
  552MOL0     C74421  13.206   5.187   6.466 -0.4607 -0.2165 -0.5123
  552MOL0     C74422  13.341   5.180   6.551 -0.4569 -0.0267  0.0148
  552MOL0     C74423  13.395   5.032   6.550  0.2652  0.0780 -0.7653
  552MOL0     C74424  13.510   5.021   6.645 -1.4042  0.1233  0.1791
  552MOL0     C74425  13.553   4.865   6.673 -0.2211  0.3243  0.4940
  552MOL0     C74426  13.432   4.788   6.740  0.3248  0.0492  0.0431
  552MOL0     C74427  13.458   4.642   6.768  0.2422  0.4651 -0.0455
  552MOL0     C74428  13.493   4.613   6.916  0.1480  0.0428  0.0191
  552MOL0    Cl74429  13.671   4.651   6.920 -0.0656 -0.1700  0.0935
  552MOL0     C74430  12.939   5.177   6.369 -0.6382  0.8365 -0.2886
  552MOL0     C74431  12.808   5.150   6.325 -0.6314 -0.1304 -0.7482
  552MOL0     O74432  12.554   5.313   6.323  0.0289 -0.2803  0.4732
  552MOL0     C74433  12.312   5.050   6.317 -0.3135  0.0609  0.1816
  552MOL0     C74434  12.178   5.011   6.303 -0.4723 -0.4266  0.2057
  552MOL0     N74435  11.573   4.889   5.820 -0.1455 -0.1927 -0.7946
  552MOL0     N74436  11.568   4.767   5.768  0.1984  0.8746 -0.1759
  552MOL0     C74437  10.504   4.325   6.199  0.5055 -0.5807 -0.1763
  552MOL0     C74438  10.372   4.323   6.255 -0.3800  0.4356 -0.1685
  552MOL0     C74439  10.029   4.455   6.429  0.0389 -0.3387  0.7084
  552MOL0     C74440   9.968   4.470   6.310  0.3936 -0.0710  0.3916
  552MOL0     C74441   9.825   4.465   6.308 -0.1256 -0.1807 -0.7087
  552MOL0     C74442   9.746   4.438   6.423  0.5446  0.2739  0.0504
  552MOL0     O74443   9.609   4.418   6.417 -1.0915  0.4439 -0.0100
  552MOL0     C74444   9.540   4.420   6.285 -0.5561  1.0843  0.1450
  552MOL0     C74445   9.392   4.395   6.294 -1.1449  0.4621  0.6264
  552MOL0     C74446   9.352   4.267   6.369  0.3494  0.1285  0.5148
  552MOL0     C74447   9.418   4.130   6.324  0.2964 -0.6809 -0.5060
  552MOL0     C74448   9.320   4.066   6.227 -0.4171 -0.1350 -0.3675
  552MOL0     C74449   9.230   4.024   6.154  0.6436  0.4490  0.5621
  552MOL0     C74450   9.806   4.423   6.550 -0.4142  0.0075 -1.1107
  552MOL0     C74451   9.955   4.424   6.550  1.4943  0.3288  0.2758
  552MOL0     C74452  10.027   4.420   6.689  0.9401 -0.2959  0.4341
  552MOL0     H74453  10.481   4.342   6.586  0.5418  1.1628  0.0485
  552MOL0     H74454  10.697   4.337   6.479  2.1207 -3.2556 -1.8400
  552MOL0     H74455  10.887   4.343   6.356 -0.7457 -1.6390  1.3217
  552MOL0     H74456  10.854   4.193   6.275 -0.7897 -0.0363 -0.0189
  552MOL0     H74457  10.949   4.297   6.061 -1.9189 -1.0298  1.5835
  552MOL0     H74458  11.065   4.274   6.213 -2.4718 -1.1402  3.3968
  552MOL0     H74459  10.990   4.529   6.253  0.2384 -2.3833  1.5522
  552MOL0     H74460  10.931   4.520   6.088  0.8624  0.4793  0.6429
  552MOL0     H74461  11.165   4.616   6.097 -2.0955 -0.7808 -1.2839
  552MOL0     H74462  11.211   4.463   6.165  0.7112  0.1098 -0.7535
  552MOL0     H74463  11.151   4.348   5.948 -0.0795 -0.8753 -0.2125
  552MOL0     H74464  11.068   4.480   5.892  0.0601  1.0655  0.9840
  552MOL0     H74465  11.239   4.480   5.761 -2.4643 -1.1104  0.5411
  552MOL0     H74466  11.256   4.621   5.868  1.1559  0.7241  4.6648
  552MOL0     H74467  11.407   4.355   5.896  0.6732 -0.1160 -0.3227
  552MOL0     H74468  11.420   4.484   6.025 -2.9721 -2.1688  1.7869
  552MOL0     H74469  11.607   4.480   5.847 -0.0158 -0.2385 -0.6442
  552MOL0     H74470  11.495   4.516   5.734  1.9777 -1.1826 -0.1591
  552MOL0     H74471  11.497   4.701   6.089 -1.6380  0.9670 -0.1318
  552MOL0     H74472  11.533   5.077   5.997 -1.9834 -1.9555 -1.3390
  552MOL0     H74473  11.472   4.974   6.122 -0.2014  1.4591  0.0846
  552MOL0     H74474  11.664   5.105   6.195 -2.0866 -0.2474 -1.2297
  552MOL0     H74475  11.691   4.935   6.210 -3.2290 -0.5537  0.3487
  552MOL0     H74476  11.793   5.151   6.015 -1.9014 -0.4063 -1.9250
  552MOL0     H74477  11.787   4.985   5.957 -1.6596 -2.8722  1.9699
  552MOL0     H74478  12.024   5.030   6.035 -0.3924  0.4954 -0.4251
  552MOL0     H74479  11.945   4.907   6.122 -1.7281 -0.2565  4.1457
  552MOL0     H74480  12.076   5.312   6.190  1.0678  0.1749 -0.2949
  552MOL0     H74481  12.310   5.374   6.233  1.7705 -1.1844 -2.3927
  552MOL0     H74482  12.684   5.058   6.636  2.5731 -2.0979  1.0415
  552MOL0     H74483  12.928   5.072   6.682 -0.4407  0.5112  0.4166
  552MOL0     H74484  13.215   5.139   6.369  1.8424 -0.1843 -0.3727
  552MOL0     H74485  13.182   5.293   6.452 -0.4952 -0.2461 -0.6741
  552MOL0     H74486  13.415   5.251   6.513 -0.1275 -1.5080 -2.3023
  552MOL0     H74487  13.320   5.206   6.655  2.0489 -1.6640  1.0214
  552MOL0     H74488  13.309   4.975   6.587 -1.3022  2.1764 -0.9937
  552MOL0     H74489  13.434   4.998   6.454 -1.3378 -2.0460 -0.7390
  552MOL0     H74490  13.497   5.074   6.740  3.1114 -0.0890  1.1376
  552MOL0     H74491  13.597   5.071   6.602  0.9056 -2.4661  1.4647
  552MOL0     H74492  13.632   4.874   6.747 -0.2351  3.7973  0.2639
  552MOL0     H74493  13.582   4.831   6.573 -0.2589  1.9540 -0.1164
  552MOL0     H74494  13.396   4.849   6.824  2.7043  1.9141 -0.1851
  552MOL0     H74495  13.347   4.792   6.671  0.3755  1.3523  0.0289
  552MOL0     H74496  13.530   4.588   6.706  0.0308 -0.2289  0.3106
  552MOL0     H74497  13.363   4.592   6.751 -0.4718  1.6791  0.2208
  552MOL0     H74498  13.424   4.674   6.975  1.5038  0.0281  1.6895
  552MOL0     H74499  13.473   4.506   6.931 -1.4613 -0.2963 -3.4511
  552MOL0     H74500  13.004   5.232   6.302 -0.0472  0.7330  0.1946
  552MOL0     H74501  12.793   5.174   6.220  3.7772  0.9642 -1.3365
  552MOL0     H74502  12.385   4.972   6.336  1.2026  1.2223 -0.6674
  552MOL0     H74503  12.145   4.913   6.335  0.3925 -1.4277 -1.8001
  552MOL0     H74504  10.520   4.335   6.092 -0.1294  1.5821 -0.1265
  552MOL0     H74505  10.283   4.302   6.197  0.9338  1.1744 -2.5836
  552MOL0     H74506  10.025   4.474   6.218 -0.0744  0.4614  0.1150
  552MOL0     H74507   9.770   4.467   6.215 -2.3575  2.4719  0.5126
  552MOL0     H74508   9.590   4.350   6.218 -0.9436 -0.1613  1.1345
  552MOL0     H74509   9.556   4.520   6.243 -0.0602  0.4662 -1.1981
  552MOL0     H74510   9.357   4.392   6.190 -0.7879  2.1627  0.4274
  552MOL0     H74511   9.343   4.487   6.328 -0.1931  0.7439  1.2709
  552MOL0     H74512   9.244   4.253   6.356  0.7006 -0.1244 -2.9382
  552MOL0     H74513   9.368   4.276   6.477 -0.2519 -1.1529  0.7304
  552MOL0     H74514   9.512   4.146   6.269  0.3166  2.4135  0.2574
  552MOL0     H74515   9.436   4.065   6.411 -1.5068  1.8154  1.9005
  552MOL0     H74516   9.157   3.977   6.091 -1.3551  2.1487  1.5174
  552MOL0     H74517   9.743   4.414   6.638 -1.5039  3.4371 -1.3904
  552MOL0     H74518   9.966   4.471   6.764  1.4137  2.5961 -1.0146
  552MOL0     H74519  10.037   4.317   6.725 -0.1247 -1.0205 -1.2261
  552MOL0     H74520  10.125   4.470   6.691  1.5064 -1.3026 -0.6604
  553MOL0     O74521   2.494  10.415   2.291  1.1225 -0.2910 -0.0218
  553MOL0     C74522   2.462  10.517   2.232  0.7332 -0.2710 -0.3965
  553MOL0     O74523   2.522  10.565   2.118 -0.6341 -0.4914  0.3181
  553MOL0     C74524   2.643  10.510   2.076 -0.1333  0.6877 -0.4564
  553MOL0     C74525   2.749  10.530   2.160 -0.6368  0.2871  0.0050
  553MOL0     C74526   2.882  10.484   2.128  0.8136  0.7233 -0.1729
  553MOL0     C74527   2.908  10.441   1.992 -0.3517  0.7382 -0.4991
  553MOL0     O74528   3.037  10.415   1.946  0.5286  0.0485  0.2242
  553MOL0     C74529   3.125  10.365   2.046  0.0301  0.2156 -0.9746
  553MOL0     C74530   3.253  10.314   1.980 -0.3914  0.2950  0.3306
  553MOL0     C74531   3.354  10.281   2.083  0.5985 -0.2095  0.5244
  553MOL0     C74532   3.483  10.229   2.011  0.3836 -0.1993 -0.3409
  553MOL0     C74533   3.585  10.230   2.129 -0.2506  0.0038 -0.1252
  553MOL0     C74534   3.708  10.166   2.093 -1.2179 -0.1398  0.2602
  553MOL0     C74535   3.805  10.149   2.209 -0.1312 -0.0153  0.0451
  553MOL0     C74536   3.932  10.055   2.191  0.3967  0.3082 -0.6640
  553MOL0     N74537   4.010  10.071   2.075  0.5874 -0.5673  0.6254
  553MOL0     C74538   3.988   9.995   1.956  0.3276  0.3425 -0.6509
  553MOL0     C74539   4.093  10.025   1.877 -0.3379  0.4010  1.0501
  553MOL0     C74540   4.117   9.950   1.750 -0.1567  0.2950 -0.7425
  553MOL0     C74541   4.157   9.809   1.775  0.3324  0.4270  0.1786
  553MOL0     C74542   4.278   9.794   1.864  0.9937  0.2999 -0.1820
  553MOL0     C74543   4.318   9.649   1.865 -0.4309 -0.8580  0.4232
  553MOL0     O74544   4.434   9.637   1.944  0.1424 -0.0199  0.0631
  553MOL0     C74545   4.399   9.587   2.071  0.1226 -0.1976 -0.9472
  553MOL0     C74546   4.333   9.662   2.170  0.6392  0.8901  0.3954
  553MOL0     C74547   4.270   9.606   2.280  0.2262 -0.2920  0.8885
  553MOL0     C74548   4.285   9.466   2.309 -0.4939  0.5807 -0.3467
  553MOL0     C74549   4.225   9.416   2.434 -0.3934  0.7347 -0.4299
  553MOL0     O74550   4.174   9.511   2.518 -0.9421 -0.0631 -0.6335
  553MOL0     C74551   4.112   9.468   2.633 -0.2091 -0.3665  0.2478
  553MOL0     C74552   3.973   9.443   2.628 -0.3493  0.4850 -0.0047
  553MOL0     C74553   3.921   9.369   2.731  0.3511 -0.0469 -1.4682
  553MOL0     C74554   3.998   9.343   2.854  0.1159 -0.0892  0.3431
  553MOL0     O74555   3.959   9.265   2.962  0.8773  0.1857  0.7978
  553MOL0     C74556   3.819   9.229   2.967 -0.7543  0.5725  0.4429
  553MOL0     C74557   3.774   9.146   3.090 -0.2133 -1.0749  0.2084
  553MOL0     C74558   3.828   9.196   3.220 -0.9119  0.1879  0.3186
  553MOL0     C74559   3.787   9.346   3.238 -0.7986  0.1274 -1.1818
  553MOL0     C74560   3.822   9.406   3.377  0.2012  0.1746  0.3549
  553MOL0     C74561   3.969   9.440   3.380 -0.0221  0.0037  1.2234
  553MOL0     C74562   4.050   9.324   3.430  0.1701  0.8525  0.4715
  553MOL0     C74563   4.201   9.356   3.406  0.5478  0.1309 -0.3156
  553MOL0    Cl74564   4.250   9.312   3.240 -0.7352  0.0507  0.7146
  553MOL0     C74565   4.133   9.380   2.856 -0.1536 -0.0299 -0.8817
  553MOL0     C74566   4.194   9.442   2.748  0.6427  0.7005  0.5732
  553MOL0     O74567   4.214   9.295   2.458  0.3001  1.4261  0.4682
  553MOL0     C74568   4.351   9.390   2.215  0.2374 -0.6828 -0.4959
  553MOL0     C74569   4.408   9.451   2.091  0.1586  0.4000 -1.0251
  553MOL0     N74570   4.176  10.123   1.943  0.2131  0.6387 -0.1847
  553MOL0     N74571   4.123  10.146   2.059  0.1587 -0.1959  0.3874
  553MOL0     C74572   2.795  10.438   1.907 -1.1143  0.3637 -0.4614
  553MOL0     C74573   2.665  10.468   1.942 -0.1322  0.7703 -1.1061
  553MOL0     C74574   2.322  10.577   2.271 -0.4916 -0.7830 -0.5969
  553MOL0     C74575   2.252  10.638   2.160  1.1093 -0.1987  0.1778
  553MOL0     C74576   2.134  10.705   2.195  0.1817 -0.2192  0.0082
  553MOL0     C74577   2.074  10.700   2.322  0.9059  0.3361 -0.0764
  553MOL0     O74578   1.960  10.784   2.352 -0.1880 -0.3141 -0.2283
  553MOL0     C74579   1.828  10.746   2.312 -0.8802 -0.3072  0.2928
  553MOL0     C74580   1.725  10.853   2.345  0.1158 -0.0328 -0.9998
  553MOL0     C74581   1.766  11.000   2.320  0.4102  0.1587 -0.1428
  553MOL0     C74582   1.818  11.019   2.171  0.1471  0.4728 -0.9995
  553MOL0     C74583   1.838  11.163   2.143  0.6260 -0.3836  0.0313
  553MOL0     C74584   1.848  11.278   2.105 -0.5216 -0.1083 -0.4764
  553MOL0     C74585   2.143  10.635   2.424 -1.1639  0.6253 -0.2664
  553MOL0     C74586   2.261  10.565   2.402 -0.0606  0.0399  0.5100
  553MOL0     C74587   2.313  10.469   2.508 -0.1107 -0.0587  0.3108
  553MOL0     H74588   2.735  10.574   2.258 -0.9933  0.6337 -0.2040
  553MOL0     H74589   2.959  10.512   2.200  2.4378  1.0317 -1.9498
  553MOL0     H74590   3.144  10.436   2.127  0.5104  0.6042 -1.4157
  553MOL0     H74591   3.081  10.275   2.090  1.4878 -1.8019 -3.4141
  553MOL0     H74592   3.296  10.400   1.927  2.2918  0.5214  2.6117
  553MOL0     H74593   3.237  10.235   1.906  0.2497 -0.7090  1.2340
  553MOL0     H74594   3.317  10.200   2.146  0.1090 -1.2123 -0.9798
  553MOL0     H74595   3.362  10.371   2.145 -0.6583  0.6782 -0.5443
  553MOL0     H74596   3.461  10.132   1.965 -1.5133 -0.3201  0.7281
  553MOL0     H74597   3.503  10.301   1.930 -1.3230  2.2590  1.2661
  553MOL0     H74598   3.608  10.332   2.160 -1.2506  0.1803  0.0568
  553MOL0     H74599   3.546  10.175   2.215  1.7759 -0.2049  0.7330
  553MOL0     H74600   3.691  10.065   2.055 -0.6978 -0.1121 -0.0545
  553MOL0     H74601   3.744  10.215   2.002 -2.9590  0.3441 -0.2087
  553MOL0     H74602   3.748  10.095   2.284 -1.0442  2.2386  1.0543
  553MOL0     H74603   3.825  10.251   2.244 -3.7458  0.2565  1.6648
  553MOL0     H74604   4.000  10.083   2.272 -0.6049  0.7441  0.0423
  553MOL0     H74605   3.895   9.954   2.211 -1.0583  0.7902 -0.8116
  553MOL0     H74606   3.906   9.927   1.940 -2.1117  2.7319  0.8856
  553MOL0     H74607   4.022   9.961   1.697 -1.4855  0.9166  1.6377
  553MOL0     H74608   4.194  10.008   1.698  0.6608 -0.4682 -0.4081
  553MOL0     H74609   4.070   9.752   1.810  1.8784 -2.0692  0.2526
  553MOL0     H74610   4.179   9.771   1.675  1.6767  1.1579  0.1751
  553MOL0     H74611   4.243   9.814   1.966 -2.2229  1.6565 -1.4346
  553MOL0     H74612   4.366   9.849   1.828 -0.1536  2.6654  0.4258
  553MOL0     H74613   4.345   9.605   1.768  1.4074 -3.6771  2.0447
  553MOL0     H74614   4.244   9.574   1.891 -1.2854 -0.3472 -0.4852
  553MOL0     H74615   4.326   9.770   2.173  2.5722  1.0959 -0.6507
  553MOL0     H74616   4.223   9.672   2.353  1.4320 -0.9505  2.3333
  553MOL0     H74617   3.910   9.474   2.546 -2.4650  3.6593  2.5617
  553MOL0     H74618   3.819   9.335   2.716 -0.5565  0.8051  1.8471
  553MOL0     H74619   3.769   9.326   2.970 -2.5478 -0.2818 -0.1640
  553MOL0     H74620   3.780   9.172   2.882 -0.8335 -1.9352  2.0657
  553MOL0     H74621   3.665   9.150   3.103 -0.1376 -2.0729  1.3740
  553MOL0     H74622   3.803   9.041   3.093 -0.6801 -1.2004  1.9749
  553MOL0     H74623   3.788   9.140   3.305  1.0718  1.6090  2.3303
  553MOL0     H74624   3.936   9.175   3.217 -0.7344  0.8414 -4.3889
  553MOL0     H74625   3.679   9.336   3.225 -0.4949 -2.0877 -2.4629
  553MOL0     H74626   3.829   9.404   3.155  0.8716  2.2488  1.0030
  553MOL0     H74627   3.799   9.348   3.467 -1.4493  0.0627 -0.1226
  553MOL0     H74628   3.757   9.494   3.382 -0.6262 -0.3662 -0.6063
  553MOL0     H74629   3.993   9.453   3.274 -0.2817 -0.8033  1.0554
  553MOL0     H74630   3.992   9.529   3.438 -2.3083  0.4033  1.6092
  553MOL0     H74631   4.024   9.224   3.393  2.3010  0.6768 -0.6833
  553MOL0     H74632   4.044   9.320   3.539  0.4924 -0.3319  0.4558
  553MOL0     H74633   4.214   9.465   3.409  3.7932 -0.0428 -2.4205
  553MOL0     H74634   4.262   9.307   3.483  1.0416  3.4871  1.6126
  553MOL0     H74635   4.187   9.366   2.949 -2.7224  0.3446  0.7864
  553MOL0     H74636   4.301   9.458   2.738  1.0397 -2.3120 -0.9950
  553MOL0     H74637   4.348   9.283   2.233 -0.9910 -0.6729 -0.5535
  553MOL0     H74638   4.455   9.384   2.019  1.0374  1.3757 -1.3908
  553MOL0     H74639   2.806  10.393   1.809  0.2049 -1.3196  0.4051
  553MOL0     H74640   2.580  10.457   1.875 -0.7529 -1.1587 -0.0862
  553MOL0     H74641   2.282  10.617   2.058  2.0757  0.3369  0.3367
  553MOL0     H74642   2.079  10.767   2.125 -1.4120  0.1802  1.5426
  553MOL0     H74643   1.790  10.657   2.364 -4.1828  0.7690 -0.0235
  553MOL0     H74644   1.826  10.726   2.204 -1.4263  1.9234 -0.1532
  553MOL0     H74645   1.707  10.847   2.453 -2.6922  0.8500 -1.3512
  553MOL0     H74646   1.638  10.834   2.282 -2.2706 -1.7627  2.4525
  553MOL0     H74647   1.848  11.021   2.390 -0.4906 -0.6668  1.2118
  553MOL0     H74648   1.688  11.075   2.336  2.5555  2.0581  2.6176
  553MOL0     H74649   1.919  10.977   2.166  0.1170  0.2467 -0.0066
  553MOL0     H74650   1.753  10.965   2.101 -1.0668 -1.0608  1.1796
  553MOL0     H74651   1.862  11.381   2.082  2.6156  0.3397  2.5607
  553MOL0     H74652   2.106  10.617   2.525 -3.2675  0.3656 -1.0154
  553MOL0     H74653   2.238  10.438   2.581 -1.4675 -2.2111 -1.8308
  553MOL0     H74654   2.336  10.376   2.456 -1.5074  0.5098 -1.4392
  553MOL0     H74655   2.402  10.513   2.552  0.8867 -1.4892 -0.2123
  554MOL0     O74656   3.773   1.798   7.439 -0.2580  0.3033  0.1572
  554MOL0     C74657   3.778   1.707   7.360  0.0116  0.8387  0.0402
  554MOL0     O74658   3.867   1.607   7.359  0.4485 -0.4206  0.3534
  554MOL0     C74659   3.944   1.552   7.459  0.0468 -0.4082  0.1676
  554MOL0     C74660   3.945   1.598   7.594  0.7113  0.5491 -0.8260
  554MOL0     C74661   4.020   1.537   7.691 -0.0893 -0.3538 -0.1733
  554MOL0     C74662   4.105   1.429   7.657  0.3958  0.0243 -0.4786
  554MOL0     O74663   4.172   1.365   7.759 -0.8982  0.2532  0.0091
  554MOL0     C74664   4.308   1.356   7.739  0.1485  0.2967  0.1086
  554MOL0     C74665   4.374   1.324   7.875 -0.2496 -0.6113  0.2305
  554MOL0     C74666   4.524   1.309   7.842 -0.3222 -0.1563  0.6529
  554MOL0     C74667   4.613   1.274   7.963  0.3835 -0.4195  0.4328
  554MOL0     C74668   4.762   1.290   7.926 -0.8371  0.4918  0.2538
  554MOL0     C74669   4.866   1.213   8.012  0.8283 -0.8116 -0.7749
  554MOL0     C74670   5.009   1.223   7.951 -0.4280  0.5902  0.5016
  554MOL0     C74671   5.032   1.125   7.836 -0.0410 -0.7749 -0.3301
  554MOL0     N74672   5.159   1.150   7.766 -0.0729  1.4388  0.4329
  554MOL0     C74673   5.184   1.135   7.626  0.3835 -0.2971 -0.0144
  554MOL0     C74674   5.322   1.156   7.613  0.0150 -0.4985  0.2025
  554MOL0     C74675   5.385   1.149   7.479 -0.4597  0.9033  1.0312
  554MOL0     C74676   5.544   1.186   7.478  0.5026  0.1782  1.2962
  554MOL0     C74677   5.564   1.332   7.502 -0.6816 -0.7129  0.4453
  554MOL0     C74678   5.709   1.347   7.558  0.1537 -0.0166 -0.4129
  554MOL0     O74679   5.710   1.284   7.681 -0.8292  0.2896  0.4864
  554MOL0     C74680   5.821   1.252   7.752 -0.7719  0.4802  0.4343
  554MOL0     C74681   5.827   1.141   7.845  0.0871  0.2926  0.7694
  554MOL0     C74682   5.942   1.093   7.908 -0.7357 -0.4125 -0.3878
  554MOL0     C74683   6.062   1.163   7.881 -0.0354 -0.4763 -0.9462
  554MOL0     C74684   6.186   1.132   7.943 -0.0088  1.0382 -0.7223
  554MOL0     O74685   6.287   1.231   7.954 -0.0003 -0.3561  0.1819
  554MOL0     C74686   6.415   1.210   8.004  0.9959  1.0921  0.1221
  554MOL0     C74687   6.487   1.090   7.962  0.9139 -0.7316  0.2894
  554MOL0     C74688   6.621   1.088   7.983 -0.5354 -0.3459  0.2268
  554MOL0     C74689   6.697   1.194   8.030 -0.1003 -0.0219  0.2298
  554MOL0     O74690   6.833   1.183   8.031  0.4131  0.5811  0.0444
  554MOL0     C74691   6.915   1.293   8.042  0.3283 -0.5492  0.5940
  554MOL0     C74692   7.037   1.271   7.969 -0.0123  0.5961  0.2528
  554MOL0     C74693   7.117   1.145   8.023  0.1989  0.8490  1.0449
  554MOL0     C74694   7.267   1.151   8.016 -0.4824  1.0826 -1.4455
  554MOL0     C74695   7.319   1.038   8.107 -0.1670 -1.0330 -0.7052
  554MOL0     C74696   7.469   1.027   8.092  1.1825  0.0202  1.2042
  554MOL0     C74697   7.519   0.950   8.215 -0.0972  0.1384  0.2953
  554MOL0     C74698   7.670   0.964   8.225  0.0655 -0.2795 -0.5411
  554MOL0    Cl74699   7.716   1.133   8.277 -0.0837  0.3438 -0.1670
  554MOL0     C74700   6.635   1.309   8.063  0.7708 -0.2702  0.1837
  554MOL0     C74701   6.492   1.319   8.053 -0.3585 -0.2104 -0.0598
  554MOL0     O74702   6.195   1.016   7.997 -0.1764 -1.6898  0.0432
  554MOL0     C74703   6.066   1.266   7.787  0.0832 -0.4831 -0.4741
  554MOL0     C74704   5.943   1.327   7.737  0.1632  0.3599 -0.3511
  554MOL0     N74705   5.378   1.159   7.747 -0.2582  0.5607  0.9032
  554MOL0     N74706   5.282   1.155   7.831 -0.4853 -0.7174 -0.0591
  554MOL0     C74707   4.102   1.375   7.527 -0.1136  0.3385  0.1447
  554MOL0     C74708   4.033   1.444   7.427  0.4394  0.0021  0.4415
  554MOL0     C74709   3.664   1.702   7.264 -0.0090 -1.0553 -0.1574
  554MOL0     C74710   3.619   1.574   7.230 -1.0836  0.1816 -0.2322
  554MOL0     C74711   3.527   1.550   7.132  0.6267  0.1161 -0.4098
  554MOL0     C74712   3.445   1.652   7.084 -0.1246  0.2236  0.1517
  554MOL0     O74713   3.343   1.620   6.996 -0.5036 -1.1391 -0.0419
  554MOL0     C74714   3.259   1.735   6.960  0.9744 -0.2721  0.0678
  554MOL0     C74715   3.159   1.700   6.852 -0.4508 -0.1647 -0.2837
  554MOL0     C74716   3.036   1.792   6.848 -0.0473 -0.4008  0.2882
  554MOL0     C74717   3.020   1.872   6.714 -1.0962  0.5690  0.1070
  554MOL0     C74718   2.904   1.961   6.731  0.2386  1.6627  0.1561
  554MOL0     C74719   2.797   2.023   6.727 -0.5885  0.4091  0.3903
  554MOL0     C74720   3.481   1.780   7.124 -0.1510 -0.3929 -0.6790
  554MOL0     C74721   3.590   1.807   7.213 -0.3516 -0.2396 -0.7772
  554MOL0     C74722   3.620   1.949   7.249  0.3744 -0.1550  0.2874
  554MOL0     H74723   3.872   1.666   7.635  1.5482  0.5622  0.7243
  554MOL0     H74724   4.016   1.576   7.792  0.1769  0.5941 -0.5145
  554MOL0     H74725   4.334   1.275   7.671  2.7450  1.5305 -0.5138
  554MOL0     H74726   4.355   1.444   7.693  0.2349  0.8324  1.1915
  554MOL0     H74727   4.322   1.243   7.926 -2.7424  0.6366 -0.1730
  554MOL0     H74728   4.365   1.411   7.941 -0.7354 -1.8810  1.9198
  554MOL0     H74729   4.556   1.405   7.800 -0.5221 -0.0922  0.6458
  554MOL0     H74730   4.529   1.232   7.765 -0.8713  0.2786  0.1662
  554MOL0     H74731   4.591   1.346   8.042 -2.7481  0.5000 -1.1188
  554MOL0     H74732   4.587   1.173   7.997  1.1072 -2.0787 -3.3834
  554MOL0     H74733   4.777   1.272   7.819 -3.3377 -1.3734  0.1243
  554MOL0     H74734   4.801   1.392   7.927 -0.4593  0.4469 -2.1497
  554MOL0     H74735   4.865   1.249   8.115  1.6463 -1.1778 -0.6225
  554MOL0     H74736   4.837   1.107   8.014 -2.3475 -0.0011 -0.0756
  554MOL0     H74737   5.093   1.210   8.020  0.7565 -0.2184 -1.0300
  554MOL0     H74738   5.032   1.321   7.906  1.6071  0.5068  1.2487
  554MOL0     H74739   5.027   1.023   7.877  0.9592 -0.9869 -0.7210
  554MOL0     H74740   4.944   1.137   7.772 -0.7176  0.0616  0.7214
  554MOL0     H74741   5.114   1.125   7.544  1.3051  4.1913 -1.6312
  554MOL0     H74742   5.371   1.049   7.437  0.3306  0.5367  1.6196
  554MOL0     H74743   5.325   1.217   7.418 -0.9086  1.2300  1.8149
  554MOL0     H74744   5.610   1.126   7.541  1.5397 -0.0982 -0.0082
  554MOL0     H74745   5.596   1.162   7.385  1.7607 -0.0794  2.0448
  554MOL0     H74746   5.495   1.374   7.575 -1.9974  0.8636 -1.5725
  554MOL0     H74747   5.541   1.389   7.411 -3.9799 -2.1256  0.2614
  554MOL0     H74748   5.731   1.454   7.569  0.2970 -0.1376  0.5274
  554MOL0     H74749   5.788   1.311   7.491 -2.7286 -0.6492 -3.8273
  554MOL0     H74750   5.738   1.079   7.845 -0.8814  1.6182 -0.6585
  554MOL0     H74751   5.952   1.005   7.971 -0.0637 -1.3095 -1.7027
  554MOL0     H74752   6.448   1.004   7.908  1.4605  0.3954 -2.0314
  554MOL0     H74753   6.693   1.012   7.956  0.6033  0.0168  2.1022
  554MOL0     H74754   6.871   1.384   8.001 -0.0980 -1.0810 -0.1313
  554MOL0     H74755   6.939   1.322   8.145 -1.5363  0.1218  0.8752
  554MOL0     H74756   7.015   1.255   7.863 -1.5179 -1.5674  0.8320
  554MOL0     H74757   7.094   1.364   7.980  3.3924 -1.5944  5.4385
  554MOL0     H74758   7.098   1.150   8.130  1.7117  0.4469  1.3571
  554MOL0     H74759   7.086   1.057   7.965 -0.8812  2.6586 -1.3006
  554MOL0     H74760   7.293   1.250   8.052 -2.4694  1.3307 -0.5816
  554MOL0     H74761   7.314   1.133   7.919  3.4181 -0.2998  0.4858
  554MOL0     H74762   7.276   0.940   8.085  0.2323 -1.1289 -1.0603
  554MOL0     H74763   7.289   1.066   8.209  1.2447 -1.3516 -0.1761
  554MOL0     H74764   7.498   0.961   8.010  0.9127  1.3961 -0.0283
  554MOL0     H74765   7.513   1.126   8.085  1.9829 -0.4597 -3.2432
  554MOL0     H74766   7.484   0.846   8.218  1.4609 -0.4611 -0.7520
  554MOL0     H74767   7.476   0.989   8.308 -0.9904 -0.7672  0.2729
  554MOL0     H74768   7.708   0.885   8.291  1.7791 -1.2298 -2.5091
  554MOL0     H74769   7.725   0.945   8.132  0.0274  0.4746 -0.7229
  554MOL0     H74770   6.690   1.394   8.104 -0.4631  0.7779 -0.2830
  554MOL0     H74771   6.451   1.418   8.066  2.1424  1.5059 -3.6715
  554MOL0     H74772   6.165   1.303   7.760 -0.6533  2.5797  0.6896
  554MOL0     H74773   5.941   1.419   7.679 -0.5764 -0.4751 -1.6816
  554MOL0     H74774   4.167   1.291   7.506  0.1370  0.5023  0.2625
  554MOL0     H74775   4.042   1.411   7.324 -1.8108  0.5988 -0.0061
  554MOL0     H74776   3.674   1.496   7.282  0.1594  2.6020  2.4221
  554MOL0     H74777   3.515   1.448   7.097  1.9419  0.9878 -3.8066
  554MOL0     H74778   3.311   1.822   6.919 -0.6135  1.1123  0.8999
  554MOL0     H74779   3.209   1.770   7.050  1.0630 -0.2996  0.1276
  554MOL0     H74780   3.120   1.598   6.862 -2.3076  0.4182 -1.0832
  554MOL0     H74781   3.204   1.705   6.753  0.7750 -1.0400  0.2092
  554MOL0     H74782   3.039   1.859   6.934  2.1796 -2.1093  1.6467
  554MOL0     H74783   2.946   1.736   6.875 -0.6308  0.8268  0.9617
  554MOL0     H74784   3.104   1.925   6.666 -1.8689  2.3347  0.5991
  554MOL0     H74785   2.993   1.799   6.638 -0.0344  1.5003 -1.2218
  554MOL0     H74786   2.704   2.076   6.732 -0.0749  1.3776 -0.0541
  554MOL0     H74787   3.425   1.870   7.104 -1.9077 -0.8165  1.8330
  554MOL0     H74788   3.723   1.974   7.220 -0.3259  1.6688 -0.7841
  554MOL0     H74789   3.559   2.029   7.205  0.0053  0.5155  1.9432
  554MOL0     H74790   3.614   1.977   7.355  0.5746  2.5111 -0.3260
  555MOL0     O74791   3.054   9.958   1.718 -0.3331  0.9563 -0.3285
  555MOL0     C74792   2.987  10.006   1.811  0.4455  0.2278  0.1506
  555MOL0     O74793   3.033  10.023   1.940  0.3090  0.5251 -0.2597
  555MOL0     C74794   3.147   9.965   1.988 -0.5073 -0.6249 -0.3034
  555MOL0     C74795   3.164   9.966   2.122  0.1231  0.1396 -0.0765
  555MOL0     C74796   3.278   9.915   2.197  1.1928 -0.0652  0.5652
  555MOL0     C74797   3.378   9.852   2.120  0.6914  0.5012 -0.2960
  555MOL0     O74798   3.489   9.816   2.197 -0.6521  0.0679 -0.4257
  555MOL0     C74799   3.587   9.725   2.141  0.3440 -0.7292  0.5585
  555MOL0     C74800   3.713   9.726   2.232  0.7757  0.5001 -0.2781
  555MOL0     C74801   3.836   9.656   2.158 -0.0739 -0.5830  0.3215
  555MOL0     C74802   3.906   9.540   2.228  0.4029  0.0692  0.3623
  555MOL0     C74803   3.807   9.426   2.253 -1.0809  0.0791 -0.6407
  555MOL0     C74804   3.864   9.288   2.270 -0.4628 -0.8149 -0.0941
  555MOL0     C74805   3.755   9.194   2.291  0.7103 -0.0528  0.1891
  555MOL0     C74806   3.706   9.187   2.419  0.6665  0.2946 -0.0669
  555MOL0     N74807   3.776   9.088   2.492  0.7456  0.1136 -0.3633
  555MOL0     C74808   3.914   9.094   2.525 -0.5007  0.4020  0.7329
  555MOL0     C74809   3.940   8.990   2.606  0.4899  0.0196  0.7631
  555MOL0     C74810   4.067   8.970   2.687  1.3361  0.7955 -1.3232
  555MOL0     C74811   4.025   8.894   2.813 -0.1649 -0.5725 -0.0731
  555MOL0     C74812   4.145   8.840   2.898  0.3316 -0.5503 -0.3026
  555MOL0     C74813   4.228   8.952   2.960  0.5111  0.4133  0.4071
  555MOL0     O74814   4.332   8.908   3.052  0.0380 -0.4190 -0.6906
  555MOL0     C74815   4.435   8.837   2.997 -1.6207 -0.5161 -0.4541
  555MOL0     C74816   4.477   8.841   2.867 -0.6996 -0.5690  0.1809
  555MOL0     C74817   4.597   8.774   2.829 -0.1392  0.6331 -0.6820
  555MOL0     C74818   4.682   8.715   2.924  1.1224 -0.1005 -0.3178
  555MOL0     C74819   4.798   8.635   2.891 -0.3888 -0.9785 -0.1910
  555MOL0     O74820   4.850   8.565   2.995  0.2174  0.5941  0.3945
  555MOL0     C74821   4.960   8.487   2.969  0.0710 -0.4772  1.6863
  555MOL0     C74822   5.064   8.491   3.063 -0.9162  0.4887  0.3074
  555MOL0     C74823   5.174   8.398   3.061 -0.3772 -0.3648  0.6592
  555MOL0     C74824   5.182   8.313   2.951 -0.0971  0.2084 -0.8679
  555MOL0     O74825   5.290   8.234   2.952 -0.0497  0.3819  0.3915
  555MOL0     C74826   5.390   8.244   2.851  0.3586 -0.6742 -0.9301
  555MOL0     C74827   5.508   8.312   2.922  0.2760 -0.5222  0.3188
  555MOL0     C74828   5.555   8.223   3.035 -0.0936 -0.2346 -0.2338
  555MOL0     C74829   5.705   8.261   3.057  0.0489  0.0476 -0.6666
  555MOL0     C74830   5.768   8.171   3.166 -0.2510 -0.4660  0.2080
  555MOL0     C74831   5.899   8.242   3.208  0.4323  0.6505 -1.4089
  555MOL0     C74832   5.976   8.166   3.331  0.7536 -0.0147  0.3079
  555MOL0     C74833   6.125   8.183   3.321  0.5505 -0.2375 -1.0497
  555MOL0    Cl74834   6.178   8.089   3.181 -0.1625 -0.0783  0.0563
  555MOL0     C74835   5.083   8.298   2.849  0.5312 -0.0836 -0.5743
  555MOL0     C74836   4.965   8.380   2.868 -0.2313 -0.7961 -0.6634
  555MOL0     O74837   4.844   8.645   2.779  0.2438 -0.4092  0.2446
  555MOL0     C74838   4.637   8.724   3.057  0.7596  0.8662 -0.4515
  555MOL0     C74839   4.518   8.788   3.095  0.4611  0.2714 -0.0049
  555MOL0     N74840   3.824   8.915   2.604  0.5402 -0.6006  0.4380
  555MOL0     N74841   3.725   8.967   2.532  0.6457  0.4293 -0.9896
  555MOL0     C74842   3.372   9.867   1.987 -0.7088  0.2517  0.6527
  555MOL0     C74843   3.256   9.913   1.921  0.1682  0.9157 -0.3467
  555MOL0     C74844   2.849  10.052   1.775 -0.8151  0.6003  0.1720
  555MOL0     C74845   2.813  10.072   1.640  0.4416  0.5844 -0.0151
  555MOL0     C74846   2.700  10.130   1.604  0.3470  0.3684  0.9362
  555MOL0     C74847   2.609  10.184   1.697  0.1209 -0.3653  0.4407
  555MOL0     O74848   2.498  10.244   1.638 -0.8671  0.2550  0.8574
  555MOL0     C74849   2.372  10.233   1.710  0.2509  0.3889 -0.2040
  555MOL0     C74850   2.242  10.234   1.613  0.4038  0.0264  0.7014
  555MOL0     C74851   2.249  10.148   1.486  0.1209 -0.0181  0.1580
  555MOL0     C74852   2.260  10.008   1.535 -0.4882 -0.5016 -0.3640
  555MOL0     C74853   2.136   9.951   1.597  1.0128 -0.8633 -0.4757
  555MOL0     C74854   2.042   9.920   1.663  0.7446  0.1915  0.7068
  555MOL0     C74855   2.630  10.151   1.828  0.8948 -0.6600 -0.3224
  555MOL0     C74856   2.753  10.086   1.877  0.7190 -1.1113 -0.3546
  555MOL0     C74857   2.770  10.062   2.028 -0.4782 -0.3682  0.0909
  555MOL0     H74858   3.084  10.009   2.180 -0.2727 -1.8975  1.0030
  555MOL0     H74859   3.288   9.920   2.305  1.2664 -0.5064  0.5788
  555MOL0     H74860   3.550   9.622   2.140  0.4608 -0.7937  1.7011
  555MOL0     H74861   3.620   9.760   2.043  2.6607  1.0569  1.8907
  555MOL0     H74862   3.696   9.676   2.327  2.5611 -0.6953 -0.5543
  555MOL0     H74863   3.743   9.829   2.255  1.9293 -0.3538  2.4159
  555MOL0     H74864   3.918   9.727   2.143  1.6351 -1.8322  2.8789
  555MOL0     H74865   3.801   9.620   2.062 -2.2006  0.8671  0.4916
  555MOL0     H74866   3.988   9.510   2.162  0.9083  0.2685  0.8882
  555MOL0     H74867   3.962   9.566   2.319 -1.2319 -2.5672  2.2632
  555MOL0     H74868   3.726   9.455   2.321  1.1604  1.7605  1.5482
  555MOL0     H74869   3.765   9.418   2.153 -0.8176 -1.3893 -0.6505
  555MOL0     H74870   3.904   9.267   2.170 -2.2896  2.5012 -1.6927
  555MOL0     H74871   3.944   9.278   2.344 -0.1758 -0.9315 -0.4160
  555MOL0     H74872   3.791   9.096   2.257 -0.7761 -0.2327 -0.9933
  555MOL0     H74873   3.674   9.213   2.220  0.6886 -1.0580 -0.0761
  555MOL0     H74874   3.725   9.275   2.481  1.2560 -1.3203  2.1851
  555MOL0     H74875   3.598   9.170   2.430  0.6993 -0.4355 -0.7769
  555MOL0     H74876   3.991   9.163   2.491 -0.9662 -1.0517 -3.9408
  555MOL0     H74877   4.129   8.894   2.638  0.7824 -0.6078  0.0460
  555MOL0     H74878   4.130   9.059   2.693  0.6914  1.1721  0.1266
  555MOL0     H74879   3.960   8.962   2.869  1.2229  3.8291 -3.1851
  555MOL0     H74880   3.967   8.807   2.782 -0.7786 -0.6365  1.2026
  555MOL0     H74881   4.208   8.784   2.828  1.8441  0.3009  0.3285
  555MOL0     H74882   4.113   8.770   2.975  2.7839 -2.1780 -0.6281
  555MOL0     H74883   4.155   9.018   3.008  0.8045  0.5182  0.7133
  555MOL0     H74884   4.272   9.011   2.880  0.4590 -0.3312 -0.1821
  555MOL0     H74885   4.434   8.902   2.787 -0.6453 -0.2235  0.4151
  555MOL0     H74886   4.634   8.789   2.728 -1.1268  4.8357 -0.5752
  555MOL0     H74887   5.060   8.566   3.141 -1.4693  1.9941 -1.1135
  555MOL0     H74888   5.252   8.398   3.137  1.7919 -1.1236 -1.4221
  555MOL0     H74889   5.415   8.142   2.821  1.4046 -1.9972  3.6218
  555MOL0     H74890   5.357   8.297   2.761 -1.0809 -0.3611 -0.2555
  555MOL0     H74891   5.582   8.322   2.842  3.2507 -1.3269  2.7910
  555MOL0     H74892   5.491   8.415   2.954  0.7193 -0.3323 -0.0459
  555MOL0     H74893   5.502   8.228   3.130  1.2523  1.8569  0.4814
  555MOL0     H74894   5.561   8.122   2.994  4.5752  0.2801 -1.4766
  555MOL0     H74895   5.718   8.365   3.089  0.7565 -0.8155  2.1223
  555MOL0     H74896   5.751   8.243   2.959  0.7019 -0.9255 -0.1921
  555MOL0     H74897   5.795   8.068   3.138  2.5746  0.2431 -0.0301
  555MOL0     H74898   5.707   8.161   3.256  0.4008 -1.8055  0.5358
  555MOL0     H74899   5.959   8.248   3.116 -1.7309 -2.9693 -3.2684
  555MOL0     H74900   5.850   8.333   3.243  0.5719  0.2793 -0.2279
  555MOL0     H74901   5.955   8.059   3.338  3.9537 -0.6269  2.8689
  555MOL0     H74902   5.932   8.220   3.416 -3.4637  0.6455 -2.0281
  555MOL0     H74903   6.138   8.289   3.300 -1.2827 -0.3817 -3.3025
  555MOL0     H74904   6.169   8.150   3.415 -2.3323 -1.9951 -0.1879
  555MOL0     H74905   5.096   8.234   2.763  0.8847  0.7728 -1.1692
  555MOL0     H74906   4.880   8.358   2.804  0.5363 -2.2198 -1.2186
  555MOL0     H74907   4.685   8.680   3.144 -0.8586  0.1397  0.1063
  555MOL0     H74908   4.481   8.791   3.198  2.3956  0.6621  0.7227
  555MOL0     H74909   3.465   9.868   1.931 -1.3228  0.8439 -0.3938
  555MOL0     H74910   3.268   9.932   1.815 -3.2202  2.3093 -0.6060
  555MOL0     H74911   2.892  10.047   1.569  1.7523  2.5608  0.6435
  555MOL0     H74912   2.676  10.131   1.498  1.7407 -3.6585  0.4224
  555MOL0     H74913   2.374  10.323   1.772  2.0417  0.0491  0.2894
  555MOL0     H74914   2.374  10.144   1.773  0.6418  1.3051  1.1283
  555MOL0     H74915   2.220  10.337   1.582  0.5038  0.0984  0.8663
  555MOL0     H74916   2.160  10.197   1.674 -0.2466 -0.6577 -0.5432
  555MOL0     H74917   2.333  10.173   1.421  0.7036 -5.4744 -1.6338
  555MOL0     H74918   2.160  10.163   1.424 -1.5149  0.3755  2.4500
  555MOL0     H74919   2.281   9.930   1.461  0.1969 -0.6875  0.0224
  555MOL0     H74920   2.344   9.998   1.603  0.9643  0.1759 -1.9740
  555MOL0     H74921   1.959   9.880   1.717  0.7768  0.6360  1.0869
  555MOL0     H74922   2.554  10.181   1.900  1.6807 -0.8267  0.6075
  555MOL0     H74923   2.829   9.971   2.043  1.5566  0.0493 -4.0709
  555MOL0     H74924   2.823  10.143   2.078 -0.6719  0.4423 -0.9906
  555MOL0     H74925   2.670  10.056   2.075  0.6748 -0.3740  2.7457
  556MOL0     O74926   4.851   0.838   1.522 -0.3720  0.3842 -0.9231
  556MOL0     C74927   4.804   0.739   1.577 -0.9136 -0.6270 -1.0742
  556MOL0     O74928   4.868   0.618   1.588  0.2326  0.2749 -0.0707
  556MOL0     C74929   5.002   0.591   1.566  0.4439  1.1555 -0.7253
  556MOL0     C74930   5.037   0.470   1.530  0.2957  0.7926 -0.4232
  556MOL0     C74931   5.168   0.433   1.508 -0.3163  0.1709  0.3161
  556MOL0     C74932   5.271   0.527   1.524  0.9496 -1.0819  0.7607
  556MOL0     O74933   5.398   0.479   1.498 -0.2416  0.0215 -0.2753
  556MOL0     C74934   5.509   0.569   1.509  1.5088 -0.3763  1.0090
  556MOL0     C74935   5.537   0.627   1.368 -1.0013 -0.0468 -0.1687
  556MOL0     C74936   5.669   0.700   1.349 -0.2395 -0.5939 -0.4245
  556MOL0     C74937   5.793   0.607   1.348 -0.0821 -0.2531  0.9961
  556MOL0     C74938   5.911   0.686   1.289 -0.7242  0.0802  0.3852
  556MOL0     C74939   6.043   0.622   1.328  0.8450  0.2242 -0.1814
  556MOL0     C74940   6.163   0.723   1.311 -0.0153 -0.8610 -0.1338
  556MOL0     C74941   6.275   0.687   1.404 -0.4211  0.0535  0.3656
  556MOL0     N74942   6.351   0.565   1.369  0.4436  1.2138  0.2402
  556MOL0     C74943   6.484   0.560   1.341 -0.3314 -0.0618 -0.0964
  556MOL0     C74944   6.507   0.437   1.284  0.2270 -0.2636 -0.3310
  556MOL0     C74945   6.648   0.390   1.264 -0.7251  1.4076  0.2116
  556MOL0     C74946   6.707   0.330   1.392 -0.3713  0.2123 -0.7650
  556MOL0     C74947   6.816   0.225   1.369  0.0362  0.2050 -0.6958
  556MOL0     C74948   6.763   0.079   1.354 -0.2353  0.2432  0.3888
  556MOL0     O74949   6.728   0.040   1.228  0.4193  0.4525 -0.0199
  556MOL0     C74950   6.831  -0.021   1.156 -0.2821  0.3389  0.4293
  556MOL0     C74951   6.970  -0.048   1.190  0.1849 -0.6886 -0.2099
  556MOL0     C74952   7.048  -0.104   1.094  0.3376  0.6642  0.6329
  556MOL0     C74953   6.995  -0.139   0.963 -0.0210  0.8230  0.6673
  556MOL0     C74954   7.078  -0.204   0.873  1.2006  0.0410  0.2308
  556MOL0     O74955   7.026  -0.288   0.789 -0.4508 -0.1204 -0.5824
  556MOL0     C74956   7.101  -0.328   0.680 -0.1901  1.2927  0.1154
  556MOL0     C74957   7.095  -0.468   0.660  0.0674  0.5176 -0.7143
  556MOL0     C74958   7.161  -0.535   0.560  0.9050 -0.5781 -0.6613
  556MOL0     C74959   7.227  -0.455   0.465 -0.1023  0.5877 -0.0273
  556MOL0     O74960   7.290  -0.503   0.358  0.3343 -0.7975 -0.5514
  556MOL0     C74961   7.304  -0.647   0.345 -0.5574 -0.4626  0.1143
  556MOL0     C74962   7.424  -0.696   0.428 -0.5556  0.8850 -0.2192
  556MOL0     C74963   7.563  -0.634   0.362  0.0546 -0.0184  0.2400
  556MOL0     C74964   7.586  -0.679   0.208 -0.0268  0.3412 -0.3276
  556MOL0     C74965   7.727  -0.737   0.189 -0.5418  0.8348 -0.0972
  556MOL0     C74966   7.759  -0.859   0.269 -0.3554 -0.4799  0.0480
  556MOL0     C74967   7.858  -0.959   0.203  0.5008 -0.5821 -0.4552
  556MOL0     C74968   7.989  -0.896   0.175 -0.1699 -0.4426  0.3641
  556MOL0    Cl74969   8.126  -1.000   0.117 -0.2449 -0.3133  0.0812
  556MOL0     C74970   7.247  -0.317   0.482  0.6967  0.5668  0.1480
  556MOL0     C74971   7.182  -0.252   0.587  0.5140  0.2631 -0.6197
  556MOL0     O74972   7.192  -0.159   0.870 -0.0011 -0.3055 -0.3559
  556MOL0     C74973   6.868  -0.094   0.931  0.1277 -0.0549  0.3683
  556MOL0     C74974   6.787  -0.044   1.026 -0.3131  0.2522 -0.1993
  556MOL0     N74975   6.387   0.366   1.274  0.0271  0.1663 -0.0152
  556MOL0     N74976   6.298   0.438   1.331 -0.1378 -0.6792 -0.7565
  556MOL0     C74977   5.228   0.658   1.550 -0.6083 -0.0420  0.4205
  556MOL0     C74978   5.095   0.685   1.583 -0.2408 -0.2121  1.4036
  556MOL0     C74979   4.659   0.738   1.611  0.4054  0.1432  0.3851
  556MOL0     C74980   4.571   0.658   1.533  0.2781 -0.7304 -0.8699
  556MOL0     C74981   4.430   0.656   1.561 -0.1805  0.2185  0.2048
  556MOL0     C74982   4.369   0.736   1.648  0.1576 -0.2847 -0.5100
  556MOL0     O74983   4.231   0.734   1.664 -0.3837 -0.5230 -0.6323
  556MOL0     C74984   4.165   0.820   1.759  0.8380  0.3210 -0.2669
  556MOL0     C74985   4.184   0.758   1.901 -1.0608  0.7431 -0.1119
  556MOL0     C74986   4.111   0.827   2.015 -1.2452  0.1628  0.7864
  556MOL0     C74987   3.969   0.862   1.983  0.2483 -0.1635 -0.3546
  556MOL0     C74988   3.900   0.881   2.108  0.7849  0.0640 -0.8221
  556MOL0     C74989   3.863   0.884   2.227 -0.3649 -0.5470 -0.3428
  556MOL0     C74990   4.459   0.807   1.731  1.2278  0.9076 -0.1874
  556MOL0     C74991   4.600   0.819   1.720  0.3090  0.9947 -0.2403
  556MOL0     C74992   4.683   0.901   1.806 -0.7232 -0.6023  0.2535
  556MOL0     H74993   4.952   0.405   1.513 -0.3864  0.6713  2.7766
  556MOL0     H74994   5.193   0.332   1.476  1.3051  0.7490 -0.3063
  556MOL0     H74995   5.488   0.654   1.574  1.2842  2.1040 -2.0572
  556MOL0     H74996   5.590   0.509   1.552  1.1919 -2.4142 -1.0401
  556MOL0     H74997   5.459   0.699   1.339  0.5039  2.2283  1.1370
  556MOL0     H74998   5.531   0.542   1.300  0.2087 -1.0973  0.9762
  556MOL0     H74999   5.685   0.772   1.430  1.7659 -0.8840 -0.5148
  556MOL0     H75000   5.670   0.753   1.254 -1.1749 -2.2538 -1.4035
  556MOL0     H75001   5.811   0.580   1.452  3.6860  1.1590  0.8541
  556MOL0     H75002   5.774   0.521   1.284 -0.6213  2.1497 -2.3779
  556MOL0     H75003   5.887   0.705   1.184 -2.6404 -0.1465  0.7344
  556MOL0     H75004   5.913   0.786   1.334 -0.9996  1.0202 -1.6012
  556MOL0     H75005   6.044   0.580   1.429  0.3709 -2.6255 -1.2684
  556MOL0     H75006   6.062   0.530   1.273 -1.8501 -1.2919  1.2488
  556MOL0     H75007   6.141   0.828   1.330 -2.6230 -0.4162 -4.4140
  556MOL0     H75008   6.204   0.721   1.210 -0.7533  1.7602 -0.5569
  556MOL0     H75009   6.339   0.775   1.412 -2.3595  1.5955 -0.1556
  556MOL0     H75010   6.238   0.663   1.504  1.5647 -1.9039  0.6927
  556MOL0     H75011   6.556   0.637   1.363  0.8683 -1.0254 -0.5023
  556MOL0     H75012   6.636   0.305   1.196  0.7595 -1.8379  3.6328
  556MOL0     H75013   6.707   0.471   1.220  0.1946 -0.5653 -2.4843
  556MOL0     H75014   6.764   0.414   1.433 -1.9346  1.2058 -0.5338
  556MOL0     H75015   6.625   0.301   1.458  1.5388  1.5756  2.4503
  556MOL0     H75016   6.890   0.233   1.450  0.3356 -0.0873 -0.9389
  556MOL0     H75017   6.886   0.239   1.287  2.0810 -0.4347  0.8618
  556MOL0     H75018   6.674   0.088   1.417 -1.3755 -1.1012 -0.9508
  556MOL0     H75019   6.833   0.009   1.400  3.0469  4.1107  1.7761
  556MOL0     H75020   6.997  -0.021   1.292 -2.4519  0.2271  0.3369
  556MOL0     H75021   7.150  -0.138   1.106 -0.0073  0.1232  2.2459
  556MOL0     H75022   7.048  -0.532   0.734  2.8908  0.1766  0.9569
  556MOL0     H75023   7.153  -0.643   0.551 -0.2139 -0.4304 -1.7154
  556MOL0     H75024   7.213  -0.705   0.362 -3.1718  3.1639 -0.1032
  556MOL0     H75025   7.324  -0.654   0.238 -0.9600  3.5843 -0.3959
  556MOL0     H75026   7.416  -0.686   0.536  3.2861  2.2948  0.0977
  556MOL0     H75027   7.418  -0.804   0.408 -1.1062  0.7656  0.5476
  556MOL0     H75028   7.552  -0.525   0.362 -1.9687 -0.0927 -2.9156
  556MOL0     H75029   7.647  -0.664   0.425 -0.7497 -1.1559  0.8075
  556MOL0     H75030   7.584  -0.589   0.146  0.1364  0.8617  0.4102
  556MOL0     H75031   7.506  -0.747   0.178 -0.8506  1.7976 -1.6104
  556MOL0     H75032   7.811  -0.668   0.208 -1.3492  1.5317  1.1419
  556MOL0     H75033   7.727  -0.773   0.086 -2.0227 -1.3194  0.5837
  556MOL0     H75034   7.808  -0.818   0.358 -1.6911 -0.8135  0.9808
  556MOL0     H75035   7.668  -0.914   0.297 -0.7881  0.4938  0.6083
  556MOL0     H75036   7.803  -0.995   0.115 -2.8994 -1.1071  1.7223
  556MOL0     H75037   7.860  -1.047   0.267  3.0815 -1.5735 -1.7375
  556MOL0     H75038   7.982  -0.810   0.108 -0.4730  0.1374  1.1228
  556MOL0     H75039   8.014  -0.862   0.276 -0.3699  3.3552 -0.6951
  556MOL0     H75040   7.296  -0.260   0.403 -0.9645 -0.1009 -1.4447
  556MOL0     H75041   7.188  -0.145   0.606  0.9913  0.2396 -0.6064
  556MOL0     H75042   6.823  -0.117   0.835  0.5516  1.1133 -0.1411
  556MOL0     H75043   6.684  -0.025   0.995 -1.3710 -1.1893  2.1315
  556MOL0     H75044   5.302   0.738   1.544  0.4180 -0.8618  1.6558
  556MOL0     H75045   5.065   0.780   1.624 -3.0873 -0.1943 -0.4818
  556MOL0     H75046   4.613   0.594   1.456  0.9830 -2.7779  1.0948
  556MOL0     H75047   4.366   0.606   1.489 -1.8470  3.2824 -0.6220
  556MOL0     H75048   4.060   0.831   1.733  0.5177  0.1325  0.9108
  556MOL0     H75049   4.203   0.923   1.759 -3.6503  2.2082 -2.4025
  556MOL0     H75050   4.288   0.762   1.934 -0.2346 -0.1486 -2.4330
  556MOL0     H75051   4.150   0.654   1.895 -2.3497  0.8848  2.8411
  556MOL0     H75052   4.168   0.907   2.064 -1.4553 -0.6902  2.5116
  556MOL0     H75053   4.097   0.749   2.090  1.0152  0.0543  1.1759
  556MOL0     H75054   3.962   0.952   1.922 -1.3114 -0.6703 -0.9542
  556MOL0     H75055   3.911   0.785   1.931  0.4525  1.0478 -2.4755
  556MOL0     H75056   3.850   0.906   2.331 -0.8409  0.4731 -0.6039
  556MOL0     H75057   4.418   0.869   1.810  1.2317 -0.9767  1.3749
  556MOL0     H75058   4.716   0.991   1.754 -4.3313  1.0125  0.4525
  556MOL0     H75059   4.624   0.936   1.891 -1.2077 -1.1163  0.1407
  556MOL0     H75060   4.772   0.856   1.852 -1.3820  0.9362  3.3078
  557MOL0     O75061   1.211   0.664   4.354  1.0701 -0.2114 -0.0441
  557MOL0     C75062   1.316   0.627   4.401  0.5895  0.8356  0.2838
  557MOL0     O75063   1.435   0.610   4.333  0.1810  0.5458 -0.6293
  557MOL0     C75064   1.450   0.586   4.202 -0.0015  0.2856 -0.1638
  557MOL0     C75065   1.575   0.605   4.156  0.1350  0.0255 -0.6552
  557MOL0     C75066   1.612   0.560   4.029  0.1293  0.3854 -0.0332
  557MOL0     C75067   1.514   0.517   3.941  0.3312  0.2166  0.1624
  557MOL0     O75068   1.551   0.502   3.805  0.0038 -0.1380 -0.4300
  557MOL0     C75069   1.450   0.476   3.705 -0.1740 -0.0935 -0.0617
  557MOL0     C75070   1.503   0.487   3.568  0.0001  0.0009  1.1011
  557MOL0     C75071   1.613   0.388   3.526 -0.2546 -0.5648 -0.3707
  557MOL0     C75072   1.692   0.416   3.393  0.0015 -0.3018  0.2983
  557MOL0     C75073   1.796   0.535   3.399 -0.2524 -1.1728  0.1434
  557MOL0     C75074   1.866   0.560   3.253  0.5442  0.9431 -0.7691
  557MOL0     C75075   2.000   0.635   3.257  0.6153  0.9114 -0.0109
  557MOL0     C75076   2.116   0.539   3.287 -0.3842 -0.1075  0.5247
  557MOL0     N75077   2.240   0.606   3.241 -0.0838  0.6492  0.1015
  557MOL0     C75078   2.312   0.579   3.127  1.3219  0.3748 -0.4338
  557MOL0     C75079   2.427   0.649   3.153 -0.0638 -0.0466  0.5506
  557MOL0     C75080   2.544   0.674   3.063 -0.3329 -0.5064  0.4672
  557MOL0     C75081   2.648   0.562   3.059 -0.8853  0.0479 -0.1202
  557MOL0     C75082   2.733   0.566   2.936 -0.6461  0.7139  0.6079
  557MOL0     C75083   2.821   0.434   2.918  0.0928  0.1272  0.4556
  557MOL0     O75084   2.940   0.471   2.846  0.5555  0.8664 -0.4409
  557MOL0     C75085   3.039   0.376   2.827 -1.2573  0.5711 -0.0354
  557MOL0     C75086   3.050   0.249   2.892 -0.2966 -0.9929 -0.0596
  557MOL0     C75087   3.161   0.170   2.875  0.7280  0.2687 -0.3454
  557MOL0     C75088   3.261   0.217   2.783  0.4684 -0.1008 -0.0180
  557MOL0     C75089   3.383   0.135   2.757 -0.0159  0.3028  0.1029
  557MOL0     O75090   3.458   0.166   2.642 -0.4058  0.4001 -0.6262
  557MOL0     C75091   3.567   0.102   2.604 -0.1732  0.8662 -0.4657
  557MOL0     C75092   3.607   0.097   2.466  0.3826  0.4246 -0.0419
  557MOL0     C75093   3.729   0.031   2.425 -0.2499 -0.5503  0.6308
  557MOL0     C75094   3.809  -0.028   2.512 -0.2830 -0.1328 -0.5343
  557MOL0     O75095   3.907  -0.113   2.476  0.1563 -0.1915  0.7164
  557MOL0     C75096   3.999  -0.072   2.374  0.5795 -0.7747  0.1022
  557MOL0     C75097   4.123  -0.144   2.408 -0.8388  0.6558  0.9024
  557MOL0     C75098   4.229  -0.131   2.306  0.5840 -0.7637  0.7949
  557MOL0     C75099   4.361  -0.180   2.366 -0.4471  0.3831 -0.4323
  557MOL0     C75100   4.476  -0.078   2.356  0.6302  0.7073  0.4559
  557MOL0     C75101   4.498  -0.007   2.222 -0.4912  0.1802  0.3803
  557MOL0     C75102   4.633   0.073   2.209  0.5055 -0.0632 -0.1512
  557MOL0     C75103   4.645   0.148   2.079  0.7484  0.6219  0.5291
  557MOL0    Cl75104   4.819   0.162   2.010 -0.0711 -0.0633  0.2706
  557MOL0     C75105   3.774  -0.015   2.647  0.1338  1.2237  0.4824
  557MOL0     C75106   3.661   0.048   2.695 -0.3687  0.4057 -0.7533
  557MOL0     O75107   3.396   0.035   2.827 -0.5141 -0.3414 -0.1067
  557MOL0     C75108   3.254   0.343   2.732 -0.4082 -0.3451 -0.1437
  557MOL0     C75109   3.143   0.419   2.749  0.9119  0.6872 -1.1177
  557MOL0     N75110   2.411   0.709   3.269  0.2715  0.0553 -0.0960
  557MOL0     N75111   2.302   0.685   3.329  0.3351  0.3209 -0.1128
  557MOL0     C75112   1.385   0.517   3.979  0.8015  1.0190  0.5602
  557MOL0     C75113   1.350   0.551   4.110 -0.2109  0.4157  0.5201
  557MOL0     C75114   1.327   0.629   4.552  0.5264  0.1317 -0.2583
  557MOL0     C75115   1.454   0.673   4.599  0.3207  0.8256  0.5065
  557MOL0     C75116   1.480   0.679   4.739  0.6588 -0.1841  0.2596
  557MOL0     C75117   1.370   0.648   4.831 -0.0066  0.5468  0.1840
  557MOL0     O75118   1.392   0.675   4.962 -0.6787 -0.2224  0.3373
  557MOL0     C75119   1.289   0.757   5.018  0.7357 -0.6106 -0.0692
  557MOL0     C75120   1.340   0.899   5.023 -1.6719  0.0430  0.4203
  557MOL0     C75121   1.449   0.929   5.127 -0.7687  0.2783  0.4031
  557MOL0     C75122   1.481   1.077   5.124 -0.4568  0.5290  0.4655
  557MOL0     C75123   1.608   1.098   5.188 -1.2674 -0.7413 -0.2364
  557MOL0     C75124   1.720   1.116   5.228  0.2258  0.3885 -0.4911
  557MOL0     C75125   1.255   0.599   4.780 -0.3279  0.3703 -0.2600
  557MOL0     C75126   1.228   0.588   4.640  0.3506 -0.3185  0.2758
  557MOL0     C75127   1.099   0.529   4.592  0.3931 -0.7064 -0.4635
  557MOL0     H75128   1.645   0.648   4.227 -0.4678  1.3262 -0.8199
  557MOL0     H75129   1.714   0.570   3.993 -0.1264 -0.4740 -1.0362
  557MOL0     H75130   1.408   0.375   3.713  2.2119 -1.0847  1.2059
  557MOL0     H75131   1.361   0.538   3.714  0.8842  1.5763 -0.5932
  557MOL0     H75132   1.519   0.593   3.550 -0.9954  0.5946  3.3126
  557MOL0     H75133   1.417   0.473   3.502  0.2021 -0.7503  0.9802
  557MOL0     H75134   1.565   0.289   3.525 -1.9580  0.2359 -1.0093
  557MOL0     H75135   1.686   0.395   3.607 -0.7681 -2.9941  0.3785
  557MOL0     H75136   1.746   0.325   3.364 -0.8308 -1.1932  1.4354
  557MOL0     H75137   1.624   0.442   3.311 -1.0331 -1.9447  0.5862
  557MOL0     H75138   1.742   0.629   3.414  1.0603 -0.1686 -1.1450
  557MOL0     H75139   1.875   0.515   3.472 -0.9681 -0.4905  1.1267
  557MOL0     H75140   1.892   0.463   3.209 -1.1336 -0.8500  1.8494
  557MOL0     H75141   1.788   0.611   3.195 -1.8562 -0.5004  0.9677
  557MOL0     H75142   1.997   0.726   3.318 -0.2466  0.6420  0.3573
  557MOL0     H75143   2.007   0.656   3.150 -2.1967 -1.2303 -0.7347
  557MOL0     H75144   2.124   0.513   3.393  1.8622 -0.3717  0.3500
  557MOL0     H75145   2.107   0.445   3.233  0.4518 -0.5543  1.1269
  557MOL0     H75146   2.276   0.518   3.044 -0.9059 -0.0936  0.7786
  557MOL0     H75147   2.509   0.688   2.960  1.9426 -0.6934 -0.3830
  557MOL0     H75148   2.599   0.761   3.098 -0.2701  0.2779 -1.4380
  557MOL0     H75149   2.713   0.559   3.147  0.7351 -1.4686 -1.2852
  557MOL0     H75150   2.599   0.464   3.054  0.2067 -0.4719 -1.1157
  557MOL0     H75151   2.810   0.641   2.955  3.4219 -2.3607 -2.0306
  557MOL0     H75152   2.684   0.587   2.840 -0.1311  0.3046  0.2465
  557MOL0     H75153   2.767   0.358   2.861 -1.6268  1.6828 -0.0730
  557MOL0     H75154   2.845   0.385   3.013 -0.8817  1.5966  1.5051
  557MOL0     H75155   2.972   0.225   2.965 -0.5474  1.8585  0.7346
  557MOL0     H75156   3.156   0.081   2.937 -3.6244  0.4750 -0.0712
  557MOL0     H75157   3.544   0.143   2.390 -2.3056 -0.8112  1.2712
  557MOL0     H75158   3.748   0.014   2.320 -1.3378 -4.0651  0.8462
  557MOL0     H75159   3.973  -0.097   2.270 -1.3136 -1.3625  0.6813
  557MOL0     H75160   4.021   0.034   2.385 -0.0718 -0.5990 -0.2669
  557MOL0     H75161   4.156  -0.098   2.501 -1.9240 -0.7028  1.9959
  557MOL0     H75162   4.105  -0.250   2.427  1.2619  0.0793 -0.0617
  557MOL0     H75163   4.190  -0.185   2.219  0.0019  2.6052 -1.2227
  557MOL0     H75164   4.234  -0.028   2.272  2.9239 -2.1065 -3.7469
  557MOL0     H75165   4.393  -0.266   2.306  0.7398  1.0932 -0.8424
  557MOL0     H75166   4.365  -0.201   2.473  2.3099 -0.4061 -0.6234
  557MOL0     H75167   4.571  -0.129   2.375  1.2869  1.5621 -0.4265
  557MOL0     H75168   4.459  -0.011   2.442 -0.0216  0.2740  0.6700
  557MOL0     H75169   4.512  -0.086   2.148  3.0148  1.2983 -0.3553
  557MOL0     H75170   4.414   0.053   2.187  0.3680  1.5928  0.6301
  557MOL0     H75171   4.711   0.002   2.239  0.0567 -0.4868  0.0426
  557MOL0     H75172   4.640   0.153   2.283 -2.9528 -1.1547  1.5668
  557MOL0     H75173   4.584   0.099   2.002 -1.7315  2.7026  1.0633
  557MOL0     H75174   4.598   0.246   2.088  2.4312  1.9550 -3.1501
  557MOL0     H75175   3.839  -0.074   2.711 -1.8107  1.2456  2.6176
  557MOL0     H75176   3.657   0.042   2.803  1.5440  1.5802 -0.5931
  557MOL0     H75177   3.337   0.379   2.672  0.4193  0.3736  1.3907
  557MOL0     H75178   3.128   0.515   2.701 -0.7701  1.2967  0.5107
  557MOL0     H75179   1.304   0.497   3.909 -0.6952 -0.6808  2.6337
  557MOL0     H75180   1.247   0.539   4.143  0.3334 -4.1520  1.2700
  557MOL0     H75181   1.530   0.712   4.532 -0.5903  0.0188 -1.0266
  557MOL0     H75182   1.571   0.719   4.781  1.4786 -2.6272  1.0084
  557MOL0     H75183   1.269   0.733   5.123  2.0659 -1.8446 -0.0640
  557MOL0     H75184   1.192   0.751   4.969 -0.8274  1.0795  2.5591
  557MOL0     H75185   1.254   0.961   5.052  0.6559  3.0539  1.4797
  557MOL0     H75186   1.375   0.933   4.926 -2.5203 -0.1758  0.0268
  557MOL0     H75187   1.532   0.865   5.095 -0.7770  0.0524  0.8258
  557MOL0     H75188   1.424   0.911   5.232  1.3190 -0.4025  0.8376
  557MOL0     H75189   1.480   1.119   5.023  1.3353 -1.7812 -0.6161
  557MOL0     H75190   1.411   1.133   5.187 -0.9613  3.6000 -2.5512
  557MOL0     H75191   1.815   1.144   5.270 -0.1733  3.0266 -1.1433
  557MOL0     H75192   1.175   0.561   4.843  1.1092 -1.0233  0.7744
  557MOL0     H75193   1.039   0.483   4.672 -3.1054  3.0702 -0.5893
  557MOL0     H75194   1.044   0.612   4.546  2.3241  0.6406 -0.4612
  557MOL0     H75195   1.115   0.468   4.503 -0.5341  2.0371 -2.6582
  558MOL0     O75196   9.022   6.978   3.746  0.6451 -0.3755 -0.3413
  558MOL0     C75197   8.994   6.920   3.646 -1.6006 -0.2272  0.2786
  558MOL0     O75198   9.087   6.836   3.584  0.6228  0.8182 -0.3660
  558MOL0     C75199   9.158   6.749   3.669 -0.1794  0.9522 -0.3725
  558MOL0     C75200   9.275   6.690   3.618 -0.8183 -0.4346  0.0974
  558MOL0     C75201   9.358   6.612   3.693  0.9917  0.8079 -0.0404
  558MOL0     C75202   9.315   6.568   3.819  0.0204  0.3333  0.3208
  558MOL0     O75203   9.389   6.480   3.902 -0.1399  0.0797  0.1934
  558MOL0     C75204   9.531   6.502   3.916  0.6299 -0.5131 -0.2226
  558MOL0     C75205   9.570   6.536   4.061 -0.4827  0.2214  1.2477
  558MOL0     C75206   9.721   6.540   4.087  0.1072 -0.3080  0.5402
  558MOL0     C75207   9.750   6.634   4.212  0.4204 -0.0122 -0.0982
  558MOL0     C75208   9.904   6.657   4.224  0.6479  0.2302 -0.0797
  558MOL0     C75209   9.920   6.781   4.301 -0.5124  0.5196 -0.9085
  558MOL0     C75210  10.066   6.812   4.307  0.1556  0.1284  0.3488
  558MOL0     C75211  10.110   6.899   4.421  0.4779  0.0164 -0.6218
  558MOL0     N75212  10.250   6.920   4.405  0.5493 -0.1316 -0.2236
  558MOL0     C75213  10.356   6.825   4.417  0.9832 -0.3155 -0.3209
  558MOL0     C75214  10.464   6.904   4.389 -0.4031 -0.8775 -0.4743
  558MOL0     C75215  10.601   6.853   4.378 -0.4425 -0.0543  0.4615
  558MOL0     C75216  10.702   6.955   4.434  0.2359 -0.1044 -0.7693
  558MOL0     C75217  10.841   6.902   4.451 -0.3902 -0.0248  0.3490
  558MOL0     C75218  10.956   7.003   4.447 -0.6229 -0.7520  0.2849
  558MOL0     O75219  10.934   7.092   4.333 -0.2644 -0.5675  0.4999
  558MOL0     C75220  11.044   7.151   4.280 -0.0841  0.8221  0.6859
  558MOL0     C75221  11.171   7.178   4.338 -0.2787  0.3379 -0.0334
  558MOL0     C75222  11.271   7.258   4.279 -0.8679 -0.4499  0.3427
  558MOL0     C75223  11.252   7.311   4.145  0.0890  0.0280  0.4213
  558MOL0     C75224  11.365   7.366   4.075 -0.5842 -0.2823  0.6889
  558MOL0     O75225  11.325   7.424   3.959 -0.4335  0.1361  0.1450
  558MOL0     C75226  11.404   7.489   3.875  0.2067 -0.0013 -0.2311
  558MOL0     C75227  11.360   7.606   3.820  0.5740 -0.2466  1.0985
  558MOL0     C75228  11.431   7.674   3.725  0.0824 -0.1085  0.0134
  558MOL0     C75229  11.558   7.640   3.693  0.1168  0.2651 -0.0601
  558MOL0     O75230  11.629   7.697   3.595  0.2895  0.3668  0.1898
  558MOL0     C75231  11.612   7.836   3.565 -0.0806 -0.4008 -0.6286
  558MOL0     C75232  11.739   7.889   3.489 -0.0861 -0.3800 -0.3238
  558MOL0     C75233  11.767   7.834   3.355  0.1276  0.5139 -0.1689
  558MOL0     C75234  11.891   7.913   3.298  0.4310 -0.4687  0.5837
  558MOL0     C75235  11.969   7.832   3.193 -0.6716  0.2634  0.5500
  558MOL0     C75236  12.069   7.932   3.125 -0.4947  0.6011  0.0838
  558MOL0     C75237  12.184   7.859   3.042  0.8751 -0.2919  0.0690
  558MOL0     C75238  12.261   7.969   2.956  0.0688 -0.3367 -0.1659
  558MOL0    Cl75239  12.176   8.129   2.923 -0.1113 -0.0635  0.2119
  558MOL0     C75240  11.613   7.530   3.755  0.5416  0.2569  0.2756
  558MOL0     C75241  11.539   7.449   3.837  0.3663  0.0424  0.6185
  558MOL0     O75242  11.471   7.386   4.128  0.0459  0.0721  0.5299
  558MOL0     C75243  11.122   7.295   4.087 -0.0437 -1.1194 -0.7618
  558MOL0     C75244  11.029   7.210   4.149  0.1300  0.0960  0.2329
  558MOL0     N75245  10.427   7.036   4.370  0.0610  0.3277  0.1456
  558MOL0     N75246  10.295   7.041   4.366 -0.3386 -0.0463  0.2493
  558MOL0     C75247   9.186   6.605   3.861 -0.4467 -0.6202 -0.8464
  558MOL0     C75248   9.108   6.707   3.798 -0.8621  0.5615 -0.2247
  558MOL0     C75249   8.857   6.930   3.589 -0.0530 -0.0833 -0.8940
  558MOL0     C75250   8.755   6.926   3.688  0.0780 -0.7770  0.0319
  558MOL0     C75251   8.624   6.914   3.659 -0.1644 -0.7050 -0.1298
  558MOL0     C75252   8.583   6.904   3.525  0.5407  0.9545  1.0998
  558MOL0     O75253   8.454   6.872   3.488 -0.1864 -0.0054 -0.0095
  558MOL0     C75254   8.358   6.846   3.584  0.7650 -0.0793  0.4987
  558MOL0     C75255   8.227   6.777   3.531  0.0487 -0.2548 -0.2975
  558MOL0     C75256   8.167   6.839   3.408 -0.2610  0.0983  0.3442
  558MOL0     C75257   8.156   6.986   3.412  0.3774 -0.6598 -0.3983
  558MOL0     C75258   8.056   7.033   3.318 -0.3349 -0.4006  0.8406
  558MOL0     C75259   7.969   7.061   3.244  0.5266 -0.3653 -0.1708
  558MOL0     C75260   8.677   6.917   3.427  0.1497 -0.2567 -0.1044
  558MOL0     C75261   8.819   6.927   3.457  0.9210  1.3237  0.7490
  558MOL0     C75262   8.919   6.940   3.339 -0.4859 -0.3954 -0.1666
  558MOL0     H75263   9.299   6.735   3.522 -1.9665  1.1109  0.4903
  558MOL0     H75264   9.446   6.569   3.647  0.3205  3.5244 -4.5568
  558MOL0     H75265   9.594   6.418   3.886  0.8708  0.5650 -3.1264
  558MOL0     H75266   9.561   6.592   3.862  0.1692 -1.0493 -1.3937
  558MOL0     H75267   9.528   6.452   4.118  0.0577  0.0477  1.3945
  558MOL0     H75268   9.526   6.630   4.095  0.2630  0.5265  1.3820
  558MOL0     H75269   9.779   6.559   3.996  1.4581 -1.2914  1.1563
  558MOL0     H75270   9.755   6.441   4.118 -1.0628 -0.3397  1.7943
  558MOL0     H75271   9.708   6.729   4.179 -2.0528 -1.4021 -1.2726
  558MOL0     H75272   9.700   6.588   4.298  0.8048 -2.5978 -1.1644
  558MOL0     H75273   9.968   6.572   4.249 -2.9076 -2.6618 -0.1241
  558MOL0     H75274   9.926   6.678   4.119 -1.5000  1.2753 -0.3689
  558MOL0     H75275   9.875   6.861   4.241 -1.8857 -0.1004 -0.7315
  558MOL0     H75276   9.869   6.794   4.396  1.0172 -0.7184  0.1365
  558MOL0     H75277  10.072   6.880   4.222 -1.3084  0.2212  0.2867
  558MOL0     H75278  10.135   6.732   4.279  0.4888  0.6109 -0.2230
  558MOL0     H75279  10.057   6.993   4.432  0.8917  0.4002 -1.7168
  558MOL0     H75280  10.088   6.843   4.512  1.2191  1.3478  0.4133
  558MOL0     H75281  10.347   6.717   4.423 -2.0053 -0.1167  0.3259
  558MOL0     H75282  10.613   6.756   4.427  3.1808 -0.4846 -1.0013
  558MOL0     H75283  10.620   6.820   4.275 -1.9008 -3.3334  1.1446
  558MOL0     H75284  10.693   7.050   4.381 -2.5705  1.0167  1.4044
  558MOL0     H75285  10.666   6.989   4.532 -2.5215  0.3251 -1.8318
  558MOL0     H75286  10.852   6.835   4.365 -1.8090  2.4402 -1.9242
  558MOL0     H75287  10.854   6.843   4.543  1.4195 -0.7713 -0.3345
  558MOL0     H75288  11.053   6.953   4.445  0.7480  1.7669 -0.5344
  558MOL0     H75289  10.940   7.061   4.539  1.4233  3.3388 -1.6441
  558MOL0     H75290  11.198   7.149   4.439 -1.3940 -0.7464 -0.0275
  558MOL0     H75291  11.371   7.275   4.320 -0.5384 -0.7162 -0.3376
  558MOL0     H75292  11.260   7.645   3.839  0.4181 -0.6560  1.1253
  558MOL0     H75293  11.388   7.762   3.679  0.7510  1.1329  1.6550
  558MOL0     H75294  11.532   7.850   3.491  1.0772  0.8154 -1.7050
  558MOL0     H75295  11.587   7.898   3.651 -0.8151 -0.1728 -0.9993
  558MOL0     H75296  11.720   7.996   3.478  4.0858  0.4335 -1.6276
  558MOL0     H75297  11.831   7.884   3.548 -1.1863  1.8238  1.7833
  558MOL0     H75298  11.780   7.726   3.355  1.3472  0.6525 -0.5992
  558MOL0     H75299  11.679   7.836   3.290 -0.7235 -2.7711  0.7344
  558MOL0     H75300  11.954   7.942   3.382 -2.2434  0.1214  2.5318
  558MOL0     H75301  11.863   8.007   3.249  0.8954 -1.1730 -1.1018
  558MOL0     H75302  11.901   7.784   3.122  0.3629 -0.7148  0.1821
  558MOL0     H75303  12.026   7.750   3.237 -0.6269 -1.8743 -3.0774
  558MOL0     H75304  12.014   7.996   3.055  0.9623  0.5157 -1.1913
  558MOL0     H75305  12.117   7.994   3.202 -0.5424  0.4891  0.2036
  558MOL0     H75306  12.139   7.779   2.982  0.9799 -2.0847  2.2390
  558MOL0     H75307  12.255   7.812   3.111  0.1890 -0.7696  0.4667
  558MOL0     H75308  12.357   7.990   3.003  0.1307  2.9444 -1.4822
  558MOL0     H75309  12.299   7.932   2.860  4.2214  0.0915  1.1261
  558MOL0     H75310  11.712   7.498   3.723  0.7967  0.9111  0.3929
  558MOL0     H75311  11.584   7.366   3.890  1.6523  1.6690  2.1852
  558MOL0     H75312  11.107   7.347   3.993  0.6087 -1.4992 -1.0839
  558MOL0     H75313  10.933   7.204   4.100  0.9372 -0.6512 -1.3016
  558MOL0     H75314   9.154   6.573   3.960  2.1622 -0.2636  0.1697
  558MOL0     H75315   9.015   6.731   3.849 -0.7267 -1.7138  1.2297
  558MOL0     H75316   8.786   6.928   3.792 -0.2799 -3.4346  0.2713
  558MOL0     H75317   8.551   6.921   3.739  0.7391  3.8428  0.5624
  558MOL0     H75318   8.329   6.939   3.632 -2.1388 -0.7899  0.2821
  558MOL0     H75319   8.393   6.776   3.660  1.7494  0.0065  0.1418
  558MOL0     H75320   8.147   6.789   3.605 -0.3417  1.3031 -0.9231
  558MOL0     H75321   8.245   6.678   3.488 -2.8425 -0.9042 -0.2453
  558MOL0     H75322   8.070   6.788   3.400 -0.2944 -0.3330  2.8085
  558MOL0     H75323   8.222   6.816   3.316  1.7090 -1.5034  1.8263
  558MOL0     H75324   8.134   7.029   3.510  1.2886  0.9490 -0.8512
  558MOL0     H75325   8.250   7.038   3.387 -0.6479  1.9645  0.8029
  558MOL0     H75326   7.886   7.068   3.177 -0.5185 -1.2574  1.0143
  558MOL0     H75327   8.643   6.907   3.325  0.4887 -1.3739 -0.1236
  558MOL0     H75328   8.983   7.028   3.350 -0.4342 -0.3311 -0.9572
  558MOL0     H75329   8.985   6.852   3.341 -2.5642 -2.0323 -0.2092
  558MOL0     H75330   8.861   6.943   3.246 -3.2716 -0.3586  1.4749
  559MOL0     O75331   8.660   7.689   5.248  0.0240 -0.1481  0.2409
  559MOL0     C75332   8.635   7.762   5.342  0.9748 -0.2641 -1.4616
  559MOL0     O75333   8.720   7.809   5.427 -0.5647 -0.0816  0.5187
  559MOL0     C75334   8.854   7.808   5.389 -0.9942 -0.5708 -0.3328
  559MOL0     C75335   8.918   7.888   5.292  0.7736  0.0053 -0.3301
  559MOL0     C75336   9.058   7.895   5.276  0.0730  0.6096  0.4780
  559MOL0     C75337   9.137   7.828   5.375  0.1268  0.2486  0.3059
  559MOL0     O75338   9.273   7.809   5.375 -0.6083 -0.9144 -0.3937
  559MOL0     C75339   9.340   7.797   5.250  1.0478  0.3445  0.1818
  559MOL0     C75340   9.448   7.898   5.249  0.3978  0.2076  0.3514
  559MOL0     C75341   9.565   7.853   5.160  0.4023  0.4630  0.8392
  559MOL0     C75342   9.697   7.933   5.181 -0.0194  0.0288  0.1931
  559MOL0     C75343   9.805   7.904   5.075  0.9582 -0.5239  0.6148
  559MOL0     C75344   9.903   7.809   5.128 -0.3128  0.2642 -0.1928
  559MOL0     C75345  10.025   7.810   5.044 -0.1699 -0.0405  0.7073
  559MOL0     C75346  10.133   7.709   5.092 -0.4356 -0.3363  0.1426
  559MOL0     N75347  10.255   7.717   5.019 -0.0842  0.5729  0.9318
  559MOL0     C75348  10.276   7.767   4.894 -0.1231 -0.4986 -0.3578
  559MOL0     C75349  10.407   7.736   4.867  0.2041 -0.6471 -0.3376
  559MOL0     C75350  10.480   7.754   4.735 -0.1448  0.2060 -0.0863
  559MOL0     C75351  10.559   7.883   4.761  0.6450  0.0894 -0.2324
  559MOL0     C75352  10.613   7.940   4.630 -0.5947 -0.0875 -0.4441
  559MOL0     C75353  10.650   8.085   4.655 -0.7728 -0.1499  0.1365
  559MOL0     O75354  10.761   8.094   4.752 -0.4388 -0.9471 -0.3133
  559MOL0     C75355  10.824   8.208   4.774  0.1266 -0.4656  0.2948
  559MOL0     C75356  10.776   8.337   4.736 -0.0180  0.8481  0.0333
  559MOL0     C75357  10.845   8.452   4.779 -0.1821 -0.3298 -1.1292
  559MOL0     C75358  10.966   8.446   4.850  0.2476 -0.9543  0.3194
  559MOL0     C75359  11.038   8.568   4.895  0.0287  0.2616  0.0529
  559MOL0     O75360  11.130   8.560   5.002  0.1498  0.1711 -0.6381
  559MOL0     C75361  11.226   8.657   5.031 -0.4778 -0.3938 -1.0493
  559MOL0     C75362  11.314   8.618   5.132 -0.4811  0.3309  0.1672
  559MOL0     C75363  11.435   8.695   5.163  0.3636  0.5238  0.8024
  559MOL0     C75364  11.458   8.821   5.091  1.1796 -0.0856 -0.2162
  559MOL0     O75365  11.557   8.914   5.099 -0.3413  0.2874 -0.3040
  559MOL0     C75366  11.664   8.900   5.196  0.0485 -1.1106 -0.0685
  559MOL0     C75367  11.795   8.834   5.134  0.7105 -0.0523  0.4333
  559MOL0     C75368  11.883   8.946   5.080 -0.0247 -0.5581  0.6253
  559MOL0     C75369  12.025   8.885   5.048 -0.1126 -0.6111  0.2281
  559MOL0     C75370  12.117   8.998   4.990  0.3221  0.2273  0.1120
  559MOL0     C75371  12.235   8.956   4.917 -0.7323  0.7957 -0.3366
  559MOL0     C75372  12.365   8.922   5.004  0.4993 -0.1519  1.2977
  559MOL0     C75373  12.470   8.857   4.915 -1.0400 -0.0626 -0.4211
  559MOL0    Cl75374  12.534   8.971   4.794  0.0225 -0.0612  0.3598
  559MOL0     C75375  11.355   8.858   4.992  0.6508  0.3159 -0.0199
  559MOL0     C75376  11.247   8.776   4.973  0.3227 -0.9440 -0.2824
  559MOL0     O75377  11.017   8.670   4.836 -0.3400  0.2924 -0.0692
  559MOL0     C75378  11.018   8.321   4.884  0.3705 -0.2006  0.3350
  559MOL0     C75379  10.939   8.208   4.845 -0.2055  0.2946 -0.4459
  559MOL0     N75380  10.463   7.667   4.980 -0.3162 -0.2140  0.8941
  559MOL0     N75381  10.376   7.671   5.069  0.1238  0.4686  0.9017
  559MOL0     C75382   9.072   7.778   5.482 -0.4212 -0.2720 -0.5234
  559MOL0     C75383   8.941   7.755   5.488  0.4004 -0.2877 -0.1532
  559MOL0     C75384   8.487   7.796   5.371 -0.4520  0.7904 -0.6718
  559MOL0     C75385   8.461   7.828   5.511 -0.8581  0.1546 -0.3481
  559MOL0     C75386   8.333   7.859   5.554 -0.3246 -0.6824 -0.0943
  559MOL0     C75387   8.220   7.846   5.471  0.9941  0.4268  0.6872
  559MOL0     O75388   8.097   7.882   5.528  0.6079 -0.1832  0.2644
  559MOL0     C75389   7.979   7.896   5.443  0.0200  0.4446  0.0942
  559MOL0     C75390   7.860   7.940   5.534  0.4110 -0.3208  0.2448
  559MOL0     C75391   7.789   8.061   5.479 -0.2315  0.3596 -0.7418
  559MOL0     C75392   7.734   8.032   5.335 -0.0115 -0.0791  0.3362
  559MOL0     C75393   7.633   8.139   5.300 -0.2157  0.0272  0.2395
  559MOL0     C75394   7.557   8.223   5.255 -0.1444 -0.2145 -1.0309
  559MOL0     C75395   8.244   7.804   5.337 -0.2008  0.0962  0.2348
  559MOL0     C75396   8.373   7.762   5.288  1.2960 -0.1163  0.2677
  559MOL0     C75397   8.374   7.703   5.142 -0.1153  0.8085  0.1590
  559MOL0     H75398   8.862   7.929   5.209  1.9142 -1.2773 -1.7887
  559MOL0     H75399   9.117   7.946   5.201 -0.4980  1.1449  0.3901
  559MOL0     H75400   9.385   7.698   5.249  0.9089  0.1921 -3.3490
  559MOL0     H75401   9.274   7.803   5.163 -0.5540  0.3399  1.3343
  559MOL0     H75402   9.491   7.904   5.350 -2.2568 -0.0788  1.5788
  559MOL0     H75403   9.416   7.998   5.220 -0.8864 -0.4474 -0.5831
  559MOL0     H75404   9.537   7.856   5.054 -0.2619  0.4695  1.0096
  559MOL0     H75405   9.596   7.752   5.191  1.3275 -0.6269 -3.0183
  559MOL0     H75406   9.683   8.041   5.180  3.8524  0.6864 -0.4086
  559MOL0     H75407   9.735   7.920   5.283  2.5544  1.0571 -0.5343
  559MOL0     H75408   9.756   7.881   4.980 -0.2697 -1.1760  1.3785
  559MOL0     H75409   9.864   7.997   5.076 -1.2786  0.9876  0.8783
  559MOL0     H75410   9.924   7.844   5.230 -1.7382  2.2394 -0.5215
  559MOL0     H75411   9.856   7.711   5.139 -2.7018  0.9161 -3.1723
  559MOL0     H75412  10.066   7.911   5.042  1.7381 -0.7126  2.5382
  559MOL0     H75413  10.011   7.775   4.941 -0.5686  1.7626  0.1167
  559MOL0     H75414  10.161   7.728   5.196 -0.3208 -0.8797  0.2173
  559MOL0     H75415  10.092   7.609   5.075 -1.3392  0.2225 -1.2000
  559MOL0     H75416  10.209   7.807   4.819 -0.8338 -1.7521 -0.4170
  559MOL0     H75417  10.540   7.670   4.699 -0.2568  0.0457  0.0959
  559MOL0     H75418  10.405   7.788   4.663 -1.0731  0.3742  0.9170
  559MOL0     H75419  10.477   7.947   4.793 -1.1182 -0.8180 -2.5643
  559MOL0     H75420  10.634   7.867   4.839 -0.7959  3.3255  2.0221
  559MOL0     H75421  10.533   7.926   4.557 -2.2390  1.5913  0.9422
  559MOL0     H75422  10.699   7.884   4.593 -0.4409  0.2639 -0.6261
  559MOL0     H75423  10.562   8.131   4.701 -1.2019 -1.6694  0.9160
  559MOL0     H75424  10.677   8.128   4.559  1.5051 -0.1463  0.7059
  559MOL0     H75425  10.671   8.347   4.712 -0.2938  1.8489  1.5355
  559MOL0     H75426  10.802   8.551   4.771  0.4846  0.4228  2.5610
  559MOL0     H75427  11.293   8.521   5.174 -1.7176 -1.1842 -3.4985
  559MOL0     H75428  11.513   8.649   5.224  0.2459  0.6144  1.0243
  559MOL0     H75429  11.691   8.997   5.240  1.7982 -2.8225  2.9761
  559MOL0     H75430  11.626   8.851   5.286  1.6219 -1.4504  0.4261
  559MOL0     H75431  11.850   8.786   5.216 -1.6985 -0.8833  1.6629
  559MOL0     H75432  11.770   8.760   5.058 -2.9188 -0.9637  2.2889
  559MOL0     H75433  11.826   8.984   4.995  0.1990 -2.4909 -0.4639
  559MOL0     H75434  11.891   9.025   5.154 -2.3543 -1.5730  2.1002
  559MOL0     H75435  12.021   8.807   4.972  1.9408  0.1696 -0.7766
  559MOL0     H75436  12.081   8.848   5.134  3.4631  0.2126 -1.5425
  559MOL0     H75437  12.148   9.062   5.073 -2.1685  1.5684  0.1258
  559MOL0     H75438  12.056   9.059   4.922  0.4287  1.6715  1.2654
  559MOL0     H75439  12.199   8.879   4.849  0.1285  0.1804 -0.1189
  559MOL0     H75440  12.267   9.036   4.850  0.6076 -1.7921 -2.9929
  559MOL0     H75441  12.342   8.860   5.092  3.4153 -2.2309  0.7245
  559MOL0     H75442  12.412   9.016   5.033 -0.2210  1.0672 -1.2046
  559MOL0     H75443  12.553   8.825   4.978 -1.7021 -2.6703 -0.7645
  559MOL0     H75444  12.431   8.773   4.856  2.3691  0.5738 -4.0022
  559MOL0     H75445  11.370   8.949   4.934  0.6008  2.3610  2.9260
  559MOL0     H75446  11.183   8.815   4.895  1.7849 -1.0255 -1.5616
  559MOL0     H75447  11.108   8.310   4.944 -0.6184 -0.8704  1.7579
  559MOL0     H75448  10.965   8.109   4.882 -2.8303 -0.0702  0.6599
  559MOL0     H75449   9.136   7.733   5.557 -1.7111 -3.7300 -1.2917
  559MOL0     H75450   8.899   7.697   5.569  0.3165 -0.0557 -0.0298
  559MOL0     H75451   8.550   7.826   5.573  1.2207  0.0107 -3.1400
  559MOL0     H75452   8.324   7.885   5.659  0.6537 -0.7092  0.0137
  559MOL0     H75453   7.950   7.800   5.398 -0.9638  1.5797 -1.8098
  559MOL0     H75454   7.999   7.971   5.367  0.2547 -0.7813 -1.0985
  559MOL0     H75455   7.907   7.970   5.628  0.6268 -1.0802  0.3877
  559MOL0     H75456   7.799   7.850   5.549  2.7771 -2.5778 -2.5847
  559MOL0     H75457   7.858   8.145   5.471 -0.3109  0.5198  0.2347
  559MOL0     H75458   7.707   8.083   5.547 -1.0635  2.1095 -2.2235
  559MOL0     H75459   7.816   8.017   5.265  0.5366  1.6697  0.5343
  559MOL0     H75460   7.678   7.938   5.340 -0.7312 -0.1661 -4.3496
  559MOL0     H75461   7.510   8.314   5.221  2.6412  1.5521 -0.5005
  559MOL0     H75462   8.163   7.793   5.267  0.0671  1.7275 -0.3782
  559MOL0     H75463   8.273   7.684   5.106  0.6439 -0.4112 -1.4279
  559MOL0     H75464   8.424   7.763   5.065  1.3873 -1.5262 -0.7975
  559MOL0     H75465   8.415   7.602   5.131  3.7038  2.0655  1.1753
  560MOL0     O75466   5.019   5.647   0.453 -0.1614  0.0377  0.7929
  560MOL0     C75467   4.988   5.629   0.568  0.2542  0.4665  0.8009
  560MOL0     O75468   5.069   5.575   0.659  0.0391  0.0125  0.4912
  560MOL0     C75469   5.198   5.555   0.626  0.6417 -0.2514 -0.1031
  560MOL0     C75470   5.239   5.461   0.525  0.3677  0.5493  0.1558
  560MOL0     C75471   5.376   5.433   0.500 -0.4548 -0.3970 -0.1594
  560MOL0     C75472   5.467   5.484   0.589 -0.0650  0.1070 -0.2367
  560MOL0     O75473   5.604   5.461   0.581  0.5454  0.6880  0.1136
  560MOL0     C75474   5.657   5.443   0.450 -0.5419  0.3087  0.2806
  560MOL0     C75475   5.796   5.487   0.447 -0.8682 -0.2282  0.2187
  560MOL0     C75476   5.828   5.626   0.428  0.0423  1.0473  0.4832
  560MOL0     C75477   5.770   5.713   0.536 -0.6424  0.3595 -0.1131
  560MOL0     C75478   5.814   5.857   0.510 -0.0990 -0.7493 -0.4706
  560MOL0     C75479   5.721   5.957   0.580 -0.5614 -0.1581  0.7887
  560MOL0     C75480   5.740   6.118   0.565 -0.6192  0.4271 -0.2105
  560MOL0     C75481   5.860   6.172   0.635 -0.4179  0.2997 -0.0310
  560MOL0     N75482   5.852   6.158   0.787 -0.6593 -1.4863  0.6441
  560MOL0     C75483   5.928   6.084   0.866 -1.0659  0.1812  0.1692
  560MOL0     C75484   5.897   6.132   0.988  1.3484 -0.4922 -0.3680
  560MOL0     C75485   5.948   6.088   1.122  0.2735 -0.3963  0.3388
  560MOL0     C75486   6.106   6.080   1.137  0.0835  0.0754 -0.0936
  560MOL0     C75487   6.154   6.057   1.279 -0.5332  0.0836  0.1146
  560MOL0     C75488   6.295   6.111   1.299  0.2032  1.1342 -1.5118
  560MOL0     O75489   6.394   6.030   1.246  0.0037  0.3001  0.1088
  560MOL0     C75490   6.517   6.077   1.225  0.4182  0.1458  1.1484
  560MOL0     C75491   6.567   6.206   1.264  0.5736  0.0200 -0.1785
  560MOL0     C75492   6.698   6.238   1.232 -0.3008  0.0721  0.3138
  560MOL0     C75493   6.776   6.158   1.146 -0.0450 -1.2764  0.1999
  560MOL0     C75494   6.911   6.200   1.108 -0.3332 -0.9328  0.4836
  560MOL0     O75495   6.969   6.284   1.199  0.3441  0.0337 -0.2981
  560MOL0     C75496   7.107   6.290   1.196  0.6515 -0.3965 -0.0023
  560MOL0     C75497   7.184   6.251   1.310 -0.1470  0.9584 -0.2335
  560MOL0     C75498   7.328   6.244   1.302 -0.0712 -0.0726 -0.2855
  560MOL0     C75499   7.392   6.299   1.185 -0.3698 -0.7141  0.6739
  560MOL0     O75500   7.533   6.311   1.181 -0.5533  0.1870  0.4706
  560MOL0     C75501   7.598   6.389   1.288 -0.3939  0.6479  0.1416
  560MOL0     C75502   7.743   6.434   1.238  0.9196 -0.9344 -0.3728
  560MOL0     C75503   7.824   6.318   1.187 -1.3369  0.0682  0.0165
  560MOL0     C75504   7.975   6.363   1.187  0.2104 -0.4915  0.6679
  560MOL0     C75505   8.049   6.258   1.100  0.7390 -0.3910  0.3105
  560MOL0     C75506   8.195   6.293   1.103  0.6291 -0.4473 -0.0054
  560MOL0     C75507   8.273   6.212   0.995 -0.2658 -0.4640  0.2620
  560MOL0     C75508   8.261   6.287   0.861  0.2308 -0.0806  0.3181
  560MOL0    Cl75509   8.366   6.200   0.731  0.1361  0.2116 -0.3058
  560MOL0     C75510   7.313   6.338   1.071  0.9663 -0.0287  0.2948
  560MOL0     C75511   7.173   6.345   1.084  0.2868  0.4698  0.0643
  560MOL0     O75512   6.968   6.133   1.020 -0.6996  0.2773  0.0814
  560MOL0     C75513   6.723   6.027   1.112  0.2195 -1.3741 -0.1013
  560MOL0     C75514   6.599   5.988   1.157 -0.0594 -0.0790 -0.3802
  560MOL0     N75515   5.811   6.241   0.980 -0.3592 -0.2460  0.5344
  560MOL0     N75516   5.789   6.258   0.858 -0.1220  0.2710 -0.7181
  560MOL0     C75517   5.423   5.567   0.691 -0.0705  1.0431 -0.3625
  560MOL0     C75518   5.295   5.604   0.718  0.1547  0.7446 -1.1702
  560MOL0     C75519   4.863   5.689   0.611  0.0704 -0.1956 -0.5650
  560MOL0     C75520   4.841   5.738   0.753 -0.0148  0.2429  0.4790
  560MOL0     C75521   4.728   5.802   0.799 -0.4704 -0.6764 -0.3337
  560MOL0     C75522   4.619   5.835   0.715 -0.6216 -0.9800 -0.3529
  560MOL0     O75523   4.511   5.924   0.755 -0.1808  0.4688  0.0568
  560MOL0     C75524   4.448   5.885   0.873  0.3011  0.3133 -0.0209
  560MOL0     C75525   4.344   5.992   0.893 -0.7880 -0.7111  0.1090
  560MOL0     C75526   4.231   6.013   0.792  0.6027  0.2738 -0.5149
  560MOL0     C75527   4.130   5.891   0.756  0.7143 -0.3302  0.5256
  560MOL0     C75528   4.009   5.906   0.837 -0.2317  0.3235 -0.4989
  560MOL0     C75529   3.925   5.913   0.935  0.1460 -0.3297  0.3838
  560MOL0     C75530   4.625   5.774   0.589 -0.3375  0.2536  0.1235
  560MOL0     C75531   4.745   5.697   0.542  0.8509 -0.1731  0.6748
  560MOL0     C75532   4.735   5.650   0.399  0.2102 -0.9526 -0.3425
  560MOL0     H75533   5.165   5.419   0.458 -2.6460  1.9839  2.3310
  560MOL0     H75534   5.407   5.375   0.414 -0.3432 -1.0769  0.3321
  560MOL0     H75535   5.659   5.335   0.433 -0.6554  0.1166  1.4453
  560MOL0     H75536   5.608   5.511   0.379 -1.5212  2.0660  2.5103
  560MOL0     H75537   5.834   5.428   0.362 -3.9904 -0.7988 -0.9211
  560MOL0     H75538   5.837   5.455   0.543 -2.7128 -1.6174  0.6172
  560MOL0     H75539   5.795   5.661   0.329  0.7540  2.9838  0.8813
  560MOL0     H75540   5.938   5.627   0.429  0.0689  1.6198 -0.7639
  560MOL0     H75541   5.662   5.695   0.538 -0.4521 -0.8380  1.1500
  560MOL0     H75542   5.804   5.687   0.636  2.1503  3.6328 -0.0538
  560MOL0     H75543   5.915   5.875   0.549  0.3603  0.2012 -2.0408
  560MOL0     H75544   5.804   5.885   0.405  2.6043  0.8563 -0.3906
  560MOL0     H75545   5.622   5.936   0.538  0.2656 -1.2307 -0.7349
  560MOL0     H75546   5.721   5.933   0.687 -1.0287 -2.2753  0.3705
  560MOL0     H75547   5.655   6.172   0.608 -0.2434  1.4308 -0.6920
  560MOL0     H75548   5.754   6.141   0.459  2.0171  2.2996  0.4399
  560MOL0     H75549   5.943   6.119   0.587 -2.4329 -1.5958 -1.6190
  560MOL0     H75550   5.865   6.279   0.613  0.9897 -0.1460 -2.1447
  560MOL0     H75551   6.003   6.013   0.833  0.1141  2.4356 -2.3424
  560MOL0     H75552   5.921   6.165   1.195  2.6852  1.4923 -0.6410
  560MOL0     H75553   5.910   5.986   1.133  1.7981 -1.4508 -2.9283
  560MOL0     H75554   6.160   5.997   1.090  1.8244 -0.2283  2.2839
  560MOL0     H75555   6.150   6.174   1.105  1.7386  0.0843  2.0190
  560MOL0     H75556   6.154   5.954   1.314 -2.4917  1.0469  3.4477
  560MOL0     H75557   6.084   6.104   1.349  0.0629 -0.3938  1.0547
  560MOL0     H75558   6.307   6.094   1.407 -1.8576 -2.3161 -1.6461
  560MOL0     H75559   6.293   6.216   1.269 -2.8315  1.5720 -0.1536
  560MOL0     H75560   6.505   6.279   1.314 -1.5308 -0.9801 -1.1847
  560MOL0     H75561   6.722   6.341   1.255 -0.5818 -0.1239  1.5237
  560MOL0     H75562   7.132   6.211   1.396  2.0415 -1.0915  0.2392
  560MOL0     H75563   7.393   6.219   1.386 -1.3148 -1.5473  0.2810
  560MOL0     H75564   7.549   6.487   1.295 -1.5129  0.1343 -0.3226
  560MOL0     H75565   7.598   6.337   1.384  0.5198 -0.0130 -0.2104
  560MOL0     H75566   7.725   6.505   1.156 -1.3423 -1.4862 -0.4323
  560MOL0     H75567   7.796   6.481   1.321  1.1273  1.4353 -1.7432
  560MOL0     H75568   7.823   6.244   1.267 -2.7488  0.0135 -0.0332
  560MOL0     H75569   7.792   6.277   1.091 -1.6362 -1.0817  0.5879
  560MOL0     H75570   8.025   6.356   1.284 -0.2112 -0.8237  0.8645
  560MOL0     H75571   7.995   6.462   1.143  2.5549 -2.5008 -3.4247
  560MOL0     H75572   8.011   6.264   0.998 -0.4393 -0.8966  0.7088
  560MOL0     H75573   8.021   6.165   1.149 -2.2081 -0.0304 -0.5126
  560MOL0     H75574   8.213   6.400   1.084  0.0022 -0.4266 -0.5220
  560MOL0     H75575   8.231   6.268   1.203  1.1882 -1.8675 -0.5489
  560MOL0     H75576   8.249   6.105   0.992 -0.0068 -0.5455  0.8660
  560MOL0     H75577   8.381   6.207   1.015 -0.6158  0.3257  2.6074
  560MOL0     H75578   8.158   6.275   0.824  0.9186  0.9605 -2.1696
  560MOL0     H75579   8.291   6.392   0.864  0.4577 -0.0961 -0.9134
  560MOL0     H75580   7.359   6.368   0.978 -0.5762 -0.0898 -0.5174
  560MOL0     H75581   7.112   6.374   0.999  1.6579  0.1826 -1.0588
  560MOL0     H75582   6.773   5.957   1.046  0.2152  0.4764 -2.2105
  560MOL0     H75583   6.586   5.887   1.117  1.2777 -0.1369 -0.7286
  560MOL0     H75584   5.504   5.619   0.742 -1.1729  2.2790  0.1926
  560MOL0     H75585   5.274   5.667   0.803 -0.0176 -3.5166  2.2802
  560MOL0     H75586   4.924   5.714   0.819 -1.1560 -2.2545  1.1453
  560MOL0     H75587   4.728   5.837   0.902 -4.1180  2.1971 -1.1175
  560MOL0     H75588   4.521   5.868   0.952 -0.1436 -3.3033 -0.2120
  560MOL0     H75589   4.384   5.798   0.854 -2.1271  2.4874 -2.8733
  560MOL0     H75590   4.396   6.087   0.910  2.0600 -2.5087  2.5430
  560MOL0     H75591   4.298   5.980   0.992  1.5251  2.9336  1.8512
  560MOL0     H75592   4.268   6.058   0.700  0.5463  4.0737  1.1385
  560MOL0     H75593   4.181   6.102   0.832  0.4392 -0.3191  0.6564
  560MOL0     H75594   4.100   5.906   0.652  0.3617  1.3709  0.8457
  560MOL0     H75595   4.176   5.795   0.782 -0.3718 -0.8289  0.6531
  560MOL0     H75596   3.852   5.919   1.012  0.3139 -3.2435  0.9003
  560MOL0     H75597   4.535   5.778   0.529 -0.0791 -1.0339 -0.3898
  560MOL0     H75598   4.789   5.555   0.393 -1.2548 -1.8343 -0.2855
  560MOL0     H75599   4.628   5.642   0.378 -0.0872 -1.7810  1.2760
  560MOL0     H75600   4.787   5.720   0.334 -1.1977  0.7004  0.2345
  561MOL0     O75601   5.738  10.255   7.532  0.1998  0.9518 -0.4848
  561MOL0     C75602   5.663  10.348   7.540  0.0059 -0.2832  0.0775
  561MOL0     O75603   5.695  10.475   7.497  0.0163 -0.1006 -0.2339
  561MOL0     C75604   5.815  10.492   7.429 -0.1762  0.2244  1.0006
  561MOL0     C75605   5.833  10.415   7.306 -0.6490  0.2692 -0.0410
  561MOL0     C75606   5.952  10.435   7.233 -0.1714  0.9698  0.2720
  561MOL0     C75607   6.058  10.525   7.286  0.8246 -0.2345  0.2587
  561MOL0     O75608   6.174  10.540   7.212 -0.0397 -0.0067 -1.0353
  561MOL0     C75609   6.236  10.670   7.208 -0.0359  0.3393 -0.1697
  561MOL0     C75610   6.363  10.667   7.115 -0.6201  0.5965 -0.7295
  561MOL0     C75611   6.419  10.812   7.114 -0.0499 -0.8666 -0.1389
  561MOL0     C75612   6.517  10.831   6.999 -0.3271 -0.1866 -0.3968
  561MOL0     C75613   6.576  10.972   6.985 -0.0645 -0.1916 -0.1979
  561MOL0     C75614   6.639  10.991   6.846 -1.0397 -0.6313  0.0474
  561MOL0     C75615   6.648  11.140   6.807  0.6537  0.7556  0.5065
  561MOL0     C75616   6.757  11.160   6.697 -0.1158  0.2559  0.2123
  561MOL0     N75617   6.904  11.158   6.745 -0.4629 -0.1510  0.1304
  561MOL0     C75618   6.997  11.063   6.753  0.1803  0.0391  0.2940
  561MOL0     C75619   7.110  11.131   6.807 -0.0214 -0.5665  1.6007
  561MOL0     C75620   7.252  11.088   6.805  0.7965  0.4632  0.0975
  561MOL0     C75621   7.355  11.196   6.834  0.4475 -0.3493  0.7082
  561MOL0     C75622   7.469  11.121   6.883 -0.0674 -0.1874  0.2883
  561MOL0     C75623   7.596  11.205   6.906  0.4892  1.0117 -0.0876
  561MOL0     O75624   7.686  11.101   6.953  0.3939 -1.0901 -0.0557
  561MOL0     C75625   7.810  11.149   7.001  0.6925 -0.4400 -0.1586
  561MOL0     C75626   7.864  11.275   6.984  0.2470 -0.4388  0.0992
  561MOL0     C75627   7.974  11.314   7.065 -0.4293 -0.7864  0.6236
  561MOL0     C75628   8.035  11.222   7.151  0.1829  0.2601  0.7274
  561MOL0     C75629   8.156  11.260   7.228 -0.5493  1.0743 -0.9001
  561MOL0     O75630   8.203  11.163   7.328  0.0358 -0.6882  0.0226
  561MOL0     C75631   8.315  11.203   7.402 -0.0178  0.5066  0.2501
  561MOL0     C75632   8.306  11.226   7.544  0.0145 -0.2300  0.2097
  561MOL0     C75633   8.413  11.281   7.610 -0.5656 -0.0125 -0.1289
  561MOL0     C75634   8.534  11.312   7.544 -0.6754 -0.4594 -0.6733
  561MOL0     O75635   8.650  11.359   7.601 -0.0450  0.2404  0.2186
  561MOL0     C75636   8.711  11.271   7.702 -0.3405  0.3508  0.2213
  561MOL0     C75637   8.855  11.318   7.727 -0.6547  0.1886  0.1753
  561MOL0     C75638   8.943  11.327   7.600  1.0160  0.1625  0.6775
  561MOL0     C75639   9.093  11.348   7.629  1.3520  0.4474 -0.0354
  561MOL0     C75640   9.170  11.374   7.492  0.2265 -0.6346 -0.4437
  561MOL0     C75641   9.296  11.446   7.534  0.8595  0.3302 -0.0272
  561MOL0     C75642   9.400  11.485   7.421 -0.8315 -0.1403 -0.6936
  561MOL0     C75643   9.525  11.564   7.479  0.2988  0.0176  0.2878
  561MOL0    Cl75644   9.629  11.466   7.592 -0.1321 -0.1014  0.1312
  561MOL0     C75645   8.541  11.281   7.411 -1.4249  0.5285 -0.5866
  561MOL0     C75646   8.440  11.219   7.338 -0.4593 -1.2394  0.4347
  561MOL0     O75647   8.205  11.368   7.211  0.0476  0.5420  0.3774
  561MOL0     C75648   7.986  11.093   7.166 -0.1474 -0.7571  0.4254
  561MOL0     C75649   7.873  11.063   7.087 -0.5407  0.4671  0.0075
  561MOL0     N75650   7.076  11.262   6.826  0.6047 -0.3984 -0.0643
  561MOL0     N75651   6.955  11.280   6.781  0.5245 -0.4630  0.8215
  561MOL0     C75652   6.034  10.593   7.403 -0.0668  0.1512  0.0307
  561MOL0     C75653   5.912  10.582   7.472  0.6843 -0.4076  0.6745
  561MOL0     C75654   5.522  10.325   7.596  1.0590  0.7524 -0.8980
  561MOL0     C75655   5.425  10.421   7.560 -0.2053 -1.0582 -0.3965
  561MOL0     C75656   5.290  10.401   7.590  0.3662  0.0592 -0.8028
  561MOL0     C75657   5.243  10.283   7.653 -0.3326  0.6616  0.3679
  561MOL0     O75658   5.114  10.259   7.685 -0.1844 -0.2498 -0.2479
  561MOL0     C75659   5.016  10.346   7.620  0.8018  0.7737  0.6183
  561MOL0     C75660   4.881  10.280   7.646 -0.4603  0.1145  1.0684
  561MOL0     C75661   4.849  10.247   7.791 -0.2141 -0.9410  0.6967
  561MOL0     C75662   4.714  10.181   7.802 -0.7430  0.7543 -0.4426
  561MOL0     C75663   4.594  10.262   7.775  0.2981 -0.3087  0.3951
  561MOL0     C75664   4.494  10.331   7.750 -0.3584  1.0539 -1.4124
  561MOL0     C75665   5.336  10.189   7.694 -0.1331 -0.5117 -0.3426
  561MOL0     C75666   5.473  10.205   7.669  0.7195 -0.5501  0.7211
  561MOL0     C75667   5.558  10.088   7.723  1.2274  1.0052  0.0602
  561MOL0     H75668   5.752  10.348   7.278 -0.2981  0.9501 -2.9725
  561MOL0     H75669   5.968  10.389   7.136 -1.0893 -1.0081  0.9931
  561MOL0     H75670   6.164  10.742   7.166 -3.2430 -2.0453  0.8449
  561MOL0     H75671   6.259  10.711   7.307 -1.9949  0.0931  0.4250
  561MOL0     H75672   6.340  10.632   7.014 -3.3119 -0.1027  0.0616
  561MOL0     H75673   6.442  10.596   7.141  0.7012  1.6142 -1.7418
  561MOL0     H75674   6.474  10.826   7.208  0.0702 -1.3450 -0.1376
  561MOL0     H75675   6.334  10.881   7.120  1.6278  1.3601 -0.8184
  561MOL0     H75676   6.597  10.756   6.995 -1.1293 -1.0228 -1.0622
  561MOL0     H75677   6.462  10.805   6.908 -3.0416  0.0942  1.0708
  561MOL0     H75678   6.490  11.040   6.995  0.7165  0.9746 -1.1688
  561MOL0     H75679   6.650  10.984   7.064  3.1179 -1.1864 -2.8124
  561MOL0     H75680   6.738  10.943   6.843 -0.6168  0.1922  0.4914
  561MOL0     H75681   6.572  10.941   6.776  1.1198  0.7956 -3.3489
  561MOL0     H75682   6.677  11.206   6.890 -0.9931  2.5682 -0.2837
  561MOL0     H75683   6.553  11.182   6.774 -0.1382 -0.9291  0.5863
  561MOL0     H75684   6.761  11.072   6.632  3.2784  0.2684  0.2336
  561MOL0     H75685   6.736  11.255   6.648  0.1557  0.8271  1.1917
  561MOL0     H75686   7.000  10.960   6.717 -2.4808  0.5944 -1.8693
  561MOL0     H75687   7.253  11.012   6.883 -1.8697 -1.3451 -1.4904
  561MOL0     H75688   7.266  11.036   6.710  1.9039  0.1316  0.4169
  561MOL0     H75689   7.382  11.246   6.742  0.1395 -0.8121  0.3596
  561MOL0     H75690   7.324  11.271   6.907 -1.8565  1.5349 -2.0156
  561MOL0     H75691   7.485  11.028   6.829  1.7494 -1.6280  3.0538
  561MOL0     H75692   7.434  11.092   6.983 -0.4296 -1.9368 -0.3116
  561MOL0     H75693   7.582  11.293   6.970 -0.8452  0.4026  0.4864
  561MOL0     H75694   7.634  11.238   6.809  0.0830  0.9111 -0.2799
  561MOL0     H75695   7.826  11.333   6.900 -2.5873 -1.5354  0.5109
  561MOL0     H75696   8.003  11.418   7.056 -2.1409 -0.4098 -1.1210
  561MOL0     H75697   8.208  11.210   7.586 -0.3395  1.8663  0.2900
  561MOL0     H75698   8.392  11.310   7.713  2.7682 -0.1481  0.7017
  561MOL0     H75699   8.657  11.259   7.796 -2.0681  1.0373 -0.6387
  561MOL0     H75700   8.709  11.167   7.666  0.1683  0.3034  0.3330
  561MOL0     H75701   8.838  11.424   7.749 -2.2277  0.2165 -0.9931
  561MOL0     H75702   8.894  11.260   7.811 -1.9579 -2.9873 -1.2450
  561MOL0     H75703   8.935  11.231   7.548 -1.9815  0.6813  0.0247
  561MOL0     H75704   8.909  11.408   7.536  1.9634 -0.1713 -0.2710
  561MOL0     H75705   9.135  11.261   7.680  0.1979  0.1345  0.4152
  561MOL0     H75706   9.086  11.436   7.693 -3.0605 -0.0793  0.5216
  561MOL0     H75707   9.115  11.442   7.426 -1.3624  0.4994  1.9012
  561MOL0     H75708   9.185  11.277   7.444 -0.1559 -1.2723  0.6638
  561MOL0     H75709   9.267  11.533   7.593  0.0278  1.1530 -1.5794
  561MOL0     H75710   9.347  11.382   7.606  0.6688 -0.8708 -0.9380
  561MOL0     H75711   9.334  11.541   7.353 -2.5048 -0.6979  0.4171
  561MOL0     H75712   9.427  11.396   7.363 -0.5673  0.2884 -1.2334
  561MOL0     H75713   9.587  11.598   7.396  0.3069 -1.0811 -0.1769
  561MOL0     H75714   9.473  11.639   7.539  1.7090  2.6130 -1.5779
  561MOL0     H75715   8.637  11.285   7.361 -1.8446  1.3751 -1.3546
  561MOL0     H75716   8.457  11.191   7.235  0.4032 -1.9298  0.7468
  561MOL0     H75717   8.028  11.025   7.239  0.4243 -1.0162 -0.1326
  561MOL0     H75718   7.837  10.966   7.118  1.3546  0.1443  1.4044
  561MOL0     H75719   6.125  10.636   7.443  0.6822 -2.3750  1.2609
  561MOL0     H75720   5.902  10.641   7.563 -0.7048 -0.5760  0.6417
  561MOL0     H75721   5.457  10.516   7.520 -1.2789 -0.3687  0.3423
  561MOL0     H75722   5.227  10.478   7.546  1.1608  0.3901 -1.3917
  561MOL0     H75723   5.022  10.347   7.511  1.9916 -1.2158  0.6292
  561MOL0     H75724   5.023  10.450   7.654  1.8557  0.6577  0.7972
  561MOL0     H75725   4.890  10.193   7.581  1.2224 -0.3230  1.8133
  561MOL0     H75726   4.810  10.349   7.600  0.9086  0.4018 -0.7629
  561MOL0     H75727   4.830  10.341   7.844 -0.8703 -0.4479 -0.3890
  561MOL0     H75728   4.932  10.200   7.845  3.9901  3.1000 -1.5270
  561MOL0     H75729   4.710  10.094   7.736  0.0834  1.1965 -1.0885
  561MOL0     H75730   4.711  10.149   7.907 -1.4356  2.0513 -0.0509
  561MOL0     H75731   4.398  10.373   7.729 -0.3359 -0.0554 -4.1194
  561MOL0     H75732   5.299  10.102   7.747 -0.9584 -1.3920 -2.2850
  561MOL0     H75733   5.649  10.071   7.666  0.9652  1.0900 -0.3872
  561MOL0     H75734   5.575  10.109   7.829  1.5335  0.8275  0.0450
  561MOL0     H75735   5.501   9.995   7.712 -1.4639  2.0460  3.3583
  562MOL0     O75736   6.298   1.348   9.597 -1.3576 -0.1664  0.1799
  562MOL0     C75737   6.252   1.315   9.702  0.0916 -0.8012 -0.3492
  562MOL0     O75738   6.159   1.213   9.726 -0.5940 -0.0785  0.0588
  562MOL0     C75739   6.095   1.134   9.631  0.0089  0.0653 -0.2204
  562MOL0     C75740   6.035   1.017   9.682  0.6157  0.5505 -0.1890
  562MOL0     C75741   5.949   0.944   9.597  0.2817 -0.7844 -0.7185
  562MOL0     C75742   5.920   0.977   9.471 -0.0377  0.6791  0.3962
  562MOL0     O75743   5.824   0.903   9.401  0.6114  0.9482 -0.8693
  562MOL0     C75744   5.869   0.852   9.274  0.6421  0.8334  0.3662
  562MOL0     C75745   5.763   0.905   9.166 -0.2201 -0.1530  0.5298
  562MOL0     C75746   5.616   0.879   9.191  0.4157  0.0889  1.0840
  562MOL0     C75747   5.535   0.952   9.083 -0.2874 -0.6984  0.9281
  562MOL0     C75748   5.389   0.986   9.114 -0.3622 -0.0526 -0.0439
  562MOL0     C75749   5.324   0.841   9.135 -0.2601 -1.0228  0.2079
  562MOL0     C75750   5.179   0.857   9.106 -0.6434  0.8616  0.5377
  562MOL0     C75751   5.085   0.739   9.128  0.2639  0.0250  0.0464
  562MOL0     N75752   5.115   0.607   9.051  0.8360 -0.3662 -0.2771
  562MOL0     C75753   5.166   0.489   9.102 -0.0292 -1.1495  0.4293
  562MOL0     C75754   5.185   0.419   8.988  0.3202 -0.0599 -0.6490
  562MOL0     C75755   5.233   0.276   8.996 -0.3675  0.1951  0.5035
  562MOL0     C75756   5.217   0.198   8.863 -0.1154  0.4385  0.4959
  562MOL0     C75757   5.205   0.040   8.869 -0.3228 -0.3250  0.3292
  562MOL0     C75758   5.329  -0.035   8.917  1.0487  0.7925 -0.4690
  562MOL0     O75759   5.445   0.000   8.844 -0.5996  0.0341 -0.3735
  562MOL0     C75760   5.560  -0.023   8.914 -0.4931 -0.0343  0.1557
  562MOL0     C75761   5.676   0.052   8.873  0.3500 -1.0493 -0.6833
  562MOL0     C75762   5.791   0.029   8.952  0.0024 -0.3114 -0.1415
  562MOL0     C75763   5.791  -0.049   9.069 -0.8018 -0.2594 -0.1550
  562MOL0     C75764   5.922  -0.069   9.132 -0.0578  0.6657 -0.8526
  562MOL0     O75765   5.997   0.041   9.138  0.0713 -0.4618  0.3371
  562MOL0     C75766   6.117   0.042   9.210 -0.0979 -0.4603 -0.0563
  562MOL0     C75767   6.230   0.076   9.141 -0.4782  0.2682  0.4825
  562MOL0     C75768   6.355   0.096   9.204  0.1046 -0.4014 -0.7075
  562MOL0     C75769   6.358   0.080   9.340 -0.2552  0.0660 -0.3567
  562MOL0     O75770   6.472   0.102   9.403 -0.1663 -0.4261 -1.4845
  562MOL0     C75771   6.535   0.231   9.386 -0.5197 -0.0114 -0.2238
  562MOL0     C75772   6.675   0.241   9.449 -0.0495  0.0616 -0.4457
  562MOL0     C75773   6.740   0.107   9.478 -0.0102 -0.1670  0.5781
  562MOL0     C75774   6.898   0.111   9.503 -0.6476  0.6534  0.0265
  562MOL0     C75775   6.952   0.169   9.630  0.4925 -0.8541  0.3634
  562MOL0     C75776   7.073   0.102   9.695 -0.3687 -0.0501  0.0076
  562MOL0     C75777   7.206   0.150   9.634 -1.8772  0.2710  0.3413
  562MOL0     C75778   7.340   0.100   9.701 -0.2911 -0.4467 -1.3607
  562MOL0    Cl75779   7.377   0.181   9.853 -0.2893 -0.3817 -0.0750
  562MOL0     C75780   6.246   0.047   9.414  1.5156 -0.1953  0.7442
  562MOL0     C75781   6.122   0.024   9.351  0.1892 -0.1360  0.3392
  562MOL0     O75782   5.937  -0.166   9.205  0.1102  1.1867  0.7146
  562MOL0     C75783   5.687  -0.137   9.090  0.2038  0.8476 -0.5877
  562MOL0     C75784   5.569  -0.128   9.011 -0.2139  0.3620 -0.3320
  562MOL0     N75785   5.134   0.483   8.882 -0.2403 -0.3406  0.3039
  562MOL0     N75786   5.096   0.596   8.924 -0.5955 -0.2958  0.6705
  562MOL0     C75787   5.997   1.079   9.415  0.0236 -0.3008  0.2177
  562MOL0     C75788   6.074   1.162   9.496 -0.7412  0.3885  0.4322
  562MOL0     C75789   6.282   1.405   9.821 -0.1463  0.1794 -0.5106
  562MOL0     C75790   6.302   1.344   9.943  0.0372  0.3881 -0.0910
  562MOL0     C75791   6.314   1.424  10.053  0.4422 -0.1926 -0.3105
  562MOL0     C75792   6.306   1.561  10.054  0.3923  0.3977  0.2269
  562MOL0     O75793   6.311   1.617  10.178  0.0441  0.2042 -0.5636
  562MOL0     C75794   6.183   1.630  10.248  0.7957 -0.1715  0.3744
  562MOL0     C75795   6.136   1.774  10.211  0.0553  0.8421  0.2476
  562MOL0     C75796   6.000   1.787  10.293 -0.0592  0.2876 -0.8329
  562MOL0     C75797   5.959   1.928  10.306  0.3344 -0.2241 -0.3400
  562MOL0     C75798   6.031   1.986  10.419  0.3366  0.8002 -0.9344
  562MOL0     C75799   6.094   2.035  10.510  0.7350  0.1162  0.5503
  562MOL0     C75800   6.284   1.627   9.931  0.4766  0.4296 -0.2647
  562MOL0     C75801   6.263   1.549   9.816 -0.2869  0.4440  0.1122
  562MOL0     C75802   6.226   1.617   9.694 -0.0068 -0.9298 -0.5641
  562MOL0     H75803   6.067   0.980   9.778  0.6868 -1.4708 -0.9411
  562MOL0     H75804   5.915   0.856   9.650 -3.4879  0.2152 -1.2018
  562MOL0     H75805   5.974   0.873   9.250  0.8861  1.3031  1.7308
  562MOL0     H75806   5.863   0.743   9.269  2.0821  0.6968  1.0267
  562MOL0     H75807   5.786   0.850   9.074 -3.2187 -2.1425  0.8086
  562MOL0     H75808   5.775   1.013   9.155  1.2912 -0.2602  0.8402
  562MOL0     H75809   5.583   0.919   9.288 -0.1409 -0.1648  1.0014
  562MOL0     H75810   5.623   0.770   9.194  2.1196  0.1830  2.2223
  562MOL0     H75811   5.586   1.044   9.054  0.8055 -2.0268 -1.6898
  562MOL0     H75812   5.532   0.905   8.985 -1.1068  1.8686 -0.3662
  562MOL0     H75813   5.379   1.044   9.206  1.2904 -0.9855  0.7753
  562MOL0     H75814   5.344   1.035   9.027  0.7166 -1.4377 -1.4633
  562MOL0     H75815   5.373   0.773   9.065  1.3608  1.8782 -1.7152
  562MOL0     H75816   5.353   0.819   9.238  0.1005  2.2524  0.9159
  562MOL0     H75817   5.159   0.885   9.002  1.1866  3.2102  0.7101
  562MOL0     H75818   5.134   0.935   9.168 -1.9332 -1.1030  2.2021
  562MOL0     H75819   5.095   0.708   9.232 -2.6698 -1.6241 -0.0520
  562MOL0     H75820   4.982   0.767   9.104  0.4260  0.1418 -0.5225
  562MOL0     H75821   5.206   0.466   9.200 -0.3794 -0.3689  0.7640
  562MOL0     H75822   5.338   0.289   9.024 -0.3444  0.1572  0.4357
  562MOL0     H75823   5.194   0.217   9.079 -2.5306 -0.5307 -0.9458
  562MOL0     H75824   5.132   0.235   8.806  0.4535  2.1556  0.6921
  562MOL0     H75825   5.308   0.206   8.802  0.7704 -0.0541  1.7043
  562MOL0     H75826   5.181   0.009   8.767 -0.3970  0.0090  0.2402
  562MOL0     H75827   5.119   0.022   8.935  0.0649  0.1019  0.9708
  562MOL0     H75828   5.311  -0.143   8.911  2.7922  0.3934  0.6507
  562MOL0     H75829   5.339  -0.008   9.023 -2.8288  2.0541 -0.2557
  562MOL0     H75830   5.688   0.126   8.795 -2.0432  1.6681  1.3238
  562MOL0     H75831   5.880   0.083   8.921 -2.8482  3.5152 -2.6048
  562MOL0     H75832   6.228   0.055   9.034  1.4258 -2.3426  0.8442
  562MOL0     H75833   6.440   0.116   9.141 -0.9400  0.2889 -1.9580
  562MOL0     H75834   6.543   0.271   9.284  1.1394  0.0709 -0.0848
  562MOL0     H75835   6.478   0.313   9.431  1.9522  1.7693 -0.1836
  562MOL0     H75836   6.744   0.296   9.384  2.2637  1.3440  2.8780
  562MOL0     H75837   6.661   0.281   9.549 -2.2025 -2.0157  0.1775
  562MOL0     H75838   6.690   0.063   9.565 -2.0413  1.2610  0.1909
  562MOL0     H75839   6.729   0.037   9.395  1.0044 -0.2615  0.5037
  562MOL0     H75840   6.951   0.167   9.426 -0.9696  1.9686  0.7126
  562MOL0     H75841   6.936   0.009   9.500  1.0481  1.2457  0.3066
  562MOL0     H75842   6.871   0.155   9.702  0.0891  2.4261  0.7035
  562MOL0     H75843   6.965   0.278   9.623 -1.4515 -0.6522 -0.8705
  562MOL0     H75844   7.079   0.133   9.799  0.9131 -1.1572  0.2998
  562MOL0     H75845   7.060  -0.007   9.689 -1.3867  0.0608  0.1507
  562MOL0     H75846   7.199   0.259   9.633  0.6211  0.5031 -1.3860
  562MOL0     H75847   7.214   0.116   9.530  2.8962 -0.8256  0.8312
  562MOL0     H75848   7.335  -0.006   9.725 -0.3027 -0.5705 -1.8939
  562MOL0     H75849   7.423   0.130   9.636 -0.4757 -0.5125 -1.6311
  562MOL0     H75850   6.246   0.017   9.518  0.1506 -0.9535  0.5483
  562MOL0     H75851   6.036  -0.006   9.410 -1.8771  2.7741 -0.9393
  562MOL0     H75852   5.680  -0.216   9.163 -3.2958  2.8384  1.4949
  562MOL0     H75853   5.489  -0.199   9.027  0.0620 -0.3802 -2.0483
  562MOL0     H75854   5.989   1.103   9.310 -2.0142 -0.5783  0.2758
  562MOL0     H75855   6.125   1.244   9.446 -4.3817  1.5367 -1.7558
  562MOL0     H75856   6.317   1.238   9.962  1.0312  0.9566  2.8106
  562MOL0     H75857   6.331   1.381  10.151  0.6250  0.4363 -0.0618
  562MOL0     H75858   6.196   1.614  10.356  1.1701 -1.5538  0.1332
  562MOL0     H75859   6.113   1.556  10.210  2.0444 -2.9094  2.9884
  562MOL0     H75860   6.121   1.791  10.104  2.0354  0.7911 -0.0737
  562MOL0     H75861   6.217   1.833  10.255 -2.5997  2.9160  2.7792
  562MOL0     H75862   6.007   1.751  10.397 -2.3883  4.6443  1.0843
  562MOL0     H75863   5.926   1.725  10.241  0.0449 -0.8337  0.2843
  562MOL0     H75864   5.989   1.975  10.212  1.0482  0.2700  0.1163
  562MOL0     H75865   5.854   1.932  10.335  1.1415 -0.8544  3.2074
  562MOL0     H75866   6.157   2.079  10.584  4.0252  1.7509 -2.8655
  562MOL0     H75867   6.282   1.735   9.924  1.7293  0.5249  0.4221
  562MOL0     H75868   6.301   1.602   9.616  0.9074 -1.2160  0.3495
  562MOL0     H75869   6.130   1.579   9.659  0.0768 -0.8721 -0.8544
  562MOL0     H75870   6.214   1.724   9.715 -2.5885 -1.1952 -0.4015
  563MOL0     O75871   5.164   6.284  11.142  0.6026 -0.6149  0.0448
  563MOL0     C75872   5.086   6.265  11.043  0.5458  0.4013  0.0568
  563MOL0     O75873   5.101   6.318  10.910 -0.3304  0.4308 -0.2721
  563MOL0     C75874   5.217   6.393  10.886  0.1915 -1.0622 -0.2154
  563MOL0     C75875   5.222   6.532  10.895 -0.0552 -0.1953 -0.9138
  563MOL0     C75876   5.344   6.599  10.877 -0.0261  0.0437 -0.4567
  563MOL0     C75877   5.460   6.529  10.856  0.6755 -0.7165 -0.2247
  563MOL0     O75878   5.576   6.593  10.824 -0.1214  0.6802 -0.5761
  563MOL0     C75879   5.595   6.727  10.880 -0.2830  0.5990  0.1885
  563MOL0     C75880   5.747   6.739  10.919  0.1318  0.2399 -0.0646
  563MOL0     C75881   5.796   6.880  10.925  0.6085 -0.4427 -0.2902
  563MOL0     C75882   5.948   6.879  10.946  0.6122  0.1691  1.0050
  563MOL0     C75883   5.999   6.884  11.088 -0.3284 -0.4240  0.2588
  563MOL0     C75884   6.155   6.895  11.087  1.3431  1.2102  0.4101
  563MOL0     C75885   6.206   6.948  11.223  0.4923  0.2171  0.7794
  563MOL0     C75886   6.355   6.974  11.201 -0.6796  0.9478 -0.3334
  563MOL0     N75887   6.422   7.046  11.316  0.3142 -0.8148 -0.1072
  563MOL0     C75888   6.372   7.170  11.350  0.6215 -0.4808 -0.6394
  563MOL0     C75889   6.400   7.182  11.477  0.5018  0.0711  0.5191
  563MOL0     C75890   6.360   7.305  11.553 -1.1050 -0.0961 -1.2012
  563MOL0     C75891   6.481   7.400  11.569 -0.3062 -0.2636  0.0996
  563MOL0     C75892   6.442   7.543  11.609 -0.1476  0.9762 -0.1588
  563MOL0     C75893   6.565   7.638  11.627  0.5087 -0.3571  0.0612
  563MOL0     O75894   6.654   7.620  11.511 -0.0402 -0.2799 -0.0546
  563MOL0     C75895   6.766   7.696  11.510  0.4068  0.0335  0.0611
  563MOL0     C75896   6.870   7.662  11.419 -0.3933 -0.5038  0.1623
  563MOL0     C75897   6.985   7.746  11.401  0.2015 -0.0982 -0.2061
  563MOL0     C75898   7.001   7.861  11.476 -0.6642 -0.4998 -0.1557
  563MOL0     C75899   7.123   7.949  11.453 -0.1959  0.2069  0.4645
  563MOL0     O75900   7.199   7.923  11.339  0.8396  0.6155 -0.5648
  563MOL0     C75901   7.305   7.994  11.284  0.5354  0.0075 -0.6506
  563MOL0     C75902   7.400   7.924  11.208 -0.9149  0.6399  0.0239
  563MOL0     C75903   7.497   7.999  11.138 -0.0394 -0.1167 -0.2272
  563MOL0     C75904   7.518   8.139  11.161  0.2586 -0.1560  0.2654
  563MOL0     O75905   7.609   8.213  11.095 -0.4571  0.4495 -0.3015
  563MOL0     C75906   7.669   8.319  11.171 -0.6880 -0.2901  0.1710
  563MOL0     C75907   7.786   8.378  11.096 -0.7651 -0.2807  0.3027
  563MOL0     C75908   7.896   8.267  11.075 -0.0709  0.1344 -0.8503
  563MOL0     C75909   8.040   8.336  11.055  0.2989 -0.2351 -0.0207
  563MOL0     C75910   8.155   8.250  10.985 -0.0333  1.1022 -0.8746
  563MOL0     C75911   8.221   8.148  11.077 -0.2446 -0.4723 -0.0584
  563MOL0     C75912   8.317   8.214  11.178 -0.4785  0.3326  0.2610
  563MOL0     C75913   8.389   8.117  11.279 -0.3562  0.3635 -0.2518
  563MOL0    Cl75914   8.501   8.015  11.181 -0.2117 -0.2437 -0.0101
  563MOL0     C75915   7.427   8.199  11.251 -0.5779 -0.5309 -0.0077
  563MOL0     C75916   7.327   8.130  11.318  0.1605 -0.7284 -0.2652
  563MOL0     O75917   7.155   8.035  11.532  0.1352 -0.9196 -0.0857
  563MOL0     C75918   6.909   7.888  11.577  0.0603 -0.0258 -0.3493
  563MOL0     C75919   6.785   7.816  11.586 -0.8714 -0.4159 -0.5094
  563MOL0     N75920   6.473   7.073  11.521  0.4573 -0.1720  0.0445
  563MOL0     N75921   6.484   6.984  11.423  0.1275 -0.1834 -0.1852
  563MOL0     C75922   5.450   6.394  10.844 -0.5239  0.1631  0.1306
  563MOL0     C75923   5.335   6.320  10.863 -1.0134 -0.0658  0.5703
  563MOL0     C75924   4.972   6.179  11.075  0.9696  1.0597 -0.1936
  563MOL0     C75925   4.937   6.140  11.210  0.1460 -0.8071  0.3185
  563MOL0     C75926   4.824   6.063  11.244  0.1049 -0.1579  0.7322
  563MOL0     C75927   4.739   6.020  11.147  0.7238  0.0216  0.5650
  563MOL0     O75928   4.634   5.938  11.186  0.2256 -0.3658 -0.8157
  563MOL0     C75929   4.530   5.893  11.100  0.1446  0.3021 -0.0442
  563MOL0     C75930   4.439   6.016  11.079  0.2754  1.1094  0.1122
  563MOL0     C75931   4.374   6.015  10.938 -0.6306  0.2055  0.2732
  563MOL0     C75932   4.288   6.140  10.917  0.4622  0.1619  0.7366
  563MOL0     C75933   4.143   6.116  10.912 -0.0663  0.9445 -0.1328
  563MOL0     C75934   4.022   6.097  10.921 -1.1057  0.2699  0.2211
  563MOL0     C75935   4.766   6.052  11.009 -0.1874 -0.0897 -1.0134
  563MOL0     C75936   4.885   6.122  10.978  0.0250  0.1970 -0.1003
  563MOL0     C75937   4.905   6.138  10.833  0.2495 -0.3435 -0.4302
  563MOL0     H75938   5.128   6.581  10.919  0.2184 -0.0177 -0.1737
  563MOL0     H75939   5.344   6.707  10.878  2.3887  0.1144  1.2630
  563MOL0     H75940   5.558   6.809  10.818  0.4501  0.7475 -0.0729
  563MOL0     H75941   5.550   6.730  10.979  2.4599 -0.0925  1.5838
  563MOL0     H75942   5.798   6.689  10.836  2.6082  3.5668 -0.7359
  563MOL0     H75943   5.774   6.693  11.014  3.8388 -1.6440 -1.8172
  563MOL0     H75944   5.742   6.915  11.014  1.9111 -2.8466  1.5988
  563MOL0     H75945   5.761   6.946  10.846  2.1030  0.3764 -0.2924
  563MOL0     H75946   5.979   6.784  10.903 -0.2025  1.2578 -2.2885
  563MOL0     H75947   5.995   6.958  10.887  0.5943  1.1431  2.2366
  563MOL0     H75948   5.959   6.970  11.143 -0.4979  0.2639 -0.9151
  563MOL0     H75949   5.970   6.789  11.134 -0.9612 -1.4595 -2.1458
  563MOL0     H75950   6.188   6.790  11.080  1.9427  1.1550  2.9186
  563MOL0     H75951   6.182   6.957  11.002 -2.4737  2.6121  0.0215
  563MOL0     H75952   6.183   6.874  11.301 -5.0317 -1.7054 -2.1391
  563MOL0     H75953   6.166   7.046  11.248  4.9080  2.6231 -0.4409
  563MOL0     H75954   6.407   6.879  11.188  0.9735  1.5803  1.2648
  563MOL0     H75955   6.368   7.027  11.106  0.2272  0.3933 -0.5343
  563MOL0     H75956   6.306   7.235  11.295 -3.9216 -1.6313  2.8510
  563MOL0     H75957   6.280   7.357  11.499 -0.8852  3.6152  1.6392
  563MOL0     H75958   6.334   7.285  11.658  0.8953  4.1072  0.3073
  563MOL0     H75959   6.557   7.370  11.642 -0.4457  1.9739  1.2457
  563MOL0     H75960   6.536   7.412  11.475 -0.3566  0.2732  0.1361
  563MOL0     H75961   6.388   7.546  11.704  1.6802 -0.1794  0.9682
  563MOL0     H75962   6.393   7.580  11.518  1.1453  2.5965 -0.2412
  563MOL0     H75963   6.602   7.607  11.725  2.5240  0.4767 -0.4016
  563MOL0     H75964   6.527   7.738  11.647 -1.8440 -1.3789  1.0527
  563MOL0     H75965   6.862   7.574  11.357  1.4229 -0.2792 -0.4495
  563MOL0     H75966   7.047   7.727  11.313  0.6401 -0.6171  0.2116
  563MOL0     H75967   7.380   7.817  11.202  1.1032  0.2753 -4.3346
  563MOL0     H75968   7.575   7.947  11.083 -0.4770  0.4695 -1.4309
  563MOL0     H75969   7.597   8.401  11.178 -1.2071 -0.7940  0.9178
  563MOL0     H75970   7.687   8.285  11.273 -0.5947 -1.0359 -0.0803
  563MOL0     H75971   7.760   8.415  10.996  2.0133  0.1610 -0.3462
  563MOL0     H75972   7.821   8.464  11.154 -1.7298  0.0282  0.4298
  563MOL0     H75973   7.896   8.208  11.167  1.5657 -0.3017 -1.1067
  563MOL0     H75974   7.868   8.194  10.999 -0.5719 -2.6852  1.8403
  563MOL0     H75975   8.078   8.363  11.153  2.2876  0.0807 -0.8329
  563MOL0     H75976   8.026   8.427  10.996  1.1829  0.8319  1.3571
  563MOL0     H75977   8.231   8.300  10.925  0.6666  0.8546 -0.2103
  563MOL0     H75978   8.089   8.195  10.917 -3.0460  0.3079  2.4224
  563MOL0     H75979   8.154   8.091  11.142 -2.4559  0.7039 -1.2184
  563MOL0     H75980   8.290   8.094  11.012  1.6045 -0.9384  2.1416
  563MOL0     H75981   8.276   8.296  11.238  2.7661  1.6412  0.9296
  563MOL0     H75982   8.396   8.263  11.121 -1.2110  2.3255  0.8559
  563MOL0     H75983   8.448   8.172  11.353 -1.2412 -0.8522  1.4065
  563MOL0     H75984   8.320   8.056  11.337  1.8451 -0.0143  2.1471
  563MOL0     H75985   7.434   8.307  11.257  0.6423 -0.5769 -0.3814
  563MOL0     H75986   7.256   8.185  11.379  0.4028 -0.7227  0.0135
  563MOL0     H75987   6.935   7.979  11.630 -0.9191  0.2414 -0.3092
  563MOL0     H75988   6.723   7.858  11.665  0.9067  1.7642 -0.1774
  563MOL0     H75989   5.542   6.346  10.814 -1.0521 -0.6615 -0.1996
  563MOL0     H75990   5.341   6.212  10.860  3.0268  0.0506 -0.5462
  563MOL0     H75991   4.996   6.171  11.296 -1.3115 -0.7563  1.3365
  563MOL0     H75992   4.793   6.044  11.346  0.4537  0.4275  0.9571
  563MOL0     H75993   4.475   5.818  11.157  0.5085  1.6536  2.1941
  563MOL0     H75994   4.578   5.847  11.013  1.3103 -0.7868  1.1305
  563MOL0     H75995   4.505   6.104  11.086  0.2968  1.1184 -0.1837
  563MOL0     H75996   4.372   6.023  11.165  0.8119  2.7290  0.4269
  563MOL0     H75997   4.313   5.924  10.936 -0.7546  0.3045 -0.9504
  563MOL0     H75998   4.458   6.011  10.868 -0.5248  1.0729  0.3440
  563MOL0     H75999   4.309   6.217  10.992  0.6800  0.5503  0.2819
  563MOL0     H76000   4.314   6.179  10.818 -0.4317 -3.7629 -1.2657
  563MOL0     H76001   3.921   6.066  10.941 -0.2823 -0.6572  3.3849
  563MOL0     H76002   4.697   6.011  10.936 -0.3384 -3.3566  0.7542
  563MOL0     H76003   4.997   6.086  10.806  1.2150 -1.3161  3.9862
  563MOL0     H76004   4.825   6.090  10.775  1.6479 -0.8691 -2.0286
  563MOL0     H76005   4.918   6.240  10.796  1.6272 -0.4663 -0.3369
  564MOL0     O76006   1.883   3.266   2.155 -0.4010  0.0676  0.0279
  564MOL0     C76007   1.846   3.380   2.127 -0.3495  0.9548  0.0502
  564MOL0     O76008   1.902   3.498   2.177 -0.0946  0.0222  0.8282
  564MOL0     C76009   1.987   3.501   2.288  0.0066 -0.1270  0.3852
  564MOL0     C76010   2.104   3.582   2.272  0.2485  0.3695 -0.2465
  564MOL0     C76011   2.205   3.582   2.371 -1.1494 -0.1688  0.3905
  564MOL0     C76012   2.179   3.507   2.497  0.0826 -0.0711 -0.2912
  564MOL0     O76013   2.262   3.503   2.612  0.6060  0.3451 -0.7412
  564MOL0     C76014   2.373   3.588   2.619  0.0015 -0.8830  0.3879
  564MOL0     C76015   2.481   3.529   2.712 -0.1231 -0.8828 -0.4138
  564MOL0     C76016   2.428   3.464   2.843 -0.5829 -0.3351  0.5316
  564MOL0     C76017   2.549   3.407   2.925  0.3155 -0.7367 -0.3176
  564MOL0     C76018   2.501   3.324   3.041 -0.8881  0.6058 -0.0654
  564MOL0     C76019   2.613   3.322   3.153  0.4345 -0.2658  0.9367
  564MOL0     C76020   2.560   3.251   3.276 -0.0806  0.4788 -0.2574
  564MOL0     C76021   2.668   3.216   3.377 -0.9858 -0.2818 -0.7213
  564MOL0     N76022   2.748   3.334   3.420  0.7786  0.3491  0.2835
  564MOL0     C76023   2.862   3.370   3.363 -0.8478 -0.5073 -0.0738
  564MOL0     C76024   2.911   3.472   3.446  0.8901  0.3026  0.1380
  564MOL0     C76025   3.040   3.529   3.417 -0.0748 -0.8362 -0.3101
  564MOL0     C76026   3.132   3.525   3.545  0.2953 -0.1793 -0.1343
  564MOL0     C76027   3.275   3.574   3.505 -0.0150 -1.2065 -0.5584
  564MOL0     C76028   3.378   3.472   3.475 -0.4726  0.3865  0.2337
  564MOL0     O76029   3.488   3.557   3.429 -0.4205 -0.1032  0.3082
  564MOL0     C76030   3.617   3.512   3.444 -0.4997 -1.1866  0.3488
  564MOL0     C76031   3.716   3.591   3.401 -0.6510  0.0172 -0.6436
  564MOL0     C76032   3.844   3.555   3.411 -0.9174 -0.6766 -0.7830
  564MOL0     C76033   3.887   3.425   3.456  0.2313  0.3650 -0.0824
  564MOL0     C76034   4.032   3.384   3.475  0.2441  1.0129  0.3022
  564MOL0     O76035   4.125   3.479   3.476  0.1144 -0.4293 -0.1740
  564MOL0     C76036   4.262   3.442   3.484 -0.5615 -0.5590 -0.1302
  564MOL0     C76037   4.337   3.415   3.377  0.3663  0.8353  0.4754
  564MOL0     C76038   4.467   3.383   3.393 -0.7172  0.6759  0.0686
  564MOL0     C76039   4.522   3.371   3.521 -0.0063  0.3280 -0.2250
  564MOL0     O76040   4.659   3.350   3.536 -0.3944 -0.0542 -0.5901
  564MOL0     C76041   4.718   3.238   3.476  0.8901  0.2490 -0.6044
  564MOL0     C76042   4.840   3.194   3.547  0.2144  0.1883  0.2323
  564MOL0     C76043   4.960   3.293   3.524  0.1206 -0.0718  0.0953
  564MOL0     C76044   5.060   3.271   3.649  0.5550 -0.5156 -0.8794
  564MOL0     C76045   5.200   3.344   3.632 -0.3098 -0.1271 -0.1674
  564MOL0     C76046   5.261   3.282   3.507 -0.4949 -0.9806 -0.0378
  564MOL0     C76047   5.411   3.313   3.517  0.3786  0.4623  0.8304
  564MOL0     C76048   5.493   3.226   3.425  0.1095  0.1129 -1.0327
  564MOL0    Cl76049   5.665   3.239   3.486  0.3870 -0.2607  0.0670
  564MOL0     C76050   4.456   3.424   3.626  0.6181  0.9995 -0.4668
  564MOL0     C76051   4.321   3.465   3.612  0.5704  0.5885  1.1198
  564MOL0     O76052   4.053   3.261   3.488  0.2511 -0.1736 -0.0570
  564MOL0     C76053   3.784   3.334   3.487 -0.2912  0.3774  0.2374
  564MOL0     C76054   3.651   3.378   3.481 -0.2133  0.1622 -0.7182
  564MOL0     N76055   2.827   3.493   3.549  0.4397 -0.0537 -0.0625
  564MOL0     N76056   2.723   3.421   3.521 -0.4793 -1.2683 -0.7406
  564MOL0     C76057   2.062   3.424   2.496 -0.8704  0.5934  0.0419
  564MOL0     C76058   1.965   3.418   2.400 -0.4729  0.1410  0.8200
  564MOL0     C76059   1.732   3.398   2.037 -0.3424  0.3502  0.2804
  564MOL0     C76060   1.623   3.305   2.043 -0.3075 -0.5581 -1.3762
  564MOL0     C76061   1.515   3.329   1.960  0.0407 -1.7007  0.0355
  564MOL0     C76062   1.510   3.433   1.864  0.3218  0.8483  0.4470
  564MOL0     O76063   1.412   3.458   1.773 -0.4548 -0.4833  0.1037
  564MOL0     C76064   1.269   3.432   1.798 -0.2261  0.3721  0.0265
  564MOL0     C76065   1.204   3.561   1.849 -0.2613 -0.3566  0.8611
  564MOL0     C76066   1.202   3.661   1.735  0.3587  0.1659  0.5214
  564MOL0     C76067   1.200   3.800   1.791 -0.0114  0.0629 -0.5946
  564MOL0     C76068   1.335   3.836   1.852  0.0991  0.1127 -0.8194
  564MOL0     C76069   1.454   3.854   1.898 -0.0102  0.7521  0.5413
  564MOL0     C76070   1.620   3.510   1.847  0.2781 -0.6403  0.1584
  564MOL0     C76071   1.731   3.498   1.934  0.2259  0.8846  1.1877
  564MOL0     C76072   1.850   3.593   1.890  0.2536 -0.3729  0.3128
  564MOL0     H76073   2.098   3.629   2.174 -0.5521 -0.8466 -0.8066
  564MOL0     H76074   2.294   3.640   2.353 -0.2012 -1.1448  1.7816
  564MOL0     H76075   2.422   3.609   2.523 -0.4618  1.3184  0.5657
  564MOL0     H76076   2.339   3.680   2.668  3.5246  1.5146 -1.2047
  564MOL0     H76077   2.556   3.609   2.724 -1.8959  0.6547  1.2172
  564MOL0     H76078   2.548   3.460   2.660  0.0746 -0.4609 -0.7289
  564MOL0     H76079   2.359   3.385   2.814  0.5019 -1.0014 -0.3253
  564MOL0     H76080   2.368   3.537   2.899 -1.7992  1.9805 -3.3959
  564MOL0     H76081   2.608   3.356   2.848  0.3898  0.8495 -1.3610
  564MOL0     H76082   2.615   3.487   2.957  1.3129  0.1193 -4.0240
  564MOL0     H76083   2.408   3.364   3.082 -0.3099 -1.2454  3.4599
  564MOL0     H76084   2.488   3.219   3.016 -0.4727  0.6310 -0.3979
  564MOL0     H76085   2.701   3.273   3.111  1.2444  0.7900  1.3703
  564MOL0     H76086   2.641   3.421   3.190  0.2852  0.4090 -0.6836
  564MOL0     H76087   2.514   3.157   3.244  0.3762  0.2094 -0.1311
  564MOL0     H76088   2.481   3.300   3.335 -0.3403 -3.5200  3.2133
  564MOL0     H76089   2.624   3.168   3.466 -3.7723 -0.5905 -2.1609
  564MOL0     H76090   2.738   3.147   3.330 -0.5998  0.8635 -1.8720
  564MOL0     H76091   2.910   3.343   3.270 -0.5865  1.0292 -0.4216
  564MOL0     H76092   3.082   3.463   3.341 -1.0674 -0.3042 -1.3617
  564MOL0     H76093   3.032   3.632   3.380  0.5296 -0.5149  0.4337
  564MOL0     H76094   3.089   3.587   3.624  0.3663 -0.5270  0.1806
  564MOL0     H76095   3.148   3.423   3.584  1.8307  0.3759  0.8034
  564MOL0     H76096   3.318   3.640   3.581  0.1295 -2.2282  0.2764
  564MOL0     H76097   3.258   3.621   3.408  2.3501  0.1714 -0.3805
  564MOL0     H76098   3.353   3.412   3.387 -1.4227  0.9977  0.0725
  564MOL0     H76099   3.398   3.412   3.563  3.2810 -0.3111 -0.9413
  564MOL0     H76100   3.701   3.696   3.376  1.6764  0.3523 -0.8736
  564MOL0     H76101   3.917   3.627   3.376  0.7707 -2.5906 -1.3586
  564MOL0     H76102   4.305   3.419   3.273 -0.3850  1.4262  0.7266
  564MOL0     H76103   4.530   3.369   3.306  0.7129 -2.4936  1.4572
  564MOL0     H76104   4.650   3.153   3.464  2.1468 -0.9733  0.4948
  564MOL0     H76105   4.752   3.264   3.375  3.5794 -0.2038  0.1104
  564MOL0     H76106   4.818   3.172   3.652  0.1832 -1.3789 -0.0676
  564MOL0     H76107   4.874   3.103   3.497 -0.9503 -0.0602 -0.1525
  564MOL0     H76108   5.009   3.274   3.428 -0.9753  2.9406 -1.1851
  564MOL0     H76109   4.926   3.396   3.510 -2.1529 -0.8340 -0.4782
  564MOL0     H76110   5.085   3.166   3.667  1.3263 -0.1171  0.4992
  564MOL0     H76111   5.007   3.301   3.740  0.6064 -1.1637 -0.6319
  564MOL0     H76112   5.268   3.329   3.716  2.7750  2.7872 -1.8988
  564MOL0     H76113   5.204   3.452   3.615  2.9468 -0.4792 -2.7646
  564MOL0     H76114   5.241   3.175   3.514  2.1211 -1.6040 -1.0009
  564MOL0     H76115   5.217   3.327   3.417 -1.7262 -2.1676 -0.0657
  564MOL0     H76116   5.442   3.278   3.616  1.2380 -1.6273 -0.1323
  564MOL0     H76117   5.430   3.420   3.504 -0.6031  0.4147 -1.5253
  564MOL0     H76118   5.463   3.121   3.430  1.6162 -0.2814  1.1848
  564MOL0     H76119   5.478   3.254   3.320 -3.3586 -0.8539 -0.9155
  564MOL0     H76120   4.518   3.420   3.715  0.3190  0.2057 -0.2850
  564MOL0     H76121   4.269   3.489   3.704 -2.0187  0.9127 -0.3443
  564MOL0     H76122   3.817   3.234   3.511  1.5021  0.3037 -2.1826
  564MOL0     H76123   3.571   3.306   3.497  0.2388 -0.8128 -2.6306
  564MOL0     H76124   2.042   3.359   2.580 -0.7850 -0.6628 -0.8709
  564MOL0     H76125   1.877   3.356   2.410 -1.4494  1.4758  0.8883
  564MOL0     H76126   1.623   3.236   2.126  1.2104  1.0312  0.0223
  564MOL0     H76127   1.424   3.282   1.996 -1.1507 -0.4105 -1.1515
  564MOL0     H76128   1.249   3.355   1.872 -1.0449 -0.7256 -1.2848
  564MOL0     H76129   1.219   3.389   1.710 -1.6590 -1.4014  1.6351
  564MOL0     H76130   1.257   3.603   1.935 -0.0210 -2.9233  2.0607
  564MOL0     H76131   1.111   3.518   1.887  0.2322 -2.7166 -0.4225
  564MOL0     H76132   1.117   3.638   1.670  0.5344  0.9134  0.0177
  564MOL0     H76133   1.292   3.657   1.674  0.9082  4.8815  0.6453
  564MOL0     H76134   1.180   3.877   1.716 -1.4372  0.1898 -0.1081
  564MOL0     H76135   1.123   3.813   1.867 -1.2689 -1.1845 -1.5811
  564MOL0     H76136   1.547   3.867   1.950  1.0234 -1.2213 -0.6713
  564MOL0     H76137   1.628   3.576   1.761 -0.5914  0.6973  1.0596
  564MOL0     H76138   1.865   3.576   1.783 -3.0436 -1.1468 -0.1337
  564MOL0     H76139   1.818   3.696   1.912  1.0408  0.2031 -1.1206
  564MOL0     H76140   1.953   3.579   1.924  0.8824  0.9079 -0.9498
  565MOL0     O76141   8.885  10.754   1.094  0.7456 -0.1908 -0.2765
  565MOL0     C76142   8.805  10.761   1.191 -0.6109 -0.8589 -0.3457
  565MOL0     O76143   8.793  10.874   1.268 -0.4431  0.4200  0.1685
  565MOL0     C76144   8.875  10.980   1.278  1.0423  0.0201 -0.1717
  565MOL0     C76145   8.820  11.104   1.314 -0.3279  0.3593 -0.0240
  565MOL0     C76146   8.890  11.212   1.345  0.9178  1.3411 -0.8255
  565MOL0     C76147   9.020  11.217   1.337 -0.5597  0.3811  1.0480
  565MOL0     O76148   9.092  11.339   1.365  0.6493 -0.3190  0.2580
  565MOL0     C76149   9.238  11.348   1.332  0.4467  0.6276 -0.4710
  565MOL0     C76150   9.290  11.494   1.349  0.3885  0.1506  0.8426
  565MOL0     C76151   9.438  11.493   1.321  0.6135  0.7415  0.4559
  565MOL0     C76152   9.503  11.616   1.374 -0.0724 -0.2253 -0.2423
  565MOL0     C76153   9.649  11.609   1.338 -0.0640  0.3321 -0.3193
  565MOL0     C76154   9.738  11.505   1.408 -0.6978  0.6417  0.5762
  565MOL0     C76155   9.883  11.523   1.366  0.2555 -0.8838 -0.0613
  565MOL0     C76156   9.971  11.405   1.407 -1.2241  0.6846 -0.1825
  565MOL0     N76157  10.038  11.426   1.540  0.1116  0.3171  0.2958
  565MOL0     C76158   9.992  11.445   1.669 -0.0716  0.2654 -0.1221
  565MOL0     C76159  10.095  11.452   1.752 -0.9206 -1.0397  0.4730
  565MOL0     C76160  10.086  11.484   1.894 -0.4287 -0.8722 -0.1020
  565MOL0     C76161  10.223  11.439   1.944  0.7193 -0.5778 -0.4373
  565MOL0     C76162  10.333  11.544   1.953 -0.3284 -0.1428 -0.4255
  565MOL0     C76163  10.463  11.489   1.896 -0.1557 -0.1005 -0.1418
  565MOL0     O76164  10.526  11.405   2.000 -0.0523 -0.2750 -0.0762
  565MOL0     C76165  10.647  11.348   1.964 -0.6541 -0.4505  0.6914
  565MOL0     C76166  10.711  11.268   2.052 -0.5678 -0.5579  0.0269
  565MOL0     C76167  10.840  11.230   2.034  0.2062 -0.5353  0.1948
  565MOL0     C76168  10.914  11.270   1.914  0.3281  0.8584  0.7653
  565MOL0     C76169  11.054  11.237   1.889 -0.3597  0.3576  0.7151
  565MOL0     O76170  11.128  11.310   1.790 -0.6291 -0.0871  0.6486
  565MOL0     C76171  11.240  11.243   1.736 -0.2825 -0.4881  0.7914
  565MOL0     C76172  11.358  11.214   1.806 -0.3768  0.8478 -0.4899
  565MOL0     C76173  11.463  11.142   1.748 -0.1297 -0.1587 -0.0618
  565MOL0     C76174  11.448  11.096   1.613 -0.9834  0.2168 -0.3858
  565MOL0     O76175  11.537  11.008   1.553 -0.1081 -0.7870 -0.0574
  565MOL0     C76176  11.673  10.987   1.600 -0.1311  0.1399  0.3786
  565MOL0     C76177  11.750  10.930   1.482  0.5215 -1.0507 -0.3799
  565MOL0     C76178  11.689  10.801   1.431 -0.1643 -0.1204 -0.0405
  565MOL0     C76179  11.717  10.784   1.283  0.6254 -0.5395 -0.7059
  565MOL0     C76180  11.649  10.655   1.241 -0.3575 -0.4636  0.4234
  565MOL0     C76181  11.692  10.622   1.091  0.6136 -1.1304 -0.1960
  565MOL0     C76182  11.636  10.489   1.037 -0.5327 -0.3457 -0.8370
  565MOL0     C76183  11.489  10.485   0.991  0.6203 -0.4290 -0.9839
  565MOL0    Cl76184  11.464  10.630   0.886 -0.2914 -0.2267 -0.3472
  565MOL0     C76185  11.334  11.131   1.540 -0.0556 -0.6746 -0.1511
  565MOL0     C76186  11.233  11.205   1.598 -0.4951  0.3409  0.8900
  565MOL0     O76187  11.100  11.148   1.953 -0.5974 -0.3724 -0.7793
  565MOL0     C76188  10.849  11.353   1.818 -0.1326  0.0790 -0.5707
  565MOL0     C76189  10.712  11.381   1.844 -1.0313 -0.3433  0.0374
  565MOL0     N76190  10.208  11.435   1.670  0.4798  0.7937  0.2261
  565MOL0     N76191  10.176  11.426   1.550  0.8145 -0.3222  0.1088
  565MOL0     C76192   9.083  11.096   1.294 -0.4015  0.1222 -0.1023
  565MOL0     C76193   9.012  10.976   1.264  0.3897  0.7316  0.3133
  565MOL0     C76194   8.709  10.652   1.210  0.0672  0.5155 -0.3924
  565MOL0     C76195   8.599  10.672   1.288 -0.0921  0.0210 -0.0625
  565MOL0     C76196   8.500  10.577   1.312  1.0161 -0.4330  0.4058
  565MOL0     C76197   8.505  10.458   1.243  0.0652  0.1947  0.2543
  565MOL0     O76198   8.410  10.365   1.241  0.2395 -0.1750  0.0964
  565MOL0     C76199   8.310  10.351   1.336  0.8010 -0.4574 -0.5670
  565MOL0     C76200   8.176  10.404   1.291 -0.3273 -0.2786  0.3954
  565MOL0     C76201   8.113  10.295   1.224 -0.2198  0.6129  0.3202
  565MOL0     C76202   7.973  10.330   1.179 -0.2037  1.1506 -0.5828
  565MOL0     C76203   7.872  10.297   1.286 -0.4223 -0.1464  0.0852
  565MOL0     C76204   7.801  10.287   1.384  0.2005 -0.7487  0.5200
  565MOL0     C76205   8.596  10.444   1.139  1.0880  0.0092  1.2147
  565MOL0     C76206   8.701  10.539   1.123  0.0194 -0.0480  0.0855
  565MOL0     C76207   8.796  10.510   1.004 -0.2507 -0.4031  0.2602
  565MOL0     H76208   8.713  11.115   1.327 -0.5117  2.9068 -2.5959
  565MOL0     H76209   8.834  11.297   1.385 -0.3555 -0.8779  2.5084
  565MOL0     H76210   9.293  11.285   1.403 -0.7163  1.7585  1.5289
  565MOL0     H76211   9.254  11.313   1.229 -0.0791  2.0990 -1.0730
  565MOL0     H76212   9.269  11.529   1.450 -0.7222  0.6612  0.4489
  565MOL0     H76213   9.254  11.571   1.280  1.8677  1.4840  1.4952
  565MOL0     H76214   9.467  11.489   1.216  0.4426  1.3161  0.3836
  565MOL0     H76215   9.483  11.415   1.383 -1.0026  0.2826  1.1202
  565MOL0     H76216   9.452  11.700   1.324  0.8774  1.9794  2.2662
  565MOL0     H76217   9.487  11.629   1.481  2.0876  0.1058  0.0839
  565MOL0     H76218   9.653  11.606   1.228 -2.5206  0.6964 -0.4945
  565MOL0     H76219   9.695  11.707   1.352  0.4579  0.1855 -0.9596
  565MOL0     H76220   9.729  11.514   1.517 -1.0473 -0.4694  0.6517
  565MOL0     H76221   9.727  11.403   1.371  0.8605  0.3162  0.9356
  565MOL0     H76222   9.922  11.618   1.403 -1.4913 -0.4584  0.7999
  565MOL0     H76223   9.878  11.524   1.257  0.2512  0.0051 -0.0568
  565MOL0     H76224   9.913  11.313   1.396 -1.7910  1.2934 -3.3688
  565MOL0     H76225  10.049  11.403   1.330 -1.5223 -1.2224 -0.4751
  565MOL0     H76226   9.889  11.463   1.698  0.3871  1.8690  0.6435
  565MOL0     H76227  10.073  11.592   1.888  2.7506 -0.4636 -2.2798
  565MOL0     H76228  10.001  11.435   1.944 -2.7233  3.2456  0.4545
  565MOL0     H76229  10.214  11.417   2.051 -2.0629  0.9821 -0.2663
  565MOL0     H76230  10.255  11.346   1.896  0.5207 -1.1092  0.4241
  565MOL0     H76231  10.348  11.569   2.059 -1.7849 -0.9302  0.0009
  565MOL0     H76232  10.315  11.632   1.890  0.1841  1.1357  1.1354
  565MOL0     H76233  10.532  11.572   1.881 -1.0741  1.3828  2.9115
  565MOL0     H76234  10.455  11.435   1.801  1.1090  2.4895 -1.8096
  565MOL0     H76235  10.654  11.239   2.139  1.6327 -0.2429  1.6701
  565MOL0     H76236  10.883  11.165   2.109 -0.3385  0.0794  1.0487
  565MOL0     H76237  11.374  11.249   1.908  3.6639  2.3168 -1.4144
  565MOL0     H76238  11.551  11.116   1.805  0.2337  2.4689  0.7164
  565MOL0     H76239  11.718  11.080   1.635 -1.6697  1.6263 -1.3595
  565MOL0     H76240  11.670  10.912   1.679  1.5751  0.0209  0.3481
  565MOL0     H76241  11.733  11.002   1.401  0.5323  0.2842  0.7676
  565MOL0     H76242  11.859  10.928   1.490  0.6233  1.5643 -0.1715
  565MOL0     H76243  11.740  10.718   1.482 -1.0671 -0.7367 -0.1218
  565MOL0     H76244  11.583  10.794   1.456 -0.4706 -0.1568 -1.3099
  565MOL0     H76245  11.824  10.780   1.260  1.2467  0.1627  1.7931
  565MOL0     H76246  11.674  10.868   1.228 -0.7145 -1.0275 -0.4625
  565MOL0     H76247  11.540  10.666   1.245 -0.8624 -3.7414 -0.6339
  565MOL0     H76248  11.668  10.577   1.315  1.9608  0.6724  1.1383
  565MOL0     H76249  11.656  10.702   1.025 -1.1738 -1.7430 -0.0273
  565MOL0     H76250  11.801  10.618   1.099  0.7303  1.9993  1.6063
  565MOL0     H76251  11.646  10.408   1.109  2.5409 -1.0559 -1.9221
  565MOL0     H76252  11.704  10.454   0.959  1.5027  0.4319  0.5134
  565MOL0     H76253  11.485  10.389   0.939  1.8575 -1.6153  0.9765
  565MOL0     H76254  11.422  10.490   1.078  0.9109  1.6406 -0.8485
  565MOL0     H76255  11.316  11.101   1.438  1.5289  1.1080 -1.0037
  565MOL0     H76256  11.142  11.222   1.541 -0.4904 -0.1511  0.7357
  565MOL0     H76257  10.887  11.393   1.724  0.2738 -1.0568 -0.9105
  565MOL0     H76258  10.665  11.430   1.759  2.5217  1.2690 -1.1895
  565MOL0     H76259   9.192  11.095   1.289 -0.3702 -0.0977  0.4865
  565MOL0     H76260   9.068  10.886   1.244 -4.9440 -2.7373 -1.2535
  565MOL0     H76261   8.608  10.754   1.358  0.1130 -0.6787  0.7651
  565MOL0     H76262   8.412  10.598   1.371 -1.3085 -1.2852 -2.4636
  565MOL0     H76263   8.334  10.391   1.435  0.6012 -0.8291 -0.3649
  565MOL0     H76264   8.305  10.243   1.353 -2.9860 -0.7004 -2.2300
  565MOL0     H76265   8.184  10.493   1.228  0.5170 -0.1733  0.6366
  565MOL0     H76266   8.121  10.421   1.385 -2.3787 -3.0621 -0.1982
  565MOL0     H76267   8.102  10.211   1.294 -0.3748  1.0577  0.8396
  565MOL0     H76268   8.175  10.264   1.140 -0.9447 -2.0140  0.6597
  565MOL0     H76269   7.961  10.437   1.156  1.4656  1.8402  1.5339
  565MOL0     H76270   7.940  10.278   1.088 -1.8507 -0.8017  1.0234
  565MOL0     H76271   7.741  10.262   1.470  0.4326  0.7660  1.1503
  565MOL0     H76272   8.582  10.367   1.065  1.3130 -0.0082  1.1885
  565MOL0     H76273   8.899  10.527   1.037  0.0967 -1.9421  0.0762
  565MOL0     H76274   8.798  10.407   0.967 -0.1867 -0.6458  0.9244
  565MOL0     H76275   8.790  10.583   0.923 -0.0488  2.0077  2.3041
  566MOL0     O76276   6.539   9.062   6.435 -0.4483  0.1442  0.2849
  566MOL0     C76277   6.650   9.042   6.495 -0.6959  0.1139  0.5695
  566MOL0     O76278   6.671   9.036   6.629  0.1357  0.5230 -0.7723
  566MOL0     C76279   6.573   9.035   6.728  0.5353 -0.6355  0.1891
  566MOL0     C76280   6.446   8.972   6.711 -0.4646 -0.2559 -0.5574
  566MOL0     C76281   6.353   8.957   6.816 -0.1351  0.1520  0.2081
  566MOL0     C76282   6.380   9.016   6.943  0.8513 -0.0124  0.5362
  566MOL0     O76283   6.274   9.017   7.035  0.5951 -0.3840 -0.4139
  566MOL0     C76284   6.309   9.064   7.166 -0.5172  0.0347 -0.6729
  566MOL0     C76285   6.205   9.038   7.271  0.6405 -0.0356 -0.7793
  566MOL0     C76286   6.181   8.890   7.316 -0.1996 -0.3179 -0.1711
  566MOL0     C76287   6.096   8.873   7.439 -1.0723  0.0972 -0.1382
  566MOL0     C76288   6.055   8.724   7.465  0.7040  0.3044  0.4595
  566MOL0     C76289   5.955   8.713   7.582  0.8371  0.2065  0.5799
  566MOL0     C76290   5.993   8.798   7.705 -0.3117  0.6465 -0.4055
  566MOL0     C76291   6.115   8.740   7.781 -0.5247 -0.1386  0.4277
  566MOL0     N76292   6.149   8.812   7.910  0.0392 -0.5566  0.3868
  566MOL0     C76293   6.243   8.771   7.995  0.9237  0.2152 -0.5709
  566MOL0     C76294   6.246   8.872   8.088  0.3492 -0.5068  0.1249
  566MOL0     C76295   6.338   8.890   8.197 -0.2957  0.0489  0.4602
  566MOL0     C76296   6.466   8.973   8.144 -0.5449  0.6408 -0.6492
  566MOL0     C76297   6.536   8.882   8.041 -0.2534 -0.0300  0.7229
  566MOL0     C76298   6.667   8.933   8.007  0.4785 -0.3026 -0.2062
  566MOL0     O76299   6.652   9.064   7.939  0.2396  0.4084 -0.5173
  566MOL0     C76300   6.755   9.106   7.854 -0.6393  0.2282  1.2158
  566MOL0     C76301   6.735   9.193   7.740  0.3670  0.3222 -0.4993
  566MOL0     C76302   6.844   9.215   7.648  0.0231 -0.5066 -0.1440
  566MOL0     C76303   6.973   9.171   7.683  0.7954  0.6494  0.1034
  566MOL0     C76304   7.093   9.209   7.590 -0.5769 -0.0790 -0.0128
  566MOL0     O76305   7.064   9.290   7.488  0.5068  0.4765 -0.1721
  566MOL0     C76306   7.165   9.313   7.404  0.1678 -0.1902 -0.2164
  566MOL0     C76307   7.205   9.208   7.314  0.6416 -0.2174  0.2384
  566MOL0     C76308   7.318   9.217   7.245  0.0079 -0.1191 -0.1547
  566MOL0     C76309   7.408   9.333   7.271  0.5173 -0.6125 -0.7675
  566MOL0     O76310   7.527   9.366   7.223  0.5597  0.0580  0.4384
  566MOL0     C76311   7.589   9.273   7.135  0.2748  0.4775  0.6129
  566MOL0     C76312   7.720   9.318   7.064  0.1649 -0.3089  0.3814
  566MOL0     C76313   7.693   9.402   6.948 -0.1594 -0.3073  0.3503
  566MOL0     C76314   7.816   9.409   6.853  0.1963 -0.8732  0.6992
  566MOL0     C76315   7.790   9.514   6.741 -0.8456  0.4901 -0.4445
  566MOL0     C76316   7.917   9.513   6.646  0.6333  0.1935 -0.3325
  566MOL0     C76317   7.913   9.620   6.540  0.3694 -0.3268  0.1154
  566MOL0     C76318   8.044   9.632   6.460  0.1703 -0.6768  0.2408
  566MOL0    Cl76319   8.083   9.484   6.362  0.7165 -0.0609  0.2148
  566MOL0     C76320   7.370   9.433   7.360 -0.4925 -0.4003 -0.7546
  566MOL0     C76321   7.252   9.418   7.425  0.8890 -0.8892 -0.4064
  566MOL0     O76322   7.208   9.169   7.621 -0.0147 -1.1548 -0.3963
  566MOL0     C76323   6.996   9.090   7.791  0.6475 -0.2471  0.3756
  566MOL0     C76324   6.892   9.060   7.876  0.3978 -0.5381  0.6101
  566MOL0     N76325   6.147   8.969   8.053 -0.8072  0.5556  0.0480
  566MOL0     N76326   6.091   8.924   7.950  0.1752  0.6678  0.2485
  566MOL0     C76327   6.502   9.079   6.957 -0.1622  0.0253 -0.0220
  566MOL0     C76328   6.598   9.088   6.850 -0.0470  0.1279  0.2490
  566MOL0     C76329   6.769   9.022   6.410 -0.3680 -0.3447 -0.2308
  566MOL0     C76330   6.749   8.956   6.285  0.2141  0.3287  0.1721
  566MOL0     C76331   6.844   8.957   6.184 -0.3787  1.1859  0.0197
  566MOL0     C76332   6.974   8.988   6.215 -0.4263 -0.5879  0.9770
  566MOL0     O76333   7.081   8.977   6.124  0.3248 -0.6931  0.4348
  566MOL0     C76334   7.055   8.927   5.994 -0.5690  0.2078  0.4868
  566MOL0     C76335   7.059   8.779   5.978 -0.7994  1.0059 -0.2451
  566MOL0     C76336   7.061   8.728   5.831  0.9022  0.0942 -0.5722
  566MOL0     C76337   7.040   8.569   5.833  0.0231 -0.7011  0.8408
  566MOL0     C76338   7.151   8.489   5.886 -0.7031 -1.1196 -0.1675
  566MOL0     C76339   7.250   8.445   5.944 -0.0655 -0.6838  0.3561
  566MOL0     C76340   7.000   9.039   6.341 -0.3289 -0.6537  0.3467
  566MOL0     C76341   6.904   9.065   6.443 -0.1531  1.7398  0.7839
  566MOL0     C76342   6.962   9.129   6.572 -0.0565  0.1159 -0.4610
  566MOL0     H76343   6.421   8.931   6.613  0.2671  1.7780 -1.6626
  566MOL0     H76344   6.260   8.906   6.792 -0.8141  1.0321  0.8756
  566MOL0     H76345   6.386   8.993   7.198 -1.2477 -1.1710 -1.5324
  566MOL0     H76346   6.349   9.166   7.169 -1.5562  0.4365 -0.0358
  566MOL0     H76347   6.112   9.078   7.228 -0.9385 -1.4488  1.1467
  566MOL0     H76348   6.237   9.092   7.361  1.4672 -1.8883  0.0831
  566MOL0     H76349   6.279   8.841   7.318 -0.7207 -1.3682  0.1515
  566MOL0     H76350   6.122   8.850   7.233 -0.2810  2.5545 -1.6163
  566MOL0     H76351   6.145   8.915   7.528 -0.5248  1.6552 -1.1510
  566MOL0     H76352   6.014   8.944   7.441  0.0520  1.5438  3.2991
  566MOL0     H76353   6.014   8.681   7.374 -0.8707  2.0390  0.2991
  566MOL0     H76354   6.140   8.658   7.486  2.1242  0.9706 -2.7046
  566MOL0     H76355   5.859   8.746   7.540  0.9561 -0.0302  0.1131
  566MOL0     H76356   5.953   8.607   7.607  2.9565 -0.6917 -2.4691
  566MOL0     H76357   5.913   8.787   7.779 -0.5944  0.1083 -0.7810
  566MOL0     H76358   6.009   8.902   7.678  2.7110  0.4261  0.1698
  566MOL0     H76359   6.090   8.634   7.791 -0.0038 -0.5069 -1.7603
  566MOL0     H76360   6.202   8.753   7.717 -0.1828  2.2254  1.2718
  566MOL0     H76361   6.302   8.680   7.988  1.2230  0.5035 -2.8839
  566MOL0     H76362   6.279   8.939   8.275  0.1332 -0.7863  1.3374
  566MOL0     H76363   6.362   8.790   8.235 -0.5358 -1.0151 -1.9849
  566MOL0     H76364   6.439   9.065   8.093 -2.5446 -0.0585 -0.9211
  566MOL0     H76365   6.534   8.983   8.230  0.4765 -0.1863 -1.3352
  566MOL0     H76366   6.478   8.883   7.948 -0.5727  1.7525  0.9078
  566MOL0     H76367   6.559   8.778   8.068  0.6887 -0.1589 -0.4536
  566MOL0     H76368   6.723   8.863   7.944  2.0923  2.5109 -2.1458
  566MOL0     H76369   6.734   8.944   8.093 -0.3246  0.0552  0.3825
  566MOL0     H76370   6.631   9.220   7.725 -0.4283 -2.3409 -0.4295
  566MOL0     H76371   6.819   9.262   7.553 -0.0300 -0.5198 -0.1368
  566MOL0     H76372   7.135   9.126   7.301 -0.3422  0.8338 -1.4853
  566MOL0     H76373   7.348   9.139   7.175 -0.8272  0.7971 -1.5967
  566MOL0     H76374   7.613   9.182   7.190 -0.8934 -0.1185  0.1725
  566MOL0     H76375   7.520   9.230   7.062  1.3039 -2.3838  1.2258
  566MOL0     H76376   7.780   9.363   7.144  1.3886 -0.5725 -0.3560
  566MOL0     H76377   7.772   9.233   7.020 -1.2197 -1.5971  1.1656
  566MOL0     H76378   7.608   9.354   6.900  1.6404 -3.9435  0.4589
  566MOL0     H76379   7.654   9.501   6.974 -2.3419 -1.7152  2.9275
  566MOL0     H76380   7.837   9.306   6.822  0.4669 -1.2672  2.0986
  566MOL0     H76381   7.907   9.435   6.908 -1.2331  1.9607  1.9589
  566MOL0     H76382   7.787   9.614   6.785 -0.2436 -1.2770  4.3089
  566MOL0     H76383   7.702   9.485   6.683 -2.2375 -0.6893  2.0544
  566MOL0     H76384   7.996   9.533   6.718  0.0711  0.2910  0.2649
  566MOL0     H76385   7.922   9.414   6.599  0.7562 -1.2594  2.5080
  566MOL0     H76386   7.881   9.710   6.593 -0.3822 -0.7764  0.4305
  566MOL0     H76387   7.830   9.604   6.471  1.3137  2.7188 -1.9643
  566MOL0     H76388   8.039   9.709   6.383  0.2524 -0.7274  0.1834
  566MOL0     H76389   8.124   9.666   6.527 -0.7956  3.1014 -0.3239
  566MOL0     H76390   7.428   9.515   7.402  0.6912 -1.6630  0.1662
  566MOL0     H76391   7.223   9.478   7.511 -1.4192 -0.2433 -1.5510
  566MOL0     H76392   7.086   9.044   7.829 -1.1549 -2.9631  1.7096
  566MOL0     H76393   6.912   8.998   7.963 -0.1322 -1.0786  0.3560
  566MOL0     H76394   6.530   9.110   7.057 -1.8194 -1.5730  1.0026
  566MOL0     H76395   6.695   9.134   6.865 -0.0515  0.1504  0.2063
  566MOL0     H76396   6.652   8.913   6.264  0.6245 -0.9367  0.7386
  566MOL0     H76397   6.819   8.904   6.093  0.8630  1.8352 -0.7201
  566MOL0     H76398   7.120   8.980   5.923 -3.0839 -0.0063 -2.1516
  566MOL0     H76399   6.955   8.962   5.966 -0.9582 -0.5392  0.9228
  566MOL0     H76400   6.973   8.742   6.035 -1.2487 -0.3018 -1.7037
  566MOL0     H76401   7.148   8.741   6.029 -1.0383 -2.6266 -2.2127
  566MOL0     H76402   7.149   8.759   5.775  0.2827  1.0729 -1.0307
  566MOL0     H76403   6.975   8.770   5.778  0.2652 -2.6671 -1.9135
  566MOL0     H76404   6.947   8.561   5.890 -0.6009  0.2032 -0.0208
  566MOL0     H76405   7.013   8.537   5.732 -3.7576  3.2181  0.2893
  566MOL0     H76406   7.331   8.399   5.996  0.2466  2.1100  2.6474
  566MOL0     H76407   7.093   9.090   6.361 -1.0741  0.7087  0.4478
  566MOL0     H76408   7.061   9.173   6.554 -0.2928  0.2689 -1.4832
  566MOL0     H76409   6.895   9.204   6.613  3.3370  3.3316 -0.3406
  566MOL0     H76410   6.971   9.048   6.645 -2.4575 -1.5786 -1.8661
  567MOL0     O76411  10.725   1.510   4.086 -0.1120  0.0584  0.6536
  567MOL0     C76412  10.653   1.441   4.156  0.2352  0.1588  0.2255
  567MOL0     O76413  10.693   1.347   4.243 -0.2328  0.0255 -0.3117
  567MOL0     C76414  10.826   1.312   4.239  0.0852 -0.2005  0.3273
  567MOL0     C76415  10.909   1.315   4.353 -0.0138  0.2803  0.3120
  567MOL0     C76416  11.041   1.266   4.345 -0.3542 -0.1487  0.5486
  567MOL0     C76417  11.092   1.219   4.218 -0.7173 -0.7939 -0.9648
  567MOL0     O76418  11.228   1.190   4.190  0.0430 -0.1782 -0.2813
  567MOL0     C76419  11.284   1.093   4.279 -0.0714 -0.5544 -0.4542
  567MOL0     C76420  11.426   1.137   4.298  0.0904  0.4370  0.3307
  567MOL0     C76421  11.450   1.259   4.377 -0.9868 -0.1446 -0.7419
  567MOL0     C76422  11.603   1.287   4.400  0.1142  0.3004 -0.1054
  567MOL0     C76423  11.641   1.419   4.465  0.3342  1.2730 -0.0473
  567MOL0     C76424  11.594   1.545   4.395 -0.1082 -0.3966  0.7531
  567MOL0     C76425  11.659   1.657   4.475  0.2563  0.0405 -0.2196
  567MOL0     C76426  11.613   1.795   4.418  0.1011 -0.0561 -0.3810
  567MOL0     N76427  11.696   1.902   4.475 -0.0282 -0.5740 -0.2825
  567MOL0     C76428  11.789   1.964   4.396  0.3119  0.1081 -0.2621
  567MOL0     C76429  11.876   2.028   4.472 -0.1307  0.5166  0.3330
  567MOL0     C76430  11.991   2.110   4.434  0.5071 -0.2544 -0.3645
  567MOL0     C76431  12.117   2.037   4.469 -0.3646 -0.2396 -0.4712
  567MOL0     C76432  12.148   2.042   4.620  0.4671 -0.2050  0.0300
  567MOL0     C76433  12.156   2.187   4.677  0.1357 -0.6711  0.3672
  567MOL0     O76434  12.205   2.182   4.810  0.2812  0.3078 -0.1124
  567MOL0     C76435  12.324   2.231   4.828 -0.6014 -0.9478 -0.1822
  567MOL0     C76436  12.439   2.191   4.764 -0.4473  0.2957 -0.5483
  567MOL0     C76437  12.571   2.253   4.791  1.0950  0.3374  1.3007
  567MOL0     C76438  12.582   2.354   4.895  0.0044 -0.0315 -0.3252
  567MOL0     C76439  12.714   2.426   4.909  0.3391 -0.7188 -1.6617
  567MOL0     O76440  12.804   2.419   4.808  0.5538  0.1391  0.2597
  567MOL0     C76441  12.919   2.489   4.825  0.9776 -0.4691  0.3094
  567MOL0     C76442  13.026   2.426   4.894 -0.6302 -0.4316  0.4693
  567MOL0     C76443  13.143   2.510   4.913 -0.3296  0.1950  0.0294
  567MOL0     C76444  13.152   2.635   4.861  0.3008  0.4703 -0.0994
  567MOL0     O76445  13.259   2.715   4.877  0.2064  0.2993 -0.5061
  567MOL0     C76446  13.385   2.658   4.845 -0.4385 -0.2760 -0.1595
  567MOL0     C76447  13.504   2.751   4.868 -0.3755 -0.1362  0.7475
  567MOL0     C76448  13.541   2.857   4.751 -0.1681  0.2407 -0.0248
  567MOL0     C76449  13.419   2.904   4.675  0.1421  0.8553  0.0772
  567MOL0     C76450  13.446   3.019   4.577  0.2746  0.0012  0.7130
  567MOL0     C76451  13.498   3.141   4.662  0.6587  1.2587  0.0983
  567MOL0     C76452  13.534   3.256   4.568 -0.2724  0.3137 -0.0717
  567MOL0     C76453  13.406   3.329   4.536  0.6502 -0.1242 -0.2622
  567MOL0    Cl76454  13.448   3.430   4.405 -0.2033  0.4833  0.3656
  567MOL0     C76455  13.039   2.687   4.802  0.5442 -0.3907 -0.3348
  567MOL0     C76456  12.925   2.627   4.779 -0.6112  1.2626 -0.0757
  567MOL0     O76457  12.724   2.508   5.003  0.7208  0.1459 -0.3999
  567MOL0     C76458  12.465   2.380   4.960  0.4117  0.4078  0.5060
  567MOL0     C76459  12.345   2.319   4.925  0.7980 -0.6854  0.0515
  567MOL0     N76460  11.835   1.992   4.598 -0.6505 -0.0522 -0.5366
  567MOL0     N76461  11.738   1.911   4.603  0.6793  0.2735  0.0435
  567MOL0     C76462  11.003   1.202   4.118  0.8207  0.1047 -0.1148
  567MOL0     C76463  10.873   1.244   4.123 -0.1398 -0.3911 -0.2021
  567MOL0     C76464  10.509   1.463   4.169  0.1171  0.2411 -0.1369
  567MOL0     C76465  10.424   1.351   4.148  0.6823 -0.5092  0.8486
  567MOL0     C76466  10.284   1.373   4.146 -0.7991  0.3175 -0.3747
  567MOL0     C76467  10.224   1.491   4.146  0.1002 -0.7806 -0.5586
  567MOL0     O76468  10.091   1.498   4.131  0.4243 -0.4750  0.5831
  567MOL0     C76469  10.021   1.619   4.157  0.1363 -0.1482  0.3509
  567MOL0     C76470   9.866   1.585   4.168  0.6744 -0.2240  0.3559
  567MOL0     C76471   9.796   1.723   4.178 -0.1069  0.8766  0.1539
  567MOL0     C76472   9.643   1.703   4.196  0.2210 -0.5848  0.2704
  567MOL0     C76473   9.569   1.722   4.069 -0.5546 -0.9623 -0.5673
  567MOL0     C76474   9.507   1.731   3.966  0.1669 -0.4781 -0.4750
  567MOL0     C76475  10.305   1.605   4.174  0.3339 -0.6415 -0.0532
  567MOL0     C76476  10.448   1.590   4.193  0.6664 -0.8894  0.2638
  567MOL0     C76477  10.536   1.715   4.217 -0.1977 -0.4564 -0.5906
  567MOL0     H76478  10.860   1.321   4.449 -2.4257 -0.8586 -0.7483
  567MOL0     H76479  11.113   1.270   4.426  2.5016  2.5681 -1.8697
  567MOL0     H76480  11.236   1.091   4.377 -0.7632 -0.6047 -0.7814
  567MOL0     H76481  11.283   0.995   4.229 -0.6729 -0.0998 -1.3605
  567MOL0     H76482  11.474   1.143   4.200  0.2892  1.3613  0.4764
  567MOL0     H76483  11.476   1.051   4.342  0.6370 -0.9510 -2.7203
  567MOL0     H76484  11.407   1.242   4.477 -0.4520  0.8690 -0.3241
  567MOL0     H76485  11.403   1.352   4.342  2.1877  1.3263 -1.4017
  567MOL0     H76486  11.638   1.202   4.458  0.4842  0.7899  0.4000
  567MOL0     H76487  11.660   1.291   4.307  0.5367  1.5222  0.1799
  567MOL0     H76488  11.585   1.422   4.558 -0.2817  3.1976 -0.4237
  567MOL0     H76489  11.750   1.424   4.478  0.2042  4.3375  0.6566
  567MOL0     H76490  11.636   1.557   4.295 -0.0837 -0.6872  0.7256
  567MOL0     H76491  11.485   1.542   4.392 -0.0765 -1.4965 -0.3068
  567MOL0     H76492  11.768   1.650   4.466  0.1673 -6.1550 -0.5503
  567MOL0     H76493  11.627   1.648   4.579  1.1221 -1.2391 -0.0393
  567MOL0     H76494  11.627   1.789   4.310  0.6200 -2.5978 -0.2256
  567MOL0     H76495  11.508   1.810   4.442  0.4565  2.2439 -0.0119
  567MOL0     H76496  11.800   1.957   4.288 -0.0821  1.9262 -0.4615
  567MOL0     H76497  11.988   2.130   4.327 -3.6241  0.6017 -0.2438
  567MOL0     H76498  11.982   2.204   4.491 -0.7126 -1.9077  2.3798
  567MOL0     H76499  12.124   1.937   4.425  0.6894  0.4498 -1.9369
  567MOL0     H76500  12.199   2.095   4.427  0.6908 -1.3259  0.0171
  567MOL0     H76501  12.243   1.988   4.627  0.9039  0.5761  0.1581
  567MOL0     H76502  12.068   1.981   4.663 -0.1237  0.7647  0.3272
  567MOL0     H76503  12.054   2.227   4.679  0.1316 -0.4460 -1.9869
  567MOL0     H76504  12.218   2.251   4.614  0.8390 -1.2227  0.4923
  567MOL0     H76505  12.438   2.114   4.688 -1.7212 -0.2471 -0.0083
  567MOL0     H76506  12.654   2.212   4.734 -0.6911 -1.9371  0.1616
  567MOL0     H76507  13.031   2.327   4.939  0.7228  0.8062  3.3348
  567MOL0     H76508  13.229   2.468   4.964  1.5740 -1.0374 -3.8524
  567MOL0     H76509  13.403   2.570   4.906 -1.3347  0.1727  0.7846
  567MOL0     H76510  13.388   2.631   4.739  0.8816  0.8998 -0.4478
  567MOL0     H76511  13.471   2.810   4.954 -2.0232 -1.2298  0.8841
  567MOL0     H76512  13.594   2.696   4.896  0.2966  1.5603  2.1682
  567MOL0     H76513  13.597   2.938   4.799 -2.7299  2.0748  0.0627
  567MOL0     H76514  13.612   2.807   4.685  2.1335  3.4448 -0.2060
  567MOL0     H76515  13.345   2.936   4.749 -0.0219 -0.9745  0.7575
  567MOL0     H76516  13.389   2.820   4.612  1.6247  1.5092 -1.5822
  567MOL0     H76517  13.355   3.046   4.523  1.0621  3.8446  1.0158
  567MOL0     H76518  13.528   2.982   4.515 -0.4822 -3.7510  1.6852
  567MOL0     H76519  13.412   3.175   4.720 -0.4255  1.4713 -1.5676
  567MOL0     H76520  13.575   3.112   4.735  1.3761  0.5663 -0.8965
  567MOL0     H76521  13.590   3.234   4.476  0.5628  0.6301  0.3436
  567MOL0     H76522  13.607   3.313   4.626  1.8049 -2.0890 -0.1094
  567MOL0     H76523  13.326   3.256   4.528  1.2413 -0.6589 -1.4058
  567MOL0     H76524  13.381   3.396   4.619  1.1957 -0.4313  0.1568
  567MOL0     H76525  13.047   2.786   4.759  2.1840  0.5774  1.9378
  567MOL0     H76526  12.860   2.682   4.713  2.2218  3.1584 -1.4809
  567MOL0     H76527  12.472   2.458   5.034  0.0304 -1.1299  2.2419
  567MOL0     H76528  12.257   2.350   4.982  0.9188  2.3698 -1.2236
  567MOL0     H76529  11.038   1.157   4.025 -0.4040  2.9143 -2.0373
  567MOL0     H76530  10.804   1.232   4.040 -1.8788 -0.2240  1.1627
  567MOL0     H76531  10.455   1.248   4.133 -1.0016 -1.0578  0.9175
  567MOL0     H76532  10.222   1.284   4.142 -1.1155  0.3853  1.6498
  567MOL0     H76533  10.045   1.702   4.089 -0.3628 -1.6953 -1.8161
  567MOL0     H76534  10.053   1.661   4.253 -1.1850  4.7314 -1.0393
  567MOL0     H76535   9.853   1.525   4.258  1.9954  0.2237  0.8623
  567MOL0     H76536   9.837   1.535   4.075  1.0705  0.6057 -0.2284
  567MOL0     H76537   9.814   1.773   4.082 -0.6266  0.8838  0.0582
  567MOL0     H76538   9.840   1.779   4.261 -0.1228 -0.8497  1.3842
  567MOL0     H76539   9.628   1.597   4.218  2.5718 -1.4650 -1.8298
  567MOL0     H76540   9.603   1.770   4.273 -1.7412 -0.1959 -1.0377
  567MOL0     H76541   9.451   1.736   3.875 -1.6645  0.1456  0.6399
  567MOL0     H76542  10.260   1.702   4.192 -0.4303 -0.1537 -3.8535
  567MOL0     H76543  10.644   1.699   4.212  0.0392  0.4655  0.9744
  567MOL0     H76544  10.513   1.793   4.144 -1.3813  2.4834  2.6400
  567MOL0     H76545  10.523   1.760   4.317  5.7819 -2.4319  1.5291
  568MOL0     O76546   0.600   0.120   1.168 -0.0372 -0.0972 -0.7246
  568MOL0     C76547   0.585   0.142   1.285  0.9564  0.7551 -0.8916
  568MOL0     O76548   0.642   0.074   1.393  0.2724  0.2404  0.1870
  568MOL0     C76549   0.754   0.010   1.359 -0.6784  0.4779  0.0748
  568MOL0     C76550   0.763  -0.129   1.378  0.4929  0.3781 -0.6093
  568MOL0     C76551   0.876  -0.190   1.336 -0.5698 -0.2133  0.3919
  568MOL0     C76552   0.996  -0.130   1.283 -1.0502  0.4990 -0.4736
  568MOL0     O76553   1.115  -0.192   1.245  0.1721  0.5593 -0.7430
  568MOL0     C76554   1.143  -0.328   1.279  0.0015  0.2773 -0.3522
  568MOL0     C76555   1.176  -0.344   1.427 -0.4432 -0.3255 -1.2650
  568MOL0     C76556   1.328  -0.323   1.456 -0.3304  0.5079 -0.6908
  568MOL0     C76557   1.402  -0.457   1.445 -0.1847 -0.5720 -0.0916
  568MOL0     C76558   1.546  -0.472   1.496 -0.5513  0.4380 -0.1100
  568MOL0     C76559   1.597  -0.617   1.481 -0.6502  1.0031 -0.3747
  568MOL0     C76560   1.749  -0.625   1.514  0.2272 -0.7675 -0.2426
  568MOL0     C76561   1.778  -0.587   1.658  0.0781 -0.2291 -0.0169
  568MOL0     N76562   1.914  -0.622   1.696  0.3043 -0.4597 -0.4182
  568MOL0     C76563   2.026  -0.635   1.617 -0.9537 -0.4768 -0.3948
  568MOL0     C76564   2.131  -0.680   1.700 -0.2230  0.0151  0.8840
  568MOL0     C76565   2.254  -0.741   1.643 -0.1100 -0.2829  0.1540
  568MOL0     C76566   2.375  -0.737   1.729 -0.4535 -0.5317  0.4642
  568MOL0     C76567   2.442  -0.603   1.717  0.2738  0.0473  0.0474
  568MOL0     C76568   2.519  -0.599   1.847 -0.8224 -0.0662 -0.1079
  568MOL0     O76569   2.620  -0.493   1.834 -0.2495 -1.0074 -0.7223
  568MOL0     C76570   2.708  -0.494   1.948 -0.6765  0.1358  0.3825
  568MOL0     C76571   2.677  -0.539   2.078  0.1221  0.9554 -0.3993
  568MOL0     C76572   2.767  -0.561   2.189  0.1657 -0.0691 -0.4044
  568MOL0     C76573   2.894  -0.505   2.171 -0.2280  0.2145  0.3976
  568MOL0     C76574   3.003  -0.524   2.268 -0.2339 -0.1339  0.2549
  568MOL0     O76575   2.978  -0.625   2.368 -0.0042 -0.4712  0.2422
  568MOL0     C76576   3.074  -0.628   2.461  0.6371  0.8233 -0.4365
  568MOL0     C76577   3.157  -0.741   2.463  0.4114 -0.0820 -0.1652
  568MOL0     C76578   3.238  -0.760   2.576 -0.2702 -0.0351 -1.1150
  568MOL0     C76579   3.230  -0.672   2.691  0.1616 -0.1368  0.3439
  568MOL0     O76580   3.317  -0.680   2.798 -0.1704 -0.2172 -0.0135
  568MOL0     C76581   3.412  -0.781   2.801  0.2259  0.3228 -0.2708
  568MOL0     C76582   3.500  -0.749   2.927  0.4446  0.2245 -0.4984
  568MOL0     C76583   3.629  -0.821   2.914  0.8679 -0.6248  0.1544
  568MOL0     C76584   3.713  -0.783   3.033  0.4306 -0.6035  0.2579
  568MOL0     C76585   3.800  -0.657   3.020  0.2017  0.0692 -0.7748
  568MOL0     C76586   3.808  -0.578   3.143  0.3374  0.5152  0.3495
  568MOL0     C76587   3.876  -0.659   3.253  0.6510 -0.4489  0.9859
  568MOL0     C76588   3.863  -0.587   3.383 -0.9304  0.5956 -1.1634
  568MOL0    Cl76589   3.981  -0.446   3.401  0.9267  0.4526  0.1714
  568MOL0     C76590   3.153  -0.555   2.683  0.4522  0.7811 -0.1648
  568MOL0     C76591   3.063  -0.545   2.577  0.4844  0.8240 -0.1886
  568MOL0     O76592   3.106  -0.459   2.262  0.4683  0.5717 -0.1536
  568MOL0     C76593   2.923  -0.440   2.047 -0.2408  0.0515  0.2267
  568MOL0     C76594   2.837  -0.442   1.933  0.5432 -0.9610 -0.4191
  568MOL0     N76595   2.083  -0.688   1.832  0.3122  0.3784 -0.2737
  568MOL0     N76596   1.964  -0.647   1.821 -0.0571 -0.7181 -0.0517
  568MOL0     C76597   0.991   0.015   1.280 -0.4462  0.7951 -0.1104
  568MOL0     C76598   0.872   0.075   1.328 -0.4529  0.7140 -0.3538
  568MOL0     C76599   0.495   0.250   1.327  0.3618  0.5349 -0.1223
  568MOL0     C76600   0.530   0.330   1.438 -0.8501 -0.1502  0.9564
  568MOL0     C76601   0.447   0.426   1.490  0.7578 -0.6959  0.1168
  568MOL0     C76602   0.316   0.427   1.441 -0.3654  1.1777  0.8917
  568MOL0     O76603   0.223   0.514   1.494  0.0659  0.3493 -0.6817
  568MOL0     C76604   0.256   0.612   1.591  0.3093 -0.0111 -0.6393
  568MOL0     C76605   0.143   0.715   1.611  0.1137 -0.2092  0.0049
  568MOL0     C76606   0.008   0.653   1.600 -0.2172 -0.4140  0.4319
  568MOL0     C76607  -0.103   0.755   1.637  0.3914 -1.2024  0.7185
  568MOL0     C76608  -0.101   0.779   1.784 -1.1699  0.0229 -0.0467
  568MOL0     C76609  -0.087   0.783   1.901 -0.1400 -0.8170  0.4699
  568MOL0     C76610   0.273   0.348   1.328 -0.1618  0.5699 -1.0909
  568MOL0     C76611   0.363   0.258   1.272 -0.8362  0.5303  0.1165
  568MOL0     C76612   0.310   0.163   1.172  0.3974 -0.2217  0.0953
  568MOL0     H76613   0.674  -0.177   1.418 -1.1674  4.0302  0.5599
  568MOL0     H76614   0.860  -0.297   1.345  0.6828 -0.4000  0.5943
  568MOL0     H76615   1.057  -0.394   1.260  0.9448 -1.3607  0.8059
  568MOL0     H76616   1.235  -0.359   1.228  0.1124  0.6391 -0.3725
  568MOL0     H76617   1.146  -0.445   1.458  1.6743 -1.9639 -4.1008
  568MOL0     H76618   1.124  -0.280   1.499  0.9743  2.2446 -2.3766
  568MOL0     H76619   1.329  -0.277   1.555  1.3572  0.7174 -0.7911
  568MOL0     H76620   1.379  -0.267   1.378  1.3210 -0.2682 -0.2022
  568MOL0     H76621   1.348  -0.540   1.492 -0.0433 -3.2208 -4.1349
  568MOL0     H76622   1.397  -0.481   1.339  0.1148  0.1848 -0.2856
  568MOL0     H76623   1.611  -0.409   1.434 -0.9596  0.2538 -0.7308
  568MOL0     H76624   1.560  -0.439   1.600  0.3767 -2.8478  0.9372
  568MOL0     H76625   1.554  -0.683   1.556 -0.1429 -0.6336 -1.4500
  568MOL0     H76626   1.569  -0.654   1.381  2.1052  1.7383 -1.5210
  568MOL0     H76627   1.809  -0.564   1.446  1.9605  0.4793  2.2524
  568MOL0     H76628   1.775  -0.730   1.498 -1.4029 -0.9031 -2.4436
  568MOL0     H76629   1.776  -0.478   1.672  1.9366 -0.1691 -0.0452
  568MOL0     H76630   1.702  -0.629   1.725  0.7976  0.1575  1.0659
  568MOL0     H76631   2.032  -0.612   1.512  0.8759  2.4136  0.2379
  568MOL0     H76632   2.233  -0.847   1.625 -1.8060 -0.0792  0.7116
  568MOL0     H76633   2.275  -0.704   1.543  3.2719 -1.2209  0.4078
  568MOL0     H76634   2.351  -0.770   1.830 -1.7181  1.0254  0.7139
  568MOL0     H76635   2.444  -0.815   1.694 -1.8270 -1.7762  0.4520
  568MOL0     H76636   2.370  -0.524   1.736  1.1515  0.3407  2.4271
  568MOL0     H76637   2.494  -0.585   1.622 -3.7299  3.9884 -1.7636
  568MOL0     H76638   2.567  -0.694   1.872 -0.7686 -0.0257 -0.0579
  568MOL0     H76639   2.446  -0.575   1.925 -3.9916  1.1018 -3.1706
  568MOL0     H76640   2.576  -0.573   2.100  0.8503 -1.6807 -0.8642
  568MOL0     H76641   2.726  -0.608   2.278  0.1555 -4.6746 -2.5486
  568MOL0     H76642   3.149  -0.818   2.387  1.6309 -1.9594  1.4971
  568MOL0     H76643   3.293  -0.853   2.592 -1.4019 -0.2629  2.3535
  568MOL0     H76644   3.380  -0.883   2.822  1.7117  0.6374  4.6962
  568MOL0     H76645   3.471  -0.789   2.709 -0.0347 -4.1573 -0.2630
  568MOL0     H76646   3.499  -0.641   2.944  1.0375 -0.0282  1.3454
  568MOL0     H76647   3.447  -0.783   3.016 -0.4604  0.4072 -0.9586
  568MOL0     H76648   3.598  -0.926   2.908  0.8841 -0.5320 -3.6623
  568MOL0     H76649   3.684  -0.804   2.821  1.7553  0.2890  0.8302
  568MOL0     H76650   3.786  -0.862   3.053 -1.2051 -2.5709 -1.1272
  568MOL0     H76651   3.645  -0.764   3.117 -2.0106 -0.2869 -1.6886
  568MOL0     H76652   3.749  -0.593   2.948  0.3987  0.3247 -0.6881
  568MOL0     H76653   3.899  -0.693   2.992  0.4002  0.6208 -0.7903
  568MOL0     H76654   3.864  -0.486   3.124  1.1563  0.2056  1.2005
  568MOL0     H76655   3.710  -0.539   3.172  0.0489  0.8316 -1.0077
  568MOL0     H76656   3.983  -0.678   3.242  0.6793  0.4507 -0.5758
  568MOL0     H76657   3.823  -0.754   3.260  0.5016 -0.3015  2.0262
  568MOL0     H76658   3.764  -0.543   3.396 -3.1095 -4.4089  2.1986
  568MOL0     H76659   3.875  -0.657   3.466 -1.5819  1.1829 -0.5583
  568MOL0     H76660   3.146  -0.491   2.771 -1.3951 -0.8136  0.9425
  568MOL0     H76661   2.999  -0.458   2.589  2.2420  2.4502 -1.8976
  568MOL0     H76662   3.025  -0.407   2.028  0.4884 -2.1842 -0.0948
  568MOL0     H76663   2.863  -0.409   1.832  0.1664  1.7916  0.2833
  568MOL0     H76664   1.081   0.069   1.253  0.3884 -1.9344 -3.5942
  568MOL0     H76665   0.870   0.184   1.335 -2.2154  0.7395 -0.8948
  568MOL0     H76666   0.635   0.326   1.463 -0.5367 -2.4947 -0.4321
  568MOL0     H76667   0.495   0.490   1.564  3.7442 -4.1981  1.4803
  568MOL0     H76668   0.335   0.679   1.557 -0.2523  0.5932 -0.7828
  568MOL0     H76669   0.284   0.571   1.689  0.9165  2.6625  0.3876
  568MOL0     H76670   0.166   0.782   1.527  2.8230 -0.6494  0.2873
  568MOL0     H76671   0.155   0.771   1.705  2.3164 -0.7821  0.1368
  568MOL0     H76672   0.000   0.563   1.661 -2.6519  1.0290  2.4248
  568MOL0     H76673  -0.010   0.627   1.495 -0.9336 -1.8249  0.8905
  568MOL0     H76674  -0.086   0.858   1.604 -1.5758 -1.4625 -1.3488
  568MOL0     H76675  -0.203   0.726   1.605  1.1558 -0.7662 -2.3705
  568MOL0     H76676  -0.084   0.783   2.008 -1.2301  2.9342  0.6578
  568MOL0     H76677   0.169   0.358   1.298 -0.4831  3.0177  0.6063
  568MOL0     H76678   0.204   0.140   1.189 -0.9962  3.5249 -2.1891
  568MOL0     H76679   0.314   0.209   1.073  3.2698  1.3184  0.8158
  568MOL0     H76680   0.363   0.068   1.170 -0.6033 -0.7902 -0.2034
  569MOL0     O76681   3.289   8.788   3.275 -0.1528 -0.0289 -0.2046
  569MOL0     C76682   3.347   8.796   3.166  0.5521 -0.0863 -0.2959
  569MOL0     O76683   3.477   8.786   3.143 -0.9659 -0.7302  0.2404
  569MOL0     C76684   3.579   8.820   3.234 -0.1134  0.2132  0.9980
  569MOL0     C76685   3.711   8.789   3.197  0.6707  0.2349  0.7717
  569MOL0     C76686   3.817   8.808   3.288  0.4371 -0.1196  1.1164
  569MOL0     C76687   3.801   8.880   3.409 -0.0700  0.7621  0.2218
  569MOL0     O76688   3.908   8.905   3.490 -0.2218 -0.0018 -0.0636
  569MOL0     C76689   4.044   8.920   3.451 -0.7165 -0.0674  1.1700
  569MOL0     C76690   4.132   8.804   3.501  0.4905  0.2360  0.0922
  569MOL0     C76691   4.279   8.836   3.471  0.1085 -0.2350 -0.6215
  569MOL0     C76692   4.379   8.736   3.527 -0.5978 -0.3364  1.4011
  569MOL0     C76693   4.405   8.618   3.457  0.5844  0.1150 -0.3983
  569MOL0     C76694   4.519   8.542   3.514  0.6876 -0.3127  0.4951
  569MOL0     C76695   4.547   8.420   3.423 -0.1458 -1.2161 -0.7217
  569MOL0     C76696   4.664   8.437   3.339  0.3885  0.3201  1.0667
  569MOL0     N76697   4.798   8.408   3.408  0.0895  0.4628  0.2050
  569MOL0     C76698   4.914   8.391   3.350 -0.1556 -0.2706 -0.0667
  569MOL0     C76699   5.006   8.336   3.439  0.1551 -0.4298 -0.8461
  569MOL0     C76700   5.148   8.299   3.433  0.5334  0.3212  0.0672
  569MOL0     C76701   5.185   8.160   3.499  0.7174 -1.3030  0.6152
  569MOL0     C76702   5.102   8.039   3.453  0.8827  0.8033  0.8659
  569MOL0     C76703   5.138   7.991   3.314  0.2450  0.3259  1.3952
  569MOL0     O76704   5.037   7.893   3.272  0.2710 -0.3849 -0.2981
  569MOL0     C76705   4.923   7.955   3.221  0.2247 -0.2018 -0.0930
  569MOL0     C76706   4.800   7.913   3.281 -0.8444 -0.9967 -0.1270
  569MOL0     C76707   4.680   7.968   3.232 -0.2345 -0.5077  0.2098
  569MOL0     C76708   4.680   8.075   3.141 -0.0643 -1.2795 -0.3040
  569MOL0     C76709   4.553   8.124   3.079  0.5114  1.4043  0.7152
  569MOL0     O76710   4.561   8.208   2.974 -0.2379 -0.2527 -0.0449
  569MOL0     C76711   4.455   8.256   2.896 -0.3823  0.1008 -0.2362
  569MOL0     C76712   4.327   8.208   2.893 -0.1212  0.5352  0.2290
  569MOL0     C76713   4.232   8.261   2.815  0.7856 -0.7894  0.4447
  569MOL0     C76714   4.261   8.377   2.740 -0.7239  0.4406 -0.6439
  569MOL0     O76715   4.151   8.435   2.678 -0.3076 -1.1271 -0.0824
  569MOL0     C76716   4.163   8.543   2.579  0.7853 -0.5043 -0.1417
  569MOL0     C76717   4.020   8.576   2.525 -0.8525 -0.2112 -0.1263
  569MOL0     C76718   3.929   8.458   2.468  0.3493  0.9989  0.3853
  569MOL0     C76719   3.925   8.459   2.309  0.9200  0.5115 -0.3230
  569MOL0     C76720   3.792   8.414   2.243 -0.4948 -0.7998 -0.3660
  569MOL0     C76721   3.666   8.482   2.278 -1.1182 -0.5198 -0.7328
  569MOL0     C76722   3.664   8.633   2.280  0.0988 -0.3657 -0.3188
  569MOL0     C76723   3.523   8.675   2.304  1.2286 -0.6643  0.1458
  569MOL0    Cl76724   3.525   8.858   2.316  0.5607  0.1523  0.1114
  569MOL0     C76725   4.395   8.425   2.737 -0.6504  0.0712 -0.3349
  569MOL0     C76726   4.488   8.373   2.821  0.0566  0.5491 -0.2647
  569MOL0     O76727   4.450   8.070   3.111  0.2718 -0.0277 -1.2119
  569MOL0     C76728   4.798   8.130   3.098 -0.1559  0.1116 -0.4672
  569MOL0     C76729   4.923   8.068   3.134  0.7182  0.0343  0.4381
  569MOL0     N76730   4.941   8.338   3.562  0.1750 -0.7150  0.9474
  569MOL0     N76731   4.820   8.378   3.536 -0.0948  0.0405 -0.8729
  569MOL0     C76732   3.668   8.913   3.448  0.5120  0.0259 -0.3667
  569MOL0     C76733   3.562   8.888   3.353  0.3279 -0.7620 -0.6837
  569MOL0     C76734   3.258   8.815   3.048 -0.2310  0.0785  0.3916
  569MOL0     C76735   3.117   8.787   3.057 -0.0236  1.0503  0.0365
  569MOL0     C76736   3.042   8.784   2.937 -0.0650 -0.4726  0.0379
  569MOL0     C76737   3.085   8.826   2.813  0.0815  0.5171  0.4781
  569MOL0     O76738   2.999   8.815   2.706 -0.0491 -0.0046  0.5415
  569MOL0     C76739   3.053   8.768   2.581 -0.1637 -0.1670  0.1688
  569MOL0     C76740   2.936   8.705   2.503  0.6565  0.7248 -0.5726
  569MOL0     C76741   2.959   8.652   2.354 -0.0406  1.0077  1.0186
  569MOL0     C76742   3.068   8.713   2.273 -0.3221 -0.5371  0.2234
  569MOL0     C76743   3.073   8.657   2.134  0.0668 -0.1855 -0.5592
  569MOL0     C76744   3.080   8.624   2.017  0.5391 -0.7346  0.0763
  569MOL0     C76745   3.219   8.857   2.806  0.2268 -0.2403  0.5609
  569MOL0     C76746   3.305   8.853   2.917 -0.7407 -0.3374 -0.2628
  569MOL0     C76747   3.448   8.905   2.885  0.3026  0.2994  0.2334
  569MOL0     H76748   3.723   8.748   3.098 -1.6141  2.0424 -0.3738
  569MOL0     H76749   3.915   8.775   3.255  0.0328  1.0312 -1.5150
  569MOL0     H76750   4.061   8.913   3.343 -1.1992 -3.2778  1.2046
  569MOL0     H76751   4.083   9.019   3.476  1.5475 -0.3918 -0.6649
  569MOL0     H76752   4.079   8.714   3.467 -0.9039 -0.2112  3.1364
  569MOL0     H76753   4.125   8.783   3.608 -1.4223 -0.5703 -0.1508
  569MOL0     H76754   4.298   8.935   3.514  1.6150 -0.7754  0.0064
  569MOL0     H76755   4.298   8.847   3.364 -1.7386  1.2539 -0.8592
  569MOL0     H76756   4.468   8.798   3.512 -1.5637  0.7471 -0.1446
  569MOL0     H76757   4.360   8.714   3.632  5.8769 -0.2519  3.0366
  569MOL0     H76758   4.317   8.553   3.455 -0.6853  1.6242 -4.1896
  569MOL0     H76759   4.425   8.651   3.354  0.9873 -1.9895 -1.0364
  569MOL0     H76760   4.605   8.603   3.542  0.4922 -0.3547  1.2135
  569MOL0     H76761   4.484   8.504   3.610  0.5525 -0.0363  0.5559
  569MOL0     H76762   4.464   8.401   3.356 -1.8462  2.0707  0.2280
  569MOL0     H76763   4.556   8.344   3.501 -0.3244  2.3876  3.2448
  569MOL0     H76764   4.649   8.358   3.265 -1.1966  2.5498 -1.1750
  569MOL0     H76765   4.672   8.531   3.284  2.9206 -0.2503  0.3160
  569MOL0     H76766   4.934   8.401   3.244  0.1527  1.8165  0.1565
  569MOL0     H76767   5.188   8.302   3.331 -0.7185  2.6599 -0.4433
  569MOL0     H76768   5.212   8.378   3.474  1.8592  1.3663 -3.6032
  569MOL0     H76769   5.290   8.141   3.474  1.1783  3.0810 -1.7666
  569MOL0     H76770   5.185   8.183   3.606  1.5373 -0.6339  0.4738
  569MOL0     H76771   4.996   8.066   3.451  0.6492 -0.1324 -0.0031
  569MOL0     H76772   5.125   7.957   3.522  0.9726  0.8887  0.9391
  569MOL0     H76773   5.236   7.944   3.325 -0.0857 -0.5238  0.8396
  569MOL0     H76774   5.151   8.068   3.237  1.6992 -3.9304 -3.1548
  569MOL0     H76775   4.796   7.835   3.356 -2.3592 -0.0691  0.8044
  569MOL0     H76776   4.593   7.935   3.287 -0.3877 -0.0490  0.2521
  569MOL0     H76777   4.307   8.112   2.939 -2.8725  1.9125  2.2016
  569MOL0     H76778   4.138   8.207   2.813 -0.6512  1.5971 -0.4363
  569MOL0     H76779   4.196   8.641   2.617  0.0406 -1.3375  3.0141
  569MOL0     H76780   4.235   8.507   2.506  2.8893  1.9942  0.5480
  569MOL0     H76781   3.961   8.621   2.606 -0.0200  1.3460 -0.3417
  569MOL0     H76782   4.030   8.664   2.461  0.1926  0.6388  1.1366
  569MOL0     H76783   3.972   8.367   2.512  1.1406  1.6138  0.9170
  569MOL0     H76784   3.831   8.460   2.517  0.6020  1.3583  0.8912
  569MOL0     H76785   3.997   8.385   2.274  2.1617  2.6582 -2.6361
  569MOL0     H76786   3.959   8.556   2.272 -1.5228  2.4987  2.1419
  569MOL0     H76787   3.764   8.309   2.242  0.2730 -1.0383 -2.2304
  569MOL0     H76788   3.815   8.444   2.140 -2.8293  0.0572 -0.6913
  569MOL0     H76789   3.593   8.453   2.202 -0.7036  1.0498 -1.7843
  569MOL0     H76790   3.637   8.454   2.380  1.2607 -1.6860 -0.3032
  569MOL0     H76791   3.691   8.661   2.178  0.3291 -0.6270 -0.3317
  569MOL0     H76792   3.741   8.675   2.347 -0.9407 -0.2168  0.8160
  569MOL0     H76793   3.454   8.645   2.225 -1.7900 -0.5966  2.5692
  569MOL0     H76794   3.481   8.640   2.399 -1.4647 -0.5915 -0.9608
  569MOL0     H76795   4.433   8.509   2.679 -1.6496  0.1982 -0.8316
  569MOL0     H76796   4.582   8.426   2.831  0.1712  0.8354 -2.3529
  569MOL0     H76797   4.798   8.204   3.018  1.7315 -1.7818 -2.3430
  569MOL0     H76798   5.018   8.115   3.107  0.4135  0.1876 -0.4186
  569MOL0     H76799   3.646   8.960   3.543 -0.8692  0.9273 -1.0928
  569MOL0     H76800   3.470   8.935   3.384  0.7410  0.0226 -0.6221
  569MOL0     H76801   3.077   8.751   3.152  5.2262 -0.2906  2.0672
  569MOL0     H76802   2.936   8.762   2.939 -0.0373 -0.5911  0.1578
  569MOL0     H76803   3.135   8.697   2.593  1.7106  1.9430  0.5798
  569MOL0     H76804   3.093   8.855   2.527  2.2608 -0.4816  1.3256
  569MOL0     H76805   2.847   8.768   2.509  0.7069  0.7418  0.1187
  569MOL0     H76806   2.907   8.618   2.563  2.0104 -1.4056 -2.7999
  569MOL0     H76807   2.870   8.686   2.299  1.1277  0.6733 -1.2138
  569MOL0     H76808   2.955   8.543   2.360 -1.8673  0.4748 -4.2439
  569MOL0     H76809   3.048   8.820   2.256 -0.0764 -0.7171 -1.4133
  569MOL0     H76810   3.169   8.712   2.315 -0.0767  0.3770 -0.2966
  569MOL0     H76811   3.095   8.612   1.912  2.7060  0.9133  0.1370
  569MOL0     H76812   3.263   8.882   2.710  3.4651 -0.8572  1.7470
  569MOL0     H76813   3.474   8.987   2.953  0.5784  0.1939  0.2558
  569MOL0     H76814   3.519   8.825   2.904 -2.0008 -1.8152  0.4313
  569MOL0     H76815   3.459   8.950   2.785 -1.1053  2.0161  0.7944
  570MOL0     O76816   7.695   2.805  10.812 -0.6847 -0.1514  0.0972
  570MOL0     C76817   7.649   2.764  10.919  0.0541 -1.0048  0.6224
  570MOL0     O76818   7.729   2.754  11.028 -0.4008  0.1829 -0.2404
  570MOL0     C76819   7.862   2.798  11.012  0.5813  0.5530 -0.0449
  570MOL0     C76820   7.888   2.926  11.055 -0.0088 -0.5758 -0.2704
  570MOL0     C76821   8.025   2.970  11.050 -0.5710  0.1533 -0.1631
  570MOL0     C76822   8.121   2.872  11.010 -0.4552 -0.4661 -0.1792
  570MOL0     O76823   8.252   2.916  11.019 -0.1884  0.2436  0.0010
  570MOL0     C76824   8.322   2.837  11.113  0.1809  0.0206  0.6855
  570MOL0     C76825   8.458   2.897  11.162 -0.7731 -0.6488  0.5734
  570MOL0     C76826   8.565   2.914  11.045 -0.8229  1.0368 -0.0879
  570MOL0     C76827   8.632   2.781  11.004  0.6553  0.4751 -1.0732
  570MOL0     C76828   8.760   2.802  10.919 -0.7391 -0.0642  0.0815
  570MOL0     C76829   8.821   2.677  10.852  0.1149  0.8204 -0.1573
  570MOL0     C76830   8.730   2.613  10.743  0.0589  0.8872 -1.0841
  570MOL0     C76831   8.746   2.679  10.613 -0.4118  0.4936 -0.2803
  570MOL0     N76832   8.885   2.670  10.550  0.6365  0.3432 -1.1556
  570MOL0     C76833   8.938   2.573  10.464  0.3552  0.1466  0.2369
  570MOL0     C76834   9.052   2.625  10.422 -0.1177  0.0410  0.0588
  570MOL0     C76835   9.144   2.541  10.340 -0.6273  0.1091  0.4474
  570MOL0     C76836   9.219   2.635  10.244 -0.0909 -0.5410  0.0761
  570MOL0     C76837   9.344   2.568  10.202 -0.6721 -0.0125 -0.3917
  570MOL0     C76838   9.478   2.623  10.254  0.7223 -0.5868  0.2027
  570MOL0     O76839   9.476   2.642  10.397 -0.8929 -0.1089 -0.3201
  570MOL0     C76840   9.562   2.744  10.440  0.2867  0.4592  0.5937
  570MOL0     C76841   9.681   2.773  10.380  0.1733 -0.5379  0.3301
  570MOL0     C76842   9.767   2.867  10.422 -0.5902  0.3049 -0.2974
  570MOL0     C76843   9.737   2.940  10.543  0.4611  0.4502  0.0691
  570MOL0     C76844   9.826   3.045  10.603  0.0687 -1.0007  0.0758
  570MOL0     O76845   9.895   3.129  10.511  0.2583  0.0621 -0.0480
  570MOL0     C76846   9.973   3.222  10.569  0.6819  0.3814  0.4864
  570MOL0     C76847   9.927   3.313  10.662  0.3734 -0.0676 -0.2746
  570MOL0     C76848  10.006   3.424  10.694  0.1123  0.0828 -1.3168
  570MOL0     C76849  10.137   3.441  10.647 -0.1985  0.2936  0.6293
  570MOL0     O76850  10.208   3.549  10.692  0.1908 -0.2994 -0.0935
  570MOL0     C76851  10.344   3.569  10.658 -0.6855  0.1975  0.0713
  570MOL0     C76852  10.405   3.700  10.709  0.3138 -0.6663  0.2369
  570MOL0     C76853  10.439   3.682  10.851 -0.2149 -0.6457  0.1522
  570MOL0     C76854  10.572   3.616  10.878  0.4076 -0.3369  0.1459
  570MOL0     C76855  10.630   3.654  11.010  0.0204 -0.4011  0.2337
  570MOL0     C76856  10.746   3.568  11.055  0.2235 -0.3676 -0.5431
  570MOL0     C76857  10.806   3.615  11.193 -0.4607 -0.1576  0.0162
  570MOL0     C76858  10.942   3.560  11.221 -0.5406 -0.4293 -0.0449
  570MOL0    Cl76859  10.902   3.394  11.290 -0.1113 -0.0797  0.5492
  570MOL0     C76860  10.178   3.337  10.569 -0.0847  0.6188  0.1026
  570MOL0     C76861  10.099   3.233  10.522 -0.1776  0.2041 -0.2066
  570MOL0     O76862   9.836   3.052  10.729  0.6343  0.4250 -0.0960
  570MOL0     C76863   9.619   2.912  10.611  0.5700  0.0856 -0.1498
  570MOL0     C76864   9.532   2.815  10.556 -0.1553 -1.1218 -0.0258
  570MOL0     N76865   9.074   2.745  10.487  0.1142  0.8042 -0.1316
  570MOL0     N76866   8.972   2.774  10.566 -0.5066 -0.2396  0.0917
  570MOL0     C76867   8.090   2.747  10.971  0.7739  0.4155  0.2159
  570MOL0     C76868   7.953   2.705  10.965 -0.1626  1.1259 -0.1974
  570MOL0     C76869   7.503   2.732  10.939 -0.7375  0.4594  0.3550
  570MOL0     C76870   7.473   2.673  11.056  0.9051 -0.1513 -1.1179
  570MOL0     C76871   7.334   2.634  11.077 -0.6868  0.0946  0.0605
  570MOL0     C76872   7.228   2.650  10.991 -0.1294  0.0932 -0.1367
  570MOL0     O76873   7.107   2.586  11.011  0.3769 -0.4508 -0.6818
  570MOL0     C76874   7.000   2.585  10.917  0.3205 -0.1368 -0.0220
  570MOL0     C76875   7.009   2.481  10.798 -0.0888 -0.3791 -0.3494
  570MOL0     C76876   7.019   2.333  10.834 -0.5890 -0.2677 -0.0880
  570MOL0     C76877   6.892   2.287  10.904 -0.3132 -0.2282  0.1455
  570MOL0     C76878   6.769   2.306  10.827  0.4082  0.5176 -0.4904
  570MOL0     C76879   6.674   2.312  10.753  0.3398 -0.1792  0.1598
  570MOL0     C76880   7.264   2.719  10.872 -0.4036  0.2503 -0.3357
  570MOL0     C76881   7.399   2.763  10.848  0.3811 -0.0919 -0.0165
  570MOL0     C76882   7.417   2.838  10.713 -0.7202  1.0044 -0.0825
  570MOL0     H76883   7.812   3.000  11.078 -0.4659 -0.6133 -1.5635
  570MOL0     H76884   8.043   3.071  11.085  0.5459 -0.2593  0.4948
  570MOL0     H76885   8.251   2.822  11.195 -0.9584 -0.0070 -0.2746
  570MOL0     H76886   8.342   2.737  11.075  0.3763  1.2974 -2.9161
  570MOL0     H76887   8.498   2.835  11.243  0.9569  0.7572  0.8759
  570MOL0     H76888   8.444   2.995  11.209  0.0300 -0.1867 -0.1034
  570MOL0     H76889   8.646   2.986  11.063 -1.0140  2.8297 -5.0172
  570MOL0     H76890   8.506   2.954  10.962  0.4449  2.5668 -0.3060
  570MOL0     H76891   8.649   2.716  11.090  0.4719 -1.1240 -2.2019
  570MOL0     H76892   8.566   2.719  10.942  0.0491  0.7656 -0.7188
  570MOL0     H76893   8.735   2.875  10.842 -1.7374  0.7072  1.1100
  570MOL0     H76894   8.840   2.850  10.976  0.5628 -1.7337 -0.2328
  570MOL0     H76895   8.924   2.694  10.818  0.3823  2.6586  1.3864
  570MOL0     H76896   8.820   2.606  10.935  2.7042  2.2359  1.2404
  570MOL0     H76897   8.624   2.630  10.762 -0.9451 -0.9204 -4.3157
  570MOL0     H76898   8.744   2.505  10.735 -2.6502  0.5814 -2.8399
  570MOL0     H76899   8.668   2.645  10.544  0.1396 -0.8438 -0.2638
  570MOL0     H76900   8.728   2.785  10.636  0.6566  0.9542 -1.4384
  570MOL0     H76901   8.890   2.477  10.447 -2.5234  0.5354  4.4805
  570MOL0     H76902   9.210   2.502  10.418 -2.7754 -0.8869  1.8532
  570MOL0     H76903   9.089   2.467  10.282 -0.7939  1.4876 -1.2265
  570MOL0     H76904   9.153   2.666  10.163 -1.1795  0.9570  1.4870
  570MOL0     H76905   9.246   2.724  10.301 -1.7803 -0.8092  1.3735
  570MOL0     H76906   9.347   2.588  10.094 -3.2331  1.5283 -0.2770
  570MOL0     H76907   9.327   2.463  10.224 -1.1343  0.3517  1.1247
  570MOL0     H76908   9.503   2.710  10.193 -0.6693 -1.1351 -1.2001
  570MOL0     H76909   9.558   2.554  10.226 -0.2697 -1.2391 -1.1266
  570MOL0     H76910   9.705   2.721  10.288 -0.2375 -0.0649 -0.0531
  570MOL0     H76911   9.861   2.889  10.371  1.6064 -0.3055  3.1103
  570MOL0     H76912   9.824   3.306  10.695  0.3786 -0.4349 -0.3238
  570MOL0     H76913   9.980   3.500  10.767  2.1065 -0.9616  0.6132
  570MOL0     H76914  10.414   3.494  10.699 -0.7561 -0.5799 -1.1897
  570MOL0     H76915  10.355   3.565  10.550  0.7592  1.2744  0.1537
  570MOL0     H76916  10.485   3.741  10.647  0.3025 -0.8645  0.0894
  570MOL0     H76917  10.327   3.777  10.712 -0.4830 -1.4335 -0.3203
  570MOL0     H76918  10.431   3.783  10.891 -1.9575 -0.0134 -1.5901
  570MOL0     H76919  10.360   3.626  10.903 -0.4495  0.3169  0.8542
  570MOL0     H76920  10.645   3.640  10.800 -0.0802 -1.1449 -0.5710
  570MOL0     H76921  10.541   3.512  10.868 -2.7469  0.1642  2.9718
  570MOL0     H76922  10.552   3.653  11.087 -1.8278 -0.7173 -1.5697
  570MOL0     H76923  10.669   3.756  11.015 -0.1047 -0.3164 -0.4486
  570MOL0     H76924  10.708   3.465  11.060 -2.9281  0.7472  0.9703
  570MOL0     H76925  10.828   3.565  10.983  2.0105  0.8759  1.3260
  570MOL0     H76926  10.747   3.592  11.283 -2.1108  1.3964 -0.5977
  570MOL0     H76927  10.821   3.723  11.198  0.6212 -0.3498  2.8528
  570MOL0     H76928  11.019   3.570  11.143  0.5113  3.7975  1.2699
  570MOL0     H76929  11.002   3.608  11.299  0.7919 -2.2233  0.1074
  570MOL0     H76930  10.274   3.342  10.517 -1.1676  2.2705 -1.8768
  570MOL0     H76931  10.150   3.182  10.440  0.4547 -0.5893  0.6555
  570MOL0     H76932   9.596   2.965  10.703  1.8095  1.3554 -0.5321
  570MOL0     H76933   9.445   2.789  10.614 -1.2911 -2.2124 -2.1239
  570MOL0     H76934   8.173   2.688  10.934  0.0308  0.9353 -2.5527
  570MOL0     H76935   7.911   2.620  10.912 -0.0856 -0.8032  2.6248
  570MOL0     H76936   7.541   2.648  11.137 -0.7994 -0.2395  0.3264
  570MOL0     H76937   7.302   2.588  11.170  1.0309 -0.1931  0.5379
  570MOL0     H76938   6.988   2.678  10.861 -4.1509 -1.8161 -2.4371
  570MOL0     H76939   6.908   2.557  10.969  1.7262  0.8019  3.2240
  570MOL0     H76940   7.097   2.503  10.736  1.3456 -2.6786  0.7415
  570MOL0     H76941   6.923   2.492  10.731 -0.4589  2.0592  0.4409
  570MOL0     H76942   7.113   2.315  10.888  0.0730 -0.0350 -1.1127
  570MOL0     H76943   7.025   2.284  10.736  1.6727  1.7272 -1.0656
  570MOL0     H76944   6.906   2.181  10.928  1.7367  0.4207  2.2629
  570MOL0     H76945   6.889   2.346  10.996 -0.8454  0.4510 -0.2936
  570MOL0     H76946   6.593   2.314  10.682 -0.0965  0.6811  0.6622
  570MOL0     H76947   7.198   2.726  10.787  0.9932 -2.4757 -1.8085
  570MOL0     H76948   7.325   2.861  10.658  0.5132  4.1502 -1.0334
  570MOL0     H76949   7.467   2.933  10.733 -1.2884  1.8530 -2.3791
  570MOL0     H76950   7.470   2.772  10.643 -1.5520  0.4146 -0.1793
  571MOL0     O76951   0.121  10.801   8.833 -0.5165 -0.8172  0.2516
  571MOL0     C76952   0.102  10.703   8.763  0.1283 -0.4751 -0.2226
  571MOL0     O76953   0.158  10.683   8.637  0.5678 -0.4781  0.3107
  571MOL0     C76954   0.272  10.764   8.612 -1.0358  0.2144 -0.4118
  571MOL0     C76955   0.280  10.864   8.508 -0.2486  0.0103 -0.3555
  571MOL0     C76956   0.403  10.927   8.488  0.5322 -0.2163  0.5978
  571MOL0     C76957   0.517  10.886   8.551  0.6554  0.0890  0.3538
  571MOL0     O76958   0.644  10.917   8.511 -0.4816 -1.1764 -0.2811
  571MOL0     C76959   0.675  11.053   8.484  0.5568  0.4217 -0.7193
  571MOL0     C76960   0.817  11.072   8.524 -0.7393 -0.9424 -0.4743
  571MOL0     C76961   0.917  11.016   8.415  0.5886 -0.4038 -0.2098
  571MOL0     C76962   1.063  11.056   8.432  0.2440 -0.6182 -0.3202
  571MOL0     C76963   1.144  10.999   8.318 -0.1284 -0.6101  0.1878
  571MOL0     C76964   1.158  10.849   8.311 -0.0866  0.2306 -0.3105
  571MOL0     C76965   1.280  10.800   8.225  0.7984  0.0100  0.2270
  571MOL0     C76966   1.309  10.655   8.245 -0.0776  1.0477 -0.2533
  571MOL0     N76967   1.440  10.616   8.186  0.8035  0.3376 -0.1863
  571MOL0     C76968   1.564  10.668   8.212 -0.0596  0.3575 -0.1964
  571MOL0     C76969   1.642  10.615   8.107  1.1653  0.6221  0.5249
  571MOL0     C76970   1.793  10.637   8.090 -0.6003 -0.5317 -0.0157
  571MOL0     C76971   1.839  10.624   7.947 -0.0115 -0.3100 -0.0648
  571MOL0     C76972   1.869  10.482   7.893 -0.1186  0.6388 -0.1491
  571MOL0     C76973   1.911  10.497   7.747 -0.7662  0.5262  0.1305
  571MOL0     O76974   1.992  10.375   7.709  0.8953  1.1377 -0.1280
  571MOL0     C76975   2.130  10.387   7.695  0.7382  0.0209  0.2537
  571MOL0     C76976   2.211  10.495   7.731 -0.0901  0.6897 -0.0772
  571MOL0     C76977   2.353  10.498   7.711 -0.6387  0.2462  0.3460
  571MOL0     C76978   2.413  10.393   7.651  0.0162 -0.3736 -0.3747
  571MOL0     C76979   2.559  10.380   7.662  1.2798 -0.3499  0.3148
  571MOL0     O76980   2.633  10.487   7.659 -0.2987 -0.4655 -0.1734
  571MOL0     C76981   2.763  10.469   7.665  0.2438 -0.1689  0.4613
  571MOL0     C76982   2.830  10.474   7.785  0.0330  0.4190  0.2142
  571MOL0     C76983   2.975  10.454   7.791  0.6205  0.0065  0.4872
  571MOL0     C76984   3.049  10.434   7.670 -0.5037  0.0080 -0.4603
  571MOL0     O76985   3.186  10.418   7.675  0.1947 -0.2905 -0.2306
  571MOL0     C76986   3.224  10.285   7.645  0.4428  0.7207 -0.5113
  571MOL0     C76987   3.321  10.238   7.757  0.4373  0.5293 -0.2076
  571MOL0     C76988   3.350  10.091   7.764  0.1605  0.5045 -0.1572
  571MOL0     C76989   3.429  10.036   7.643 -0.5323 -0.4427 -0.3706
  571MOL0     C76990   3.526   9.918   7.671 -0.5649 -0.3903  0.1751
  571MOL0     C76991   3.648   9.923   7.570  0.6641  0.1947 -0.4155
  571MOL0     C76992   3.731   9.802   7.612 -0.0513  0.8048  0.5113
  571MOL0     C76993   3.835   9.760   7.509 -0.3590  0.3051 -0.4539
  571MOL0    Cl76994   3.768   9.746   7.339 -0.1190  0.0597  0.4484
  571MOL0     C76995   2.982  10.424   7.553 -0.2465 -0.3695  0.1164
  571MOL0     C76996   2.844  10.451   7.547  0.4105 -0.5307 -0.3225
  571MOL0     O76997   2.596  10.266   7.667 -1.3286  0.2578 -0.4285
  571MOL0     C76998   2.329  10.290   7.611  0.4900 -0.0411  0.2083
  571MOL0     C76999   2.193  10.279   7.631  1.0952 -0.4554  0.4930
  571MOL0     N77000   1.564  10.546   8.016  1.1691 -0.5627  0.8513
  571MOL0     N77001   1.441  10.565   8.058  0.4195 -0.9051  0.4633
  571MOL0     C77002   0.514  10.790   8.653  0.4328  0.5623  0.3858
  571MOL0     C77003   0.392  10.734   8.683  0.3491  0.1066  0.1691
  571MOL0     C77004   0.001  10.603   8.803  0.5346  0.1843  0.3775
  571MOL0     C77005  -0.014  10.494   8.718 -0.5269  0.1845 -0.2395
  571MOL0     C77006  -0.086  10.378   8.764 -0.6770 -0.0672  0.2213
  571MOL0     C77007  -0.162  10.376   8.883  0.0559  0.6468  0.9619
  571MOL0     O77008  -0.217  10.259   8.920 -0.1046 -0.3171  0.4149
  571MOL0     C77009  -0.310  10.261   9.027 -0.1866  0.4587 -0.5461
  571MOL0     C77010  -0.365  10.120   9.054  0.4320 -0.0329 -0.0277
  571MOL0     C77011  -0.476  10.073   8.962  0.3517 -1.2345  0.1926
  571MOL0     C77012  -0.443   9.991   8.829 -0.1605 -0.7690 -0.0419
  571MOL0     C77013  -0.359   9.879   8.861  0.0642  0.2137 -0.1577
  571MOL0     C77014  -0.284   9.788   8.892  0.1242 -0.9130  0.0535
  571MOL0     C77015  -0.159  10.491   8.959  0.0032  0.8234 -0.2812
  571MOL0     C77016  -0.076  10.599   8.927  0.5142  0.7610 -0.3220
  571MOL0     C77017  -0.081  10.717   9.020  0.4230  0.3047  0.4583
  571MOL0     H77018   0.195  10.889   8.445  0.4351  1.4297 -0.7738
  571MOL0     H77019   0.408  11.003   8.411 -0.9946 -0.1011  0.5788
  571MOL0     H77020   0.646  11.083   8.382 -1.2288 -0.1183 -0.3995
  571MOL0     H77021   0.616  11.126   8.541  2.0070  0.2747  1.0398
  571MOL0     H77022   0.837  11.034   8.625 -2.0905 -3.5067 -1.0751
  571MOL0     H77023   0.844  11.177   8.514 -1.4935 -0.7531 -0.5297
  571MOL0     H77024   0.872  11.058   8.326 -3.3272  2.0974  2.6472
  571MOL0     H77025   0.897  10.908   8.409 -1.9437 -0.0160  0.4375
  571MOL0     H77026   1.079  11.164   8.426 -0.9591 -0.1981  2.4926
  571MOL0     H77027   1.097  11.026   8.531 -1.2235  0.9894  0.7121
  571MOL0     H77028   1.110  11.031   8.219 -1.9771 -0.4917  0.8303
  571MOL0     H77029   1.244  11.041   8.334 -1.0548  1.0554  2.1562
  571MOL0     H77030   1.178  10.811   8.411  0.9720  1.6837  0.0540
  571MOL0     H77031   1.058  10.809   8.290 -1.1957  2.8542 -0.3815
  571MOL0     H77032   1.362  10.864   8.258 -2.7745  3.6519  3.1042
  571MOL0     H77033   1.274  10.821   8.118  3.4182 -0.1008  0.0039
  571MOL0     H77034   1.301  10.631   8.351  1.8395  0.4135 -0.2096
  571MOL0     H77035   1.227  10.597   8.203 -0.2772  1.4322 -0.4047
  571MOL0     H77036   1.584  10.723   8.304  1.2232  0.2139 -0.3688
  571MOL0     H77037   1.807  10.741   8.120 -0.2931 -0.3344 -0.8085
  571MOL0     H77038   1.843  10.572   8.162  0.0772 -1.4454 -1.2829
  571MOL0     H77039   1.779  10.686   7.879 -1.9790 -1.3998  0.6145
  571MOL0     H77040   1.938  10.671   7.945 -0.5685  1.2460  2.8161
  571MOL0     H77041   1.789  10.407   7.896  1.5823 -1.3425 -1.5919
  571MOL0     H77042   1.952  10.440   7.950 -1.7168  0.2167  1.9837
  571MOL0     H77043   1.961  10.587   7.711  1.0482 -1.1263 -1.7043
  571MOL0     H77044   1.816  10.485   7.694  0.1626 -1.4169 -1.2269
  571MOL0     H77045   2.159  10.580   7.774 -0.0374  0.5697  0.2254
  571MOL0     H77046   2.410  10.583   7.745  3.8065 -2.1495 -0.4343
  571MOL0     H77047   2.772  10.481   7.877  0.7212 -0.6885  0.7553
  571MOL0     H77048   3.029  10.462   7.885  1.3181  0.1460  0.0871
  571MOL0     H77049   3.132  10.226   7.643  1.4208 -0.8663 -2.3113
  571MOL0     H77050   3.275  10.277   7.548  0.3709  3.6746 -0.8729
  571MOL0     H77051   3.417  10.286   7.739 -1.0648  3.4158 -1.1256
  571MOL0     H77052   3.290  10.266   7.858  0.0667 -3.2361  0.8882
  571MOL0     H77053   3.406  10.081   7.858  1.9043  3.7577 -0.7278
  571MOL0     H77054   3.256  10.036   7.764  1.2621 -1.5532  1.4910
  571MOL0     H77055   3.494  10.118   7.612 -3.0398  1.6211 -0.5410
  571MOL0     H77056   3.367  10.013   7.556  2.7230 -4.2856 -1.9971
  571MOL0     H77057   3.476   9.820   7.666  0.7652 -1.1022  0.4048
  571MOL0     H77058   3.561   9.941   7.772  0.0225  2.7734 -0.6657
  571MOL0     H77059   3.610   9.898   7.471  2.8731 -1.5584 -0.9204
  571MOL0     H77060   3.702  10.018   7.567 -0.3649  0.8312  0.6418
  571MOL0     H77061   3.658   9.722   7.630  0.5503 -0.5137 -2.2841
  571MOL0     H77062   3.776   9.841   7.703  0.8016  0.1154  0.4027
  571MOL0     H77063   3.911   9.838   7.505 -0.2114  0.1529 -3.5322
  571MOL0     H77064   3.873   9.665   7.547 -0.8711  1.0165  1.9736
  571MOL0     H77065   3.035  10.411   7.459 -2.5159  1.6504 -1.5612
  571MOL0     H77066   2.791  10.465   7.454 -0.5391  4.0698  0.6848
  571MOL0     H77067   2.391  10.211   7.569  0.4337 -0.2775  0.5603
  571MOL0     H77068   2.144  10.187   7.601  0.4282 -2.0343  5.4351
  571MOL0     H77069   0.605  10.747   8.694  1.2104 -0.3638 -2.1258
  571MOL0     H77070   0.377  10.658   8.759 -2.4154 -1.2180 -1.5281
  571MOL0     H77071   0.035  10.477   8.623 -2.6819  0.7243 -1.5055
  571MOL0     H77072  -0.094  10.284   8.712 -0.3145 -2.3621  3.9549
  571MOL0     H77073  -0.397  10.324   9.004 -0.2796  0.1215 -1.1573
  571MOL0     H77074  -0.263  10.296   9.119 -2.2970  1.5249  0.2076
  571MOL0     H77075  -0.381  10.125   9.162  2.6973  1.0548  0.3222
  571MOL0     H77076  -0.287  10.045   9.050 -0.4429 -1.1289  1.9452
  571MOL0     H77077  -0.547  10.149   8.929 -0.5015 -1.8501  0.5617
  571MOL0     H77078  -0.543  10.006   9.018 -1.9843  2.4779  2.2377
  571MOL0     H77079  -0.534   9.951   8.785 -0.0210 -0.8694 -0.2385
  571MOL0     H77080  -0.397  10.056   8.755 -1.4874 -2.2014 -2.2552
  571MOL0     H77081  -0.232   9.694   8.891  2.1761  0.1426 -1.5331
  571MOL0     H77082  -0.214  10.493   9.052 -1.1357 -1.5343 -0.8148
  571MOL0     H77083   0.016  10.743   9.064  0.7727  1.3854 -0.8653
  571MOL0     H77084  -0.121  10.794   8.953 -0.1424 -1.4025 -1.2741
  571MOL0     H77085  -0.157  10.709   9.098 -0.5903  1.0871 -0.4098
  572MOL0     O77086   6.335   1.913   8.927  0.2695  0.0204 -0.6678
  572MOL0     C77087   6.391   1.866   9.029 -1.0141  0.1528 -0.3991
  572MOL0     O77088   6.344   1.765   9.110  0.1221 -0.7116  0.3369
  572MOL0     C77089   6.222   1.705   9.095  0.9099 -0.6211 -0.0420
  572MOL0     C77090   6.151   1.690   8.982  0.0822 -0.1789  0.9510
  572MOL0     C77091   6.022   1.648   8.980  0.3966  1.2077 -0.6489
  572MOL0     C77092   5.965   1.601   9.097  0.9562 -0.4650  0.4923
  572MOL0     O77093   5.838   1.542   9.080  0.2854  0.5206 -0.4035
  572MOL0     C77094   5.741   1.613   9.152  0.1476 -0.7802  0.4468
  572MOL0     C77095   5.605   1.542   9.131  0.0015  0.1592 -0.3425
  572MOL0     C77096   5.613   1.389   9.164 -0.1514 -0.0959  0.1675
  572MOL0     C77097   5.609   1.376   9.313  0.2333 -0.1932  0.1188
  572MOL0     C77098   5.603   1.232   9.363 -0.5210  0.9350 -0.5348
  572MOL0     C77099   5.629   1.216   9.507 -1.4081 -0.3377  0.2273
  572MOL0     C77100   5.537   1.284   9.600  0.7501 -0.9151 -1.0112
  572MOL0     C77101   5.535   1.212   9.736  0.2469 -1.0497  1.0901
  572MOL0     N77102   5.428   1.265   9.830  0.6619  0.1917  0.5931
  572MOL0     C77103   5.381   1.391   9.850 -0.4619  0.6824 -0.3154
  572MOL0     C77104   5.310   1.383   9.968 -0.6205 -0.6591  0.6057
  572MOL0     C77105   5.226   1.490  10.041  0.6969  0.2088  0.0076
  572MOL0     C77106   5.080   1.457  10.035  0.3887  0.9592  0.1246
  572MOL0     C77107   5.009   1.560   9.945 -0.2795  0.2557  0.3580
  572MOL0     C77108   4.871   1.505   9.924  0.2120  0.0185  0.1685
  572MOL0     O77109   4.778   1.611   9.895 -0.5846  0.2746 -0.0369
  572MOL0     C77110   4.646   1.603   9.910  0.2696  0.3729 -0.6726
  572MOL0     C77111   4.578   1.714   9.871  0.0552 -1.1190  0.6463
  572MOL0     C77112   4.437   1.721   9.884 -0.9785 -0.1798 -0.0995
  572MOL0     C77113   4.369   1.615   9.955  0.4660  0.1093 -0.2138
  572MOL0     C77114   4.218   1.630   9.979 -0.7742 -0.1833 -0.3853
  572MOL0     O77115   4.160   1.744   9.948 -0.0391  1.5009  1.0135
  572MOL0     C77116   4.028   1.763   9.979 -0.7065 -0.3103 -0.6393
  572MOL0     C77117   3.955   1.840   9.885  0.9381 -0.3408 -0.4291
  572MOL0     C77118   3.818   1.856   9.899  0.5433  0.7840 -0.2339
  572MOL0     C77119   3.758   1.803  10.013  0.3860 -0.3410 -0.2480
  572MOL0     O77120   3.623   1.805  10.033  0.6577  0.0779 -0.6765
  572MOL0     C77121   3.538   1.845   9.920  0.0438  0.9312  0.3902
  572MOL0     C77122   3.397   1.789   9.921 -0.3618  0.3068  0.1663
  572MOL0     C77123   3.296   1.854  10.020  0.9818  0.3887 -0.0310
  572MOL0     C77124   3.239   1.750  10.113 -0.6016 -0.0453 -0.0723
  572MOL0     C77125   3.168   1.811  10.229 -0.5002  0.2622 -0.2358
  572MOL0     C77126   3.015   1.800  10.208 -0.0217  0.2922 -0.4964
  572MOL0     C77127   2.954   1.858  10.331 -0.1933 -0.7182  0.2877
  572MOL0     C77128   2.798   1.851  10.331 -0.1858  0.2432  1.0025
  572MOL0    Cl77129   2.733   1.935  10.183  0.2302  0.3415 -0.1318
  572MOL0     C77130   3.827   1.733  10.105 -0.0047 -0.6750 -0.8498
  572MOL0     C77131   3.957   1.701  10.083  0.4498 -0.4333 -0.7439
  572MOL0     O77132   4.169   1.529  10.025  0.6034  0.2469 -0.4928
  572MOL0     C77133   4.441   1.504   9.990 -0.7951  1.0594  0.7826
  572MOL0     C77134   4.580   1.495   9.959  0.1576  0.1464 -0.0505
  572MOL0     N77135   5.319   1.254  10.009  0.9725  0.0787 -0.2640
  572MOL0     N77136   5.380   1.179   9.926 -0.7188  0.2184 -0.4082
  572MOL0     C77137   6.029   1.623   9.216 -0.9896  0.0266 -1.0208
  572MOL0     C77138   6.161   1.676   9.213 -0.0910  0.2840 -0.6816
  572MOL0     C77139   6.516   1.920   9.078 -0.6803 -0.0275 -0.2258
  572MOL0     C77140   6.592   1.850   9.174 -0.2443 -0.3736 -0.2273
  572MOL0     C77141   6.724   1.889   9.215  0.5101 -0.4804  0.6060
  572MOL0     C77142   6.785   2.005   9.165  0.2108  0.7674 -0.5773
  572MOL0     O77143   6.908   2.043   9.188  0.3044  0.0438 -0.5473
  572MOL0     C77144   7.010   1.950   9.222 -0.9915 -0.5668  0.3476
  572MOL0     C77145   7.151   2.004   9.194 -0.7071  0.7878 -0.1291
  572MOL0     C77146   7.266   1.903   9.194  0.5026  0.3745  0.5538
  572MOL0     C77147   7.389   1.939   9.113  0.7915 -0.2731  0.2089
  572MOL0     C77148   7.417   2.079   9.129 -0.4940 -0.2692  0.5754
  572MOL0     C77149   7.442   2.196   9.140  0.1214 -0.4892 -0.3065
  572MOL0     C77150   6.708   2.079   9.079  0.6287 -0.0504  0.7668
  572MOL0     C77151   6.578   2.043   9.029  0.5397  0.1575 -0.2748
  572MOL0     C77152   6.511   2.150   8.937  0.6355  0.8852 -0.0396
  572MOL0     H77153   6.192   1.719   8.886  0.5269 -1.6664  0.6569
  572MOL0     H77154   5.958   1.635   8.894 -2.7215 -0.2326  1.6780
  572MOL0     H77155   5.765   1.620   9.258  3.0129  3.2898 -0.2164
  572MOL0     H77156   5.732   1.718   9.121  1.0647  0.0252  2.7138
  572MOL0     H77157   5.576   1.552   9.027  1.1726 -0.1781 -0.7241
  572MOL0     H77158   5.529   1.589   9.194 -0.5531 -0.5224 -0.4912
  572MOL0     H77159   5.700   1.336   9.127 -0.9135  0.6374 -2.9836
  572MOL0     H77160   5.527   1.341   9.115  0.4743 -0.0231 -1.0295
  572MOL0     H77161   5.702   1.425   9.344  0.9914  0.2165 -2.5546
  572MOL0     H77162   5.523   1.427   9.358 -2.1918 -3.7894 -0.0718
  572MOL0     H77163   5.513   1.178   9.332 -0.4805 -0.7686  1.9935
  572MOL0     H77164   5.676   1.172   9.307 -2.6418 -0.7198 -1.6892
  572MOL0     H77165   5.623   1.108   9.522 -0.2556 -0.3770  0.5157
  572MOL0     H77166   5.733   1.244   9.528 -0.3850 -2.5871 -1.3648
  572MOL0     H77167   5.437   1.282   9.556  0.4422 -0.6577 -0.3343
  572MOL0     H77168   5.570   1.386   9.622 -0.0680 -1.2280  2.0960
  572MOL0     H77169   5.518   1.104   9.723 -2.0940 -0.5761 -0.5268
  572MOL0     H77170   5.636   1.211   9.777 -0.6951 -2.6541  3.5971
  572MOL0     H77171   5.393   1.471   9.778  1.3214 -0.6043 -1.5314
  572MOL0     H77172   5.259   1.490  10.146 -3.0107 -3.7540  1.4725
  572MOL0     H77173   5.244   1.587   9.994 -0.5229 -0.1087 -1.1620
  572MOL0     H77174   5.076   1.351  10.011 -0.1947 -0.8252  6.3330
  572MOL0     H77175   5.028   1.473  10.130 -1.2956  1.4058 -0.8345
  572MOL0     H77176   5.053   1.578   9.847 -0.7842  2.1089  0.4438
  572MOL0     H77177   5.002   1.655   9.998 -1.2897 -1.2094  3.0619
  572MOL0     H77178   4.828   1.464  10.016 -4.1058 -1.6599 -2.2500
  572MOL0     H77179   4.870   1.426   9.847 -0.5127  1.3905 -1.3035
  572MOL0     H77180   4.634   1.801   9.838 -1.8004  0.8538  2.3326
  572MOL0     H77181   4.399   1.820   9.861 -1.7585 -0.2057  0.9783
  572MOL0     H77182   4.001   1.876   9.793  0.0733  0.4081 -0.5831
  572MOL0     H77183   3.757   1.917   9.832 -0.6300 -0.1283 -0.0280
  572MOL0     H77184   3.521   1.953   9.921 -0.6085  0.8350  0.0007
  572MOL0     H77185   3.587   1.810   9.828  2.5819  1.1760  1.5547
  572MOL0     H77186   3.369   1.813   9.818  1.7920  3.5582  0.1852
  572MOL0     H77187   3.400   1.680   9.931  0.5405  0.1018 -1.8656
  572MOL0     H77188   3.338   1.936  10.079  0.0755 -0.4769  1.9004
  572MOL0     H77189   3.209   1.884   9.962  0.1783 -1.6157  0.0373
  572MOL0     H77190   3.322   1.696  10.161 -1.4520 -0.7433  0.6752
  572MOL0     H77191   3.179   1.675  10.060 -0.3620 -0.8686  0.7757
  572MOL0     H77192   3.195   1.917  10.237 -2.1804  0.7818 -1.0441
  572MOL0     H77193   3.194   1.748  10.314 -1.4582 -1.0250 -0.8762
  572MOL0     H77194   2.984   1.850  10.116 -2.5717  3.0273  1.6404
  572MOL0     H77195   2.986   1.694  10.198  0.1555  0.2858 -0.9575
  572MOL0     H77196   2.989   1.961  10.339 -0.8549 -0.5316  0.9525
  572MOL0     H77197   2.992   1.802  10.417  1.3503  0.9384  0.7414
  572MOL0     H77198   2.763   1.748  10.340 -1.3033  0.4595 -0.4976
  572MOL0     H77199   2.761   1.911  10.415  2.7619  0.8513  1.9817
  572MOL0     H77200   3.775   1.698  10.194  0.4788  0.1746 -0.2070
  572MOL0     H77201   4.008   1.646  10.160 -0.0715  0.3177  0.1533
  572MOL0     H77202   4.389   1.415  10.024 -0.0966  0.0207 -0.7242
  572MOL0     H77203   4.627   1.404   9.997 -2.6304 -1.9245 -1.1861
  572MOL0     H77204   5.989   1.599   9.314  1.7544 -3.6151 -0.5456
  572MOL0     H77205   6.214   1.691   9.306 -1.3515 -3.5654  0.8221
  572MOL0     H77206   6.560   1.753   9.212  0.2814 -0.6235 -0.4107
  572MOL0     H77207   6.772   1.825   9.288 -1.8513 -1.7648  1.1330
  572MOL0     H77208   6.985   1.858   9.169 -4.7190 -0.9367  2.3997
  572MOL0     H77209   7.017   1.946   9.331  2.4563  2.6465  0.4637
  572MOL0     H77210   7.185   2.081   9.264  3.3239 -0.4802 -0.4011
  572MOL0     H77211   7.155   2.059   9.099  2.5472  1.9555  0.5300
  572MOL0     H77212   7.221   1.816   9.146  0.5966  0.9413 -0.6069
  572MOL0     H77213   7.307   1.887   9.294  4.3908  0.0275 -0.9061
  572MOL0     H77214   7.475   1.874   9.133  1.0832 -0.0283 -0.2150
  572MOL0     H77215   7.374   1.927   9.005 -0.6715  3.3714 -0.1335
  572MOL0     H77216   7.475   2.298   9.152  1.3453 -1.0808  1.7757
  572MOL0     H77217   6.751   2.170   9.039 -1.7098  1.4139  1.4000
  572MOL0     H77218   6.571   2.237   8.910  0.5352  1.3213  1.1069
  572MOL0     H77219   6.480   2.099   8.845 -2.1475  3.3829 -0.6524
  572MOL0     H77220   6.422   2.185   8.990 -0.8472  0.3772 -2.0540
  573MOL0     O77221   1.397   6.156  10.469  0.0761  0.3340  0.7346
  573MOL0     C77222   1.306   6.232  10.502 -0.1605 -0.2685  0.5868
  573MOL0     O77223   1.224   6.304  10.412  1.2568  0.3930  0.4262
  573MOL0     C77224   1.205   6.251  10.279  0.1606  0.4797  0.3470
  573MOL0     C77225   1.168   6.336  10.179  0.1050 -0.2728  1.0042
  573MOL0     C77226   1.160   6.296  10.038 -0.1161  0.2792  0.2173
  573MOL0     C77227   1.182   6.165  10.002  0.4226 -0.7234 -0.2267
  573MOL0     O77228   1.174   6.134   9.867 -0.1434 -0.4470  0.3926
  573MOL0     C77229   1.251   6.025   9.819 -0.6340  0.0953  0.3371
  573MOL0     C77230   1.321   6.063   9.687  0.1253 -0.1399  0.0871
  573MOL0     C77231   1.420   6.180   9.715 -0.5237 -0.3252 -0.2526
  573MOL0     C77232   1.492   6.238   9.585  0.4469 -0.2873 -0.5199
  573MOL0     C77233   1.573   6.365   9.621 -0.0343 -0.2608  1.0181
  573MOL0     C77234   1.667   6.409   9.502  0.5827 -0.5176 -0.0334
  573MOL0     C77235   1.779   6.502   9.562 -0.1969  0.1169  0.9952
  573MOL0     C77236   1.849   6.583   9.453 -0.5563 -0.2397 -0.3164
  573MOL0     N77237   1.973   6.657   9.464 -0.2037 -0.2354 -0.4624
  573MOL0     C77238   1.999   6.767   9.543 -0.0502 -0.3738 -0.8228
  573MOL0     C77239   2.130   6.788   9.530 -0.2281 -0.1344 -0.2954
  573MOL0     C77240   2.212   6.891   9.605  0.1198 -0.0586  0.3844
  573MOL0     C77241   2.202   7.036   9.557 -0.2572  0.1416  0.5281
  573MOL0     C77242   2.212   7.074   9.409  0.2237 -0.3242  0.4185
  573MOL0     C77243   2.345   7.029   9.347 -0.0346 -0.3060  0.3437
  573MOL0     O77244   2.464   7.060   9.424  0.1413 -0.2048 -0.2834
  573MOL0     C77245   2.579   6.995   9.377 -0.5635  0.4385 -0.0327
  573MOL0     C77246   2.710   7.038   9.431 -0.3138  0.2337 -0.4385
  573MOL0     C77247   2.830   6.991   9.379 -0.7072  0.1104  0.1933
  573MOL0     C77248   2.837   6.894   9.283  0.3039 -0.1581 -0.0455
  573MOL0     C77249   2.969   6.832   9.244 -0.4048 -0.8246 -0.6240
  573MOL0     O77250   3.073   6.874   9.314 -0.5794 -0.7534 -0.2485
  573MOL0     C77251   3.199   6.822   9.278  0.0014  0.9774  0.1082
  573MOL0     C77252   3.251   6.832   9.151 -0.6828 -0.2349 -0.1428
  573MOL0     C77253   3.372   6.764   9.123  0.3511 -0.5108  0.5836
  573MOL0     C77254   3.440   6.689   9.213  1.0116  0.6437 -0.6070
  573MOL0     O77255   3.561   6.629   9.177 -0.3112 -0.2884 -0.3874
  573MOL0     C77256   3.656   6.590   9.281 -0.5369 -0.7951 -0.1821
  573MOL0     C77257   3.613   6.457   9.339  0.5382 -0.4786 -0.1108
  573MOL0     C77258   3.725   6.380   9.401 -0.9723  1.1089  0.2171
  573MOL0     C77259   3.763   6.453   9.534  0.3265  0.4204  0.1586
  573MOL0     C77260   3.900   6.522   9.531  0.3403 -0.1625  0.0222
  573MOL0     C77261   4.007   6.420   9.568 -1.2644 -0.3998  0.3271
  573MOL0     C77262   4.140   6.490   9.614 -0.7944  0.0696  1.1909
  573MOL0     C77263   4.205   6.585   9.513 -0.3582 -0.4349  1.1236
  573MOL0    Cl77264   4.217   6.527   9.351  0.2999  0.0039  0.1311
  573MOL0     C77265   3.388   6.681   9.351 -0.0962  0.5371  0.0480
  573MOL0     C77266   3.273   6.756   9.378  0.5350  0.3640  0.6514
  573MOL0     O77267   2.963   6.731   9.170 -1.1086 -0.0999  0.2152
  573MOL0     C77268   2.710   6.856   9.231 -0.1865  0.5680 -0.2612
  573MOL0     C77269   2.594   6.901   9.282 -1.5580  0.8435 -0.2219
  573MOL0     N77270   2.180   6.704   9.431  1.0377 -0.2733 -0.0531
  573MOL0     N77271   2.079   6.626   9.394  1.1767 -0.2647  0.5508
  573MOL0     C77272   1.221   6.075  10.108 -0.5752  0.0416  0.2973
  573MOL0     C77273   1.234   6.119  10.235 -0.0575  0.0520  0.5326
  573MOL0     C77274   1.293   6.256  10.645 -0.1441  0.0128 -0.8926
  573MOL0     C77275   1.170   6.317  10.691  0.0906  0.1330 -0.8443
  573MOL0     C77276   1.162   6.361  10.823  0.5496 -0.7606 -0.3833
  573MOL0     C77277   1.261   6.350  10.919 -0.9307 -0.4242  0.0827
  573MOL0     O77278   1.231   6.382  11.053 -0.1698  0.4847 -0.4111
  573MOL0     C77279   1.312   6.369  11.160 -1.0881 -0.1151 -0.6347
  573MOL0     C77280   1.246   6.431  11.283 -0.2868  0.9391 -0.3535
  573MOL0     C77281   1.254   6.583  11.276 -0.2102  0.6407 -0.0148
  573MOL0     C77282   1.201   6.642  11.408 -0.0204  0.6892  0.0723
  573MOL0     C77283   1.225   6.785  11.419 -0.1843  0.2705 -0.3418
  573MOL0     C77284   1.245   6.899  11.424  0.0097 -0.7905 -0.2743
  573MOL0     C77285   1.381   6.301  10.878  0.2769 -0.2515  0.8274
  573MOL0     C77286   1.397   6.247  10.752  0.3654  0.3795 -0.5953
  573MOL0     C77287   1.530   6.179  10.719  0.1040  0.5749  0.2040
  573MOL0     H77288   1.140   6.437  10.209 -0.7389  0.3349 -1.5967
  573MOL0     H77289   1.121   6.360   9.960 -0.0533  1.8243  1.4248
  573MOL0     H77290   1.328   5.984   9.885 -0.5099 -1.3740 -0.6603
  573MOL0     H77291   1.179   5.947   9.792 -1.1750  0.3252  1.1015
  573MOL0     H77292   1.247   6.091   9.611  1.0467 -1.5754 -1.3953
  573MOL0     H77293   1.374   5.978   9.645  0.4945  0.6849 -1.1546
  573MOL0     H77294   1.499   6.156   9.786 -1.9353 -0.7222  1.2263
  573MOL0     H77295   1.368   6.266   9.758  2.5987  2.3654 -1.4027
  573MOL0     H77296   1.558   6.167   9.535  1.6572  0.9931 -0.7976
  573MOL0     H77297   1.413   6.264   9.513  0.2023 -0.3886 -0.2867
  573MOL0     H77298   1.498   6.442   9.644  2.3930  2.2562  0.9839
  573MOL0     H77299   1.630   6.338   9.711  0.4599 -3.0733 -0.0449
  573MOL0     H77300   1.711   6.318   9.461 -0.6435  0.4583 -3.9850
  573MOL0     H77301   1.611   6.475   9.435 -0.1567 -2.4738 -1.4167
  573MOL0     H77302   1.850   6.444   9.622 -0.6832  0.2347  1.7056
  573MOL0     H77303   1.738   6.579   9.628  2.3513  3.4947 -1.0308
  573MOL0     H77304   1.863   6.513   9.370  2.0132 -1.5610  1.1032
  573MOL0     H77305   1.781   6.664   9.426 -2.1955 -1.6200 -0.5267
  573MOL0     H77306   1.927   6.809   9.612 -1.9715 -3.3573 -0.8320
  573MOL0     H77307   2.187   6.882   9.711  1.3556  1.3601  0.8370
  573MOL0     H77308   2.316   6.859   9.595  0.4056  0.4967  1.4039
  573MOL0     H77309   2.103   7.060   9.597 -1.3543 -1.2809 -1.2014
  573MOL0     H77310   2.275   7.095   9.614 -3.7020  2.0271  3.4326
  573MOL0     H77311   2.204   7.182   9.399  0.1561 -0.3118  0.6125
  573MOL0     H77312   2.130   7.040   9.345  1.6279  1.6567 -2.7153
  573MOL0     H77313   2.349   7.068   9.245  0.5015 -1.6432 -0.1640
  573MOL0     H77314   2.338   6.919   9.348 -1.8320 -0.4164  5.2859
  573MOL0     H77315   2.721   7.113   9.509 -0.1964  1.0921 -1.2649
  573MOL0     H77316   2.926   7.029   9.413  0.1275 -2.3936  0.8302
  573MOL0     H77317   3.204   6.885   9.068  0.5755 -2.4368 -2.4208
  573MOL0     H77318   3.413   6.762   9.023 -2.2135 -0.0832 -0.5521
  573MOL0     H77319   3.749   6.572   9.226 -0.7501  1.5789 -1.4863
  573MOL0     H77320   3.668   6.652   9.370 -1.9503 -4.3904  2.7471
  573MOL0     H77321   3.531   6.467   9.410  0.4168  2.0446 -0.5194
  573MOL0     H77322   3.564   6.404   9.256  0.3170 -2.1907  1.0470
  573MOL0     H77323   3.699   6.276   9.421  1.0325  0.2323 -1.4419
  573MOL0     H77324   3.818   6.380   9.343  2.5049 -0.9614  5.0961
  573MOL0     H77325   3.749   6.379   9.613  0.0533  0.7916  0.4602
  573MOL0     H77326   3.694   6.534   9.557  1.4410  1.1890  0.9241
  573MOL0     H77327   3.905   6.603   9.605 -0.2526  1.8121 -1.9818
  573MOL0     H77328   3.911   6.574   9.435 -1.1154  0.0129 -0.0711
  573MOL0     H77329   3.967   6.373   9.658 -0.8002  0.8075  1.1915
  573MOL0     H77330   4.017   6.349   9.485 -2.4915  3.1594 -3.1770
  573MOL0     H77331   4.216   6.411   9.623 -0.1441  0.4244 -0.6916
  573MOL0     H77332   4.128   6.549   9.706  1.7738  1.3510  0.8052
  573MOL0     H77333   4.138   6.670   9.502 -0.2121 -0.4342  0.1570
  573MOL0     H77334   4.306   6.621   9.537  0.0738 -0.5347 -0.4563
  573MOL0     H77335   3.449   6.647   9.434  0.1102  1.7020  0.3874
  573MOL0     H77336   3.229   6.746   9.477 -2.6580 -0.7266 -0.7534
  573MOL0     H77337   2.715   6.792   9.143  4.2758 -1.3472  1.1131
  573MOL0     H77338   2.511   6.863   9.223 -0.2614 -1.4901 -0.6903
  573MOL0     H77339   1.248   5.971  10.090  0.2453  0.6054 -2.1436
  573MOL0     H77340   1.254   6.041  10.307 -1.8108  0.4157  1.4548
  573MOL0     H77341   1.085   6.339  10.627 -1.2176  1.7937  1.3160
  573MOL0     H77342   1.064   6.401  10.850  0.8163 -1.4187  1.7884
  573MOL0     H77343   1.403   6.427  11.138  0.0544 -2.3317 -2.1719
  573MOL0     H77344   1.339   6.264  11.171 -0.4764 -0.0962 -1.7233
  573MOL0     H77345   1.308   6.404  11.369  0.0942  0.0404 -0.8957
  573MOL0     H77346   1.145   6.396  11.306  0.0202  0.1640 -0.1434
  573MOL0     H77347   1.196   6.628  11.194  2.9958  2.8051 -1.2985
  573MOL0     H77348   1.355   6.615  11.251  1.1215 -3.5442 -0.9086
  573MOL0     H77349   1.098   6.610  11.427 -1.4652  4.3064 -0.9836
  573MOL0     H77350   1.269   6.603  11.485 -0.6408  0.3243  0.4501
  573MOL0     H77351   1.251   7.006  11.425  1.8935 -0.8654 -0.0606
  573MOL0     H77352   1.448   6.287  10.963  0.9126 -1.2707  0.1793
  573MOL0     H77353   1.525   6.090  10.656  0.9883  1.3872 -1.0277
  573MOL0     H77354   1.596   6.248  10.667  1.9183  0.2136  1.9062
  573MOL0     H77355   1.582   6.154  10.812  2.4678  1.1706 -0.8989
  574MOL0     O77356   4.624   2.512   5.514  0.2668  0.0560 -0.4399
  574MOL0     C77357   4.600   2.423   5.599  0.0172 -0.0138 -0.1111
  574MOL0     O77358   4.477   2.402   5.662  0.1879  0.9228 -0.0444
  574MOL0     C77359   4.374   2.487   5.625  0.0877  0.4824 -0.7201
  574MOL0     C77360   4.377   2.623   5.626 -0.1774  0.0424  0.3223
  574MOL0     C77361   4.271   2.712   5.580 -0.2050  0.6865 -0.7741
  574MOL0     C77362   4.147   2.647   5.548  0.5145 -0.5418  0.2638
  574MOL0     O77363   4.030   2.715   5.506  0.1325 -0.0235 -0.0104
  574MOL0     C77364   4.056   2.840   5.444  0.4897  1.1825 -0.1061
  574MOL0     C77365   3.950   2.866   5.334  0.3741 -0.3036  0.6131
  574MOL0     C77366   3.809   2.899   5.398  0.6691  0.1759 -0.7250
  574MOL0     C77367   3.731   2.988   5.296  0.1914  0.2450 -0.5538
  574MOL0     C77368   3.671   2.906   5.184  0.9867 -0.7476 -0.2976
  574MOL0     C77369   3.654   2.995   5.059  0.4129 -0.6897 -0.8616
  574MOL0     C77370   3.523   3.079   5.089  0.0936 -0.2001  0.0834
  574MOL0     C77371   3.509   3.192   4.991  0.2259 -0.0749  0.5507
  574MOL0     N77372   3.403   3.284   5.039 -0.4117 -0.1102  0.5442
  574MOL0     C77373   3.402   3.366   5.154 -0.6335  0.0727 -1.4101
  574MOL0     C77374   3.279   3.433   5.151  0.2996  0.5679 -0.1582
  574MOL0     C77375   3.221   3.535   5.247 -0.0285  0.2154  0.1934
  574MOL0     C77376   3.248   3.513   5.397 -0.2573  0.0275 -0.0024
  574MOL0     C77377   3.159   3.402   5.468  0.4381 -0.6624 -1.0111
  574MOL0     C77378   3.186   3.265   5.417 -1.5048  0.4976  0.3012
  574MOL0     O77379   3.330   3.235   5.418 -0.2033  0.2443 -0.7280
  574MOL0     C77380   3.341   3.100   5.423  1.1195  0.7847  0.3819
  574MOL0     C77381   3.291   3.013   5.328  0.4140  0.4117  0.6345
  574MOL0     C77382   3.319   2.878   5.330  0.4444  0.4176 -0.7675
  574MOL0     C77383   3.409   2.828   5.426 -0.5988 -0.3290  0.1303
  574MOL0     C77384   3.458   2.691   5.423 -0.5975  0.6291 -0.1026
  574MOL0     O77385   3.571   2.656   5.497  0.5941 -0.5122  0.3454
  574MOL0     C77386   3.596   2.524   5.508 -1.2266 -0.0223 -0.1154
  574MOL0     C77387   3.494   2.429   5.540 -0.5012 -1.1702 -0.5677
  574MOL0     C77388   3.523   2.299   5.542  0.4577 -0.0347  0.0482
  574MOL0     C77389   3.658   2.255   5.519  0.5423  0.4790 -0.3560
  574MOL0     O77390   3.700   2.129   5.538  0.8379  0.2029 -1.0487
  574MOL0     C77391   3.599   2.023   5.532  0.4081  0.2662  0.1967
  574MOL0     C77392   3.674   1.887   5.525 -1.0867  0.4253  1.3136
  574MOL0     C77393   3.765   1.869   5.397  0.0774 -0.2100  0.0488
  574MOL0     C77394   3.829   1.724   5.393  0.5371 -1.3298  0.3584
  574MOL0     C77395   3.961   1.730   5.313  0.3964 -0.2307  1.0911
  574MOL0     C77396   4.075   1.783   5.395 -0.0382  0.0062  0.0178
  574MOL0     C77397   4.212   1.755   5.326  0.2345  0.5534  0.2932
  574MOL0     C77398   4.257   1.859   5.218 -0.4593 -0.1641 -0.3067
  574MOL0    Cl77399   4.404   1.814   5.134  0.1816  0.5738 -0.2618
  574MOL0     C77400   3.759   2.333   5.485  0.0252 -0.2113 -0.3732
  574MOL0     C77401   3.726   2.473   5.479 -0.0800 -0.3160  0.1621
  574MOL0     O77402   3.404   2.624   5.337 -0.8508 -0.3905  0.0869
  574MOL0     C77403   3.458   2.911   5.526  0.2997  0.1358 -0.5883
  574MOL0     C77404   3.423   3.049   5.527 -0.1214  0.2878 -0.0533
  574MOL0     N77405   3.219   3.395   5.028  0.0303 -0.6584 -0.4920
  574MOL0     N77406   3.293   3.303   4.969  0.0070 -0.2488 -0.3978
  574MOL0     C77407   4.135   2.503   5.561 -0.3647  0.3293 -0.3826
  574MOL0     C77408   4.249   2.429   5.596 -0.5575  0.5700  0.4389
  574MOL0     C77409   4.698   2.326   5.642 -0.6709 -0.2276 -0.3298
  574MOL0     C77410   4.649   2.194   5.681 -1.1140  0.2177  0.4457
  574MOL0     C77411   4.742   2.094   5.716  1.1099  0.9658  0.5050
  574MOL0     C77412   4.874   2.119   5.716 -0.2996 -0.1286 -0.3737
  574MOL0     O77413   4.957   2.021   5.757 -0.0227  0.3889  0.4937
  574MOL0     C77414   4.964   2.012   5.904 -0.0927  0.0886 -0.5781
  574MOL0     C77415   5.050   1.891   5.945 -0.5910 -0.8319 -0.5966
  574MOL0     C77416   4.984   1.762   5.904  0.6510  0.1667  0.4796
  574MOL0     C77417   5.059   1.646   5.963  0.1496  0.0144 -0.0490
  574MOL0     C77418   4.975   1.528   5.950  0.7109 -0.1549  0.0402
  574MOL0     C77419   4.908   1.424   5.945  0.2909 -0.3942  0.3428
  574MOL0     C77420   4.924   2.249   5.699 -1.1577  0.2172 -0.9036
  574MOL0     C77421   4.840   2.353   5.655  0.2372  0.8657  0.0807
  574MOL0     C77422   4.911   2.482   5.610 -1.0073 -0.3836  0.9303
  574MOL0     H77423   4.467   2.661   5.674  2.0423 -0.8519 -2.8177
  574MOL0     H77424   4.288   2.818   5.593  0.4312  0.2574  3.3512
  574MOL0     H77425   4.053   2.929   5.506 -0.4684  1.5303 -0.6258
  574MOL0     H77426   4.157   2.842   5.403  1.5997  0.2771  2.4036
  574MOL0     H77427   3.940   2.787   5.259 -2.7785 -0.7070  1.3242
  574MOL0     H77428   3.985   2.960   5.290 -3.3150  2.9590  3.8553
  574MOL0     H77429   3.822   2.954   5.491  0.5335 -2.7369  1.1400
  574MOL0     H77430   3.752   2.808   5.417 -1.2901  2.0825  3.8310
  574MOL0     H77431   3.656   3.050   5.347  1.7754  1.2159  0.7135
  574MOL0     H77432   3.803   3.059   5.255  0.9100 -0.5120 -0.6057
  574MOL0     H77433   3.736   2.823   5.154  3.0759  0.2609  1.1992
  574MOL0     H77434   3.579   2.854   5.213  0.2126  0.9869  0.5495
  574MOL0     H77435   3.741   3.054   5.030  1.4959 -2.6362 -1.7936
  574MOL0     H77436   3.639   2.922   4.978  0.5205 -0.6587 -0.9094
  574MOL0     H77437   3.536   3.138   5.180  0.4024  1.0459 -0.7360
  574MOL0     H77438   3.442   3.006   5.084  1.4128 -1.7704  0.4537
  574MOL0     H77439   3.604   3.246   4.986  0.2152  0.1419  2.0301
  574MOL0     H77440   3.477   3.147   4.897 -0.0503 -1.7826  1.4334
  574MOL0     H77441   3.469   3.343   5.236 -0.5342 -2.5889 -2.1610
  574MOL0     H77442   3.272   3.629   5.227  1.2900 -0.3416  0.8066
  574MOL0     H77443   3.115   3.554   5.226 -0.3193 -1.5158 -0.0720
  574MOL0     H77444   3.355   3.495   5.417  0.2302  1.8120 -0.8563
  574MOL0     H77445   3.233   3.612   5.440  0.7443  0.4532 -0.6064
  574MOL0     H77446   3.053   3.423   5.453 -0.4169 -0.5679  3.6230
  574MOL0     H77447   3.163   3.392   5.577  1.1806 -0.8841 -1.0570
  574MOL0     H77448   3.170   3.258   5.309  3.2355  2.5183 -0.8154
  574MOL0     H77449   3.127   3.194   5.475  0.1133 -2.1576 -1.0730
  574MOL0     H77450   3.221   3.048   5.252 -1.4699 -1.3035  1.4737
  574MOL0     H77451   3.274   2.806   5.262 -0.5815 -2.0744  2.2628
  574MOL0     H77452   3.398   2.471   5.568  0.3312  1.5287 -1.4597
  574MOL0     H77453   3.438   2.244   5.581 -2.1026  1.9873 -2.3022
  574MOL0     H77454   3.536   2.000   5.619 -1.9311 -0.3891 -1.5957
  574MOL0     H77455   3.539   2.046   5.444 -2.1083 -1.9119  1.2319
  574MOL0     H77456   3.733   1.865   5.615 -1.0103  2.5621  1.8316
  574MOL0     H77457   3.602   1.805   5.529  0.0564 -0.5714  3.6686
  574MOL0     H77458   3.707   1.892   5.307  1.6313  4.2294 -0.0964
  574MOL0     H77459   3.842   1.946   5.412  0.7744 -1.4188  3.7924
  574MOL0     H77460   3.770   1.650   5.338 -0.7468  0.3006 -0.5286
  574MOL0     H77461   3.850   1.683   5.493  0.8582  0.6124  1.1433
  574MOL0     H77462   3.948   1.784   5.219 -0.6577 -1.6001  0.4089
  574MOL0     H77463   3.985   1.625   5.296  0.5675 -0.3178  1.8080
  574MOL0     H77464   4.066   1.887   5.427  0.3014 -0.1096  0.5041
  574MOL0     H77465   4.076   1.718   5.483 -1.9095  0.8985  0.7566
  574MOL0     H77466   4.197   1.659   5.276  0.1202  0.6544  0.1344
  574MOL0     H77467   4.291   1.732   5.398  0.3960 -0.5797 -0.2258
  574MOL0     H77468   4.182   1.879   5.142 -1.1947 -0.9879  0.1788
  574MOL0     H77469   4.272   1.955   5.269  0.6515  0.5255 -1.8629
  574MOL0     H77470   3.855   2.287   5.462  1.4016  0.9370  2.5667
  574MOL0     H77471   3.798   2.546   5.444 -1.2427  0.9601  0.3488
  574MOL0     H77472   3.523   2.868   5.602 -2.7012 -1.0506  1.4979
  574MOL0     H77473   3.476   3.121   5.589  0.5368  0.4856 -0.8396
  574MOL0     H77474   4.036   2.465   5.541 -0.1064  0.3716 -1.8560
  574MOL0     H77475   4.246   2.321   5.611  0.7360  0.4781  0.1027
  574MOL0     H77476   4.544   2.166   5.682 -1.2943  0.8576  0.1075
  574MOL0     H77477   4.711   1.994   5.742  0.1024  1.8216  2.8705
  574MOL0     H77478   4.860   2.005   5.935 -0.0783  1.1289 -0.2571
  574MOL0     H77479   4.998   2.113   5.931 -1.0518  0.3626 -0.3665
  574MOL0     H77480   5.053   1.903   6.054  0.2830 -3.4225 -0.2656
  574MOL0     H77481   5.151   1.891   5.905 -0.0026 -2.1250  0.7698
  574MOL0     H77482   4.994   1.750   5.796 -1.5464  0.1656  0.2487
  574MOL0     H77483   4.879   1.760   5.932  0.3385  1.0048 -0.5568
  574MOL0     H77484   5.143   1.626   5.896  0.5037  2.0619 -0.3046
  574MOL0     H77485   5.094   1.657   6.066  0.3827 -0.3434 -0.0898
  574MOL0     H77486   4.849   1.335   5.957 -1.2143  0.5584  0.2390
  574MOL0     H77487   5.030   2.272   5.710 -1.6020  1.1103  2.6308
  574MOL0     H77488   4.928   2.487   5.502 -0.6649  0.3155  1.0105
  574MOL0     H77489   4.856   2.571   5.640 -2.4254 -0.2906 -1.7104
  574MOL0     H77490   5.014   2.494   5.647 -1.3654  2.1144  1.2985
  575MOL0     O77491   1.194   1.534   7.437 -0.9809  0.6846 -0.0551
  575MOL0     C77492   1.230   1.509   7.324  0.1002 -0.6124  0.2410
  575MOL0     O77493   1.144   1.488   7.226 -0.7715 -0.5037  0.0912
  575MOL0     C77494   1.014   1.532   7.250  0.3921  0.8917 -0.0839
  575MOL0     C77495   0.932   1.454   7.331 -0.3568 -0.0632  0.2654
  575MOL0     C77496   0.794   1.489   7.338 -0.4201 -0.4173 -0.6087
  575MOL0     C77497   0.744   1.603   7.272 -0.1318  0.0497 -0.0533
  575MOL0     O77498   0.620   1.639   7.303 -1.1255  0.3184  0.1293
  575MOL0     C77499   0.548   1.708   7.204 -0.1207 -0.4369 -0.4226
  575MOL0     C77500   0.406   1.747   7.256 -0.0908  0.8095  0.4814
  575MOL0     C77501   0.402   1.825   7.381  0.7459 -0.5123  0.1381
  575MOL0     C77502   0.466   1.966   7.379 -0.0454 -0.5772 -0.0380
  575MOL0     C77503   0.445   2.033   7.512  1.0383 -0.4117 -0.0194
  575MOL0     C77504   0.528   2.162   7.525 -0.0407 -0.4575 -0.3949
  575MOL0     C77505   0.525   2.233   7.661  0.3407 -0.4268 -0.5943
  575MOL0     C77506   0.657   2.312   7.697  1.0455 -0.0515 -0.0378
  575MOL0     N77507   0.630   2.407   7.811 -1.0642  0.1384  0.7471
  575MOL0     C77508   0.689   2.536   7.817  0.9547  1.0327  0.6253
  575MOL0     C77509   0.639   2.591   7.931 -0.1193  1.2338 -0.1904
  575MOL0     C77510   0.669   2.733   7.978  0.0108 -0.4634  0.4905
  575MOL0     C77511   0.822   2.755   7.995 -0.8098 -0.5393 -0.5860
  575MOL0     C77512   0.868   2.894   8.042  0.0652  1.0994  0.9283
  575MOL0     C77513   1.020   2.892   8.082 -0.3271  0.6728  0.1025
  575MOL0     O77514   1.104   2.882   7.969 -0.2430  0.6202 -0.1072
  575MOL0     C77515   1.233   2.908   7.998  0.3547 -0.1670 -0.5629
  575MOL0     C77516   1.271   3.010   8.083 -0.6691 -0.5887 -0.4806
  575MOL0     C77517   1.403   3.023   8.123 -0.3361 -0.5265  0.0576
  575MOL0     C77518   1.493   2.929   8.068  0.2190 -0.7301 -0.4082
  575MOL0     C77519   1.638   2.939   8.094  0.0604 -0.6562  0.1100
  575MOL0     O77520   1.698   3.060   8.052  0.8491 -0.9018  0.5674
  575MOL0     C77521   1.801   3.110   8.120 -0.4317 -1.0872 -0.2273
  575MOL0     C77522   1.927   3.086   8.078 -0.5483  0.2274 -0.5351
  575MOL0     C77523   2.038   3.123   8.161 -0.0949  0.3907  0.2002
  575MOL0     C77524   2.031   3.189   8.289  0.9807 -0.4423  0.3292
  575MOL0     O77525   2.145   3.210   8.355 -0.0890  0.4981 -1.1623
  575MOL0     C77526   2.138   3.327   8.444 -0.4386  0.0411 -0.3350
  575MOL0     C77527   2.272   3.407   8.445 -0.0143 -0.2623  1.0194
  575MOL0     C77528   2.394   3.334   8.499  0.3478  0.3233 -0.3685
  575MOL0     C77529   2.525   3.420   8.482 -0.3607 -0.2894  0.3619
  575MOL0     C77530   2.651   3.364   8.564 -0.6348  0.7763 -0.6173
  575MOL0     C77531   2.778   3.432   8.505  0.5937  0.4154  0.7260
  575MOL0     C77532   2.819   3.404   8.359  0.0517 -1.0015  1.0256
  575MOL0     C77533   2.962   3.435   8.335  0.1939  0.8996 -0.8820
  575MOL0    Cl77534   2.989   3.616   8.328 -0.2722 -0.3624 -0.3263
  575MOL0     C77535   1.896   3.211   8.330  0.6224  0.0561 -0.4780
  575MOL0     C77536   1.786   3.175   8.245  0.3387  0.4060  0.2608
  575MOL0     O77537   1.692   2.853   8.154 -0.3142  0.3359  0.1941
  575MOL0     C77538   1.454   2.825   7.979 -0.0395 -0.4874 -0.0517
  575MOL0     C77539   1.316   2.817   7.942 -1.4175 -0.1178 -0.6793
  575MOL0     N77540   0.549   2.503   7.987 -0.5262  0.0110  0.5262
  575MOL0     N77541   0.545   2.397   7.915  0.3571  0.2318 -0.4888
  575MOL0     C77542   0.837   1.684   7.206  0.2324  0.0991  0.7808
  575MOL0     C77543   0.968   1.639   7.178 -0.1473  0.4032  0.2772
  575MOL0     C77544   1.378   1.505   7.297  0.0335  0.4193 -0.1520
  575MOL0     C77545   1.423   1.512   7.158 -0.4789 -0.7950 -0.7124
  575MOL0     C77546   1.562   1.524   7.123 -0.0614  0.3346 -0.4488
  575MOL0     C77547   1.657   1.525   7.227 -1.1666  0.4552 -0.4372
  575MOL0     O77548   1.799   1.528   7.214 -0.3262 -0.4101  0.2293
  575MOL0     C77549   1.863   1.528   7.089  0.2719  0.3751  0.7868
  575MOL0     C77550   2.015   1.531   7.107 -0.5003  0.1592 -0.5386
  575MOL0     C77551   2.065   1.630   7.204  0.8109  0.0195  0.1590
  575MOL0     C77552   2.216   1.643   7.206  0.6926  1.1233  0.1853
  575MOL0     C77553   2.278   1.520   7.265  0.0755 -0.4213  0.9256
  575MOL0     C77554   2.339   1.425   7.313  0.7360  0.3288  0.2433
  575MOL0     C77555   1.615   1.520   7.357 -0.0075  0.4435 -0.1892
  575MOL0     C77556   1.480   1.516   7.396  0.2538  0.3938 -0.2033
  575MOL0     C77557   1.447   1.531   7.543 -0.6366  0.3003  0.3308
  575MOL0     H77558   0.969   1.371   7.390 -3.1378 -1.1554  0.6520
  575MOL0     H77559   0.743   1.427   7.411  1.3627 -2.2348 -0.8319
  575MOL0     H77560   0.602   1.795   7.165 -1.9305  0.5692 -0.7986
  575MOL0     H77561   0.544   1.641   7.118  1.4622 -3.4820  1.7043
  575MOL0     H77562   0.355   1.651   7.270 -1.0304  1.4516  1.6230
  575MOL0     H77563   0.355   1.798   7.174  1.5610  0.3718 -0.8729
  575MOL0     H77564   0.454   1.771   7.460  0.3104 -2.1740 -0.6664
  575MOL0     H77565   0.297   1.833   7.412  0.1382  3.5170 -2.2793
  575MOL0     H77566   0.571   1.963   7.351  0.3882  1.0483  1.1976
  575MOL0     H77567   0.415   2.019   7.298  2.0501  1.7078  0.0147
  575MOL0     H77568   0.339   2.059   7.512  1.6918  2.5928 -0.5315
  575MOL0     H77569   0.470   1.970   7.598 -0.8614 -0.1991  0.7472
  575MOL0     H77570   0.634   2.148   7.502 -0.1090  0.4978 -1.3542
  575MOL0     H77571   0.492   2.231   7.449  0.6665  1.1544  0.6841
  575MOL0     H77572   0.503   2.160   7.740  0.9070 -0.2891 -0.3120
  575MOL0     H77573   0.434   2.293   7.675 -0.4836 -1.7607  0.0096
  575MOL0     H77574   0.729   2.238   7.733  0.0951 -1.3053 -0.6445
  575MOL0     H77575   0.700   2.367   7.613  0.0369  0.7764 -0.0387
  575MOL0     H77576   0.754   2.584   7.744 -2.0995  1.8054 -1.8011
  575MOL0     H77577   0.637   2.804   7.901 -1.7485 -0.8658  0.8191
  575MOL0     H77578   0.613   2.773   8.063  0.6807 -0.2740  0.8464
  575MOL0     H77579   0.855   2.683   8.071  2.6824  0.4969 -0.9435
  575MOL0     H77580   0.871   2.719   7.904 -2.9911 -6.0241  0.0370
  575MOL0     H77581   0.813   2.934   8.128  0.6950  4.9584 -0.2906
  575MOL0     H77582   0.853   2.969   7.964 -0.4524  0.8711  0.8035
  575MOL0     H77583   1.039   2.808   8.150 -3.5407 -0.6415 -0.4735
  575MOL0     H77584   1.041   2.978   8.146  0.8972 -1.2885  2.5352
  575MOL0     H77585   1.204   3.087   8.119  2.1189  1.3009  1.0604
  575MOL0     H77586   1.433   3.093   8.200  1.0177 -0.5767 -0.3935
  575MOL0     H77587   1.952   3.029   7.990  2.3049  2.9877 -1.7180
  575MOL0     H77588   2.142   3.113   8.130  0.4352 -2.0274  2.4078
  575MOL0     H77589   2.063   3.401   8.416  1.7182  3.1428  1.4171
  575MOL0     H77590   2.115   3.297   8.546  1.6813  0.7996  0.4377
  575MOL0     H77591   2.299   3.445   8.346  1.0309 -1.9595  0.6131
  575MOL0     H77592   2.258   3.502   8.498  0.0399 -0.4783  1.4294
  575MOL0     H77593   2.367   3.331   8.605 -2.8604  1.8190 -1.0186
  575MOL0     H77594   2.407   3.238   8.447  1.4223 -0.2388  0.8551
  575MOL0     H77595   2.500   3.525   8.503 -0.2981  1.0416 -4.8970
  575MOL0     H77596   2.548   3.415   8.376 -1.1866 -0.2505  0.1742
  575MOL0     H77597   2.659   3.255   8.555  1.0894  0.8626 -0.5062
  575MOL0     H77598   2.635   3.371   8.671 -1.2969 -1.0266 -0.5605
  575MOL0     H77599   2.777   3.538   8.533  1.5460  0.5806  0.1720
  575MOL0     H77600   2.855   3.378   8.560 -0.4942 -0.2947  1.6186
  575MOL0     H77601   2.767   3.463   8.284  1.6875 -1.8312 -0.8219
  575MOL0     H77602   2.823   3.298   8.331  3.3794 -1.0417  1.3433
  575MOL0     H77603   3.021   3.401   8.421 -0.4198  1.2017 -0.3333
  575MOL0     H77604   3.010   3.384   8.251  0.1566  2.0657 -1.6409
  575MOL0     H77605   1.874   3.252   8.428 -1.4923 -1.3819 -0.2802
  575MOL0     H77606   1.685   3.199   8.277  1.5770  2.5370  3.0285
  575MOL0     H77607   1.523   2.749   7.944 -1.7847 -2.5332  0.6945
  575MOL0     H77608   1.281   2.740   7.874 -1.1652  0.8050 -1.8769
  575MOL0     H77609   0.812   1.781   7.162  2.3138  0.2167 -0.3239
  575MOL0     H77610   1.038   1.675   7.104 -1.6712 -3.7732 -3.6736
  575MOL0     H77611   1.350   1.513   7.078 -0.0213  0.9242 -1.1543
  575MOL0     H77612   1.586   1.517   7.018 -1.2547  2.0543 -0.8817
  575MOL0     H77613   1.830   1.617   7.035  1.4965 -0.4531 -1.4642
  575MOL0     H77614   1.829   1.448   7.023 -2.1497  0.1237  2.2176
  575MOL0     H77615   2.057   1.561   7.010  1.0296  3.8924  1.0838
  575MOL0     H77616   2.053   1.434   7.142  1.0345  0.6759 -0.7161
  575MOL0     H77617   2.025   1.606   7.303  1.0515  0.6374  0.4144
  575MOL0     H77618   2.035   1.730   7.172 -0.6567 -0.1256  0.9993
  575MOL0     H77619   2.245   1.649   7.100 -4.7190  0.2016 -1.6771
  575MOL0     H77620   2.243   1.731   7.265 -0.7145  1.5836  0.1756
  575MOL0     H77621   2.405   1.348   7.346 -0.4613 -0.6131  0.5213
  575MOL0     H77622   1.691   1.540   7.433  1.2365  0.9362 -1.5178
  575MOL0     H77623   1.530   1.511   7.611 -1.2296 -0.0391  0.9737
  575MOL0     H77624   1.422   1.636   7.562  0.7860  0.6211  0.5154
  575MOL0     H77625   1.361   1.473   7.578 -1.6065  0.1299 -2.1211
  576MOL0     O77626   1.693   2.125   7.686  0.5256  0.5428 -0.3870
  576MOL0     C77627   1.706   2.206   7.597  0.5875  0.1959 -0.8489
  576MOL0     O77628   1.820   2.289   7.582 -0.1626  0.4452 -0.6708
  576MOL0     C77629   1.930   2.279   7.662 -0.6980  0.2744  0.5297
  576MOL0     C77630   1.929   2.229   7.799 -0.6372  0.4911  0.9163
  576MOL0     C77631   2.050   2.208   7.863  0.3542 -0.1486 -0.4893
  576MOL0     C77632   2.166   2.269   7.815 -1.0742 -0.0470 -0.6296
  576MOL0     O77633   2.287   2.274   7.883 -0.2130 -1.0818 -0.0792
  576MOL0     C77634   2.285   2.294   8.025  1.2500  0.0251  0.8866
  576MOL0     C77635   2.429   2.277   8.062 -0.2716  0.7404 -0.2295
  576MOL0     C77636   2.451   2.315   8.211  0.5265 -0.3900  0.2874
  576MOL0     C77637   2.595   2.288   8.243 -0.4292 -0.2350 -0.4583
  576MOL0     C77638   2.628   2.309   8.388  0.7169 -0.0453 -0.0146
  576MOL0     C77639   2.780   2.289   8.413  0.2670 -0.4682 -0.5600
  576MOL0     C77640   2.867   2.406   8.379  0.5754 -0.1688 -0.2983
  576MOL0     C77641   3.018   2.368   8.396  0.6426  0.1801  0.1712
  576MOL0     N77642   3.098   2.490   8.382 -0.1581  0.0237 -0.2697
  576MOL0     C77643   3.152   2.539   8.260 -0.7130 -0.0300 -0.1329
  576MOL0     C77644   3.249   2.628   8.308  0.1087  0.6529 -0.4633
  576MOL0     C77645   3.331   2.714   8.209  0.6554  0.7766 -0.5136
  576MOL0     C77646   3.484   2.733   8.252 -0.4279  0.5512 -0.4488
  576MOL0     C77647   3.552   2.852   8.177 -0.7537 -0.2667 -0.0635
  576MOL0     C77648   3.684   2.893   8.237  0.5899  0.0497 -0.4328
  576MOL0     O77649   3.788   2.807   8.184 -0.1012  0.4339 -0.2639
  576MOL0     C77650   3.902   2.855   8.236  0.3933  0.1174 -0.1774
  576MOL0     C77651   3.970   2.964   8.174 -0.1807 -0.1015  0.2520
  576MOL0     C77652   4.094   3.011   8.217 -0.4357 -0.0481 -0.0922
  576MOL0     C77653   4.145   2.956   8.338 -0.3340 -0.5630  0.8581
  576MOL0     C77654   4.273   3.005   8.388 -0.3577 -0.1472  0.4637
  576MOL0     O77655   4.315   3.129   8.345  0.7799  0.0190 -0.4307
  576MOL0     C77656   4.445   3.160   8.363 -0.7814  0.8695 -0.0634
  576MOL0     C77657   4.509   3.189   8.485 -0.2006  0.4873 -0.2814
  576MOL0     C77658   4.637   3.226   8.498 -0.5273 -0.3172  0.3042
  576MOL0     C77659   4.717   3.230   8.387  0.5760 -0.1806  0.1235
  576MOL0     O77660   4.858   3.249   8.399  0.6965 -0.5896 -0.5069
  576MOL0     C77661   4.945   3.265   8.288  0.5169 -0.6847 -0.1809
  576MOL0     C77662   5.081   3.320   8.331  0.4781  0.7441  0.3684
  576MOL0     C77663   5.168   3.206   8.396  0.2320 -0.4217  1.4624
  576MOL0     C77664   5.311   3.253   8.417 -0.7971  0.3771 -0.2796
  576MOL0     C77665   5.387   3.146   8.504 -0.1332  0.3549  0.1596
  576MOL0     C77666   5.512   3.200   8.575  0.1869  0.2063 -0.5430
  576MOL0     C77667   5.630   3.211   8.474  0.5816  0.8102 -0.3750
  576MOL0     C77668   5.717   3.332   8.500 -0.4581  0.5182 -0.3678
  576MOL0    Cl77669   5.766   3.362   8.662  0.4341  0.4028 -0.3365
  576MOL0     C77670   4.669   3.200   8.265 -0.2015 -0.5105 -0.2828
  576MOL0     C77671   4.524   3.173   8.252  0.0981 -0.3325  0.3205
  576MOL0     O77672   4.341   2.935   8.467 -0.1715 -0.6197 -0.1161
  576MOL0     C77673   4.082   2.852   8.398 -0.0081  0.8210  0.2503
  576MOL0     C77674   3.965   2.801   8.345  0.1270  0.2977 -0.2704
  576MOL0     N77675   3.240   2.640   8.440 -0.3661 -0.0726 -0.1330
  576MOL0     N77676   3.155   2.561   8.486 -0.0010 -0.2006 -0.3104
  576MOL0     C77677   2.160   2.332   7.691  0.7515 -0.0367  0.2016
  576MOL0     C77678   2.046   2.335   7.614  0.5356  0.9877 -0.7527
  576MOL0     C77679   1.592   2.225   7.503 -0.9400 -0.0644  0.6732
  576MOL0     C77680   1.574   2.350   7.431 -0.2576 -0.5527  0.0156
  576MOL0     C77681   1.469   2.377   7.343 -0.1045  0.3257  0.5143
  576MOL0     C77682   1.365   2.286   7.333 -0.5450  0.2664  0.7684
  576MOL0     O77683   1.244   2.304   7.261  0.5406  0.4443  0.0429
  576MOL0     C77684   1.199   2.433   7.235 -0.4966 -0.1895 -0.1381
  576MOL0     C77685   1.085   2.425   7.132  0.2378 -0.2290 -0.1094
  576MOL0     C77686   1.055   2.556   7.058  0.7122 -0.3097  0.1867
  576MOL0     C77687   0.976   2.537   6.925  0.1462 -0.5474 -0.6652
  576MOL0     C77688   0.980   2.660   6.843  0.3525  0.5980 -0.6698
  576MOL0     C77689   1.003   2.755   6.785 -0.9024 -0.3280 -1.2037
  576MOL0     C77690   1.382   2.164   7.394 -0.9126 -0.4425 -1.2770
  576MOL0     C77691   1.495   2.133   7.469  0.1776 -0.9274  0.1545
  576MOL0     C77692   1.496   1.990   7.517 -0.0679  0.0659 -0.2013
  576MOL0     H77693   1.843   2.199   7.857 -2.4867 -1.2122 -2.4251
  576MOL0     H77694   2.027   2.156   7.955 -0.7736 -3.0424 -2.2881
  576MOL0     H77695   2.241   2.393   8.041  1.3127  0.2582 -0.2538
  576MOL0     H77696   2.233   2.216   8.081 -0.1458  1.7234  2.0544
  576MOL0     H77697   2.482   2.346   7.996 -1.8303  2.3534  0.1049
  576MOL0     H77698   2.454   2.172   8.046  1.5475  0.9265  1.0684
  576MOL0     H77699   2.393   2.246   8.273  0.1566 -0.6797 -0.3606
  576MOL0     H77700   2.423   2.418   8.233  3.3251  0.4131  0.4945
  576MOL0     H77701   2.616   2.184   8.217 -0.8148 -0.5671  0.5141
  576MOL0     H77702   2.662   2.352   8.186 -0.1179  0.9748  1.1993
  576MOL0     H77703   2.590   2.409   8.410 -0.5452 -0.5796  0.3577
  576MOL0     H77704   2.568   2.234   8.442 -0.8729 -0.4832 -2.2039
  576MOL0     H77705   2.771   2.265   8.520  1.5382  0.1294 -0.3005
  576MOL0     H77706   2.805   2.193   8.367 -1.1426 -0.5867 -1.1278
  576MOL0     H77707   2.859   2.480   8.460 -1.4982  1.2111 -1.6545
  576MOL0     H77708   2.838   2.453   8.285 -1.0347 -2.6717 -1.1618
  576MOL0     H77709   3.036   2.326   8.495 -2.5961  0.0135  0.8232
  576MOL0     H77710   3.048   2.290   8.326 -0.8847  0.7450 -1.1690
  576MOL0     H77711   3.141   2.494   8.162 -0.7075 -3.1632  1.2040
  576MOL0     H77712   3.348   2.656   8.118 -0.4566 -0.4505  0.0386
  576MOL0     H77713   3.276   2.807   8.196 -1.3249  0.2182  2.7535
  576MOL0     H77714   3.483   2.753   8.360  0.3263 -1.4339 -0.0448
  576MOL0     H77715   3.543   2.646   8.224  1.5977  0.8092  2.5904
  576MOL0     H77716   3.501   2.948   8.179  2.4629  1.6565 -1.3857
  576MOL0     H77717   3.559   2.818   8.073 -0.7138  0.5125 -0.3199
  576MOL0     H77718   3.667   2.891   8.345 -3.7274 -2.8849 -0.9191
  576MOL0     H77719   3.702   2.998   8.213  1.1120  0.1175  0.2102
  576MOL0     H77720   3.930   3.006   8.082  0.6727 -2.1381 -1.1128
  576MOL0     H77721   4.155   3.075   8.156  2.0848 -1.5553  0.7031
  576MOL0     H77722   4.452   3.189   8.578 -0.4528 -2.3715 -0.3497
  576MOL0     H77723   4.672   3.231   8.600  1.2107 -1.2609 -0.2024
  576MOL0     H77724   4.958   3.171   8.234  1.8029  1.9006 -4.9640
  576MOL0     H77725   4.884   3.335   8.229 -1.0102  0.7083  2.8128
  576MOL0     H77726   5.136   3.370   8.251  0.6882 -0.9293 -0.5818
  576MOL0     H77727   5.057   3.399   8.403 -0.5031  0.3736  0.4574
  576MOL0     H77728   5.124   3.170   8.490  0.2366 -0.8798  1.2918
  576MOL0     H77729   5.161   3.118   8.332 -2.3654  0.3805  0.5144
  576MOL0     H77730   5.307   3.350   8.467  1.2419  0.6625 -0.6077
  576MOL0     H77731   5.372   3.264   8.327 -0.6732 -2.5451 -0.6512
  576MOL0     H77732   5.412   3.061   8.440  2.1369  0.5672  0.6881
  576MOL0     H77733   5.331   3.108   8.590  2.8627 -0.3853  1.9358
  576MOL0     H77734   5.491   3.299   8.618 -0.9508  1.0312 -2.8351
  576MOL0     H77735   5.539   3.131   8.655  0.3656  0.2591 -0.5578
  576MOL0     H77736   5.604   3.223   8.369 -0.2100 -1.7284 -0.5551
  576MOL0     H77737   5.680   3.114   8.483  0.3368  0.7191  0.0901
  576MOL0     H77738   5.807   3.320   8.439  0.0828 -5.0771  0.9489
  576MOL0     H77739   5.660   3.422   8.474 -0.1365  0.7001 -0.4547
  576MOL0     H77740   4.730   3.193   8.175 -2.2190 -0.7410 -1.7174
  576MOL0     H77741   4.488   3.146   8.154  1.5060 -1.7568  0.1586
  576MOL0     H77742   4.129   2.799   8.480  0.1016  0.0801 -0.2920
  576MOL0     H77743   3.918   2.710   8.383 -0.4091  0.3667 -0.7441
  576MOL0     H77744   2.247   2.388   7.657  0.0662  0.9388  0.0306
  576MOL0     H77745   2.044   2.377   7.514  3.7956 -0.3703 -1.5075
  576MOL0     H77746   1.639   2.436   7.438 -2.0376  0.7520  1.6379
  576MOL0     H77747   1.469   2.476   7.298  3.7790  0.1533 -0.2450
  576MOL0     H77748   1.289   2.484   7.201  0.9211 -2.0952  0.6131
  576MOL0     H77749   1.178   2.479   7.332  0.7353 -2.2388  1.1762
  576MOL0     H77750   0.997   2.384   7.182  1.6716 -1.1506  1.7671
  576MOL0     H77751   1.129   2.345   7.072  0.0782 -0.2040 -0.2600
  576MOL0     H77752   1.155   2.595   7.037  0.3760  2.0790  2.4885
  576MOL0     H77753   1.003   2.630   7.120 -0.5664 -1.7518  0.9038
  576MOL0     H77754   1.021   2.463   6.859  3.1158  2.9962 -3.0170
  576MOL0     H77755   0.870   2.510   6.936  0.0873 -0.6180 -1.3567
  576MOL0     H77756   1.015   2.847   6.730 -0.7108  0.9868  0.9423
  576MOL0     H77757   1.305   2.089   7.377  0.8279 -2.5656 -0.2602
  576MOL0     H77758   1.574   1.929   7.470 -2.3926 -2.7118 -0.7260
  576MOL0     H77759   1.503   1.988   7.626 -0.1790  1.2601 -0.1602
  576MOL0     H77760   1.410   1.936   7.479 -0.1306  1.0151 -1.4891
  577MOL0     O77761   8.080   8.354   1.153  0.0052 -0.1499 -0.4654
  577MOL0     C77762   8.065   8.317   1.274 -0.9445 -0.2363  0.8286
  577MOL0     O77763   8.169   8.272   1.346 -0.4956  0.0925 -0.0817
  577MOL0     C77764   8.295   8.292   1.296  0.0422 -0.3328 -0.2752
  577MOL0     C77765   8.381   8.378   1.356 -0.5998 -0.6060 -0.7752
  577MOL0     C77766   8.521   8.385   1.328 -0.7475  0.2932  0.3271
  577MOL0     C77767   8.563   8.302   1.235  0.3922  0.2051 -0.2227
  577MOL0     O77768   8.694   8.308   1.191  0.7562 -0.2685  0.3537
  577MOL0     C77769   8.803   8.357   1.268  0.8327  0.2813 -0.1248
  577MOL0     C77770   8.936   8.340   1.193  0.1530  0.1504  0.2088
  577MOL0     C77771   8.977   8.465   1.125  0.4717  0.2022 -0.0945
  577MOL0     C77772   9.120   8.467   1.072  0.1004 -0.6762 -0.8254
  577MOL0     C77773   9.160   8.607   1.022 -0.0990  0.1324 -0.1493
  577MOL0     C77774   9.297   8.640   0.975 -0.3098  0.0685 -0.6374
  577MOL0     C77775   9.413   8.577   1.048 -0.8377 -0.4953 -0.3391
  577MOL0     C77776   9.442   8.645   1.185 -0.0450  0.3466  0.3952
  577MOL0     N77777   9.557   8.595   1.257  0.2499 -0.1378  0.0921
  577MOL0     C77778   9.683   8.600   1.206  1.1113 -1.1873 -0.5375
  577MOL0     C77779   9.745   8.519   1.282 -0.1007 -0.6189 -0.9248
  577MOL0     C77780   9.887   8.477   1.264  1.4545 -0.1844  0.0442
  577MOL0     C77781   9.972   8.488   1.388  0.0488 -0.5819  0.0854
  577MOL0     C77782  10.003   8.634   1.423  0.0959  0.8453  0.0389
  577MOL0     C77783  10.106   8.657   1.531 -0.0666  0.2566 -0.4143
  577MOL0     O77784  10.216   8.571   1.509  0.5021 -0.4581  0.8783
  577MOL0     C77785  10.293   8.591   1.399 -0.5709  0.8004  0.3962
  577MOL0     C77786  10.329   8.706   1.342  0.9417  0.0608 -0.0480
  577MOL0     C77787  10.414   8.710   1.232  0.5802  0.9436 -0.7372
  577MOL0     C77788  10.480   8.595   1.198  0.0519 -0.1425  0.0944
  577MOL0     C77789  10.573   8.607   1.080 -0.0704  0.1517  0.6666
  577MOL0     O77790  10.665   8.508   1.086  0.2346  0.3081  1.0550
  577MOL0     C77791  10.747   8.493   0.977 -0.9036 -0.3078  0.4549
  577MOL0     C77792  10.878   8.446   1.018 -0.0325 -0.0011  0.3070
  577MOL0     C77793  10.982   8.436   0.930  0.0118  0.3272  0.3783
  577MOL0     C77794  10.959   8.456   0.790  0.4526  0.7819  0.6333
  577MOL0     O77795  11.051   8.419   0.692  0.8756  0.3552  0.1005
  577MOL0     C77796  11.172   8.352   0.734 -0.4328  1.0038  0.4399
  577MOL0     C77797  11.163   8.201   0.771 -0.6782  0.8213  0.1754
  577MOL0     C77798  11.279   8.116   0.724 -0.4306  0.6681 -0.0876
  577MOL0     C77799  11.282   7.986   0.803  0.0095 -0.0992 -0.2639
  577MOL0     C77800  11.416   7.916   0.781 -0.6512 -0.3226 -1.1176
  577MOL0     C77801  11.466   7.900   0.641  0.2616 -0.3217  0.1895
  577MOL0     C77802  11.573   7.807   0.610 -0.4669 -0.2628  0.7123
  577MOL0     C77803  11.594   7.781   0.469 -0.7455 -1.1457  1.0666
  577MOL0    Cl77804  11.676   7.634   0.435 -0.0094 -0.0795  0.5074
  577MOL0     C77805  10.831   8.491   0.741  0.8787 -0.0824 -0.6964
  577MOL0     C77806  10.726   8.517   0.839  0.4637  0.4635 -0.4249
  577MOL0     O77807  10.565   8.700   0.998 -0.1219 -0.1556 -0.3894
  577MOL0     C77808  10.462   8.478   1.262  0.7952 -0.3611 -0.7003
  577MOL0     C77809  10.360   8.478   1.357  0.1950  0.9630 -0.4218
  577MOL0     N77810   9.668   8.470   1.388  0.8053  0.7177  0.3614
  577MOL0     N77811   9.556   8.516   1.367 -0.4411 -0.3403  0.9325
  577MOL0     C77812   8.475   8.232   1.155  0.1465 -0.3240 -0.0201
  577MOL0     C77813   8.342   8.223   1.188 -0.3543 -0.0174 -0.2765
  577MOL0     C77814   7.942   8.333   1.345  0.6636  0.2927 -0.9014
  577MOL0     C77815   7.937   8.345   1.484  0.2897 -0.4549 -0.1644
  577MOL0     C77816   7.822   8.380   1.561  0.8498 -0.5377 -0.6701
  577MOL0     C77817   7.698   8.404   1.491 -0.7341  0.2776 -0.6845
  577MOL0     O77818   7.595   8.437   1.579 -0.5728  0.7392 -0.3289
  577MOL0     C77819   7.498   8.521   1.511  0.1997 -0.6884 -0.6295
  577MOL0     C77820   7.376   8.439   1.472  0.2202  0.3275  0.5395
  577MOL0     C77821   7.286   8.413   1.598  0.3877  0.2163  0.0652
  577MOL0     C77822   7.142   8.398   1.561 -0.1232  0.5673  0.4927
  577MOL0     C77823   7.122   8.281   1.474  0.1273  0.5909 -0.5173
  577MOL0     C77824   7.108   8.175   1.404  0.0493 -0.1912  0.4538
  577MOL0     C77825   7.702   8.384   1.349 -0.6938  0.2524 -0.6095
  577MOL0     C77826   7.822   8.350   1.276  0.5226  0.2751 -0.4910
  577MOL0     C77827   7.808   8.305   1.131  0.0827  0.0451  0.2668
  577MOL0     H77828   8.340   8.438   1.437 -2.1412  0.6539 -2.4190
  577MOL0     H77829   8.576   8.457   1.388 -0.4025  1.8070 -1.7171
  577MOL0     H77830   8.779   8.462   1.289 -1.5385  0.0147 -1.1607
  577MOL0     H77831   8.803   8.309   1.367  2.6002  3.6562  1.7020
  577MOL0     H77832   8.923   8.251   1.132 -0.0732 -1.8890  3.0008
  577MOL0     H77833   9.014   8.333   1.270  0.6551  0.3451 -0.2787
  577MOL0     H77834   8.975   8.545   1.199 -0.5977  0.7099 -0.6462
  577MOL0     H77835   8.911   8.491   1.042 -0.4460  0.7617  0.7787
  577MOL0     H77836   9.195   8.430   1.142 -0.2835 -0.4223 -0.2747
  577MOL0     H77837   9.115   8.388   0.997 -1.0127 -2.3346  0.9260
  577MOL0     H77838   9.091   8.627   0.939 -1.5637 -2.9669  0.1762
  577MOL0     H77839   9.134   8.677   1.101  2.2712  0.9323  0.0192
  577MOL0     H77840   9.309   8.577   0.886 -1.4548 -0.8237 -0.1857
  577MOL0     H77841   9.305   8.745   0.943 -3.8049  0.1456 -1.6896
  577MOL0     H77842   9.500   8.590   0.983 -3.2507 -0.3542 -3.7815
  577MOL0     H77843   9.402   8.468   1.059  0.1110 -0.7837 -1.8478
  577MOL0     H77844   9.451   8.753   1.169 -0.6820  0.3166 -0.1841
  577MOL0     H77845   9.353   8.634   1.248 -0.9695 -0.9560 -1.0781
  577MOL0     H77846   9.710   8.655   1.116  0.8429 -0.1616 -0.0117
  577MOL0     H77847   9.877   8.370   1.244 -3.2137  0.0293  0.2386
  577MOL0     H77848   9.945   8.532   1.189 -0.5427  1.5660 -0.3111
  577MOL0     H77849   9.921   8.441   1.473  2.0303 -0.4284  1.4252
  577MOL0     H77850  10.068   8.436   1.379  0.3673 -0.1638  1.0140
  577MOL0     H77851   9.911   8.689   1.445  0.8044  3.8591 -3.5784
  577MOL0     H77852  10.038   8.695   1.340  0.7441  0.5644  0.1028
  577MOL0     H77853  10.078   8.642   1.636  0.6694 -0.0104 -0.2436
  577MOL0     H77854  10.130   8.763   1.522 -0.4815  0.5720  1.6597
  577MOL0     H77855  10.317   8.803   1.391  3.4179  0.3226  0.1509
  577MOL0     H77856  10.441   8.806   1.188  3.7439  0.6934  0.3990
  577MOL0     H77857  10.893   8.432   1.125  4.9935 -1.6707 -0.3473
  577MOL0     H77858  11.081   8.411   0.966  0.0712 -2.9755 -1.7257
  577MOL0     H77859  11.240   8.344   0.650 -0.0535 -0.7458  0.8904
  577MOL0     H77860  11.225   8.412   0.809 -2.3572  0.8533  2.0386
  577MOL0     H77861  11.146   8.187   0.878  1.3943 -0.4642  0.3991
  577MOL0     H77862  11.074   8.162   0.721 -0.1485  0.3307 -0.4004
  577MOL0     H77863  11.264   8.112   0.615 -2.2897  2.4556  0.0482
  577MOL0     H77864  11.377   8.166   0.728  0.8595 -1.6355 -1.0302
  577MOL0     H77865  11.199   7.920   0.777  0.5320 -1.6215  1.6905
  577MOL0     H77866  11.266   8.008   0.909 -0.7855 -0.1810 -0.3645
  577MOL0     H77867  11.412   7.816   0.825 -0.1189  0.2918  0.3891
  577MOL0     H77868  11.490   7.974   0.836 -1.7367 -3.1541  3.9177
  577MOL0     H77869  11.380   7.868   0.581  1.3426 -0.6678 -1.2404
  577MOL0     H77870  11.496   8.002   0.612  2.7499 -1.3779 -1.3290
  577MOL0     H77871  11.547   7.721   0.674 -1.0039 -1.5114 -1.1030
  577MOL0     H77872  11.670   7.844   0.643 -0.3630 -0.7132  0.9175
  577MOL0     H77873  11.492   7.771   0.428 -0.9976  1.1922  1.0053
  577MOL0     H77874  11.643   7.863   0.417 -0.2804 -2.5189 -0.7551
  577MOL0     H77875  10.792   8.497   0.640 -2.4725 -0.9357  0.4192
  577MOL0     H77876  10.630   8.548   0.800  0.8725  1.5040 -0.6533
  577MOL0     H77877  10.521   8.388   1.245  3.1576  0.5929  1.7318
  577MOL0     H77878  10.329   8.382   1.396 -2.5839  1.7304 -0.4935
  577MOL0     H77879   8.508   8.164   1.077  1.0093 -2.9635  2.4488
  577MOL0     H77880   8.283   8.147   1.137  0.2321  0.8505 -2.3374
  577MOL0     H77881   8.028   8.321   1.536 -0.7601 -0.8552  1.5550
  577MOL0     H77882   7.824   8.399   1.668 -1.1170 -2.2698 -0.2635
  577MOL0     H77883   7.546   8.572   1.427 -0.0475  1.0934  0.2734
  577MOL0     H77884   7.466   8.604   1.575  2.5598 -1.4630  1.7501
  577MOL0     H77885   7.398   8.349   1.414 -1.1114  1.3828 -1.7386
  577MOL0     H77886   7.320   8.487   1.391  1.7507 -0.1170 -0.8194
  577MOL0     H77887   7.290   8.492   1.673  1.3273 -0.3679  0.6446
  577MOL0     H77888   7.313   8.320   1.649  1.5776  0.6987  0.3416
  577MOL0     H77889   7.084   8.385   1.653 -2.4652  1.7808 -0.7155
  577MOL0     H77890   7.127   8.493   1.509  2.0899  1.0957  0.7184
  577MOL0     H77891   7.106   8.080   1.355  0.2835 -1.3124  2.5036
  577MOL0     H77892   7.608   8.377   1.296 -0.0435  4.4313 -2.6751
  577MOL0     H77893   7.876   8.221   1.115 -3.4963 -3.3233  1.1096
  577MOL0     H77894   7.705   8.275   1.107 -0.2550  2.7288 -2.2311
  577MOL0     H77895   7.828   8.384   1.059 -1.2692 -0.4023 -0.6553
  578MOL0     O77896   5.678  10.102   9.976  0.9485 -0.0261  0.1016
  578MOL0     C77897   5.681  10.095  10.100  0.4669 -0.0452  0.5755
  578MOL0     O77898   5.573  10.069  10.172  0.4752 -0.3276 -0.7268
  578MOL0     C77899   5.448  10.092  10.113 -0.0137 -1.0473 -0.5825
  578MOL0     C77900   5.375   9.985  10.066  0.0851  0.4392 -0.8205
  578MOL0     C77901   5.244  10.007  10.021  0.4449  0.1652 -0.1723
  578MOL0     C77902   5.199  10.139   9.998 -0.0279  0.3178  0.6637
  578MOL0     O77903   5.089  10.164   9.924  0.1989  0.0575  0.1350
  578MOL0     C77904   5.074  10.260   9.828 -0.7873 -0.4069  0.2025
  578MOL0     C77905   5.018  10.190   9.703  0.0936 -0.7869 -0.6744
  578MOL0     C77906   4.987  10.281   9.587 -0.4272  0.1428 -0.1362
  578MOL0     C77907   4.902  10.225   9.468  0.1764  0.3973  0.0423
  578MOL0     C77908   4.858  10.347   9.379 -0.6343 -0.1949 -0.7696
  578MOL0     C77909   4.979  10.422   9.329  0.0986  0.0271  0.0012
  578MOL0     C77910   4.957  10.495   9.192  0.5126  0.1722 -0.5300
  578MOL0     C77911   4.914  10.406   9.081 -0.0482 -0.0418 -0.7819
  578MOL0     N77912   4.977  10.280   9.048  0.6897  0.6133  0.4045
  578MOL0     C77913   4.949  10.150   9.082  0.2858 -1.3472  0.3448
  578MOL0     C77914   5.051  10.079   9.039 -1.7711  0.5597 -0.3437
  578MOL0     C77915   5.070   9.930   9.069 -0.1283 -0.0471 -0.6171
  578MOL0     C77916   5.099   9.917   9.220  0.5051 -0.7748 -0.1188
  578MOL0     C77917   5.110   9.780   9.283 -0.3560 -0.2751 -0.7576
  578MOL0     C77918   5.262   9.756   9.304  0.3118  0.9260  0.2663
  578MOL0     O77919   5.322   9.837   9.406  0.4227 -0.7087 -0.2323
  578MOL0     C77920   5.312   9.785   9.530 -0.0340 -0.6578  0.2546
  578MOL0     C77921   5.246   9.675   9.579  0.1779  0.3714  0.9317
  578MOL0     C77922   5.266   9.633   9.713 -0.1134 -0.9557 -0.3477
  578MOL0     C77923   5.347   9.714   9.794 -0.6326 -0.5411 -0.5745
  578MOL0     C77924   5.383   9.665   9.931 -0.3566  0.1048 -0.2312
  578MOL0     O77925   5.513   9.660   9.976  0.2987 -0.5209  0.3206
  578MOL0     C77926   5.539   9.592  10.091 -0.4891 -0.0597 -0.2869
  578MOL0     C77927   5.633   9.658  10.172  0.6102  0.4161  0.3415
  578MOL0     C77928   5.693   9.595  10.281 -0.0141 -0.2973 -0.8071
  578MOL0     C77929   5.652   9.463  10.307 -0.5716  0.1591 -0.6536
  578MOL0     O77930   5.720   9.394  10.401  0.3095  1.2951 -0.3465
  578MOL0     C77931   5.681   9.258  10.435 -0.9246 -0.4070  0.1660
  578MOL0     C77932   5.733   9.234  10.579  0.6160 -1.0237 -0.5601
  578MOL0     C77933   5.635   9.258  10.695  0.2240 -0.1359 -0.4985
  578MOL0     C77934   5.684   9.199  10.828  0.1601 -1.0413  0.7436
  578MOL0     C77935   5.799   9.286  10.883  0.0752  0.3855 -0.2805
  578MOL0     C77936   5.841   9.241  11.023 -0.1041 -0.6939 -0.1949
  578MOL0     C77937   5.961   9.325  11.077  0.5519  0.0130 -1.1868
  578MOL0     C77938   6.031   9.271  11.207  0.1256  0.1052  0.4678
  578MOL0    Cl77939   6.181   9.357  11.242 -0.2598  0.3592 -0.1799
  578MOL0     C77940   5.556   9.395  10.235  0.7501  0.0173  1.0852
  578MOL0     C77941   5.500   9.464  10.122  0.4749 -0.5423 -1.0883
  578MOL0     O77942   5.283   9.625   9.987 -0.3108  0.2792 -0.0874
  578MOL0     C77943   5.411   9.824   9.751 -0.2407 -0.0871  1.4094
  578MOL0     C77944   5.390   9.863   9.618 -0.3505 -0.4521 -0.5638
  578MOL0     N77945   5.136  10.160   8.971  0.0446  1.1934  0.7699
  578MOL0     N77946   5.080  10.270   8.966  0.1666 -0.2083 -0.5369
  578MOL0     C77947   5.275  10.248  10.039 -0.1299  0.3694  0.1384
  578MOL0     C77948   5.394  10.222  10.103 -0.3936 -0.0449  0.0009
  578MOL0     C77949   5.811  10.081  10.174  0.5941  0.0570  0.2216
  578MOL0     C77950   5.921  10.082  10.092  1.0384 -0.3055 -0.3363
  578MOL0     C77951   6.050  10.071  10.147  0.6089  0.3257  0.7793
  578MOL0     C77952   6.069  10.050  10.283 -0.5420  0.7355 -0.2656
  578MOL0     O77953   6.184  10.018  10.349  0.1443 -0.0399  0.4322
  578MOL0     C77954   6.311  10.005  10.277  0.2915  0.0666 -0.2270
  578MOL0     C77955   6.322   9.870  10.204  1.0663  0.1048  0.2418
  578MOL0     C77956   6.396   9.757  10.291  0.3002  0.4983  0.4596
  578MOL0     C77957   6.531   9.730  10.241 -0.1156 -0.6859 -0.4176
  578MOL0     C77958   6.510   9.684  10.111 -0.8930  0.3453  0.3439
  578MOL0     C77959   6.486   9.649   9.992 -0.6493 -0.3754 -0.0871
  578MOL0     C77960   5.952  10.043  10.361  0.7527 -0.8775 -0.1061
  578MOL0     C77961   5.823  10.050  10.315 -0.1725  0.0918 -0.4833
  578MOL0     C77962   5.708  10.034  10.407 -0.6513  0.0969  0.1336
  578MOL0     H77963   5.425   9.890  10.075 -0.9773 -0.4084 -3.0429
  578MOL0     H77964   5.182   9.926   9.983 -0.5907  1.5568 -1.5828
  578MOL0     H77965   4.989  10.313   9.874 -0.7756 -1.5958  1.6848
  578MOL0     H77966   5.164  10.320   9.818 -1.6666  0.8596 -0.3705
  578MOL0     H77967   4.933  10.143   9.752  0.5471 -0.6334  0.2782
  578MOL0     H77968   5.078  10.102   9.679  0.3106 -0.5969 -0.8410
  578MOL0     H77969   5.077  10.326   9.544 -0.0241 -2.0703 -1.7713
  578MOL0     H77970   4.926  10.369   9.610 -1.2856 -0.1443 -1.2276
  578MOL0     H77971   4.943  10.150   9.400  0.2445  1.3708 -1.0346
  578MOL0     H77972   4.808  10.179   9.499 -0.8799  0.5550 -2.7018
  578MOL0     H77973   4.801  10.309   9.294  0.9722  0.1006 -2.0325
  578MOL0     H77974   4.789  10.416   9.428 -2.1041 -2.7145  0.9101
  578MOL0     H77975   5.009  10.495   9.404 -0.3299 -1.0743  1.2953
  578MOL0     H77976   5.064  10.354   9.322  0.4636  0.6075 -1.6253
  578MOL0     H77977   5.050  10.535   9.152  1.2106 -2.4397 -1.7376
  578MOL0     H77978   4.885  10.575   9.214  0.1127  0.2791 -2.1245
  578MOL0     H77979   4.806  10.393   9.085 -0.3830  1.7195 -2.4844
  578MOL0     H77980   4.922  10.466   8.990  1.4559  0.6860 -0.2150
  578MOL0     H77981   4.852  10.121   9.124 -1.6762  0.9527 -2.2344
  578MOL0     H77982   4.984   9.872   9.035  0.4036 -0.7817 -0.7387
  578MOL0     H77983   5.152   9.890   9.009 -0.1085  3.8327 -3.5743
  578MOL0     H77984   5.186   9.981   9.240  1.0854 -1.0608 -1.6219
  578MOL0     H77985   5.016   9.962   9.276  0.4713 -0.3862 -0.4748
  578MOL0     H77986   5.048   9.707   9.231 -0.4135 -1.5036  0.9271
  578MOL0     H77987   5.068   9.785   9.384  2.2676  1.4116  0.3729
  578MOL0     H77988   5.311   9.777   9.209  2.0606 -1.8995  0.4123
  578MOL0     H77989   5.275   9.651   9.332  0.6514  1.5962  2.9029
  578MOL0     H77990   5.188   9.601   9.525 -0.2481  0.7040  0.9248
  578MOL0     H77991   5.221   9.546   9.759 -1.8242  0.2890  0.4385
  578MOL0     H77992   5.632   9.764  10.152 -3.2628  0.3152 -1.0528
  578MOL0     H77993   5.744   9.643  10.364 -0.6280  1.5406 -1.4586
  578MOL0     H77994   5.573   9.242  10.443 -1.0200  0.6664  1.2601
  578MOL0     H77995   5.712   9.193  10.352 -0.8238 -1.1543  0.7682
  578MOL0     H77996   5.752   9.127  10.570 -0.2089 -1.0548 -2.2977
  578MOL0     H77997   5.825   9.287  10.607 -2.0495  1.7503  4.2407
  578MOL0     H77998   5.618   9.365  10.712  4.3460  0.6088 -0.1600
  578MOL0     H77999   5.540   9.216  10.659  0.8082 -1.0291 -1.0447
  578MOL0     H78000   5.712   9.096  10.802 -0.4529 -1.1058  0.3088
  578MOL0     H78001   5.609   9.204  10.907  0.0558 -0.4209  0.6124
  578MOL0     H78002   5.764   9.389  10.890 -1.1931  0.0028 -0.6052
  578MOL0     H78003   5.885   9.276  10.816 -1.2130  3.2322 -2.6047
  578MOL0     H78004   5.755   9.246  11.090 -0.8757 -0.8138 -1.1501
  578MOL0     H78005   5.875   9.137  11.020  0.0706 -0.7616  2.2265
  578MOL0     H78006   5.917   9.424  11.093 -2.3720 -0.7788 -3.4490
  578MOL0     H78007   6.030   9.342  10.993  1.6755  0.5330 -0.1921
  578MOL0     H78008   5.969   9.277  11.297  1.1381 -0.4165  1.2230
  578MOL0     H78009   6.066   9.168  11.198 -0.8461 -0.1851 -0.0645
  578MOL0     H78010   5.533   9.290  10.246 -2.2167  0.7211  2.3734
  578MOL0     H78011   5.434   9.413  10.053  1.5545 -0.1519 -2.4541
  578MOL0     H78012   5.487   9.879   9.806 -1.1065 -1.5319  4.2563
  578MOL0     H78013   5.451   9.944   9.580  0.8807 -0.4775  1.2691
  578MOL0     H78014   5.258  10.353  10.021  4.7814  1.1970 -0.9289
  578MOL0     H78015   5.442  10.306  10.151 -0.5430  1.7686 -2.7715
  578MOL0     H78016   5.910  10.103   9.986  1.2313 -2.7041 -0.8739
  578MOL0     H78017   6.137  10.092  10.085  0.9031 -0.7741  0.8002
  578MOL0     H78018   6.393  10.012  10.349 -0.8650 -0.0768  1.1540
  578MOL0     H78019   6.329  10.090  10.211  4.5282  1.1137  1.9662
  578MOL0     H78020   6.369   9.879  10.106 -0.6868  1.5667 -0.5280
  578MOL0     H78021   6.219   9.835  10.188  0.8961  0.3011  0.8608
  578MOL0     H78022   6.345   9.661  10.305 -1.6757  0.6022 -4.2821
  578MOL0     H78023   6.415   9.796  10.392 -0.0691 -2.1041  1.6278
  578MOL0     H78024   6.577   9.829  10.234 -0.0375 -0.6579  0.4171
  578MOL0     H78025   6.591   9.667  10.307  0.3108  0.4404  0.3006
  578MOL0     H78026   6.468   9.615   9.892 -1.7468 -2.0971  0.6434
  578MOL0     H78027   5.973  10.029  10.467  0.3492  1.5736  0.3549
  578MOL0     H78028   5.637   9.961  10.367  0.0376 -0.6214  0.1959
  578MOL0     H78029   5.737  10.005  10.508 -0.3937 -2.5763 -0.6268
  578MOL0     H78030   5.662  10.133  10.408  0.3379  0.5687  0.7208
  579MOL0     O78031   2.215   3.361   4.921 -0.5353 -0.1016  0.2493
  579MOL0     C78032   2.166   3.467   4.886 -0.1132 -0.5135 -0.1419
  579MOL0     O78033   2.215   3.555   4.799  0.3940 -0.2486  0.3041
  579MOL0     C78034   2.322   3.532   4.722 -1.2056 -0.8730 -0.5665
  579MOL0     C78035   2.328   3.562   4.592 -0.0034  0.4177  0.4737
  579MOL0     C78036   2.441   3.528   4.516  0.5867 -0.5343  0.5782
  579MOL0     C78037   2.563   3.492   4.575  0.4883 -0.5992  0.0621
  579MOL0     O78038   2.681   3.474   4.503  0.1653 -0.0239  0.3123
  579MOL0     C78039   2.691   3.529   4.372 -0.5826  0.6834 -0.3790
  579MOL0     C78040   2.837   3.533   4.326 -0.1230  0.6013  0.1565
  579MOL0     C78041   2.844   3.566   4.186 -0.5849  0.1730  0.4851
  579MOL0     C78042   2.997   3.550   4.138  0.5995  0.0207  0.4194
  579MOL0     C78043   3.016   3.621   3.998  0.2041  0.2159  0.5127
  579MOL0     C78044   3.163   3.609   3.961 -0.2193  0.0275 -0.8286
  579MOL0     C78045   3.248   3.708   4.051 -0.3409  0.7852 -0.8780
  579MOL0     C78046   3.385   3.736   3.995 -0.2130 -0.1767 -1.4999
  579MOL0     N78047   3.448   3.850   4.067  0.8229 -0.1122  0.6612
  579MOL0     C78048   3.519   3.839   4.182 -0.9597  1.2326 -0.1901
  579MOL0     C78049   3.552   3.960   4.219  0.5380 -0.3305  0.7361
  579MOL0     C78050   3.626   4.015   4.342  0.3520  0.6171 -0.8430
  579MOL0     C78051   3.774   4.045   4.326 -0.5007  0.0044 -0.6527
  579MOL0     C78052   3.819   4.175   4.384  0.5148 -0.3985 -0.0227
  579MOL0     C78053   3.963   4.212   4.379 -0.0126 -0.1800  0.6139
  579MOL0     O78054   4.028   4.128   4.481  0.2853  0.0552  0.8676
  579MOL0     C78055   4.164   4.123   4.492  0.2124 -0.0248  0.2644
  579MOL0     C78056   4.220   4.079   4.609  0.8324 -0.4416  0.4311
  579MOL0     C78057   4.356   4.064   4.629 -0.1510 -0.0799 -0.4649
  579MOL0     C78058   4.442   4.087   4.523  0.8603  0.3428  0.2211
  579MOL0     C78059   4.584   4.067   4.530 -0.2256 -1.3740  0.0788
  579MOL0     O78060   4.625   4.011   4.640 -0.7406  0.5063 -0.1540
  579MOL0     C78061   4.760   3.997   4.664 -0.0470  0.2470  0.8740
  579MOL0     C78062   4.831   3.886   4.626 -0.3910 -0.0667  0.0197
  579MOL0     C78063   4.964   3.872   4.659  0.4286  0.2160  1.2526
  579MOL0     C78064   5.035   3.972   4.723  0.0096 -1.8145  0.4540
  579MOL0     O78065   5.169   3.973   4.745  0.5780  0.3140 -0.3097
  579MOL0     C78066   5.251   3.862   4.701  0.3910  0.9280  0.2292
  579MOL0     C78067   5.391   3.896   4.747 -0.0392  1.2789 -0.6286
  579MOL0     C78068   5.500   3.777   4.721 -0.6642 -0.0941 -0.1589
  579MOL0     C78069   5.636   3.826   4.749 -0.1149  0.1708 -0.0469
  579MOL0     C78070   5.703   3.911   4.639 -1.3827 -0.4980 -0.1822
  579MOL0     C78071   5.829   3.976   4.692  0.0425 -0.6057  0.2074
  579MOL0     C78072   5.879   4.105   4.618  0.0614  0.2467  0.5277
  579MOL0     C78073   5.987   4.162   4.698 -0.7263 -0.1620 -0.0045
  579MOL0    Cl78074   6.046   4.310   4.634  0.0855 -0.3605  0.0997
  579MOL0     C78075   4.968   4.086   4.763  0.0620 -0.2400  1.3819
  579MOL0     C78076   4.833   4.098   4.720 -1.2465 -0.4342 -0.4332
  579MOL0     O78077   4.656   4.116   4.443 -0.9089 -0.2355  0.5624
  579MOL0     C78078   4.390   4.137   4.400 -0.6075  1.2933  0.0092
  579MOL0     C78079   4.252   4.150   4.388  0.9141 -0.2427 -0.8190
  579MOL0     N78080   3.494   4.050   4.129 -0.9127 -1.0519  0.0247
  579MOL0     N78081   3.435   3.981   4.040  0.5421  0.0021  0.3104
  579MOL0     C78082   2.574   3.487   4.711 -0.4531  0.3957 -0.0399
  579MOL0     C78083   2.452   3.492   4.792 -0.4503 -0.5883  1.2099
  579MOL0     C78084   2.033   3.507   4.933  0.3790  0.0574  0.2649
  579MOL0     C78085   1.988   3.439   5.048  0.0317  1.1793  0.6495
  579MOL0     C78086   1.874   3.466   5.110  0.0626  0.2690  0.4009
  579MOL0     C78087   1.803   3.580   5.069  0.1535 -0.0716  0.6070
  579MOL0     O78088   1.680   3.616   5.115 -0.8661 -0.3529 -0.0482
  579MOL0     C78089   1.628   3.551   5.234 -0.7152  0.2977 -1.0954
  579MOL0     C78090   1.686   3.594   5.366 -0.1345  0.3433  0.4128
  579MOL0     C78091   1.614   3.508   5.465 -0.0616  0.5382 -0.2669
  579MOL0     C78092   1.651   3.527   5.605 -1.2804  0.0806  0.0542
  579MOL0     C78093   1.592   3.422   5.685 -1.2218 -0.4053 -0.5945
  579MOL0     C78094   1.549   3.328   5.747 -0.6727 -0.0048 -0.3407
  579MOL0     C78095   1.840   3.646   4.950  0.3428  1.4927 -0.4117
  579MOL0     C78096   1.949   3.610   4.872 -0.6534  1.1814 -0.8489
  579MOL0     C78097   1.979   3.702   4.762 -0.6662  0.2986 -0.5483
  579MOL0     H78098   2.233   3.588   4.547  0.0922  0.0644  0.0698
  579MOL0     H78099   2.448   3.548   4.409 -1.1903 -3.7926 -0.3022
  579MOL0     H78100   2.637   3.464   4.303 -1.4661 -0.7030  1.5010
  579MOL0     H78101   2.658   3.633   4.364  1.6621  1.4185 -0.5386
  579MOL0     H78102   2.886   3.437   4.345  2.0289  1.6703  0.3388
  579MOL0     H78103   2.880   3.612   4.389 -0.7323  1.1293 -0.0809
  579MOL0     H78104   2.801   3.667   4.183 -2.9516 -0.7926 -0.0421
  579MOL0     H78105   2.778   3.511   4.119 -0.8361  0.8630  0.1584
  579MOL0     H78106   3.068   3.581   4.216 -0.2036 -0.4157  1.3374
  579MOL0     H78107   3.017   3.444   4.121  0.6124  0.1170 -0.1953
  579MOL0     H78108   2.963   3.585   3.909  1.3729  0.4323 -0.2859
  579MOL0     H78109   2.996   3.728   4.006 -0.1858  0.5717 -3.2463
  579MOL0     H78110   3.200   3.506   3.960 -0.4070 -0.0916  0.9251
  579MOL0     H78111   3.165   3.643   3.857  0.6578  3.4689  0.1716
  579MOL0     H78112   3.246   3.675   4.156 -1.8515 -1.3493 -1.4975
  579MOL0     H78113   3.198   3.805   4.058 -0.8380  0.4347  4.1119
  579MOL0     H78114   3.449   3.648   3.987 -2.7930 -2.1673 -1.5853
  579MOL0     H78115   3.369   3.767   3.891 -0.7536  1.6815 -0.9012
  579MOL0     H78116   3.531   3.752   4.246  3.0044  1.4707 -0.3332
  579MOL0     H78117   3.580   4.113   4.356 -1.9230 -0.5273  0.3687
  579MOL0     H78118   3.597   3.946   4.422  1.3930 -1.9670 -2.5750
  579MOL0     H78119   3.832   3.961   4.364  1.6824  0.5176 -2.6060
  579MOL0     H78120   3.796   4.065   4.220 -1.1356  2.6890 -0.3727
  579MOL0     H78121   3.789   4.170   4.489  1.4471 -2.1771  0.2111
  579MOL0     H78122   3.753   4.252   4.344  2.1129  0.8084 -0.4244
  579MOL0     H78123   3.991   4.314   4.407  6.8949 -0.8914 -1.7640
  579MOL0     H78124   3.996   4.194   4.276 -2.3832  1.0558 -0.4474
  579MOL0     H78125   4.147   4.056   4.686  0.9599 -2.3658  0.0288
  579MOL0     H78126   4.387   4.020   4.723  0.5583 -0.3338 -0.8122
  579MOL0     H78127   4.774   3.803   4.585 -1.9321  0.0644  1.7725
  579MOL0     H78128   5.017   3.780   4.633 -0.3709 -0.1041  0.7087
  579MOL0     H78129   5.230   3.762   4.740  3.9698 -0.2940 -0.5952
  579MOL0     H78130   5.249   3.861   4.591  2.1397  0.4446  0.1758
  579MOL0     H78131   5.432   3.972   4.679  0.1210 -2.5351 -5.3036
  579MOL0     H78132   5.388   3.926   4.852 -2.8026 -0.8660  0.0228
  579MOL0     H78133   5.469   3.688   4.776 -0.8808  0.6014  0.8795
  579MOL0     H78134   5.500   3.743   4.617  1.4478 -1.8487  0.3511
  579MOL0     H78135   5.693   3.734   4.768  3.4711  2.0605 -0.7483
  579MOL0     H78136   5.630   3.883   4.842  2.9823  2.5914 -1.1285
  579MOL0     H78137   5.641   3.994   4.605 -0.8461 -0.4460 -1.0389
  579MOL0     H78138   5.735   3.849   4.555  2.6218  0.8700  0.0929
  579MOL0     H78139   5.824   4.005   4.797 -1.8453 -1.0253  0.2686
  579MOL0     H78140   5.907   3.899   4.682  1.6798  0.7492  1.8878
  579MOL0     H78141   5.799   4.178   4.600 -1.2265 -1.3995 -0.7730
  579MOL0     H78142   5.910   4.087   4.514 -2.1130  1.9070 -0.4899
  579MOL0     H78143   5.951   4.194   4.797 -2.0739  0.4981 -0.6781
  579MOL0     H78144   6.068   4.090   4.691 -0.7567 -0.1401 -0.6102
  579MOL0     H78145   5.005   4.171   4.820 -1.8749  3.1733 -2.0319
  579MOL0     H78146   4.781   4.191   4.738  2.1059  1.4828  0.0268
  579MOL0     H78147   4.449   4.160   4.312  0.5177 -1.5451 -0.0897
  579MOL0     H78148   4.214   4.198   4.298 -1.8733 -0.9262 -0.1309
  579MOL0     H78149   2.668   3.470   4.762  0.5641  0.7269 -1.7346
  579MOL0     H78150   2.442   3.480   4.900  2.3374  1.8621  1.8651
  579MOL0     H78151   2.046   3.353   5.078  0.3977 -1.6471 -6.1857
  579MOL0     H78152   1.843   3.387   5.177  3.1984 -2.0096 -0.5773
  579MOL0     H78153   1.636   3.445   5.210 -2.0560 -0.0949  0.0643
  579MOL0     H78154   1.520   3.571   5.241 -1.2109 -2.2790 -0.5420
  579MOL0     H78155   1.678   3.702   5.380 -2.0901  0.4702 -1.3222
  579MOL0     H78156   1.794   3.577   5.360 -0.2120 -1.4231  2.8190
  579MOL0     H78157   1.648   3.407   5.440 -2.8289 -1.5655  3.4529
  579MOL0     H78158   1.506   3.516   5.452  0.1099  1.0136 -1.6023
  579MOL0     H78159   1.759   3.539   5.616 -0.8430 -2.4090 -0.8331
  579MOL0     H78160   1.617   3.628   5.632 -0.6795  0.7724 -1.6514
  579MOL0     H78161   1.501   3.241   5.788 -0.7582  0.1035 -0.2106
  579MOL0     H78162   1.771   3.723   4.916 -0.5561  0.4803 -0.9529
  579MOL0     H78163   2.022   3.647   4.677  2.1882  2.2280 -0.4968
  579MOL0     H78164   1.896   3.754   4.715  0.6364  1.3769 -1.7606
  579MOL0     H78165   2.053   3.776   4.795 -1.9168  0.9355  0.9640
  580MOL0     O78166   6.438   8.239   4.216 -0.3321 -0.0929 -0.5785
  580MOL0     C78167   6.455   8.256   4.098 -0.1439 -0.2552  0.0495
  580MOL0     O78168   6.363   8.256   4.005 -0.9487 -0.8320 -0.2115
  580MOL0     C78169   6.236   8.251   4.051 -0.1174  0.2140  0.1029
  580MOL0     C78170   6.173   8.361   4.108  0.4636 -0.3610 -0.6753
  580MOL0     C78171   6.036   8.349   4.154 -0.3341 -0.3913  0.1613
  580MOL0     C78172   5.967   8.230   4.132 -0.0200  0.8411 -0.2004
  580MOL0     O78173   5.831   8.220   4.158 -0.4568  0.0589  0.0685
  580MOL0     C78174   5.778   8.105   4.234 -0.9467 -0.4221  0.2622
  580MOL0     C78175   5.829   8.099   4.386  0.3603 -0.2105  0.3750
  580MOL0     C78176   5.967   8.045   4.408  0.2804  0.4289 -0.0527
  580MOL0     C78177   6.017   8.004   4.553 -0.5347 -0.6731  0.3258
  580MOL0     C78178   6.174   7.973   4.572  0.2065 -0.6891 -0.2790
  580MOL0     C78179   6.262   8.103   4.566 -0.7617 -0.4790  0.0591
  580MOL0     C78180   6.410   8.063   4.556 -1.1864  0.6321 -0.4074
  580MOL0     C78181   6.510   8.186   4.542 -0.4879  1.2087 -0.5112
  580MOL0     N78182   6.650   8.151   4.529 -0.1944  0.8567 -0.8996
  580MOL0     C78183   6.707   8.084   4.419  0.3340 -0.6838 -0.2161
  580MOL0     C78184   6.835   8.085   4.454 -0.6828 -0.0044 -0.3715
  580MOL0     C78185   6.944   8.028   4.355  0.5355  0.5322  0.0628
  580MOL0     C78186   7.060   7.954   4.424 -0.4038 -0.2622  0.8776
  580MOL0     C78187   7.150   8.049   4.502  1.3813  0.4709 -0.1674
  580MOL0     C78188   7.254   8.128   4.427 -0.0394  0.4363 -0.3644
  580MOL0     O78189   7.335   8.039   4.344  0.5256  0.7583 -0.0293
  580MOL0     C78190   7.460   8.011   4.385  0.2932 -0.1597  0.3048
  580MOL0     C78191   7.559   8.035   4.299 -0.0882  0.4270  0.0619
  580MOL0     C78192   7.683   7.994   4.331 -0.5078 -0.1152  0.5705
  580MOL0     C78193   7.707   7.933   4.458  0.2834  0.4151 -0.3059
  580MOL0     C78194   7.836   7.870   4.486 -0.2699 -0.1889  0.6007
  580MOL0     O78195   7.910   7.832   4.369 -0.6740  0.9396  0.0129
  580MOL0     C78196   8.048   7.811   4.380 -0.3866 -0.9415  0.1210
  580MOL0     C78197   8.135   7.865   4.473 -0.8428 -0.1209 -0.1042
  580MOL0     C78198   8.270   7.820   4.482 -0.0912 -0.0071 -0.3968
  580MOL0     C78199   8.311   7.722   4.392  0.1150 -0.4076  0.1455
  580MOL0     O78200   8.444   7.673   4.397  0.5083  0.3872 -0.6597
  580MOL0     C78201   8.546   7.758   4.456  0.2073 -0.4286  0.4370
  580MOL0     C78202   8.683   7.708   4.414  0.1155 -0.2519 -0.4030
  580MOL0     C78203   8.785   7.783   4.503 -0.6843 -0.2639 -0.1113
  580MOL0     C78204   8.925   7.746   4.444 -0.6444  0.8689  0.2490
  580MOL0     C78205   9.025   7.836   4.513 -0.2539 -0.2494  0.1241
  580MOL0     C78206   9.047   7.792   4.660  0.0834 -1.0130  0.2175
  580MOL0     C78207   9.181   7.841   4.722 -0.7672 -0.4521  0.4988
  580MOL0     C78208   9.188   7.846   4.878 -0.2703 -0.0660  0.2253
  580MOL0    Cl78209   9.157   7.695   4.972  0.1072 -0.4294  0.5527
  580MOL0     C78210   8.217   7.671   4.301 -0.1412 -0.4844  0.4987
  580MOL0     C78211   8.092   7.726   4.283  0.0545  0.3140  0.4521
  580MOL0     O78212   7.875   7.862   4.604 -0.3491 -0.7283  0.7355
  580MOL0     C78213   7.607   7.917   4.543 -0.5154 -1.0444  0.1014
  580MOL0     C78214   7.473   7.948   4.507 -1.5268 -0.5927 -0.8353
  580MOL0     N78215   6.866   8.156   4.569 -0.0115 -0.9405  0.1656
  580MOL0     N78216   6.749   8.187   4.615  0.1123  0.0902 -0.1099
  580MOL0     C78217   6.042   8.119   4.071  0.0060 -0.3452  0.5182
  580MOL0     C78218   6.170   8.131   4.026  1.2229  0.1049 -0.6369
  580MOL0     C78219   6.605   8.255   4.067  0.5849  0.1076  0.4067
  580MOL0     C78220   6.650   8.155   3.975 -0.5710 -0.4651  0.2161
  580MOL0     C78221   6.783   8.154   3.940 -0.0667 -0.4952  0.0415
  580MOL0     C78222   6.871   8.255   3.983 -0.2364  0.2105 -0.2582
  580MOL0     O78223   7.006   8.268   3.970 -0.2522  0.5570 -0.0714
  580MOL0     C78224   7.063   8.150   3.926 -1.0791  0.1668  0.3650
  580MOL0     C78225   7.215   8.177   3.892 -0.4125 -0.5724  0.2196
  580MOL0     C78226   7.302   8.063   3.839 -0.0746 -0.5630  0.6147
  580MOL0     C78227   7.448   8.097   3.802 -0.4118 -1.1291 -0.7237
  580MOL0     C78228   7.529   8.173   3.902 -0.1172  0.2105 -0.6889
  580MOL0     C78229   7.606   8.237   3.972 -0.2713 -0.0626  0.7474
  580MOL0     C78230   6.831   8.339   4.085  0.9273 -0.4816  0.3628
  580MOL0     C78231   6.699   8.346   4.123 -0.3467  1.3389  0.7379
  580MOL0     C78232   6.659   8.461   4.226 -0.3283  0.3671 -0.4283
  580MOL0     H78233   6.219   8.457   4.128  1.2538 -0.8547 -0.0648
  580MOL0     H78234   5.982   8.434   4.197  0.6153  0.2654  0.0762
  580MOL0     H78235   5.671   8.130   4.231 -0.8802 -0.1201 -2.2676
  580MOL0     H78236   5.810   8.015   4.179 -0.2296 -0.1802  0.2843
  580MOL0     H78237   5.763   8.029   4.438 -0.0785  1.3802  2.0597
  580MOL0     H78238   5.813   8.200   4.425 -2.1703 -0.4587  0.1818
  580MOL0     H78239   6.044   8.118   4.380  0.3952  0.7859  1.1124
  580MOL0     H78240   5.984   7.958   4.344  0.8692  0.9054 -0.5652
  580MOL0     H78241   5.977   8.087   4.612  0.0639  1.6269 -2.3358
  580MOL0     H78242   5.962   7.913   4.581 -0.1003 -1.8295 -2.2959
  580MOL0     H78243   6.175   7.923   4.669 -0.0198 -2.1996 -1.0297
  580MOL0     H78244   6.203   7.902   4.494 -1.8486  0.4148 -2.2019
  580MOL0     H78245   6.241   8.162   4.476  0.6752  2.0542  1.2795
  580MOL0     H78246   6.249   8.171   4.650  0.6857  2.3771 -1.8545
  580MOL0     H78247   6.418   8.000   4.467  1.2171 -2.3078  1.7233
  580MOL0     H78248   6.441   7.999   4.639  2.6644  0.6726 -1.5951
  580MOL0     H78249   6.463   8.246   4.463  0.4430  0.8280 -1.3869
  580MOL0     H78250   6.508   8.249   4.631  0.5204  0.7692 -0.1677
  580MOL0     H78251   6.668   8.071   4.319  0.0540  0.8088 -0.3207
  580MOL0     H78252   6.888   7.966   4.285 -2.8027  2.8551  0.3899
  580MOL0     H78253   6.978   8.117   4.302 -2.1121  1.1221 -0.8086
  580MOL0     H78254   7.009   7.872   4.474 -2.2750 -0.8587 -1.7931
  580MOL0     H78255   7.123   7.905   4.350  0.9144  1.4658  0.7911
  580MOL0     H78256   7.196   7.991   4.582  4.0827 -1.4544 -2.8868
  580MOL0     H78257   7.098   8.127   4.558  2.8935 -0.3829  2.5755
  580MOL0     H78258   7.323   8.173   4.499  2.1014  1.9242 -3.1304
  580MOL0     H78259   7.211   8.203   4.359  2.9478  1.7081 -1.0284
  580MOL0     H78260   7.534   8.083   4.205  3.6344 -1.6695 -2.2784
  580MOL0     H78261   7.762   7.999   4.257 -0.6501  2.1893  0.5141
  580MOL0     H78262   8.106   7.939   4.546  0.0016  0.2840 -0.1607
  580MOL0     H78263   8.335   7.864   4.557  1.3472  2.0882 -2.6978
  580MOL0     H78264   8.535   7.859   4.415  1.2194 -0.1458  0.8257
  580MOL0     H78265   8.536   7.759   4.565 -0.1735 -1.1585  0.4168
  580MOL0     H78266   8.696   7.601   4.432 -0.9580 -0.2440  0.5458
  580MOL0     H78267   8.693   7.721   4.306  1.0551 -0.8173 -0.3949
  580MOL0     H78268   8.771   7.892   4.500  2.9915  0.3509 -3.0528
  580MOL0     H78269   8.785   7.746   4.606  0.2802 -0.4692 -0.1713
  580MOL0     H78270   8.931   7.773   4.338 -3.3909 -0.1772 -0.2692
  580MOL0     H78271   8.950   7.641   4.462 -3.0539  0.0706 -0.6366
  580MOL0     H78272   8.992   7.940   4.513 -0.7195 -0.3129 -2.8798
  580MOL0     H78273   9.124   7.826   4.466  0.4681  1.7680  1.0809
  580MOL0     H78274   8.965   7.825   4.725  1.1592  1.0412  0.6291
  580MOL0     H78275   9.048   7.684   4.675  2.5857 -0.7944  2.3136
  580MOL0     H78276   9.194   7.944   4.688  0.7992 -0.7867 -0.0001
  580MOL0     H78277   9.256   7.775   4.677 -1.1807 -0.2390 -0.5316
  580MOL0     H78278   9.285   7.889   4.907 -1.1168  1.3749  1.0051
  580MOL0     H78279   9.113   7.915   4.917 -0.7321 -0.7668  0.5835
  580MOL0     H78280   8.245   7.583   4.244  1.0025 -0.2338  0.6517
  580MOL0     H78281   8.029   7.689   4.203  0.2719  0.6006  0.1482
  580MOL0     H78282   7.625   7.872   4.640 -0.0444 -0.9588  0.0521
  580MOL0     H78283   7.387   7.917   4.565 -0.6805 -0.2580  0.6288
  580MOL0     H78284   5.987   8.026   4.062 -1.5535  0.6886 -1.1196
  580MOL0     H78285   6.211   8.043   3.977  0.6860 -0.7135  0.3645
  580MOL0     H78286   6.573   8.086   3.941 -2.8183  0.6305  2.6259
  580MOL0     H78287   6.801   8.082   3.861 -3.5028  0.0435 -1.4142
  580MOL0     H78288   7.023   8.098   3.838 -0.1981 -1.5555  0.9444
  580MOL0     H78289   7.068   8.073   4.003  1.1575  0.5082  0.6200
  580MOL0     H78290   7.256   8.207   3.989 -0.3677 -3.3147  1.1363
  580MOL0     H78291   7.217   8.257   3.817  0.2509 -2.6880 -2.2112
  580MOL0     H78292   7.255   8.024   3.748 -0.8083  1.5014  0.0692
  580MOL0     H78293   7.311   7.988   3.918  0.7022 -3.3731 -1.9249
  580MOL0     H78294   7.505   8.005   3.786  0.9210 -0.5760  0.5720
  580MOL0     H78295   7.454   8.158   3.711 -1.3567 -1.7430 -1.2112
  580MOL0     H78296   7.675   8.290   4.034  0.2814  1.0842 -0.7845
  580MOL0     H78297   6.909   8.400   4.128  1.2208  0.8403 -1.8587
  580MOL0     H78298   6.715   8.555   4.214 -0.2908  0.1760 -1.9302
  580MOL0     H78299   6.554   8.486   4.209 -0.8226 -2.2090 -1.5910
  580MOL0     H78300   6.662   8.426   4.329  1.5713  0.5250 -0.3976
  581MOL0     O78301   0.657   8.542  10.973  0.8383  0.7146  0.0946
  581MOL0     C78302   0.599   8.590  10.877  0.2697  0.2376 -0.2568
  581MOL0     O78303   0.630   8.713  10.811  0.3897  0.2288 -0.0664
  581MOL0     C78304   0.719   8.797  10.871  0.0072 -0.7027  0.7387
  581MOL0     C78305   0.842   8.831  10.816 -0.4943  0.2017  0.0288
  581MOL0     C78306   0.923   8.909  10.881 -0.0321 -0.3173  0.2060
  581MOL0     C78307   0.895   8.976  10.995  0.1308  0.7036 -0.6285
  581MOL0     O78308   0.987   9.059  11.056 -0.6416  1.1511 -0.2761
  581MOL0     C78309   1.088   9.133  10.984 -0.0126 -0.3092  0.6111
  581MOL0     C78310   1.232   9.067  11.013  0.5834 -0.3524  0.6118
  581MOL0     C78311   1.307   9.093  11.147  0.8966 -0.8101  0.2009
  581MOL0     C78312   1.372   9.228  11.137 -0.4642 -0.2354 -0.1891
  581MOL0     C78313   1.438   9.289  11.272 -0.2736 -0.1613  0.6248
  581MOL0     C78314   1.570   9.226  11.316 -0.0979 -0.3562  0.2790
  581MOL0     C78315   1.567   9.096  11.411 -0.0573  0.3761  0.5460
  581MOL0     C78316   1.713   9.078  11.470 -0.5174 -0.4264 -0.3053
  581MOL0     N78317   1.731   8.986  11.590  0.7450 -0.3538 -0.2242
  581MOL0     C78318   1.719   8.848  11.580 -0.3362 -0.9404 -0.0294
  581MOL0     C78319   1.710   8.803  11.712 -0.4123  0.2953 -0.1498
  581MOL0     C78320   1.694   8.651  11.721 -0.7909 -0.0758  0.0512
  581MOL0     C78321   1.657   8.616  11.866  0.8507  0.3189 -0.5498
  581MOL0     C78322   1.623   8.462  11.889  0.2502  0.2316  0.7243
  581MOL0     C78323   1.750   8.370  11.911  0.0814  0.3568 -0.3735
  581MOL0     O78324   1.702   8.236  11.897 -0.1425  0.0088 -0.4021
  581MOL0     C78325   1.788   8.155  11.825 -0.9051 -0.5387  0.7391
  581MOL0     C78326   1.920   8.120  11.856 -0.9356  0.3991 -0.1846
  581MOL0     C78327   1.996   8.048  11.767  0.2471  0.2270  0.1252
  581MOL0     C78328   1.945   8.023  11.634  0.0044 -0.2302 -0.1590
  581MOL0     C78329   2.014   7.930  11.540  0.2324 -0.2879 -0.1476
  581MOL0     O78330   2.124   7.872  11.589 -0.3449  0.6752 -0.3318
  581MOL0     C78331   2.195   7.776  11.527 -0.4734  1.0117  0.4616
  581MOL0     C78332   2.320   7.745  11.577  0.2846 -0.4946 -0.3539
  581MOL0     C78333   2.402   7.650  11.513 -0.7385  0.3319  0.0377
  581MOL0     C78334   2.368   7.570  11.405  0.5333 -0.5099 -0.4802
  581MOL0     O78335   2.457   7.473  11.358  0.1628 -0.4090 -0.1842
  581MOL0     C78336   2.437   7.417  11.222 -0.4387 -0.0205 -0.1741
  581MOL0     C78337   2.559   7.324  11.194 -0.2441 -0.0526  0.9831
  581MOL0     C78338   2.545   7.191  11.274  0.2783 -0.4158 -0.5799
  581MOL0     C78339   2.677   7.106  11.272  0.2094  0.3990  0.4286
  581MOL0     C78340   2.690   7.051  11.123 -0.9316  0.7531 -0.2988
  581MOL0     C78341   2.818   6.967  11.107  0.6180  0.4394  1.0523
  581MOL0     C78342   2.833   6.888  10.975  0.1107  0.2896  0.6288
  581MOL0     C78343   2.913   6.967  10.877  0.3045 -0.1424 -0.4903
  581MOL0    Cl78344   3.084   6.970  10.913 -0.4052 -0.0057  0.0906
  581MOL0     C78345   2.234   7.585  11.361  0.1221  0.2286  0.1595
  581MOL0     C78346   2.158   7.692  11.417  0.9170  0.0190 -1.1479
  581MOL0     O78347   1.958   7.906  11.432 -0.4013 -0.2262  0.1457
  581MOL0     C78348   1.818   8.068  11.601  0.4490  0.9237 -0.2024
  581MOL0     C78349   1.736   8.128  11.702 -0.3933  0.7082  0.2717
  581MOL0     N78350   1.702   8.921  11.790  0.7330 -0.2943  0.3125
  581MOL0     N78351   1.704   9.024  11.719  0.4708 -0.1858 -0.4889
  581MOL0     C78352   0.776   8.946  11.050 -0.2477  0.1371  0.7072
  581MOL0     C78353   0.682   8.862  10.987 -0.0509  0.9899  0.1043
  581MOL0     C78354   0.477   8.521  10.829  0.3037  0.3835 -0.4350
  581MOL0     C78355   0.380   8.590  10.761 -0.2461  0.0733  0.4098
  581MOL0     C78356   0.261   8.530  10.721 -0.3179 -0.3118 -0.0647
  581MOL0     C78357   0.237   8.395  10.739  0.4269 -0.2848  0.1383
  581MOL0     O78358   0.114   8.333  10.691 -0.3858 -0.3037 -0.3625
  581MOL0     C78359   0.017   8.314  10.789  0.5060 -0.8295 -0.6653
  581MOL0     C78360  -0.107   8.239  10.740  0.5886  0.0207 -0.4915
  581MOL0     C78361  -0.067   8.088  10.715 -0.7814 -0.6034  1.0029
  581MOL0     C78362   0.014   8.060  10.575 -0.5821  0.6207  0.6773
  581MOL0     C78363  -0.086   8.032  10.471 -0.4746 -0.3653 -0.3256
  581MOL0     C78364  -0.187   8.033  10.406 -0.0745 -0.2175  0.1124
  581MOL0     C78365   0.344   8.315  10.781  0.1015  1.0595 -0.2763
  581MOL0     C78366   0.459   8.377  10.828 -0.1446 -0.5213 -0.3452
  581MOL0     C78367   0.566   8.291  10.889 -0.5814  1.0756 -0.2010
  581MOL0     H78368   0.859   8.777  10.723 -0.6749 -0.0309  0.1319
  581MOL0     H78369   1.021   8.925  10.837  2.2725 -3.2403  3.6341
  581MOL0     H78370   1.085   9.118  10.876 -0.6092 -0.6244  0.6667
  581MOL0     H78371   1.088   9.241  10.999 -0.1675  0.4202 -3.5726
  581MOL0     H78372   1.308   9.083  10.936  0.0966  0.8973  0.3631
  581MOL0     H78373   1.216   8.959  11.014 -2.2918 -0.0024  0.7658
  581MOL0     H78374   1.385   9.018  11.163  0.1033 -1.8542 -0.6308
  581MOL0     H78375   1.236   9.093  11.230 -1.8611 -0.9207 -2.0258
  581MOL0     H78376   1.453   9.212  11.065  1.3709 -2.9405  2.2519
  581MOL0     H78377   1.293   9.292  11.096 -3.3124 -3.9883 -1.1598
  581MOL0     H78378   1.448   9.396  11.250 -0.2695 -0.4542 -0.9315
  581MOL0     H78379   1.376   9.277  11.361 -0.7785 -3.9287 -0.1025
  581MOL0     H78380   1.623   9.199  11.224  1.5031  0.9646  0.7687
  581MOL0     H78381   1.619   9.304  11.374  0.0644 -0.0649 -0.2451
  581MOL0     H78382   1.511   9.012  11.369  1.5927 -0.3946 -0.2502
  581MOL0     H78383   1.505   9.133  11.492 -0.0121 -1.7989  1.6495
  581MOL0     H78384   1.775   9.037  11.390  3.0253  1.8322  1.0716
  581MOL0     H78385   1.751   9.175  11.501 -1.4424  0.9066 -3.0118
  581MOL0     H78386   1.711   8.787  11.491 -3.0351  2.2536 -2.2416
  581MOL0     H78387   1.613   8.611  11.659 -0.8632 -4.8453  2.7569
  581MOL0     H78388   1.789   8.607  11.689 -1.4899 -1.2059 -0.5475
  581MOL0     H78389   1.737   8.648  11.933  0.4547  2.0086 -0.8278
  581MOL0     H78390   1.572   8.676  11.900  0.8631  0.5864 -0.9856
  581MOL0     H78391   1.565   8.437  11.800  0.9837  1.9612 -0.3008
  581MOL0     H78392   1.557   8.468  11.976 -0.0690  3.2704  0.3970
  581MOL0     H78393   1.787   8.389  12.012  0.5254  4.8184 -1.1510
  581MOL0     H78394   1.834   8.376  11.840 -0.9522 -2.6943 -2.0073
  581MOL0     H78395   1.963   8.132  11.955  0.4885 -0.4337 -0.6643
  581MOL0     H78396   2.088   8.008  11.809  1.1678 -0.3896 -2.3225
  581MOL0     H78397   2.353   7.801  11.664 -1.0201 -1.7853  1.0529
  581MOL0     H78398   2.502   7.631  11.550  0.3669  2.4143 -1.6571
  581MOL0     H78399   2.351   7.351  11.211  0.2766 -1.9017  3.6127
  581MOL0     H78400   2.440   7.507  11.160  1.7866  0.4971  0.5902
  581MOL0     H78401   2.558   7.292  11.090  0.0841 -1.7826  1.4892
  581MOL0     H78402   2.652   7.383  11.199 -0.4502  0.2425  1.4691
  581MOL0     H78403   2.529   7.219  11.379  1.2395  0.9112 -0.7661
  581MOL0     H78404   2.467   7.123  11.239 -0.2346 -0.7185  1.0275
  581MOL0     H78405   2.661   7.023  11.342 -3.6109  1.1569  0.6922
  581MOL0     H78406   2.761   7.167  11.307 -0.7729  0.9952  1.9193
  581MOL0     H78407   2.692   7.129  11.046 -2.7838 -0.3476 -1.5236
  581MOL0     H78408   2.604   6.987  11.104 -2.1104  2.0977  0.2827
  581MOL0     H78409   2.909   7.025  11.126  1.0209 -0.0536  0.6536
  581MOL0     H78410   2.816   6.894  11.188 -0.5690  1.5736  2.0921
  581MOL0     H78411   2.737   6.874  10.925  1.0478 -0.3207 -1.0736
  581MOL0     H78412   2.886   6.793  10.989  8.1760  3.7125 -0.6328
  581MOL0     H78413   2.904   6.928  10.775  0.8495 -0.6097 -0.3711
  581MOL0     H78414   2.878   7.069  10.887 -0.4945 -0.5142  0.6570
  581MOL0     H78415   2.187   7.510  11.299  0.1842 -1.2841  1.8612
  581MOL0     H78416   2.055   7.690  11.382  1.0138 -3.5185 -1.6191
  581MOL0     H78417   1.779   8.061  11.500  1.6617 -0.0788 -0.6285
  581MOL0     H78418   1.633   8.150  11.677 -0.5220 -0.4843 -0.3122
  581MOL0     H78419   0.743   8.987  11.145 -0.8611  2.1003 -0.2834
  581MOL0     H78420   0.587   8.846  11.036  1.1027 -0.7107  1.8831
  581MOL0     H78421   0.397   8.696  10.743  0.1338  0.0027  0.3369
  581MOL0     H78422   0.185   8.579  10.661 -2.3040 -3.1983 -0.1459
  581MOL0     H78423  -0.018   8.412  10.824  1.2898 -0.8419  0.1989
  581MOL0     H78424   0.071   8.267  10.871  1.0009 -1.0508 -1.1150
  581MOL0     H78425  -0.146   8.279  10.645 -0.9520 -0.4394 -0.0802
  581MOL0     H78426  -0.186   8.244  10.815  1.2670  1.3997  0.1584
  581MOL0     H78427  -0.164   8.040  10.727 -2.0363  0.3388 -3.4822
  581MOL0     H78428   0.007   8.065  10.793 -1.4489 -1.3883  1.4192
  581MOL0     H78429   0.076   8.146  10.549 -0.8339  0.4196 -0.6738
  581MOL0     H78430   0.079   7.972  10.576 -0.6444  0.4954 -1.3940
  581MOL0     H78431  -0.280   8.018  10.355 -1.6393  0.6653  2.5077
  581MOL0     H78432   0.323   8.209  10.789 -0.1217  1.1253  0.0019
  581MOL0     H78433   0.541   8.185  10.881 -2.5646  1.5315 -0.3699
  581MOL0     H78434   0.667   8.311  10.851  0.9915 -0.3256  2.8644
  581MOL0     H78435   0.588   8.309  10.995  2.0564  1.1060 -0.6845
  582MOL0     O78436   3.659   5.570   1.282 -0.2267 -0.1071  0.8434
  582MOL0     C78437   3.769   5.613   1.305  0.0590  0.1656  0.3672
  582MOL0     O78438   3.861   5.537   1.370 -0.6730  0.0440  0.4609
  582MOL0     C78439   3.849   5.397   1.375 -0.5398 -1.2536  0.4820
  582MOL0     C78440   3.935   5.330   1.299 -0.7947  0.0403 -0.5293
  582MOL0     C78441   3.927   5.190   1.294 -1.2313 -1.3210  0.4864
  582MOL0     C78442   3.820   5.124   1.357  0.0540  0.3366 -0.2033
  582MOL0     O78443   3.800   4.996   1.338 -0.4117 -0.3925 -0.0009
  582MOL0     C78444   3.871   4.909   1.422  1.3961  0.1272 -0.1879
  582MOL0     C78445   3.796   4.877   1.547 -0.0872  0.7716 -0.5365
  582MOL0     C78446   3.665   4.806   1.513  0.5825 -0.2926 -0.1702
  582MOL0     C78447   3.601   4.764   1.646 -0.9177  0.0367 -0.4622
  582MOL0     C78448   3.466   4.693   1.626 -0.0112 -1.0643 -0.2289
  582MOL0     C78449   3.467   4.559   1.551 -0.2310  0.0886 -0.3307
  582MOL0     C78450   3.338   4.475   1.567  0.1922  0.7599 -0.0916
  582MOL0     C78451   3.314   4.411   1.704 -0.4634  0.8078  0.7144
  582MOL0     N78452   3.178   4.343   1.713 -0.5349 -0.3625 -0.0397
  582MOL0     C78453   3.120   4.245   1.632 -0.4672  0.5045  0.4706
  582MOL0     C78454   3.000   4.224   1.678 -0.4075  0.4682  0.6292
  582MOL0     C78455   2.920   4.106   1.625 -0.5931  0.1257  0.5816
  582MOL0     C78456   2.881   4.011   1.739  0.2415 -0.8980  0.4363
  582MOL0     C78457   3.013   3.953   1.788 -0.1897  0.4134 -0.3271
  582MOL0     C78458   2.983   3.854   1.908  0.4619 -0.2309  0.4806
  582MOL0     O78459   2.921   3.726   1.866 -0.3478 -0.4774 -0.2053
  582MOL0     C78460   2.958   3.624   1.945  0.3369  0.1190  0.0814
  582MOL0     C78461   3.069   3.554   1.904 -0.7884  0.3061 -0.5383
  582MOL0     C78462   3.100   3.428   1.957  0.6577  0.1078 -0.3387
  582MOL0     C78463   3.019   3.378   2.068  0.4412 -0.3651  0.2874
  582MOL0     C78464   3.036   3.249   2.122 -0.0644  0.1934  0.0736
  582MOL0     O78465   2.927   3.202   2.180  0.3553  0.7455  0.3415
  582MOL0     C78466   2.934   3.116   2.284 -0.4910  0.0874  0.0047
  582MOL0     C78467   2.830   3.136   2.383 -1.0606  0.2564 -0.9185
  582MOL0     C78468   2.836   3.068   2.505  0.0032 -0.7330  0.8515
  582MOL0     C78469   2.947   2.986   2.532  0.4996 -0.1830 -0.1062
  582MOL0     O78470   2.947   2.928   2.658 -0.1204 -0.6832  0.8265
  582MOL0     C78471   3.018   3.003   2.743  0.1792 -1.5907  0.0896
  582MOL0     C78472   2.957   3.139   2.792 -0.1511  0.0178 -0.3492
  582MOL0     C78473   3.057   3.229   2.867 -0.0280  0.2484  0.1676
  582MOL0     C78474   3.006   3.375   2.901  0.4368  0.2878  0.6099
  582MOL0     C78475   3.116   3.471   2.907 -0.2676  0.3295 -1.0221
  582MOL0     C78476   3.186   3.479   3.050 -0.4870  0.8746 -0.1751
  582MOL0     C78477   3.288   3.596   3.055 -0.0637 -0.0880 -0.7199
  582MOL0     C78478   3.429   3.568   2.992  0.0245  0.1544 -0.4026
  582MOL0    Cl78479   3.490   3.420   3.073  0.1952  0.1111 -0.2848
  582MOL0     C78480   3.044   2.958   2.440 -1.0166 -0.1913  0.8945
  582MOL0     C78481   3.042   3.023   2.311  0.0092 -0.6309 -0.1820
  582MOL0     O78482   3.141   3.187   2.105  0.5595  0.1762 -0.3888
  582MOL0     C78483   2.916   3.461   2.121 -0.4224  0.7973 -0.5013
  582MOL0     C78484   2.889   3.585   2.059  0.1140 -1.0094  0.9888
  582MOL0     N78485   2.978   4.317   1.773  0.1457  0.2960 -0.7665
  582MOL0     N78486   3.076   4.392   1.787 -0.1100 -0.1795  0.5902
  582MOL0     C78487   3.732   5.195   1.432  0.7021  1.1123 -0.1473
  582MOL0     C78488   3.745   5.334   1.438 -0.3076  0.1007 -0.0327
  582MOL0     C78489   3.798   5.760   1.290  0.3731 -0.6701  0.1091
  582MOL0     C78490   3.927   5.808   1.324  0.2842 -0.5720 -0.5131
  582MOL0     C78491   3.955   5.941   1.316  0.0520 -0.3570 -0.6997
  582MOL0     C78492   3.866   6.034   1.262 -0.0531  0.0137 -0.5500
  582MOL0     O78493   3.888   6.167   1.251  0.0675 -0.0473 -0.3504
  582MOL0     C78494   4.010   6.220   1.307 -0.4613 -0.3791  0.0022
  582MOL0     C78495   4.117   6.224   1.209 -0.1906  0.4875 -0.8062
  582MOL0     C78496   4.241   6.304   1.259 -0.1767 -0.1566 -0.3586
  582MOL0     C78497   4.371   6.237   1.250  0.4055  0.6526 -0.1344
  582MOL0     C78498   4.388   6.165   1.376  1.2591 -0.1369  0.2298
  582MOL0     C78499   4.409   6.098   1.476 -0.1807  0.3137  0.0840
  582MOL0     C78500   3.743   5.989   1.218  1.0997 -0.2243 -0.7786
  582MOL0     C78501   3.710   5.853   1.232  0.6556 -0.3694  0.2115
  582MOL0     C78502   3.563   5.822   1.178  0.2835 -0.1407 -0.4442
  582MOL0     H78503   4.011   5.385   1.244 -1.4125  1.0569 -0.3959
  582MOL0     H78504   4.006   5.143   1.237  0.6591  2.9058 -0.7960
  582MOL0     H78505   3.885   4.816   1.366 -0.5818 -1.0251  1.1182
  582MOL0     H78506   3.972   4.949   1.439  1.6894  0.4470 -2.3545
  582MOL0     H78507   3.766   4.972   1.594  0.4501 -0.2690  2.0804
  582MOL0     H78508   3.858   4.837   1.627 -2.9118  2.3341  2.7367
  582MOL0     H78509   3.687   4.716   1.455 -1.0081  0.3100 -1.7921
  582MOL0     H78510   3.602   4.872   1.454  2.1375  1.6584  0.2345
  582MOL0     H78511   3.658   4.705   1.718  2.6203  1.9863 -1.4021
  582MOL0     H78512   3.594   4.858   1.703  0.0103 -0.5345  0.6307
  582MOL0     H78513   3.429   4.671   1.727  1.8274  1.1950  1.0743
  582MOL0     H78514   3.394   4.763   1.583 -2.1177 -2.0370  1.5706
  582MOL0     H78515   3.480   4.573   1.443  2.2012  0.7976  0.0088
  582MOL0     H78516   3.558   4.505   1.578  0.1016  0.7630 -0.0639
  582MOL0     H78517   3.343   4.391   1.496  1.2820 -0.2322  1.0878
  582MOL0     H78518   3.252   4.537   1.544  0.6451  2.0310  1.4907
  582MOL0     H78519   3.389   4.335   1.728 -0.3376  1.0528  1.1132
  582MOL0     H78520   3.329   4.483   1.785  2.9703 -2.9356  3.8389
  582MOL0     H78521   3.164   4.182   1.555  1.5210  4.1607 -1.6473
  582MOL0     H78522   2.826   4.137   1.576 -2.1038 -0.2318  3.0719
  582MOL0     H78523   2.976   4.040   1.558 -0.1788 -0.0008  1.0534
  582MOL0     H78524   2.833   4.065   1.821  0.6328 -4.1038  2.9808
  582MOL0     H78525   2.813   3.937   1.696  0.8450  0.1632 -2.6189
  582MOL0     H78526   3.079   4.025   1.838  0.6216  1.1970 -2.4131
  582MOL0     H78527   3.079   3.910   1.713  0.8636 -1.4646  1.5672
  582MOL0     H78528   2.903   3.897   1.970 -1.7558 -1.0702 -1.6367
  582MOL0     H78529   3.067   3.838   1.976  0.2800 -0.1940  0.7153
  582MOL0     H78530   3.126   3.587   1.818  1.1646 -0.5381  0.3654
  582MOL0     H78531   3.187   3.379   1.914 -2.5852 -4.6359 -2.4082
  582MOL0     H78532   2.742   3.191   2.350 -0.2379  2.9681  1.0383
  582MOL0     H78533   2.755   3.074   2.576  0.7442 -1.2243  1.7541
  582MOL0     H78534   3.040   2.941   2.831 -1.0504 -3.8905 -1.1390
  582MOL0     H78535   3.118   3.015   2.700  0.5277 -1.4724  0.9133
  582MOL0     H78536   2.917   3.189   2.703 -4.1445 -1.7230  0.2578
  582MOL0     H78537   2.867   3.118   2.851 -0.1911 -1.7112 -0.9882
  582MOL0     H78538   3.097   3.183   2.958  2.0976  0.7727 -0.4328
  582MOL0     H78539   3.147   3.233   2.805  0.6117 -2.8177  0.7308
  582MOL0     H78540   2.933   3.390   2.981 -1.0003  1.2721 -0.8188
  582MOL0     H78541   2.951   3.406   2.812  0.7402  2.3985  1.0993
  582MOL0     H78542   3.068   3.568   2.892 -1.9621 -0.1908  0.6863
  582MOL0     H78543   3.198   3.438   2.843  1.2475 -0.8292  1.3774
  582MOL0     H78544   3.104   3.489   3.122 -1.9832 -0.0358 -1.6792
  582MOL0     H78545   3.234   3.382   3.067 -1.9702  0.3951  1.6386
  582MOL0     H78546   3.294   3.620   3.161 -2.2748 -0.8232 -0.3865
  582MOL0     H78547   3.255   3.686   3.003 -0.2580  1.9413  2.6734
  582MOL0     H78548   3.417   3.566   2.884 -3.9893  0.9808 -0.1515
  582MOL0     H78549   3.503   3.644   3.018 -0.7402  0.7030  0.2443
  582MOL0     H78550   3.122   2.887   2.465  0.7494  1.2301 -0.3310
  582MOL0     H78551   3.130   3.001   2.250  1.8773 -1.9911  2.7535
  582MOL0     H78552   2.872   3.441   2.218  0.8819  2.8731  0.6099
  582MOL0     H78553   2.806   3.646   2.093  0.8539  2.4465 -2.6975
  582MOL0     H78554   3.644   5.148   1.476 -1.1631  3.8433 -0.7153
  582MOL0     H78555   3.674   5.405   1.481  0.0320  2.9999 -3.6891
  582MOL0     H78556   4.007   5.736   1.338  1.1937 -0.6040 -4.5182
  582MOL0     H78557   4.053   5.966   1.354 -0.9982 -0.5621  2.3930
  582MOL0     H78558   4.035   6.167   1.399 -1.3458 -1.8324 -0.5598
  582MOL0     H78559   3.993   6.326   1.330  2.3556  0.7141 -2.3013
  582MOL0     H78560   4.081   6.267   1.115  3.3260 -0.7276 -2.9241
  582MOL0     H78561   4.149   6.124   1.176  0.6463 -0.6397  2.9685
  582MOL0     H78562   4.221   6.350   1.357 -2.1988  0.8097 -1.1559
  582MOL0     H78563   4.241   6.393   1.196 -0.0444 -0.6980 -1.1335
  582MOL0     H78564   4.377   6.169   1.165  0.2721 -0.2224  0.5324
  582MOL0     H78565   4.449   6.311   1.231  1.2206 -0.2067 -0.2282
  582MOL0     H78566   4.444   6.045   1.563  1.5595  2.0770  0.5385
  582MOL0     H78567   3.673   6.066   1.188  2.7400  0.9134 -1.8287
  582MOL0     H78568   3.564   5.746   1.099  0.4621 -1.1703  0.5200
  582MOL0     H78569   3.501   5.806   1.267  0.3728  4.4208  0.6529
  582MOL0     H78570   3.518   5.916   1.143 -2.3264 -1.5161 -1.0846
  583MOL0     O78571   7.482   6.049   4.329 -0.2248  0.1593  0.0404
  583MOL0     C78572   7.544   6.154   4.335  0.1311 -0.0657 -0.7415
  583MOL0     O78573   7.490   6.286   4.358 -0.2132 -0.2987  0.3045
  583MOL0     C78574   7.353   6.281   4.382 -0.3580  0.8525 -0.7338
  583MOL0     C78575   7.269   6.247   4.272  0.2449 -0.6100 -0.5680
  583MOL0     C78576   7.137   6.231   4.302 -0.3848 -0.3242  0.4372
  583MOL0     C78577   7.082   6.274   4.431 -0.0451  0.3487 -0.0185
  583MOL0     O78578   6.943   6.271   4.439 -0.3564 -0.2046 -0.8142
  583MOL0     C78579   6.878   6.292   4.572 -0.4983 -0.0430 -0.1521
  583MOL0     C78580   6.729   6.256   4.547  0.0863  0.4080 -0.4977
  583MOL0     C78581   6.709   6.106   4.562 -0.1169 -0.5784  0.1808
  583MOL0     C78582   6.654   6.039   4.431 -1.0115  0.0691  0.3688
  583MOL0     C78583   6.561   5.930   4.454  1.1791  0.5658 -0.0597
  583MOL0     C78584   6.523   5.870   4.323  1.0312 -0.3695  0.0361
  583MOL0     C78585   6.470   5.725   4.339 -1.1102 -0.9039  0.4586
  583MOL0     C78586   6.393   5.660   4.211 -0.0137 -0.5130 -0.1264
  583MOL0     N78587   6.261   5.727   4.205  0.4797  0.4711  0.2665
  583MOL0     C78588   6.200   5.763   4.091  0.0913 -0.0581 -0.6012
  583MOL0     C78589   6.093   5.824   4.145 -0.2438 -0.3626  0.1234
  583MOL0     C78590   5.993   5.911   4.073  0.2593 -0.4697  0.4886
  583MOL0     C78591   5.867   5.836   4.039  0.3252  1.0553  1.0113
  583MOL0     C78592   5.902   5.700   3.969 -0.7277 -0.9982  0.1688
  583MOL0     C78593   5.790   5.628   3.906  0.4409 -1.4709 -0.0932
  583MOL0     O78594   5.813   5.493   3.856  0.4400  0.9639  0.1309
  583MOL0     C78595   5.702   5.410   3.831  0.4546 -1.2330 -0.2120
  583MOL0     C78596   5.565   5.446   3.839 -0.3069  0.0020 -0.7518
  583MOL0     C78597   5.471   5.346   3.802  0.4698 -0.4611 -0.5511
  583MOL0     C78598   5.502   5.214   3.780  0.0738 -0.7943  0.3829
  583MOL0     C78599   5.395   5.120   3.741 -0.9610 -0.1888  0.0964
  583MOL0     O78600   5.257   5.153   3.771 -0.0528 -0.1308  0.1773
  583MOL0     C78601   5.167   5.085   3.700 -0.9854  0.7831  0.1136
  583MOL0     C78602   5.073   5.003   3.768  0.0329  0.3192 -0.5246
  583MOL0     C78603   4.981   4.932   3.695  0.1716 -0.0724 -0.4443
  583MOL0     C78604   4.968   4.934   3.553 -0.2049  0.7984  0.1722
  583MOL0     O78605   4.871   4.855   3.483 -0.5542  0.4321 -0.1167
  583MOL0     C78606   4.868   4.850   3.339  0.1099 -1.4165 -0.5366
  583MOL0     C78607   4.713   4.816   3.307  0.4688  0.3100  0.3610
  583MOL0     C78608   4.696   4.740   3.175 -0.3213 -0.4262 -0.3319
  583MOL0     C78609   4.754   4.833   3.067 -0.4722  0.7302  0.9131
  583MOL0     C78610   4.712   4.768   2.928  0.3423 -0.1265 -0.2485
  583MOL0     C78611   4.781   4.634   2.897 -0.5131 -1.3828 -0.6030
  583MOL0     C78612   4.708   4.539   2.816  0.5330  1.0129  0.1591
  583MOL0     C78613   4.751   4.393   2.806 -0.3884 -0.7300 -0.3031
  583MOL0    Cl78614   4.924   4.375   2.749 -0.2628 -0.0739 -0.0047
  583MOL0     C78615   5.058   5.020   3.486 -0.0417  0.5988  0.0195
  583MOL0     C78616   5.153   5.098   3.560 -0.2306 -0.0013 -1.0905
  583MOL0     O78617   5.433   5.023   3.678  1.2052 -0.0804 -0.0786
  583MOL0     C78618   5.640   5.181   3.777 -0.0581  0.3505  0.0994
  583MOL0     C78619   5.734   5.278   3.792 -0.5536 -0.3556  0.5406
  583MOL0     N78620   6.091   5.816   4.282  0.8132 -0.2551  0.1839
  583MOL0     N78621   6.187   5.742   4.320 -0.0516  0.3872 -0.6610
  583MOL0     C78622   7.159   6.335   4.527 -0.3899 -0.1734 -1.5502
  583MOL0     C78623   7.298   6.340   4.496  0.3803 -1.7312 -0.6178
  583MOL0     C78624   7.688   6.151   4.330  0.2903 -0.0582  1.6252
  583MOL0     C78625   7.747   6.029   4.361  0.1383  0.4233  0.8455
  583MOL0     C78626   7.887   6.005   4.350 -0.2495  0.1601 -0.2700
  583MOL0     C78627   7.967   6.111   4.322 -0.9270 -0.1866 -0.4645
  583MOL0     O78628   8.106   6.101   4.337 -0.5427 -0.6513 -0.2639
  583MOL0     C78629   8.142   6.070   4.474 -0.4150  0.9187 -0.0570
  583MOL0     C78630   8.149   6.168   4.591  0.1830 -0.0882 -1.0553
  583MOL0     C78631   8.245   6.281   4.554 -0.3663 -1.0751 -0.0890
  583MOL0     C78632   8.289   6.375   4.666  0.9243  1.1931 -0.4629
  583MOL0     C78633   8.182   6.405   4.751  0.1738 -0.5292 -0.0140
  583MOL0     C78634   8.090   6.434   4.827  0.4667 -0.1968 -1.0948
  583MOL0     C78635   7.915   6.237   4.303 -0.0612 -0.1544  0.4874
  583MOL0     C78636   7.774   6.254   4.295  0.0176 -0.2006  0.2249
  583MOL0     C78637   7.725   6.387   4.251  0.7337  0.8235 -0.1723
  583MOL0     H78638   7.308   6.226   4.174 -0.9518 -1.8194 -0.8173
  583MOL0     H78639   7.072   6.191   4.225 -1.2247  1.7132  0.0227
  583MOL0     H78640   6.923   6.235   4.654 -3.5750 -2.3804  0.1241
  583MOL0     H78641   6.884   6.397   4.603 -0.8936  1.6258 -4.9990
  583MOL0     H78642   6.688   6.304   4.457 -4.1751  2.2812  2.0987
  583MOL0     H78643   6.675   6.302   4.631  1.1608 -1.4532  1.2931
  583MOL0     H78644   6.627   6.093   4.633  1.1813 -2.3580  1.4365
  583MOL0     H78645   6.797   6.052   4.598  0.4052  0.0322 -0.1601
  583MOL0     H78646   6.614   6.115   4.363  1.2907  2.5050  1.5535
  583MOL0     H78647   6.753   6.015   4.391 -0.2033  1.1770  1.6188
  583MOL0     H78648   6.593   5.859   4.531  1.6417  2.0266  1.1486
  583MOL0     H78649   6.472   5.984   4.487 -0.7566  1.3876 -5.6231
  583MOL0     H78650   6.455   5.936   4.269  0.8467 -0.4157  0.2109
  583MOL0     H78651   6.616   5.858   4.267  1.0493 -2.6773  0.4652
  583MOL0     H78652   6.406   5.726   4.427  1.0372  1.9514  2.1639
  583MOL0     H78653   6.557   5.666   4.370 -0.4430  0.1376  0.6062
  583MOL0     H78654   6.446   5.673   4.116 -0.6892 -1.5490 -0.6709
  583MOL0     H78655   6.374   5.554   4.231  2.1145 -1.0546 -0.7166
  583MOL0     H78656   6.229   5.752   3.987  1.0185 -0.9240 -0.2727
  583MOL0     H78657   5.975   5.995   4.141  0.0172 -1.2499  1.4107
  583MOL0     H78658   6.023   5.947   3.974 -0.5680  2.2459  1.1280
  583MOL0     H78659   5.793   5.833   4.119 -0.6018 -2.9012  0.2093
  583MOL0     H78660   5.819   5.896   3.962  0.2681  4.0752  3.2008
  583MOL0     H78661   5.942   5.635   4.048  0.6255 -0.6831 -0.2157
  583MOL0     H78662   5.977   5.723   3.892 -0.0416  0.5798  1.2497
  583MOL0     H78663   5.741   5.684   3.826  1.1054 -1.3203 -0.4002
  583MOL0     H78664   5.711   5.627   3.982  0.0032  0.5847 -0.4501
  583MOL0     H78665   5.530   5.547   3.860 -0.8938 -0.4164  0.3833
  583MOL0     H78666   5.374   5.393   3.795  0.7015 -0.1592 -2.0163
  583MOL0     H78667   5.077   4.997   3.876  2.9087  0.8895 -0.5163
  583MOL0     H78668   4.909   4.883   3.760  3.3714 -2.6817  1.4290
  583MOL0     H78669   4.894   4.947   3.297  2.7310 -2.0795 -0.6036
  583MOL0     H78670   4.931   4.767   3.305  1.5671 -2.1283  3.3911
  583MOL0     H78671   4.682   4.756   3.393  2.6521  0.1992  1.1184
  583MOL0     H78672   4.653   4.908   3.305 -1.6354 -1.0053 -0.8778
  583MOL0     H78673   4.746   4.643   3.188  0.8354  0.1059 -0.6328
  583MOL0     H78674   4.590   4.714   3.165 -0.6993  0.5354  0.9187
  583MOL0     H78675   4.862   4.838   3.082 -0.4947  2.1281  0.6726
  583MOL0     H78676   4.705   4.930   3.069 -0.5227  0.8168 -1.8525
  583MOL0     H78677   4.731   4.839   2.846  1.8770  0.7047  0.7719
  583MOL0     H78678   4.603   4.767   2.938  0.0633 -1.8082 -2.7144
  583MOL0     H78679   4.869   4.663   2.838 -0.2383  0.1438  0.5164
  583MOL0     H78680   4.813   4.582   2.987 -0.4993 -2.4160 -1.1801
  583MOL0     H78681   4.715   4.584   2.716 -3.8102  2.0952  0.1282
  583MOL0     H78682   4.603   4.539   2.846 -0.2524 -0.5505 -2.2922
  583MOL0     H78683   4.733   4.347   2.903  1.0724 -0.3994  0.1446
  583MOL0     H78684   4.691   4.340   2.731 -1.4828  1.6743 -1.2576
  583MOL0     H78685   5.064   5.028   3.378 -0.9638 -1.1888 -0.1985
  583MOL0     H78686   5.221   5.163   3.507  0.0477  2.3938  1.9249
  583MOL0     H78687   5.677   5.083   3.748  2.8332  1.1788  0.7020
  583MOL0     H78688   5.836   5.242   3.791  0.1166  1.3025 -1.8648
  583MOL0     H78689   7.127   6.381   4.620  0.1951 -0.2266 -1.3217
  583MOL0     H78690   7.365   6.387   4.567 -0.8345 -1.4448  0.3524
  583MOL0     H78691   7.688   5.940   4.383  0.2422 -0.3356 -1.6341
  583MOL0     H78692   7.926   5.907   4.376 -1.2632 -1.4122 -3.9146
  583MOL0     H78693   8.243   6.028   4.461 -0.9933  0.2719 -3.6752
  583MOL0     H78694   8.088   5.982   4.510  1.2070 -0.7500 -1.4877
  583MOL0     H78695   8.184   6.120   4.683  1.7528  0.0363 -1.5588
  583MOL0     H78696   8.047   6.204   4.605  0.4327  0.3097 -0.1976
  583MOL0     H78697   8.200   6.335   4.471  0.4185 -1.7972 -1.0155
  583MOL0     H78698   8.337   6.230   4.521  1.1198  1.3080  0.1396
  583MOL0     H78699   8.354   6.326   4.739 -0.2695 -1.5732 -1.1095
  583MOL0     H78700   8.331   6.469   4.631  0.9028  1.3438 -0.0958
  583MOL0     H78701   8.008   6.449   4.894  0.9954  0.4088 -0.5629
  583MOL0     H78702   7.987   6.318   4.298  4.5082 -3.8293 -1.3572
  583MOL0     H78703   7.702   6.457   4.331  4.1550  0.1021  1.6079
  583MOL0     H78704   7.804   6.442   4.199 -0.1477 -0.0659 -2.6325
  583MOL0     H78705   7.644   6.380   4.177  0.5906  1.5200 -0.0801
  584MOL0     O78706   9.271   3.646   3.216  0.1347  0.0337  0.6131
  584MOL0     C78707   9.208   3.616   3.316 -0.3795  0.2078  0.6282
  584MOL0     O78708   9.251   3.514   3.401 -0.3946 -0.7072  0.2963
  584MOL0     C78709   9.366   3.458   3.371 -0.6365  0.3630  0.4326
  584MOL0     C78710   9.493   3.518   3.383  1.4680 -0.2229  0.2115
  584MOL0     C78711   9.611   3.444   3.392 -0.0996 -0.3393  0.4010
  584MOL0     C78712   9.612   3.304   3.390  0.6130  0.6231  0.3990
  584MOL0     O78713   9.730   3.229   3.398  0.8640 -0.6093  1.0808
  584MOL0     C78714   9.822   3.268   3.496 -0.0570  0.8563  0.1789
  584MOL0     C78715   9.883   3.139   3.554 -0.4153  0.3486  0.4074
  584MOL0     C78716   9.982   3.181   3.663  0.7292 -0.6340  0.4068
  584MOL0     C78717  10.010   3.057   3.758 -0.2222  0.6149  0.7333
  584MOL0     C78718  10.084   3.091   3.878  0.4696 -0.7634 -0.6485
  584MOL0     C78719  10.119   2.959   3.954  0.2914 -0.0718 -1.3018
  584MOL0     C78720  10.197   2.996   4.083 -0.5497 -0.1544  0.7609
  584MOL0     C78721  10.333   3.073   4.060 -0.1415  0.0134 -0.4102
  584MOL0     N78722  10.413   3.060   4.181 -0.0645  0.6588 -0.8618
  584MOL0     C78723  10.521   2.967   4.182 -0.0963  0.0933  0.2454
  584MOL0     C78724  10.553   2.951   4.310  1.5255 -0.6787  0.2514
  584MOL0     C78725  10.655   2.862   4.361  0.5077  0.5938 -0.0009
  584MOL0     C78726  10.794   2.918   4.393  0.0306  1.2113  0.1910
  584MOL0     C78727  10.876   2.930   4.260  0.1685 -0.3889  0.0254
  584MOL0     C78728  11.021   2.975   4.270  0.1182  0.5076 -1.1694
  584MOL0     O78729  11.104   2.878   4.337 -0.0468  0.4106 -0.2274
  584MOL0     C78730  11.187   2.906   4.436 -0.3124 -0.6096 -0.2585
  584MOL0     C78731  11.257   3.035   4.433  1.0491  0.5898  0.3311
  584MOL0     C78732  11.351   3.061   4.528  0.2874  0.8466  0.1883
  584MOL0     C78733  11.373   2.968   4.631  0.3282 -0.1935 -0.6182
  584MOL0     C78734  11.481   2.978   4.726  0.7414  0.1780 -0.0424
  584MOL0     O78735  11.546   3.091   4.741 -0.1698 -1.0995  0.3608
  584MOL0     C78736  11.613   3.124   4.858 -0.1544  0.2394  0.2049
  584MOL0     C78737  11.582   3.253   4.921  0.2203  0.1425  0.7643
  584MOL0     C78738  11.651   3.291   5.036  0.1415 -0.2289  0.8247
  584MOL0     C78739  11.753   3.213   5.093  0.2630 -0.1188  0.0521
  584MOL0     O78740  11.824   3.232   5.206 -0.5827  0.0107 -0.3934
  584MOL0     C78741  11.849   3.366   5.246  0.9082 -0.7402 -0.2444
  584MOL0     C78742  11.957   3.380   5.363  0.0596  0.3650  1.0576
  584MOL0     C78743  12.085   3.296   5.348  0.3826  0.1090 -0.4245
  584MOL0     C78744  12.187   3.331   5.454  0.5640 -0.2810 -0.4756
  584MOL0     C78745  12.313   3.232   5.454 -0.8043 -0.1953  0.7136
  584MOL0     C78746  12.427   3.288   5.368  1.3385  0.0763 -0.5151
  584MOL0     C78747  12.551   3.208   5.374  0.7256  0.0531 -0.4072
  584MOL0     C78748  12.651   3.214   5.260 -0.4244  0.1208  0.7216
  584MOL0    Cl78749  12.591   3.164   5.097 -0.0244 -0.3182  0.1663
  584MOL0     C78750  11.769   3.081   5.041 -0.0721  0.1757  0.0341
  584MOL0     C78751  11.704   3.031   4.922 -0.0924 -0.4649  0.4050
  584MOL0     O78752  11.506   2.878   4.783 -0.2869  0.5979  0.3197
  584MOL0     C78753  11.293   2.848   4.634  0.2795 -0.5270 -0.2730
  584MOL0     C78754  11.208   2.806   4.535  0.9620  0.4167 -0.6046
  584MOL0     N78755  10.465   3.031   4.386 -0.3523  0.2454 -0.6854
  584MOL0     N78756  10.386   3.095   4.313 -0.6735  0.8737 -0.7313
  584MOL0     C78757   9.482   3.240   3.372 -0.5147 -0.1354  0.1085
  584MOL0     C78758   9.365   3.317   3.354  0.7172 -0.3455 -0.0243
  584MOL0     C78759   9.080   3.682   3.350  0.0758 -0.0145 -0.0410
  584MOL0     C78760   9.051   3.801   3.273 -0.3596 -0.2362 -0.4080
  584MOL0     C78761   8.930   3.872   3.301  0.3829  0.2065 -0.2221
  584MOL0     C78762   8.834   3.815   3.384  0.2845 -0.0592  0.7838
  584MOL0     O78763   8.711   3.872   3.416 -0.2418 -0.3330 -0.1466
  584MOL0     C78764   8.672   3.998   3.344 -0.1902  0.0828  0.3063
  584MOL0     C78765   8.526   4.031   3.384  0.4381  0.1127 -0.4079
  584MOL0     C78766   8.428   3.905   3.377 -1.3353  0.0496 -0.4250
  584MOL0     C78767   8.308   3.923   3.478 -0.2974 -0.1673  0.9497
  584MOL0     C78768   8.221   4.036   3.446  0.1276 -0.5300 -0.2167
  584MOL0     C78769   8.138   4.114   3.410 -0.7207  0.3482 -0.0380
  584MOL0     C78770   8.865   3.704   3.456  0.1028  0.0170  0.1346
  584MOL0     C78771   8.989   3.633   3.446 -0.5616  0.1371 -0.7855
  584MOL0     C78772   9.002   3.509   3.531  0.0492  0.4310 -0.8398
  584MOL0     H78773   9.498   3.625   3.401  2.4181 -0.7652  3.9012
  584MOL0     H78774   9.705   3.498   3.384  0.0417 -0.8930 -2.4381
  584MOL0     H78775   9.904   3.327   3.453  0.4151 -0.1470 -0.3239
  584MOL0     H78776   9.767   3.321   3.574 -2.4717 -1.2824  0.0520
  584MOL0     H78777   9.932   3.094   3.467 -1.6251 -0.1104 -0.0647
  584MOL0     H78778   9.808   3.065   3.582 -0.5387 -0.5851 -2.0782
  584MOL0     H78779   9.931   3.258   3.722  2.3971  3.1609 -2.6139
  584MOL0     H78780  10.062   3.238   3.615 -2.9480  3.6956 -1.4674
  584MOL0     H78781   9.916   3.013   3.794 -1.1034  0.6102 -1.4366
  584MOL0     H78782  10.070   2.983   3.705  1.8484  1.3546  1.9410
  584MOL0     H78783  10.174   3.148   3.856  1.3791 -0.5108  3.0599
  584MOL0     H78784  10.024   3.157   3.940  1.3987  0.7171 -1.2821
  584MOL0     H78785  10.031   2.896   3.969  0.1839 -0.5607 -3.6901
  584MOL0     H78786  10.200   2.911   3.899  1.1158  1.0222 -1.0675
  584MOL0     H78787  10.225   2.897   4.120  1.5090  0.1232  0.1009
  584MOL0     H78788  10.136   3.049   4.157  2.1665  2.0616  1.5969
  584MOL0     H78789  10.379   3.034   3.968 -2.0131  0.2396 -1.5097
  584MOL0     H78790  10.308   3.177   4.035 -0.7169  0.0274  0.1904
  584MOL0     H78791  10.563   2.918   4.095 -0.3650 -0.9626  0.6987
  584MOL0     H78792  10.634   2.820   4.460  4.7670  2.0254  1.7081
  584MOL0     H78793  10.659   2.779   4.290 -0.2581 -0.4325  1.1118
  584MOL0     H78794  10.803   3.010   4.452 -0.7434 -0.5389  3.2116
  584MOL0     H78795  10.844   2.842   4.454  0.8108 -0.0760 -1.9343
  584MOL0     H78796  10.812   2.999   4.205 -0.5303 -0.5362  0.6422
  584MOL0     H78797  10.886   2.836   4.205  1.3705 -2.6172  3.7055
  584MOL0     H78798  11.031   3.062   4.335 -3.4918 -0.8955  1.5801
  584MOL0     H78799  11.064   3.006   4.174  1.2857  0.5095 -0.6596
  584MOL0     H78800  11.248   3.119   4.365  1.2215  2.0866  2.0979
  584MOL0     H78801  11.414   3.149   4.517  2.4384 -0.7536 -1.0576
  584MOL0     H78802  11.496   3.306   4.881  0.1389  0.3485  1.2115
  584MOL0     H78803  11.635   3.388   5.081  3.0307  1.0906 -0.6829
  584MOL0     H78804  11.897   3.422   5.166 -0.1960  3.7988  1.9569
  584MOL0     H78805  11.761   3.419   5.284  0.8180 -0.7006 -0.5072
  584MOL0     H78806  11.981   3.487   5.366 -0.7613  0.5468  1.3320
  584MOL0     H78807  11.911   3.343   5.455 -2.6664  0.7921 -0.0414
  584MOL0     H78808  12.066   3.188   5.342  1.2150 -0.2052  1.8287
  584MOL0     H78809  12.137   3.324   5.256  1.4561 -1.9061 -0.4802
  584MOL0     H78810  12.143   3.314   5.553 -0.2229 -2.1873 -1.1120
  584MOL0     H78811  12.229   3.430   5.433 -1.2937  0.7763  0.5112
  584MOL0     H78812  12.284   3.135   5.414 -2.0986  0.0722  0.9734
  584MOL0     H78813  12.363   3.229   5.552 -1.4396  0.3882  1.0635
  584MOL0     H78814  12.392   3.307   5.266 -0.2027  1.9426  0.2982
  584MOL0     H78815  12.451   3.386   5.409 -1.8685  1.3852 -1.4495
  584MOL0     H78816  12.536   3.101   5.395  0.1978  0.4681  1.5557
  584MOL0     H78817  12.596   3.239   5.469 -1.7966  0.2392  0.8019
  584MOL0     H78818  12.672   3.321   5.257  0.9885 -0.1101  1.2704
  584MOL0     H78819  12.748   3.166   5.280 -0.8038 -0.8416  0.3544
  584MOL0     H78820  11.853   3.026   5.083  0.8621  1.5473  0.0496
  584MOL0     H78821  11.721   2.929   4.889 -0.4212 -0.5832  0.5901
  584MOL0     H78822  11.314   2.769   4.705 -1.8608 -4.0815 -3.1971
  584MOL0     H78823  11.163   2.708   4.535 -0.5402  1.0259  1.6651
  584MOL0     H78824   9.472   3.132   3.376  0.0229 -0.2464 -1.0765
  584MOL0     H78825   9.268   3.268   3.354  0.4422  0.1645 -0.7517
  584MOL0     H78826   9.123   3.850   3.209  1.0038 -0.6289  0.7723
  584MOL0     H78827   8.905   3.958   3.239 -0.0104 -0.8779 -1.6226
  584MOL0     H78828   8.677   3.977   3.236  2.7797  2.3377 -0.1181
  584MOL0     H78829   8.750   4.073   3.357 -0.9110  0.8480  0.2769
  584MOL0     H78830   8.492   4.108   3.315  0.3789 -0.8953 -1.5346
  584MOL0     H78831   8.532   4.070   3.486  0.0295 -0.3385 -0.2093
  584MOL0     H78832   8.470   3.805   3.392  1.7283  0.8175 -2.9565
  584MOL0     H78833   8.389   3.894   3.276  0.4532 -1.9612 -0.9456
  584MOL0     H78834   8.246   3.833   3.474  0.8702 -0.9620 -0.7817
  584MOL0     H78835   8.357   3.934   3.575 -0.2532  1.1277  0.7976
  584MOL0     H78836   8.058   4.172   3.370  0.8658  0.8426 -2.7982
  584MOL0     H78837   8.790   3.652   3.515 -1.5150 -0.7730 -2.4726
  584MOL0     H78838   9.013   3.425   3.462  0.6623 -2.2604  2.2853
  584MOL0     H78839   9.086   3.521   3.601 -2.5208  0.7835  2.4033
  584MOL0     H78840   8.918   3.484   3.595  1.6616 -2.2873  0.3931
  585MOL0     O78841   1.834   9.841   7.903 -0.3270 -0.5070 -0.3357
  585MOL0     C78842   1.871   9.767   7.812 -0.0251 -0.0415 -0.1123
  585MOL0     O78843   1.807   9.650   7.773  0.7814 -0.1355  0.6402
  585MOL0     C78844   1.692   9.624   7.852 -0.3889  0.5622 -0.0718
  585MOL0     C78845   1.563   9.641   7.808 -0.1678  0.5316 -0.1228
  585MOL0     C78846   1.457   9.600   7.880  0.8525  0.4034 -0.0575
  585MOL0     C78847   1.472   9.524   7.994 -0.7344  0.0234 -0.5515
  585MOL0     O78848   1.373   9.481   8.085  0.4588 -0.4007 -0.3801
  585MOL0     C78849   1.233   9.499   8.044  0.1603 -1.1554  0.1092
  585MOL0     C78850   1.124   9.471   8.151 -0.3687 -0.3269  0.9026
  585MOL0     C78851   1.154   9.565   8.273  0.1519 -0.1812  0.0389
  585MOL0     C78852   1.038   9.588   8.363 -0.4739  0.1570 -0.6510
  585MOL0     C78853   1.072   9.676   8.483 -0.6638  0.4180  0.2754
  585MOL0     C78854   1.148   9.605   8.589  1.0677  0.0383 -0.5756
  585MOL0     C78855   1.192   9.706   8.700 -0.7395 -0.1643  0.0638
  585MOL0     C78856   1.242   9.625   8.822  0.3187 -0.5943 -0.5207
  585MOL0     N78857   1.299   9.718   8.914 -0.1265  0.8282  0.2628
  585MOL0     C78858   1.228   9.808   8.992 -0.8443  0.1259  0.3318
  585MOL0     C78859   1.318   9.887   9.055 -0.5267  0.0096  0.3548
  585MOL0     C78860   1.297  10.010   9.126  0.2820  0.3137 -0.8997
  585MOL0     C78861   1.378  10.006   9.262 -0.2953 -0.0629 -0.0211
  585MOL0     C78862   1.278   9.963   9.378 -0.1737  0.5961 -0.5042
  585MOL0     C78863   1.333   9.945   9.518 -0.3682 -0.7079  0.0273
  585MOL0     O78864   1.396  10.067   9.560  0.6622  0.8464 -0.4686
  585MOL0     C78865   1.525  10.067   9.604  0.7157  0.3463 -0.4970
  585MOL0     C78866   1.572   9.968   9.689  0.1447 -0.3362  0.1851
  585MOL0     C78867   1.698   9.977   9.747 -1.4577  0.5485  0.3406
  585MOL0     C78868   1.786  10.075   9.698 -0.6318  0.2560  0.0121
  585MOL0     C78869   1.922  10.078   9.756  0.1803  0.4713 -0.2322
  585MOL0     O78870   1.960   9.966   9.826  0.2501 -0.0905  0.6949
  585MOL0     C78871   2.082   9.926   9.855  0.8888  0.0445 -0.4444
  585MOL0     C78872   2.085   9.787   9.891  0.0611 -0.3038  0.5066
  585MOL0     C78873   2.199   9.719   9.865  0.2223 -0.4765 -0.3670
  585MOL0     C78874   2.319   9.786   9.830  0.3387 -1.3632  0.5523
  585MOL0     O78875   2.443   9.728   9.813  0.6702 -0.2493  0.6872
  585MOL0     C78876   2.449   9.590   9.784 -0.1324  0.2213  0.4288
  585MOL0     C78877   2.588   9.562   9.728  0.0172 -0.6984 -0.1598
  585MOL0     C78878   2.631   9.654   9.614 -0.3737  0.0147  0.7603
  585MOL0     C78879   2.783   9.630   9.595  1.0488  0.1258  0.2224
  585MOL0     C78880   2.816   9.686   9.456 -0.2750 -0.4679 -0.6707
  585MOL0     C78881   2.796   9.839   9.450 -0.0305  0.0605  0.6384
  585MOL0     C78882   2.845   9.884   9.313  0.5271 -0.5803  0.7442
  585MOL0     C78883   2.884  10.037   9.329 -0.5198 -0.0990 -0.8739
  585MOL0    Cl78884   3.010  10.047   9.451  0.1453 -0.1658 -0.2427
  585MOL0     C78885   2.320   9.926   9.810  0.2157  0.0995  0.7233
  585MOL0     C78886   2.194   9.997   9.820 -0.0729  0.5371 -0.2439
  585MOL0     O78887   1.992  10.176   9.724  0.4572 -0.0868 -0.3280
  585MOL0     C78888   1.742  10.161   9.593  0.0915 -0.1269 -0.1435
  585MOL0     C78889   1.612  10.161   9.551  0.4854 -1.0599  0.6291
  585MOL0     N78890   1.442   9.841   9.010  0.5231 -0.0481  0.2940
  585MOL0     N78891   1.432   9.741   8.930  0.2368 -0.2482  0.4997
  585MOL0     C78892   1.603   9.492   8.036 -0.5384  0.1192 -0.2542
  585MOL0     C78893   1.711   9.552   7.973  0.3310  0.1347  0.1217
  585MOL0     C78894   2.004   9.791   7.744  0.5672 -0.4415 -0.5236
  585MOL0     C78895   2.043   9.697   7.650  0.4151 -0.5243 -0.5478
  585MOL0     C78896   2.164   9.710   7.575 -0.7200 -0.9935 -0.7645
  585MOL0     C78897   2.246   9.820   7.592 -0.3808 -0.5060 -0.1558
  585MOL0     O78898   2.373   9.846   7.537  0.5918 -0.5669  0.2703
  585MOL0     C78899   2.410   9.772   7.425 -0.1894 -0.4032  0.3761
  585MOL0     C78900   2.347   9.807   7.293 -0.3194  0.2484  0.4750
  585MOL0     C78901   2.385   9.715   7.175 -0.9199 -0.0030  0.2701
  585MOL0     C78902   2.324   9.748   7.043 -0.2135  0.3310  0.2590
  585MOL0     C78903   2.179   9.725   7.052  0.0114  0.0220 -0.7569
  585MOL0     C78904   2.054   9.718   7.044 -0.6691  0.6862 -0.0895
  585MOL0     C78905   2.211   9.914   7.690  0.0771 -1.1613 -0.4795
  585MOL0     C78906   2.092   9.905   7.771  0.4098 -0.1098  0.6117
  585MOL0     C78907   2.069  10.014   7.874 -0.6121  0.4773 -0.1464
  585MOL0     H78908   1.540   9.691   7.714  0.4182 -0.6877 -0.9476
  585MOL0     H78909   1.355   9.613   7.847 -0.2684  1.5786  3.4269
  585MOL0     H78910   1.212   9.603   8.018  1.3225 -0.3399  2.2547
  585MOL0     H78911   1.207   9.437   7.957 -1.6813  1.0066 -1.0139
  585MOL0     H78912   1.134   9.364   8.172 -1.7472 -0.5000  0.7740
  585MOL0     H78913   1.032   9.510   8.107  1.7977  0.4082 -3.5798
  585MOL0     H78914   1.189   9.659   8.230 -2.2513  1.6141  1.7875
  585MOL0     H78915   1.234   9.506   8.319 -0.4472 -1.9964 -1.1285
  585MOL0     H78916   0.958   9.635   8.305  0.2464 -0.8306 -2.5711
  585MOL0     H78917   1.000   9.492   8.400  0.1967  1.0496  2.6946
  585MOL0     H78918   1.124   9.755   8.430  1.4797 -1.7451 -1.0594
  585MOL0     H78919   0.986   9.722   8.533 -2.1001 -0.1712 -1.5274
  585MOL0     H78920   1.084   9.527   8.631 -0.7127 -0.4951 -3.9401
  585MOL0     H78921   1.237   9.549   8.557  1.0404  0.4750 -1.4426
  585MOL0     H78922   1.102   9.759   8.735 -0.4231 -0.5496  1.5279
  585MOL0     H78923   1.269   9.776   8.667 -1.3235  1.3575  1.7088
  585MOL0     H78924   1.154   9.572   8.859  0.6027 -0.0013  1.0813
  585MOL0     H78925   1.316   9.546   8.810 -1.0885 -2.4937  2.2405
  585MOL0     H78926   1.119   9.813   8.990 -0.8408  0.0389 -0.2706
  585MOL0     H78927   1.343  10.084   9.061  2.1321 -0.7920 -0.9040
  585MOL0     H78928   1.190  10.029   9.141  0.6183  1.4300  0.3303
  585MOL0     H78929   1.468   9.944   9.262  0.1810  0.5787 -1.2073
  585MOL0     H78930   1.419  10.106   9.280  0.3265 -0.3268  0.0526
  585MOL0     H78931   1.215   9.878   9.350 -1.1456  1.3322 -0.6060
  585MOL0     H78932   1.204  10.043   9.390 -2.4058 -1.7431  2.9896
  585MOL0     H78933   1.387   9.851   9.528 -1.1381 -1.4156 -2.0096
  585MOL0     H78934   1.256   9.921   9.592  1.0248 -1.3412  1.3471
  585MOL0     H78935   1.502   9.896   9.732 -0.0093  1.7267  3.7056
  585MOL0     H78936   1.727   9.898   9.815  2.0292 -2.7439 -4.2734
  585MOL0     H78937   1.996   9.737   9.929 -2.1823  0.5953 -3.0848
  585MOL0     H78938   2.215   9.615   9.892  0.4435 -0.3160  0.1402
  585MOL0     H78939   2.430   9.530   9.873  0.1245  1.5049  1.3730
  585MOL0     H78940   2.375   9.567   9.706  1.5002 -1.7456 -0.6303
  585MOL0     H78941   2.659   9.566   9.812  1.9752 -2.6716 -1.6044
  585MOL0     H78942   2.592   9.459   9.690 -2.3979 -1.6099  1.8105
  585MOL0     H78943   2.570   9.632   9.526  0.3811  0.7457  0.0347
  585MOL0     H78944   2.608   9.757   9.640  0.1256  0.0775  0.9733
  585MOL0     H78945   2.803   9.523   9.598 -0.4857 -0.1609  1.8308
  585MOL0     H78946   2.845   9.679   9.671  0.3427  1.7254 -0.1765
  585MOL0     H78947   2.748   9.634   9.387 -2.1681 -2.7387  2.6385
  585MOL0     H78948   2.915   9.646   9.433  0.3030  0.6478 -0.1691
  585MOL0     H78949   2.687   9.849   9.449  0.0847  1.7907 -1.0249
  585MOL0     H78950   2.842   9.894   9.533  0.0659  1.9120 -0.5778
  585MOL0     H78951   2.770   9.866   9.235 -1.1646 -1.8501  2.5943
  585MOL0     H78952   2.937   9.826   9.299  0.5000 -0.2904 -0.9203
  585MOL0     H78953   2.918  10.077   9.233 -1.3632 -0.1212 -1.1924
  585MOL0     H78954   2.792  10.090   9.352 -2.3673 -2.9839 -1.0589
  585MOL0     H78955   2.411   9.969   9.771  0.0416 -0.0624  0.1199
  585MOL0     H78956   2.201  10.105   9.810  2.8218  0.9229  3.4973
  585MOL0     H78957   1.820  10.227   9.557  1.6284 -2.1580 -0.7195
  585MOL0     H78958   1.583  10.228   9.470  0.1411  0.1346  1.6895
  585MOL0     H78959   1.614   9.435   8.128  0.1247 -2.5032 -1.8554
  585MOL0     H78960   1.814   9.533   8.000  0.4386 -3.6094 -2.1580
  585MOL0     H78961   1.984   9.607   7.637 -1.6897  1.0984 -3.3499
  585MOL0     H78962   2.188   9.635   7.500  1.3356  0.4284 -1.6072
  585MOL0     H78963   2.393   9.670   7.460  0.9150 -0.1549  1.7699
  585MOL0     H78964   2.518   9.774   7.409 -0.4183  3.7753 -2.1828
  585MOL0     H78965   2.374   9.912   7.280  1.0083  0.0152  1.1323
  585MOL0     H78966   2.240   9.807   7.312 -0.0596 -1.5101  2.3311
  585MOL0     H78967   2.371   9.609   7.199 -0.7344  0.1068  0.8722
  585MOL0     H78968   2.493   9.727   7.160 -1.0929  0.9323 -0.3394
  585MOL0     H78969   2.354   9.850   7.017  0.0499  0.9085  2.6310
  585MOL0     H78970   2.371   9.676   6.974 -2.5780 -2.3262  1.2231
  585MOL0     H78971   1.949   9.699   7.038 -0.5628 -0.6514  1.4825
  585MOL0     H78972   2.270  10.003   7.714 -2.7569  0.6985  0.0110
  585MOL0     H78973   2.029   9.984   7.971  2.1905  0.0500  0.9560
  585MOL0     H78974   2.160  10.070   7.893 -1.4144  1.4874  0.8445
  585MOL0     H78975   1.994  10.081   7.831 -0.0699  0.8147 -0.5852
  586MOL0     O78976   3.335   9.915   0.766  0.1464  0.4893  0.1239
  586MOL0     C78977   3.366   9.855   0.656  0.2067  0.2985 -0.5962
  586MOL0     O78978   3.496   9.805   0.624  0.7867 -0.1078  0.5829
  586MOL0     C78979   3.614   9.835   0.689  0.4972  0.4987  0.0068
  586MOL0     C78980   3.623   9.942   0.778  0.3352 -0.0323  0.0864
  586MOL0     C78981   3.745   9.977   0.835 -0.0493 -0.8537 -1.3512
  586MOL0     C78982   3.864   9.900   0.824 -0.5305 -0.3463 -0.9871
  586MOL0     O78983   3.980   9.951   0.880  0.2843  0.0698 -0.2958
  586MOL0     C78984   3.981  10.074   0.965 -0.0834 -0.1526 -0.2055
  586MOL0     C78985   3.932  10.041   1.111  0.4372  1.4792 -0.0900
  586MOL0     C78986   3.981  10.145   1.217 -1.1313  0.0665 -0.4975
  586MOL0     C78987   3.903  10.275   1.229  0.4838  0.2762 -0.2042
  586MOL0     C78988   3.756  10.263   1.269  0.2816 -0.4237  0.4123
  586MOL0     C78989   3.727  10.177   1.398 -0.0507 -0.1961  0.3032
  586MOL0     C78990   3.571  10.157   1.402 -0.5723  0.7955  0.1875
  586MOL0     C78991   3.511  10.154   1.540 -0.5714 -0.2089 -0.3042
  586MOL0     N78992   3.532  10.030   1.610  1.0193  0.4575 -0.3462
  586MOL0     C78993   3.471   9.908   1.586 -0.7059  0.2992  0.0145
  586MOL0     C78994   3.549   9.819   1.653  0.0662  0.0364  0.2324
  586MOL0     C78995   3.535   9.667   1.636 -0.0217  0.1819  0.1451
  586MOL0     C78996   3.432   9.614   1.736  0.1508  0.1989 -0.6172
  586MOL0     C78997   3.423   9.463   1.707  0.6825 -0.7901 -0.2871
  586MOL0     C78998   3.484   9.387   1.824 -0.4441 -0.6280 -0.6065
  586MOL0     O78999   3.622   9.420   1.856  0.5551  0.3891 -0.6450
  586MOL0     C79000   3.717   9.383   1.761 -0.2490  0.5553 -0.4376
  586MOL0     C79001   3.706   9.292   1.659  0.4636  0.0767 -0.6569
  586MOL0     C79002   3.815   9.253   1.573  0.3647  0.3528 -1.1915
  586MOL0     C79003   3.941   9.311   1.584 -0.1952  0.2189 -0.2752
  586MOL0     C79004   4.057   9.265   1.500 -0.2096  0.0425  0.7825
  586MOL0     O79005   4.032   9.171   1.405 -0.2421  0.9317 -0.3092
  586MOL0     C79006   4.115   9.131   1.306 -0.4890  0.8127  0.2078
  586MOL0     C79007   4.234   9.197   1.278  0.5256  0.8833  0.4731
  586MOL0     C79008   4.318   9.142   1.175  0.8327 -0.0211 -0.2836
  586MOL0     C79009   4.272   9.041   1.094  0.2704 -0.0657 -0.8385
  586MOL0     O79010   4.343   8.998   0.978  0.1716 -0.2034  0.0331
  586MOL0     C79011   4.430   9.093   0.911 -0.0907  0.6200 -0.4045
  586MOL0     C79012   4.519   9.014   0.811 -0.5968 -0.2938  0.2267
  586MOL0     C79013   4.597   8.903   0.885  0.7658 -0.5848 -0.0493
  586MOL0     C79014   4.702   8.864   0.781  0.4452  0.5567 -0.7359
  586MOL0     C79015   4.782   8.769   0.862  0.4882 -0.1732  0.2333
  586MOL0     C79016   4.879   8.699   0.769  1.0605 -0.6938  0.6961
  586MOL0     C79017   4.939   8.590   0.857  0.2570  0.4904  0.8362
  586MOL0     C79018   5.077   8.541   0.803 -0.0908 -0.2008 -0.0297
  586MOL0    Cl79019   5.197   8.660   0.861 -0.5185  0.2223  0.8306
  586MOL0     C79020   4.154   8.970   1.127 -0.2610 -0.5956  0.6168
  586MOL0     C79021   4.073   9.021   1.227  0.5377 -1.3499 -0.0584
  586MOL0     O79022   4.158   9.335   1.507  0.2933  0.7028 -0.1139
  586MOL0     C79023   3.949   9.417   1.677 -1.1616  0.0127 -0.1802
  586MOL0     C79024   3.844   9.444   1.769 -0.3391 -0.6872 -0.2814
  586MOL0     N79025   3.639   9.889   1.735  0.4566  0.2020 -0.2891
  586MOL0     N79026   3.634  10.009   1.699  0.9176 -0.2239  0.7041
  586MOL0     C79027   3.854   9.786   0.746 -0.4499  0.4167 -0.7990
  586MOL0     C79028   3.730   9.756   0.675 -1.1896 -0.1367 -0.6542
  586MOL0     C79029   3.266   9.839   0.549 -0.4456  0.3465 -0.6073
  586MOL0     C79030   3.314   9.848   0.426  0.0828  0.9870  0.7812
  586MOL0     C79031   3.227   9.852   0.319 -0.1549 -0.3741  0.1502
  586MOL0     C79032   3.105   9.808   0.337 -0.8171 -0.6167  0.0969
  586MOL0     O79033   3.031   9.807   0.222 -0.3821 -0.1611  0.2078
  586MOL0     C79034   2.903   9.746   0.212 -0.0837 -0.5053  0.2853
  586MOL0     C79035   2.863   9.746   0.062 -0.1215  0.0905 -0.1390
  586MOL0     C79036   2.716   9.739   0.050 -0.1130 -0.3395  0.4866
  586MOL0     C79037   2.669   9.780  -0.090  0.6939 -0.6892  0.2268
  586MOL0     C79038   2.527   9.772  -0.108  0.3036 -0.2321  0.3649
  586MOL0     C79039   2.410   9.766  -0.136 -0.7307 -0.1755 -0.7950
  586MOL0     C79040   3.062   9.783   0.461 -0.0422  0.1238 -0.3109
  586MOL0     C79041   3.137   9.787   0.572  0.0065 -1.7107 -0.4278
  586MOL0     C79042   3.072   9.752   0.708  0.0983  0.7076  0.5796
  586MOL0     H79043   3.539  10.010   0.789  0.6017  0.0180  2.3155
  586MOL0     H79044   3.737  10.061   0.903  2.4842 -0.6369 -1.2603
  586MOL0     H79045   4.084  10.104   0.980 -0.0335  0.6223 -1.8222
  586MOL0     H79046   3.922  10.155   0.921  1.3613  0.7519 -0.5412
  586MOL0     H79047   3.975   9.942   1.127 -2.8189 -0.1402 -0.4099
  586MOL0     H79048   3.825  10.020   1.125  0.9475 -1.4755  0.0678
  586MOL0     H79049   4.085  10.170   1.193 -1.2207  1.9872  0.8914
  586MOL0     H79050   3.991  10.096   1.314  3.0699  0.5103 -0.5204
  586MOL0     H79051   3.951  10.331   1.310 -3.0398  1.4607  1.2698
  586MOL0     H79052   3.908  10.317   1.128 -0.3978  2.1023  0.4746
  586MOL0     H79053   3.698  10.356   1.280 -4.4483 -2.9629 -0.1880
  586MOL0     H79054   3.703  10.211   1.189  0.0808 -1.5885  1.2823
  586MOL0     H79055   3.785  10.085   1.407 -2.1820 -1.4627  2.5380
  586MOL0     H79056   3.758  10.227   1.490  0.7435 -0.8660  0.4098
  586MOL0     H79057   3.553  10.067   1.343 -1.0890 -0.4059  2.1075
  586MOL0     H79058   3.518  10.230   1.341 -0.3445  1.5469  0.8634
  586MOL0     H79059   3.547  10.241   1.595 -2.0432  0.0393  0.3035
  586MOL0     H79060   3.404  10.165   1.520 -1.0826  3.5518  3.1561
  586MOL0     H79061   3.382   9.898   1.524 -1.7218  0.1801  1.4396
  586MOL0     H79062   3.496   9.645   1.537 -2.1049 -3.5967  1.6142
  586MOL0     H79063   3.629   9.614   1.654 -0.4441 -0.1873  1.3159
  586MOL0     H79064   3.463   9.631   1.839  1.2568 -6.1370  0.4887
  586MOL0     H79065   3.341   9.669   1.711  0.3802  1.5823  1.3769
  586MOL0     H79066   3.460   9.432   1.609  0.0374 -0.5013 -0.6300
  586MOL0     H79067   3.315   9.442   1.708  0.3671  0.6802  0.8424
  586MOL0     H79068   3.468   9.283   1.795  1.4027 -0.3280 -3.0598
  586MOL0     H79069   3.432   9.411   1.918  1.7423 -0.6238  0.6770
  586MOL0     H79070   3.615   9.235   1.643  1.1664 -2.3399  2.8411
  586MOL0     H79071   3.792   9.181   1.495  1.1742 -2.1660  0.7728
  586MOL0     H79072   4.268   9.296   1.306  1.3707  0.5451  0.6702
  586MOL0     H79073   4.419   9.181   1.169  1.1318 -0.6190  0.5813
  586MOL0     H79074   4.381   9.182   0.870  0.4762  1.0036 -0.2669
  586MOL0     H79075   4.498   9.125   0.991 -0.3436 -0.0802  0.0948
  586MOL0     H79076   4.466   8.969   0.726  1.0742 -1.0917 -0.4452
  586MOL0     H79077   4.581   9.089   0.760 -1.2304 -0.8035 -1.3351
  586MOL0     H79078   4.650   8.936   0.976  0.4631 -0.6797  0.1614
  586MOL0     H79079   4.527   8.821   0.901  0.3370 -0.2681 -0.3021
  586MOL0     H79080   4.762   8.954   0.763  1.1048  0.0021 -1.3418
  586MOL0     H79081   4.680   8.818   0.684  3.0779  0.3965 -1.3215
  586MOL0     H79082   4.710   8.702   0.910  1.7746 -1.2663  0.7363
  586MOL0     H79083   4.848   8.812   0.938  3.1655 -1.8805 -0.9595
  586MOL0     H79084   4.834   8.654   0.680  2.0098 -0.6382  0.1737
  586MOL0     H79085   4.954   8.774   0.741  0.4040  0.1698  1.2248
  586MOL0     H79086   4.881   8.498   0.846  2.1038 -0.7279  0.8595
  586MOL0     H79087   4.939   8.622   0.961 -2.2821  4.2801 -0.1240
  586MOL0     H79088   5.094   8.440   0.841 -0.0065 -0.2160 -0.1073
  586MOL0     H79089   5.068   8.537   0.694  1.2354  4.6237 -0.5312
  586MOL0     H79090   4.121   8.888   1.064 -1.6000  0.2620  0.1660
  586MOL0     H79091   3.974   8.982   1.248 -1.3777  1.9325 -2.1313
  586MOL0     H79092   4.045   9.468   1.686 -0.2739 -1.8610  1.9647
  586MOL0     H79093   3.852   9.521   1.844  0.5256 -2.4524  1.5175
  586MOL0     H79094   3.936   9.717   0.734 -0.8835 -0.1446 -0.5673
  586MOL0     H79095   3.717   9.681   0.598 -1.8100 -0.6572 -0.0553
  586MOL0     H79096   3.417   9.876   0.408 -0.0650  0.9816 -0.1537
  586MOL0     H79097   3.265   9.859   0.218 -0.2452 -1.3787  0.0347
  586MOL0     H79098   2.828   9.800   0.270 -2.6958 -0.7358 -2.5976
  586MOL0     H79099   2.902   9.643   0.248 -1.3366  0.3064  2.7683
  586MOL0     H79100   2.908   9.657   0.018  0.2596 -0.3901  1.1908
  586MOL0     H79101   2.903   9.832   0.007  2.5745 -0.6782  0.4753
  586MOL0     H79102   2.668   9.803   0.125  0.4199 -2.0321  2.3604
  586MOL0     H79103   2.688   9.638   0.078 -1.3833  0.4018  2.0653
  586MOL0     H79104   2.702   9.880  -0.120  1.2151 -0.6493  0.9122
  586MOL0     H79105   2.709   9.719  -0.171 -1.9909 -4.1107  1.2207
  586MOL0     H79106   2.304   9.750  -0.138 -0.7056 -1.3134  2.0647
  586MOL0     H79107   2.958   9.753   0.465  0.5219 -1.8805  1.0792
  586MOL0     H79108   3.124   9.661   0.740 -0.7104 -0.1086 -0.3730
  586MOL0     H79109   3.085   9.835   0.779 -0.6707  0.6822  0.7600
  586MOL0     H79110   2.970   9.716   0.696  0.8422 -1.6175  0.7033
  587MOL0     O79111   5.524   6.587   4.047 -0.7690  0.1438 -0.6791
  587MOL0     C79112   5.492   6.704   4.074 -1.9781 -0.5707  0.2203
  587MOL0     O79113   5.579   6.802   4.127  0.0161 -0.4379 -0.5817
  587MOL0     C79114   5.715   6.792   4.116  0.0951 -0.0753  0.5789
  587MOL0     C79115   5.785   6.693   4.197  0.9909 -0.0329  0.0148
  587MOL0     C79116   5.921   6.695   4.196 -0.7755  0.0908  0.2722
  587MOL0     C79117   5.995   6.765   4.113 -0.4606 -0.0189  0.0606
  587MOL0     O79118   6.134   6.738   4.097  0.0819  1.0044 -0.1955
  587MOL0     C79119   6.219   6.839   4.156 -0.1575 -0.6869  0.4718
  587MOL0     C79120   6.300   6.801   4.275  1.2721  0.9836 -0.3220
  587MOL0     C79121   6.390   6.910   4.329  0.4367 -0.5903 -1.3442
  587MOL0     C79122   6.517   6.899   4.252 -0.1244 -0.4346 -0.3371
  587MOL0     C79123   6.602   7.031   4.287  0.1355 -0.0289  0.6828
  587MOL0     C79124   6.746   7.001   4.234 -0.7445  0.2515 -0.8385
  587MOL0     C79125   6.816   7.139   4.221 -0.9176 -0.2464  0.3236
  587MOL0     C79126   6.970   7.146   4.169 -0.0046 -0.0554 -0.0211
  587MOL0     N79127   7.068   7.079   4.260  0.1820  0.2754  0.5133
  587MOL0     C79128   7.186   7.008   4.234  0.4067  0.0890  1.1077
  587MOL0     C79129   7.230   6.975   4.362  0.1629  0.1522  0.4736
  587MOL0     C79130   7.368   6.917   4.389  0.5387 -0.4864  0.4366
  587MOL0     C79131   7.385   6.882   4.536 -0.8441 -0.2953  0.8407
  587MOL0     C79132   7.506   6.800   4.566  0.5515 -0.1893  0.0625
  587MOL0     C79133   7.572   6.831   4.695 -1.2989 -0.9633 -0.8919
  587MOL0     O79134   7.481   6.834   4.810  0.6047  0.3147 -0.0478
  587MOL0     C79135   7.437   6.728   4.883  0.1477 -0.5672 -1.4453
  587MOL0     C79136   7.465   6.598   4.855 -0.3235  0.6926  0.5936
  587MOL0     C79137   7.404   6.498   4.936 -0.8323 -0.2821 -0.2395
  587MOL0     C79138   7.329   6.531   5.053 -0.5206  0.5203  0.4468
  587MOL0     C79139   7.267   6.431   5.148 -0.0214 -0.9886  0.6142
  587MOL0     O79140   7.291   6.300   5.129 -0.2060  0.7380 -0.0485
  587MOL0     C79141   7.235   6.197   5.210  0.1847  0.9427  0.2600
  587MOL0     C79142   7.284   6.071   5.184  0.6312 -0.8062  0.4391
  587MOL0     C79143   7.236   5.952   5.259  0.5574  0.3646  0.5947
  587MOL0     C79144   7.132   5.964   5.348 -0.3661  0.3334  0.1307
  587MOL0     O79145   7.089   5.851   5.417 -0.2786  0.3659 -0.5321
  587MOL0     C79146   6.963   5.839   5.483 -0.1349  0.5271 -0.1459
  587MOL0     C79147   6.921   5.692   5.480  0.3801  0.2082  0.0816
  587MOL0     C79148   7.009   5.624   5.586 -0.2537  0.4181 -0.2340
  587MOL0     C79149   6.978   5.476   5.588 -0.4019  0.3735 -0.0996
  587MOL0     C79150   7.059   5.399   5.702  1.5299 -0.7306  0.5802
  587MOL0     C79151   6.997   5.256   5.702 -0.5007  0.6487  0.3019
  587MOL0     C79152   7.083   5.155   5.791 -0.1037 -0.0604  0.1445
  587MOL0     C79153   7.008   5.089   5.894 -0.7427 -0.4753 -0.1434
  587MOL0    Cl79154   6.882   4.994   5.839  0.0597 -0.1859  0.1963
  587MOL0     C79155   7.080   6.090   5.379  0.1783  0.3260 -0.1872
  587MOL0     C79156   7.132   6.204   5.309  0.0138  0.4700 -0.1952
  587MOL0     O79157   7.194   6.475   5.235 -0.2507 -0.7118 -0.6069
  587MOL0     C79158   7.297   6.663   5.064 -0.3395 -0.1990 -0.9341
  587MOL0     C79159   7.354   6.766   4.986  1.2969  1.2083  0.6464
  587MOL0     N79160   7.151   7.034   4.455  0.7025 -1.4584 -0.1414
  587MOL0     N79161   7.070   7.109   4.390  0.0066  0.7284 -0.8006
  587MOL0     C79162   5.931   6.856   4.029 -0.6280 -0.0161  0.0972
  587MOL0     C79163   5.793   6.881   4.032 -1.3901 -0.6022 -0.7713
  587MOL0     C79164   5.354   6.741   4.036  0.7849 -0.6116 -0.4799
  587MOL0     C79165   5.257   6.642   4.049  0.3328 -0.0686 -0.1200
  587MOL0     C79166   5.117   6.661   4.036 -0.6686  0.0471 -0.1212
  587MOL0     C79167   5.078   6.783   3.971 -0.5262  0.0763 -0.3777
  587MOL0     O79168   4.955   6.826   3.942  0.1128 -0.1174 -0.0658
  587MOL0     C79169   4.834   6.749   3.966  0.3716 -0.7901 -1.3185
  587MOL0     C79170   4.701   6.839   3.951  0.3510 -0.5120 -0.3440
  587MOL0     C79171   4.579   6.763   3.978  0.1142  0.1601  0.4442
  587MOL0     C79172   4.450   6.854   4.009 -0.6097  0.7428 -0.8643
  587MOL0     C79173   4.415   6.961   3.907 -0.4977  0.4155 -0.4645
  587MOL0     C79174   4.394   7.044   3.827 -0.7058 -0.1589  0.3359
  587MOL0     C79175   5.177   6.880   3.950  0.6037 -0.2713 -0.8392
  587MOL0     C79176   5.315   6.863   3.985 -0.0397 -0.6088 -0.3562
  587MOL0     C79177   5.409   6.978   3.964  0.0415  0.2930  0.5110
  587MOL0     H79178   5.740   6.610   4.252  0.7213 -0.0030 -0.1598
  587MOL0     H79179   5.980   6.632   4.262 -0.9428  1.7131  2.0400
  587MOL0     H79180   6.293   6.865   4.080  1.4324 -1.7182  1.6072
  587MOL0     H79181   6.165   6.934   4.169 -1.3449 -1.0792 -1.2982
  587MOL0     H79182   6.352   6.706   4.259 -2.6671 -1.2043 -1.3985
  587MOL0     H79183   6.231   6.776   4.356  2.6540 -1.6270  0.1413
  587MOL0     H79184   6.408   6.892   4.436 -1.4192 -0.7161 -1.0224
  587MOL0     H79185   6.342   7.007   4.316  0.5886 -0.4270 -0.7262
  587MOL0     H79186   6.579   6.810   4.269  0.1992 -0.3390 -0.9821
  587MOL0     H79187   6.489   6.894   4.146  1.4340  0.7794 -0.8449
  587MOL0     H79188   6.567   7.117   4.230  2.2388  0.1385 -0.4668
  587MOL0     H79189   6.599   7.041   4.396  1.1074 -2.7185  1.0359
  587MOL0     H79190   6.796   6.950   4.317  0.4121  3.0351  0.2959
  587MOL0     H79191   6.756   6.944   4.141 -1.1397 -0.3616 -0.5090
  587MOL0     H79192   6.815   7.194   4.316 -0.4926  2.5368 -1.2006
  587MOL0     H79193   6.762   7.199   4.148 -0.0793 -0.7889 -0.7668
  587MOL0     H79194   6.986   7.087   4.078  1.3913  0.9015 -0.4219
  587MOL0     H79195   7.005   7.248   4.152 -2.9740  1.0684 -0.0104
  587MOL0     H79196   7.236   6.988   4.140  0.5389 -0.0840  1.2158
  587MOL0     H79197   7.383   6.834   4.320 -2.1114 -0.1747 -0.6427
  587MOL0     H79198   7.452   6.984   4.366  1.2316 -2.0347 -1.7989
  587MOL0     H79199   7.382   6.977   4.590  1.5603 -0.7967  1.9596
  587MOL0     H79200   7.303   6.813   4.561  1.6089 -3.3024  1.1307
  587MOL0     H79201   7.580   6.806   4.485 -0.0912  1.0623 -0.4606
  587MOL0     H79202   7.476   6.695   4.570  1.6117 -0.4700  1.1511
  587MOL0     H79203   7.612   6.932   4.681 -1.5651 -0.7007  0.1264
  587MOL0     H79204   7.650   6.761   4.725  0.5158  1.0268 -0.7192
  587MOL0     H79205   7.529   6.560   4.775 -2.2746 -2.7044  0.4081
  587MOL0     H79206   7.419   6.400   4.893 -1.5105  0.6366 -2.7880
  587MOL0     H79207   7.364   6.050   5.114  2.5598 -1.2596  2.6508
  587MOL0     H79208   7.288   5.860   5.234  0.9699  0.8449 -0.3507
  587MOL0     H79209   6.979   5.866   5.587  1.4285 -0.4145 -0.1040
  587MOL0     H79210   6.886   5.906   5.443  2.5873  2.5873 -2.3507
  587MOL0     H79211   6.816   5.668   5.501  1.1011 -3.8369 -0.1334
  587MOL0     H79212   6.937   5.649   5.380 -2.6973 -3.0565  0.7564
  587MOL0     H79213   7.115   5.632   5.562 -0.1837  2.2524  0.5038
  587MOL0     H79214   6.998   5.668   5.685  0.8119 -0.9210  0.5128
  587MOL0     H79215   6.999   5.427   5.492 -3.3927 -3.0235  0.7574
  587MOL0     H79216   6.872   5.461   5.607 -0.1946  0.4148  1.1653
  587MOL0     H79217   7.054   5.447   5.800  1.9475  0.0055  0.2475
  587MOL0     H79218   7.160   5.393   5.661  1.4145  0.3659  0.1032
  587MOL0     H79219   6.894   5.258   5.740 -0.9678 -3.6264 -0.2636
  587MOL0     H79220   6.987   5.209   5.604  5.0315 -2.1003  0.6701
  587MOL0     H79221   7.172   5.209   5.824  0.8277 -1.4483 -0.0210
  587MOL0     H79222   7.108   5.073   5.723  2.5984 -0.2803  1.3023
  587MOL0     H79223   7.070   5.026   5.959 -2.0064  0.5046  2.1335
  587MOL0     H79224   6.967   5.166   5.960  0.2135  0.5591 -0.7186
  587MOL0     H79225   7.006   6.105   5.457  0.9394  1.8441  0.2871
  587MOL0     H79226   7.084   6.298   5.334 -1.1944  0.5167 -2.4499
  587MOL0     H79227   7.232   6.706   5.139  1.1575  2.3724 -0.9815
  587MOL0     H79228   7.329   6.872   4.994  2.6245  1.5556  0.4640
  587MOL0     H79229   5.991   6.915   3.961 -2.6276  0.6590 -1.1688
  587MOL0     H79230   5.737   6.948   3.968 -0.4570  0.0455 -0.9267
  587MOL0     H79231   5.288   6.542   4.076  0.3229 -0.4074 -1.3187
  587MOL0     H79232   5.045   6.589   4.074 -1.0116  0.2957 -0.2885
  587MOL0     H79233   4.830   6.714   4.070 -3.1009 -2.4283 -1.8461
  587MOL0     H79234   4.822   6.667   3.896 -1.3524  0.3654 -2.4773
  587MOL0     H79235   4.696   6.864   3.844  2.1708 -1.5136 -0.7047
  587MOL0     H79236   4.704   6.925   4.018  2.9978 -1.3273  0.7200
  587MOL0     H79237   4.596   6.720   4.078 -0.4666  1.4119  1.0987
  587MOL0     H79238   4.567   6.676   3.913  0.6624  0.0208  0.5240
  587MOL0     H79239   4.365   6.786   4.016 -0.4903  0.6060 -0.7359
  587MOL0     H79240   4.469   6.909   4.101  0.0288 -1.1650  0.1979
  587MOL0     H79241   4.391   7.124   3.755  1.1332 -0.7775 -0.4855
  587MOL0     H79242   5.144   6.974   3.909  1.9958  0.9183  0.6495
  587MOL0     H79243   5.464   6.947   3.874  0.5579 -1.5820  1.4256
  587MOL0     H79244   5.349   7.065   3.937  0.8617  0.2849 -1.4937
  587MOL0     H79245   5.479   7.000   4.045  1.5952  2.4260 -1.2949
  588MOL0     O79246   4.626   4.592  11.353  0.6444  0.3508 -0.9618
  588MOL0     C79247   4.592   4.703  11.398 -0.1485  0.2786 -0.3587
  588MOL0     O79248   4.675   4.780  11.472  0.2359  0.1009 -0.0222
  588MOL0     C79249   4.786   4.731  11.543 -0.5890 -0.7293  0.5495
  588MOL0     C79250   4.867   4.827  11.598  0.3313 -0.8878  0.3974
  588MOL0     C79251   4.967   4.789  11.688 -0.2986 -0.4677  0.1889
  588MOL0     C79252   5.004   4.654  11.713 -0.3728 -0.0344  0.5986
  588MOL0     O79253   5.110   4.627  11.789 -0.8564  0.0878 -0.1283
  588MOL0     C79254   5.195   4.523  11.737 -1.0187  0.6825  0.6228
  588MOL0     C79255   5.336   4.549  11.761 -0.0885  0.0257  0.7435
  588MOL0     C79256   5.424   4.425  11.714  0.1107  0.5785 -1.0756
  588MOL0     C79257   5.400   4.362  11.579  0.0400  0.0659  1.4026
  588MOL0     C79258   5.527   4.323  11.508  0.4683 -0.2524 -0.9401
  588MOL0     C79259   5.528   4.257  11.377 -1.1709 -0.0975  0.3974
  588MOL0     C79260   5.456   4.325  11.270  0.1142  0.2180  0.1843
  588MOL0     C79261   5.522   4.462  11.227  1.2177  0.9095  0.1605
  588MOL0     N79262   5.477   4.527  11.109 -0.1757 -0.1985 -0.6731
  588MOL0     C79263   5.482   4.474  10.988 -0.5844 -0.0813  0.4657
  588MOL0     C79264   5.428   4.563  10.901 -0.4253  0.6703  0.2707
  588MOL0     C79265   5.439   4.546  10.748 -0.1332  0.3447  0.0620
  588MOL0     C79266   5.295   4.539  10.691  0.3291  0.4441 -0.1695
  588MOL0     C79267   5.235   4.401  10.722  0.3511 -0.4957  0.3099
  588MOL0     C79268   5.103   4.384  10.645  0.7025  0.7155 -0.3259
  588MOL0     O79269   5.012   4.494  10.671 -0.4904 -0.0275 -0.1956
  588MOL0     C79270   4.904   4.510  10.588 -0.8834 -0.6881 -0.0293
  588MOL0     C79271   4.846   4.396  10.525 -1.1258 -0.7015 -0.3453
  588MOL0     C79272   4.738   4.413  10.438  0.3418  0.4924 -0.2995
  588MOL0     C79273   4.692   4.544  10.407  0.1869 -0.5842  0.5379
  588MOL0     C79274   4.588   4.564  10.309 -0.4158 -0.9421 -0.2796
  588MOL0     O79275   4.508   4.673  10.323 -0.2971  0.7133 -0.3474
  588MOL0     C79276   4.409   4.714  10.241  0.3576 -0.0714  0.6512
  588MOL0     C79277   4.412   4.703  10.097 -0.4372  0.3395 -1.0274
  588MOL0     C79278   4.299   4.733  10.016  0.5767 -0.5036  0.7231
  588MOL0     C79279   4.183   4.780  10.080 -0.2985  0.4379 -0.6123
  588MOL0     O79280   4.059   4.792  10.017 -0.1741  0.1338 -0.3578
  588MOL0     C79281   3.966   4.681  10.023 -0.6895  0.3401  0.2124
  588MOL0     C79282   3.993   4.561   9.934  0.5387  0.2945  1.0434
  588MOL0     C79283   4.017   4.614   9.794 -0.4571  0.3695  0.0297
  588MOL0     C79284   4.051   4.502   9.693  0.1031  0.3884 -0.6883
  588MOL0     C79285   4.083   4.558   9.553  0.8615  0.2515 -0.0213
  588MOL0     C79286   4.072   4.444   9.452  0.3030 -0.2045  0.0611
  588MOL0     C79287   4.163   4.333   9.471 -1.4044  0.1712  0.2469
  588MOL0     C79288   4.311   4.367   9.419 -0.4056  0.7873 -0.0747
  588MOL0    Cl79289   4.432   4.226   9.401 -0.4514  0.0143  0.4252
  588MOL0     C79290   4.185   4.814  10.217 -0.0807  0.4620  0.6610
  588MOL0     C79291   4.299   4.785  10.291  0.0164  0.0532  0.4355
  588MOL0     O79292   4.582   4.479  10.223 -0.2635 -0.4702 -0.1201
  588MOL0     C79293   4.742   4.654  10.475  0.0740  0.2598  0.5265
  588MOL0     C79294   4.844   4.638  10.565 -0.0357  0.1922  0.0812
  588MOL0     N79295   5.386   4.666  10.975 -0.1995  0.1383  0.0409
  588MOL0     N79296   5.414   4.645  11.093 -0.9498 -0.0775 -0.5493
  588MOL0     C79297   4.921   4.556  11.649  0.2781 -0.6606  0.3255
  588MOL0     C79298   4.816   4.594  11.571 -0.5904 -0.4359  0.1420
  588MOL0     C79299   4.450   4.757  11.351  0.6646 -0.6292 -0.9153
  588MOL0     C79300   4.356   4.652  11.307 -0.9117  0.1104 -0.4068
  588MOL0     C79301   4.229   4.685  11.274  0.4154  0.3599  0.6253
  588MOL0     C79302   4.177   4.810  11.295 -0.8591 -0.6754 -0.1737
  588MOL0     O79303   4.049   4.852  11.280 -0.6098  0.1282  0.5938
  588MOL0     C79304   3.943   4.787  11.200 -0.2097  0.0625 -0.0362
  588MOL0     C79305   3.921   4.874  11.065 -0.6732  0.5649 -0.3972
  588MOL0     C79306   3.772   4.874  11.011 -0.9564  0.4354 -0.2117
  588MOL0     C79307   3.749   4.996  10.930 -0.5256 -0.2028 -0.0590
  588MOL0     C79308   3.637   4.986  10.840 -0.4692 -0.2082 -0.6524
  588MOL0     C79309   3.537   4.977  10.777 -0.5982  0.3826  0.0167
  588MOL0     C79310   4.262   4.912  11.329  0.3321 -0.3863  0.8672
  588MOL0     C79311   4.399   4.890  11.348  0.2293 -0.1193 -0.3325
  588MOL0     C79312   4.480   5.014  11.364 -0.4152  0.3148  0.3118
  588MOL0     H79313   4.848   4.930  11.567 -0.9392 -1.5850 -1.3057
  588MOL0     H79314   5.021   4.859  11.751  0.0690 -1.8889  1.5193
  588MOL0     H79315   5.177   4.429  11.790  0.7939  0.3948  0.8136
  588MOL0     H79316   5.181   4.507  11.629  1.1130 -0.3303  0.4375
  588MOL0     H79317   5.358   4.564  11.867 -1.5991  2.7453  0.7441
  588MOL0     H79318   5.360   4.638  11.701 -1.4618  0.5378  0.9361
  588MOL0     H79319   5.415   4.350  11.793  1.2061  2.7400  1.2353
  588MOL0     H79320   5.526   4.462  11.728  0.8403 -1.5503 -0.3402
  588MOL0     H79321   5.347   4.267  11.588  0.0423 -0.3753 -2.0168
  588MOL0     H79322   5.350   4.431  11.510  0.8038 -0.4051  0.3504
  588MOL0     H79323   5.594   4.409  11.502 -1.8849  1.6132 -1.7521
  588MOL0     H79324   5.575   4.242  11.566 -3.6466 -2.1846  0.1354
  588MOL0     H79325   5.634   4.243  11.356 -0.8086  2.7097  0.0781
  588MOL0     H79326   5.484   4.157  11.390 -3.0094  0.4949 -0.8212
  588MOL0     H79327   5.351   4.332  11.302 -0.5020  2.0044 -1.9484
  588MOL0     H79328   5.446   4.263  11.181 -2.2915  1.3643 -0.4476
  588MOL0     H79329   5.499   4.533  11.307 -3.7205  1.5032 -1.4531
  588MOL0     H79330   5.631   4.454  11.226  1.1495 -3.0867 -3.3217
  588MOL0     H79331   5.528   4.380  10.960  2.3456  0.7842  1.9956
  588MOL0     H79332   5.483   4.639  10.712 -1.1045  1.8879  2.5717
  588MOL0     H79333   5.503   4.461  10.723  2.0896  1.0383  2.8348
  588MOL0     H79334   5.228   4.605  10.748 -1.2598 -0.8349 -0.4879
  588MOL0     H79335   5.293   4.560  10.584 -0.6818  3.3797  0.3407
  588MOL0     H79336   5.214   4.373  10.825  1.4115 -1.0643  0.3810
  588MOL0     H79337   5.300   4.324  10.679 -0.4451 -0.8153 -0.3559
  588MOL0     H79338   5.051   4.301  10.694  0.4032  1.5929  0.8781
  588MOL0     H79339   5.123   4.363  10.539  4.2716 -3.3418  0.8370
  588MOL0     H79340   4.887   4.299  10.551  0.1663 -1.1156 -3.5074
  588MOL0     H79341   4.698   4.323  10.392 -0.4653 -1.7253  4.1950
  588MOL0     H79342   4.505   4.666  10.055  0.0560  0.0567  0.2525
  588MOL0     H79343   4.288   4.715   9.910  0.4780  1.9706  0.2477
  588MOL0     H79344   3.960   4.643  10.125  0.9424  3.2226  1.4955
  588MOL0     H79345   3.867   4.721   9.997 -0.1456  0.2972 -2.1116
  588MOL0     H79346   4.078   4.500   9.965  2.2581  1.3079 -1.3230
  588MOL0     H79347   3.902   4.501   9.934  1.0627 -0.5900  3.2641
  588MOL0     H79348   3.940   4.678   9.751 -0.2539 -1.0102 -2.5552
  588MOL0     H79349   4.103   4.682   9.797  0.4014 -0.6480 -0.6737
  588MOL0     H79350   3.973   4.426   9.701  1.1016 -0.5974 -0.0720
  588MOL0     H79351   4.142   4.453   9.729 -0.0116  0.5195 -0.2119
  588MOL0     H79352   4.181   4.608   9.555  1.2861 -0.5106  3.0751
  588MOL0     H79353   4.009   4.629   9.516  0.0483  0.4806  1.9083
  588MOL0     H79354   3.971   4.403   9.460 -0.4152  0.3710 -3.8626
  588MOL0     H79355   4.082   4.486   9.351  1.8168  0.2119  0.3464
  588MOL0     H79356   4.120   4.252   9.410 -1.6911 -0.0972  0.8043
  588MOL0     H79357   4.168   4.288   9.570 -1.0152  0.9222  0.5692
  588MOL0     H79358   4.309   4.407   9.318 -2.0104 -0.3078 -0.5046
  588MOL0     H79359   4.357   4.448   9.476 -3.6060  3.9555 -1.6277
  588MOL0     H79360   4.098   4.869  10.251 -0.9756 -0.3187 -0.2944
  588MOL0     H79361   4.289   4.807  10.396 -2.3191 -0.4133  0.3650
  588MOL0     H79362   4.708   4.757  10.468  0.2984  0.5415  2.7861
  588MOL0     H79363   4.880   4.732  10.606 -0.4757  1.2339 -1.8159
  588MOL0     H79364   4.946   4.450  11.657 -1.4137 -1.2139 -1.0266
  588MOL0     H79365   4.747   4.518  11.536 -0.6970  0.1386 -0.9314
  588MOL0     H79366   4.383   4.548  11.323 -3.5778 -0.3848  1.6023
  588MOL0     H79367   4.162   4.603  11.253 -0.2641  1.0880 -0.1345
  588MOL0     H79368   3.843   4.796  11.244 -0.0040  2.2327  0.0939
  588MOL0     H79369   3.966   4.685  11.167 -0.0007  0.0691  0.0911
  588MOL0     H79370   3.988   4.840  10.985 -2.3050 -3.7254 -0.1968
  588MOL0     H79371   3.949   4.974  11.098 -0.7024  0.2510  0.6032
  588MOL0     H79372   3.704   4.885  11.095  0.3750  1.4668  0.7762
  588MOL0     H79373   3.753   4.783  10.953 -0.3551 -0.7048  1.3074
  588MOL0     H79374   3.717   5.075  10.999  3.7411  1.1156  0.7102
  588MOL0     H79375   3.840   5.040  10.889 -1.4867  0.6102 -1.4018
  588MOL0     H79376   3.446   4.972  10.720 -0.4857 -0.4207 -0.1041
  588MOL0     H79377   4.213   5.007  11.347  0.0090 -0.7601  2.0547
  588MOL0     H79378   4.495   5.066  11.269  2.3928  0.1008  0.5692
  588MOL0     H79379   4.435   5.086  11.432 -1.7813 -0.1871 -0.0289
  588MOL0     H79380   4.582   4.998  11.400 -0.9803  1.9368  2.8222
  589MOL0     O79381   2.620   0.756   6.252 -0.0597 -0.4883 -0.2339
  589MOL0     C79382   2.521   0.806   6.310 -0.1207 -0.0999  0.3993
  589MOL0     O79383   2.498   0.943   6.321  0.0981  0.3766 -0.8204
  589MOL0     C79384   2.606   1.022   6.300 -0.0627 -0.6618  0.8572
  589MOL0     C79385   2.678   1.071   6.411 -0.0557  0.3967  0.9237
  589MOL0     C79386   2.796   1.147   6.393 -0.7750  0.0156 -0.0943
  589MOL0     C79387   2.848   1.178   6.277 -0.7939 -0.3185  0.3351
  589MOL0     O79388   2.973   1.230   6.267 -0.2046 -0.3639 -0.8426
  589MOL0     C79389   3.078   1.147   6.207  0.2593 -0.3736 -1.1502
  589MOL0     C79390   3.205   1.187   6.278 -0.5187 -0.0719 -0.2994
  589MOL0     C79391   3.331   1.158   6.200  0.2182 -0.4383 -0.5516
  589MOL0     C79392   3.362   1.003   6.191 -0.6991  0.3691  0.7394
  589MOL0     C79393   3.475   0.969   6.292  0.1734  0.4774  0.1489
  589MOL0     C79394   3.606   1.054   6.269  0.8622 -0.1097 -0.1785
  589MOL0     C79395   3.733   0.975   6.300 -0.0362  1.3541 -0.3936
  589MOL0     C79396   3.748   0.949   6.465  0.6171 -0.6500 -0.2307
  589MOL0     N79397   3.888   0.933   6.513 -0.1828 -0.6202  0.0596
  589MOL0     C79398   3.930   1.017   6.611  0.4528  0.5147 -0.4765
  589MOL0     C79399   4.063   1.014   6.612  0.2792 -0.6480 -0.6498
  589MOL0     C79400   4.154   1.087   6.712 -0.2000  0.7861 -0.1758
  589MOL0     C79401   4.256   0.990   6.765 -0.9126 -0.5517 -0.0076
  589MOL0     C79402   4.359   1.075   6.851  0.7965  0.2827  0.2747
  589MOL0     C79403   4.455   0.992   6.940 -0.3597 -0.3079  0.0735
  589MOL0     O79404   4.532   1.083   7.012 -0.3156 -0.0581  1.2376
  589MOL0     C79405   4.635   1.031   7.097 -0.1772 -0.5970 -0.0540
  589MOL0     C79406   4.722   1.133   7.142  0.7124  0.6566 -0.1282
  589MOL0     C79407   4.841   1.104   7.215 -0.3145  0.5070  0.1178
  589MOL0     C79408   4.874   0.970   7.247  0.1860  0.6491 -0.1927
  589MOL0     C79409   4.981   0.928   7.340 -0.3071 -0.5140  0.6348
  589MOL0     O79410   4.969   0.812   7.400 -0.3298 -0.1969 -0.0803
  589MOL0     C79411   5.078   0.767   7.462 -0.1858  0.1057  0.1627
  589MOL0     C79412   5.091   0.793   7.605 -0.9452 -0.2876  0.3188
  589MOL0     C79413   5.219   0.762   7.660  0.2603  0.0107  0.0639
  589MOL0     C79414   5.319   0.692   7.591  0.3139 -0.4171  0.5361
  589MOL0     O79415   5.440   0.672   7.652  0.0140 -0.7021  0.6820
  589MOL0     C79416   5.510   0.788   7.692  0.3874 -0.3821  0.6275
  589MOL0     C79417   5.659   0.770   7.701  0.5649 -0.3513 -0.5026
  589MOL0     C79418   5.738   0.714   7.582 -0.0596 -0.9370  1.2062
  589MOL0     C79419   5.872   0.640   7.616 -0.6967  0.3433 -0.0328
  589MOL0     C79420   5.973   0.734   7.677 -0.7940 -0.2656 -0.0443
  589MOL0     C79421   6.113   0.675   7.698  0.9349 -0.4695 -0.1037
  589MOL0     C79422   6.185   0.645   7.564 -1.0739  1.2798  0.4207
  589MOL0     C79423   6.337   0.677   7.555 -0.6457 -0.5898  0.4677
  589MOL0    Cl79424   6.411   0.570   7.424 -0.0973  0.3404 -0.3499
  589MOL0     C79425   5.303   0.672   7.455  0.1850 -0.0004  0.2376
  589MOL0     C79426   5.180   0.703   7.391  0.2450 -0.6174  0.1675
  589MOL0     O79427   5.080   0.999   7.336 -0.2933  0.0616 -0.3563
  589MOL0     C79428   4.779   0.866   7.208 -0.6053 -0.2628  0.8358
  589MOL0     C79429   4.670   0.900   7.125 -0.8386  0.3410 -0.8823
  589MOL0     N79430   4.101   0.941   6.504  0.6257  0.0962  0.4950
  589MOL0     N79431   3.998   0.898   6.438 -0.8017 -0.2114  0.6756
  589MOL0     C79432   2.779   1.133   6.161 -0.3267 -0.1259 -0.2007
  589MOL0     C79433   2.660   1.053   6.170 -0.3421  0.7824 -0.0418
  589MOL0     C79434   2.403   0.710   6.328  0.0001  0.2072 -0.5097
  589MOL0     C79435   2.276   0.751   6.286  0.3031  0.3349 -0.1615
  589MOL0     C79436   2.174   0.664   6.303  0.8755 -0.0875  0.2050
  589MOL0     C79437   2.181   0.555   6.383  0.5826  0.4747 -0.6767
  589MOL0     O79438   2.063   0.491   6.410  0.6663 -0.1782 -0.5235
  589MOL0     C79439   2.063   0.370   6.482  0.2834  0.0252 -0.0729
  589MOL0     C79440   1.925   0.303   6.448 -0.2711 -0.5002  0.1629
  589MOL0     C79441   1.898   0.275   6.298 -0.3851 -0.5095  0.0915
  589MOL0     C79442   1.757   0.234   6.282  0.6081 -0.4599  0.4958
  589MOL0     C79443   1.734   0.098   6.318 -0.1465 -1.0818  0.1594
  589MOL0     C79444   1.711  -0.016   6.334  0.4784  0.1890 -0.9197
  589MOL0     C79445   2.305   0.525   6.438  0.0745  0.6103 -0.6150
  589MOL0     C79446   2.418   0.594   6.404 -0.3654 -1.3404  0.1954
  589MOL0     C79447   2.549   0.552   6.470 -0.4163  0.4576 -0.0642
  589MOL0     H79448   2.636   1.037   6.505 -1.7824  1.5583  0.6135
  589MOL0     H79449   2.861   1.183   6.472  0.6520 -1.6935 -0.4210
  589MOL0     H79450   3.051   1.041   6.211 -4.2669  0.6147  0.9215
  589MOL0     H79451   3.087   1.168   6.100  1.3340 -2.2571 -1.4728
  589MOL0     H79452   3.196   1.128   6.370 -0.9246 -0.5732 -0.6562
  589MOL0     H79453   3.208   1.292   6.309  0.7509 -0.3566  0.6329
  589MOL0     H79454   3.401   1.223   6.254 -2.8986  1.4389  1.5377
  589MOL0     H79455   3.328   1.196   6.098  0.6399 -0.6111 -0.6317
  589MOL0     H79456   3.271   0.950   6.221 -1.7774 -0.0837 -2.9279
  589MOL0     H79457   3.402   0.987   6.090  1.7606  2.7311  1.2186
  589MOL0     H79458   3.443   0.986   6.395  0.8254 -0.7986  0.5787
  589MOL0     H79459   3.484   0.861   6.274 -0.7837  0.4431 -0.1866
  589MOL0     H79460   3.622   1.093   6.168  2.8880 -1.5980 -0.4877
  589MOL0     H79461   3.598   1.136   6.342  0.2517 -0.1156 -0.2359
  589MOL0     H79462   3.816   1.031   6.256  0.5190  0.4886 -0.4708
  589MOL0     H79463   3.724   0.878   6.250 -3.4997  1.9124 -1.1187
  589MOL0     H79464   3.702   1.034   6.515 -0.4033 -0.1956 -1.8681
  589MOL0     H79465   3.685   0.865   6.495  0.6995 -0.3138  0.9012
  589MOL0     H79466   3.857   1.068   6.673  1.2546  0.9533  0.1228
  589MOL0     H79467   4.208   1.162   6.653 -0.4011  1.3037  0.2833
  589MOL0     H79468   4.106   1.139   6.796  1.3996  4.0159 -1.0854
  589MOL0     H79469   4.213   0.903   6.814 -1.4456 -1.2660 -1.6760
  589MOL0     H79470   4.318   0.944   6.687  0.7821  2.6500 -0.7301
  589MOL0     H79471   4.302   1.157   6.895  2.1666  1.9714 -0.9407
  589MOL0     H79472   4.428   1.118   6.778  0.5827 -2.1127 -1.4131
  589MOL0     H79473   4.510   0.918   6.882 -0.9829 -2.3617  1.9478
  589MOL0     H79474   4.395   0.938   7.014 -1.9208  2.2901  0.8097
  589MOL0     H79475   4.688   1.232   7.117 -3.6474 -0.9901 -1.6357
  589MOL0     H79476   4.910   1.183   7.245  0.8313 -0.9841  1.5632
  589MOL0     H79477   5.017   0.850   7.661 -1.5981  1.9165 -2.5576
  589MOL0     H79478   5.237   0.802   7.759  1.7871  1.6658 -0.8246
  589MOL0     H79479   5.497   0.865   7.616 -3.7167 -1.2105  0.2568
  589MOL0     H79480   5.466   0.830   7.783  0.6389  1.9369 -0.2542
  589MOL0     H79481   5.691   0.868   7.738  3.4975 -1.7420  0.9005
  589MOL0     H79482   5.670   0.702   7.785  1.3417  0.2234 -0.1286
  589MOL0     H79483   5.676   0.660   7.509  0.9375  3.5656 -3.5680
  589MOL0     H79484   5.769   0.797   7.518  1.5714 -2.0070  0.5481
  589MOL0     H79485   5.908   0.604   7.520 -4.7660 -0.9740 -1.2733
  589MOL0     H79486   5.851   0.554   7.680 -1.7353 -0.5223 -1.4811
  589MOL0     H79487   5.932   0.757   7.776 -1.2711 -0.9361 -0.0812
  589MOL0     H79488   5.982   0.831   7.627 -0.2550  2.0371  4.0755
  589MOL0     H79489   6.168   0.736   7.771 -0.2734 -1.8982  2.0993
  589MOL0     H79490   6.113   0.583   7.757  2.1211 -0.2035  0.3515
  589MOL0     H79491   6.135   0.684   7.474 -1.1377 -3.0142 -1.6875
  589MOL0     H79492   6.166   0.539   7.546  3.6953  0.4440 -0.9646
  589MOL0     H79493   6.355   0.784   7.537  0.9323 -0.8067  0.6036
  589MOL0     H79494   6.385   0.651   7.649 -1.8453  0.3203  1.3631
  589MOL0     H79495   5.388   0.640   7.395 -0.4402  1.2632 -1.3821
  589MOL0     H79496   5.164   0.687   7.285  0.1946  3.7325 -0.6677
  589MOL0     H79497   4.796   0.766   7.248  4.2139 -0.9390 -2.0917
  589MOL0     H79498   4.599   0.819   7.111  0.2952 -1.2003  1.5590
  589MOL0     H79499   2.819   1.164   6.065  3.0145 -1.1667  0.7192
  589MOL0     H79500   2.608   1.022   6.080  1.9684 -2.2204 -0.5396
  589MOL0     H79501   2.268   0.841   6.226  0.4823  0.2841 -0.2640
  589MOL0     H79502   2.085   0.696   6.249  1.1112  0.6291  0.2432
  589MOL0     H79503   2.053   0.398   6.587  0.1138  0.4491 -0.2015
  589MOL0     H79504   2.149   0.303   6.475 -0.6201 -1.2578  0.6646
  589MOL0     H79505   1.851   0.373   6.488  1.6291 -0.0002  3.1390
  589MOL0     H79506   1.912   0.207   6.500 -0.5437 -0.0884  0.8670
  589MOL0     H79507   1.971   0.205   6.254  1.1286  1.5199 -0.8300
  589MOL0     H79508   1.910   0.371   6.246 -1.6808 -0.0784  0.5630
  589MOL0     H79509   1.687   0.298   6.336  2.2390  2.0804 -0.2262
  589MOL0     H79510   1.727   0.235   6.178 -1.3206  0.9966  1.0168
  589MOL0     H79511   1.704  -0.119   6.361 -0.4726  0.0841 -1.5247
  589MOL0     H79512   2.316   0.456   6.521  0.0791  0.8015 -0.4578
  589MOL0     H79513   2.557   0.445   6.450  4.1562  0.4171  0.9283
  589MOL0     H79514   2.640   0.592   6.423 -0.7113  0.6304 -0.4942
  589MOL0     H79515   2.536   0.569   6.577 -5.4909 -0.5096 -0.2983
  590MOL0     O79516   5.968   3.234   6.342  0.4778 -0.6598  0.1157
  590MOL0     C79517   5.983   3.358   6.351 -0.0985 -0.5767 -0.5781
  590MOL0     O79518   6.102   3.421   6.342 -0.6375  0.2776  0.1576
  590MOL0     C79519   6.223   3.385   6.395 -0.1601  0.4506  0.4177
  590MOL0     C79520   6.233   3.284   6.488  0.5310 -0.1600  0.2903
  590MOL0     C79521   6.362   3.239   6.523  0.0366  0.5609 -0.3388
  590MOL0     C79522   6.481   3.307   6.474 -0.2960  0.7705 -0.2890
  590MOL0     O79523   6.608   3.283   6.510 -0.1888  0.1542  0.7149
  590MOL0     C79524   6.625   3.160   6.584  0.1488 -0.2416 -0.3132
  590MOL0     C79525   6.602   3.176   6.738  1.0409  0.3969 -0.1855
  590MOL0     C79526   6.649   3.300   6.794  0.3764  0.6687 -0.0080
  590MOL0     C79527   6.589   3.318   6.941  0.0307  0.9659  0.3171
  590MOL0     C79528   6.646   3.448   7.000  0.3267 -0.2590 -0.3121
  590MOL0     C79529   6.803   3.449   7.014  0.1920 -0.4008 -0.1118
  590MOL0     C79530   6.862   3.335   7.108  0.0373 -0.2423 -1.1659
  590MOL0     C79531   6.824   3.378   7.254 -1.0137  0.0778  0.1384
  590MOL0     N79532   6.893   3.288   7.349  0.2426  0.4213 -0.3518
  590MOL0     C79533   7.024   3.290   7.400  0.5178 -0.0868  0.0007
  590MOL0     C79534   7.021   3.188   7.491 -0.5993  0.6631 -0.5600
  590MOL0     C79535   7.142   3.158   7.587 -0.1678 -0.7750 -0.2861
  590MOL0     C79536   7.102   3.207   7.723 -0.5362  0.0931  0.3582
  590MOL0     C79537   7.122   3.113   7.851  0.2114  0.6850  0.1254
  590MOL0     C79538   7.266   3.063   7.876 -0.3159  0.3790  0.8906
  590MOL0     O79539   7.370   3.154   7.831  0.5794 -0.2725 -0.2440
  590MOL0     C79540   7.402   3.255   7.913 -0.4061 -0.5074  0.0741
  590MOL0     C79541   7.366   3.282   8.043  0.5484  0.1745  0.2687
  590MOL0     C79542   7.418   3.390   8.117  0.5463 -0.4982 -0.0210
  590MOL0     C79543   7.515   3.468   8.051  0.4992 -0.4838  0.0751
  590MOL0     C79544   7.575   3.582   8.118 -0.1079 -0.7252 -0.8227
  590MOL0     O79545   7.675   3.649   8.049  0.2774 -0.0745  0.0805
  590MOL0     C79546   7.726   3.759   8.101 -0.6821 -0.3791 -1.0526
  590MOL0     C79547   7.823   3.751   8.201 -0.1636 -0.0122 -0.7569
  590MOL0     C79548   7.870   3.869   8.261 -0.6258  0.1841 -0.0982
  590MOL0     C79549   7.827   3.993   8.219  0.4545  0.0486  0.5808
  590MOL0     O79550   7.865   4.120   8.267  0.5659 -0.3647  0.1319
  590MOL0     C79551   7.988   4.116   8.341  0.1616  0.4123  0.1123
  590MOL0     C79552   8.033   4.265   8.335 -0.2203 -0.8440  0.2253
  590MOL0     C79553   8.162   4.288   8.405 -0.5538  0.4463  0.0571
  590MOL0     C79554   8.262   4.366   8.319 -0.3349  0.3446 -0.4789
  590MOL0     C79555   8.387   4.425   8.387 -0.9272 -0.1506  0.2678
  590MOL0     C79556   8.465   4.319   8.462  0.3898  0.3814  0.7983
  590MOL0     C79557   8.600   4.349   8.541 -0.8494 -0.2038  0.6609
  590MOL0     C79558   8.713   4.409   8.446  1.1622 -0.0848  0.1175
  590MOL0    Cl79559   8.861   4.417   8.524  0.5025  0.1922  0.6776
  590MOL0     C79560   7.731   4.000   8.114  0.7063  0.0699  0.9447
  590MOL0     C79561   7.676   3.882   8.057 -0.4798 -0.1360  0.0037
  590MOL0     O79562   7.532   3.626   8.222  0.2940  0.1663 -0.2105
  590MOL0     C79563   7.560   3.435   7.922  0.1291  0.1229  0.5255
  590MOL0     C79564   7.496   3.336   7.848  0.0616 -0.0320 -0.1476
  590MOL0     N79565   6.899   3.121   7.489 -0.1033 -0.1510 -0.4245
  590MOL0     N79566   6.826   3.187   7.411  0.5402  0.3964 -0.3500
  590MOL0     C79567   6.458   3.411   6.384 -1.3722 -0.2194  0.0642
  590MOL0     C79568   6.331   3.456   6.345  0.0400  0.6485  0.0979
  590MOL0     C79569   5.868   3.447   6.365 -0.2728 -0.6362 -0.0007
  590MOL0     C79570   5.881   3.590   6.337 -0.3073 -0.2764  0.2346
  590MOL0     C79571   5.772   3.676   6.353 -0.0532  0.0572 -0.4360
  590MOL0     C79572   5.647   3.633   6.400 -0.1766  0.9312  0.4103
  590MOL0     O79573   5.549   3.724   6.405 -0.7059 -0.0968  0.1232
  590MOL0     C79574   5.422   3.697   6.469  0.3559  0.5806 -0.5125
  590MOL0     C79575   5.314   3.801   6.435 -0.3066  0.2111  0.2815
  590MOL0     C79576   5.198   3.790   6.540  0.5850 -0.4261  0.0829
  590MOL0     C79577   5.076   3.867   6.496 -0.2055 -0.5047  0.4926
  590MOL0     C79578   5.105   4.006   6.467 -0.0991  0.6214  0.3366
  590MOL0     C79579   5.110   4.123   6.442 -0.1317 -0.4946  0.4434
  590MOL0     C79580   5.629   3.501   6.426  0.5082 -0.0901  0.5112
  590MOL0     C79581   5.742   3.411   6.413  0.7359 -0.4405  0.0252
  590MOL0     C79582   5.707   3.271   6.465  0.7759 -0.0812  0.5639
  590MOL0     H79583   6.150   3.220   6.518 -1.7280  1.7417 -1.4791
  590MOL0     H79584   6.360   3.150   6.585  0.0956  0.2273 -0.8091
  590MOL0     H79585   6.574   3.070   6.548  3.1191 -0.3133 -5.3644
  590MOL0     H79586   6.731   3.136   6.577  0.6398  0.0990  3.6198
  590MOL0     H79587   6.645   3.089   6.788 -0.9735  0.0011  0.9501
  590MOL0     H79588   6.495   3.179   6.756  1.0333  1.0896 -0.2855
  590MOL0     H79589   6.607   3.389   6.746 -1.7805 -0.8800 -1.1602
  590MOL0     H79590   6.758   3.308   6.792  0.2837  4.9173  1.5956
  590MOL0     H79591   6.480   3.325   6.945 -0.0473  0.1051  0.0783
  590MOL0     H79592   6.615   3.226   6.996  1.5984  1.3291  0.2527
  590MOL0     H79593   6.595   3.530   6.948  1.8299  1.5423  0.8857
  590MOL0     H79594   6.600   3.452   7.099 -0.4020 -0.2408 -0.6393
  590MOL0     H79595   6.855   3.438   6.918 -0.2497 -1.6409 -0.2394
  590MOL0     H79596   6.823   3.550   7.049 -0.8361  0.4294 -1.8063
  590MOL0     H79597   6.971   3.329   7.101  0.0140 -0.3337 -1.4741
  590MOL0     H79598   6.818   3.235   7.102 -0.6730 -0.3240  2.8639
  590MOL0     H79599   6.851   3.483   7.272 -0.5411  0.3736 -2.0033
  590MOL0     H79600   6.716   3.372   7.264 -0.9765  1.4036  1.8936
  590MOL0     H79601   7.109   3.351   7.371  2.9195 -3.2665 -0.1508
  590MOL0     H79602   7.161   3.051   7.588  0.1892 -0.7718 -2.1254
  590MOL0     H79603   7.224   3.218   7.546 -0.6830 -0.8949 -1.5432
  590MOL0     H79604   7.163   3.296   7.743 -1.7476  0.1566  4.6008
  590MOL0     H79605   7.001   3.250   7.721  0.3163  2.2337 -1.3466
  590MOL0     H79606   7.056   3.026   7.850  1.2605 -0.1511  0.4765
  590MOL0     H79607   7.085   3.165   7.939 -0.4271  1.3160 -0.5087
  590MOL0     H79608   7.270   2.967   7.824  0.3020  0.5078  0.6928
  590MOL0     H79609   7.280   3.048   7.983 -1.4743  2.9293  1.4744
  590MOL0     H79610   7.291   3.223   8.094  1.7804 -0.4221  1.4440
  590MOL0     H79611   7.391   3.403   8.221  1.0455  1.6158 -0.0957
  590MOL0     H79612   7.865   3.656   8.232  0.7409  0.2578 -1.1189
  590MOL0     H79613   7.945   3.854   8.339  0.3579  1.0067 -0.8523
  590MOL0     H79614   7.973   4.087   8.445  0.5523 -2.2363 -0.5123
  590MOL0     H79615   8.068   4.066   8.285 -0.0290  3.1809 -2.9905
  590MOL0     H79616   8.043   4.302   8.232  0.5476  0.4569  0.7485
  590MOL0     H79617   7.960   4.323   8.391 -0.7161  0.3164 -1.5382
  590MOL0     H79618   8.152   4.345   8.498  0.5849  0.2266  0.3338
  590MOL0     H79619   8.209   4.195   8.439  2.0741  0.6080 -2.7096
  590MOL0     H79620   8.217   4.441   8.253 -0.0635  0.6789 -0.2866
  590MOL0     H79621   8.303   4.293   8.249 -2.3128 -1.6445  0.3042
  590MOL0     H79622   8.364   4.509   8.453  0.8309 -0.0356  0.7904
  590MOL0     H79623   8.451   4.460   8.306  2.1355 -2.3763  1.5247
  590MOL0     H79624   8.386   4.278   8.526  0.8664 -2.6293 -0.3501
  590MOL0     H79625   8.496   4.243   8.390  0.3564  0.1672  1.0094
  590MOL0     H79626   8.630   4.252   8.582 -2.1206 -0.9031  0.0038
  590MOL0     H79627   8.587   4.411   8.629  0.0748 -1.0424  1.4136
  590MOL0     H79628   8.729   4.359   8.351  2.8345 -1.4536  1.0627
  590MOL0     H79629   8.675   4.507   8.416 -0.3200 -1.0968 -1.4465
  590MOL0     H79630   7.683   4.097   8.105  1.1149  0.7095  4.4882
  590MOL0     H79631   7.590   3.878   7.991  0.1237  1.3096 -0.9258
  590MOL0     H79632   7.647   3.482   7.877  0.5068 -0.9422  0.1045
  590MOL0     H79633   7.537   3.290   7.758 -0.4445  0.4290 -0.6206
  590MOL0     H79634   6.534   3.482   6.352  0.0412 -1.3138  0.8876
  590MOL0     H79635   6.315   3.548   6.288 -0.2326 -0.0331 -0.9624
  590MOL0     H79636   5.963   3.640   6.287 -0.3521  2.4433  2.5766
  590MOL0     H79637   5.792   3.783   6.342  0.0389  0.1005  0.1470
  590MOL0     H79638   5.433   3.694   6.578  2.1177  3.7474 -0.4738
  590MOL0     H79639   5.378   3.607   6.425 -1.7610  2.3374 -2.2240
  590MOL0     H79640   5.273   3.785   6.335 -1.3744 -0.3781  0.7899
  590MOL0     H79641   5.360   3.900   6.439  0.5938 -0.1668 -0.4144
  590MOL0     H79642   5.226   3.819   6.642  5.5280  0.6588 -1.3270
  590MOL0     H79643   5.168   3.685   6.542 -0.0839 -0.2325  0.6690
  590MOL0     H79644   5.030   3.816   6.410 -1.0569 -0.9507  1.2025
  590MOL0     H79645   4.998   3.871   6.572 -2.8673  1.8130 -2.1336
  590MOL0     H79646   5.108   4.226   6.411 -1.4730 -0.4063  0.7882
  590MOL0     H79647   5.536   3.466   6.470  0.3137  0.2669  0.3825
  590MOL0     H79648   5.785   3.230   6.530  1.0388 -0.6662 -0.1010
  590MOL0     H79649   5.608   3.266   6.511  0.4426 -0.4751 -0.1723
  590MOL0     H79650   5.699   3.201   6.381  1.0264 -0.0937  0.5493
  591MOL0     O79651   5.741   8.842   3.489  0.4413 -0.3623 -0.0630
  591MOL0     C79652   5.769   8.950   3.434  0.5800  0.2117 -0.7875
  591MOL0     O79653   5.872   9.034   3.468  0.1817  0.3454 -0.0784
  591MOL0     C79654   5.977   8.991   3.545 -0.4245  0.1393 -0.1911
  591MOL0     C79655   5.973   8.919   3.672 -0.3871 -0.3466 -0.5512
  591MOL0     C79656   6.096   8.894   3.737  0.9231 -0.3283 -0.5661
  591MOL0     C79657   6.215   8.940   3.676 -0.6004  0.1191 -0.1720
  591MOL0     O79658   6.341   8.908   3.732 -0.2492 -0.2428 -0.6569
  591MOL0     C79659   6.346   8.818   3.848  0.6274  0.9001 -0.4649
  591MOL0     C79660   6.483   8.779   3.885  0.5241 -0.4377  0.9018
  591MOL0     C79661   6.576   8.764   3.769 -0.0424 -0.2400  0.1229
  591MOL0     C79662   6.708   8.743   3.821 -0.0195 -0.3869 -0.4600
  591MOL0     C79663   6.797   8.669   3.716 -0.6696 -0.1745 -0.0598
  591MOL0     C79664   6.930   8.638   3.774  0.0556 -0.7474  0.7349
  591MOL0     C79665   7.012   8.554   3.675 -0.5826  0.4865 -0.4991
  591MOL0     C79666   6.943   8.427   3.622 -0.5570 -1.1919 -0.1186
  591MOL0     N79667   7.035   8.338   3.547  0.1400 -0.2310 -0.8849
  591MOL0     C79668   7.132   8.383   3.457  0.6195  0.9323 -0.1621
  591MOL0     C79669   7.203   8.274   3.432  0.2960 -0.3961 -0.0754
  591MOL0     C79670   7.322   8.279   3.346  0.3687 -0.2842  1.0706
  591MOL0     C79671   7.451   8.243   3.413  0.2874 -0.0050 -0.2213
  591MOL0     C79672   7.471   8.089   3.414 -0.0080  0.1154 -0.2028
  591MOL0     C79673   7.616   8.053   3.416 -0.0662 -0.8527 -0.3445
  591MOL0     O79674   7.682   8.101   3.542  0.3412  0.6651  0.3023
  591MOL0     C79675   7.822   8.086   3.559  0.2531  0.0104 -0.3729
  591MOL0     C79676   7.890   8.155   3.649  0.2483 -0.3464  0.6225
  591MOL0     C79677   8.023   8.136   3.676 -0.5364  0.4677  0.4133
  591MOL0     C79678   8.101   8.053   3.603 -0.1364  0.1384 -0.0116
  591MOL0     C79679   8.251   8.037   3.619 -1.1434  0.9310  0.9224
  591MOL0     O79680   8.311   7.933   3.548 -0.0356  0.0647  0.1337
  591MOL0     C79681   8.435   7.889   3.596 -0.0849 -0.1074 -0.3522
  591MOL0     C79682   8.542   7.975   3.598 -1.0312 -0.1143  0.6817
  591MOL0     C79683   8.658   7.950   3.655 -1.0021  0.6214 -0.2215
  591MOL0     C79684   8.683   7.816   3.702 -0.3641 -0.6181  0.9324
  591MOL0     O79685   8.799   7.761   3.751  0.3550  0.6424  0.0347
  591MOL0     C79686   8.912   7.845   3.719  1.1257 -0.1391  0.0627
  591MOL0     C79687   9.040   7.785   3.778 -0.0891  1.1161  0.8418
  591MOL0     C79688   9.076   7.654   3.688  0.3336 -0.7601 -0.1362
  591MOL0     C79689   9.222   7.608   3.727  1.4099 -0.0393  0.3969
  591MOL0     C79690   9.270   7.471   3.670 -0.4523 -0.8013  0.5443
  591MOL0     C79691   9.313   7.476   3.519  0.1064  0.1438 -0.4353
  591MOL0     C79692   9.320   7.339   3.448  0.1144 -0.5472 -0.0223
  591MOL0     C79693   9.427   7.244   3.520 -0.3310  0.2513  0.1897
  591MOL0    Cl79694   9.466   7.101   3.415  0.5122  0.7876  0.4982
  591MOL0     C79695   8.577   7.729   3.701 -0.1433  0.2613  0.4555
  591MOL0     C79696   8.456   7.760   3.649 -0.8393 -0.3472 -0.2229
  591MOL0     O79697   8.307   8.125   3.675  0.1056 -0.3326  0.4984
  591MOL0     C79698   8.028   7.975   3.505 -0.3236 -0.3315 -0.4757
  591MOL0     C79699   7.891   7.987   3.490  0.3476  0.0651 -0.2615
  591MOL0     N79700   7.168   8.171   3.515 -1.3847  0.0859 -1.1517
  591MOL0     N79701   7.064   8.206   3.583 -0.2577 -1.1284  0.4841
  591MOL0     C79702   6.211   8.996   3.555 -0.3475 -0.0115  0.9748
  591MOL0     C79703   6.095   9.017   3.482 -0.1647 -0.5216 -0.5979
  591MOL0     C79704   5.679   9.004   3.337  0.6048 -0.9844  1.0883
  591MOL0     C79705   5.571   8.917   3.295 -0.5610 -0.1212  0.1415
  591MOL0     C79706   5.473   8.959   3.205 -1.0737 -0.7624 -0.0547
  591MOL0     C79707   5.475   9.088   3.154 -0.7992  0.4264  1.0276
  591MOL0     O79708   5.383   9.147   3.065  1.0503  0.4494 -0.5691
  591MOL0     C79709   5.298   9.051   3.000  0.0734  0.5279  0.1370
  591MOL0     C79710   5.195   9.119   2.906  0.3297  0.1985  0.1551
  591MOL0     C79711   5.109   9.014   2.819 -0.6993 -0.1971 -0.9629
  591MOL0     C79712   5.035   8.908   2.914 -0.6712  0.3848 -0.4679
  591MOL0     C79713   4.948   8.984   2.998 -0.2193  0.6874 -0.7582
  591MOL0     C79714   4.859   9.029   3.074 -0.0296 -0.4470 -0.6830
  591MOL0     C79715   5.574   9.177   3.194  0.0175 -0.6942  0.7680
  591MOL0     C79716   5.681   9.136   3.277  0.5207  0.8607 -0.0912
  591MOL0     C79717   5.796   9.228   3.289  0.2069  0.3212  0.1360
  591MOL0     H79718   5.878   8.909   3.722  0.5246  0.6831  1.4921
  591MOL0     H79719   6.101   8.856   3.838  0.9439 -2.1102 -1.2053
  591MOL0     H79720   6.299   8.860   3.937  1.0301  2.3580 -0.9245
  591MOL0     H79721   6.287   8.729   3.825  0.2609  0.7655  0.9105
  591MOL0     H79722   6.473   8.686   3.942 -1.3363 -1.0865 -0.4035
  591MOL0     H79723   6.510   8.856   3.959 -0.0207 -1.6535  2.4179
  591MOL0     H79724   6.578   8.861   3.720  1.4452  0.1709  0.9404
  591MOL0     H79725   6.544   8.691   3.695 -2.7127  2.6625 -1.8486
  591MOL0     H79726   6.758   8.837   3.843  1.6545 -1.3543  0.0957
  591MOL0     H79727   6.699   8.684   3.913  0.4208 -1.1681 -0.8967
  591MOL0     H79728   6.746   8.574   3.697 -1.8027  0.3293  0.3879
  591MOL0     H79729   6.798   8.725   3.622 -1.8618  0.2181  0.1445
  591MOL0     H79730   6.981   8.733   3.790 -2.0930  0.8848 -1.4209
  591MOL0     H79731   6.911   8.590   3.871 -1.3263 -1.9068 -0.0648
  591MOL0     H79732   7.106   8.535   3.729 -0.2385 -1.9103 -1.8297
  591MOL0     H79733   7.035   8.623   3.593 -0.1607  1.3534  0.3261
  591MOL0     H79734   6.884   8.378   3.700 -2.6559 -1.4630 -1.7803
  591MOL0     H79735   6.881   8.465   3.540 -0.6824 -0.1745  0.4216
  591MOL0     H79736   7.134   8.484   3.418 -0.8890  1.4699  1.0242
  591MOL0     H79737   7.309   8.226   3.251  2.2385 -0.8065  1.0522
  591MOL0     H79738   7.332   8.382   3.308 -2.1689  0.7072  2.8808
  591MOL0     H79739   7.534   8.290   3.359 -0.3287  1.6647  0.2087
  591MOL0     H79740   7.455   8.282   3.515 -0.5045  0.6681 -0.4316
  591MOL0     H79741   7.428   8.044   3.324 -3.5303 -0.0933  1.4163
  591MOL0     H79742   7.418   8.035   3.494  1.1178 -1.9522 -0.7867
  591MOL0     H79743   7.667   8.104   3.334  2.3892 -2.8357 -0.1990
  591MOL0     H79744   7.628   7.946   3.398  2.0862 -0.2187 -3.6447
  591MOL0     H79745   7.839   8.234   3.704  0.9866 -0.2749  1.2208
  591MOL0     H79746   8.059   8.196   3.759  2.0841  0.3033 -0.4845
  591MOL0     H79747   8.544   8.074   3.553 -2.1034 -0.0560  0.7439
  591MOL0     H79748   8.736   8.026   3.662  1.7867 -1.8303 -2.0030
  591MOL0     H79749   8.912   7.855   3.610 -0.6714 -0.4652  0.0113
  591MOL0     H79750   8.903   7.945   3.763 -2.0462  0.6737 -2.0846
  591MOL0     H79751   9.101   7.874   3.761  3.7779 -1.4664 -0.0276
  591MOL0     H79752   9.026   7.763   3.884  1.5926  1.1160  1.0889
  591MOL0     H79753   9.005   7.573   3.704  0.9838 -0.9718  1.9946
  591MOL0     H79754   9.076   7.679   3.581  3.0099  0.2699  0.0281
  591MOL0     H79755   9.229   7.602   3.836 -1.7175  1.2656  0.7723
  591MOL0     H79756   9.294   7.681   3.689 -0.6550  1.6284 -0.5123
  591MOL0     H79757   9.187   7.403   3.691 -0.9357  0.3297  2.5826
  591MOL0     H79758   9.350   7.435   3.734  1.1857  2.1339  0.3299
  591MOL0     H79759   9.250   7.549   3.467  1.2632  4.1954  3.2439
  591MOL0     H79760   9.408   7.530   3.522 -1.9249  4.0303 -0.0612
  591MOL0     H79761   9.343   7.357   3.342 -1.4206 -0.4720 -0.3558
  591MOL0     H79762   9.217   7.303   3.440  0.2751 -0.7476 -1.3752
  591MOL0     H79763   9.515   7.306   3.539 -2.1435  3.4104 -1.0545
  591MOL0     H79764   9.381   7.214   3.615 -0.6998 -1.5044 -0.4942
  591MOL0     H79765   8.604   7.632   3.741 -3.3286 -1.7540 -1.7903
  591MOL0     H79766   8.373   7.691   3.656 -1.1741 -0.1984 -2.1809
  591MOL0     H79767   8.070   7.905   3.433  3.4408  2.5423 -1.3778
  591MOL0     H79768   7.845   7.922   3.416  1.8008 -0.7540 -0.4738
  591MOL0     H79769   6.309   9.005   3.508 -1.2135 -1.9635 -1.3564
  591MOL0     H79770   6.092   9.054   3.380 -1.9118  0.2798 -0.3057
  591MOL0     H79771   5.563   8.817   3.335 -1.8141  0.2528  0.8686
  591MOL0     H79772   5.391   8.897   3.169 -2.7580  0.6772  1.0885
  591MOL0     H79773   5.237   8.997   3.073 -1.7582  2.8449  0.4641
  591MOL0     H79774   5.358   8.980   2.942  0.7972  1.5964 -0.4635
  591MOL0     H79775   5.247   9.175   2.829 -1.6805  0.1999 -1.2939
  591MOL0     H79776   5.124   9.178   2.964 -0.3467 -0.3862 -0.0597
  591MOL0     H79777   5.181   8.961   2.756 -2.2585 -2.9944 -0.5521
  591MOL0     H79778   5.036   9.066   2.757 -1.0964 -1.5812 -1.6971
  591MOL0     H79779   4.983   8.834   2.853 -0.9520  0.1278  0.0724
  591MOL0     H79780   5.106   8.855   2.979 -2.3844  0.1470  1.3218
  591MOL0     H79781   4.796   9.073   3.149  2.1704 -0.4627  1.2833
  591MOL0     H79782   5.567   9.278   3.154  0.3798 -0.6351  0.8523
  591MOL0     H79783   5.817   9.259   3.392  5.1376  0.9090 -0.8241
  591MOL0     H79784   5.890   9.185   3.254 -0.1868 -1.4590  1.1851
  591MOL0     H79785   5.783   9.319   3.229  0.9797 -0.8856 -1.9626
  592MOL0     O79786  11.340   0.703   6.739 -0.5772  0.2766  0.7918
  592MOL0     C79787  11.245   0.749   6.799  0.3577 -0.1324  0.9620
  592MOL0     O79788  11.257   0.834   6.907 -0.5840 -0.7895 -0.2718
  592MOL0     C79789  11.381   0.853   6.967 -0.0696  0.1052  0.7885
  592MOL0     C79790  11.493   0.912   6.911  0.8479 -0.7304  0.4585
  592MOL0     C79791  11.607   0.932   6.986  0.3075 -0.0761 -0.0887
  592MOL0     C79792  11.620   0.875   7.114 -0.6746  0.7918 -0.3658
  592MOL0     O79793  11.745   0.882   7.166  0.5511 -0.2034 -0.7093
  592MOL0     C79794  11.830   0.768   7.131 -0.3259  0.9238 -0.4217
  592MOL0     C79795  11.947   0.820   7.046  0.8179 -0.2877  0.2529
  592MOL0     C79796  12.015   0.711   6.958  0.6771 -0.2243 -0.3057
  592MOL0     C79797  12.130   0.760   6.872  0.3119  0.0943 -0.2334
  592MOL0     C79798  12.187   0.649   6.784 -0.3125  0.1550  0.1438
  592MOL0     C79799  12.296   0.694   6.680  0.2615 -0.1382 -0.5679
  592MOL0     C79800  12.374   0.575   6.642 -0.4624  0.0060  0.5056
  592MOL0     C79801  12.284   0.470   6.561  0.1027 -0.0975  0.8347
  592MOL0     N79802  12.360   0.356   6.506  0.6291  0.2184 -0.1370
  592MOL0     C79803  12.490   0.354   6.463 -0.7644 -0.4311 -0.0095
  592MOL0     C79804  12.523   0.224   6.452  0.6183 -0.2402 -0.1665
  592MOL0     C79805  12.640   0.158   6.373 -0.2500 -0.6782 -0.4834
  592MOL0     C79806  12.733   0.086   6.478  0.2058 -0.3221 -0.8920
  592MOL0     C79807  12.692  -0.042   6.533 -0.4758  0.3687  0.1797
  592MOL0     C79808  12.800  -0.106   6.614 -0.4240 -1.0016 -0.1641
  592MOL0     O79809  12.783  -0.246   6.641 -0.0349  0.2921  0.1449
  592MOL0     C79810  12.894  -0.334   6.660  0.0202  0.4651 -0.4299
  592MOL0     C79811  12.881  -0.475   6.630  1.3957 -0.2504  0.0196
  592MOL0     C79812  12.978  -0.561   6.681 -0.1094 -0.3686  0.3416
  592MOL0     C79813  13.093  -0.517   6.756  0.4087 -0.5603  0.3218
  592MOL0     C79814  13.187  -0.625   6.802  0.5403  0.1421  0.8153
  592MOL0     O79815  13.285  -0.576   6.886  0.1659  0.1101 -0.6351
  592MOL0     C79816  13.381  -0.661   6.936 -1.2478 -0.6129  0.2167
  592MOL0     C79817  13.514  -0.610   6.958 -0.2339 -0.0226  0.5473
  592MOL0     C79818  13.609  -0.692   7.027  0.5614 -1.1005 -0.0883
  592MOL0     C79819  13.571  -0.814   7.085  0.2408  0.6431  0.3442
  592MOL0     O79820  13.660  -0.885   7.164  0.3179  0.1733 -0.4699
  592MOL0     C79821  13.599  -0.986   7.247 -0.2328  0.3879  0.5762
  592MOL0     C79822  13.594  -1.125   7.176  0.0810 -0.9645 -0.7149
  592MOL0     C79823  13.572  -1.247   7.276  0.3410 -0.3083  0.7789
  592MOL0     C79824  13.422  -1.265   7.322  1.3573 -0.6849 -0.0338
  592MOL0     C79825  13.416  -1.393   7.413  0.7300 -0.3356 -0.5775
  592MOL0     C79826  13.269  -1.437   7.449 -0.1376  0.5648  0.5886
  592MOL0     C79827  13.185  -1.329   7.525  1.2359 -0.4667  0.3873
  592MOL0     C79828  13.047  -1.365   7.583 -0.2635 -0.9544 -0.0481
  592MOL0    Cl79829  12.941  -1.398   7.442 -0.0277  0.2854  0.7366
  592MOL0     C79830  13.439  -0.860   7.064  0.1717  0.4879 -0.1989
  592MOL0     C79831  13.350  -0.784   6.995  0.5265  0.7812 -0.2261
  592MOL0     O79832  13.169  -0.744   6.777  0.0271 -0.4287 -1.0153
  592MOL0     C79833  13.114  -0.381   6.773  0.0006 -0.5705 -0.1211
  592MOL0     C79834  13.016  -0.286   6.725  0.6283 -0.5212  0.2630
  592MOL0     N79835  12.410   0.151   6.497 -0.0199 -0.4390  0.2531
  592MOL0     N79836  12.317   0.227   6.521  0.3247  0.5722 -0.8234
  592MOL0     C79837  11.519   0.809   7.164 -0.0391 -0.2838  0.0605
  592MOL0     C79838  11.400   0.795   7.094  0.2144  0.5087  0.2700
  592MOL0     C79839  11.109   0.754   6.737 -1.1139  0.3791  0.7194
  592MOL0     C79840  11.020   0.860   6.769  0.2606 -0.4804  0.5825
  592MOL0     C79841  10.891   0.850   6.728  0.3370  0.5059  0.1943
  592MOL0     C79842  10.844   0.749   6.638  0.4750  0.1186 -0.5392
  592MOL0     O79843  10.718   0.766   6.591 -1.0474 -0.1579 -0.0760
  592MOL0     C79844  10.663   0.668   6.502  0.6831  0.1199 -0.0567
  592MOL0     C79845  10.523   0.711   6.465  0.5303  0.7250  0.9116
  592MOL0     C79846  10.417   0.694   6.588  0.6860 -0.0532  0.5055
  592MOL0     C79847  10.412   0.815   6.679  0.6374  0.3365 -0.4611
  592MOL0     C79848  10.334   0.775   6.800  0.0289  0.2367 -0.5566
  592MOL0     C79849  10.264   0.729   6.889  0.1084  0.6702  0.5063
  592MOL0     C79850  10.934   0.658   6.602  0.9282  0.1555  0.0526
  592MOL0     C79851  11.063   0.651   6.655 -0.0186 -0.0807  0.5396
  592MOL0     C79852  11.131   0.516   6.632  0.8530  0.3298 -0.4094
  592MOL0     H79853  11.481   0.954   6.812  0.0291 -1.9653  0.0155
  592MOL0     H79854  11.687   0.991   6.942  0.7142 -1.8952 -1.9750
  592MOL0     H79855  11.864   0.715   7.221  0.0232  1.8689  0.0180
  592MOL0     H79856  11.775   0.698   7.068  0.7868  0.1222 -0.5280
  592MOL0     H79857  12.019   0.872   7.109  0.1954  1.1054 -0.1369
  592MOL0     H79858  11.905   0.886   6.969  0.6149 -0.7940 -0.0791
  592MOL0     H79859  11.936   0.660   6.903  1.6269 -2.1758  0.0413
  592MOL0     H79860  12.043   0.631   7.027 -1.2915 -0.2847  0.4762
  592MOL0     H79861  12.095   0.842   6.808  1.3010 -0.3662 -1.3923
  592MOL0     H79862  12.210   0.805   6.931 -0.6266  2.6322 -0.7630
  592MOL0     H79863  12.222   0.569   6.850 -1.1393  0.5702  1.1120
  592MOL0     H79864  12.103   0.607   6.727 -0.8423  1.0448  0.2390
  592MOL0     H79865  12.250   0.741   6.593  0.3033 -1.1804 -1.1753
  592MOL0     H79866  12.365   0.764   6.728  2.8047 -1.8818 -1.4426
  592MOL0     H79867  12.421   0.524   6.727  1.0505 -0.5824 -0.6313
  592MOL0     H79868  12.455   0.603   6.573  0.0754 -3.1209 -0.3014
  592MOL0     H79869  12.211   0.420   6.625  1.1310 -0.7542  1.5369
  592MOL0     H79870  12.241   0.528   6.479  2.0812  0.5361  0.1739
  592MOL0     H79871  12.551   0.442   6.443 -2.0338  0.6987  0.8869
  592MOL0     H79872  12.590   0.099   6.296 -2.3977  0.6445 -0.1811
  592MOL0     H79873  12.708   0.232   6.330 -0.6387  0.9214  1.5212
  592MOL0     H79874  12.829   0.073   6.427  0.5325 -1.2767 -0.0685
  592MOL0     H79875  12.745   0.163   6.555 -1.6230  1.4312 -2.2411
  592MOL0     H79876  12.680  -0.118   6.455 -1.4289 -2.6120  2.9848
  592MOL0     H79877  12.596  -0.039   6.586 -0.9132  3.0000 -0.6380
  592MOL0     H79878  12.794  -0.056   6.712  0.8797 -2.3106  0.6151
  592MOL0     H79879  12.898  -0.096   6.567  0.0465 -4.9566 -0.3571
  592MOL0     H79880  12.796  -0.509   6.573 -0.3538  0.3425  2.1474
  592MOL0     H79881  12.963  -0.666   6.660 -1.0867 -0.3107  0.6834
  592MOL0     H79882  13.554  -0.511   6.936  4.0321 -1.2364  1.8538
  592MOL0     H79883  13.706  -0.648   7.050 -1.3170  1.7504  3.6399
  592MOL0     H79884  13.672  -1.012   7.324  0.9932 -1.6728 -1.1456
  592MOL0     H79885  13.502  -0.960   7.290 -0.6982 -0.0211 -0.2015
  592MOL0     H79886  13.530  -1.116   7.087  1.8348  0.2745 -1.9381
  592MOL0     H79887  13.691  -1.140   7.128 -0.7493 -2.3699 -2.0331
  592MOL0     H79888  13.609  -1.338   7.228 -1.8051  0.6501 -3.1322
  592MOL0     H79889  13.629  -1.236   7.369  0.7664  0.5647  0.4262
  592MOL0     H79890  13.356  -1.277   7.236 -0.1488  1.2876  0.7642
  592MOL0     H79891  13.386  -1.176   7.374  2.7686 -0.6685  0.9876
  592MOL0     H79892  13.467  -1.359   7.504 -0.2815  1.6001 -0.6823
  592MOL0     H79893  13.464  -1.475   7.359  0.7159 -1.0379  0.4306
  592MOL0     H79894  13.227  -1.450   7.349  0.3368 -0.2226  0.4807
  592MOL0     H79895  13.264  -1.531   7.505 -0.2365 -0.0219 -0.3772
  592MOL0     H79896  13.154  -1.253   7.453 -1.5528 -2.5201 -0.7980
  592MOL0     H79897  13.242  -1.287   7.608  0.1047 -1.3633  1.6625
  592MOL0     H79898  13.042  -1.448   7.654 -2.8335 -1.0252 -0.2104
  592MOL0     H79899  13.004  -1.278   7.633 -3.8668 -1.7602 -1.4332
  592MOL0     H79900  13.388  -0.941   7.114  2.2540  1.4435  3.9072
  592MOL0     H79901  13.249  -0.821   6.995  0.2475  1.5009  0.7560
  592MOL0     H79902  13.198  -0.341   6.828 -2.9916  2.6453  2.5517
  592MOL0     H79903  13.034  -0.182   6.749  0.8443 -0.1165 -1.5520
  592MOL0     H79904  11.515   0.756   7.259 -1.0735 -3.8265 -1.7752
  592MOL0     H79905  11.324   0.744   7.152 -0.8856  4.1598  2.3576
  592MOL0     H79906  11.051   0.951   6.820 -3.5831  1.4308 -0.1074
  592MOL0     H79907  10.822   0.927   6.762 -0.7316  0.1428 -1.0376
  592MOL0     H79908  10.659   0.573   6.555 -1.3464 -0.8339 -1.7550
  592MOL0     H79909  10.730   0.652   6.417  3.3272  2.3002  1.4734
  592MOL0     H79910  10.486   0.656   6.379  0.2138  2.0769  0.1509
  592MOL0     H79911  10.519   0.816   6.433 -0.5425  0.6434  0.7221
  592MOL0     H79912  10.442   0.602   6.641  1.0847  0.0255  0.4560
  592MOL0     H79913  10.318   0.675   6.544  1.8742 -1.3463 -1.7968
  592MOL0     H79914  10.510   0.863   6.692 -0.0872  2.0925 -1.2962
  592MOL0     H79915  10.339   0.881   6.633  0.4154 -1.7015 -3.3106
  592MOL0     H79916  10.204   0.687   6.967  3.3900 -1.7212  2.0050
  592MOL0     H79917  10.898   0.579   6.537 -1.8163  0.0482  1.5311
  592MOL0     H79918  11.165   0.472   6.727 -1.7462  0.2887  0.5918
  592MOL0     H79919  11.071   0.439   6.583  2.1021  0.4405 -2.2106
  592MOL0     H79920  11.210   0.523   6.557 -1.3467  1.6210 -2.7177
  593MOL0     O79921   2.363  10.599   8.054  0.1612  0.1617 -0.0459
  593MOL0     C79922   2.454  10.517   8.049  0.4179  0.1339 -0.2235
  593MOL0     O79923   2.592  10.555   8.060  0.0640  1.1615  0.1684
  593MOL0     C79924   2.608  10.690   8.029  0.6444 -0.6674  1.1932
  593MOL0     C79925   2.629  10.747   7.904  0.5566  0.3954  0.8851
  593MOL0     C79926   2.625  10.889   7.876 -0.3175  0.1391 -0.8934
  593MOL0     C79927   2.612  10.969   7.990  0.4321  0.9541  0.1834
  593MOL0     O79928   2.615  11.108   7.975 -0.0356  0.8232 -0.0926
  593MOL0     C79929   2.697  11.186   8.059  0.6498  0.2387 -1.0668
  593MOL0     C79930   2.610  11.264   8.157 -0.3433 -1.0217  0.5523
  593MOL0     C79931   2.477  11.305   8.082 -0.4998 -0.6958 -0.4726
  593MOL0     C79932   2.379  11.409   8.137  0.0726  0.3946 -0.0554
  593MOL0     C79933   2.283  11.452   8.034  1.1327 -0.4263 -0.3709
  593MOL0     C79934   2.160  11.542   8.073 -0.3287  0.5928 -0.4530
  593MOL0     C79935   2.052  11.525   7.973  0.1098 -0.4101 -0.5265
  593MOL0     C79936   1.927  11.604   8.025  0.0604  0.4112  0.4324
  593MOL0     N79937   1.806  11.589   7.948 -0.5467 -0.5324  0.1473
  593MOL0     C79938   1.719  11.483   7.971  0.2288 -0.2540  0.9965
  593MOL0     C79939   1.617  11.504   7.886 -0.6650  0.2958  0.2385
  593MOL0     C79940   1.509  11.407   7.873  0.6279  0.5430 -0.4136
  593MOL0     C79941   1.379  11.483   7.825 -0.3773  0.0532 -0.1048
  593MOL0     C79942   1.260  11.386   7.830 -0.2550 -0.1192  1.2383
  593MOL0     C79943   1.138  11.468   7.774  0.4256  0.3516 -0.2679
  593MOL0     O79944   1.102  11.572   7.872  0.1465  0.0510 -0.4995
  593MOL0     C79945   0.977  11.554   7.929  0.5539 -0.3315  0.5137
  593MOL0     C79946   0.968  11.482   8.048  0.0156  0.2502  0.5604
  593MOL0     C79947   0.856  11.458   8.118 -0.2760  0.5968  0.2576
  593MOL0     C79948   0.728  11.498   8.072  0.1797 -0.6999  0.3331
  593MOL0     C79949   0.604  11.456   8.130  0.0680 -0.0911  0.1374
  593MOL0     O79950   0.595  11.371   8.239  0.1708  0.3164  0.5143
  593MOL0     C79951   0.472  11.357   8.301 -0.2915 -0.5969  0.3028
  593MOL0     C79952   0.365  11.301   8.232  0.5892  0.4247  0.1743
  593MOL0     C79953   0.248  11.265   8.308 -0.3452  0.2488 -0.0784
  593MOL0     C79954   0.248  11.268   8.451 -0.6938  0.7185  1.1221
  593MOL0     O79955   0.133  11.227   8.510 -0.6437 -0.8978  0.4482
  593MOL0     C79956   0.085  11.311   8.619 -0.2117 -0.9636  0.9108
  593MOL0     C79957  -0.061  11.286   8.675  0.3303  0.0376  0.1157
  593MOL0     C79958  -0.084  11.132   8.707  0.1527 -0.3803  0.5685
  593MOL0     C79959  -0.231  11.103   8.715 -0.6201  0.0057  0.0487
  593MOL0     C79960  -0.262  10.959   8.744 -0.0957  0.5985  0.0958
  593MOL0     C79961  -0.407  10.942   8.713  0.1005 -0.6521  0.3738
  593MOL0     C79962  -0.459  10.803   8.729  0.9517 -0.6577  0.4083
  593MOL0     C79963  -0.596  10.799   8.798 -0.0102 -0.1291 -0.0172
  593MOL0    Cl79964  -0.723  10.911   8.742  0.2176  0.3467  0.2594
  593MOL0     C79965   0.359  11.315   8.517 -0.3460 -0.0572 -0.3920
  593MOL0     C79966   0.473  11.350   8.441  0.0070  0.0761  0.2117
  593MOL0     O79967   0.511  11.516   8.076  0.0393 -0.7272  0.6598
  593MOL0     C79968   0.735  11.569   7.949  0.0993  0.1436  0.1206
  593MOL0     C79969   0.860  11.590   7.878 -0.6462 -0.1339  0.0486
  593MOL0     N79970   1.651  11.604   7.797  0.2076 -0.0936  0.6534
  593MOL0     N79971   1.758  11.659   7.843  1.0427 -1.0131 -0.4315
  593MOL0     C79972   2.597  10.913   8.112  0.8155 -0.4933 -0.0255
  593MOL0     C79973   2.591  10.785   8.138  1.1237 -0.1013 -0.0653
  593MOL0     C79974   2.438  10.366   8.047  0.1233 -0.2041 -0.1449
  593MOL0     C79975   2.550  10.289   8.019 -0.5936  0.0792  0.0462
  593MOL0     C79976   2.547  10.152   8.052 -0.0189  1.0218 -0.0049
  593MOL0     C79977   2.427  10.088   8.088  0.1560 -0.2237 -0.2139
  593MOL0     O79978   2.405   9.953   8.103  0.2650 -0.0208 -0.2903
  593MOL0     C79979   2.514   9.870   8.065 -0.3366  1.1425  0.6108
  593MOL0     C79980   2.512   9.840   7.918  0.2541  0.7454 -0.2927
  593MOL0     C79981   2.631   9.743   7.865  0.2823 -0.1055  0.3571
  593MOL0     C79982   2.688   9.790   7.733 -0.7699  0.6953 -0.4668
  593MOL0     C79983   2.716   9.669   7.654 -0.6208  0.2289 -0.3623
  593MOL0     C79984   2.756   9.559   7.615  0.3307 -0.5911 -0.6229
  593MOL0     C79985   2.313  10.168   8.096 -0.3454  0.1963  0.5353
  593MOL0     C79986   2.316  10.306   8.070  0.4330 -0.8818  0.6007
  593MOL0     C79987   2.188  10.382   8.084  0.2664  0.1957 -0.7974
  593MOL0     H79988   2.636  10.670   7.827 -3.6504 -0.5867  1.2579
  593MOL0     H79989   2.655  10.933   7.781  0.9887  2.2563  0.4434
  593MOL0     H79990   2.777  11.130   8.109  3.2800  3.3590 -1.4609
  593MOL0     H79991   2.762  11.252   8.002  2.4464 -0.6707 -0.1509
  593MOL0     H79992   2.665  11.351   8.193 -2.6824  0.0109  1.8724
  593MOL0     H79993   2.589  11.195   8.240  1.8404 -1.0721  1.1166
  593MOL0     H79994   2.420  11.212   8.068  2.2387 -2.6665  0.5656
  593MOL0     H79995   2.510  11.333   7.981  2.0499 -2.2862 -0.1533
  593MOL0     H79996   2.324  11.370   8.223  0.1219 -1.7829 -0.9488
  593MOL0     H79997   2.435  11.493   8.180 -1.6678  0.8766  1.3974
  593MOL0     H79998   2.334  11.513   7.958  0.5435 -2.0363 -2.1309
  593MOL0     H79999   2.243  11.365   7.981 -2.3292  0.9410 -0.2430
  593MOL0     H80000   2.129  11.524   8.176  1.7678  1.5142  0.4164
  593MOL0     H80001   2.199  11.645   8.072  2.5533 -0.3702  0.7442
  593MOL0     H80002   2.028  11.418   7.972  2.4155 -1.0970  2.7993
  593MOL0     H80003   2.082  11.549   7.871  1.3975 -4.1298 -1.1642
  593MOL0     H80004   1.907  11.573   8.128 -0.9979 -0.3965 -0.0060
  593MOL0     H80005   1.948  11.712   8.022  1.8767  0.0714 -1.2601
  593MOL0     H80006   1.723  11.405   8.046  0.3088 -0.1404  1.1117
  593MOL0     H80007   1.542  11.328   7.806  1.4653  0.1023  0.5003
  593MOL0     H80008   1.489  11.356   7.967 -0.5538  0.4227 -0.7153
  593MOL0     H80009   1.357  11.564   7.895  2.0408  1.6728 -1.0908
  593MOL0     H80010   1.407  11.534   7.733 -2.9675  0.7625 -0.5973
  593MOL0     H80011   1.250  11.354   7.934 -0.9304  0.9229  1.5095
  593MOL0     H80012   1.280  11.305   7.760  1.9431  2.4593 -1.3947
  593MOL0     H80013   1.052  11.407   7.746 -1.3970  1.8065  1.8448
  593MOL0     H80014   1.177  11.508   7.680  1.6010 -2.7585 -1.2535
  593MOL0     H80015   1.056  11.436   8.092  0.3217  2.4376  2.4334
  593MOL0     H80016   0.857  11.408   8.214 -2.4270  0.9497  0.4979
  593MOL0     H80017   0.365  11.272   8.128 -0.3472 -3.6124  1.1224
  593MOL0     H80018   0.160  11.237   8.251  0.0365  1.0802 -1.1222
  593MOL0     H80019   0.150  11.318   8.706 -0.2598  1.8930  0.8375
  593MOL0     H80020   0.092  11.415   8.584  0.4158 -0.5198  2.2794
  593MOL0     H80021  -0.072  11.339   8.771  1.6816  2.0353 -0.7504
  593MOL0     H80022  -0.132  11.309   8.596  1.3932 -0.4667 -1.0201
  593MOL0     H80023  -0.037  11.059   8.641 -0.0783 -1.0065  1.0923
  593MOL0     H80024  -0.027  11.124   8.800  2.6149 -1.0200 -0.9124
  593MOL0     H80025  -0.281  11.144   8.628 -0.1071  3.4086  1.2260
  593MOL0     H80026  -0.273  11.168   8.792 -0.5841  0.8104 -0.6047
  593MOL0     H80027  -0.230  10.932   8.845 -0.4980  1.0692  0.3518
  593MOL0     H80028  -0.214  10.894   8.671  0.2038  0.2765  0.5702
  593MOL0     H80029  -0.461  11.011   8.779 -0.4614 -1.3679  0.6673
  593MOL0     H80030  -0.424  10.963   8.607  3.3541 -1.9325 -0.5267
  593MOL0     H80031  -0.391  10.747   8.793  2.1266  2.5932  2.2259
  593MOL0     H80032  -0.466  10.750   8.633  2.4073  0.7200 -0.5130
  593MOL0     H80033  -0.628  10.694   8.800 -0.4330  0.0046  0.8706
  593MOL0     H80034  -0.586  10.821   8.905 -1.5724  3.2653 -0.4387
  593MOL0     H80035   0.362  11.329   8.625 -1.3398  0.6561 -0.4375
  593MOL0     H80036   0.562  11.393   8.486 -0.5507 -0.0434  1.4788
  593MOL0     H80037   0.646  11.624   7.919 -0.0314 -1.0063 -1.7509
  593MOL0     H80038   0.852  11.628   7.777 -1.2287  1.0201  0.5122
  593MOL0     H80039   2.575  10.973   8.199 -2.5458 -0.2493 -0.9097
  593MOL0     H80040   2.588  10.737   8.235  1.8854 -2.7807 -1.2799
  593MOL0     H80041   2.643  10.331   7.980 -0.8398 -0.5854 -1.3283
  593MOL0     H80042   2.637  10.092   8.045 -1.2382 -0.7691 -1.4885
  593MOL0     H80043   2.497   9.771   8.109 -0.5988  1.0973  0.4081
  593MOL0     H80044   2.612   9.905   8.095  0.9040 -1.2149 -0.3985
  593MOL0     H80045   2.514   9.933   7.860 -0.4274  0.6924 -0.4151
  593MOL0     H80046   2.411   9.799   7.906  0.7453 -0.4815 -0.3214
  593MOL0     H80047   2.583   9.645   7.862 -0.7731  0.3440  1.5979
  593MOL0     H80048   2.713   9.742   7.937 -1.4075 -1.0400  2.3694
  593MOL0     H80049   2.603   9.837   7.683  0.0254  0.3972 -2.1698
  593MOL0     H80050   2.772   9.859   7.750  0.8617 -1.2627 -0.1173
  593MOL0     H80051   2.795   9.462   7.590  3.9354 -0.5393  3.5646
  593MOL0     H80052   2.224  10.110   8.116  0.7842 -1.6632  0.4961
  593MOL0     H80053   2.187  10.445   8.173 -1.1108 -1.2599  0.2863
  593MOL0     H80054   2.176  10.455   8.003 -0.1220  0.0680 -0.8598
  593MOL0     H80055   2.093  10.329   8.100  0.1372  0.2764 -1.2886
  594MOL0     O80056   8.770   5.060   6.300  0.2542 -0.1443 -0.4298
  594MOL0     C80057   8.772   4.992   6.399 -0.4271 -0.2819  0.3671
  594MOL0     O80058   8.663   4.970   6.494  0.6493 -0.8487 -0.1423
  594MOL0     C80059   8.535   5.010   6.447 -0.1059  0.8721  0.3167
  594MOL0     C80060   8.500   5.143   6.402 -0.4689  0.5669  0.0026
  594MOL0     C80061   8.371   5.185   6.387  0.1152  0.2908  0.0620
  594MOL0     C80062   8.268   5.093   6.401 -0.7437 -0.0689  0.1833
  594MOL0     O80063   8.135   5.129   6.391 -0.0608 -0.1170 -0.6651
  594MOL0     C80064   8.050   5.101   6.503 -0.0751  0.8411  0.3546
  594MOL0     C80065   7.915   5.159   6.475 -0.4645 -0.1889  0.0086
  594MOL0     C80066   7.831   5.138   6.597 -0.5007 -0.4672 -0.6122
  594MOL0     C80067   7.692   5.176   6.572  0.1131 -0.0425  0.8296
  594MOL0     C80068   7.601   5.148   6.696  0.4313 -0.2614 -0.3924
  594MOL0     C80069   7.466   5.211   6.666 -0.2029  0.2170  0.6065
  594MOL0     C80070   7.358   5.182   6.761  0.1971  0.9463 -0.6934
  594MOL0     C80071   7.394   5.177   6.912 -0.7974  1.1981  0.4203
  594MOL0     N80072   7.278   5.198   6.996  0.0424 -0.2555 -0.6985
  594MOL0     C80073   7.149   5.154   6.956 -0.6392 -0.2269  1.2322
  594MOL0     C80074   7.065   5.188   7.055  0.0710  0.4915  0.7687
  594MOL0     C80075   6.917   5.169   7.059  0.5066  0.0436  0.7281
  594MOL0     C80076   6.838   5.299   7.033  1.0497 -0.4547 -0.1082
  594MOL0     C80077   6.849   5.349   6.892  0.3139 -0.2225  1.4263
  594MOL0     C80078   6.827   5.500   6.869 -0.1358 -1.0689 -0.1257
  594MOL0     O80079   6.850   5.540   6.734  0.0315 -0.7822  0.3736
  594MOL0     C80080   6.977   5.534   6.688  0.4159 -1.1923  0.0612
  594MOL0     C80081   7.097   5.533   6.764 -0.3707  0.1450  0.2549
  594MOL0     C80082   7.210   5.541   6.697  0.2310  0.3898 -0.0826
  594MOL0     C80083   7.217   5.539   6.552  0.1632 -0.9243  0.3334
  594MOL0     C80084   7.343   5.551   6.479  0.4378  0.0822  0.2384
  594MOL0     O80085   7.458   5.571   6.543 -0.5090  0.8751 -0.4621
  594MOL0     C80086   7.574   5.585   6.468  0.0559 -0.3312 -0.2204
  594MOL0     C80087   7.585   5.659   6.348 -0.7286 -0.2417 -0.7372
  594MOL0     C80088   7.714   5.687   6.289  0.4053  0.3209 -1.5180
  594MOL0     C80089   7.832   5.645   6.349  0.7277  0.1721 -0.4116
  594MOL0     O80090   7.947   5.678   6.282  0.2090 -0.1740 -0.0278
  594MOL0     C80091   8.040   5.570   6.265  0.4563 -0.4753 -0.4197
  594MOL0     C80092   8.137   5.613   6.159 -0.7609  0.7341 -0.1660
  594MOL0     C80093   8.255   5.522   6.141 -0.6110  0.2512  0.6038
  594MOL0     C80094   8.336   5.586   6.025  0.1511  0.0420  0.1015
  594MOL0     C80095   8.449   5.500   5.966  0.2306  0.5456 -0.7409
  594MOL0     C80096   8.552   5.462   6.072 -0.4581  0.3027  0.3024
  594MOL0     C80097   8.666   5.385   6.006  0.0002 -0.5482  0.3966
  594MOL0     C80098   8.731   5.293   6.113  0.5880 -0.0928  0.7550
  594MOL0    Cl80099   8.847   5.394   6.196 -0.2994 -0.2062 -0.6396
  594MOL0     C80100   7.815   5.565   6.468  0.7067 -0.3262  0.5775
  594MOL0     C80101   7.694   5.540   6.530  0.1676 -0.1317 -0.3683
  594MOL0     O80102   7.327   5.541   6.354  1.1211 -0.6860  0.6143
  594MOL0     C80103   7.096   5.521   6.483  0.3252 -0.0375  0.0022
  594MOL0     C80104   6.975   5.522   6.547 -0.2279  0.7475 -0.3596
  594MOL0     N80105   7.140   5.246   7.150  0.1962 -0.4423  0.5968
  594MOL0     N80106   7.266   5.252   7.115 -0.4076 -0.4919  0.0723
  594MOL0     C80107   8.307   4.959   6.418  0.1022 -0.2269 -0.1476
  594MOL0     C80108   8.443   4.919   6.445 -0.3738 -0.2497 -0.0413
  594MOL0     C80109   8.916   4.938   6.435 -0.2748 -0.4889 -0.3479
  594MOL0     C80110   8.924   4.857   6.554  0.0606 -0.2063 -0.9307
  594MOL0     C80111   9.047   4.814   6.600  0.3780 -0.8909  0.5508
  594MOL0     C80112   9.169   4.857   6.548  0.6087  0.1792 -0.0326
  594MOL0     O80113   9.283   4.804   6.602 -0.2692  0.3143 -0.8110
  594MOL0     C80114   9.419   4.853   6.577 -0.1750 -0.4161  0.5154
  594MOL0     C80115   9.489   4.754   6.486  0.3336 -1.1633  0.2730
  594MOL0     C80116   9.630   4.804   6.467 -0.0342 -0.3753 -0.1961
  594MOL0     C80117   9.727   4.797   6.588 -0.2033 -0.3664 -1.1867
  594MOL0     C80118   9.867   4.831   6.548 -0.5730  0.6765  0.3103
  594MOL0     C80119   9.977   4.854   6.515 -0.4850 -0.7686  0.0635
  594MOL0     C80120   9.162   4.931   6.433 -0.1467  0.5240 -0.3256
  594MOL0     C80121   9.038   4.974   6.374 -0.1983  1.2196  0.4322
  594MOL0     C80122   9.072   5.086   6.277  1.3425 -0.0680  0.4594
  594MOL0     H80123   8.576   5.220   6.407  0.9421 -0.8569  2.3379
  594MOL0     H80124   8.356   5.290   6.367 -0.2905  0.0837 -0.8009
  594MOL0     H80125   8.034   4.996   6.528 -0.8267  0.9345  0.2852
  594MOL0     H80126   8.094   5.145   6.593 -1.4754  0.0303  1.4767
  594MOL0     H80127   7.882   5.112   6.381 -0.4570 -2.2208  0.9643
  594MOL0     H80128   7.924   5.266   6.457 -0.2050 -0.7378 -4.4172
  594MOL0     H80129   7.870   5.198   6.680  0.1777  0.7769 -1.7899
  594MOL0     H80130   7.835   5.030   6.614  0.3662 -0.3701 -0.2021
  594MOL0     H80131   7.689   5.284   6.557 -0.9108 -0.0281  1.0510
  594MOL0     H80132   7.639   5.134   6.486 -1.0929  0.1255  1.4658
  594MOL0     H80133   7.602   5.040   6.717  1.1653  0.2070  2.2750
  594MOL0     H80134   7.646   5.196   6.783  0.4747 -0.7125 -0.1646
  594MOL0     H80135   7.478   5.318   6.646 -2.5351 -0.2747 -5.3669
  594MOL0     H80136   7.423   5.178   6.572 -3.2304 -0.2677  2.0440
  594MOL0     H80137   7.314   5.087   6.728 -0.0030  2.2735 -4.8173
  594MOL0     H80138   7.278   5.249   6.729  1.2816  1.3917 -2.6496
  594MOL0     H80139   7.444   5.085   6.945 -3.8091 -1.0884 -0.9334
  594MOL0     H80140   7.465   5.260   6.924  1.8587 -0.7866 -0.7370
  594MOL0     H80141   7.126   5.106   6.862 -1.4232  2.2576  0.0648
  594MOL0     H80142   6.881   5.100   6.982 -1.4245  1.0304  0.6906
  594MOL0     H80143   6.883   5.115   7.148  0.6099  0.3390  0.9489
  594MOL0     H80144   6.731   5.293   7.058  0.5415  1.5939 -1.5625
  594MOL0     H80145   6.880   5.371   7.104  1.6606 -1.9696  1.1271
  594MOL0     H80146   6.775   5.294   6.834  0.8047 -1.2840  1.7726
  594MOL0     H80147   6.941   5.317   6.841 -2.0156  0.3964 -3.8055
  594MOL0     H80148   6.898   5.557   6.930 -0.7798  0.8026 -1.0585
  594MOL0     H80149   6.729   5.544   6.890  0.7564  1.2424 -0.4849
  594MOL0     H80150   7.097   5.528   6.873  1.4857 -3.9774  0.2389
  594MOL0     H80151   7.302   5.548   6.753 -2.0573  1.2279  3.9756
  594MOL0     H80152   7.502   5.701   6.293 -1.0921  2.5920  1.7130
  594MOL0     H80153   7.727   5.747   6.200  3.4810  1.4184 -0.4511
  594MOL0     H80154   8.093   5.539   6.355 -0.0784 -0.2906 -0.0327
  594MOL0     H80155   7.989   5.478   6.234 -2.0372 -0.1452  2.2712
  594MOL0     H80156   8.080   5.615   6.065  0.8607  0.5760 -1.1908
  594MOL0     H80157   8.171   5.713   6.188 -0.2084  0.4059  0.3532
  594MOL0     H80158   8.309   5.520   6.236 -1.8416 -4.0448  1.4356
  594MOL0     H80159   8.225   5.419   6.118  2.1150 -0.2803 -0.8997
  594MOL0     H80160   8.376   5.684   6.053  0.8518 -0.0956 -0.4001
  594MOL0     H80161   8.262   5.600   5.945  0.6628  0.8422 -0.2437
  594MOL0     H80162   8.501   5.559   5.890  1.8258 -0.1482 -0.2173
  594MOL0     H80163   8.403   5.407   5.929  1.8690 -1.6492  2.2978
  594MOL0     H80164   8.609   5.548   6.109  2.3589  0.2176 -3.2715
  594MOL0     H80165   8.510   5.402   6.153  1.9402 -1.3423  0.3968
  594MOL0     H80166   8.748   5.451   5.976  0.2660 -1.6954 -1.5586
  594MOL0     H80167   8.641   5.329   5.916  1.1173 -0.5998  0.1126
  594MOL0     H80168   8.660   5.257   6.188 -1.2920 -2.2033 -1.8542
  594MOL0     H80169   8.775   5.203   6.070  0.5086  0.1110  0.2378
  594MOL0     H80170   7.912   5.528   6.500  1.0660  0.4672  0.4588
  594MOL0     H80171   7.686   5.491   6.627  0.9941 -0.8730 -0.6560
  594MOL0     H80172   7.106   5.506   6.376  2.5425 -1.4850  0.3610
  594MOL0     H80173   6.881   5.514   6.493 -1.3321 -0.4596  1.6123
  594MOL0     H80174   8.232   4.882   6.403  0.5607 -0.4647 -1.3670
  594MOL0     H80175   8.477   4.817   6.462  2.5965  0.1944 -2.5081
  594MOL0     H80176   8.838   4.825   6.613  0.0428  2.9548  0.9851
  594MOL0     H80177   9.052   4.747   6.685 -0.0720 -2.1309 -0.3793
  594MOL0     H80178   9.468   4.862   6.675 -3.3736 -1.7469  2.4169
  594MOL0     H80179   9.408   4.956   6.541 -0.5008 -0.8485 -0.6588
  594MOL0     H80180   9.434   4.730   6.394 -0.5906  0.6654  0.3041
  594MOL0     H80181   9.498   4.663   6.547 -0.6796 -0.0620  2.1485
  594MOL0     H80182   9.625   4.911   6.446 -0.0147 -0.2586  0.3809
  594MOL0     H80183   9.667   4.750   6.380 -0.8368 -3.3493  1.1861
  594MOL0     H80184   9.707   4.867   6.670  3.6321 -0.7888  0.3182
  594MOL0     H80185   9.728   4.695   6.628 -1.7830 -0.4290 -1.2652
  594MOL0     H80186  10.079   4.875   6.487 -1.0691  0.7368 -1.0900
  594MOL0     H80187   9.259   4.959   6.393 -0.1159  1.1629  0.1784
  594MOL0     H80188   8.984   5.141   6.243  0.5790  0.5647  3.1879
  594MOL0     H80189   9.127   5.159   6.337  0.7446  0.3383  0.5270
  594MOL0     H80190   9.124   5.062   6.184 -2.0047  1.2388 -1.9620
  595MOL0     O80191   5.824   7.701   2.610  0.4018  0.2139 -0.0919
  595MOL0     C80192   5.919   7.743   2.546  0.5435  0.6386  0.4026
  595MOL0     O80193   5.908   7.779   2.415 -0.6224 -0.0342 -0.3938
  595MOL0     C80194   5.798   7.733   2.347 -0.1942  0.2215  0.0723
  595MOL0     C80195   5.717   7.828   2.286 -0.7523 -0.3773 -0.0362
  595MOL0     C80196   5.616   7.791   2.202  0.1274  0.0050 -0.2447
  595MOL0     C80197   5.593   7.654   2.192  0.2437  0.0008 -0.0581
  595MOL0     O80198   5.489   7.607   2.107 -0.3610  0.2806 -0.4972
  595MOL0     C80199   5.359   7.660   2.130 -0.0070 -1.0057  0.0589
  595MOL0     C80200   5.323   7.764   2.016 -0.1642 -0.7592 -0.4009
  595MOL0     C80201   5.305   7.694   1.885  0.0057  0.8184  0.2540
  595MOL0     C80202   5.181   7.604   1.874  0.0024 -0.1274  0.2048
  595MOL0     C80203   5.049   7.664   1.869  0.7706 -0.5462  0.0874
  595MOL0     C80204   4.942   7.566   1.815  0.7853 -0.0141  0.2457
  595MOL0     C80205   4.801   7.626   1.841  0.7063 -0.9156 -0.3498
  595MOL0     C80206   4.683   7.560   1.780 -0.1791 -0.1269 -0.2177
  595MOL0     N80207   4.630   7.446   1.859 -0.1292 -1.0814 -0.2543
  595MOL0     C80208   4.674   7.318   1.882  0.5676 -0.2790 -0.3747
  595MOL0     C80209   4.578   7.255   1.955 -0.6442 -0.6677 -0.3837
  595MOL0     C80210   4.574   7.111   1.992  0.6830  0.3071 -0.4507
  595MOL0     C80211   4.443   7.047   1.933  0.6278 -0.0222  0.2210
  595MOL0     C80212   4.430   6.904   1.953  0.0595 -0.5183  0.6097
  595MOL0     C80213   4.420   6.869   2.099 -0.0312  0.6161 -0.5984
  595MOL0     O80214   4.282   6.872   2.125 -0.0535  0.1346  0.2852
  595MOL0     C80215   4.211   6.757   2.127 -0.3649 -0.7544  0.5254
  595MOL0     C80216   4.253   6.628   2.116 -0.1343  0.4710  0.2636
  595MOL0     C80217   4.164   6.517   2.112  0.2962  0.0140 -0.1264
  595MOL0     C80218   4.026   6.536   2.141 -0.1988 -0.8052  1.0184
  595MOL0     C80219   3.938   6.419   2.145  0.0321  0.2989  0.0845
  595MOL0     O80220   3.982   6.297   2.107  0.5663 -0.0825  0.4486
  595MOL0     C80221   3.879   6.204   2.111 -0.7119 -0.2101 -0.9906
  595MOL0     C80222   3.788   6.183   2.013  0.6070  0.4744 -0.6272
  595MOL0     C80223   3.705   6.069   2.005 -0.3719 -0.2343 -1.6496
  595MOL0     C80224   3.708   5.976   2.110 -0.7398  0.6801  0.0136
  595MOL0     O80225   3.627   5.863   2.113  0.5596 -0.2930 -0.0533
  595MOL0     C80226   3.493   5.901   2.097  1.7874  0.3500  0.0871
  595MOL0     C80227   3.411   5.775   2.103  0.4661  0.4429  0.5179
  595MOL0     C80228   3.262   5.804   2.082 -0.2054 -0.9574 -0.8012
  595MOL0     C80229   3.172   5.684   2.110 -0.7018  0.2267  0.6621
  595MOL0     C80230   3.030   5.707   2.054 -0.3908  1.2953 -0.4415
  595MOL0     C80231   2.929   5.607   2.118  1.1238 -0.5158 -0.1218
  595MOL0     C80232   2.793   5.638   2.061 -0.2895  0.2420  0.5817
  595MOL0     C80233   2.684   5.572   2.142  0.8096 -0.5972 -0.0460
  595MOL0    Cl80234   2.689   5.403   2.107  0.3779 -0.4543  0.0703
  595MOL0     C80235   3.807   5.995   2.207  0.0338 -1.0257 -0.3488
  595MOL0     C80236   3.889   6.108   2.212 -0.3967  0.8984  0.3382
  595MOL0     O80237   3.826   6.446   2.191 -0.4856  0.0356  0.4548
  595MOL0     C80238   3.980   6.671   2.146 -0.2394  0.0736 -0.0039
  595MOL0     C80239   4.073   6.778   2.144  0.3932 -0.3310  1.0804
  595MOL0     N80240   4.479   7.348   1.981 -0.9259  0.3647 -0.0218
  595MOL0     N80241   4.510   7.453   1.918 -0.3535 -0.2877 -0.3134
  595MOL0     C80242   5.675   7.558   2.253 -0.5550 -0.0117  0.5314
  595MOL0     C80243   5.784   7.592   2.335  0.3811 -0.2395  0.3595
  595MOL0     C80244   6.060   7.757   2.604  0.5084  0.1541 -0.0321
  595MOL0     C80245   6.171   7.777   2.525 -0.6331 -0.1093  0.7204
  595MOL0     C80246   6.304   7.802   2.577 -0.1241  0.0110  1.0720
  595MOL0     C80247   6.333   7.777   2.709 -0.0321  0.2716  0.2848
  595MOL0     O80248   6.450   7.785   2.772  0.2333 -0.0001 -0.4255
  595MOL0     C80249   6.559   7.866   2.731 -0.0200  0.5944  0.2474
  595MOL0     C80250   6.530   8.004   2.791 -0.0016  0.2583  0.5707
  595MOL0     C80251   6.636   8.109   2.761  0.0435  0.0658 -0.6728
  595MOL0     C80252   6.780   8.071   2.802 -0.2323 -0.2220 -0.0902
  595MOL0     C80253   6.861   8.190   2.775 -0.1246 -0.6340 -0.6411
  595MOL0     C80254   6.932   8.291   2.762 -1.8057  0.2755  0.2299
  595MOL0     C80255   6.228   7.718   2.781  0.4148 -0.3514  0.1271
  595MOL0     C80256   6.093   7.709   2.736 -0.4923 -0.8555  0.1789
  595MOL0     C80257   6.001   7.654   2.837  0.5403 -0.0880  0.7617
  595MOL0     H80258   5.718   7.934   2.309  2.3265 -0.2401 -0.3807
  595MOL0     H80259   5.557   7.868   2.153 -1.7218 -2.0774 -1.4904
  595MOL0     H80260   5.285   7.582   2.152 -1.3210 -0.1443 -1.0802
  595MOL0     H80261   5.372   7.713   2.225  3.7194 -0.5776 -0.5510
  595MOL0     H80262   5.388   7.851   2.005  0.0367 -0.2998  3.0993
  595MOL0     H80263   5.233   7.815   2.053  0.2390  0.1341 -0.6384
  595MOL0     H80264   5.391   7.631   1.862 -0.6750 -0.8413  1.9834
  595MOL0     H80265   5.278   7.762   1.803  2.0250  0.0959 -1.0739
  595MOL0     H80266   5.196   7.541   1.786 -0.8007  2.0922 -1.6178
  595MOL0     H80267   5.173   7.532   1.955  1.7249 -1.9934 -1.1789
  595MOL0     H80268   5.023   7.681   1.974 -2.1803 -0.6193 -0.5229
  595MOL0     H80269   5.036   7.744   1.796 -2.0786 -2.8489 -2.2362
  595MOL0     H80270   4.956   7.543   1.709  2.1268  0.4149  0.3226
  595MOL0     H80271   4.954   7.468   1.861  0.6414 -1.1003 -1.8948
  595MOL0     H80272   4.802   7.732   1.812  0.1179  0.1019  2.9058
  595MOL0     H80273   4.776   7.628   1.947  2.0139 -0.0350 -0.0346
  595MOL0     H80274   4.611   7.641   1.770  2.0716  2.3266  1.8254
  595MOL0     H80275   4.708   7.509   1.686 -1.3272 -0.4356 -0.3727
  595MOL0     H80276   4.768   7.275   1.848  1.4717  0.7581  0.7290
  595MOL0     H80277   4.661   7.054   1.958 -0.6734 -1.3400 -1.3029
  595MOL0     H80278   4.571   7.105   2.101 -1.4209  4.8144 -0.0104
  595MOL0     H80279   4.349   7.094   1.963 -1.3787 -1.2791 -3.5326
  595MOL0     H80280   4.449   7.060   1.825  1.5182 -1.3570  0.0954
  595MOL0     H80281   4.517   6.853   1.910 -0.3289 -0.4571 -0.2592
  595MOL0     H80282   4.350   6.853   1.898  0.8100  0.0634 -1.0927
  595MOL0     H80283   4.458   6.943   2.170 -2.2507  0.8058  0.4867
  595MOL0     H80284   4.468   6.779   2.140 -0.0182  1.5294  1.5266
  595MOL0     H80285   4.358   6.613   2.096 -0.2531 -0.5611  0.3824
  595MOL0     H80286   4.208   6.419   2.096 -1.2086 -1.2147  2.6069
  595MOL0     H80287   3.793   6.264   1.942  2.9953  2.3220  1.4553
  595MOL0     H80288   3.639   6.064   1.919  0.3503  2.2901 -2.4345
  595MOL0     H80289   3.474   5.967   2.182  1.8419  0.4012  0.0598
  595MOL0     H80290   3.464   5.946   2.001  0.2662 -1.0702 -0.1668
  595MOL0     H80291   3.454   5.708   2.029  0.5821  0.1401  0.8553
  595MOL0     H80292   3.430   5.731   2.202  1.2842  0.6150  0.4443
  595MOL0     H80293   3.230   5.885   2.149 -1.9750 -0.5163 -2.0901
  595MOL0     H80294   3.238   5.844   1.983 -5.1126  2.3864  1.3583
  595MOL0     H80295   3.166   5.655   2.215  0.7257 -0.7939  0.4949
  595MOL0     H80296   3.213   5.591   2.068 -1.8010  0.5589 -1.2511
  595MOL0     H80297   3.043   5.678   1.949 -2.2936  1.7363 -0.8261
  595MOL0     H80298   2.991   5.809   2.059 -4.1019  0.0372 -1.1547
  595MOL0     H80299   2.966   5.506   2.099 -1.2002 -1.4078 -0.1732
  595MOL0     H80300   2.919   5.614   2.226  1.0902  2.9807 -0.2528
  595MOL0     H80301   2.793   5.606   1.957  0.2159  1.4296  0.1980
  595MOL0     H80302   2.784   5.747   2.074 -0.4667  0.2708  0.2290
  595MOL0     H80303   2.714   5.585   2.246  1.6560 -1.1133 -0.2158
  595MOL0     H80304   2.580   5.606   2.131  1.3406  1.0794 -0.1236
  595MOL0     H80305   3.809   5.924   2.289 -2.0676  1.3134  1.8781
  595MOL0     H80306   3.955   6.122   2.297 -0.7932  0.6663  0.6934
  595MOL0     H80307   3.873   6.692   2.149 -0.2037  1.3268 -3.3968
  595MOL0     H80308   4.045   6.882   2.154  0.1831 -0.4829  2.0695
  595MOL0     H80309   5.656   7.452   2.241 -1.9619  0.3981 -1.5009
  595MOL0     H80310   5.854   7.525   2.382  1.1900 -2.7669 -3.9348
  595MOL0     H80311   6.161   7.802   2.420  2.8730  0.7818  0.4890
  595MOL0     H80312   6.377   7.831   2.501 -2.6888  5.6482  0.2220
  595MOL0     H80313   6.566   7.860   2.622 -0.1921  0.6168  0.2360
  595MOL0     H80314   6.651   7.823   2.773 -2.1228 -2.7236  1.9299
  595MOL0     H80315   6.525   7.998   2.900  1.3628 -1.0224  0.5921
  595MOL0     H80316   6.429   8.034   2.762 -0.0127 -0.9479 -0.7408
  595MOL0     H80317   6.609   8.203   2.808  1.3478  1.7257 -3.0455
  595MOL0     H80318   6.652   8.135   2.656  0.9237  4.2947  0.3564
  595MOL0     H80319   6.787   8.044   2.908  1.8300  1.1334  0.1673
  595MOL0     H80320   6.814   7.986   2.743  1.5933 -0.5917  1.4267
  595MOL0     H80321   6.986   8.383   2.749  0.7092 -1.0977  0.3480
  595MOL0     H80322   6.252   7.679   2.880 -0.6396 -2.5599 -0.4226
  595MOL0     H80323   5.985   7.546   2.835  2.0879 -0.3257  0.5141
  595MOL0     H80324   6.034   7.690   2.934  0.8677  0.7974  0.3368
  595MOL0     H80325   5.904   7.700   2.816  1.8898  1.3594 -3.3725
  596MOL0     O80326   4.775   7.249   5.388  0.1415  0.2045 -1.1383
  596MOL0     C80327   4.814   7.338   5.461  0.3102  0.0912  0.3248
  596MOL0     O80328   4.906   7.324   5.548 -0.4084 -0.3441 -0.4444
  596MOL0     C80329   5.000   7.227   5.567 -0.3203 -0.4165 -0.3731
  596MOL0     C80330   5.126   7.269   5.618 -0.1140 -0.0630  0.7192
  596MOL0     C80331   5.221   7.180   5.649 -0.4730 -0.7940 -0.0975
  596MOL0     C80332   5.208   7.045   5.634  1.3542 -0.5434 -0.1437
  596MOL0     O80333   5.317   6.962   5.649 -0.0710  0.4233  0.0227
  596MOL0     C80334   5.319   6.868   5.753 -0.0390  0.0178 -0.8939
  596MOL0     C80335   5.455   6.840   5.814  0.6089 -0.4186  0.0345
  596MOL0     C80336   5.508   6.965   5.889  0.5525 -0.1582 -0.4871
  596MOL0     C80337   5.602   6.924   5.999 -0.1076 -0.9761 -0.4034
  596MOL0     C80338   5.681   7.043   6.061 -0.1902 -0.2474  0.0910
  596MOL0     C80339   5.779   7.000   6.170 -1.1159  0.4939  0.0004
  596MOL0     C80340   5.909   7.090   6.176 -0.3167 -0.1687  0.0984
  596MOL0     C80341   6.005   7.078   6.059  0.5262  0.4529  0.6764
  596MOL0     N80342   6.112   7.179   6.074  0.5926  0.0338 -0.3148
  596MOL0     C80343   6.103   7.316   6.054 -0.2618  1.0783 -0.1934
  596MOL0     C80344   6.231   7.350   6.074  0.1723  0.2786 -0.2809
  596MOL0     C80345   6.297   7.484   6.072  0.2417  0.0476  0.8129
  596MOL0     C80346   6.240   7.595   5.980 -0.8655 -0.2934  0.5698
  596MOL0     C80347   6.286   7.571   5.833 -0.0990 -0.5427 -0.6699
  596MOL0     C80348   6.238   7.692   5.737  0.0519  0.4254 -0.7640
  596MOL0     O80349   6.294   7.816   5.780 -0.0257  0.3586  0.3253
  596MOL0     C80350   6.425   7.849   5.749  0.6446  0.5004 -0.7164
  596MOL0     C80351   6.477   7.963   5.798  0.1695  0.0912  0.2818
  596MOL0     C80352   6.620   7.981   5.793 -0.4438 -0.3282  0.9232
  596MOL0     C80353   6.702   7.902   5.718 -0.2555  0.0817  0.5601
  596MOL0     C80354   6.854   7.911   5.714 -0.4818  0.1218  0.2485
  596MOL0     O80355   6.926   7.956   5.822 -0.1748  0.4496 -0.2472
  596MOL0     C80356   7.055   7.959   5.811 -0.0969  0.9070 -1.4726
  596MOL0     C80357   7.124   8.073   5.780  1.2093  0.0970  0.9613
  596MOL0     C80358   7.266   8.067   5.786 -0.0283  0.2864  0.0163
  596MOL0     C80359   7.336   7.946   5.803 -0.7782 -0.0733 -0.3846
  596MOL0     O80360   7.472   7.953   5.783  0.4722 -0.2404 -0.3903
  596MOL0     C80361   7.558   7.869   5.863  0.1244 -0.2407  0.2054
  596MOL0     C80362   7.692   7.942   5.876  0.4493 -0.8619 -0.0093
  596MOL0     C80363   7.793   7.857   5.934  0.3851  0.2586 -0.1595
  596MOL0     C80364   7.923   7.934   5.951 -0.5289  1.3605  0.3497
  596MOL0     C80365   8.048   7.842   5.933 -0.2073 -0.0434  1.1124
  596MOL0     C80366   8.184   7.916   5.947 -0.1000  0.4678  0.0523
  596MOL0     C80367   8.304   7.827   5.966  0.2420  1.2544  0.3785
  596MOL0     C80368   8.309   7.773   6.114  0.0114 -0.0703  0.7286
  596MOL0    Cl80369   8.354   7.894   6.234  0.0810  0.2238 -0.0737
  596MOL0     C80370   7.258   7.830   5.843 -0.1993  0.3652  0.3762
  596MOL0     C80371   7.120   7.837   5.847  0.4565  0.0618  0.1838
  596MOL0     O80372   6.901   7.873   5.605  1.0001 -0.7610  0.3678
  596MOL0     C80373   6.653   7.793   5.661  0.5570  0.4470  1.0291
  596MOL0     C80374   6.516   7.761   5.674  0.0804  0.1554  0.0647
  596MOL0     N80375   6.315   7.245   6.112  0.7747 -0.1012 -0.1592
  596MOL0     N80376   6.233   7.143   6.120 -0.7366  0.6525  0.2250
  596MOL0     C80377   5.086   6.997   5.574 -0.1637 -0.2258 -0.7525
  596MOL0     C80378   4.989   7.091   5.546 -0.1513  0.1805  0.4889
  596MOL0     C80379   4.746   7.468   5.430 -0.9475  0.0630  0.2342
  596MOL0     C80380   4.635   7.516   5.503 -0.6737  0.4821  0.2948
  596MOL0     C80381   4.578   7.637   5.468  0.3651 -0.1827 -0.0320
  596MOL0     C80382   4.622   7.702   5.357  0.7608  0.1621  1.3399
  596MOL0     O80383   4.565   7.826   5.321  0.0951  0.8349  0.0997
  596MOL0     C80384   4.483   7.818   5.197 -0.4941 -0.1444 -0.8797
  596MOL0     C80385   4.338   7.761   5.224  0.6290  0.9043 -0.0005
  596MOL0     C80386   4.243   7.860   5.294 -1.0910 -0.6376 -0.3643
  596MOL0     C80387   4.104   7.809   5.313  0.5581  0.3045  0.4001
  596MOL0     C80388   4.042   7.885   5.420 -0.0403 -0.3019 -0.1066
  596MOL0     C80389   3.991   7.943   5.511 -0.6149 -0.0654  0.2680
  596MOL0     C80390   4.726   7.649   5.282 -0.4199  0.3440 -0.4194
  596MOL0     C80391   4.794   7.539   5.318 -0.1250  0.7974 -0.4898
  596MOL0     C80392   4.908   7.498   5.223 -0.2029 -0.4282  0.6725
  596MOL0     H80393   5.142   7.375   5.636 -0.2092  0.1803 -0.5225
  596MOL0     H80394   5.313   7.222   5.689 -2.0805  2.4188  0.6034
  596MOL0     H80395   5.256   6.904   5.835  2.5523 -1.7871  2.0884
  596MOL0     H80396   5.277   6.771   5.725 -1.5110  0.9309 -2.0521
  596MOL0     H80397   5.527   6.806   5.738  1.8022  2.4576 -0.2542
  596MOL0     H80398   5.447   6.752   5.878 -0.0850 -0.3212  0.0892
  596MOL0     H80399   5.421   7.019   5.928 -0.7036 -0.9899 -2.0124
  596MOL0     H80400   5.557   7.042   5.829 -0.0672  0.7734  0.1616
  596MOL0     H80401   5.543   6.874   6.077 -0.4893  1.7134  1.1611
  596MOL0     H80402   5.681   6.853   5.971 -0.1815 -1.8930  1.5242
  596MOL0     H80403   5.730   7.091   5.976 -0.3858  1.9424  1.1640
  596MOL0     H80404   5.607   7.118   6.090 -0.3495  0.2674 -1.5127
  596MOL0     H80405   5.740   6.984   6.271  3.7689 -1.0312  1.9690
  596MOL0     H80406   5.803   6.902   6.128 -2.0211  0.9103 -1.5805
  596MOL0     H80407   5.955   7.074   6.274  2.4307  1.3309 -0.8562
  596MOL0     H80408   5.868   7.191   6.167  1.2422  0.4748 -0.0576
  596MOL0     H80409   6.044   6.976   6.054 -1.7222 -0.3788 -2.1722
  596MOL0     H80410   5.959   7.097   5.962  1.4662  1.5878  0.4335
  596MOL0     H80411   6.021   7.386   6.036 -1.8783  0.1364  2.8109
  596MOL0     H80412   6.295   7.520   6.175  3.7176 -0.3498  1.1247
  596MOL0     H80413   6.405   7.472   6.059 -0.3151 -3.3312 -2.3856
  596MOL0     H80414   6.132   7.609   5.982 -0.7563  0.6180  0.8110
  596MOL0     H80415   6.275   7.690   6.023 -2.0618  1.0433 -1.2402
  596MOL0     H80416   6.224   7.488   5.799 -1.0809  0.0973 -0.4910
  596MOL0     H80417   6.394   7.554   5.833  0.1231  0.5994  0.5946
  596MOL0     H80418   6.130   7.697   5.746 -0.0344  0.3873 -1.7162
  596MOL0     H80419   6.260   7.663   5.634 -2.3338 -4.3852 -0.2085
  596MOL0     H80420   6.413   8.022   5.864  0.5299 -0.6140  1.2822
  596MOL0     H80421   6.669   8.062   5.846 -0.2521 -0.1652  0.4988
  596MOL0     H80422   7.076   8.165   5.749 -2.6492 -2.2455 -0.6370
  596MOL0     H80423   7.324   8.154   5.759  1.3158 -0.0486  1.6423
  596MOL0     H80424   7.516   7.830   5.957 -2.8732 -0.4302 -1.0953
  596MOL0     H80425   7.579   7.779   5.805 -0.3212  1.5860 -2.9814
  596MOL0     H80426   7.712   8.001   5.786 -0.9046 -0.8140 -0.3115
  596MOL0     H80427   7.675   8.022   5.949  0.2680  2.4791 -3.4184
  596MOL0     H80428   7.750   7.823   6.028 -3.3261 -1.9476 -2.4120
  596MOL0     H80429   7.810   7.769   5.871 -0.6334  1.1575 -1.7744
  596MOL0     H80430   7.918   7.977   6.051 -0.5677  0.3341  0.8079
  596MOL0     H80431   7.930   8.009   5.872 -0.3241 -0.5973 -1.5887
  596MOL0     H80432   8.049   7.812   5.827 -0.6139  4.5415 -0.3969
  596MOL0     H80433   8.042   7.751   5.994 -0.8844 -0.4510  0.4622
  596MOL0     H80434   8.190   8.001   5.878 -1.8713  0.7279  0.1861
  596MOL0     H80435   8.175   7.969   6.042  1.3771  1.5243 -0.3548
  596MOL0     H80436   8.391   7.891   5.950  0.5991  0.7710  0.3616
  596MOL0     H80437   8.302   7.747   5.892 -2.6211  0.4960  1.1557
  596MOL0     H80438   8.209   7.737   6.137 -0.9684  3.1009  1.8990
  596MOL0     H80439   8.379   7.690   6.133 -0.8642 -1.0560 -0.2155
  596MOL0     H80440   7.310   7.740   5.874 -0.2884  0.0429 -0.3701
  596MOL0     H80441   7.063   7.751   5.879  0.3002  0.8065  1.9919
  596MOL0     H80442   6.715   7.728   5.599 -2.0473 -2.6267  1.4164
  596MOL0     H80443   6.474   7.676   5.622 -2.7701  0.8574  0.9816
  596MOL0     H80444   5.080   6.890   5.557  1.3359 -0.3063 -0.8286
  596MOL0     H80445   4.901   7.046   5.499  1.1011  0.0533 -1.8823
  596MOL0     H80446   4.602   7.470   5.595 -0.7149  0.5537  0.3159
  596MOL0     H80447   4.480   7.667   5.504 -0.0007  1.0031 -1.8679
  596MOL0     H80448   4.535   7.759   5.121  0.7846 -0.7960  0.4393
  596MOL0     H80449   4.468   7.915   5.149  2.3517  0.1662 -1.2921
  596MOL0     H80450   4.340   7.671   5.286 -0.1664  0.3980 -0.6865
  596MOL0     H80451   4.293   7.725   5.131  1.1410 -1.7192  0.6806
  596MOL0     H80452   4.241   7.960   5.250 -0.2589  0.5325  2.1180
  596MOL0     H80453   4.286   7.878   5.392 -0.0469 -0.9856 -0.7419
  596MOL0     H80454   4.047   7.827   5.221 -0.1501  1.3947  1.0266
  596MOL0     H80455   4.112   7.702   5.332 -3.2239 -0.3359 -0.8371
  596MOL0     H80456   3.951   7.995   5.596  0.5605 -0.6951  1.2286
  596MOL0     H80457   4.776   7.716   5.213  0.5443  0.6573  0.5584
  596MOL0     H80458   4.936   7.393   5.236 -0.9041 -0.5814  0.9594
  596MOL0     H80459   4.882   7.521   5.119  0.4118  0.2742  0.6620
  596MOL0     H80460   5.003   7.548   5.242 -0.8875  0.8610  0.8195
  597MOL0     O80461   3.867   2.612   1.107 -0.5792  0.4899  0.8726
  597MOL0     C80462   3.758   2.574   1.159  0.9230  0.0287 -0.8141
  597MOL0     O80463   3.660   2.661   1.205 -0.3200  0.3666  1.0071
  597MOL0     C80464   3.691   2.790   1.239 -0.0443 -0.6841  0.4601
  597MOL0     C80465   3.777   2.826   1.340 -0.4859 -0.3145 -0.2787
  597MOL0     C80466   3.775   2.955   1.402 -0.6710 -0.1511  0.1556
  597MOL0     C80467   3.712   3.059   1.332 -0.0906 -0.3663  0.4234
  597MOL0     O80468   3.720   3.189   1.371  0.0810  0.1952 -0.4119
  597MOL0     C80469   3.827   3.264   1.308 -0.1722 -0.0334 -0.6413
  597MOL0     C80470   3.977   3.234   1.359 -0.0502  0.4120 -0.7964
  597MOL0     C80471   3.992   3.298   1.501 -0.6560  0.0386  0.8935
  597MOL0     C80472   4.128   3.267   1.565  0.1133 -0.6901 -0.1278
  597MOL0     C80473   4.244   3.328   1.491  0.8839 -0.2808 -0.1024
  597MOL0     C80474   4.370   3.291   1.575  0.2639  0.9520 -0.0714
  597MOL0     C80475   4.501   3.334   1.503  0.4432 -0.9029 -0.3247
  597MOL0     C80476   4.527   3.479   1.470  0.4604 -0.2546 -0.4459
  597MOL0     N80477   4.669   3.488   1.436  0.3121  0.7064  0.1360
  597MOL0     C80478   4.708   3.465   1.308 -0.1619  0.6631 -0.1261
  597MOL0     C80479   4.826   3.530   1.301  0.4617  0.9169  0.1013
  597MOL0     C80480   4.918   3.540   1.183 -0.2505 -0.1500 -0.8753
  597MOL0     C80481   5.059   3.599   1.226  0.4532 -0.0964 -0.4039
  597MOL0     C80482   5.161   3.537   1.134  0.2831 -0.3501 -0.3129
  597MOL0     C80483   5.299   3.598   1.153  0.2742  1.5352 -0.2062
  597MOL0     O80484   5.379   3.551   1.043  0.1319  0.1701 -0.3559
  597MOL0     C80485   5.521   3.545   1.058 -0.8059  0.4666  0.2349
  597MOL0     C80486   5.591   3.584   1.172  0.1499 -0.4485  0.1224
  597MOL0     C80487   5.724   3.576   1.175 -0.4097 -0.0606  1.0252
  597MOL0     C80488   5.799   3.538   1.060  0.4484  0.9185 -0.8455
  597MOL0     C80489   5.945   3.535   1.066  0.6470 -0.9737  0.6366
  597MOL0     O80490   6.003   3.591   1.178  0.3113  0.3551  0.0788
  597MOL0     C80491   6.142   3.585   1.196 -0.5585 -0.1331 -0.7220
  597MOL0     C80492   6.205   3.506   1.295  0.3698 -0.6165 -1.3183
  597MOL0     C80493   6.345   3.516   1.311 -0.0182 -0.0234 -0.4898
  597MOL0     C80494   6.423   3.609   1.247  0.0320 -0.2299  0.8811
  597MOL0     O80495   6.558   3.619   1.244  0.0611  0.0899 -0.2839
  597MOL0     C80496   6.638   3.509   1.277 -1.1946  0.1128 -0.9723
  597MOL0     C80497   6.642   3.411   1.157 -0.5930  0.0045 -0.1687
  597MOL0     C80498   6.717   3.473   1.044  1.2298 -0.0484 -0.3149
  597MOL0     C80499   6.710   3.381   0.921  0.7491 -0.8240 -0.0174
  597MOL0     C80500   6.830   3.409   0.827 -0.5695  0.8248 -0.2777
  597MOL0     C80501   6.828   3.307   0.711  0.2820 -0.3407  0.2721
  597MOL0     C80502   6.706   3.298   0.616  0.2892  0.2458  0.4176
  597MOL0     C80503   6.607   3.177   0.633  0.0956 -0.4913  0.0280
  597MOL0    Cl80504   6.690   3.023   0.595  0.3764 -0.3072 -0.0171
  597MOL0     C80505   6.363   3.680   1.141 -0.4110  0.1977 -0.7596
  597MOL0     C80506   6.223   3.672   1.122  0.1471  0.1786 -0.6858
  597MOL0     O80507   6.004   3.488   0.972 -0.1517 -0.0559 -0.5416
  597MOL0     C80508   5.737   3.504   0.943 -0.8336 -0.4562  0.0093
  597MOL0     C80509   5.599   3.509   0.941 -0.1130  0.4925 -0.1592
  597MOL0     N80510   4.855   3.582   1.430  0.0738  0.3147  0.1618
  597MOL0     N80511   4.759   3.549   1.505 -0.2974  0.1807 -0.0327
  597MOL0     C80512   3.624   3.026   1.232 -0.3875 -0.0660 -0.4427
  597MOL0     C80513   3.616   2.898   1.185 -0.0611 -0.1582 -0.4845
  597MOL0     C80514   3.722   2.423   1.156  0.0144  0.7782 -1.2094
  597MOL0     C80515   3.587   2.386   1.123 -0.2227  0.5831 -0.4666
  597MOL0     C80516   3.549   2.251   1.123 -0.0001  0.0898  0.2872
  597MOL0     C80517   3.630   2.154   1.165 -0.1765  0.6472 -0.2205
  597MOL0     O80518   3.576   2.025   1.165 -0.7157  0.3236  1.8617
  597MOL0     C80519   3.650   1.906   1.209  0.6875 -0.0576  0.1923
  597MOL0     C80520   3.541   1.832   1.283 -0.0202  1.7278 -0.2572
  597MOL0     C80521   3.601   1.699   1.315 -0.2013 -0.1624 -0.1500
  597MOL0     C80522   3.492   1.605   1.374 -0.9207  0.9756 -0.5377
  597MOL0     C80523   3.400   1.568   1.269 -0.5961 -0.1712  0.0064
  597MOL0     C80524   3.325   1.544   1.182  0.0125 -0.4142 -0.1074
  597MOL0     C80525   3.765   2.179   1.197  0.7495 -0.0937 -0.3217
  597MOL0     C80526   3.804   2.318   1.208 -0.3690 -0.9456  0.3114
  597MOL0     C80527   3.941   2.338   1.279 -0.1756 -0.5660 -0.1949
  597MOL0     H80528   3.841   2.754   1.390  2.1985  2.5430  0.7369
  597MOL0     H80529   3.844   2.985   1.481  0.0366 -1.3383  0.0156
  597MOL0     H80530   3.831   3.240   1.202 -0.2299 -0.6414 -0.5111
  597MOL0     H80531   3.808   3.371   1.316 -0.9831 -0.2772  1.3921
  597MOL0     H80532   4.046   3.280   1.288 -2.1604  1.4709 -2.2876
  597MOL0     H80533   4.002   3.129   1.349  2.2724  0.9522 -1.2465
  597MOL0     H80534   3.919   3.256   1.572  0.1555 -0.6535  1.3456
  597MOL0     H80535   3.986   3.407   1.507  2.3008  0.3259  0.1494
  597MOL0     H80536   4.123   3.290   1.672  1.3892 -0.2802 -0.1370
  597MOL0     H80537   4.133   3.158   1.571 -1.5958 -0.7143  2.2504
  597MOL0     H80538   4.259   3.299   1.387  2.8844  0.6325 -0.1134
  597MOL0     H80539   4.220   3.434   1.480 -0.9854 -0.6027  0.4511
  597MOL0     H80540   4.359   3.354   1.664 -0.3208  1.1653 -0.2881
  597MOL0     H80541   4.364   3.185   1.601  2.6810  0.9906  0.8804
  597MOL0     H80542   4.521   3.276   1.413 -0.0272 -1.3654 -0.1395
  597MOL0     H80543   4.581   3.314   1.575  0.0656  4.0412  1.9245
  597MOL0     H80544   4.466   3.519   1.389  0.1715  0.3466  0.0574
  597MOL0     H80545   4.490   3.538   1.555 -1.7812 -1.6223 -0.4004
  597MOL0     H80546   4.659   3.415   1.225  1.3853  2.4324 -2.2450
  597MOL0     H80547   4.936   3.441   1.140  0.2858 -0.6366  0.4092
  597MOL0     H80548   4.873   3.599   1.102 -0.6524  1.4484  0.4584
  597MOL0     H80549   5.055   3.708   1.217 -0.1412 -0.1283 -0.5571
  597MOL0     H80550   5.075   3.568   1.329 -3.1736  2.3905  1.1164
  597MOL0     H80551   5.141   3.558   1.028 -1.3826 -0.7154 -0.0920
  597MOL0     H80552   5.166   3.429   1.151  1.6204 -0.2178  0.2974
  597MOL0     H80553   5.349   3.566   1.245  1.7963  2.6353 -0.6095
  597MOL0     H80554   5.303   3.707   1.159  1.4832  1.4772  0.2499
  597MOL0     H80555   5.547   3.615   1.266  1.2714  0.5737  0.3282
  597MOL0     H80556   5.789   3.595   1.260  0.3157  5.4111 -0.4193
  597MOL0     H80557   6.136   3.446   1.353  0.8877 -1.1893 -1.2835
  597MOL0     H80558   6.389   3.450   1.386 -0.7208  0.1171  0.0530
  597MOL0     H80559   6.743   3.530   1.301 -1.2367  0.7798 -1.3385
  597MOL0     H80560   6.585   3.451   1.353 -0.6459  0.6295 -0.1793
  597MOL0     H80561   6.689   3.318   1.190 -0.2093  1.1411  2.7595
  597MOL0     H80562   6.540   3.386   1.126 -0.6572 -0.3635  0.3250
  597MOL0     H80563   6.671   3.567   1.013 -2.4458 -1.6874 -0.4784
  597MOL0     H80564   6.821   3.488   1.072  0.9064  2.2163 -0.1138
  597MOL0     H80565   6.613   3.392   0.872  0.6787 -4.9457 -1.1613
  597MOL0     H80566   6.710   3.275   0.949  0.7482 -0.4644  1.4200
  597MOL0     H80567   6.913   3.377   0.891 -0.9586 -1.2777 -0.7505
  597MOL0     H80568   6.831   3.513   0.793 -1.4464  0.1570 -2.4863
  597MOL0     H80569   6.924   3.320   0.660 -0.4085  0.7952 -0.8338
  597MOL0     H80570   6.827   3.208   0.758  3.0498  0.7284  2.8687
  597MOL0     H80571   6.744   3.296   0.513  1.2406 -2.9819  0.7194
  597MOL0     H80572   6.650   3.390   0.634 -0.2967 -0.4662  2.4495
  597MOL0     H80573   6.585   3.185   0.739  0.1749  1.5067 -0.0650
  597MOL0     H80574   6.517   3.187   0.571  0.1227 -1.3348 -0.1608
  597MOL0     H80575   6.424   3.736   1.071 -0.2785  0.0071 -0.7969
  597MOL0     H80576   6.180   3.726   1.038  2.5104 -0.0258 -2.1455
  597MOL0     H80577   5.792   3.481   0.852 -2.4977 -2.0106 -0.6517
  597MOL0     H80578   5.543   3.476   0.854 -0.2629  1.4403 -0.4331
  597MOL0     H80579   3.576   3.105   1.175  0.5861  1.2223  0.4670
  597MOL0     H80580   3.527   2.880   1.125  0.3288 -1.1021 -0.8112
  597MOL0     H80581   3.519   2.462   1.087  0.3737  1.7896  0.8686
  597MOL0     H80582   3.453   2.220   1.084  0.4396  0.4867 -1.1699
  597MOL0     H80583   3.727   1.931   1.282 -0.9514 -0.0464  1.9736
  597MOL0     H80584   3.699   1.845   1.132 -0.2686 -3.7152  2.2646
  597MOL0     H80585   3.454   1.820   1.218  1.6740 -1.4301 -2.1678
  597MOL0     H80586   3.516   1.868   1.384  1.5242  0.7757  0.5065
  597MOL0     H80587   3.679   1.717   1.390 -1.1847 -0.3154  0.9510
  597MOL0     H80588   3.636   1.653   1.223 -4.5479  0.9710 -2.6310
  597MOL0     H80589   3.532   1.513   1.417  0.0251  1.9682  0.8208
  597MOL0     H80590   3.430   1.657   1.448 -1.4345  0.2334 -0.4432
  597MOL0     H80591   3.259   1.507   1.106  3.2046 -2.1610 -2.2308
  597MOL0     H80592   3.835   2.099   1.218  2.4324  0.6166 -2.8179
  597MOL0     H80593   3.961   2.444   1.295  1.9053 -0.9170 -0.0982
  597MOL0     H80594   3.941   2.302   1.382  1.0822  1.2737  0.4960
  597MOL0     H80595   4.024   2.290   1.225  0.6526 -1.4082  1.7192
  598MOL0     O80596   5.335   3.712  11.356 -0.9455  0.2914 -1.0364
  598MOL0     C80597   5.375   3.792  11.271  0.8122 -0.0462  0.6740
  598MOL0     O80598   5.292   3.827  11.167 -0.1225 -0.2354  0.2306
  598MOL0     C80599   5.165   3.776  11.153  0.5356  0.3946  0.2047
  598MOL0     C80600   5.131   3.680  11.053 -0.1804 -0.1536  0.6950
  598MOL0     C80601   5.005   3.630  11.032 -1.0229  0.1660  0.0425
  598MOL0     C80602   4.899   3.676  11.106 -0.1763 -0.3669  0.1627
  598MOL0     O80603   4.772   3.639  11.085 -0.0093 -0.2000  0.4163
  598MOL0     C80604   4.678   3.739  11.035 -0.5963 -0.4102 -0.5622
  598MOL0     C80605   4.539   3.694  11.016 -0.2355  0.1689 -0.5216
  598MOL0     C80606   4.435   3.797  10.977 -0.0708  0.6109  0.9883
  598MOL0     C80607   4.305   3.712  10.950  0.6200  0.7884 -0.1349
  598MOL0     C80608   4.219   3.795  10.850 -0.3563  0.5256  0.2337
  598MOL0     C80609   4.089   3.729  10.806  0.1463  0.6877 -0.0574
  598MOL0     C80610   3.981   3.728  10.913  0.3504 -0.3649 -0.7301
  598MOL0     C80611   3.899   3.856  10.913 -0.3195  0.0184 -0.0886
  598MOL0     N80612   3.827   3.887  10.786 -0.7193 -0.4343 -0.2895
  598MOL0     C80613   3.802   3.802  10.687  0.1958 -0.2810 -0.4916
  598MOL0     C80614   3.743   3.877  10.588 -0.5541  0.6460 -0.0626
  598MOL0     C80615   3.700   3.801  10.460 -0.3705  0.0459 -0.4460
  598MOL0     C80616   3.727   3.886  10.333 -0.0774 -0.9726  0.1008
  598MOL0     C80617   3.867   3.857  10.278 -1.1624  0.3418  0.7227
  598MOL0     C80618   3.974   3.884  10.377  0.1998  0.3082  0.1670
  598MOL0     O80619   4.097   3.913  10.308 -0.0831 -0.6631  1.0316
  598MOL0     C80620   4.204   3.966  10.375 -0.7257 -0.2417 -0.3962
  598MOL0     C80621   4.331   3.959  10.309  1.0015 -0.3696 -0.1267
  598MOL0     C80622   4.443   3.998  10.383 -0.7740 -0.3001 -0.2908
  598MOL0     C80623   4.442   4.046  10.520 -0.0127 -0.3758  1.4721
  598MOL0     C80624   4.558   4.094  10.589 -0.0362  0.2668  0.3263
  598MOL0     O80625   4.561   4.075  10.719 -0.0288  0.0477  0.0303
  598MOL0     C80626   4.662   4.129  10.792  0.5525 -0.4949  0.2382
  598MOL0     C80627   4.663   4.263  10.820 -0.0621  0.1504 -0.0658
  598MOL0     C80628   4.768   4.332  10.890  0.1952  0.0795  0.8084
  598MOL0     C80629   4.884   4.255  10.919 -0.4265 -0.5484 -0.2076
  598MOL0     O80630   4.984   4.319  10.991  0.1290  0.0595  0.4779
  598MOL0     C80631   4.949   4.398  11.107  0.2990  0.6624 -0.0191
  598MOL0     C80632   5.084   4.400  11.168  0.0722  0.4400  0.2165
  598MOL0     C80633   5.073   4.486  11.295 -0.5004 -0.3915 -0.4316
  598MOL0     C80634   5.095   4.641  11.249  0.5369  0.9493  0.3505
  598MOL0     C80635   5.155   4.718  11.365 -0.0747 -0.8512  0.1702
  598MOL0     C80636   5.200   4.864  11.323 -0.6002  0.9627  0.6867
  598MOL0     C80637   5.083   4.961  11.313 -0.3198  0.9580  0.0332
  598MOL0     C80638   5.107   5.110  11.303 -0.5848  0.2057 -0.4999
  598MOL0    Cl80639   5.274   5.142  11.241  0.1083 -0.5095 -0.2503
  598MOL0     C80640   4.881   4.121  10.880 -1.0429 -0.2245 -0.2974
  598MOL0     C80641   4.775   4.057  10.824 -0.7542 -0.6379  0.0295
  598MOL0     O80642   4.643   4.146  10.526  0.3318  0.1298 -0.5144
  598MOL0     C80643   4.322   4.046  10.583 -0.0668  0.4317  0.4302
  598MOL0     C80644   4.214   4.003  10.510  0.2590 -0.0706  0.1089
  598MOL0     N80645   3.738   4.012  10.619  0.5555  0.9851  0.2703
  598MOL0     N80646   3.798   4.013  10.735 -0.0072  1.1598 -0.3254
  598MOL0     C80647   4.929   3.762  11.211  0.5930 -0.1868  0.7442
  598MOL0     C80648   5.058   3.813  11.229  0.3851 -0.2985 -1.6747
  598MOL0     C80649   5.515   3.838  11.262  0.0655  0.4605  0.6120
  598MOL0     C80650   5.567   3.891  11.141  0.8919 -0.7446 -0.0304
  598MOL0     C80651   5.685   3.953  11.128  0.1324 -0.1677  0.5937
  598MOL0     C80652   5.766   3.964  11.242 -0.1171  0.0375 -0.0663
  598MOL0     O80653   5.888   4.019  11.238  0.7523 -0.5927  0.1564
  598MOL0     C80654   5.921   4.108  11.131  0.1363 -0.8082 -0.2563
  598MOL0     C80655   6.042   4.189  11.169  0.2855  0.4510  0.0320
  598MOL0     C80656   6.012   4.278  11.287 -1.0183 -0.4582 -0.2583
  598MOL0     C80657   6.129   4.370  11.317  0.4322  0.3473 -0.1616
  598MOL0     C80658   6.237   4.297  11.381 -0.2445 -0.2493  0.0478
  598MOL0     C80659   6.333   4.249  11.430 -0.3984 -0.0773 -0.5561
  598MOL0     C80660   5.725   3.911  11.361 -0.2718  0.1871  0.1675
  598MOL0     C80661   5.595   3.857  11.378 -0.6442  0.1948 -1.2332
  598MOL0     C80662   5.562   3.811  11.519 -0.2959  0.1211 -0.1844
  598MOL0     H80663   5.214   3.646  10.992  0.9773  2.0906  0.9280
  598MOL0     H80664   4.988   3.554  10.957  0.1023  0.3791 -0.4535
  598MOL0     H80665   4.664   3.818  11.110  1.2646 -1.7807  1.3717
  598MOL0     H80666   4.717   3.789  10.946 -1.2434  0.3876 -0.4080
  598MOL0     H80667   4.514   3.644  11.110  0.4409  2.3439  0.8700
  598MOL0     H80668   4.549   3.620  10.936  0.3638  1.0459 -1.2842
  598MOL0     H80669   4.473   3.848  10.888 -2.9053 -2.8587 -2.5460
  598MOL0     H80670   4.428   3.871  11.058 -0.7994  1.8874 -0.1927
  598MOL0     H80671   4.334   3.623  10.893 -2.1102 -1.2912  1.4257
  598MOL0     H80672   4.252   3.676  11.039 -0.9232  0.4909 -1.1343
  598MOL0     H80673   4.210   3.889  10.906  0.9886 -1.2119  3.6730
  598MOL0     H80674   4.280   3.805  10.760  0.3926 -2.1999  0.3568
  598MOL0     H80675   4.051   3.774  10.714 -2.9613  2.0735  1.7535
  598MOL0     H80676   4.110   3.628  10.768  1.4794  1.1422 -0.5774
  598MOL0     H80677   4.021   3.720  11.015 -2.0337  0.7969  0.3693
  598MOL0     H80678   3.918   3.640  10.897 -0.3290 -0.3950  1.6752
  598MOL0     H80679   3.819   3.855  10.987  0.3694 -3.9934  0.8628
  598MOL0     H80680   3.970   3.936  10.936  2.5501 -2.2426 -0.4572
  598MOL0     H80681   3.830   3.697  10.689  0.4217 -0.2082  0.9708
  598MOL0     H80682   3.757   3.708  10.456  0.9366  0.8117 -0.5321
  598MOL0     H80683   3.592   3.783  10.465 -0.5936  0.2999 -3.1063
  598MOL0     H80684   3.658   3.846  10.259  1.7527  0.7981 -2.7372
  598MOL0     H80685   3.708   3.990  10.361  5.2043  0.3322 -0.1803
  598MOL0     H80686   3.885   3.925  10.195 -1.6457  0.8112  1.0011
  598MOL0     H80687   3.890   3.758  10.237  1.6020  1.9759 -2.1130
  598MOL0     H80688   3.974   3.815  10.462 -0.7190  2.4659  1.9914
  598MOL0     H80689   3.948   3.983  10.416  0.7701  0.3320  0.4998
  598MOL0     H80690   4.339   3.918  10.209 -0.9695 -1.5815  0.1363
  598MOL0     H80691   4.531   4.001  10.319 -0.9683 -0.9859 -0.5987
  598MOL0     H80692   4.574   4.314  10.786  0.5867 -0.8884 -3.7489
  598MOL0     H80693   4.758   4.439  10.907 -0.4409 -0.1682  2.1482
  598MOL0     H80694   4.908   4.495  11.077 -2.4516  0.2119  1.9017
  598MOL0     H80695   4.882   4.346  11.176  1.1955  2.2436  2.1684
  598MOL0     H80696   5.116   4.300  11.198 -1.3482  0.1527  0.8309
  598MOL0     H80697   5.156   4.426  11.090 -0.6683  0.0482 -0.6126
  598MOL0     H80698   4.978   4.476  11.349  0.1262 -0.4215  0.6971
  598MOL0     H80699   5.150   4.457  11.367 -2.3636  1.2650  2.4946
  598MOL0     H80700   4.992   4.663  11.221 -0.5147 -0.6168  2.6193
  598MOL0     H80701   5.159   4.654  11.162  0.5715  1.6703  0.4737
  598MOL0     H80702   5.243   4.661  11.393 -0.3803 -0.2239  2.5894
  598MOL0     H80703   5.082   4.718  11.446 -2.2555 -0.5582 -1.7004
  598MOL0     H80704   5.267   4.901  11.401  1.0527 -3.7043  1.8122
  598MOL0     H80705   5.249   4.857  11.225 -1.9711  1.7636 -0.0859
  598MOL0     H80706   5.014   4.944  11.396  1.0755  2.6931  1.6394
  598MOL0     H80707   5.032   4.930  11.221  0.2396 -1.5701  0.5006
  598MOL0     H80708   5.041   5.160  11.232 -1.1177 -2.3094 -1.8962
  598MOL0     H80709   5.097   5.135  11.409 -3.8127 -1.7462 -0.1913
  598MOL0     H80710   4.973   4.070  10.904 -1.0410 -0.4073 -0.6867
  598MOL0     H80711   4.789   3.949  10.821  1.3068 -0.3988 -0.6597
  598MOL0     H80712   4.304   4.073  10.687  1.4540  1.1389  0.5385
  598MOL0     H80713   4.118   4.001  10.560 -1.3753  3.2179 -2.5477
  598MOL0     H80714   4.846   3.789  11.275  0.6289 -0.8481  1.0815
  598MOL0     H80715   5.085   3.874  11.314  0.6556 -3.6221  0.8488
  598MOL0     H80716   5.505   3.877  11.053  0.1295 -0.2423  0.4148
  598MOL0     H80717   5.707   3.980  11.025  0.2815 -4.5900 -0.7713
  598MOL0     H80718   5.840   4.177  11.104  0.5990  0.2136  0.8934
  598MOL0     H80719   5.943   4.041  11.048  0.3205 -2.4086  1.0302
  598MOL0     H80720   6.064   4.258  11.087  0.1931  0.0711 -0.3153
  598MOL0     H80721   6.126   4.121  11.188 -1.2486 -1.7922 -0.8109
  598MOL0     H80722   5.983   4.216  11.372  1.1401  0.7151  1.4448
  598MOL0     H80723   5.925   4.340  11.264 -1.2972 -0.1816  1.4258
  598MOL0     H80724   6.161   4.425  11.229 -0.9052 -0.1481 -0.9948
  598MOL0     H80725   6.101   4.441  11.396 -1.6937 -0.7608  0.1660
  598MOL0     H80726   6.412   4.208  11.490 -1.3339 -1.1217  0.0236
  598MOL0     H80727   5.799   3.920  11.441  3.3617 -2.5429 -2.4879
  598MOL0     H80728   5.460   3.818  11.560  0.1947 -0.2399  1.1355
  598MOL0     H80729   5.578   3.703  11.513  2.4552  0.4636 -0.2626
  598MOL0     H80730   5.632   3.856  11.589  0.9656 -1.1426 -0.5844
  599MOL0     O80731   2.950   7.893   8.166  0.4268  0.0357  0.0277
  599MOL0     C80732   2.997   7.901   8.049 -0.5551  0.2771 -0.0594
  599MOL0     O80733   3.013   7.795   7.958  0.6601 -0.5752 -0.8616
  599MOL0     C80734   2.967   7.669   7.986  0.3695  0.6379 -0.6486
  599MOL0     C80735   2.859   7.643   8.072  0.2577 -0.0293 -0.1207
  599MOL0     C80736   2.820   7.515   8.104  0.3284 -0.4469  0.3621
  599MOL0     C80737   2.886   7.408   8.050 -0.1427  0.1437  0.1724
  599MOL0     O80738   2.850   7.282   8.093  0.0751  0.0463  0.3577
  599MOL0     C80739   2.936   7.171   8.057 -0.1636  0.3495  0.0769
  599MOL0     C80740   2.876   7.032   8.099  0.5906 -0.1195 -1.3228
  599MOL0     C80741   2.999   6.940   8.115  0.4042  0.2224  0.0411
  599MOL0     C80742   2.956   6.799   8.140 -0.0003  0.1356 -0.6315
  599MOL0     C80743   3.065   6.699   8.130  0.3926 -0.3156  0.1661
  599MOL0     C80744   3.182   6.746   8.211 -0.4842 -0.0623 -0.0293
  599MOL0     C80745   3.279   6.637   8.226 -1.3007  0.2804  0.5065
  599MOL0     C80746   3.384   6.668   8.332  0.4449 -0.1173  0.4974
  599MOL0     N80747   3.442   6.798   8.323 -0.0773  0.5166 -0.1119
  599MOL0     C80748   3.539   6.824   8.234  0.0466 -0.4172  0.5947
  599MOL0     C80749   3.585   6.948   8.262 -1.2871 -0.9543 -0.4897
  599MOL0     C80750   3.689   7.019   8.174 -0.7346  0.3536 -0.7203
  599MOL0     C80751   3.650   7.169   8.156 -0.2152 -0.5466 -0.2680
  599MOL0     C80752   3.756   7.273   8.186  0.1314 -0.6808  0.1266
  599MOL0     C80753   3.868   7.292   8.084 -0.1317 -0.4907  0.2853
  599MOL0     O80754   3.970   7.372   8.154 -0.3112 -0.0762  0.0488
  599MOL0     C80755   4.082   7.410   8.081 -0.1688 -0.1915  0.4300
  599MOL0     C80756   4.102   7.387   7.940  0.1091 -0.2750 -0.1825
  599MOL0     C80757   4.226   7.404   7.889  0.0341  0.0225  0.1630
  599MOL0     C80758   4.327   7.463   7.966 -0.4001 -0.7374 -0.1446
  599MOL0     C80759   4.456   7.473   7.912 -1.2527 -0.5879  0.1749
  599MOL0     O80760   4.545   7.576   7.952  0.2267 -0.0576  0.5424
  599MOL0     C80761   4.648   7.601   7.865  0.1622 -0.4240 -0.7360
  599MOL0     C80762   4.611   7.647   7.740 -0.1775  0.7013  0.0516
  599MOL0     C80763   4.712   7.669   7.643 -0.1965 -0.6577 -0.0521
  599MOL0     C80764   4.849   7.653   7.676  0.6015 -0.7923  0.7274
  599MOL0     O80765   4.951   7.671   7.588 -0.6376  0.0778 -0.2531
  599MOL0     C80766   4.946   7.791   7.509  0.2524  0.6475  0.0476
  599MOL0     C80767   5.098   7.819   7.460  0.7006  0.0369 -0.1513
  599MOL0     C80768   5.184   7.845   7.570 -0.4591 -0.8878 -0.9586
  599MOL0     C80769   5.317   7.765   7.572  0.4117  0.5799  0.0505
  599MOL0     C80770   5.399   7.761   7.707 -0.1240 -0.9020  0.2831
  599MOL0     C80771   5.492   7.892   7.714  0.5740 -0.5098  0.4265
  599MOL0     C80772   5.620   7.860   7.630 -0.4362 -0.9596 -0.5583
  599MOL0     C80773   5.726   7.774   7.695  0.0508 -0.1351 -0.1329
  599MOL0    Cl80774   5.873   7.799   7.587  0.4531 -0.1466 -0.2830
  599MOL0     C80775   4.887   7.604   7.803  0.6353 -0.7295  0.6913
  599MOL0     C80776   4.783   7.574   7.895 -0.3613  0.4128  0.2983
  599MOL0     O80777   4.479   7.389   7.834 -0.0433  0.3415  0.0705
  599MOL0     C80778   4.309   7.504   8.101  0.4893 -0.1859 -0.4815
  599MOL0     C80779   4.184   7.475   8.154 -1.2127  0.4298 -0.3871
  599MOL0     N80780   3.515   6.989   8.376  0.6551  0.3749  0.2281
  599MOL0     N80781   3.421   6.900   8.403 -0.0059  0.3384 -0.8426
  599MOL0     C80782   2.991   7.434   7.959 -0.1405 -1.3054 -0.1524
  599MOL0     C80783   3.031   7.561   7.923  0.2145  0.0332 -0.1677
  599MOL0     C80784   3.042   8.032   8.002  0.5193 -0.5879  0.6683
  599MOL0     C80785   3.141   8.050   7.903  0.3621  0.1498 -0.2442
  599MOL0     C80786   3.182   8.173   7.853 -0.5150 -1.4302 -0.1392
  599MOL0     C80787   3.139   8.292   7.913 -0.2574 -0.6547 -0.3361
  599MOL0     O80788   3.179   8.419   7.874 -0.2015 -0.4021  0.2084
  599MOL0     C80789   3.300   8.479   7.914  0.2311  0.6953 -0.3466
  599MOL0     C80790   3.287   8.628   7.918 -0.1303 -0.2077  0.5627
  599MOL0     C80791   3.178   8.683   8.017  0.7047 -0.5412 -0.5383
  599MOL0     C80792   3.039   8.698   7.954 -0.4666  0.1775  0.0813
  599MOL0     C80793   2.950   8.775   8.030  0.0523  0.4865 -0.6665
  599MOL0     C80794   2.877   8.840   8.107 -0.6887  0.3915  0.4488
  599MOL0     C80795   3.052   8.283   8.021 -0.0178 -0.0972  0.0638
  599MOL0     C80796   2.998   8.158   8.064 -0.5323 -0.7739  0.2171
  599MOL0     C80797   2.894   8.167   8.171  0.8004 -0.1325 -1.0829
  599MOL0     H80798   2.801   7.719   8.124  0.6254  1.9926 -2.5088
  599MOL0     H80799   2.746   7.492   8.179 -0.4527  2.0393  0.4264
  599MOL0     H80800   2.953   7.170   7.949  0.9861 -0.0609  0.2527
  599MOL0     H80801   3.032   7.191   8.106 -0.3109 -0.5392  0.7377
  599MOL0     H80802   2.814   6.985   8.022 -0.4141  0.7231 -1.0572
  599MOL0     H80803   2.805   7.030   8.182 -0.8764  2.0454 -2.4074
  599MOL0     H80804   3.066   6.974   8.194 -0.8876 -0.5744  1.5365
  599MOL0     H80805   3.051   6.945   8.019 -1.2545 -0.1041 -0.9151
  599MOL0     H80806   2.923   6.808   8.243  1.3645 -2.2077  0.0790
  599MOL0     H80807   2.865   6.764   8.090  0.3157  0.6691 -1.6249
  599MOL0     H80808   3.021   6.604   8.159  0.5417  0.3143  2.7459
  599MOL0     H80809   3.102   6.685   8.029  0.5459  0.8561  0.0396
  599MOL0     H80810   3.224   6.834   8.161  2.7422 -2.5479 -2.0508
  599MOL0     H80811   3.140   6.768   8.310 -1.9594  0.5808 -0.7789
  599MOL0     H80812   3.330   6.628   8.130  1.7686  6.3119  1.0719
  599MOL0     H80813   3.228   6.542   8.247  1.0382 -1.2820 -0.4916
  599MOL0     H80814   3.334   6.676   8.429 -2.2454  1.9111 -0.9321
  599MOL0     H80815   3.464   6.594   8.325  3.1678  2.6160  0.8690
  599MOL0     H80816   3.578   6.751   8.164 -0.2093  0.7411 -0.7962
  599MOL0     H80817   3.786   7.003   8.222 -3.0132 -0.0764  4.4069
  599MOL0     H80818   3.695   6.964   8.080 -3.7042 -1.4220 -0.0138
  599MOL0     H80819   3.617   7.186   8.052  2.2141 -3.4812 -1.6604
  599MOL0     H80820   3.575   7.187   8.233  0.0566  3.1766 -0.7015
  599MOL0     H80821   3.808   7.243   8.278  1.3333  0.8903  0.0036
  599MOL0     H80822   3.702   7.367   8.192  0.5985 -0.1638 -2.5526
  599MOL0     H80823   3.820   7.356   8.009 -1.1798  0.5174  1.7613
  599MOL0     H80824   3.909   7.199   8.043 -0.0423 -0.5052  0.4082
  599MOL0     H80825   4.014   7.352   7.886 -0.1331 -0.4361  0.3093
  599MOL0     H80826   4.240   7.365   7.789 -1.0087 -1.7270  0.6589
  599MOL0     H80827   4.507   7.664   7.715  0.2410  0.6031 -1.8744
  599MOL0     H80828   4.686   7.707   7.544 -1.6697 -0.0885  0.5261
  599MOL0     H80829   4.879   7.806   7.424  1.3283 -1.9172 -1.3434
  599MOL0     H80830   4.921   7.877   7.573 -1.8879  1.1461 -1.3545
  599MOL0     H80831   5.128   7.729   7.406 -2.3844 -0.5844 -1.0755
  599MOL0     H80832   5.112   7.887   7.376 -3.4874 -0.9652 -1.9223
  599MOL0     H80833   5.211   7.951   7.571 -0.8663 -0.7751  0.6339
  599MOL0     H80834   5.139   7.814   7.665  0.5695 -3.8323 -1.3219
  599MOL0     H80835   5.366   7.813   7.486 -0.4947  3.5436  1.0395
  599MOL0     H80836   5.302   7.659   7.551  3.7364  0.0533 -0.2237
  599MOL0     H80837   5.461   7.672   7.719 -0.5131 -1.2935 -0.5522
  599MOL0     H80838   5.328   7.761   7.790  0.1552 -1.8235  0.5298
  599MOL0     H80839   5.443   7.971   7.658  2.7539 -1.9292 -3.9819
  599MOL0     H80840   5.518   7.915   7.818  0.6855  0.3827  0.2015
  599MOL0     H80841   5.680   7.949   7.608 -0.2879 -0.5172  1.4646
  599MOL0     H80842   5.594   7.821   7.531 -1.7638  0.6746 -0.8936
  599MOL0     H80843   5.742   7.814   7.796 -1.8098 -1.1185  0.5889
  599MOL0     H80844   5.684   7.673   7.694  2.0848 -1.0342 -0.1126
  599MOL0     H80845   4.989   7.592   7.838  0.9749  2.9224  1.4299
  599MOL0     H80846   4.806   7.550   7.998 -0.4237 -0.4031  0.1348
  599MOL0     H80847   4.387   7.544   8.165  0.0128 -1.7968  1.1710
  599MOL0     H80848   4.168   7.486   8.261 -2.8760  1.7268 -0.7073
  599MOL0     H80849   3.051   7.358   7.910  0.4109 -1.3658  0.5982
  599MOL0     H80850   3.101   7.579   7.841  3.6322  0.3852  2.6150
  599MOL0     H80851   3.194   7.964   7.862 -0.7997 -0.3454 -0.7366
  599MOL0     H80852   3.263   8.178   7.780  0.7751 -2.6886  1.1237
  599MOL0     H80853   3.386   8.447   7.854  1.9103  3.7147  0.2602
  599MOL0     H80854   3.312   8.451   8.019 -0.2182  0.8439 -0.2565
  599MOL0     H80855   3.275   8.665   7.816  1.3674 -2.2303 -0.4207
  599MOL0     H80856   3.386   8.657   7.954  2.3777 -4.3557 -2.1300
  599MOL0     H80857   3.215   8.774   8.064  0.5250 -0.5473 -0.3803
  599MOL0     H80858   3.170   8.608   8.097  2.8115  0.1803  0.4135
  599MOL0     H80859   3.046   8.751   7.858  0.6966  2.9183  1.5835
  599MOL0     H80860   3.002   8.595   7.946  1.0471 -0.6086  2.3267
  599MOL0     H80861   2.837   8.904   8.183  2.7752  3.2189  0.1840
  599MOL0     H80862   3.014   8.377   8.060 -0.2954  0.2730 -1.0507
  599MOL0     H80863   2.883   8.271   8.202 -0.1766 -1.0503  2.0573
  599MOL0     H80864   2.797   8.141   8.128 -1.0887  1.9635  1.5310
  599MOL0     H80865   2.921   8.096   8.250  1.2210 -1.2388 -2.1828
  600MOL0     O80866   4.691  11.186   5.127 -0.3348  0.3681  0.7008
  600MOL0     C80867   4.623  11.134   5.039  0.0285  0.2786 -0.3088
  600MOL0     O80868   4.592  11.185   4.915  0.1921 -0.2744 -0.0002
  600MOL0     C80869   4.685  11.272   4.859 -0.1791 -0.4686  0.3365
  600MOL0     C80870   4.828  11.257   4.873  0.6870  0.6097  0.0940
  600MOL0     C80871   4.909  11.345   4.803  0.1381  0.3517  0.2618
  600MOL0     C80872   4.850  11.442   4.728  0.7180 -0.6533  0.3398
  600MOL0     O80873   4.922  11.527   4.646 -0.7010 -0.2784 -0.8590
  600MOL0     C80874   5.017  11.619   4.712 -0.1903 -0.1127 -0.1749
  600MOL0     C80875   5.059  11.717   4.601  0.2045 -0.0660 -0.1859
  600MOL0     C80876   5.154  11.665   4.493 -0.1068  0.0949  0.1401
  600MOL0     C80877   5.276  11.592   4.545 -0.4830  0.6378 -0.4604
  600MOL0     C80878   5.380  11.567   4.431  0.2087  0.6590  0.1412
  600MOL0     C80879   5.406  11.414   4.402 -0.3933 -0.5113  0.1253
  600MOL0     C80880   5.520  11.392   4.299 -0.0112 -0.4692  0.1690
  600MOL0     C80881   5.570  11.246   4.254  0.6647 -0.0161  0.5717
  600MOL0     N80882   5.643  11.270   4.125 -0.4765  0.0449  1.1541
  600MOL0     C80883   5.580  11.305   4.010 -0.0439  0.3221  0.1914
  600MOL0     C80884   5.682  11.322   3.921 -0.9747 -0.4967  0.0822
  600MOL0     C80885   5.678  11.364   3.779 -0.7718 -0.1986  1.4835
  600MOL0     C80886   5.821  11.359   3.720 -0.2090  0.2473  0.3572
  600MOL0     C80887   5.861  11.210   3.700 -1.0192 -0.1463 -0.4780
  600MOL0     C80888   5.968  11.219   3.579 -0.9444 -0.8674 -0.1999
  600MOL0     O80889   5.897  11.239   3.455 -0.9778 -0.0998  0.4213
  600MOL0     C80890   5.909  11.146   3.353 -0.2892 -0.0398  0.5988
  600MOL0     C80891   5.794  11.080   3.311 -0.1472  0.0949  0.2986
  600MOL0     C80892   5.799  10.980   3.215 -0.1919  0.5711 -0.0177
  600MOL0     C80893   5.925  10.933   3.157  0.1210 -0.2690 -1.2463
  600MOL0     C80894   5.936  10.811   3.084 -1.0847 -0.0933 -0.2727
  600MOL0     O80895   5.827  10.733   3.084  0.4169 -0.6653  0.1668
  600MOL0     C80896   5.824  10.610   3.018 -0.1303  0.6383 -0.0409
  600MOL0     C80897   5.934  10.517   2.999  0.2726 -1.2924 -0.1916
  600MOL0     C80898   5.910  10.398   2.923  0.0704  0.3944 -0.1804
  600MOL0     C80899   5.784  10.374   2.866  0.2779  0.1648 -0.2935
  600MOL0     O80900   5.750  10.259   2.803 -0.4083  0.9462  0.4576
  600MOL0     C80901   5.851  10.160   2.768  0.0727 -0.6470 -0.2593
  600MOL0     C80902   5.939  10.212   2.658 -0.1614  0.8361  0.2032
  600MOL0     C80903   6.068  10.125   2.640  0.2280  0.6442 -0.0586
  600MOL0     C80904   6.159  10.118   2.759  0.2261 -0.0111 -0.1239
  600MOL0     C80905   6.304  10.107   2.725 -1.1533  0.0341 -0.0019
  600MOL0     C80906   6.334   9.957   2.679  0.6116 -0.2587  0.5824
  600MOL0     C80907   6.484   9.932   2.672  0.2088 -0.3420 -1.1051
  600MOL0     C80908   6.510   9.821   2.576 -0.0283 -0.4609 -0.2052
  600MOL0    Cl80909   6.421   9.673   2.610 -0.2443  0.1418 -0.2839
  600MOL0     C80910   5.677  10.456   2.902  0.2151 -0.7468  0.2972
  600MOL0     C80911   5.697  10.580   2.964  0.2387 -0.6893 -0.4911
  600MOL0     O80912   6.042  10.790   3.026 -0.4076 -0.2822 -0.3293
  600MOL0     C80913   6.037  11.013   3.194  0.0683  1.1691 -0.0146
  600MOL0     C80914   6.029  11.105   3.295 -0.1641 -0.9318 -0.8725
  600MOL0     N80915   5.809  11.293   3.986  0.1591  0.8190 -0.4686
  600MOL0     N80916   5.780  11.259   4.112 -0.0372  0.9056  0.3705
  600MOL0     C80917   4.714  11.466   4.710 -0.6045 -0.0974 -0.0359
  600MOL0     C80918   4.629  11.373   4.776 -0.2734  0.1879 -0.2991
  600MOL0     C80919   4.576  11.003   5.070  0.2083  0.1871  0.2534
  600MOL0     C80920   4.477  10.951   4.992 -0.1843  0.7567  0.0998
  600MOL0     C80921   4.417  10.830   5.023  0.7683 -0.3651 -0.3401
  600MOL0     C80922   4.468  10.754   5.120  1.3539  1.0314 -0.4607
  600MOL0     O80923   4.414  10.631   5.146 -0.9296  0.0370  0.0453
  600MOL0     C80924   4.280  10.593   5.111 -0.2588  0.1822 -0.0955
  600MOL0     C80925   4.256  10.466   5.190  0.7516  0.3461  0.3089
  600MOL0     C80926   4.260  10.492   5.346 -0.6309 -0.1734 -0.6023
  600MOL0     C80927   4.151  10.398   5.411 -0.3300 -0.8594 -0.1668
  600MOL0     C80928   4.154  10.403   5.560  0.4072 -0.7849  1.0412
  600MOL0     C80929   4.142  10.396   5.674 -0.5678 -0.1993 -0.0751
  600MOL0     C80930   4.573  10.795   5.200  0.1657  0.0633 -0.6963
  600MOL0     C80931   4.633  10.917   5.173 -0.0668  1.0187  1.1932
  600MOL0     C80932   4.774  10.932   5.218  0.0502  0.3213 -0.4685
  600MOL0     H80933   4.873  11.182   4.936  1.2470  2.8769  2.5669
  600MOL0     H80934   5.018  11.342   4.809  0.2494  0.2676 -1.4793
  600MOL0     H80935   4.976  11.679   4.794 -0.1994  0.7513 -0.7941
  600MOL0     H80936   5.102  11.559   4.746 -0.2830 -0.2478 -0.1812
  600MOL0     H80937   5.112  11.797   4.654 -0.2917 -2.1124  3.7192
  600MOL0     H80938   4.972  11.758   4.549 -1.0183 -0.1654  1.6914
  600MOL0     H80939   5.181  11.755   4.438 -0.9379  1.3850  1.7720
  600MOL0     H80940   5.108  11.586   4.433 -1.4973  0.0077  1.2676
  600MOL0     H80941   5.320  11.652   4.625  0.8019 -1.4309  0.4799
  600MOL0     H80942   5.229  11.503   4.589 -1.0384  0.8262 -0.6654
  600MOL0     H80943   5.351  11.619   4.339 -0.1481 -2.5033 -1.7062
  600MOL0     H80944   5.479  11.600   4.462  0.4422  1.9759 -1.8115
  600MOL0     H80945   5.440  11.364   4.494  1.8835 -2.4773 -1.6668
  600MOL0     H80946   5.311  11.372   4.369 -0.9409  0.5194  0.3191
  600MOL0     H80947   5.607  11.444   4.341 -1.6868  0.9597  2.0486
  600MOL0     H80948   5.484  11.442   4.208 -0.8096 -1.9937 -0.3898
  600MOL0     H80949   5.628  11.185   4.324  0.6071  0.2682  0.8698
  600MOL0     H80950   5.483  11.181   4.241 -0.2489  0.9552  1.6143
  600MOL0     H80951   5.474  11.318   3.991  0.1776 -0.7636 -2.2400
  600MOL0     H80952   5.608  11.300   3.723  1.3377  1.2693 -3.3279
  600MOL0     H80953   5.647  11.467   3.760  1.3515  1.0782  4.3699
  600MOL0     H80954   5.805  11.403   3.621 -2.1070 -2.5982 -0.7469
  600MOL0     H80955   5.899  11.407   3.779 -0.2939  1.4613 -0.4778
  600MOL0     H80956   5.778  11.147   3.667 -2.2073  0.0841  1.8464
  600MOL0     H80957   5.902  11.167   3.791  1.0125 -0.2365 -1.3886
  600MOL0     H80958   6.011  11.118   3.581 -0.7916 -0.8173 -0.8561
  600MOL0     H80959   6.049  11.291   3.595 -1.4881 -0.1974 -0.4311
  600MOL0     H80960   5.694  11.109   3.344  1.0159  1.3561  3.1274
  600MOL0     H80961   5.711  10.917   3.207  0.3543 -0.2963  0.6613
  600MOL0     H80962   6.026  10.533   3.055 -1.2343  1.4365  1.8035
  600MOL0     H80963   5.996  10.333   2.906  0.0586 -0.3934  2.3569
  600MOL0     H80964   5.913  10.134   2.854  1.4451  2.8540 -0.0579
  600MOL0     H80965   5.795  10.070   2.740  0.5248 -1.2848  0.8301
  600MOL0     H80966   5.876  10.215   2.569 -0.2701  2.1206  0.3117
  600MOL0     H80967   5.963  10.318   2.669 -1.0732  0.8338  2.6494
  600MOL0     H80968   6.027  10.023   2.637  1.8776 -0.1490  2.1303
  600MOL0     H80969   6.118  10.160   2.550  2.5586  1.3890  1.4351
  600MOL0     H80970   6.136  10.038   2.830 -1.2983  0.0929 -0.4704
  600MOL0     H80971   6.147  10.214   2.810 -1.5209  0.4472 -1.3146
  600MOL0     H80972   6.354  10.133   2.818 -1.5639 -1.1023  0.5685
  600MOL0     H80973   6.341  10.170   2.644  0.3063 -2.6134 -1.5289
  600MOL0     H80974   6.285   9.883   2.743 -0.6127 -1.8405 -2.0306
  600MOL0     H80975   6.296   9.948   2.578  2.2156 -0.0302 -0.0754
  600MOL0     H80976   6.528   9.904   2.768  3.7350  0.4922 -2.3186
  600MOL0     H80977   6.544  10.021   2.653  0.9175 -0.7795 -0.9529
  600MOL0     H80978   6.485   9.848   2.473 -0.7775  1.5588  0.4620
  600MOL0     H80979   6.617   9.804   2.593 -0.2270 -0.5478  1.0399
  600MOL0     H80980   5.582  10.440   2.852  1.2106  1.7872 -2.7855
  600MOL0     H80981   5.614  10.646   2.987  0.3932 -1.2955  2.1753
  600MOL0     H80982   6.136  10.995   3.153 -0.4281 -1.6696 -0.1746
  600MOL0     H80983   6.123  11.154   3.319  0.1223  0.6456 -4.4877
  600MOL0     H80984   4.676  11.554   4.659 -0.4093 -0.9113 -1.6348
  600MOL0     H80985   4.522  11.367   4.759 -0.6991 -3.1510  2.4424
  600MOL0     H80986   4.433  10.995   4.903  0.0674  1.2315  0.2078
  600MOL0     H80987   4.339  10.802   4.953  1.7331  1.7468 -2.3738
  600MOL0     H80988   4.276  10.574   5.003  1.0280  0.8841 -0.2831
  600MOL0     H80989   4.212  10.674   5.138 -0.4586 -0.9012  3.0868
  600MOL0     H80990   4.337  10.394   5.172  1.4770  1.1773  0.1897
  600MOL0     H80991   4.163  10.425   5.151  1.7445 -0.0009 -1.8701
  600MOL0     H80992   4.236  10.597   5.368  0.2655  0.0512 -0.6846
  600MOL0     H80993   4.364  10.486   5.377 -1.1633  2.9183  2.4236
  600MOL0     H80994   4.049  10.421   5.378 -0.1030  0.8413  0.2068
  600MOL0     H80995   4.166  10.293   5.386  2.4245  0.1156 -3.3026
  600MOL0     H80996   4.127  10.416   5.779  1.8897  0.9509  0.1083
  600MOL0     H80997   4.612  10.736   5.282  2.5182  2.9323  0.4285
  600MOL0     H80998   4.810  11.023   5.267  0.4892 -1.3152  2.4487
  600MOL0     H80999   4.809  10.855   5.286 -2.1018  0.4795  0.9332
  600MOL0     H81000   4.832  10.926   5.126 -1.3675 -2.0822 -1.2931
  601MOL0     O81001   0.755  11.064   4.063  0.3921 -0.3106  0.0660
  601MOL0     C81002   0.740  11.181   4.029  0.1261  0.1789  0.2457
  601MOL0     O81003   0.841  11.265   3.978 -0.2730  0.3626 -1.1632
  601MOL0     C81004   0.974  11.212   3.982  0.6177 -0.5515 -0.0497
  601MOL0     C81005   1.063  11.258   4.081  0.2295  0.4044  0.4799
  601MOL0     C81006   1.188  11.207   4.098  0.0466  0.3512 -0.4002
  601MOL0     C81007   1.240  11.113   4.009 -0.3108  0.1386  0.2422
  601MOL0     O81008   1.361  11.050   4.035 -0.5033  0.3711  0.0168
  601MOL0     C81009   1.378  10.906   4.015 -0.2319 -0.1906 -0.1037
  601MOL0     C81010   1.485  10.852   4.113  0.0025  0.2969  0.5594
  601MOL0     C81011   1.630  10.905   4.095  0.2287  0.1929 -0.7820
  601MOL0     C81012   1.716  10.879   4.221  0.2933  0.8440  0.8811
  601MOL0     C81013   1.857  10.933   4.223 -0.2218 -0.2033 -0.0151
  601MOL0     C81014   1.940  10.895   4.348 -0.3578  0.4465  0.1271
  601MOL0     C81015   2.093  10.937   4.346  0.4442 -0.0865  0.0123
  601MOL0     C81016   2.097  11.091   4.338 -1.0637  0.5944 -0.4711
  601MOL0     N81017   2.241  11.140   4.323 -0.2794  0.1807  0.1313
  601MOL0     C81018   2.347  11.058   4.365 -0.7893 -0.2176 -0.1258
  601MOL0     C81019   2.460  11.136   4.338  0.6552  0.2518 -0.3820
  601MOL0     C81020   2.606  11.124   4.369 -0.4767 -0.8656 -0.5469
  601MOL0     C81021   2.635  11.101   4.518 -0.5016  0.3307  0.3504
  601MOL0     C81022   2.784  11.070   4.549  0.1734  0.4008  0.7765
  601MOL0     C81023   2.886  11.171   4.525 -0.4983 -0.4279 -0.5806
  601MOL0     O81024   3.019  11.127   4.567 -0.2451 -0.0660  0.4712
  601MOL0     C81025   3.113  11.223   4.580 -0.1709 -0.6297 -0.0212
  601MOL0     C81026   3.219  11.220   4.492  0.8426  0.7328  0.6680
  601MOL0     C81027   3.305  11.320   4.486  0.2819  0.7435  0.4845
  601MOL0     C81028   3.302  11.420   4.582  0.2822 -0.0565 -0.6204
  601MOL0     C81029   3.388  11.539   4.584 -0.0008 -0.3310 -0.2977
  601MOL0     O81030   3.354  11.625   4.682  0.0195  0.3343  0.1454
  601MOL0     C81031   3.438  11.734   4.705 -0.0734  0.5726 -0.9902
  601MOL0     C81032   3.580  11.726   4.714  0.7835  0.4757  0.4793
  601MOL0     C81033   3.656  11.836   4.761 -0.4292  0.1566 -0.4064
  601MOL0     C81034   3.594  11.953   4.806  0.0657  0.5391 -0.0981
  601MOL0     O81035   3.679  12.055   4.841 -0.4017 -0.4507 -0.4389
  601MOL0     C81036   3.635  12.152   4.940  0.5477 -0.0222 -0.1108
  601MOL0     C81037   3.749  12.232   4.997 -0.4096 -0.6778  0.1849
  601MOL0     C81038   3.796  12.353   4.916 -0.3030  0.1056 -0.1698
  601MOL0     C81039   3.905  12.435   4.986  1.3000 -0.6690  0.6078
  601MOL0     C81040   4.042  12.366   4.985 -0.2957  0.1962  0.0438
  601MOL0     C81041   4.162  12.445   5.034 -1.1869  0.4978  0.1858
  601MOL0     C81042   4.282  12.345   5.031 -0.0865 -0.4850 -0.0949
  601MOL0     C81043   4.408  12.425   5.046 -0.6769 -0.6573 -0.8026
  601MOL0    Cl81044   4.560  12.325   5.041  0.4054  0.1039 -0.0601
  601MOL0     C81045   3.453  11.956   4.803  0.2234 -0.8854 -0.2445
  601MOL0     C81046   3.380  11.850   4.750  0.1334  0.1275 -0.1588
  601MOL0     O81047   3.482  11.551   4.502  0.0569 -0.4786  0.8330
  601MOL0     C81048   3.202  11.415   4.678  0.6134 -0.3319  0.2977
  601MOL0     C81049   3.116  11.316   4.675  0.9141  0.5166  0.1498
  601MOL0     N81050   2.413  11.252   4.279  0.2775  0.2886  0.8787
  601MOL0     N81051   2.283  11.250   4.264 -0.6707  0.2647 -0.2957
  601MOL0     C81052   1.152  11.082   3.896 -0.4806  0.8361 -0.1879
  601MOL0     C81053   1.014  11.117   3.889  0.5089 -0.3262  0.0465
  601MOL0     C81054   0.602  11.233   4.053 -0.1932 -0.8525 -0.5894
  601MOL0     C81055   0.499  11.143   4.045 -0.1853  0.0508  0.0630
  601MOL0     C81056   0.368  11.181   4.069  0.5162  0.3859 -0.0598
  601MOL0     C81057   0.338  11.311   4.127  0.1219 -0.5230 -0.5235
  601MOL0     O81058   0.208  11.347   4.139 -0.3288  0.5647  0.2994
  601MOL0     C81059   0.168  11.453   4.218  0.5136 -0.7157  0.7782
  601MOL0     C81060   0.198  11.443   4.370 -0.7872 -0.3425 -0.4041
  601MOL0     C81061   0.130  11.322   4.447  0.3786 -0.3154 -0.2762
  601MOL0     C81062  -0.022  11.348   4.470  0.1400 -0.2108  0.4409
  601MOL0     C81063  -0.085  11.233   4.540 -0.4912 -0.2724  0.2826
  601MOL0     C81064  -0.136  11.132   4.580 -0.1086 -0.9980  0.4326
  601MOL0     C81065   0.445  11.400   4.148  1.1533 -0.3128  0.4970
  601MOL0     C81066   0.580  11.364   4.107 -0.1255 -0.6260  0.6224
  601MOL0     C81067   0.700  11.460   4.109 -0.4721 -0.1219  0.6090
  601MOL0     H81068   1.026  11.335   4.149  1.4311  0.0585  1.5695
  601MOL0     H81069   1.250  11.227   4.185 -2.0429  1.6375  0.8792
  601MOL0     H81070   1.277  10.868   4.030 -1.2746  2.3940  0.0621
  601MOL0     H81071   1.412  10.889   3.913  0.9329  0.1793  0.2029
  601MOL0     H81072   1.504  10.745   4.104  3.0299  0.6677  1.3695
  601MOL0     H81073   1.444  10.866   4.213 -1.1506 -1.6109  0.4065
  601MOL0     H81074   1.617  11.013   4.089  0.9521  0.4363  1.3448
  601MOL0     H81075   1.667  10.874   3.997 -2.6139 -0.0467 -1.8626
  601MOL0     H81076   1.672  10.906   4.318  1.1814  0.1877  1.4906
  601MOL0     H81077   1.733  10.772   4.231 -1.7647  0.4671  0.5627
  601MOL0     H81078   1.895  10.908   4.123 -2.1036  0.6616 -0.9945
  601MOL0     H81079   1.844  11.041   4.214  1.6844  0.0090 -0.8098
  601MOL0     H81080   1.888  10.941   4.433 -1.5897  2.4331 -1.5828
  601MOL0     H81081   1.936  10.786   4.360 -3.2652  0.2522 -1.6532
  601MOL0     H81082   2.143  10.895   4.259  1.9873  1.3863  0.1322
  601MOL0     H81083   2.145  10.907   4.438  2.5802  1.5557 -0.5799
  601MOL0     H81084   2.038  11.133   4.256 -3.4228 -1.1575  0.2269
  601MOL0     H81085   2.059  11.131   4.432  0.1272 -3.5411  2.0264
  601MOL0     H81086   2.335  10.971   4.429  4.5780 -0.0912  1.5236
  601MOL0     H81087   2.656  11.043   4.315 -1.8521 -2.4757  0.4917
  601MOL0     H81088   2.657  11.218   4.346 -1.9935  0.5665  1.5581
  601MOL0     H81089   2.607  11.189   4.577 -0.2705  1.3659 -1.0253
  601MOL0     H81090   2.583  11.010   4.550 -3.0909  0.6333 -2.5238
  601MOL0     H81091   2.815  10.983   4.490  0.3110  1.4453 -0.7291
  601MOL0     H81092   2.789  11.044   4.655 -1.0993 -1.2896  0.4689
  601MOL0     H81093   2.859  11.261   4.582 -0.3776 -0.4343 -0.5138
  601MOL0     H81094   2.889  11.212   4.423 -1.5830  2.4399  0.4336
  601MOL0     H81095   3.225  11.133   4.427  1.9709  1.6589 -0.5426
  601MOL0     H81096   3.383  11.310   4.412 -0.0179  0.1943  0.2312
  601MOL0     H81097   3.627  11.629   4.706 -2.0730 -1.2005  2.4217
  601MOL0     H81098   3.764  11.835   4.769 -0.4360  0.3619 -0.2916
  601MOL0     H81099   3.559  12.216   4.895  0.5048 -1.8481 -2.9441
  601MOL0     H81100   3.587  12.104   5.025 -2.5345  1.6257 -0.8022
  601MOL0     H81101   3.717  12.270   5.094  2.8409  1.0346  0.7331
  601MOL0     H81102   3.836  12.167   5.012  2.5802  2.2218 -2.8185
  601MOL0     H81103   3.837  12.335   4.816  1.1670  1.5993  0.1134
  601MOL0     H81104   3.712  12.420   4.896 -0.0509  0.2739 -0.7028
  601MOL0     H81105   3.875  12.468   5.085  2.5620  2.0852  0.1701
  601MOL0     H81106   3.910  12.527   4.926  1.3518 -0.9704  0.1452
  601MOL0     H81107   4.072  12.338   4.884  4.5668  2.8853  0.4273
  601MOL0     H81108   4.038  12.272   5.041 -0.5514  0.9183  1.2840
  601MOL0     H81109   4.177  12.533   4.970 -0.1319  0.4382  0.3306
  601MOL0     H81110   4.135  12.479   5.135 -0.3209  1.5496  0.0797
  601MOL0     H81111   4.284  12.297   4.933 -0.5163 -2.7661  0.9411
  601MOL0     H81112   4.272  12.265   5.104 -0.8115 -0.6110 -0.3182
  601MOL0     H81113   4.398  12.499   4.966 -0.3829  0.8898  0.5489
  601MOL0     H81114   4.422  12.471   5.144  0.5864 -2.5217 -0.0503
  601MOL0     H81115   3.409  12.051   4.831  0.8864  0.1637 -2.5122
  601MOL0     H81116   3.273  11.838   4.742  0.5040 -3.2735 -2.2317
  601MOL0     H81117   3.185  11.489   4.756  1.5777  1.8167 -1.4044
  601MOL0     H81118   3.048  11.310   4.760  2.2948 -0.6010  1.2280
  601MOL0     H81119   1.198  11.002   3.839  1.4662  1.3958  0.5269
  601MOL0     H81120   0.948  11.074   3.814  1.3997 -2.7664  0.5726
  601MOL0     H81121   0.511  11.038   4.022 -1.9704 -0.7137  2.2700
  601MOL0     H81122   0.285  11.112   4.057  1.0878 -0.0875 -1.3665
  601MOL0     H81123   0.062  11.467   4.193  0.3119 -0.1865  1.8540
  601MOL0     H81124   0.214  11.545   4.179 -1.5262 -0.2187 -0.6396
  601MOL0     H81125   0.160  11.537   4.411 -2.5394 -0.3420 -1.8876
  601MOL0     H81126   0.305  11.429   4.389 -1.6067 -2.0533  4.3694
  601MOL0     H81127   0.182  11.309   4.542 -0.0320  2.1254  0.3614
  601MOL0     H81128   0.162  11.237   4.387  1.6060 -0.7660  0.9493
  601MOL0     H81129  -0.049  11.443   4.516  1.8472 -0.1402  1.3660
  601MOL0     H81130  -0.070  11.345   4.372 -1.4295 -2.4878  1.1754
  601MOL0     H81131  -0.195  11.051   4.618 -1.0587 -0.2775  0.5434
  601MOL0     H81132   0.413  11.490   4.198 -5.0758 -1.1856 -1.0377
  601MOL0     H81133   0.796  11.429   4.152  0.3956  2.4583  0.6842
  601MOL0     H81134   0.716  11.496   4.007 -0.7211 -2.3812 -0.2770
  601MOL0     H81135   0.680  11.551   4.165 -1.7754 -1.4495  2.4248
  602MOL0     O81136   4.674   8.980   8.205  0.7954  0.3952 -0.1230
  602MOL0     C81137   4.618   8.879   8.256  0.6106  0.2572  0.0976
  602MOL0     O81138   4.514   8.887   8.347 -0.3849  0.0937 -0.2598
  602MOL0     C81139   4.445   8.995   8.354 -0.3549 -1.1397  0.5135
  602MOL0     C81140   4.504   9.110   8.418  0.3952  0.3888 -0.7302
  602MOL0     C81141   4.422   9.225   8.438 -0.1548  0.1842  0.0733
  602MOL0     C81142   4.292   9.231   8.389  0.2045  0.5425  0.1167
  602MOL0     O81143   4.216   9.339   8.392 -0.6913  0.1785  0.4722
  602MOL0     C81144   4.204   9.424   8.509 -0.9291  0.9779 -0.3138
  602MOL0     C81145   4.159   9.356   8.642  0.0286  0.8208  0.0351
  602MOL0     C81146   4.020   9.313   8.612 -0.9297  0.9763  0.1942
  602MOL0     C81147   3.946   9.237   8.725 -0.3476  1.0544  0.0520
  602MOL0     C81148   3.869   9.330   8.823  0.5702  0.1569 -0.4819
  602MOL0     C81149   3.781   9.268   8.934  0.3275  1.2061  0.1325
  602MOL0     C81150   3.845   9.207   9.060  0.2606 -0.4262 -0.0975
  602MOL0     C81151   3.734   9.150   9.152 -0.5110 -0.5956  0.3678
  602MOL0     N81152   3.802   9.058   9.254 -0.2577  0.2039 -0.9691
  602MOL0     C81153   3.834   8.927   9.242  0.0972  0.3085 -0.4918
  602MOL0     C81154   3.874   8.890   9.368  0.1560  0.3816 -0.5747
  602MOL0     C81155   3.921   8.758   9.417  0.5123 -0.2374 -0.2184
  602MOL0     C81156   4.076   8.755   9.415 -0.0004 -0.1203  0.5593
  602MOL0     C81157   4.128   8.617   9.378 -0.8231 -0.4346 -0.2702
  602MOL0     C81158   4.273   8.621   9.346  0.7048 -0.6303  0.0879
  602MOL0     O81159   4.352   8.658   9.460 -0.2235  0.6604  0.1978
  602MOL0     C81160   4.469   8.718   9.447 -0.3777 -0.1140 -0.0701
  602MOL0     C81161   4.523   8.773   9.569 -0.2400  0.7701  1.0163
  602MOL0     C81162   4.631   8.863   9.575  0.3420  0.5785 -0.4370
  602MOL0     C81163   4.695   8.890   9.456  0.9212  0.7764 -0.5006
  602MOL0     C81164   4.820   8.972   9.447 -0.6082  0.5365  0.1261
  602MOL0     O81165   4.865   9.011   9.576 -1.0455  0.4379  1.1380
  602MOL0     C81166   4.978   9.081   9.571 -1.0765 -0.5650 -0.2704
  602MOL0     C81167   4.971   9.220   9.591  0.8374 -0.0554  0.1817
  602MOL0     C81168   5.091   9.293   9.611 -0.4922 -0.8660 -0.2183
  602MOL0     C81169   5.212   9.235   9.601 -0.7739 -0.9872  0.3117
  602MOL0     O81170   5.312   9.324   9.606  0.4153 -0.3086  0.0960
  602MOL0     C81171   5.446   9.288   9.571  0.6403  0.4219 -0.0216
  602MOL0     C81172   5.540   9.400   9.611 -0.0864 -0.7572  0.8937
  602MOL0     C81173   5.623   9.372   9.738 -0.5474 -0.2652  0.6177
  602MOL0     C81174   5.760   9.437   9.730  0.6703  0.2113 -0.3924
  602MOL0     C81175   5.824   9.425   9.870  0.1926 -0.0197  0.2641
  602MOL0     C81176   5.933   9.530   9.895 -1.7002 -0.2991  0.5898
  602MOL0     C81177   6.017   9.501  10.022  0.1881 -0.4270  0.5222
  602MOL0     C81178   6.085   9.634  10.074 -0.0933 -0.0074 -0.2086
  602MOL0    Cl81179   5.969   9.763  10.111 -0.2311 -0.0222 -0.1764
  602MOL0     C81180   5.224   9.103   9.564 -0.0583  0.0237 -0.9749
  602MOL0     C81181   5.108   9.025   9.554 -0.2452  0.1672  0.2847
  602MOL0     O81182   4.874   8.998   9.343 -0.4958  0.1577  0.6356
  602MOL0     C81183   4.645   8.837   9.330 -0.3464 -0.6308 -0.4646
  602MOL0     C81184   4.528   8.755   9.323 -0.8410 -0.3803  1.4329
  602MOL0     N81185   3.887   8.997   9.448 -0.0479  0.2180 -0.3035
  602MOL0     N81186   3.846   9.104   9.379 -0.2645 -0.0410 -0.2756
  602MOL0     C81187   4.234   9.126   8.319 -0.1318  0.6170  0.6755
  602MOL0     C81188   4.311   9.005   8.307 -0.3599 -0.0405 -0.7439
  602MOL0     C81189   4.684   8.743   8.250  0.9764  0.5328  1.4558
  602MOL0     C81190   4.605   8.629   8.277  0.4655 -0.7642  1.0566
  602MOL0     C81191   4.665   8.500   8.284 -1.0318  0.2755 -0.3487
  602MOL0     C81192   4.803   8.475   8.259 -0.1111 -0.5359 -0.3963
  602MOL0     O81193   4.835   8.339   8.277 -0.2249 -0.0284  0.4056
  602MOL0     C81194   4.970   8.303   8.255 -0.2946  0.6685 -0.4990
  602MOL0     C81195   4.976   8.154   8.262 -0.1503  0.3377 -0.1577
  602MOL0     C81196   4.944   8.119   8.412  0.3048  0.5959  0.5726
  602MOL0     C81197   4.970   7.983   8.469  0.3065 -0.3059 -0.1389
  602MOL0     C81198   4.919   7.872   8.389 -0.3676  0.0423 -0.4946
  602MOL0     C81199   4.878   7.775   8.336 -0.1648  0.5984 -0.6673
  602MOL0     C81200   4.883   8.590   8.227  0.0389 -0.0565 -0.1191
  602MOL0     C81201   4.824   8.720   8.220  0.0039  0.6312 -0.2926
  602MOL0     C81202   4.906   8.832   8.182 -0.4286 -1.0956  0.8595
  602MOL0     H81203   4.606   9.112   8.456 -0.8495 -2.4085  3.4443
  602MOL0     H81204   4.468   9.315   8.478 -1.0024 -0.8496  3.6938
  602MOL0     H81205   4.300   9.472   8.529  0.4749 -1.9431  0.4463
  602MOL0     H81206   4.140   9.507   8.480  1.9990  3.2969 -0.6265
  602MOL0     H81207   4.153   9.435   8.717  1.5193 -0.8700  2.0097
  602MOL0     H81208   4.222   9.271   8.669 -1.7051 -1.2391 -1.8960
  602MOL0     H81209   4.034   9.257   8.519  0.9131  0.8171  0.5198
  602MOL0     H81210   3.960   9.402   8.592 -3.8629 -1.4317 -2.7413
  602MOL0     H81211   3.861   9.181   8.684  0.1264 -0.5339  1.1194
  602MOL0     H81212   4.013   9.180   8.790  0.9336  1.8820 -0.4899
  602MOL0     H81213   3.930   9.411   8.864  1.4065 -0.1758 -1.0346
  602MOL0     H81214   3.800   9.380   8.755  1.9616  1.2222 -1.1444
  602MOL0     H81215   3.706   9.341   8.967  0.2657 -0.1150  3.3263
  602MOL0     H81216   3.726   9.186   8.886  0.9777  0.0020  1.3544
  602MOL0     H81217   3.908   9.275   9.119  1.0183 -1.6827  0.5859
  602MOL0     H81218   3.898   9.116   9.031 -1.8841 -1.2638 -1.6578
  602MOL0     H81219   3.682   9.225   9.212 -5.7550 -1.4774 -2.5101
  602MOL0     H81220   3.661   9.092   9.094 -1.5614  1.8464 -0.9087
  602MOL0     H81221   3.838   8.864   9.154  2.9830  2.0645 -1.7856
  602MOL0     H81222   3.881   8.740   9.518  1.0700  3.8036  0.8730
  602MOL0     H81223   3.877   8.689   9.344 -1.4210  0.0179  0.6482
  602MOL0     H81224   4.112   8.815   9.330  0.1574 -2.6493 -1.2657
  602MOL0     H81225   4.124   8.790   9.507  2.9789 -0.6895 -0.6726
  602MOL0     H81226   4.079   8.557   9.301  0.2576 -4.1229  1.6709
  602MOL0     H81227   4.123   8.549   9.465  0.1324 -2.7908 -1.9405
  602MOL0     H81228   4.300   8.698   9.274 -1.3135 -0.9548 -1.1138
  602MOL0     H81229   4.303   8.524   9.305  2.2153  0.1278 -0.6916
  602MOL0     H81230   4.463   8.747   9.656  1.0679 -1.7167  1.2704
  602MOL0     H81231   4.653   8.919   9.665 -0.8499 -0.0691  0.2889
  602MOL0     H81232   4.876   9.272   9.602  1.9348  2.3075 -0.6759
  602MOL0     H81233   5.079   9.392   9.655 -2.0430 -1.2702  0.3348
  602MOL0     H81234   5.476   9.191   9.609  0.0427 -0.4687 -1.6931
  602MOL0     H81235   5.455   9.288   9.462  0.0529  2.1407 -0.1024
  602MOL0     H81236   5.597   9.449   9.533  0.3701  0.3947  1.9140
  602MOL0     H81237   5.477   9.484   9.644  1.2386  0.7712 -0.3612
  602MOL0     H81238   5.574   9.403   9.831 -2.1395 -0.6051 -0.0696
  602MOL0     H81239   5.642   9.264   9.742  1.9942  0.1079  0.1513
  602MOL0     H81240   5.745   9.545   9.720  1.8491  0.1341 -4.9366
  602MOL0     H81241   5.809   9.399   9.640 -1.8686  3.0962 -3.2617
  602MOL0     H81242   5.869   9.326   9.886 -1.8174 -0.8304  1.3615
  602MOL0     H81243   5.749   9.429   9.949  0.9733 -5.8511  1.8209
  602MOL0     H81244   6.004   9.538   9.812 -0.7558  1.1684  1.5017
  602MOL0     H81245   5.898   9.634   9.902  2.1117  1.4998 -2.5845
  602MOL0     H81246   6.093   9.424  10.003 -1.0141 -1.2081 -1.4082
  602MOL0     H81247   5.951   9.459  10.098  0.5094 -0.6967  0.6567
  602MOL0     H81248   6.137   9.600  10.163 -1.6497 -1.1928  0.2884
  602MOL0     H81249   6.162   9.686  10.016 -2.8224  0.1469 -4.1553
  602MOL0     H81250   5.324   9.059   9.560 -1.1846 -2.6430 -2.3247
  602MOL0     H81251   5.127   8.921   9.532  0.8973  0.7247 -1.5641
  602MOL0     H81252   4.685   8.854   9.230  0.2336 -0.3899 -0.2009
  602MOL0     H81253   4.503   8.729   9.221  2.9793  0.7164  0.0239
  602MOL0     H81254   4.133   9.139   8.282  0.2608 -3.0443 -2.2616
  602MOL0     H81255   4.264   8.923   8.253  0.6044 -0.9603 -0.2290
  602MOL0     H81256   4.499   8.643   8.296  0.4215  2.9725 -0.8987
  602MOL0     H81257   4.601   8.422   8.324 -1.4733  1.7789  2.1557
  602MOL0     H81258   5.038   8.345   8.330 -0.0627  0.8728 -0.8175
  602MOL0     H81259   5.009   8.343   8.161  1.7193  0.7612  0.3259
  602MOL0     H81260   5.077   8.113   8.249 -0.9699 -0.9867 -3.8926
  602MOL0     H81261   4.908   8.103   8.192 -1.6226 -0.9978  2.1319
  602MOL0     H81262   4.839   8.142   8.433 -0.1782 -0.6607 -0.3578
  602MOL0     H81263   4.989   8.188   8.484 -2.2411  1.6723  1.2532
  602MOL0     H81264   5.079   7.979   8.479  0.3993  2.1497  0.4706
  602MOL0     H81265   4.918   7.977   8.565  0.4451 -3.2959 -0.1495
  602MOL0     H81266   4.858   7.676   8.300 -0.9651  0.6756 -0.4586
  602MOL0     H81267   4.990   8.580   8.209  0.1932 -0.2691  0.8628
  602MOL0     H81268   5.006   8.805   8.148  0.2446  1.2134  0.7916
  602MOL0     H81269   4.860   8.869   8.090  1.2975 -1.8007 -0.3404
  602MOL0     H81270   4.900   8.914   8.255  0.6834 -0.2746  0.0736
  603MOL0     O81271   4.479   0.186   8.317  0.1731 -0.2457 -0.1857
  603MOL0     C81272   4.583   0.236   8.266  1.0780  0.0203 -0.1900
  603MOL0     O81273   4.581   0.318   8.161  0.4399  0.2991 -0.5202
  603MOL0     C81274   4.480   0.416   8.170 -0.0096 -0.9984  0.8099
  603MOL0     C81275   4.433   0.478   8.283 -0.9603  0.0049 -0.5551
  603MOL0     C81276   4.329   0.575   8.268  0.5633 -0.0366  0.0298
  603MOL0     C81277   4.263   0.597   8.150 -0.0443  0.4714 -0.3659
  603MOL0     O81278   4.156   0.678   8.161  0.5581 -0.9454  0.2755
  603MOL0     C81279   4.091   0.713   8.045  0.1519 -0.7349  0.0473
  603MOL0     C81280   3.934   0.730   8.075  0.2801 -0.5602 -0.3375
  603MOL0     C81281   3.867   0.811   7.964  0.8237  0.8716 -0.0766
  603MOL0     C81282   3.720   0.828   7.972  0.6960 -0.5059  0.6907
  603MOL0     C81283   3.657   0.917   7.855  0.5029 -0.2853 -0.5887
  603MOL0     C81284   3.499   0.918   7.857 -0.1966 -0.4458 -0.7692
  603MOL0     C81285   3.430   1.033   7.774 -0.2971  0.3691  0.6187
  603MOL0     C81286   3.275   1.021   7.782 -0.0120 -0.0472  0.8481
  603MOL0     N81287   3.212   1.136   7.731 -0.6388 -0.0114  0.8742
  603MOL0     C81288   3.243   1.260   7.774 -0.0615 -0.1602 -0.0697
  603MOL0     C81289   3.178   1.339   7.690 -0.8104 -0.3057  0.5916
  603MOL0     C81290   3.196   1.486   7.676  0.4219 -0.5595 -0.1042
  603MOL0     C81291   3.161   1.565   7.804 -0.1716 -0.3168 -0.3645
  603MOL0     C81292   3.139   1.718   7.787  0.2882  0.2784  0.3811
  603MOL0     C81293   3.121   1.774   7.931  0.1565 -0.3860  0.5145
  603MOL0     O81294   3.132   1.916   7.924 -0.6849  0.4707 -0.8812
  603MOL0     C81295   3.252   1.986   7.956 -0.7364 -0.2906 -0.7226
  603MOL0     C81296   3.239   2.108   8.010 -0.4397 -0.5834  0.5683
  603MOL0     C81297   3.338   2.182   8.075 -0.1123  0.3364 -1.0570
  603MOL0     C81298   3.464   2.131   8.068 -0.2459 -0.7892  0.5764
  603MOL0     C81299   3.580   2.207   8.123 -0.2704 -0.8321  1.1120
  603MOL0     O81300   3.702   2.182   8.056  0.3691 -0.2098  0.1164
  603MOL0     C81301   3.812   2.252   8.111  0.1806 -0.4333 -0.0927
  603MOL0     C81302   3.815   2.389   8.096 -1.1284  0.0614 -0.7633
  603MOL0     C81303   3.924   2.471   8.152  0.2210  0.9129  0.2481
  603MOL0     C81304   4.025   2.405   8.221  0.0422  0.5140 -0.0421
  603MOL0     O81305   4.134   2.486   8.250  0.8543  0.8747 -0.2075
  603MOL0     C81306   4.235   2.430   8.342 -0.7516  0.6758 -0.0109
  603MOL0     C81307   4.302   2.543   8.420  0.4264 -1.0431 -0.3546
  603MOL0     C81308   4.431   2.489   8.479 -0.1333  0.8777  0.2265
  603MOL0     C81309   4.493   2.580   8.598  0.2886  0.4112  0.2144
  603MOL0     C81310   4.636   2.546   8.641 -0.4728 -0.1651 -0.6410
  603MOL0     C81311   4.697   2.613   8.767  0.4385 -0.0342 -0.3897
  603MOL0     C81312   4.778   2.521   8.851 -1.1067  0.6265  0.4745
  603MOL0     C81313   4.897   2.462   8.784 -0.9277  0.3320  1.1942
  603MOL0    Cl81314   4.988   2.369   8.915 -0.0786  0.0530  0.2478
  603MOL0     C81315   4.009   2.261   8.244  0.3859 -0.3859 -1.0092
  603MOL0     C81316   3.903   2.191   8.192  0.3725 -0.4141 -0.0836
  603MOL0     O81317   3.565   2.284   8.222 -0.3532  0.7173 -0.8546
  603MOL0     C81318   3.486   2.005   8.007  0.0349  0.0254 -0.7349
  603MOL0     C81319   3.381   1.929   7.960  0.3853  0.9452 -0.4004
  603MOL0     N81320   3.091   1.269   7.615  0.4385  0.3258  0.5516
  603MOL0     N81321   3.121   1.142   7.634 -0.4513 -0.7807  0.5807
  603MOL0     C81322   4.324   0.537   8.036  0.1459 -1.2371  0.0084
  603MOL0     C81323   4.431   0.455   8.044 -0.1456  0.5676 -1.0359
  603MOL0     C81324   4.702   0.152   8.282 -0.2849  0.7206  0.0149
  603MOL0     C81325   4.806   0.152   8.181 -0.4160  0.3352  0.2285
  603MOL0     C81326   4.936   0.092   8.211 -0.5407  0.8815 -0.2436
  603MOL0     C81327   4.965   0.055   8.346 -0.4225 -0.4459  0.1487
  603MOL0     O81328   5.092   0.039   8.397  0.3370  0.3621  0.2586
  603MOL0     C81329   5.202   0.059   8.314 -0.6329 -0.6278  0.4864
  603MOL0     C81330   5.331   0.068   8.394 -0.4521  0.0044  0.0829
  603MOL0     C81331   5.337   0.164   8.505 -1.0431  0.5139  0.1882
  603MOL0     C81332   5.478   0.225   8.543 -0.0534  0.2302  0.3063
  603MOL0     C81333   5.596   0.134   8.540 -0.0612  0.2522  0.0544
  603MOL0     C81334   5.685   0.053   8.508  0.3568 -0.2071 -0.6705
  603MOL0     C81335   4.868   0.052   8.438 -0.4103 -0.2132 -1.1335
  603MOL0     C81336   4.736   0.098   8.409  0.0323 -0.4748 -0.2782
  603MOL0     C81337   4.645   0.095   8.526 -0.7188  0.2468 -0.3572
  603MOL0     H81338   4.469   0.452   8.383 -1.0921 -0.6250 -0.6689
  603MOL0     H81339   4.286   0.628   8.352 -1.5880 -0.9125 -0.4336
  603MOL0     H81340   4.133   0.805   8.003 -4.4828  0.7969 -1.8654
  603MOL0     H81341   4.095   0.628   7.977  4.5964 -1.4920  0.9304
  603MOL0     H81342   3.921   0.789   8.167 -1.3084 -1.2076 -0.1243
  603MOL0     H81343   3.887   0.633   8.087 -0.5405 -0.0556  0.7095
  603MOL0     H81344   3.872   0.750   7.874 -0.9416  0.4981  0.0307
  603MOL0     H81345   3.912   0.909   7.947  0.5915  1.2726  1.4436
  603MOL0     H81346   3.677   0.728   7.963  0.6597 -0.4399  0.1211
  603MOL0     H81347   3.682   0.860   8.070 -1.1116 -0.9650  0.1755
  603MOL0     H81348   3.694   1.020   7.854  0.2604 -0.2020 -1.7173
  603MOL0     H81349   3.685   0.864   7.764  1.3981 -3.4790  1.3861
  603MOL0     H81350   3.463   0.817   7.838 -0.2108 -0.7232  0.5732
  603MOL0     H81351   3.469   0.933   7.961 -1.5884 -0.4842 -1.1495
  603MOL0     H81352   3.467   1.024   7.671 -0.6927 -1.4186  0.6154
  603MOL0     H81353   3.464   1.132   7.808 -2.2858  1.6376 -0.8333
  603MOL0     H81354   3.231   0.941   7.722 -1.3512  1.3315 -0.0680
  603MOL0     H81355   3.246   1.010   7.887  0.5483  1.4910  1.1984
  603MOL0     H81356   3.312   1.287   7.853 -1.4614 -2.5399  2.0868
  603MOL0     H81357   3.298   1.519   7.654 -0.8266  2.1428 -2.5945
  603MOL0     H81358   3.134   1.529   7.597  0.1948 -2.5321 -1.0409
  603MOL0     H81359   3.079   1.509   7.849  2.0610 -2.9890  0.6882
  603MOL0     H81360   3.246   1.546   7.870  1.4751  1.3907 -1.8658
  603MOL0     H81361   3.053   1.751   7.727  1.5506  1.4120 -0.8774
  603MOL0     H81362   3.231   1.756   7.742 -0.3236  1.1146 -0.2042
  603MOL0     H81363   3.185   1.727   8.007  1.7837  0.9755  0.0574
  603MOL0     H81364   3.017   1.766   7.963 -0.4007  1.9071 -0.5538
  603MOL0     H81365   3.134   2.134   8.006 -0.4892 -0.9327 -1.2211
  603MOL0     H81366   3.322   2.286   8.103  1.4963  1.1065 -2.7743
  603MOL0     H81367   3.743   2.445   8.038 -0.0251  0.8637 -1.4059
  603MOL0     H81368   3.923   2.577   8.128  2.4864  0.9099 -0.0254
  603MOL0     H81369   4.198   2.354   8.411  1.5541  0.2956  0.8972
  603MOL0     H81370   4.305   2.372   8.282 -1.0996  0.1775  0.0590
  603MOL0     H81371   4.332   2.627   8.356 -0.2974 -2.4157 -2.6167
  603MOL0     H81372   4.230   2.570   8.498  0.0788 -0.6377 -0.8113
  603MOL0     H81373   4.435   2.381   8.500 -0.8600  1.3046  2.9610
  603MOL0     H81374   4.498   2.504   8.394 -2.2198 -1.9574 -2.1004
  603MOL0     H81375   4.430   2.561   8.685 -0.0821 -1.2043 -0.3857
  603MOL0     H81376   4.489   2.688   8.583  2.5267  0.6557  0.9325
  603MOL0     H81377   4.709   2.581   8.568  3.2491 -3.4937  1.1284
  603MOL0     H81378   4.641   2.439   8.661 -0.2591 -0.0466 -0.0416
  603MOL0     H81379   4.750   2.707   8.753 -1.2316  0.8823 -0.7815
  603MOL0     H81380   4.615   2.654   8.826  1.9170 -1.2114  2.6622
  603MOL0     H81381   4.717   2.441   8.894  1.9558 -0.7049  2.7193
  603MOL0     H81382   4.821   2.573   8.938  0.8916  1.6393 -1.0571
  603MOL0     H81383   4.857   2.392   8.710 -1.1871  0.2356  1.4213
  603MOL0     H81384   4.962   2.542   8.749 -3.3176  2.4758  1.3916
  603MOL0     H81385   4.089   2.223   8.307  0.3943  3.5643  1.7504
  603MOL0     H81386   3.903   2.084   8.208  1.9044 -0.4572 -0.3039
  603MOL0     H81387   3.582   1.955   8.017  0.8431  1.9161  2.2653
  603MOL0     H81388   3.405   1.824   7.945 -0.9485  0.6269 -0.4422
  603MOL0     H81389   4.285   0.563   7.938  2.2593  0.7596 -0.3860
  603MOL0     H81390   4.486   0.412   7.960  5.7599  0.2432  2.4005
  603MOL0     H81391   4.778   0.193   8.084 -1.8373 -2.0695 -0.4523
  603MOL0     H81392   5.008   0.089   8.129 -1.9661 -2.7727 -1.5566
  603MOL0     H81393   5.199   0.156   8.263  0.2593 -0.9767 -0.2667
  603MOL0     H81394   5.211  -0.029   8.249 -1.4348  0.2153 -0.8186
  603MOL0     H81395   5.405   0.086   8.315  0.2605 -4.7163 -0.6330
  603MOL0     H81396   5.355  -0.028   8.441 -1.4914  0.0064  0.6481
  603MOL0     H81397   5.305   0.116   8.598 -2.2339  0.7800 -0.0629
  603MOL0     H81398   5.255   0.235   8.488 -2.1665  0.4917  4.3980
  603MOL0     H81399   5.497   0.302   8.469  1.4141 -2.9844 -2.9631
  603MOL0     H81400   5.464   0.265   8.644 -1.5075  0.0609  0.2039
  603MOL0     H81401   5.762  -0.018   8.484  1.6020  0.9414 -0.2429
  603MOL0     H81402   4.902   0.034   8.539  1.7656  0.7819 -1.6297
  603MOL0     H81403   4.584   0.186   8.525  1.4820  1.8186 -1.1930
  603MOL0     H81404   4.573   0.013   8.527 -1.0848  0.5662  0.1651
  603MOL0     H81405   4.705   0.081   8.616 -0.3119 -1.6819 -0.8802
  604MOL0     O81406   3.904   5.219   8.270 -0.1864 -1.0569  0.7840
  604MOL0     C81407   3.804   5.169   8.315 -0.3786 -0.2002  0.1910
  604MOL0     O81408   3.772   5.028   8.313  0.1105  0.4101  0.1148
  604MOL0     C81409   3.851   4.925   8.261  0.3047  0.4395  0.2141
  604MOL0     C81410   3.789   4.801   8.250  0.0222 -0.0357 -0.4796
  604MOL0     C81411   3.850   4.693   8.195 -0.0419 -0.7067  0.1389
  604MOL0     C81412   3.976   4.707   8.142 -0.4640 -0.1368  0.2106
  604MOL0     O81413   4.028   4.587   8.102 -0.6092 -0.0591  0.1207
  604MOL0     C81414   4.162   4.582   8.049 -0.4460 -0.0656 -0.0871
  604MOL0     C81415   4.172   4.438   7.995  0.0517  0.4495  0.4687
  604MOL0     C81416   4.170   4.325   8.100  0.6085 -0.3911  0.3545
  604MOL0     C81417   4.162   4.191   8.027 -0.8740  0.8914 -0.2483
  604MOL0     C81418   4.237   4.083   8.113  0.1516 -0.1045  0.8023
  604MOL0     C81419   4.167   4.087   8.255 -0.2561  0.5477  1.2387
  604MOL0     C81420   4.233   3.973   8.340  1.0772  0.6298 -0.3426
  604MOL0     C81421   4.241   3.997   8.496  0.4003 -0.0120 -0.4101
  604MOL0     N81422   4.357   4.069   8.541  0.2555  0.2606  0.5183
  604MOL0     C81423   4.451   4.023   8.633 -0.0650 -1.0694 -0.3806
  604MOL0     C81424   4.548   4.118   8.629 -0.9669 -0.0787  0.4790
  604MOL0     C81425   4.673   4.140   8.723 -0.0296  0.5890 -0.7982
  604MOL0     C81426   4.808   4.122   8.660  0.3597  0.0390  0.8299
  604MOL0     C81427   4.918   4.175   8.744  0.0397  0.0066  0.0726
  604MOL0     C81428   4.965   4.069   8.841  0.0053  0.1442  0.3679
  604MOL0     O81429   5.054   3.986   8.762 -0.7768 -0.1669 -0.2202
  604MOL0     C81430   5.160   3.944   8.842  0.5510 -0.7357  0.0689
  604MOL0     C81431   5.162   3.920   8.980 -0.3697 -0.1797  1.0796
  604MOL0     C81432   5.276   3.876   9.044 -0.7761 -0.7961  0.1150
  604MOL0     C81433   5.391   3.849   8.966 -0.6045  0.6182  0.0800
  604MOL0     C81434   5.516   3.804   9.036  0.6685 -0.0002 -0.5445
  604MOL0     O81435   5.605   3.743   8.957 -0.6096 -0.0393  0.1691
  604MOL0     C81436   5.725   3.701   9.005 -0.0144  0.7600  0.0182
  604MOL0     C81437   5.790   3.609   8.930 -0.3470  0.4567 -0.1806
  604MOL0     C81438   5.913   3.556   8.957 -1.8536 -0.3248 -1.1871
  604MOL0     C81439   5.982   3.596   9.079  0.4065  0.1652 -0.1059
  604MOL0     O81440   6.102   3.539   9.110 -0.1175  0.0886 -0.1183
  604MOL0     C81441   6.188   3.576   9.221  0.0635 -0.4758  0.4303
  604MOL0     C81442   6.333   3.528   9.194  1.1305 -0.2568 -0.2833
  604MOL0     C81443   6.347   3.371   9.189  0.2737  0.3864 -1.2679
  604MOL0     C81444   6.329   3.301   9.062  0.3004  0.3721 -0.2240
  604MOL0     C81445   6.337   3.149   9.069 -0.3953 -0.3050  0.2169
  604MOL0     C81446   6.381   3.079   8.937 -0.1968 -0.2686  0.0280
  604MOL0     C81447   6.523   3.121   8.877  0.4584  0.2481 -0.6136
  604MOL0     C81448   6.640   3.106   8.967 -0.5000  0.8841  0.4348
  604MOL0    Cl81449   6.699   2.940   8.981 -0.2982 -0.2163  0.0197
  604MOL0     C81450   5.920   3.704   9.155 -0.4620  0.1906 -0.2607
  604MOL0     C81451   5.799   3.761   9.109  0.2652 -0.2649  0.0531
  604MOL0     O81452   5.528   3.820   9.160 -0.0278 -0.6475 -0.4673
  604MOL0     C81453   5.384   3.866   8.828 -0.3371 -0.0436  0.5382
  604MOL0     C81454   5.268   3.916   8.765 -0.0800  0.7852 -0.2402
  604MOL0     N81455   4.511   4.214   8.537 -0.4588 -0.6525  0.8377
  604MOL0     N81456   4.402   4.181   8.484  0.0817  0.1741 -0.2333
  604MOL0     C81457   4.043   4.828   8.146 -0.8030 -0.3035 -0.1111
  604MOL0     C81458   3.980   4.937   8.200  0.0818 -0.7770  0.1579
  604MOL0     C81459   3.719   5.259   8.391  0.0143 -0.8289 -0.2122
  604MOL0     C81460   3.780   5.364   8.470 -0.1491  0.4913  0.0544
  604MOL0     C81461   3.704   5.458   8.539 -0.0288  0.6646 -0.7673
  604MOL0     C81462   3.562   5.447   8.541 -0.4236 -0.0288 -0.5883
  604MOL0     O81463   3.481   5.537   8.606 -0.1323  0.3302  0.2282
  604MOL0     C81464   3.526   5.645   8.693 -0.9454  0.5882 -0.0192
  604MOL0     C81465   3.550   5.592   8.840 -0.8598 -0.4904  0.7056
  604MOL0     C81466   3.506   5.693   8.935  0.1404 -0.0064 -0.0946
  604MOL0     C81467   3.348   5.699   8.950 -1.0097 -0.0269  0.4357
  604MOL0     C81468   3.300   5.603   9.050 -0.1340 -0.3955 -0.6484
  604MOL0     C81469   3.263   5.528   9.139 -0.5411  0.1132  0.1567
  604MOL0     C81470   3.499   5.352   8.468 -0.5806 -0.4350 -0.0298
  604MOL0     C81471   3.579   5.251   8.399  0.1378 -0.3348 -0.3032
  604MOL0     C81472   3.505   5.137   8.342  1.3886 -0.0954  0.0969
  604MOL0     H81473   3.686   4.796   8.284 -0.1447 -0.6923 -1.0637
  604MOL0     H81474   3.796   4.600   8.210  1.2952 -1.8338 -1.6035
  604MOL0     H81475   4.178   4.653   7.968  0.4040 -1.2287 -0.9655
  604MOL0     H81476   4.242   4.597   8.122 -2.1529  1.9703  1.4726
  604MOL0     H81477   4.265   4.427   7.938 -0.3178  1.1477 -0.2883
  604MOL0     H81478   4.090   4.423   7.925 -0.4773  0.5926  1.0458
  604MOL0     H81479   4.090   4.344   8.172  1.6877 -0.8446  1.7127
  604MOL0     H81480   4.254   4.334   8.169  0.9003 -0.9201  0.0803
  604MOL0     H81481   4.059   4.155   8.017 -1.1041  1.3222  0.4867
  604MOL0     H81482   4.206   4.216   7.930  2.6616 -0.2587  0.8978
  604MOL0     H81483   4.203   3.990   8.068 -1.4727  0.9423 -0.2198
  604MOL0     H81484   4.344   4.102   8.126 -0.5401  3.3668  2.7067
  604MOL0     H81485   4.189   4.186   8.297 -2.7527  1.0894  1.3984
  604MOL0     H81486   4.060   4.066   8.246  0.1763 -0.8293 -3.0395
  604MOL0     H81487   4.334   3.936   8.317  1.1355  0.1945  0.5379
  604MOL0     H81488   4.165   3.887   8.337 -0.8978  2.0415  1.2073
  604MOL0     H81489   4.162   4.067   8.524 -0.3637 -0.6457 -0.9418
  604MOL0     H81490   4.229   3.911   8.562 -0.1613  0.8674  0.6653
  604MOL0     H81491   4.455   3.932   8.691 -0.6391 -0.6855  0.2841
  604MOL0     H81492   4.664   4.239   8.768 -0.2520 -0.2044  0.9659
  604MOL0     H81493   4.676   4.071   8.807  1.1146  0.8130 -0.6353
  604MOL0     H81494   4.839   4.020   8.634  3.6494  0.7781  1.3626
  604MOL0     H81495   4.811   4.178   8.566 -1.9344  0.9642  1.2304
  604MOL0     H81496   4.877   4.256   8.804  0.6528 -0.2443  0.8534
  604MOL0     H81497   4.993   4.222   8.680 -0.6859  0.2130 -0.6349
  604MOL0     H81498   4.875   4.021   8.881  0.5533 -0.3457  1.0425
  604MOL0     H81499   5.017   4.133   8.913 -0.5282  0.6948  0.2692
  604MOL0     H81500   5.073   3.938   9.039 -1.2661 -0.3392 -0.1749
  604MOL0     H81501   5.287   3.878   9.152  0.0089 -4.9376  0.2642
  604MOL0     H81502   5.739   3.559   8.848 -0.0337 -0.8110  0.3610
  604MOL0     H81503   5.968   3.484   8.896 -1.0458  0.2734 -1.1966
  604MOL0     H81504   6.205   3.683   9.235 -2.1626  0.0836 -0.5604
  604MOL0     H81505   6.146   3.526   9.309 -2.0186 -1.1942 -0.8990
  604MOL0     H81506   6.367   3.565   9.097  0.1531 -2.6818 -1.6371
  604MOL0     H81507   6.399   3.565   9.273  1.7966 -2.0081  0.0355
  604MOL0     H81508   6.443   3.341   9.234 -0.1223 -0.2915 -0.8612
  604MOL0     H81509   6.272   3.326   9.254  1.2845  1.3355  0.6667
  604MOL0     H81510   6.414   3.335   9.001 -0.2151  0.9411 -0.6384
  604MOL0     H81511   6.234   3.329   9.016 -0.0567  0.1565  0.3724
  604MOL0     H81512   6.235   3.110   9.075  0.6613 -3.3749 -0.4022
  604MOL0     H81513   6.401   3.127   9.155 -0.2790  0.7969  0.4297
  604MOL0     H81514   6.378   2.971   8.954 -0.3887 -0.4404 -1.0319
  604MOL0     H81515   6.303   3.104   8.865 -1.8359  0.5654  1.9948
  604MOL0     H81516   6.516   3.229   8.859 -0.1472  0.1100 -1.2074
  604MOL0     H81517   6.523   3.073   8.779 -1.9098 -0.8251 -0.1432
  604MOL0     H81518   6.725   3.165   8.932  1.8855 -2.2445  0.4746
  604MOL0     H81519   6.624   3.134   9.071  0.1603  0.7474  0.5789
  604MOL0     H81520   5.963   3.739   9.248 -1.6331  1.3312 -0.1179
  604MOL0     H81521   5.770   3.845   9.171 -0.5881 -4.2233  5.7290
  604MOL0     H81522   5.471   3.838   8.770  0.7054  3.4152  0.2128
  604MOL0     H81523   5.263   3.934   8.659  0.3305  0.0762 -0.3864
  604MOL0     H81524   4.141   4.839   8.101 -1.6116  1.8473 -1.5202
  604MOL0     H81525   4.016   5.038   8.220 -0.8417 -0.3628 -0.1771
  604MOL0     H81526   3.887   5.381   8.469  0.0056 -0.4339 -0.1560
  604MOL0     H81527   3.742   5.545   8.593  2.9691 -1.4524  0.8609
  604MOL0     H81528   3.450   5.723   8.695  0.4771  2.0677 -1.0073
  604MOL0     H81529   3.620   5.693   8.662  0.9420 -2.6221  0.3051
  604MOL0     H81530   3.657   5.570   8.847 -0.7755 -0.5724 -0.5120
  604MOL0     H81531   3.489   5.502   8.855 -0.7930 -0.7077 -0.2269
  604MOL0     H81532   3.541   5.795   8.914  3.8450 -1.3493 -1.0064
  604MOL0     H81533   3.554   5.673   9.032  4.3888  1.5806 -1.6479
  604MOL0     H81534   3.318   5.800   8.977 -0.3254  0.6614 -1.2494
  604MOL0     H81535   3.299   5.670   8.856  1.2274 -1.4291 -0.3809
  604MOL0     H81536   3.245   5.457   9.217  1.6673 -3.1122 -2.0104
  604MOL0     H81537   3.391   5.355   8.474 -0.6553  1.8142 -1.5490
  604MOL0     H81538   3.495   5.069   8.427  2.6605  0.1530  0.4713
  604MOL0     H81539   3.410   5.178   8.304  3.1057  2.2451 -2.0256
  604MOL0     H81540   3.550   5.091   8.253 -0.1242  0.5814 -1.0677
  605MOL0     O81541   9.208   0.265  10.460  0.2490 -0.0607 -0.7017
  605MOL0     C81542   9.175   0.167  10.525  0.9992  0.0229 -0.3963
  605MOL0     O81543   9.127   0.172  10.653  0.7693  0.2110 -0.0704
  605MOL0     C81544   9.153   0.287  10.727 -0.7573 -0.0757  0.3430
  605MOL0     C81545   9.071   0.316  10.832  1.2376 -0.2506 -0.7956
  605MOL0     C81546   9.091   0.424  10.922  0.2221 -0.0101 -0.0596
  605MOL0     C81547   9.198   0.513  10.910 -0.7933 -0.2642 -0.2044
  605MOL0     O81548   9.213   0.617  10.998  0.4394  0.2440 -0.1888
  605MOL0     C81549   9.340   0.659  11.036 -0.1034 -0.5250  0.0557
  605MOL0     C81550   9.325   0.776  11.138 -0.2932  0.6768  0.1862
  605MOL0     C81551   9.286   0.724  11.278 -0.0881  0.0381 -0.0126
  605MOL0     C81552   9.246   0.843  11.371  0.2464  0.5504 -0.1125
  605MOL0     C81553   9.352   0.936  11.414 -0.3429  0.2329  0.6248
  605MOL0     C81554   9.467   0.860  11.485 -0.0065 -0.2348 -0.2112
  605MOL0     C81555   9.412   0.762  11.589 -0.5996 -0.1115  0.9273
  605MOL0     C81556   9.514   0.761  11.713  0.8849 -0.1861 -0.0832
  605MOL0     N81557   9.645   0.709  11.675  0.4627  0.1848 -0.1916
  605MOL0     C81558   9.761   0.769  11.717 -0.0119  0.4690  0.4482
  605MOL0     C81559   9.851   0.700  11.647 -0.6839  0.0370 -0.1637
  605MOL0     C81560  10.002   0.760  11.637  0.0152 -0.2327  0.1362
  605MOL0     C81561  10.066   0.733  11.498 -0.5110 -0.0501  0.3562
  605MOL0     C81562  10.216   0.757  11.486 -0.0557 -0.4045 -0.1197
  605MOL0     C81563  10.268   0.728  11.347  0.2232  0.5267  0.6654
  605MOL0     O81564  10.406   0.782  11.353  0.5969 -0.0487  0.3302
  605MOL0     C81565  10.486   0.771  11.239  0.5515 -0.8981 -0.1254
  605MOL0     C81566  10.604   0.834  11.246  0.4366 -0.1440 -0.3067
  605MOL0     C81567  10.694   0.825  11.134 -0.5714 -1.1337  0.3880
  605MOL0     C81568  10.662   0.755  11.020 -0.5650 -0.5437 -0.0917
  605MOL0     C81569  10.751   0.738  10.909  0.1256 -0.2145 -0.8965
  605MOL0     O81570  10.718   0.650  10.816  0.1020  0.0667  0.4556
  605MOL0     C81571  10.802   0.650  10.707  1.4538  0.1029  0.0884
  605MOL0     C81572  10.847   0.525  10.659  0.5452  0.2170 -0.1729
  605MOL0     C81573  10.938   0.518  10.553  0.1557 -0.4038  0.0446
  605MOL0     C81574  10.994   0.641  10.501  0.1519  0.4755  0.1222
  605MOL0     O81575  11.097   0.649  10.408 -0.3401 -0.0499  0.9067
  605MOL0     C81576  11.142   0.525  10.349 -1.1974  0.0074 -0.1580
  605MOL0     C81577  11.246   0.537  10.242 -1.0561  0.5089 -0.0760
  605MOL0     C81578  11.210   0.653  10.145  0.4973 -0.5448  1.1767
  605MOL0     C81579  11.324   0.666  10.036 -0.4548 -0.6483 -0.4533
  605MOL0     C81580  11.306   0.559   9.921  0.4384  0.0041 -0.0113
  605MOL0     C81581  11.361   0.608   9.784  0.5376  0.1200  0.1341
  605MOL0     C81582  11.492   0.676   9.776  0.2260 -1.0491  0.1493
  605MOL0     C81583  11.537   0.707   9.631 -0.4324  0.6467  0.3694
  605MOL0    Cl81584  11.696   0.775   9.652  0.0192 -0.2394 -0.0108
  605MOL0     C81585  10.945   0.762  10.545  0.9769  0.3425  0.4283
  605MOL0     C81586  10.840   0.767  10.635 -0.4283  0.2231 -0.2115
  605MOL0     O81587  10.860   0.784  10.925  0.0527 -0.1041  0.0987
  605MOL0     C81588  10.527   0.700  11.009 -0.3619  1.3540 -0.7223
  605MOL0     C81589  10.445   0.714  11.111 -0.7196  0.0440  0.9586
  605MOL0     N81590   9.793   0.590  11.585  0.7768 -0.6276  0.3429
  605MOL0     N81591   9.666   0.592  11.602 -0.2176 -0.3383 -0.3890
  605MOL0     C81592   9.286   0.477  10.802 -1.2382 -0.2225 -0.4693
  605MOL0     C81593   9.263   0.367  10.715 -0.3068 -0.4118  0.0180
  605MOL0     C81594   9.155   0.040  10.461  0.6411  0.5975 -0.4272
  605MOL0     C81595   9.148  -0.068  10.539 -0.5822  0.3604  0.3967
  605MOL0     C81596   9.104  -0.196  10.501 -0.8143 -1.0298  0.0018
  605MOL0     C81597   9.053  -0.210  10.369  0.9158  0.3196  0.5733
  605MOL0     O81598   8.999  -0.334  10.334  0.3208  0.2104  0.1426
  605MOL0     C81599   8.994  -0.373  10.193  0.2622 -0.9778 -0.4469
  605MOL0     C81600   8.941  -0.519  10.172 -0.6999 -0.0936 -1.5739
  605MOL0     C81601   8.981  -0.574  10.031 -0.1096  1.0163  0.9684
  605MOL0     C81602   8.879  -0.551   9.912 -0.0073 -0.7009 -0.4386
  605MOL0     C81603   8.906  -0.633   9.801 -0.3011  0.1048  0.5096
  605MOL0     C81604   8.915  -0.695   9.692 -1.2812 -0.4881 -0.1089
  605MOL0     C81605   9.048  -0.098  10.285  0.7099 -0.5167 -0.4491
  605MOL0     C81606   9.108   0.026  10.324  0.4990  0.0194 -1.2218
  605MOL0     C81607   9.105   0.137  10.218  0.0680 -0.1539 -0.2418
  605MOL0     H81608   8.987   0.247  10.837  1.0483  0.0397  0.0997
  605MOL0     H81609   9.030   0.440  11.011 -0.5051 -2.8423  0.0686
  605MOL0     H81610   9.394   0.576  11.082 -0.1448 -0.9825 -0.6957
  605MOL0     H81611   9.411   0.666  10.952 -0.5215 -0.1256 -0.2709
  605MOL0     H81612   9.255   0.857  11.115 -2.1440 -0.4457  1.6272
  605MOL0     H81613   9.423   0.824  11.145 -0.3678  1.0324 -0.9253
  605MOL0     H81614   9.372   0.668  11.316 -0.1345  1.2301  1.9838
  605MOL0     H81615   9.203   0.653  11.271 -1.2148  1.4884 -2.5068
  605MOL0     H81616   9.165   0.902  11.326 -2.9637 -3.7784 -0.7263
  605MOL0     H81617   9.196   0.796  11.456 -0.7133 -0.4938 -1.2099
  605MOL0     H81618   9.395   0.990  11.329  2.5285 -0.8288  1.2807
  605MOL0     H81619   9.311   1.008  11.485  0.2687 -1.8241  3.2274
  605MOL0     H81620   9.537   0.798  11.428  2.3651 -0.1919  2.4266
  605MOL0     H81621   9.532   0.935  11.530 -0.3371 -0.5083  0.7421
  605MOL0     H81622   9.392   0.663  11.547 -2.5395  1.9947 -3.8206
  605MOL0     H81623   9.317   0.790  11.634 -1.4370 -2.7944  1.0433
  605MOL0     H81624   9.527   0.858  11.761  3.0339 -1.6485  2.5646
  605MOL0     H81625   9.482   0.693  11.792  1.8389 -1.7460 -0.9794
  605MOL0     H81626   9.790   0.859  11.770  3.0334  0.4648 -0.9505
  605MOL0     H81627  10.012   0.865  11.665  1.5498  0.1923 -1.7777
  605MOL0     H81628  10.062   0.711  11.714 -2.2014 -0.6337  1.7022
  605MOL0     H81629  10.041   0.633  11.462  0.1606  0.2492 -1.0325
  605MOL0     H81630  10.013   0.810  11.440  0.3071  1.8054  1.9629
  605MOL0     H81631  10.273   0.690  11.551 -0.2847  0.3574  0.8888
  605MOL0     H81632  10.229   0.858  11.525 -5.2992  0.1299  1.0584
  605MOL0     H81633  10.197   0.778  11.281  0.4440 -0.6423 -0.4952
  605MOL0     H81634  10.265   0.623  11.319  0.5517  0.6895 -0.0188
  605MOL0     H81635  10.632   0.886  11.338 -0.4794 -0.4686  0.1650
  605MOL0     H81636  10.791   0.873  11.141 -1.5822  1.1195 -0.1637
  605MOL0     H81637  10.808   0.436  10.707  1.4424  0.9068  1.9605
  605MOL0     H81638  10.975   0.425  10.510  0.1007 -0.3099 -0.2055
  605MOL0     H81639  11.183   0.468  10.433 -1.7472 -0.6099 -0.2934
  605MOL0     H81640  11.057   0.461  10.321 -0.3386 -0.9409 -0.6853
  605MOL0     H81641  11.341   0.546  10.297  0.8259  0.8615 -3.1107
  605MOL0     H81642  11.261   0.444  10.187  2.8338 -0.1402  1.7055
  605MOL0     H81643  11.115   0.618  10.103  1.6045 -2.3525  0.0715
  605MOL0     H81644  11.210   0.756  10.183 -0.6025  0.3318 -1.0284
  605MOL0     H81645  11.418   0.639  10.084 -0.0635 -1.5445 -1.6738
  605MOL0     H81646  11.336   0.766   9.992  0.8276 -1.2394 -1.5421
  605MOL0     H81647  11.197   0.550   9.914  0.4518  0.8594 -1.5781
  605MOL0     H81648  11.355   0.464   9.945  0.0512 -1.2213 -3.5086
  605MOL0     H81649  11.362   0.512   9.731 -3.7128 -0.7021  1.1026
  605MOL0     H81650  11.287   0.675   9.739 -2.2848 -2.8221 -0.0398
  605MOL0     H81651  11.570   0.619   9.826  1.6757  1.0897  0.4923
  605MOL0     H81652  11.486   0.774   9.824  1.7578  0.2543 -2.0659
  605MOL0     H81653  11.536   0.624   9.559  0.7845  0.9447 -0.0086
  605MOL0     H81654  11.465   0.775   9.585  1.4807  1.1656 -2.0587
  605MOL0     H81655  10.974   0.852  10.492  2.8759 -1.3066 -1.4979
  605MOL0     H81656  10.799   0.862  10.664  0.2260  1.0002 -1.7020
  605MOL0     H81657  10.497   0.627  10.935 -1.7934  0.7887  0.3676
  605MOL0     H81658  10.349   0.664  11.103  0.2534 -1.6332 -1.2465
  605MOL0     H81659   9.382   0.525  10.790 -1.2371 -0.2330 -0.4996
  605MOL0     H81660   9.341   0.342  10.644  0.9732  0.8716  0.8932
  605MOL0     H81661   9.199  -0.070  10.634  1.1197  1.5987 -0.4439
  605MOL0     H81662   9.114  -0.279  10.570  2.9646  1.7141  3.1943
  605MOL0     H81663   9.094  -0.359  10.151 -0.1346  0.0679 -1.1010
  605MOL0     H81664   8.933  -0.297  10.143  2.9955  2.4151  0.9894
  605MOL0     H81665   8.834  -0.528  10.194 -0.6929  3.1931  0.5753
  605MOL0     H81666   8.992  -0.575  10.251  0.0396 -1.0040 -2.6498
  605MOL0     H81667   8.995  -0.682  10.043 -0.0719  0.8841 -0.1657
  605MOL0     H81668   9.076  -0.527  10.007 -0.4022  1.3474  0.4294
  605MOL0     H81669   8.776  -0.570   9.943 -1.5980  3.3833 -2.3829
  605MOL0     H81670   8.890  -0.447   9.878  3.0374 -1.5508 -2.4202
  605MOL0     H81671   8.936  -0.765   9.614  1.7655 -0.3708  0.4565
  605MOL0     H81672   9.006  -0.106  10.185 -2.8241  2.5071  0.5839
  605MOL0     H81673   9.062   0.091  10.128  1.1317 -0.2629 -0.7107
  605MOL0     H81674   9.035   0.217  10.246  1.2628  0.2052  1.8529
  605MOL0     H81675   9.204   0.183  10.208  0.3198 -0.3022  1.3382
  606MOL0     O81676   7.490   3.309   1.652 -0.4232  0.0413  0.7159
  606MOL0     C81677   7.565   3.359   1.733  1.2670 -0.3302 -0.1640
  606MOL0     O81678   7.516   3.436   1.840 -0.5002 -0.0861 -1.1531
  606MOL0     C81679   7.389   3.486   1.840  0.6344 -0.5820  0.1704
  606MOL0     C81680   7.337   3.549   1.727 -0.0880 -0.6341  0.6269
  606MOL0     C81681   7.201   3.580   1.721 -0.4394  0.0512  0.0122
  606MOL0     C81682   7.121   3.561   1.835 -0.9651  0.2861  0.1739
  606MOL0     O81683   6.988   3.572   1.831 -0.2507 -0.2940  0.2055
  606MOL0     C81684   6.919   3.468   1.757 -0.7484  0.1721  0.1346
  606MOL0     C81685   6.858   3.518   1.621  0.6756  0.0650  0.2665
  606MOL0     C81686   6.742   3.611   1.652 -0.3686 -0.3194 -0.5460
  606MOL0     C81687   6.603   3.543   1.667 -0.9181  0.1038 -0.0885
  606MOL0     C81688   6.500   3.634   1.713  0.2567 -1.0135  1.0088
  606MOL0     C81689   6.362   3.577   1.729 -0.1536  0.0807 -0.4032
  606MOL0     C81690   6.286   3.706   1.775  0.1485 -0.1284  0.1805
  606MOL0     C81691   6.137   3.683   1.761 -0.0181  0.9864 -0.0943
  606MOL0     N81692   6.070   3.577   1.839 -0.7389  0.0277  0.0186
  606MOL0     C81693   5.984   3.487   1.782 -0.3102 -1.0308  0.0031
  606MOL0     C81694   5.977   3.392   1.885  0.7218 -0.2126  1.1499
  606MOL0     C81695   5.913   3.255   1.873  0.0669  0.1227  1.3172
  606MOL0     C81696   5.938   3.166   1.748 -0.2285 -0.1380  0.6184
  606MOL0     C81697   6.069   3.187   1.666 -0.0369  1.0742  0.2270
  606MOL0     C81698   6.199   3.159   1.730 -0.7020 -1.0011 -0.9607
  606MOL0     O81699   6.312   3.184   1.650 -0.0045  0.2478 -0.1233
  606MOL0     C81700   6.435   3.152   1.700 -0.2445  0.5864  0.5803
  606MOL0     C81701   6.541   3.185   1.610 -0.0342 -1.0925 -0.3501
  606MOL0     C81702   6.680   3.162   1.648 -0.5100  0.4457 -0.1934
  606MOL0     C81703   6.708   3.109   1.780  0.7145 -0.4807 -0.3215
  606MOL0     C81704   6.843   3.084   1.831  0.2217 -0.9980  0.8509
  606MOL0     O81705   6.948   3.132   1.757  1.3564  0.1077 -0.4970
  606MOL0     C81706   7.074   3.071   1.784  0.4926  0.4461 -0.4977
  606MOL0     C81707   7.106   2.936   1.782  0.0839  0.3728 -0.4034
  606MOL0     C81708   7.245   2.893   1.795  0.9201  0.0515  0.1135
  606MOL0     C81709   7.336   2.988   1.846  0.5010 -0.5921 -0.6807
  606MOL0     O81710   7.462   2.937   1.871  0.8535  0.2874  0.0175
  606MOL0     C81711   7.557   3.028   1.925 -0.2540 -0.0200  0.1902
  606MOL0     C81712   7.661   2.962   2.011 -1.0387  0.3596 -0.6757
  606MOL0     C81713   7.685   3.046   2.134  0.1588 -0.9831 -0.1798
  606MOL0     C81714   7.797   2.993   2.223  0.9685 -0.9196 -0.4936
  606MOL0     C81715   7.933   3.035   2.173 -1.0348  0.4025 -0.3923
  606MOL0     C81716   8.059   2.999   2.258 -0.2190 -0.2234  0.9822
  606MOL0     C81717   8.189   3.055   2.204 -0.3358 -0.1969  1.1678
  606MOL0     C81718   8.317   2.973   2.257  0.4623 -0.6446 -0.0229
  606MOL0    Cl81719   8.277   2.792   2.245 -0.0318 -0.2166 -0.0053
  606MOL0     C81720   7.299   3.123   1.849 -0.2450 -0.7687  0.4990
  606MOL0     C81721   7.172   3.167   1.817  0.5230  1.1067 -0.6474
  606MOL0     O81722   6.855   3.010   1.931 -0.2240 -0.1794  0.3848
  606MOL0     C81723   6.600   3.077   1.866 -0.5960  0.1663  0.0021
  606MOL0     C81724   6.465   3.095   1.823 -0.2916  0.5935  0.4924
  606MOL0     N81725   6.031   3.439   1.999 -0.6720  0.2425 -0.6042
  606MOL0     N81726   6.079   3.562   1.975 -0.1315  0.0734  0.0288
  606MOL0     C81727   7.176   3.495   1.946  0.2348 -0.5594 -0.3242
  606MOL0     C81728   7.311   3.460   1.949  0.0217  0.5964 -0.6417
  606MOL0     C81729   7.711   3.323   1.725 -0.3585  0.4353  0.1939
  606MOL0     C81730   7.749   3.251   1.612 -0.1606  0.1253  0.0065
  606MOL0     C81731   7.881   3.213   1.594  0.2557  0.4825  0.6437
  606MOL0     C81732   7.981   3.259   1.675  0.6302  0.1197  0.1857
  606MOL0     O81733   8.108   3.231   1.635 -0.2668  0.5588 -0.0085
  606MOL0     C81734   8.205   3.230   1.746 -0.2684 -0.0280 -0.1183
  606MOL0     C81735   8.348   3.222   1.691 -0.9018  0.1736 -0.1925
  606MOL0     C81736   8.460   3.231   1.808  0.6664 -0.4221  0.0672
  606MOL0     C81737   8.456   3.103   1.896 -0.6428 -0.6429 -0.0177
  606MOL0     C81738   8.584   3.077   1.959 -0.0867  0.5103  0.4454
  606MOL0     C81739   8.687   3.037   2.002 -0.4921  0.5421  0.3873
  606MOL0     C81740   7.939   3.338   1.784 -0.2971 -0.5783 -0.0656
  606MOL0     C81741   7.806   3.368   1.817 -0.0143 -0.3669 -0.1097
  606MOL0     C81742   7.780   3.459   1.937 -0.5458 -0.0451  0.1225
  606MOL0     H81743   7.399   3.573   1.642 -0.4800 -1.9214 -0.0577
  606MOL0     H81744   7.179   3.621   1.623  1.4231 -0.2313 -0.5695
  606MOL0     H81745   6.996   3.391   1.746 -0.4264  0.5194 -0.0584
  606MOL0     H81746   6.829   3.434   1.810 -3.1125 -1.2259 -4.2744
  606MOL0     H81747   6.832   3.434   1.555  1.8197  1.4780 -2.0859
  606MOL0     H81748   6.920   3.588   1.564  0.4960  1.6853  1.9825
  606MOL0     H81749   6.728   3.688   1.576 -0.9562  0.5743  0.4433
  606MOL0     H81750   6.756   3.673   1.740 -0.1545 -0.4620 -0.4798
  606MOL0     H81751   6.585   3.502   1.567 -0.0497 -1.3507  0.3192
  606MOL0     H81752   6.600   3.459   1.737  3.0192 -1.2850 -1.2994
  606MOL0     H81753   6.537   3.671   1.809 -1.6186 -2.4877  2.4031
  606MOL0     H81754   6.501   3.719   1.645 -1.8406 -1.6082  0.1522
  606MOL0     H81755   6.337   3.523   1.637  4.5002 -2.7336 -0.3419
  606MOL0     H81756   6.354   3.500   1.807 -1.0487  0.5863  0.0204
  606MOL0     H81757   6.315   3.794   1.716  0.8203  1.9472  3.3439
  606MOL0     H81758   6.304   3.725   1.881 -0.2949  0.5883  0.1291
  606MOL0     H81759   6.080   3.774   1.784 -2.0047 -0.1045 -0.4981
  606MOL0     H81760   6.115   3.649   1.660  4.4417  1.2385 -1.3641
  606MOL0     H81761   5.949   3.471   1.681  0.1966 -0.2710 -0.3005
  606MOL0     H81762   5.956   3.191   1.950  1.9549  0.9668  1.0192
  606MOL0     H81763   5.804   3.273   1.872  0.5451  4.0011  0.8115
  606MOL0     H81764   5.906   3.062   1.755 -0.8934  0.0663  0.6505
  606MOL0     H81765   5.862   3.216   1.687 -0.4986 -0.1756  0.9275
  606MOL0     H81766   6.077   3.290   1.630 -1.1789 -0.0777 -3.8609
  606MOL0     H81767   6.072   3.129   1.573 -1.0586  0.7814  0.3635
  606MOL0     H81768   6.206   3.053   1.757  0.4970 -0.2157  2.2064
  606MOL0     H81769   6.205   3.225   1.817  0.2921 -0.8256 -1.1553
  606MOL0     H81770   6.524   3.237   1.517  0.8892 -2.3506 -1.2452
  606MOL0     H81771   6.759   3.184   1.577 -0.0884 -1.1542 -0.2553
  606MOL0     H81772   7.022   2.867   1.775 -2.4027  3.3608 -3.6118
  606MOL0     H81773   7.277   2.790   1.795 -0.8571 -0.5431 -0.8022
  606MOL0     H81774   7.601   3.097   1.852 -0.7070  0.0272 -0.0367
  606MOL0     H81775   7.499   3.096   1.988 -1.8052 -1.4783  0.3911
  606MOL0     H81776   7.622   2.867   2.051 -1.2666  1.7634  2.7650
  606MOL0     H81777   7.756   2.952   1.959 -0.1992  1.6014  0.5769
  606MOL0     H81778   7.702   3.149   2.101 -1.0515 -1.4523 -2.4891
  606MOL0     H81779   7.597   3.067   2.196  0.5815  0.7393 -0.1118
  606MOL0     H81780   7.783   2.885   2.234 -0.0213 -0.6048  1.8148
  606MOL0     H81781   7.776   3.031   2.323 -2.5835 -0.2202 -1.3722
  606MOL0     H81782   7.934   3.143   2.159 -0.2256  0.1736 -2.3615
  606MOL0     H81783   7.948   2.991   2.074 -2.4102 -1.2267  0.0739
  606MOL0     H81784   8.041   3.034   2.360  0.2824 -1.8946  1.6723
  606MOL0     H81785   8.053   2.890   2.266 -1.2536 -0.1343  1.6948
  606MOL0     H81786   8.208   3.162   2.220 -0.2894  0.4053 -2.1615
  606MOL0     H81787   8.180   3.043   2.096 -0.4859 -0.2015  1.1817
  606MOL0     H81788   8.407   3.006   2.205  0.0194  3.5430  1.4733
  606MOL0     H81789   8.339   3.003   2.360 -0.5030 -0.3107  0.0935
  606MOL0     H81790   7.371   3.198   1.878 -0.6754 -0.1989  0.1229
  606MOL0     H81791   7.143   3.271   1.816 -0.8797  0.7966  1.1206
  606MOL0     H81792   6.612   3.035   1.965 -1.2127  0.4562  0.2090
  606MOL0     H81793   6.390   3.080   1.899 -0.7366 -0.2045 -0.0826
  606MOL0     H81794   7.108   3.479   2.029  2.2154  0.4830  1.6025
  606MOL0     H81795   7.348   3.422   2.044 -0.7451  1.3098 -0.0429
  606MOL0     H81796   7.668   3.210   1.551 -1.8551 -0.3417  2.4323
  606MOL0     H81797   7.903   3.137   1.520  2.4780  3.6445 -2.2420
  606MOL0     H81798   8.173   3.150   1.813  2.9597 -1.8100 -0.4840
  606MOL0     H81799   8.199   3.323   1.803 -0.1497 -0.6866  1.0039
  606MOL0     H81800   8.371   3.296   1.614  0.0781  0.3385  0.2377
  606MOL0     H81801   8.367   3.121   1.654  3.7995  1.9410 -3.5885
  606MOL0     H81802   8.421   3.312   1.871  0.8424  1.0477 -1.6541
  606MOL0     H81803   8.561   3.246   1.771  0.7076 -1.1796 -0.1279
  606MOL0     H81804   8.387   3.120   1.980  2.1458  2.4954  1.9254
  606MOL0     H81805   8.416   3.026   1.831 -1.6124  0.0075 -0.2033
  606MOL0     H81806   8.776   2.998   2.046  2.0795  4.6887 -0.5223
  606MOL0     H81807   8.012   3.380   1.852 -2.0397  0.4894  1.2180
  606MOL0     H81808   7.726   3.551   1.912 -0.7177  0.0074  0.6746
  606MOL0     H81809   7.720   3.411   2.015 -0.4399  1.9700  1.5122
  606MOL0     H81810   7.872   3.494   1.983 -0.6824 -0.5296  0.7886
  607MOL0     O81811   6.078   3.582   9.775  0.1246  0.2938 -0.2650
  607MOL0     C81812   6.027   3.623   9.673  0.4954  0.1437  0.8552
  607MOL0     O81813   6.090   3.645   9.557  0.3582 -0.2636 -0.3648
  607MOL0     C81814   6.228   3.646   9.566  0.1016 -0.4775  0.1454
  607MOL0     C81815   6.298   3.523   9.589  0.0298  0.1457 -0.4757
  607MOL0     C81816   6.440   3.525   9.604  0.4822 -0.6973  0.0423
  607MOL0     C81817   6.510   3.645   9.585  0.1719  0.0562  0.2594
  607MOL0     O81818   6.650   3.655   9.587  0.5141 -0.5243  0.6629
  607MOL0     C81819   6.740   3.536   9.591  0.6734 -0.2623  0.3234
  607MOL0     C81820   6.749   3.479   9.444 -0.4526  0.2359 -0.8841
  607MOL0     C81821   6.837   3.355   9.449 -0.5405  0.2852 -0.2502
  607MOL0     C81822   6.860   3.316   9.303 -0.0445  0.2211 -0.2208
  607MOL0     C81823   6.944   3.184   9.284  0.2796  0.1701 -0.1967
  607MOL0     C81824   6.866   3.067   9.333  0.1659 -0.1402  0.6516
  607MOL0     C81825   6.898   2.930   9.249 -0.2972 -0.0275 -0.6388
  607MOL0     C81826   7.015   2.860   9.308  0.0725 -0.4900 -0.6536
  607MOL0     N81827   6.983   2.786   9.438  0.4232  0.1924  0.2159
  607MOL0     C81828   7.017   2.825   9.561 -0.6825  0.0312 -0.6241
  607MOL0     C81829   6.959   2.735   9.644  0.1536 -0.7050 -0.4638
  607MOL0     C81830   6.948   2.730   9.798  0.5090  0.5076  0.4141
  607MOL0     C81831   7.075   2.770   9.870 -0.6683 -0.7513 -0.2149
  607MOL0     C81832   7.085   2.687   9.997  0.1735  0.6327 -1.3435
  607MOL0     C81833   7.202   2.748  10.087 -0.6783 -0.2846  0.1621
  607MOL0     O81834   7.328   2.699  10.036  0.0966 -0.2656  0.2563
  607MOL0     C81835   7.438   2.748  10.108 -0.3470  0.3124 -0.2815
  607MOL0     C81836   7.564   2.722  10.057  0.1223 -0.8446  0.6385
  607MOL0     C81837   7.680   2.756  10.122 -0.2331 -0.4273 -0.6609
  607MOL0     C81838   7.670   2.831  10.248  0.0471  0.1434 -0.0001
  607MOL0     C81839   7.796   2.858  10.331  0.1543 -0.0346  0.0044
  607MOL0     O81840   7.781   2.930  10.446  0.1227 -0.4391 -0.0983
  607MOL0     C81841   7.883   3.010  10.488 -0.1610 -0.1372  0.9954
  607MOL0     C81842   7.939   2.975  10.610 -0.5761  0.0393 -0.2987
  607MOL0     C81843   8.061   3.022  10.659  0.4552  0.2449  0.9354
  607MOL0     C81844   8.135   3.105  10.580 -0.7177 -1.0740  0.2428
  607MOL0     O81845   8.264   3.148  10.597  0.2722  0.1149 -0.2969
  607MOL0     C81846   8.319   3.144  10.732  0.4005 -0.2773  0.0956
  607MOL0     C81847   8.457   3.216  10.748  0.3128 -0.1124  0.1056
  607MOL0     C81848   8.455   3.358  10.697 -0.1335 -0.7576 -0.3655
  607MOL0     C81849   8.598   3.404  10.682  0.1989 -0.0316  0.0486
  607MOL0     C81850   8.690   3.393  10.806 -0.0950 -0.2853  0.3707
  607MOL0     C81851   8.832   3.455  10.796  0.0918  0.1013 -1.1067
  607MOL0     C81852   8.914   3.407  10.678  0.3485  0.6510  0.1033
  607MOL0     C81853   9.050   3.470  10.689 -0.7370  0.0147  0.2693
  607MOL0    Cl81854   9.133   3.394  10.828  0.0059  0.0965  0.4110
  607MOL0     C81855   8.081   3.137  10.456 -0.0100 -0.1672  0.7555
  607MOL0     C81856   7.955   3.102  10.416  0.3917  0.2762  0.0845
  607MOL0     O81857   7.903   2.799  10.302  0.5176 -0.2160 -0.1757
  607MOL0     C81858   7.546   2.869  10.296  0.1481  0.3229  0.3208
  607MOL0     C81859   7.430   2.840  10.221  0.0843 -0.3542  0.8545
  607MOL0     N81860   6.886   2.643   9.565  1.0003  0.5358 -0.4768
  607MOL0     N81861   6.905   2.675   9.438  0.6325  0.2262  0.0830
  607MOL0     C81862   6.441   3.762   9.553 -0.2954  0.1530  0.5574
  607MOL0     C81863   6.303   3.766   9.544  0.7914 -0.0661  0.3709
  607MOL0     C81864   5.878   3.659   9.681 -0.5248  0.7944 -0.2665
  607MOL0     C81865   5.793   3.580   9.766 -0.9111 -0.2894  0.2350
  607MOL0     C81866   5.666   3.608   9.783 -0.0459 -0.5280 -0.3409
  607MOL0     C81867   5.604   3.724   9.732 -0.5355  0.1430  0.9118
  607MOL0     O81868   5.469   3.742   9.777  0.1965  0.1726  1.1477
  607MOL0     C81869   5.398   3.857   9.724  0.0179  0.3400  0.2254
  607MOL0     C81870   5.269   3.851   9.801  0.0978  0.2070 -0.7531
  607MOL0     C81871   5.181   3.953   9.748  0.7610  0.2930  0.5167
  607MOL0     C81872   5.031   3.932   9.797 -0.5369  0.8924  0.6509
  607MOL0     C81873   4.933   4.016   9.731  0.5916 -0.3198  0.1989
  607MOL0     C81874   4.851   4.089   9.673 -0.3092  0.4354 -0.3318
  607MOL0     C81875   5.683   3.814   9.660  0.6625  1.1731  0.2853
  607MOL0     C81876   5.818   3.775   9.622 -0.0848 -0.8641 -0.3976
  607MOL0     C81877   5.890   3.868   9.517 -0.3068  0.6716 -0.6351
  607MOL0     H81878   6.240   3.433   9.606  0.8553 -0.2633  0.2787
  607MOL0     H81879   6.499   3.444   9.645  1.7993 -1.1282 -2.5090
  607MOL0     H81880   6.836   3.571   9.630  0.6370  2.1669 -1.5320
  607MOL0     H81881   6.697   3.457   9.654 -3.0149 -0.1608 -1.7788
  607MOL0     H81882   6.806   3.550   9.384  1.0260  1.7536  2.1358
  607MOL0     H81883   6.649   3.457   9.404  0.2674  0.6586 -3.0474
  607MOL0     H81884   6.802   3.273   9.512  0.6903  1.1205  1.6241
  607MOL0     H81885   6.933   3.371   9.498 -0.5108 -1.9692  0.5421
  607MOL0     H81886   6.768   3.295   9.248  0.9183  0.0815 -1.8336
  607MOL0     H81887   6.920   3.394   9.255  1.0126 -0.5254 -0.1462
  607MOL0     H81888   6.955   3.172   9.176 -0.2986 -0.0857 -0.2322
  607MOL0     H81889   7.043   3.175   9.331 -1.0103 -1.9714  2.4092
  607MOL0     H81890   6.872   3.061   9.442 -0.1821  0.7352  0.7309
  607MOL0     H81891   6.759   3.083   9.314  0.5213  4.0843  1.3699
  607MOL0     H81892   6.914   2.946   9.142  0.0921  2.7966 -0.2290
  607MOL0     H81893   6.815   2.860   9.250  1.0425 -1.6783  0.4526
  607MOL0     H81894   7.046   2.785   9.235 -2.6091 -2.2193 -0.1910
  607MOL0     H81895   7.087   2.938   9.333  1.6225 -1.8145 -0.8843
  607MOL0     H81896   7.082   2.909   9.585 -0.1623  0.0445 -1.9706
  607MOL0     H81897   6.857   2.773   9.839  1.9200  4.0936  0.1102
  607MOL0     H81898   6.923   2.625   9.816 -0.2164  0.7799  1.0435
  607MOL0     H81899   7.159   2.748   9.802 -0.9561  0.4114 -0.9773
  607MOL0     H81900   7.092   2.877   9.883  0.4650 -0.8404 -0.7887
  607MOL0     H81901   7.113   2.585   9.967  0.3729 -0.0473  1.0111
  607MOL0     H81902   6.983   2.698  10.035 -0.2049  1.9331 -2.6244
  607MOL0     H81903   7.195   2.716  10.191 -1.9847 -0.7233 -0.0376
  607MOL0     H81904   7.188   2.857  10.086 -1.6554 -0.3147  2.8716
  607MOL0     H81905   7.567   2.673   9.961 -3.4280  0.7813 -0.4575
  607MOL0     H81906   7.766   2.724  10.064 -0.3127  0.2057 -1.1427
  607MOL0     H81907   7.903   2.898  10.677  2.3912 -1.8107 -0.6540
  607MOL0     H81908   8.097   2.997  10.758  0.6686  3.1747  1.6923
  607MOL0     H81909   8.250   3.180  10.808  0.1470 -2.0815  0.7675
  607MOL0     H81910   8.345   3.042  10.761 -1.0855 -0.8175 -0.3916
  607MOL0     H81911   8.504   3.199  10.845  0.5618 -2.4203 -0.3475
  607MOL0     H81912   8.531   3.151  10.700 -1.5726 -2.9274  0.7711
  607MOL0     H81913   8.411   3.346  10.597 -1.5303 -0.8235  0.2320
  607MOL0     H81914   8.392   3.421  10.760 -2.9685 -2.2542 -1.4840
  607MOL0     H81915   8.600   3.508  10.646  0.2591  0.6295  1.8745
  607MOL0     H81916   8.636   3.340  10.602 -1.9442  0.0489 -1.0990
  607MOL0     H81917   8.704   3.289  10.837  0.4779 -0.4350 -0.3591
  607MOL0     H81918   8.640   3.445  10.889  0.9527  0.6806  0.4332
  607MOL0     H81919   8.826   3.564  10.797 -1.5973  0.0416 -0.9496
  607MOL0     H81920   8.876   3.431  10.893 -2.4864 -2.0318 -0.3347
  607MOL0     H81921   8.862   3.446  10.589 -3.6052 -2.4609  0.7893
  607MOL0     H81922   8.926   3.299  10.681 -1.4479  0.3827 -1.0120
  607MOL0     H81923   9.115   3.456  10.602  2.2447  1.4159  2.1119
  607MOL0     H81924   9.058   3.575  10.719  0.9097 -0.7717  3.0143
  607MOL0     H81925   8.136   3.203  10.389  0.3417 -0.9187  0.2951
  607MOL0     H81926   7.912   3.141  10.325  2.4491 -1.2607 -1.6485
  607MOL0     H81927   7.532   2.928  10.386 -1.2921 -1.0866  1.0661
  607MOL0     H81928   7.336   2.882  10.256  0.0920  0.1473  0.2807
  607MOL0     H81929   6.495   3.856   9.545  0.6779 -0.5708 -3.3780
  607MOL0     H81930   6.260   3.859   9.508 -1.1657 -1.2767 -0.5513
  607MOL0     H81931   5.839   3.493   9.812  1.8020  2.7612  4.0438
  607MOL0     H81932   5.615   3.546   9.856 -2.0601  0.1431 -1.1061
  607MOL0     H81933   5.382   3.851   9.615  1.0555 -2.3578  0.1579
  607MOL0     H81934   5.459   3.944   9.748  0.0087  0.5249 -0.3882
  607MOL0     H81935   5.286   3.869   9.907  0.2354  2.1966 -1.0703
  607MOL0     H81936   5.228   3.750   9.799  0.7424 -0.1987  2.1688
  607MOL0     H81937   5.186   3.948   9.639  1.1172 -1.5180  0.5905
  607MOL0     H81938   5.213   4.054   9.776  2.2920  0.0633 -0.2911
  607MOL0     H81939   5.004   3.830   9.769 -0.2089  0.5481  1.5345
  607MOL0     H81940   5.022   3.942   9.906  0.8710 -1.6252  1.0875
  607MOL0     H81941   4.761   4.116   9.621 -0.8132 -0.7187 -0.1020
  607MOL0     H81942   5.637   3.905   9.622 -2.3537  0.2330  1.4152
  607MOL0     H81943   5.994   3.893   9.539  0.0950  0.0625 -1.7556
  607MOL0     H81944   5.885   3.823   9.417 -0.0119  1.6467 -1.1017
  607MOL0     H81945   5.847   3.968   9.512  1.0454  1.3404  0.3287
  608MOL0     O81946  11.265   3.629   0.915 -0.2659 -0.0325 -0.8815
  608MOL0     C81947  11.292   3.529   0.974  0.9258 -0.3695 -0.4135
  608MOL0     O81948  11.206   3.429   1.003 -0.2624  0.4906  0.1084
  608MOL0     C81949  11.070   3.454   1.004 -0.0594 -0.6105  0.2710
  608MOL0     C81950  10.997   3.451   0.880  0.4950  0.3005  0.7144
  608MOL0     C81951  10.850   3.445   0.878 -0.5543 -0.5071 -0.8834
  608MOL0     C81952  10.784   3.462   0.999  0.3276  0.9491  1.0657
  608MOL0     O81953  10.646   3.480   1.012  0.2253  0.2224 -0.2054
  608MOL0     C81954  10.563   3.427   0.912 -0.1193  0.1018  0.1544
  608MOL0     C81955  10.552   3.276   0.931  0.4788  0.2022 -0.0924
  608MOL0     C81956  10.566   3.197   0.798  0.0665 -0.5095 -0.3968
  608MOL0     C81957  10.439   3.199   0.708 -0.3640  0.2481  0.2660
  608MOL0     C81958  10.325   3.114   0.769  0.0916 -0.6889 -0.0948
  608MOL0     C81959  10.193   3.165   0.711 -0.7480 -0.0448 -0.2356
  608MOL0     C81960  10.063   3.088   0.751 -0.0008 -0.3247  0.1039
  608MOL0     C81961  10.080   2.939   0.713 -0.8640  0.2667  0.1247
  608MOL0     N81962   9.958   2.866   0.730 -0.5190 -0.2166 -0.0852
  608MOL0     C81963   9.908   2.845   0.856  0.5207  0.2980 -0.4322
  608MOL0     C81964   9.807   2.763   0.825  0.5021 -0.0964 -0.1558
  608MOL0     C81965   9.721   2.688   0.917 -0.1557 -0.1125  0.7266
  608MOL0     C81966   9.803   2.592   1.003  0.0949  0.6176 -0.5307
  608MOL0     C81967   9.834   2.461   0.920  0.0883  0.0899  0.4057
  608MOL0     C81968   9.906   2.360   1.006  0.7246 -0.3082  0.2449
  608MOL0     O81969   9.900   2.232   0.936  0.1413 -0.6946  0.2096
  608MOL0     C81970   9.782   2.160   0.939 -0.1070 -0.4124  0.7558
  608MOL0     C81971   9.783   2.065   0.833  0.0594  0.2526  0.3904
  608MOL0     C81972   9.660   1.998   0.805 -0.1086 -0.7232  0.6412
  608MOL0     C81973   9.549   2.026   0.876 -0.2323  0.3204  0.5795
  608MOL0     C81974   9.426   1.955   0.835 -0.2710  0.2803  0.1696
  608MOL0     O81975   9.425   1.838   0.756 -0.5436 -1.0270 -0.6599
  608MOL0     C81976   9.315   1.814   0.677  0.0210 -0.0198  0.2143
  608MOL0     C81977   9.294   1.676   0.646 -0.5582 -0.1736 -0.0363
  608MOL0     C81978   9.202   1.629   0.554  0.5267  0.0237  0.3819
  608MOL0     C81979   9.129   1.723   0.480 -0.1494  0.0377  0.6191
  608MOL0     O81980   9.060   1.691   0.370  0.1001  0.6257  0.5465
  608MOL0     C81981   8.942   1.620   0.394  0.1884 -0.0431 -0.4160
  608MOL0     C81982   8.847   1.607   0.276 -0.1037  0.4520  0.0031
  608MOL0     C81983   8.778   1.742   0.253  0.5084 -0.1081  0.4183
  608MOL0     C81984   8.638   1.766   0.332 -0.1732  0.0875  0.0454
  608MOL0     C81985   8.568   1.882   0.266  0.1420 -0.7703 -0.2934
  608MOL0     C81986   8.431   1.897   0.331 -0.6404 -0.5362  0.0462
  608MOL0     C81987   8.350   2.008   0.263 -0.6401 -0.2898  0.2126
  608MOL0     C81988   8.234   1.959   0.183 -0.1539 -0.2330 -0.3223
  608MOL0    Cl81989   8.273   1.851   0.053  0.2443  0.4082  0.1977
  608MOL0     C81990   9.147   1.863   0.509 -0.0913 -0.0756  0.6710
  608MOL0     C81991   9.236   1.907   0.603  0.8302  0.4408  0.3824
  608MOL0     O81992   9.328   2.013   0.870  0.4315 -0.7174 -0.2709
  608MOL0     C81993   9.554   2.107   0.989  0.2846  0.1104 -0.0292
  608MOL0     C81994   9.669   2.186   1.014 -0.0767  0.5733 -0.1153
  608MOL0     N81995   9.788   2.750   0.691 -0.2829  0.2289 -0.9449
  608MOL0     N81996   9.891   2.797   0.631 -0.9896 -0.1594 -0.9627
  608MOL0     C81997  10.860   3.469   1.114 -0.1512  0.5428  0.4495
  608MOL0     C81998  10.999   3.464   1.117  0.6762 -0.3690  0.6667
  608MOL0     C81999  11.427   3.508   1.029 -0.7946 -0.0334  0.6158
  608MOL0     C82000  11.446   3.420   1.140  0.5348  0.4815 -1.1408
  608MOL0     C82001  11.571   3.390   1.199  0.9858  0.5018  0.3064
  608MOL0     C82002  11.687   3.435   1.124  0.7438 -0.4872 -1.3744
  608MOL0     O82003  11.815   3.406   1.169  0.2693 -0.3273 -0.0776
  608MOL0     C82004  11.824   3.374   1.310  0.3985  0.2337  0.5623
  608MOL0     C82005  11.974   3.376   1.336 -0.0639  1.0411  0.0726
  608MOL0     C82006  12.035   3.263   1.259  0.3994 -0.9214 -0.5502
  608MOL0     C82007  12.168   3.242   1.323 -0.1939  0.4669 -0.8791
  608MOL0     C82008  12.227   3.115   1.280  0.5930 -0.0244 -0.3194
  608MOL0     C82009  12.263   3.005   1.241  0.5616  0.4672 -0.2830
  608MOL0     C82010  11.677   3.510   1.011 -0.0921 -0.4766  0.2421
  608MOL0     C82011  11.553   3.551   0.961  0.5650 -0.2928  0.2931
  608MOL0     C82012  11.542   3.643   0.839 -0.3753  0.8847  0.5831
  608MOL0     H82013  11.038   3.422   0.784 -1.9961  0.0901 -0.3716
  608MOL0     H82014  10.797   3.439   0.783 -0.0857 -1.2838 -1.1007
  608MOL0     H82015  10.471   3.483   0.930 -0.5538  0.0576 -1.7624
  608MOL0     H82016  10.590   3.457   0.811 -0.7797  1.3278  0.3264
  608MOL0     H82017  10.458   3.248   0.979  0.5879 -0.1306 -0.0737
  608MOL0     H82018  10.632   3.242   0.998  0.5796 -1.5435 -1.0481
  608MOL0     H82019  10.611   3.100   0.821  1.9505  0.1631 -1.0507
  608MOL0     H82020  10.647   3.252   0.750  0.2031  0.7772  1.2401
  608MOL0     H82021  10.414   3.303   0.688 -1.5926  0.0643  0.7480
  608MOL0     H82022  10.465   3.151   0.613  0.6309  1.2028  0.0361
  608MOL0     H82023  10.339   3.008   0.745  2.1182  0.0475 -2.6915
  608MOL0     H82024  10.322   3.115   0.878  0.6812  1.5138 -0.0459
  608MOL0     H82025  10.191   3.271   0.737  0.7098 -0.3269  1.2186
  608MOL0     H82026  10.202   3.165   0.602  2.5554  2.3130 -0.1126
  608MOL0     H82027   9.972   3.129   0.705  0.1009  0.6953  0.7674
  608MOL0     H82028  10.067   3.093   0.860 -0.1263 -0.5648  0.1212
  608MOL0     H82029  10.114   2.933   0.609  1.3707  0.0746  0.8177
  608MOL0     H82030  10.162   2.893   0.769 -0.2580 -0.5894 -1.3950
  608MOL0     H82031   9.936   2.878   0.955 -4.2123  2.3207  0.5203
  608MOL0     H82032   9.678   2.767   0.980 -3.9104  0.5176 -2.2082
  608MOL0     H82033   9.638   2.637   0.865 -1.6644  1.5502  1.3959
  608MOL0     H82034   9.892   2.641   1.044  0.0961  0.8455 -0.8020
  608MOL0     H82035   9.737   2.568   1.087  1.7275  0.4325  0.7433
  608MOL0     H82036   9.890   2.477   0.828  2.8135 -0.6657  1.8262
  608MOL0     H82037   9.737   2.422   0.886  0.2741  0.2511 -0.3107
  608MOL0     H82038   9.857   2.356   1.104  0.9249 -0.3391  0.3429
  608MOL0     H82039  10.008   2.388   1.031  0.1629  0.8351  1.3890
  608MOL0     H82040   9.875   2.054   0.776  0.5242  2.3722  0.6357
  608MOL0     H82041   9.659   1.937   0.716  0.4227  0.2937 -0.0863
  608MOL0     H82042   9.360   1.603   0.690 -0.6178  0.1800  0.6486
  608MOL0     H82043   9.191   1.525   0.525  1.0055 -0.7089  2.6204
  608MOL0     H82044   8.973   1.515   0.403 -0.2591 -0.1638 -0.2130
  608MOL0     H82045   8.894   1.639   0.490 -2.9765  0.4570 -1.9708
  608MOL0     H82046   8.897   1.573   0.185 -2.3553  1.6557 -1.7848
  608MOL0     H82047   8.772   1.533   0.301  0.2480 -0.7141 -2.1835
  608MOL0     H82048   8.834   1.835   0.263 -0.6989  0.8542 -1.3423
  608MOL0     H82049   8.740   1.737   0.151  0.4001 -2.6857  0.5148
  608MOL0     H82050   8.664   1.790   0.435  1.5039  1.2587 -0.6068
  608MOL0     H82051   8.578   1.674   0.328 -0.1973  0.1337 -1.9447
  608MOL0     H82052   8.556   1.872   0.157  1.8981 -0.6657 -0.5238
  608MOL0     H82053   8.627   1.974   0.273 -2.6192  1.2388 -1.6155
  608MOL0     H82054   8.385   1.798   0.334 -2.0032  0.0583  2.8791
  608MOL0     H82055   8.440   1.930   0.435  0.6078  1.6471 -0.6943
  608MOL0     H82056   8.407   2.062   0.187  0.0448 -0.1591  0.8055
  608MOL0     H82057   8.314   2.079   0.338 -4.1542 -0.9930 -0.6370
  608MOL0     H82058   8.162   1.912   0.250  1.9683 -2.1240  0.7835
  608MOL0     H82059   8.191   2.045   0.132  2.5721  0.8015 -1.0865
  608MOL0     H82060   9.113   1.936   0.437  3.0578  2.0217  1.0898
  608MOL0     H82061   9.245   2.014   0.614 -0.5102  0.7440 -1.1142
  608MOL0     H82062   9.462   2.136   1.039 -0.7428 -1.1272 -1.1641
  608MOL0     H82063   9.672   2.237   1.110 -1.6154 -0.7353  0.6889
  608MOL0     H82064  10.806   3.493   1.205 -1.2126  0.1783 -0.0728
  608MOL0     H82065  11.046   3.462   1.215 -1.5570 -0.3047  1.7879
  608MOL0     H82066  11.357   3.394   1.196  0.7541  0.1062 -0.9665
  608MOL0     H82067  11.581   3.339   1.294  0.6644 -0.2278 -0.0432
  608MOL0     H82068  11.778   3.282   1.346 -2.1201  0.0018 -2.8349
  608MOL0     H82069  11.783   3.455   1.371  0.8427 -0.0516  1.2612
  608MOL0     H82070  11.981   3.378   1.445 -0.3709 -1.4983  0.2132
  608MOL0     H82071  12.012   3.469   1.292 -2.2159  1.4666 -0.9948
  608MOL0     H82072  12.058   3.299   1.158  2.0120 -0.5907 -0.0874
  608MOL0     H82073  11.971   3.174   1.262 -3.2647  1.5047  0.0767
  608MOL0     H82074  12.238   3.321   1.294 -0.7506  1.3908  0.1875
  608MOL0     H82075  12.158   3.264   1.429 -1.0470  2.1509 -1.2761
  608MOL0     H82076  12.284   2.909   1.197 -0.5155 -0.8970  1.9620
  608MOL0     H82077  11.770   3.540   0.963 -0.0431  0.9803  1.1865
  608MOL0     H82078  11.481   3.733   0.851 -1.2604  0.8243 -2.4689
  608MOL0     H82079  11.644   3.652   0.802 -0.1811  0.8707  1.1127
  608MOL0     H82080  11.494   3.589   0.756  1.2255  3.0216 -1.8673
  609MOL0     O82081   7.216  10.562   9.381 -0.0823 -0.9057 -1.3448
  609MOL0     C82082   7.262  10.636   9.304  0.4385 -0.1232  1.1437
  609MOL0     O82083   7.386  10.702   9.313 -0.0172 -0.4477 -0.2296
  609MOL0     C82084   7.473  10.629   9.388  0.8753 -0.2999 -1.0524
  609MOL0     C82085   7.547  10.705   9.492 -0.2148 -0.2379  0.2328
  609MOL0     C82086   7.640  10.637   9.567  0.1242 -0.0961 -0.5127
  609MOL0     C82087   7.647  10.500   9.557 -0.9436 -0.2955 -0.6069
  609MOL0     O82088   7.742  10.431   9.633 -0.3242 -0.0047 -0.3067
  609MOL0     C82089   7.694  10.332   9.730  0.4545  1.0018  0.0887
  609MOL0     C82090   7.810  10.252   9.791 -0.7275 -0.5551 -0.5759
  609MOL0     C82091   7.892  10.171   9.697 -0.0814 -0.5990  0.5921
  609MOL0     C82092   7.964  10.056   9.766  0.7705  0.3249  0.0918
  609MOL0     C82093   8.071   9.984   9.688 -1.2030 -0.6698  0.0854
  609MOL0     C82094   8.192  10.074   9.669 -0.9006 -0.1348 -0.1505
  609MOL0     C82095   8.325   9.990   9.657  0.1214 -0.0246 -0.5522
  609MOL0     C82096   8.449  10.083   9.625 -0.7081 -1.0233 -0.2018
  609MOL0     N82097   8.458  10.213   9.697  0.3856  0.3853  0.6613
  609MOL0     C82098   8.546  10.311   9.659  0.4269  0.5537 -0.0836
  609MOL0     C82099   8.529  10.412   9.752 -0.5585 -0.2818  0.3184
  609MOL0     C82100   8.595  10.544   9.737  0.2409 -0.2621 -0.5375
  609MOL0     C82101   8.502  10.662   9.707 -0.5544 -0.2797  0.0440
  609MOL0     C82102   8.571  10.777   9.652 -0.7732  0.0112 -0.4230
  609MOL0     C82103   8.470  10.887   9.621 -0.6006  1.1068 -0.1162
  609MOL0     O82104   8.540  10.995   9.557  0.1125 -0.2100  0.2924
  609MOL0     C82105   8.615  11.086   9.631 -0.2963  0.1990 -1.0465
  609MOL0     C82106   8.535  11.165   9.707  0.4550 -0.1652 -0.3274
  609MOL0     C82107   8.594  11.276   9.776  0.1417 -0.1344  0.5624
  609MOL0     C82108   8.730  11.289   9.788 -0.0735  0.1142  0.8467
  609MOL0     C82109   8.787  11.404   9.859  0.1083  0.1977  0.4722
  609MOL0     O82110   8.708  11.510   9.882  0.0954  0.5162 -0.7210
  609MOL0     C82111   8.760  11.612   9.952 -0.3128  0.5112  0.6893
  609MOL0     C82112   8.706  11.649  10.076 -0.4388 -0.4832  0.2843
  609MOL0     C82113   8.757  11.762  10.148 -0.8961  0.1396  0.3399
  609MOL0     C82114   8.867  11.832  10.095  0.5375  0.0697 -0.2099
  609MOL0     O82115   8.935  11.929  10.151  0.1028 -0.2063  0.2925
  609MOL0     C82116   8.944  11.938  10.297  0.3058  0.1645  0.2925
  609MOL0     C82117   8.959  12.083  10.332  0.2683  0.1554 -0.7454
  609MOL0     C82118   8.963  12.100  10.483 -0.3000 -0.3034  0.0113
  609MOL0     C82119   8.965  12.243  10.521 -0.3407 -0.5561 -0.1827
  609MOL0     C82120   9.014  12.257  10.667  0.0740  0.5070 -0.1906
  609MOL0     C82121   8.912  12.195  10.771 -0.6388  0.8792 -0.1044
  609MOL0     C82122   8.919  12.235  10.914  1.0331 -0.2774  0.0148
  609MOL0     C82123   8.843  12.353  10.947 -0.5262  0.0241 -0.1710
  609MOL0    Cl82124   8.860  12.388  11.115 -0.4101 -0.2408  0.2232
  609MOL0     C82125   8.918  11.794   9.976  0.2160 -0.1429  0.8913
  609MOL0     C82126   8.861  11.687   9.896  0.4779 -0.4440  0.4840
  609MOL0     O82127   8.909  11.389   9.880  0.3834  0.0719  0.7421
  609MOL0     C82128   8.807  11.181   9.725 -0.2262 -0.5306 -0.6012
  609MOL0     C82129   8.753  11.090   9.637  0.2043  0.2425 -0.9410
  609MOL0     N82130   8.435  10.373   9.847  0.6582  0.3670 -0.3910
  609MOL0     N82131   8.394  10.254   9.813 -0.5237  0.9310 -0.3577
  609MOL0     C82132   7.590  10.425   9.456  1.3644  0.3186  0.1495
  609MOL0     C82133   7.493  10.492   9.383  0.4113  1.0839 -0.1896
  609MOL0     C82134   7.180  10.674   9.179 -0.9311 -0.4692 -0.0133
  609MOL0     C82135   7.241  10.700   9.060 -1.1241 -0.7392  0.1043
  609MOL0     C82136   7.169  10.724   8.943 -0.5503 -0.3569 -0.4546
  609MOL0     C82137   7.029  10.737   8.940  0.0264 -0.6167 -0.2077
  609MOL0     O82138   6.978  10.769   8.811  0.1373 -0.2178 -1.1339
  609MOL0     C82139   6.831  10.781   8.804 -0.0627  0.2771 -0.0586
  609MOL0     C82140   6.793  10.918   8.855  0.5577 -0.5816  0.3614
  609MOL0     C82141   6.902  11.028   8.829 -0.5272 -0.1191  0.7810
  609MOL0     C82142   6.853  11.174   8.843 -1.0185  0.2578 -0.5642
  609MOL0     C82143   6.953  11.271   8.794 -0.0565 -0.0772 -0.1569
  609MOL0     C82144   7.039  11.347   8.752  0.2766 -0.6708  0.1991
  609MOL0     C82145   6.973  10.725   9.068  0.4032  0.8871 -1.0048
  609MOL0     C82146   7.041  10.674   9.182  0.1167 -0.4777  1.2944
  609MOL0     C82147   6.944  10.631   9.286  0.2681  0.0120 -0.3428
  609MOL0     H82148   7.534  10.812   9.503  2.3563  0.0590  1.2277
  609MOL0     H82149   7.707  10.688   9.636  2.1720 -1.2518 -1.5512
  609MOL0     H82150   7.650  10.379   9.818 -0.9921  1.0005 -0.5999
  609MOL0     H82151   7.623  10.257   9.694  0.1876  0.5810  1.4166
  609MOL0     H82152   7.770  10.186   9.867  2.1332  0.6364  2.1839
  609MOL0     H82153   7.883  10.314   9.844  0.3835 -2.2106 -0.1100
  609MOL0     H82154   7.968  10.233   9.649  0.0964 -1.7605 -0.6754
  609MOL0     H82155   7.838  10.130   9.611 -0.3244  1.2530 -0.1793
  609MOL0     H82156   8.010  10.095   9.857  0.4240  1.9576 -0.4144
  609MOL0     H82157   7.901   9.975   9.803  2.7680 -1.2809  0.1879
  609MOL0     H82158   8.103   9.886   9.726  1.1096 -0.3116 -0.7600
  609MOL0     H82159   8.021   9.968   9.591 -3.4116 -0.9661  1.2101
  609MOL0     H82160   8.187  10.142   9.584  0.0766  0.6338  0.3832
  609MOL0     H82161   8.198  10.133   9.762 -3.3331  3.1276 -1.8478
  609MOL0     H82162   8.310   9.909   9.584  2.4999 -1.0808  0.0240
  609MOL0     H82163   8.348   9.931   9.747 -0.8448  0.9233  0.3385
  609MOL0     H82164   8.545  10.043   9.656 -0.6238  0.4448  1.5512
  609MOL0     H82165   8.450  10.095   9.516  0.3450  2.9634  0.0930
  609MOL0     H82166   8.615  10.304   9.576  0.1177  0.8100 -0.3650
  609MOL0     H82167   8.643  10.565   9.832  0.5116  0.0847 -0.7501
  609MOL0     H82168   8.665  10.523   9.655  2.1889 -2.6819  1.5643
  609MOL0     H82169   8.434  10.623   9.631 -1.3318 -2.1907  1.6095
  609MOL0     H82170   8.443  10.688   9.796  1.7572  1.1149  1.2761
  609MOL0     H82171   8.608  10.754   9.552  0.1407  1.1051 -0.3518
  609MOL0     H82172   8.655  10.813   9.712 -2.0855  2.3259  0.1167
  609MOL0     H82173   8.435  10.923   9.718 -0.2534  0.4393  0.2598
  609MOL0     H82174   8.394  10.841   9.557 -1.6595 -2.0459  3.1048
  609MOL0     H82175   8.429  11.154   9.690  0.3634  0.8797 -0.5014
  609MOL0     H82176   8.533  11.346   9.832  0.2357  0.9439 -0.6296
  609MOL0     H82177   8.623  11.596  10.122 -1.8085  1.0763 -0.2856
  609MOL0     H82178   8.718  11.795  10.244  0.6025  0.4340  0.8786
  609MOL0     H82179   8.854  11.901  10.347  0.5012 -1.0196 -0.1946
  609MOL0     H82180   9.029  11.880  10.334 -0.5792 -1.3030  0.1054
  609MOL0     H82181   9.044  12.117  10.272 -0.2635  1.1166 -0.9656
  609MOL0     H82182   8.875  12.136  10.287 -1.3279 -1.5016  0.1480
  609MOL0     H82183   8.874  12.051  10.524  0.9965 -0.2512  3.1377
  609MOL0     H82184   9.036  12.036  10.533 -1.0576 -3.2860 -2.4079
  609MOL0     H82185   8.860  12.275  10.516 -0.9635 -1.9792  2.1052
  609MOL0     H82186   9.019  12.309  10.453 -4.0351  2.9777 -0.0520
  609MOL0     H82187   9.040  12.361  10.686 -0.8822  0.9379 -1.1150
  609MOL0     H82188   9.104  12.197  10.683  0.3207  1.3825  2.2274
  609MOL0     H82189   8.810  12.219  10.740 -0.3062  1.9427 -0.4328
  609MOL0     H82190   8.936  12.088  10.769  0.0248  0.8797  2.7069
  609MOL0     H82191   9.025  12.254  10.935  0.7927  2.4301 -0.8296
  609MOL0     H82192   8.882  12.154  10.977 -0.7959  1.6885  1.6379
  609MOL0     H82193   8.863  12.442  10.887  0.0609  0.1442  0.1974
  609MOL0     H82194   8.740  12.327  10.919 -0.2514 -1.1905 -0.1249
  609MOL0     H82195   9.001  11.858   9.946 -0.2483  2.2921  4.2062
  609MOL0     H82196   8.890  11.653   9.797  3.1464  1.2580  0.5777
  609MOL0     H82197   8.916  11.188   9.728 -0.3129  3.6151  2.4473
  609MOL0     H82198   8.817  11.024   9.579 -0.3534 -1.0584 -0.1279
  609MOL0     H82199   7.601  10.319   9.437  0.6348  0.5956 -2.1926
  609MOL0     H82200   7.439  10.434   9.309 -0.7624  1.1904  0.5553
  609MOL0     H82201   7.348  10.696   9.042 -1.1220 -1.8936  0.2927
  609MOL0     H82202   7.220  10.744   8.849 -1.8439 -2.5550 -1.7128
  609MOL0     H82203   6.779  10.712   8.871 -0.9499  1.6235  0.6920
  609MOL0     H82204   6.805  10.767   8.699  0.0482 -2.5240  0.2196
  609MOL0     H82205   6.786  10.908   8.964  0.0939 -2.6227  0.1968
  609MOL0     H82206   6.693  10.948   8.824  1.1260  0.8968 -0.1304
  609MOL0     H82207   6.948  11.011   8.732 -2.9353 -0.4512 -0.3914
  609MOL0     H82208   6.977  11.012   8.907 -1.2657 -0.9469  1.3458
  609MOL0     H82209   6.764  11.191   8.781 -1.7704 -0.9371  0.1583
  609MOL0     H82210   6.849  11.192   8.951  3.4239  5.0296 -0.7848
  609MOL0     H82211   7.112  11.417   8.714 -1.2515  2.6926  2.9269
  609MOL0     H82212   6.868  10.749   9.080  0.6268  0.5540  3.7916
  609MOL0     H82213   6.971  10.537   9.336  0.5812  1.0775  1.6246
  609MOL0     H82214   6.942  10.706   9.366  2.1433  1.6623 -1.7242
  609MOL0     H82215   6.842  10.622   9.250  0.6728 -2.8314 -0.9728
  610MOL0     O82216   0.576   0.118   8.786  0.3474 -0.2997  0.4852
  610MOL0     C82217   0.611   0.214   8.865  0.6659 -0.6468  0.0554
  610MOL0     O82218   0.672   0.334   8.826  0.4323  0.0933 -0.5196
  610MOL0     C82219   0.686   0.372   8.698 -0.0734 -0.8738 -0.0104
  610MOL0     C82220   0.625   0.324   8.583 -0.6584 -0.5675  0.5704
  610MOL0     C82221   0.663   0.369   8.461 -0.4368 -0.8070  0.4842
  610MOL0     C82222   0.782   0.443   8.447 -0.0222  0.3426  0.0133
  610MOL0     O82223   0.823   0.493   8.324  0.4389  0.2380  0.6152
  610MOL0     C82224   0.814   0.397   8.216 -0.2731  0.5617  0.8261
  610MOL0     C82225   0.879   0.470   8.097 -0.4801  0.0304  0.2750
  610MOL0     C82226   1.025   0.507   8.131  0.0034 -0.2759  0.1666
  610MOL0     C82227   1.082   0.569   8.005  1.4383  0.2532 -0.5463
  610MOL0     C82228   1.237   0.602   8.002  0.4505  0.5058  0.2284
  610MOL0     C82229   1.277   0.689   7.881 -0.5300 -0.3516  0.7826
  610MOL0     C82230   1.432   0.718   7.870 -0.1315  0.3526  0.0547
  610MOL0     C82231   1.500   0.587   7.848 -0.7142 -0.1401  0.5221
  610MOL0     N82232   1.637   0.614   7.826 -0.5343  0.2006 -0.4138
  610MOL0     C82233   1.742   0.530   7.875 -0.6154 -0.8729  0.9400
  610MOL0     C82234   1.853   0.590   7.837 -0.2316  0.0594  0.0162
  610MOL0     C82235   1.985   0.556   7.892  0.1035 -0.2571 -0.0718
  610MOL0     C82236   2.058   0.456   7.791  0.0352  0.0951  0.7907
  610MOL0     C82237   2.210   0.461   7.793  0.1259  0.5391 -0.4586
  610MOL0     C82238   2.261   0.354   7.694 -0.3116  0.2063  0.4500
  610MOL0     O82239   2.403   0.359   7.705  0.4347  0.4552  0.1056
  610MOL0     C82240   2.470   0.242   7.682 -0.1087  0.0961  0.0206
  610MOL0     C82241   2.408   0.133   7.614  1.0356 -0.1126 -0.1547
  610MOL0     C82242   2.490   0.022   7.604  0.1999 -0.3040  0.3875
  610MOL0     C82243   2.623   0.009   7.651 -0.3352 -0.7201  0.2135
  610MOL0     C82244   2.695  -0.121   7.641  0.5867 -0.1624 -0.7754
  610MOL0     O82245   2.799  -0.126   7.730  0.2286  0.4871  0.8572
  610MOL0     C82246   2.882  -0.237   7.737  0.1311 -0.7361  0.6119
  610MOL0     C82247   2.908  -0.341   7.644 -0.0839  0.1877 -0.2770
  610MOL0     C82248   3.015  -0.433   7.665 -0.4020  0.5318  0.4191
  610MOL0     C82249   3.103  -0.420   7.766 -0.1187  0.6298 -0.2855
  610MOL0     O82250   3.210  -0.501   7.798 -0.5344 -0.3401  0.7212
  610MOL0     C82251   3.233  -0.625   7.723  0.7064 -0.3709 -0.1819
  610MOL0     C82252   3.358  -0.708   7.764 -0.2520 -0.0504  0.0228
  610MOL0     C82253   3.378  -0.729   7.918  0.0054 -0.3097  0.9344
  610MOL0     C82254   3.480  -0.843   7.935 -0.6191  0.0800  0.4059
  610MOL0     C82255   3.529  -0.861   8.080 -0.9567  0.1665 -0.5757
  610MOL0     C82256   3.670  -0.925   8.091  0.2246  0.1963 -0.3030
  610MOL0     C82257   3.739  -0.906   8.222 -0.9660 -0.2577 -0.3108
  610MOL0     C82258   3.886  -0.933   8.202  0.8328 -0.2287 -0.7900
  610MOL0    Cl82259   3.906  -1.106   8.155  0.4384 -0.0591 -0.1910
  610MOL0     C82260   3.077  -0.313   7.856 -0.0599 -0.1546  0.8554
  610MOL0     C82261   2.964  -0.234   7.852 -0.3153 -0.3010  0.3562
  610MOL0     O82262   2.656  -0.207   7.566 -0.4956  0.1749  0.1537
  610MOL0     C82263   2.674   0.126   7.713 -0.8992 -0.6342 -0.3318
  610MOL0     C82264   2.603   0.242   7.727  1.4640  0.1673  0.4566
  610MOL0     N82265   1.828   0.695   7.748  0.0853 -0.0610 -0.6889
  610MOL0     N82266   1.695   0.704   7.739 -1.1391 -0.7872  0.2256
  610MOL0     C82267   0.840   0.501   8.563 -0.1209  0.2286 -0.3992
  610MOL0     C82268   0.799   0.459   8.682  0.9811  0.3648 -0.2149
  610MOL0     C82269   0.593   0.184   9.008 -0.2434  0.9484  0.2300
  610MOL0     C82270   0.697   0.227   9.089 -0.1582 -0.0859 -0.6477
  610MOL0     C82271   0.696   0.194   9.226 -0.2624  0.3435  0.4416
  610MOL0     C82272   0.601   0.114   9.280  0.4466 -0.2530 -0.4619
  610MOL0     O82273   0.594   0.065   9.407 -0.0065  0.3201  0.0306
  610MOL0     C82274   0.712   0.056   9.485 -0.2441  0.2407 -0.5699
  610MOL0     C82275   0.666  -0.019   9.606 -0.3952  0.6690 -0.7341
  610MOL0     C82276   0.561   0.055   9.695 -0.3310  0.6641 -0.1787
  610MOL0     C82277   0.508  -0.039   9.806 -0.7809 -0.5143  0.5172
  610MOL0     C82278   0.423   0.043   9.892 -0.2356 -0.0136  1.2270
  610MOL0     C82279   0.360   0.108   9.964  0.2731 -0.3651 -0.8902
  610MOL0     C82280   0.502   0.067   9.198 -0.1095 -0.1113 -0.2827
  610MOL0     C82281   0.490   0.102   9.060  0.6888 -0.5791  0.1517
  610MOL0     C82282   0.385   0.025   8.972  0.0192  0.2026 -0.1603
  610MOL0     H82283   0.551   0.245   8.597  0.6144 -1.9310 -0.1373
  610MOL0     H82284   0.623   0.331   8.368  2.8225 -0.0094 -1.3778
  610MOL0     H82285   0.876   0.309   8.236  2.9496  2.0668 -1.5847
  610MOL0     H82286   0.711   0.371   8.192 -1.1776  0.9592  3.8678
  610MOL0     H82287   0.812   0.548   8.060 -0.3812 -0.4161 -0.8768
  610MOL0     H82288   0.875   0.395   8.018 -0.1039 -2.0719  2.1157
  610MOL0     H82289   1.082   0.416   8.151 -0.1723 -1.3855 -3.5210
  610MOL0     H82290   1.028   0.575   8.216 -1.0941 -0.0285  0.0228
  610MOL0     H82291   1.056   0.516   7.913 -1.9311  2.3590 -0.9913
  610MOL0     H82292   1.012   0.653   8.001 -1.8106 -2.2841 -1.1371
  610MOL0     H82293   1.267   0.645   8.098 -0.0825  2.8903 -0.6249
  610MOL0     H82294   1.299   0.511   8.001 -0.9560 -0.4707 -0.1603
  610MOL0     H82295   1.241   0.650   7.785  2.5417  2.1281 -1.5916
  610MOL0     H82296   1.215   0.777   7.901 -2.3220 -0.6598 -2.6149
  610MOL0     H82297   1.463   0.752   7.969  0.4028  0.1545 -0.0410
  610MOL0     H82298   1.459   0.792   7.795  1.4741  2.0144  2.1695
  610MOL0     H82299   1.491   0.517   7.931 -2.0587  2.4430  2.7477
  610MOL0     H82300   1.450   0.545   7.760 -0.2638 -3.8277  1.8579
  610MOL0     H82301   1.729   0.452   7.949  0.6940 -1.5939  0.4474
  610MOL0     H82302   2.043   0.647   7.910  1.3278 -0.9067 -0.6303
  610MOL0     H82303   1.985   0.505   7.989 -4.5277  0.6952  0.6747
  610MOL0     H82304   2.014   0.356   7.804 -0.6030  0.6331  3.2649
  610MOL0     H82305   2.012   0.483   7.695  1.6295 -0.9741 -0.3252
  610MOL0     H82306   2.249   0.431   7.891 -3.8308 -0.8061  0.8869
  610MOL0     H82307   2.251   0.557   7.760 -0.1079  1.5997  2.1207
  610MOL0     H82308   2.242   0.374   7.588  0.2034 -2.0332 -0.1096
  610MOL0     H82309   2.196   0.269   7.718 -1.0678 -0.2129 -2.6245
  610MOL0     H82310   2.306   0.135   7.578  0.8646 -0.2303  0.3221
  610MOL0     H82311   2.442  -0.071   7.578  2.1447 -2.3823  3.5740
  610MOL0     H82312   2.849  -0.354   7.554  0.1994 -1.6600 -0.2286
  610MOL0     H82313   3.018  -0.518   7.596 -3.7319  0.5774  0.0286
  610MOL0     H82314   3.148  -0.691   7.743 -0.7343  1.3687 -0.2809
  610MOL0     H82315   3.254  -0.604   7.618  2.8531 -1.8674 -0.1091
  610MOL0     H82316   3.361  -0.806   7.716  2.0667  0.9962 -2.1704
  610MOL0     H82317   3.439  -0.645   7.724 -0.2590 -0.6216 -0.9081
  610MOL0     H82318   3.429  -0.638   7.951 -0.8540  0.5337 -0.0004
  610MOL0     H82319   3.284  -0.744   7.973  0.6374  1.4678  2.5980
  610MOL0     H82320   3.572  -0.812   7.885  2.0555 -0.7387  4.3510
  610MOL0     H82321   3.447  -0.936   7.889  2.8122  0.1942 -2.7305
  610MOL0     H82322   3.455  -0.919   8.135 -0.1934 -0.3003 -0.0179
  610MOL0     H82323   3.517  -0.770   8.139  0.4252 -0.1841  0.2943
  610MOL0     H82324   3.650  -1.031   8.072 -1.2359  0.6150 -1.2393
  610MOL0     H82325   3.744  -0.890   8.018  1.7259 -0.6717  0.7369
  610MOL0     H82326   3.694  -0.968   8.300 -1.0466  0.0985 -0.0708
  610MOL0     H82327   3.729  -0.804   8.260 -0.6794 -1.0836  2.1398
  610MOL0     H82328   3.925  -0.874   8.119 -1.1700  0.1616 -1.5107
  610MOL0     H82329   3.933  -0.911   8.298 -3.5473  5.0991  0.5809
  610MOL0     H82330   3.150  -0.309   7.937  1.3234  1.5985 -0.3912
  610MOL0     H82331   2.951  -0.156   7.927  2.5819  0.7519 -0.1075
  610MOL0     H82332   2.774   0.131   7.754 -1.6779 -1.7801  1.9050
  610MOL0     H82333   2.658   0.320   7.779  1.1343  0.9775 -0.3765
  610MOL0     H82334   0.929   0.561   8.543 -0.1604  0.2268 -0.5803
  610MOL0     H82335   0.854   0.483   8.772  1.9457  0.8386 -0.9180
  610MOL0     H82336   0.774   0.290   9.047  1.4394 -0.6833  1.2572
  610MOL0     H82337   0.777   0.228   9.290  1.3577  1.2503 -1.9388
  610MOL0     H82338   0.742   0.151   9.530  1.2712 -0.7019  0.5199
  610MOL0     H82339   0.803   0.016   9.439 -0.4589  1.5251 -2.2123
  610MOL0     H82340   0.755  -0.049   9.663 -2.2645  0.3590  2.1893
  610MOL0     H82341   0.612  -0.113   9.589 -2.3448  1.0677  2.5538
  610MOL0     H82342   0.476   0.081   9.631  1.2184  2.1724 -1.7158
  610MOL0     H82343   0.605   0.152   9.720  3.1332 -0.6976 -0.4567
  610MOL0     H82344   0.447  -0.121   9.768 -1.3917  0.3041 -0.3229
  610MOL0     H82345   0.592  -0.085   9.859  1.0366  0.8567 -0.9994
  610MOL0     H82346   0.307   0.172  10.031  0.4534 -0.7583 -0.3618
  610MOL0     H82347   0.438  -0.012   9.236  1.0695 -0.0058  2.1585
  610MOL0     H82348   0.428  -0.075   8.961 -1.7490 -0.5743 -0.4184
  610MOL0     H82349   0.294   0.037   9.032 -0.2876  3.3579 -1.0735
  610MOL0     H82350   0.353   0.071   8.878 -0.2754 -3.0563 -1.7809
  611MOL0     O82351   4.035   5.882   0.169 -0.1088 -0.4322  0.0388
  611MOL0     C82352   4.048   5.997   0.120  0.5705  0.9672  0.4071
  611MOL0     O82353   4.151   6.076   0.127 -0.7851  0.6824  0.1844
  611MOL0     C82354   4.281   6.026   0.161  0.9527  0.7469 -0.0121
  611MOL0     C82355   4.385   6.103   0.114  0.6819 -0.4214 -0.4626
  611MOL0     C82356   4.511   6.085   0.150  0.9189  0.0100 -0.0384
  611MOL0     C82357   4.547   5.980   0.231 -0.2475 -0.5546 -0.2365
  611MOL0     O82358   4.682   5.945   0.244  0.7948 -0.1767  0.3048
  611MOL0     C82359   4.761   6.046   0.312  0.1546 -0.1543  0.2359
  611MOL0     C82360   4.914   6.016   0.309 -0.1903  1.1473  0.2883
  611MOL0     C82361   4.952   6.010   0.170  0.0864 -0.6456 -0.4281
  611MOL0     C82362   5.103   6.025   0.142  1.4305  0.3986 -0.4503
  611MOL0     C82363   5.166   5.893   0.186 -0.5313 -0.8956 -0.6817
  611MOL0     C82364   5.314   5.913   0.211 -1.3421  0.6201  0.2809
  611MOL0     C82365   5.399   5.784   0.221  0.7857  0.5097  0.7650
  611MOL0     C82366   5.352   5.666   0.134  0.1122  0.7771 -0.3756
  611MOL0     N82367   5.458   5.568   0.110 -0.2465 -0.0771 -0.9667
  611MOL0     C82368   5.434   5.436   0.098  0.9877  0.1853 -0.3719
  611MOL0     C82369   5.554   5.376   0.095 -0.0503  0.6748  0.5443
  611MOL0     C82370   5.578   5.232   0.059  0.2676 -0.2181  1.0179
  611MOL0     C82371   5.719   5.182   0.103 -0.8036  0.0741 -0.2673
  611MOL0     C82372   5.839   5.245   0.024 -0.2322 -0.2344  0.1906
  611MOL0     C82373   5.968   5.165   0.015  0.2693 -0.0563 -0.9418
  611MOL0     O82374   6.063   5.233  -0.071 -0.0839 -0.7138 -0.0222
  611MOL0     C82375   6.194   5.208  -0.040  0.7086 -0.2749  0.5104
  611MOL0     C82376   6.243   5.082  -0.008  0.2759 -0.0404  0.4945
  611MOL0     C82377   6.375   5.053   0.022  0.0059 -0.0529  1.2223
  611MOL0     C82378   6.460   5.166   0.040 -0.4188 -0.7867  0.1277
  611MOL0     C82379   6.604   5.150   0.065 -0.5316 -0.0905 -0.1401
  611MOL0     O82380   6.687   5.256   0.066 -0.0142  0.1538  0.1681
  611MOL0     C82381   6.821   5.238   0.089  0.1393 -0.3855  0.2726
  611MOL0     C82382   6.864   5.213   0.217  0.7049 -1.0895 -0.1903
  611MOL0     C82383   6.998   5.197   0.248 -0.2687  0.4842  0.0464
  611MOL0     C82384   7.091   5.204   0.142 -0.3418 -0.6108  0.1100
  611MOL0     O82385   7.220   5.165   0.161 -0.4642 -0.4427 -0.5561
  611MOL0     C82386   7.317   5.267   0.195 -0.5124  0.1562  0.1724
  611MOL0     C82387   7.294   5.331   0.333  0.8269 -1.0125 -0.5706
  611MOL0     C82388   7.363   5.471   0.344  1.1338 -0.2284 -0.2367
  611MOL0     C82389   7.511   5.471   0.340  0.4135 -0.0563  0.6857
  611MOL0     C82390   7.568   5.615   0.350  0.6241 -0.1025  0.3465
  611MOL0     C82391   7.721   5.604   0.360 -0.0576  0.0343 -0.2631
  611MOL0     C82392   7.777   5.743   0.389 -0.4679 -0.9652 -1.1559
  611MOL0     C82393   7.929   5.735   0.399  0.0111  0.8729 -0.8318
  611MOL0    Cl82394   7.990   5.654   0.549  0.1484  0.2410  0.4993
  611MOL0     C82395   7.053   5.228   0.010 -0.0889  0.2735  0.0199
  611MOL0     C82396   6.915   5.246  -0.014  0.0164  0.1843  0.3358
  611MOL0     O82397   6.644   5.035   0.087  0.7308 -0.0136 -0.7267
  611MOL0     C82398   6.414   5.300   0.005 -0.2869  0.3624  0.1413
  611MOL0     C82399   6.281   5.315  -0.036  0.3920  0.3533  0.1260
  611MOL0     N82400   5.646   5.474   0.086 -0.6821 -0.0187 -0.6223
  611MOL0     N82401   5.597   5.589   0.116  0.0990 -0.4460 -1.0231
  611MOL0     C82402   4.450   5.900   0.275  0.8860 -0.0226  0.2448
  611MOL0     C82403   4.313   5.916   0.239 -0.2430 -0.0906  0.5785
  611MOL0     C82404   3.932   6.049   0.047  0.3325  0.1389 -0.6725
  611MOL0     C82405   3.803   6.019   0.091  0.0024  0.4008  0.0056
  611MOL0     C82406   3.688   6.072   0.029  0.0391  0.7468  0.2544
  611MOL0     C82407   3.698   6.148  -0.085 -0.5987 -0.1956  0.2578
  611MOL0     O82408   3.605   6.190  -0.175 -0.1544 -0.4781 -1.0800
  611MOL0     C82409   3.470   6.188  -0.131  1.2683  0.4480 -0.5697
  611MOL0     C82410   3.370   6.261  -0.228  0.4009 -0.2319  0.2984
  611MOL0     C82411   3.383   6.224  -0.382  1.1046 -0.0008 -0.2635
  611MOL0     C82412   3.390   6.353  -0.462  1.5962  0.5551 -0.2184
  611MOL0     C82413   3.534   6.379  -0.478  0.8991 -0.1001  1.3278
  611MOL0     C82414   3.642   6.396  -0.522  0.4704  0.1231  1.0937
  611MOL0     C82415   3.828   6.179  -0.130  0.2504  0.2457  0.3733
  611MOL0     C82416   3.946   6.125  -0.069  0.0115  0.4099  0.2881
  611MOL0     C82417   4.085   6.167  -0.130  0.0932  0.4822  0.6476
  611MOL0     H82418   4.367   6.177   0.037 -0.0401  0.6244  0.6664
  611MOL0     H82419   4.580   6.160   0.114 -0.0671  0.3439 -1.3175
  611MOL0     H82420   4.740   6.136   0.254 -2.6285  0.4834  2.0484
  611MOL0     H82421   4.713   6.073   0.406 -0.4751 -0.0436 -0.1151
  611MOL0     H82422   4.930   5.919   0.357  2.3054  1.1378 -0.4126
  611MOL0     H82423   4.959   6.103   0.358 -2.1773  1.7431  1.1294
  611MOL0     H82424   4.903   6.096   0.123  3.6788  1.0352 -1.4260
  611MOL0     H82425   4.912   5.914   0.136  3.8998 -2.0758 -1.3819
  611MOL0     H82426   5.131   6.044   0.038 -0.9386  0.9257 -1.0575
  611MOL0     H82427   5.134   6.115   0.196 -0.0259 -0.4899  1.9902
  611MOL0     H82428   5.116   5.843   0.270 -2.2361  0.3296 -0.9229
  611MOL0     H82429   5.130   5.826   0.108 -0.4109  0.5529 -2.0364
  611MOL0     H82430   5.362   5.986   0.146 -1.0596 -1.1190 -1.5559
  611MOL0     H82431   5.317   5.951   0.313 -0.9691  1.7046 -0.1308
  611MOL0     H82432   5.397   5.747   0.325 -1.5553  0.9013  0.8979
  611MOL0     H82433   5.505   5.805   0.200  0.2023  0.4080 -2.8081
  611MOL0     H82434   5.260   5.619   0.168  1.4881 -0.0766  2.4626
  611MOL0     H82435   5.330   5.702   0.033  0.8311 -1.0919 -1.2426
  611MOL0     H82436   5.331   5.401   0.098  0.2486  1.7141  4.0930
  611MOL0     H82437   5.495   5.171   0.095 -0.3572 -1.1778 -1.7909
  611MOL0     H82438   5.562   5.228  -0.050 -2.3009  1.3217  1.2488
  611MOL0     H82439   5.740   5.206   0.207 -0.6112 -0.1622 -0.2530
  611MOL0     H82440   5.721   5.073   0.104 -0.2462  0.0503  2.1470
  611MOL0     H82441   5.869   5.342   0.064 -0.2771 -0.3071  0.3986
  611MOL0     H82442   5.804   5.257  -0.079 -3.6136  0.3845  1.2876
  611MOL0     H82443   5.942   5.064  -0.018  0.1093  0.1800 -1.5598
  611MOL0     H82444   6.013   5.161   0.114 -2.9478  3.5011  0.9216
  611MOL0     H82445   6.175   4.996  -0.011  0.9521 -0.5714 -0.0215
  611MOL0     H82446   6.405   4.950   0.032  1.8234  0.3979  0.7270
  611MOL0     H82447   6.788   5.203   0.293  1.8386  4.9474  2.3075
  611MOL0     H82448   7.029   5.169   0.348  0.1991 -1.7504 -0.6664
  611MOL0     H82449   7.417   5.227   0.176  0.4719  1.6455  1.8762
  611MOL0     H82450   7.306   5.344   0.118 -0.2059 -0.4558 -0.4960
  611MOL0     H82451   7.188   5.357   0.342  0.8502  1.1514 -4.4111
  611MOL0     H82452   7.330   5.266   0.413  0.6816 -0.9750 -0.4736
  611MOL0     H82453   7.322   5.543   0.273 -0.5119 -0.3294  0.5654
  611MOL0     H82454   7.340   5.517   0.440 -0.2462  1.0647 -1.1530
  611MOL0     H82455   7.553   5.415   0.256 -2.5530 -1.6759  0.1402
  611MOL0     H82456   7.544   5.414   0.428  0.5369 -0.9078  0.1004
  611MOL0     H82457   7.528   5.680   0.428  1.1816  1.1260 -0.3696
  611MOL0     H82458   7.538   5.668   0.259 -0.0803 -0.2313  0.4972
  611MOL0     H82459   7.763   5.539   0.438 -0.3057 -1.0454 -1.0149
  611MOL0     H82460   7.767   5.554   0.275 -2.1426  0.1122 -1.4945
  611MOL0     H82461   7.745   5.800   0.476 -2.0547  1.4381 -3.1712
  611MOL0     H82462   7.753   5.807   0.303 -1.4961 -2.3285 -1.9216
  611MOL0     H82463   7.981   5.677   0.322  2.4413 -1.6614  2.4222
  611MOL0     H82464   7.966   5.837   0.388 -2.9176  1.9939 -1.4075
  611MOL0     H82465   7.126   5.232  -0.071  0.8435 -2.4531  0.5984
  611MOL0     H82466   6.873   5.267  -0.111 -1.3897 -0.2203  0.8229
  611MOL0     H82467   6.472   5.391   0.007 -0.1663  0.2816  1.3985
  611MOL0     H82468   6.244   5.411  -0.069  2.2007  1.2909  0.7184
  611MOL0     H82469   4.477   5.808   0.326  0.1054  0.9361  2.5109
  611MOL0     H82470   4.247   5.851   0.296  0.1498 -0.6607  0.3880
  611MOL0     H82471   3.785   5.952   0.174 -0.6826 -1.4253 -1.5390
  611MOL0     H82472   3.585   6.063   0.062 -0.7741  6.3312  0.2998
  611MOL0     H82473   3.463   6.235  -0.032 -1.7763  1.5443 -1.2117
  611MOL0     H82474   3.438   6.085  -0.113  0.1637  0.8040 -0.4136
  611MOL0     H82475   3.382   6.369  -0.223 -1.2459  0.1871 -2.3049
  611MOL0     H82476   3.267   6.233  -0.202 -0.3389  1.7505 -0.3143
  611MOL0     H82477   3.299   6.165  -0.419  0.8612  0.5335 -0.5794
  611MOL0     H82478   3.475   6.167  -0.393  0.1392 -1.7248  0.1715
  611MOL0     H82479   3.351   6.327  -0.561  3.4842 -1.3414 -0.5533
  611MOL0     H82480   3.330   6.434  -0.421  0.7132  0.0554 -0.5008
  611MOL0     H82481   3.734   6.423  -0.569 -1.7068  3.0968 -1.9301
  611MOL0     H82482   3.845   6.231  -0.223  2.5779 -1.4684 -0.2680
  611MOL0     H82483   4.070   6.220  -0.224 -2.0001  0.1106  0.7089
  611MOL0     H82484   4.137   6.233  -0.061  1.2283  1.2449 -0.8879
  611MOL0     H82485   4.147   6.077  -0.141 -1.9171 -0.9396  0.2914
  612MOL0     O82486   4.928   6.882   9.879 -1.1808  0.0459  0.3004
  612MOL0     C82487   4.913   6.947   9.983 -0.8846  0.6568  0.1911
  612MOL0     O82488   4.950   6.889  10.104  0.6043 -0.0798 -0.1708
  612MOL0     C82489   4.980   6.754  10.101  0.0588  0.7478 -0.2314
  612MOL0     C82490   4.891   6.666  10.167  0.2473  0.4479 -0.5911
  612MOL0     C82491   4.910   6.525  10.153  0.5578 -0.6935  0.0554
  612MOL0     C82492   5.022   6.471  10.087 -0.2689 -0.4780 -0.9898
  612MOL0     O82493   5.023   6.333  10.083  1.0377  0.7009  2.0799
  612MOL0     C82494   5.149   6.262  10.070 -0.0942  0.0362  0.0984
  612MOL0     C82495   5.132   6.136  10.136 -0.9152  0.8394 -0.4659
  612MOL0     C82496   5.263   6.058  10.135  0.0534  0.0389 -0.0571
  612MOL0     C82497   5.236   5.928  10.223 -0.1000 -0.5594  0.1194
  612MOL0     C82498   5.355   5.833  10.236 -0.4734 -1.3111  0.1715
  612MOL0     C82499   5.471   5.906  10.312  0.7514 -0.2584  0.6739
  612MOL0     C82500   5.589   5.815  10.350  0.0299  0.3617 -0.3196
  612MOL0     C82501   5.646   5.736  10.227 -0.6868  0.9770  0.8345
  612MOL0     N82502   5.780   5.681  10.247  0.3152 -0.2068  0.0095
  612MOL0     C82503   5.872   5.669  10.148  0.8510  0.2763  0.5090
  612MOL0     C82504   5.975   5.598  10.194  0.1715 -1.1875 -0.8417
  612MOL0     C82505   6.109   5.568  10.121 -0.1578 -0.9446  0.0483
  612MOL0     C82506   6.223   5.655  10.184  0.5030 -0.0694 -0.5899
  612MOL0     C82507   6.357   5.615  10.124  0.5509 -0.3062 -0.2943
  612MOL0     C82508   6.380   5.682   9.994  0.1704  0.0871 -0.1037
  612MOL0     O82509   6.512   5.639   9.963 -0.4022  0.3785  0.1853
  612MOL0     C82510   6.582   5.722   9.870 -0.0177 -1.5897 -0.5260
  612MOL0     C82511   6.721   5.726   9.875 -0.5278  0.6741 -0.2148
  612MOL0     C82512   6.791   5.786   9.769  0.7057 -0.0418 -0.3195
  612MOL0     C82513   6.720   5.846   9.670 -0.1937 -1.0636  0.3170
  612MOL0     C82514   6.804   5.912   9.557 -0.0965  0.3094  0.2118
  612MOL0     O82515   6.742   6.000   9.481  0.4261 -0.8888  0.7715
  612MOL0     C82516   6.819   6.080   9.405 -0.4791  0.0982  0.4387
  612MOL0     C82517   6.894   6.030   9.301 -0.2822  0.2875 -0.3107
  612MOL0     C82518   6.992   6.108   9.244  0.2447  0.3772 -0.0649
  612MOL0     C82519   7.014   6.242   9.277 -0.3207  0.1293  0.4149
  612MOL0     O82520   7.110   6.321   9.232  0.8280 -0.4231  0.1553
  612MOL0     C82521   7.196   6.281   9.121  0.0501  0.5378  0.7062
  612MOL0     C82522   7.274   6.396   9.061  0.2059 -0.1617  0.1887
  612MOL0     C82523   7.414   6.428   9.131 -0.1547  0.0027 -0.2959
  612MOL0     C82524   7.466   6.564   9.079 -0.0241 -0.2465  0.1483
  612MOL0     C82525   7.525   6.563   8.941 -0.4683 -0.2753  0.5901
  612MOL0     C82526   7.543   6.713   8.889  1.4735  0.5237 -0.7379
  612MOL0     C82527   7.583   6.713   8.744  1.2224  0.3467 -0.0769
  612MOL0     C82528   7.607   6.853   8.691 -0.5975 -1.0883  0.4051
  612MOL0    Cl82529   7.451   6.935   8.656  0.0590 -0.9247 -0.1412
  612MOL0     C82530   6.935   6.290   9.374 -0.1114 -0.3625  0.5008
  612MOL0     C82531   6.848   6.211   9.448  0.2837 -0.3071 -0.6271
  612MOL0     O82532   6.925   5.895   9.558 -0.1018 -0.1846 -0.0257
  612MOL0     C82533   6.591   5.843   9.667  0.9638 -0.3721  0.2238
  612MOL0     C82534   6.516   5.792   9.771  0.6605  0.5826  0.1294
  612MOL0     N82535   5.944   5.567  10.327 -0.5732 -0.2207  0.8252
  612MOL0     N82536   5.833   5.627  10.364 -0.1935 -0.1603  0.4355
  612MOL0     C82537   5.117   6.558  10.036 -0.5945  0.6878  0.5051
  612MOL0     C82538   5.090   6.698  10.032  1.4284  0.3012 -0.3422
  612MOL0     C82539   4.855   7.089   9.980 -0.1987  0.2772  0.1603
  612MOL0     C82540   4.872   7.165  10.100  0.2766 -0.2919 -0.3283
  612MOL0     C82541   4.803   7.286  10.128  0.7976 -0.0897 -0.0259
  612MOL0     C82542   4.711   7.324  10.034 -0.5105 -0.4861  0.1436
  612MOL0     O82543   4.619   7.422  10.064 -0.3755 -0.5030  0.4488
  612MOL0     C82544   4.538   7.424  10.181  0.6625  0.4854 -0.2369
  612MOL0     C82545   4.473   7.299  10.229  0.1274  0.2219 -0.3039
  612MOL0     C82546   4.360   7.255  10.129  0.7063 -0.2742 -0.4370
  612MOL0     C82547   4.242   7.346  10.096  0.1359 -1.0154 -0.2002
  612MOL0     C82548   4.186   7.428  10.207 -0.8418 -0.2546  0.1295
  612MOL0     C82549   4.151   7.497  10.304 -0.3426  0.2240  0.4242
  612MOL0     C82550   4.705   7.260   9.907 -0.1590  0.4881 -0.0064
  612MOL0     C82551   4.768   7.141   9.877  0.1448  1.2639 -0.8901
  612MOL0     C82552   4.742   7.069   9.736  0.7585 -0.4329 -0.2552
  612MOL0     H82553   4.801   6.703  10.216 -1.0902 -1.3304 -1.5924
  612MOL0     H82554   4.842   6.458  10.204  1.2661 -2.7974 -1.6216
  612MOL0     H82555   5.176   6.237   9.967 -0.4449  1.2320 -0.2945
  612MOL0     H82556   5.232   6.314  10.119  0.9158 -0.3309 -1.1597
  612MOL0     H82557   5.070   6.071  10.074  0.1176 -3.2746  2.3995
  612MOL0     H82558   5.093   6.147  10.238  0.2066 -1.2561  0.2458
  612MOL0     H82559   5.341   6.123  10.176 -1.7313  0.4448  2.9653
  612MOL0     H82560   5.295   6.030  10.034  1.5280 -0.8333  0.6323
  612MOL0     H82561   5.201   5.956  10.323 -2.5429 -1.5441 -0.3745
  612MOL0     H82562   5.151   5.874  10.180 -0.5729  0.6041 -0.4586
  612MOL0     H82563   5.339   5.752  10.308  0.9551 -1.1340  0.7317
  612MOL0     H82564   5.386   5.788  10.141 -0.3756  0.1330 -0.5043
  612MOL0     H82565   5.505   5.995  10.259 -2.2891  0.1648 -0.8154
  612MOL0     H82566   5.434   5.960  10.399  1.2365 -0.9170  1.2942
  612MOL0     H82567   5.561   5.747  10.430 -2.0112  2.7985  1.1949
  612MOL0     H82568   5.668   5.882  10.386 -0.7538  1.7477 -1.0777
  612MOL0     H82569   5.590   5.645  10.201  0.5123  0.6229 -0.6075
  612MOL0     H82570   5.640   5.794  10.135 -3.9595 -2.2099 -1.2078
  612MOL0     H82571   5.857   5.708  10.048 -1.6186  0.9938  1.0814
  612MOL0     H82572   6.139   5.463  10.114 -2.1997 -1.6726  1.2338
  612MOL0     H82573   6.099   5.603  10.018  0.6956 -1.1148 -0.0968
  612MOL0     H82574   6.185   5.757  10.174 -2.7739 -0.9059  1.5392
  612MOL0     H82575   6.241   5.646  10.291 -0.4654  1.7854 -0.2251
  612MOL0     H82576   6.346   5.507  10.113  0.9611 -0.4682  0.7838
  612MOL0     H82577   6.440   5.637  10.192 -0.2206 -2.9505  1.6677
  612MOL0     H82578   6.370   5.789  10.011 -0.8061  0.4827 -2.6842
  612MOL0     H82579   6.317   5.636   9.917  0.3376  0.1210 -0.2626
  612MOL0     H82580   6.776   5.677   9.955  0.8459 -2.6722 -2.9182
  612MOL0     H82581   6.899   5.783   9.773  0.6740  0.0372  2.8117
  612MOL0     H82582   6.888   5.924   9.280 -1.5709 -0.2228  2.2804
  612MOL0     H82583   7.046   6.053   9.168 -2.5265 -2.2264 -0.3575
  612MOL0     H82584   7.268   6.204   9.152 -0.8441 -0.3057  0.7382
  612MOL0     H82585   7.141   6.233   9.040  1.7118  0.6586 -0.5654
  612MOL0     H82586   7.293   6.373   8.956  3.8803  1.1221  0.4140
  612MOL0     H82587   7.216   6.489   9.064  2.7760  1.7025 -2.3404
  612MOL0     H82588   7.386   6.445   9.236  1.2019 -1.4740  0.3525
  612MOL0     H82589   7.494   6.354   9.120 -0.0563 -0.2936  1.9318
  612MOL0     H82590   7.532   6.598   9.159 -1.5717 -0.5045  1.5855
  612MOL0     H82591   7.377   6.627   9.089 -1.5028 -2.4140  1.5655
  612MOL0     H82592   7.447   6.512   8.883 -0.7408 -0.1726  0.8609
  612MOL0     H82593   7.615   6.501   8.939  0.2384  0.7505 -0.3984
  612MOL0     H82594   7.445   6.760   8.898  1.7463  0.9029  0.4113
  612MOL0     H82595   7.617   6.766   8.949 -2.5424  0.5025  4.9498
  612MOL0     H82596   7.502   6.664   8.689  1.1178 -1.6895  1.7306
  612MOL0     H82597   7.675   6.653   8.744  0.1199 -1.4087  0.3707
  612MOL0     H82598   7.652   6.912   8.771 -3.8903 -0.3578  1.8884
  612MOL0     H82599   7.683   6.862   8.613 -0.4963  1.4893  0.7142
  612MOL0     H82600   6.960   6.389   9.410 -2.7002  0.2716  0.7238
  612MOL0     H82601   6.784   6.245   9.529 -0.1806 -0.4345 -0.9341
  612MOL0     H82602   6.530   5.872   9.582  2.4145 -0.4710 -0.8849
  612MOL0     H82603   6.408   5.785   9.762  0.7701  1.1128 -2.8068
  612MOL0     H82604   5.204   6.524   9.980  0.4705  3.7051  0.1320
  612MOL0     H82605   5.160   6.752   9.969  2.1774 -0.1217  0.1109
  612MOL0     H82606   4.920   7.119  10.185  0.3474  1.8069  0.8476
  612MOL0     H82607   4.817   7.329  10.227  1.3061 -1.3909  0.4883
  612MOL0     H82608   4.460   7.500  10.172  0.4111  0.5659  2.1428
  612MOL0     H82609   4.601   7.467  10.260  1.2239 -0.8902  0.0950
  612MOL0     H82610   4.420   7.303  10.325 -1.3284 -1.3812 -0.9880
  612MOL0     H82611   4.549   7.220  10.234 -0.4689 -0.3058  0.9062
  612MOL0     H82612   4.309   7.176  10.184 -2.8721  2.6477  0.8937
  612MOL0     H82613   4.392   7.207  10.036 -0.3653  0.3080 -1.1385
  612MOL0     H82614   4.261   7.414  10.012 -0.7017  0.1129  0.4899
  612MOL0     H82615   4.156   7.288  10.060 -0.1949  0.0629 -1.2248
  612MOL0     H82616   4.133   7.550  10.395  0.9994  1.5807 -0.0564
  612MOL0     H82617   4.632   7.297   9.836 -0.3511  1.1152  0.5148
  612MOL0     H82618   4.838   7.027   9.703  0.7931 -0.8778  0.3852
  612MOL0     H82619   4.671   6.987   9.744 -0.4682  0.6357  0.0611
  612MOL0     H82620   4.701   7.150   9.675 -7.0364 -1.1465  2.9546
  613MOL0     O82621   6.810  10.833   8.460  0.3049  0.3178 -0.3714
  613MOL0     C82622   6.758  10.848   8.353 -0.1323 -0.4346 -0.6579
  613MOL0     O82623   6.827  10.848   8.232 -0.5606  0.1898 -0.3827
  613MOL0     C82624   6.964  10.843   8.248 -0.2257 -0.0933  0.1285
  613MOL0     C82625   7.040  10.956   8.238 -0.0356 -0.0163  0.3387
  613MOL0     C82626   7.177  10.955   8.257  0.1880  0.7278 -0.6375
  613MOL0     C82627   7.245  10.838   8.289  0.1376  0.5961 -0.6770
  613MOL0     O82628   7.377  10.837   8.312 -0.7517  0.0941  0.0899
  613MOL0     C82629   7.409  10.814   8.452  0.3723  0.1092  0.1429
  613MOL0     C82630   7.564  10.784   8.471 -0.2660  0.2435  0.1540
  613MOL0     C82631   7.642  10.904   8.419  0.9156  0.3374  0.3095
  613MOL0     C82632   7.795  10.892   8.434  0.2255 -0.4273  0.8538
  613MOL0     C82633   7.861  11.032   8.391  0.0072  1.2949 -0.3498
  613MOL0     C82634   7.849  11.067   8.240  0.2540  0.1749 -0.5795
  613MOL0     C82635   7.955  11.161   8.196  0.8422  0.8059 -0.3267
  613MOL0     C82636   7.929  11.191   8.045  0.3004  0.3446  0.5527
  613MOL0     N82637   8.026  11.284   7.989  0.2954 -0.3193  0.3506
  613MOL0     C82638   8.073  11.405   8.046 -0.1640  0.1076  0.1228
  613MOL0     C82639   8.122  11.469   7.938 -1.0408 -0.1831 -1.3310
  613MOL0     C82640   8.171  11.610   7.932 -0.1898  0.4243  1.1588
  613MOL0     C82641   8.314  11.635   7.981 -0.8838  0.3236 -1.0155
  613MOL0     C82642   8.395  11.740   7.902 -0.0532  0.2326  0.3848
  613MOL0     C82643   8.525  11.766   7.974 -0.1680 -0.5431 -0.0747
  613MOL0     O82644   8.608  11.863   7.889  0.7388 -0.9652 -0.1833
  613MOL0     C82645   8.733  11.902   7.933 -0.3976 -0.2418  1.6815
  613MOL0     C82646   8.831  11.943   7.840  1.5446  1.2387 -0.2540
  613MOL0     C82647   8.958  11.991   7.872 -0.1950  0.5040 -0.1356
  613MOL0     C82648   8.998  11.980   8.009  0.8078 -0.3603 -0.0556
  613MOL0     C82649   9.134  12.024   8.043  1.2292  0.2550  0.4235
  613MOL0     O82650   9.221  12.041   7.944 -0.8591 -0.7306 -0.0191
  613MOL0     C82651   9.358  12.079   7.965  0.4728 -0.5879 -0.2348
  613MOL0     C82652   9.418  12.154   7.865 -0.6796 -0.3336 -0.2544
  613MOL0     C82653   9.553  12.189   7.868  0.1935 -0.5165  0.4885
  613MOL0     C82654   9.633  12.152   7.980  0.3251  0.0539 -0.4119
  613MOL0     O82655   9.768  12.193   7.979  0.4052 -0.0761 -0.5718
  613MOL0     C82656   9.845  12.106   8.071 -0.2735  0.0251  0.6404
  613MOL0     C82657   9.998  12.148   8.067 -0.6198 -0.0590 -0.8880
  613MOL0     C82658  10.055  12.109   7.930 -0.2947 -0.3844  0.6075
  613MOL0     C82659  10.215  12.089   7.950  0.4233  0.1781  1.0624
  613MOL0     C82660  10.281  12.011   7.830 -0.7677 -0.1694 -0.0904
  613MOL0     C82661  10.428  12.057   7.815  0.5010  0.3403 -0.1306
  613MOL0     C82662  10.510  12.037   7.944 -1.0110 -0.5284 -0.6230
  613MOL0     C82663  10.658  12.054   7.924 -0.3746 -0.4243  0.8549
  613MOL0    Cl82664  10.742  11.895   7.900  0.6313  0.0375  0.0471
  613MOL0     C82665   9.570  12.078   8.084  0.1686 -0.1058 -0.9724
  613MOL0     C82666   9.434  12.044   8.074  0.0104 -0.6651 -0.7861
  613MOL0     O82667   9.155  12.042   8.159  0.3893 -0.2619  0.3835
  613MOL0     C82668   8.909  11.934   8.107  0.2814 -0.5526  0.3090
  613MOL0     C82669   8.780  11.891   8.062  0.0868 -0.1556 -0.3304
  613MOL0     N82670   8.131  11.383   7.827 -0.8189 -0.4821 -0.5065
  613MOL0     N82671   8.065  11.271   7.862 -0.4878 -0.4853 -0.5825
  613MOL0     C82672   7.169  10.721   8.303 -0.8401 -0.4589  0.1568
  613MOL0     C82673   7.034  10.726   8.264 -0.0149 -1.0320  0.1529
  613MOL0     C82674   6.607  10.862   8.342 -0.6516 -0.5299 -0.4370
  613MOL0     C82675   6.548  10.884   8.218  0.5175  0.2083 -0.1068
  613MOL0     C82676   6.413  10.910   8.200 -0.0812 -0.1734 -0.4946
  613MOL0     C82677   6.325  10.903   8.302 -1.2621 -0.2674 -0.4633
  613MOL0     O82678   6.195  10.929   8.268 -0.2703 -0.2347 -0.8284
  613MOL0     C82679   6.095  10.836   8.314 -0.9529  0.7999 -0.3567
  613MOL0     C82680   6.033  10.759   8.196  0.8585  0.5957 -1.2432
  613MOL0     C82681   6.127  10.683   8.105 -0.7194 -0.7578  0.6718
  613MOL0     C82682   6.210  10.568   8.164  0.3474  0.8618 -0.0353
  613MOL0     C82683   6.279  10.492   8.062  0.3836 -0.4833 -0.6753
  613MOL0     C82684   6.345  10.437   7.975 -0.8046  0.1383  0.5090
  613MOL0     C82685   6.374  10.879   8.435 -0.3138 -0.1994  0.2850
  613MOL0     C82686   6.517  10.870   8.458 -0.5246 -0.1034  0.3491
  613MOL0     C82687   6.553  10.859   8.602  0.5261 -0.3655  0.5882
  613MOL0     H82688   6.990  11.051   8.223 -0.3427 -0.1229  0.6549
  613MOL0     H82689   7.236  11.042   8.230  1.0399 -0.3798 -2.6062
  613MOL0     H82690   7.373  10.900   8.508  0.1204  1.6462 -2.2180
  613MOL0     H82691   7.347  10.730   8.486  0.5548 -1.0608 -2.1528
  613MOL0     H82692   7.592  10.691   8.420 -2.8403 -0.8826  0.6347
  613MOL0     H82693   7.593  10.771   8.576  1.9537  0.5337 -0.3750
  613MOL0     H82694   7.608  11.002   8.455  0.4874  0.3532 -0.1259
  613MOL0     H82695   7.623  10.912   8.312 -0.4890  0.2224  0.5305
  613MOL0     H82696   7.819  10.868   8.538  0.4717 -2.0255  0.4575
  613MOL0     H82697   7.838  10.806   8.382  0.8935 -1.8343  3.5046
  613MOL0     H82698   7.829  11.119   8.449 -0.9205  0.4650  0.4266
  613MOL0     H82699   7.963  11.017   8.427  0.0010  0.2945 -0.7178
  613MOL0     H82700   7.849  10.976   8.179 -0.6469 -0.3936  0.2462
  613MOL0     H82701   7.748  11.104   8.222 -0.1720 -1.5176 -1.8323
  613MOL0     H82702   8.053  11.114   8.208  0.3682  0.1143  1.0290
  613MOL0     H82703   7.953  11.243   8.269 -0.7732 -1.2974  2.2121
  613MOL0     H82704   7.931  11.094   7.995  2.0387 -0.6149  2.3319
  613MOL0     H82705   7.828  11.232   8.033 -0.8177 -1.9552  1.5047
  613MOL0     H82706   8.063  11.446   8.146 -1.4301  0.9129 -0.3035
  613MOL0     H82707   8.170  11.626   7.824 -4.3621 -1.5345  0.7137
  613MOL0     H82708   8.099  11.676   7.982 -0.1549  1.7479 -0.4464
  613MOL0     H82709   8.298  11.677   8.081 -1.2504 -4.3599  1.1421
  613MOL0     H82710   8.382  11.550   7.987 -0.8067  0.3959 -0.8404
  613MOL0     H82711   8.342  11.836   7.895 -0.4905  0.1248  1.9332
  613MOL0     H82712   8.429  11.711   7.802  2.0921 -0.5573  1.2892
  613MOL0     H82713   8.591  11.679   7.986 -1.3912 -1.9070 -2.4674
  613MOL0     H82714   8.502  11.805   8.073  0.2548  0.5361 -0.3811
  613MOL0     H82715   8.810  11.941   7.734  2.5040  1.8617 -0.4686
  613MOL0     H82716   9.026  12.029   7.796 -2.1589 -0.7952 -2.7070
  613MOL0     H82717   9.366  12.197   7.780 -0.1355 -0.0760 -0.4666
  613MOL0     H82718   9.599  12.248   7.790  2.8913 -0.8550  1.7145
  613MOL0     H82719   9.805  12.118   8.172  3.5693  1.8502  2.1064
  613MOL0     H82720   9.831  12.001   8.044 -0.7532  0.7225 -2.1135
  613MOL0     H82721   9.993  12.258   8.069  0.0671 -0.0245 -0.8491
  613MOL0     H82722  10.043  12.108   8.158 -5.7240 -0.7011  1.7637
  613MOL0     H82723   9.999  12.022   7.892 -0.2118  0.5490 -1.8743
  613MOL0     H82724  10.043  12.184   7.851 -1.1750  0.0616  1.1448
  613MOL0     H82725  10.243  12.047   8.047 -1.5215 -1.4063  1.0217
  613MOL0     H82726  10.253  12.191   7.959 -2.2871  1.3702  0.3115
  613MOL0     H82727  10.228  12.027   7.736  1.3404 -3.3806 -2.0367
  613MOL0     H82728  10.268  11.906   7.858  0.7038  0.2198  2.3642
  613MOL0     H82729  10.477  12.005   7.732  2.2560  4.3036 -1.8311
  613MOL0     H82730  10.427  12.163   7.788  2.4438  1.1724  2.5277
  613MOL0     H82731  10.487  11.931   7.961  0.2669 -0.7409 -0.1112
  613MOL0     H82732  10.474  12.109   8.018 -0.1805 -0.6814 -0.0607
  613MOL0     H82733  10.671  12.126   7.842  0.3338  0.1919  1.4902
  613MOL0     H82734  10.697  12.099   8.016  1.2257 -0.5662  0.2812
  613MOL0     H82735   9.619  12.032   8.169 -1.0076  1.8693  0.8460
  613MOL0     H82736   9.395  11.999   8.165  3.1700 -1.5949  0.2475
  613MOL0     H82737   8.936  11.944   8.212  2.2876 -2.6709  0.0723
  613MOL0     H82738   8.714  11.845   8.135  1.3150  1.1210  1.6702
  613MOL0     H82739   7.217  10.628   8.331  1.7709 -1.0321 -4.9306
  613MOL0     H82740   6.980  10.632   8.276  2.3393 -2.3844  0.8722
  613MOL0     H82741   6.607  10.872   8.128 -1.2943 -2.5033 -1.0804
  613MOL0     H82742   6.365  10.918   8.103 -0.7590 -3.2350 -0.4943
  613MOL0     H82743   6.014  10.883   8.371 -3.0082 -2.2126 -0.5678
  613MOL0     H82744   6.138  10.758   8.377 -1.0097 -0.0625 -1.3603
  613MOL0     H82745   5.981  10.839   8.143 -2.0832 -0.7335 -0.5990
  613MOL0     H82746   5.953  10.701   8.243  1.0998  0.5212 -0.9264
  613MOL0     H82747   6.195  10.755   8.058  0.7281 -2.9486 -0.7819
  613MOL0     H82748   6.070  10.647   8.018  0.7657  1.3444 -1.2941
  613MOL0     H82749   6.276  10.608   8.241 -0.0353 -1.9791  1.9291
  613MOL0     H82750   6.140  10.502   8.217 -0.4505  1.2955 -0.5296
  613MOL0     H82751   6.401  10.378   7.904  0.0177  1.1167  0.3186
  613MOL0     H82752   6.307  10.889   8.520  0.7331  2.0064  0.9198
  613MOL0     H82753   6.634  10.929   8.624  2.1064 -1.4542 -1.3871
  613MOL0     H82754   6.476  10.892   8.672 -0.9886 -0.2569 -1.0470
  613MOL0     H82755   6.582  10.756   8.626 -1.1353 -0.9758  0.1290
  614MOL0     O82756   0.122   3.457   8.861  0.2109 -0.0190  0.0462
  614MOL0     C82757   0.167   3.349   8.860 -0.2568  0.3113  0.8114
  614MOL0     O82758   0.098   3.226   8.854  0.0700 -0.7696  0.4423
  614MOL0     C82759  -0.038   3.216   8.901 -0.4654  0.2950  0.7269
  614MOL0     C82760  -0.100   3.305   8.983 -0.2688 -0.3444  0.2563
  614MOL0     C82761  -0.233   3.284   9.028 -0.4982  0.2210 -0.6471
  614MOL0     C82762  -0.297   3.164   8.991  0.1097  0.6095  0.3409
  614MOL0     O82763  -0.425   3.131   9.038 -0.7592  0.4240  0.1574
  614MOL0     C82764  -0.528   3.146   8.932 -0.0901  0.7042  0.0218
  614MOL0     C82765  -0.668   3.148   9.001 -0.5271 -0.2261  0.3343
  614MOL0     C82766  -0.782   3.162   8.889 -0.2515 -0.3055  0.4919
  614MOL0     C82767  -0.925   3.126   8.921 -0.3857 -0.2448 -0.5283
  614MOL0     C82768  -1.010   3.139   8.795 -0.4380  0.3005 -0.5064
  614MOL0     C82769  -1.163   3.110   8.838  0.8904 -0.4056  0.3288
  614MOL0     C82770  -1.267   3.115   8.723 -1.1280  0.6309  0.4282
  614MOL0     C82771  -1.404   3.050   8.755 -0.2703  0.3416 -0.6586
  614MOL0     N82772  -1.515   3.141   8.762  0.1563 -0.0839 -0.1562
  614MOL0     C82773  -1.549   3.215   8.876 -0.0588 -0.8272  1.0680
  614MOL0     C82774  -1.658   3.287   8.829  0.3897  0.0265 -0.4474
  614MOL0     C82775  -1.746   3.378   8.900 -0.1779  0.5921  0.1330
  614MOL0     C82776  -1.673   3.515   8.925  0.1620  0.5151 -1.0013
  614MOL0     C82777  -1.771   3.623   8.963 -0.2765 -0.1973 -0.4728
  614MOL0     C82778  -1.703   3.740   9.018 -1.2526  0.3683  0.3417
  614MOL0     O82779  -1.625   3.718   9.142  0.4835  1.3142 -0.6585
  614MOL0     C82780  -1.701   3.694   9.257  0.3033 -0.4583 -0.6577
  614MOL0     C82781  -1.652   3.613   9.366  0.1651 -0.0662 -0.0570
  614MOL0     C82782  -1.726   3.580   9.479  0.3219 -0.2244 -0.6127
  614MOL0     C82783  -1.855   3.612   9.489  0.1686 -0.6796  0.6225
  614MOL0     C82784  -1.933   3.577   9.606  0.6220 -0.4598 -0.4590
  614MOL0     O82785  -1.873   3.526   9.717  0.4443  0.3997  0.6961
  614MOL0     C82786  -1.937   3.503   9.837 -0.5340 -0.1881 -0.6797
  614MOL0     C82787  -1.951   3.613   9.931  0.6079  0.8562  0.4240
  614MOL0     C82788  -2.031   3.600  10.045 -0.8925  0.8562  0.7523
  614MOL0     C82789  -2.087   3.476  10.069 -0.1065 -0.1248 -0.0393
  614MOL0     O82790  -2.159   3.453  10.187 -0.0533  0.6795 -0.3733
  614MOL0     C82791  -2.266   3.550  10.200 -0.0444  0.9050  1.0244
  614MOL0     C82792  -2.387   3.479  10.153  0.3420  0.7382  0.0330
  614MOL0     C82793  -2.469   3.391  10.254 -0.3697  0.4097  0.0546
  614MOL0     C82794  -2.405   3.249  10.272  0.4809  0.9691  0.5848
  614MOL0     C82795  -2.483   3.154  10.361 -0.2093 -1.0325 -0.3904
  614MOL0     C82796  -2.609   3.103  10.292 -0.2825  0.1089 -0.0334
  614MOL0     C82797  -2.592   2.995  10.172 -0.6481  0.3205  0.9528
  614MOL0     C82798  -2.563   2.853  10.217  0.0468 -0.6170  0.2971
  614MOL0    Cl82799  -2.543   2.739  10.077  0.2465 -0.0912 -0.2411
  614MOL0     C82800  -2.062   3.366   9.981  0.3326  0.8380 -0.9255
  614MOL0     C82801  -2.003   3.384   9.862  0.3084 -0.1771 -0.2265
  614MOL0     O82802  -2.055   3.586   9.589 -0.1083  0.4489 -0.4259
  614MOL0     C82803  -1.909   3.707   9.396 -0.0914 -1.0707  0.2659
  614MOL0     C82804  -1.839   3.744   9.286 -0.0974  0.6773  0.9725
  614MOL0     N82805  -1.664   3.276   8.691 -0.6288  0.2010  0.0741
  614MOL0     N82806  -1.597   3.174   8.655 -0.1618  0.2853  0.4885
  614MOL0     C82807  -0.234   3.077   8.894  0.6332  0.5839  0.1588
  614MOL0     C82808  -0.101   3.104   8.852 -1.1917 -0.5992  0.0544
  614MOL0     C82809   0.321   3.329   8.867  0.1484 -0.3975  0.1658
  614MOL0     C82810   0.358   3.215   8.939 -0.1530 -0.2838 -0.5674
  614MOL0     C82811   0.495   3.197   8.968 -0.2603  0.2904  0.2363
  614MOL0     C82812   0.589   3.283   8.916  0.2028 -0.8370  0.5677
  614MOL0     O82813   0.719   3.251   8.940  0.8649  0.1501  0.2608
  614MOL0     C82814   0.825   3.321   8.884 -1.0761 -0.1755 -0.8876
  614MOL0     C82815   0.865   3.444   8.969  0.9741  0.3595 -0.4878
  614MOL0     C82816   1.005   3.494   8.948 -0.6462  0.3717 -0.0982
  614MOL0     C82817   1.026   3.629   9.015 -0.0232  0.5137  0.1349
  614MOL0     C82818   1.037   3.605   9.154 -0.1193 -0.4291  0.2142
  614MOL0     C82819   1.032   3.593   9.277  0.3283  0.0101  0.1803
  614MOL0     C82820   0.550   3.406   8.846 -0.6212  0.3597 -0.2951
  614MOL0     C82821   0.420   3.422   8.822 -0.0654 -0.5857  0.1661
  614MOL0     C82822   0.380   3.558   8.756  0.1312  0.6751 -0.3289
  614MOL0     H82823  -0.057   3.401   9.008 -0.1870 -0.8173  2.1328
  614MOL0     H82824  -0.278   3.357   9.096 -0.0788  0.4492 -0.6101
  614MOL0     H82825  -0.506   3.244   8.887  0.7875  0.6830  0.3811
  614MOL0     H82826  -0.535   3.072   8.852 -2.7393  0.8248  0.0708
  614MOL0     H82827  -0.683   3.231   9.071 -0.6218  0.8076 -0.8892
  614MOL0     H82828  -0.695   3.052   9.047 -1.0222  0.6232  1.9190
  614MOL0     H82829  -0.753   3.096   8.807 -1.9683 -1.0509  0.4443
  614MOL0     H82830  -0.785   3.257   8.834 -0.4383 -0.8776 -0.5248
  614MOL0     H82831  -0.935   3.026   8.964  2.5968 -1.4634 -2.3443
  614MOL0     H82832  -0.951   3.196   9.001  0.8119  0.1464 -0.4694
  614MOL0     H82833  -0.998   3.235   8.745  1.0602  0.8740  0.8895
  614MOL0     H82834  -0.977   3.063   8.723 -3.5626 -2.0885  0.3056
  614MOL0     H82835  -1.169   3.009   8.878 -3.8562 -1.6647 -2.7389
  614MOL0     H82836  -1.195   3.183   8.912 -0.5982 -1.4271  0.7294
  614MOL0     H82837  -1.220   3.043   8.655 -0.5059 -0.3609  1.8479
  614MOL0     H82838  -1.271   3.219   8.691  1.2051  0.3682 -0.9727
  614MOL0     H82839  -1.426   2.977   8.676 -0.4063 -0.7087  0.3295
  614MOL0     H82840  -1.400   2.998   8.851 -1.1051  0.9527 -0.2814
  614MOL0     H82841  -1.531   3.191   8.980 -2.1904 -1.6738  1.2980
  614MOL0     H82842  -1.835   3.382   8.836  1.1588 -0.2708 -1.9069
  614MOL0     H82843  -1.768   3.330   8.995  2.0997 -1.1958 -0.1467
  614MOL0     H82844  -1.604   3.501   9.008  0.6975  1.2010 -1.3245
  614MOL0     H82845  -1.625   3.555   8.835 -0.3225  0.3383 -1.3456
  614MOL0     H82846  -1.852   3.591   9.030  1.7035  0.7530  2.6267
  614MOL0     H82847  -1.805   3.662   8.867  0.0235 -1.4007 -1.0847
  614MOL0     H82848  -1.767   3.827   9.034 -2.5878 -0.6838  1.0264
  614MOL0     H82849  -1.628   3.758   8.941 -1.0773  0.2035  0.4745
  614MOL0     H82850  -1.552   3.573   9.373  0.7854  1.7229  3.2592
  614MOL0     H82851  -1.678   3.520   9.555 -0.9664 -0.6051 -0.0782
  614MOL0     H82852  -1.906   3.710   9.909 -0.9374  1.6425  0.5655
  614MOL0     H82853  -2.053   3.690  10.100 -2.0125  0.8886  0.2647
  614MOL0     H82854  -2.277   3.577  10.305 -0.4529  0.8290  1.0062
  614MOL0     H82855  -2.246   3.645  10.149  3.5856 -0.4425 -0.4238
  614MOL0     H82856  -2.458   3.555  10.122 -0.2127  1.4702  2.8731
  614MOL0     H82857  -2.359   3.428  10.060 -0.3714  2.4740 -1.1786
  614MOL0     H82858  -2.472   3.430  10.356  1.0858  0.3391  0.1437
  614MOL0     H82859  -2.575   3.382  10.228  0.0410 -2.0054 -1.0607
  614MOL0     H82860  -2.305   3.255  10.316 -0.8394 -1.3655  4.4336
  614MOL0     H82861  -2.396   3.195  10.177  0.1427  2.6386 -0.4358
  614MOL0     H82862  -2.510   3.205  10.454  1.9444 -1.9691  0.8093
  614MOL0     H82863  -2.416   3.073  10.391  1.7367  0.6079 -0.1038
  614MOL0     H82864  -2.681   3.063  10.364 -2.1592  1.3733 -1.1280
  614MOL0     H82865  -2.661   3.190  10.251  0.8707  3.2693  4.4396
  614MOL0     H82866  -2.515   3.022  10.100 -1.5427  0.0502 -0.1184
  614MOL0     H82867  -2.686   2.990  10.116  0.0219 -0.2349 -0.1424
  614MOL0     H82868  -2.470   2.849  10.274 -0.7904  2.1880  2.0777
  614MOL0     H82869  -2.644   2.814  10.279  1.8119 -2.9980  1.2398
  614MOL0     H82870  -2.113   3.272   9.999  1.0421  0.7237  0.6334
  614MOL0     H82871  -2.001   3.295   9.800 -1.2967 -0.9817  0.8220
  614MOL0     H82872  -2.010   3.745   9.409  0.3270 -0.1939  1.0917
  614MOL0     H82873  -1.897   3.802   9.217 -0.6788 -0.3092  0.6153
  614MOL0     H82874  -0.288   3.000   8.840 -0.4121  0.1340  1.7679
  614MOL0     H82875  -0.033   3.041   8.795 -0.4204  0.2703 -0.0003
  614MOL0     H82876   0.287   3.138   8.966  1.8035 -1.9937  0.0381
  614MOL0     H82877   0.527   3.111   9.026 -2.2812  0.6757  2.1065
  614MOL0     H82878   0.812   3.357   8.782  0.4186  0.1080 -1.0005
  614MOL0     H82879   0.904   3.246   8.871  1.2110  2.2087 -1.6701
  614MOL0     H82880   0.862   3.413   9.074  3.0612  2.0279  0.1430
  614MOL0     H82881   0.792   3.523   8.951 -1.0225 -1.0082  1.1606
  614MOL0     H82882   1.027   3.523   8.845 -0.0977  1.2586  0.2574
  614MOL0     H82883   1.078   3.420   8.982  0.3577  0.4748 -1.9208
  614MOL0     H82884   1.119   3.668   8.972  0.5499 -0.7739  0.1802
  614MOL0     H82885   0.934   3.688   9.007 -0.7207 -0.5496  0.0570
  614MOL0     H82886   1.020   3.596   9.384  0.2521  0.0695  0.1696
  614MOL0     H82887   0.620   3.482   8.814 -0.5008  0.0870 -0.6981
  614MOL0     H82888   0.361   3.631   8.836 -1.8853 -0.8838  0.7276
  614MOL0     H82889   0.457   3.595   8.688  0.5826  2.5065  1.0795
  614MOL0     H82890   0.285   3.545   8.705  0.1139 -1.6214  0.1953
  615MOL0     O82891   2.422   4.171  10.114  0.7381  0.0991 -0.1173
  615MOL0     C82892   2.444   4.113  10.002  0.7034 -0.6481 -0.4770
  615MOL0     O82893   2.574   4.083   9.956  0.0626 -0.5969  0.9761
  615MOL0     C82894   2.681   4.127  10.020 -0.1588 -0.7575  0.5421
  615MOL0     C82895   2.780   4.190   9.934 -0.5238 -0.0855  0.2630
  615MOL0     C82896   2.914   4.220   9.992  0.3703  0.0212 -0.0477
  615MOL0     C82897   2.952   4.187  10.123  0.3304  0.7315 -0.0239
  615MOL0     O82898   3.065   4.222  10.188 -0.2650 -0.0122  0.2528
  615MOL0     C82899   3.131   4.345  10.136  0.2941  0.1063 -0.2895
  615MOL0     C82900   3.232   4.317  10.015  0.7912 -0.7750  0.1831
  615MOL0     C82901   3.258   4.436   9.924 -0.1947  0.7734 -0.7591
  615MOL0     C82902   3.132   4.505   9.869  0.2869 -0.6816 -0.6756
  615MOL0     C82903   3.177   4.616   9.772 -0.3853 -0.0022 -0.1938
  615MOL0     C82904   3.240   4.741   9.845 -0.2841  0.5027 -0.0711
  615MOL0     C82905   3.279   4.847   9.739 -0.7395 -0.2321 -0.6994
  615MOL0     C82906   3.344   4.967   9.806  0.2188  0.5397  0.2055
  615MOL0     N82907   3.244   5.060   9.864 -0.2088  0.7073 -0.2727
  615MOL0     C82908   3.209   5.066   9.994 -0.2297 -0.6489 -0.7794
  615MOL0     C82909   3.115   5.167  10.003 -0.8220  0.5097  0.1699
  615MOL0     C82910   3.048   5.227  10.121 -0.0720  0.0794 -0.0575
  615MOL0     C82911   2.925   5.152  10.164 -0.1722  0.3264  0.5184
  615MOL0     C82912   2.843   5.236  10.264  0.6331  0.0213  0.1577
  615MOL0     C82913   2.720   5.169  10.331 -0.4397  0.1365 -0.7154
  615MOL0     O82914   2.772   5.115  10.456  0.4740  0.0605  0.4793
  615MOL0     C82915   2.712   5.141  10.579 -0.6567  0.2835 -0.0231
  615MOL0     C82916   2.628   5.243  10.608 -0.2794  0.0899 -0.5299
  615MOL0     C82917   2.568   5.239  10.741 -0.4442  0.3641  0.3098
  615MOL0     C82918   2.611   5.144  10.839  0.6020 -0.1213  0.6091
  615MOL0     C82919   2.573   5.150  10.987 -0.1444  0.0950 -0.1395
  615MOL0     O82920   2.502   5.262  11.018  0.4260  0.1173 -0.7135
  615MOL0     C82921   2.456   5.281  11.149 -0.6566 -0.1641  0.0429
  615MOL0     C82922   2.347   5.219  11.213  0.1749  0.1624 -0.0638
  615MOL0     C82923   2.324   5.247  11.351  0.8457 -0.1609 -0.0562
  615MOL0     C82924   2.400   5.332  11.424 -0.6308  0.0870  0.6889
  615MOL0     O82925   2.375   5.330  11.561 -0.6389  0.2416 -0.0801
  615MOL0     C82926   2.434   5.425  11.644  0.2538 -0.0587 -0.4907
  615MOL0     C82927   2.331   5.474  11.745  0.4507  0.0168 -0.3478
  615MOL0     C82928   2.379   5.590  11.837  0.8100 -0.2863 -0.3379
  615MOL0     C82929   2.267   5.644  11.935  0.0252 -0.3171  0.2118
  615MOL0     C82930   2.318   5.751  12.038  1.0858  0.4730 -0.0123
  615MOL0     C82931   2.221   5.772  12.151  0.4031  0.5767 -0.4167
  615MOL0     C82932   2.219   5.658  12.252 -0.2481 -0.0209  0.3813
  615MOL0     C82933   2.196   5.683  12.403  0.6821  0.4837  0.6614
  615MOL0    Cl82934   2.242   5.536  12.499 -0.1974 -0.0586  0.3557
  615MOL0     C82935   2.502   5.398  11.358  0.1452 -0.7437 -0.3974
  615MOL0     C82936   2.541   5.373  11.226  0.4458 -0.5061  0.0106
  615MOL0     O82937   2.615   5.066  11.068 -0.2952 -0.1344  0.2533
  615MOL0     C82938   2.708   5.052  10.799  0.0471 -0.3469 -0.9447
  615MOL0     C82939   2.760   5.052  10.674  0.3013  0.3899  1.0036
  615MOL0     N82940   3.094   5.220   9.866 -0.8002  0.2936  0.3818
  615MOL0     N82941   3.180   5.157   9.790 -0.1605 -0.1506 -0.4757
  615MOL0     C82942   2.856   4.116  10.198  0.4899  0.4139 -0.5452
  615MOL0     C82943   2.730   4.089  10.145  0.1305  0.3854 -0.2977
  615MOL0     C82944   2.338   4.066   9.908 -0.4929 -0.4066 -0.0959
  615MOL0     C82945   2.211   4.121   9.929 -0.3000 -0.1767  0.3278
  615MOL0     C82946   2.107   4.081   9.847  0.0594 -0.2996  0.0352
  615MOL0     C82947   2.128   3.993   9.734  0.2845 -0.9160 -0.4502
  615MOL0     O82948   2.040   3.968   9.628 -0.3816  0.1230  0.1108
  615MOL0     C82949   1.902   4.016   9.630 -0.2858  0.9827  0.9639
  615MOL0     C82950   1.812   3.911   9.571  1.2034 -0.1008  0.3336
  615MOL0     C82951   1.666   3.920   9.612 -0.1654  0.1918  0.0856
  615MOL0     C82952   1.600   4.048   9.583  0.3333 -0.4121  0.2461
  615MOL0     C82953   1.617   4.143   9.689  0.1458  0.1013 -0.4640
  615MOL0     C82954   1.646   4.229   9.769  1.3443 -0.0751  0.1150
  615MOL0     C82955   2.244   3.925   9.733  0.2525 -0.3183  0.0185
  615MOL0     C82956   2.358   3.961   9.810  0.8168 -0.0784 -0.0366
  615MOL0     C82957   2.480   3.889   9.766 -0.1435  0.0087  0.5288
  615MOL0     H82958   2.768   4.202   9.827  1.4639 -0.7248 -0.0735
  615MOL0     H82959   2.986   4.272   9.929 -2.2433  3.4781 -0.4446
  615MOL0     H82960   3.054   4.417  10.109  2.1257  1.3471 -2.6051
  615MOL0     H82961   3.196   4.394  10.210  3.0465 -0.7188 -2.0315
  615MOL0     H82962   3.192   4.236   9.954  0.5272 -1.0260  0.6798
  615MOL0     H82963   3.324   4.269  10.050  1.0935 -1.4892 -1.4896
  615MOL0     H82964   3.321   4.398   9.843 -0.2656 -0.0629 -0.4261
  615MOL0     H82965   3.313   4.510   9.983 -0.6452  0.6793 -0.2177
  615MOL0     H82966   3.073   4.426   9.821  0.8074 -2.0164  0.7899
  615MOL0     H82967   3.073   4.548   9.951 -2.3698 -1.3770 -2.1095
  615MOL0     H82968   3.258   4.576   9.710  1.0906 -1.7981  2.6680
  615MOL0     H82969   3.096   4.656   9.710 -1.8693 -2.0898  0.3059
  615MOL0     H82970   3.172   4.792   9.914 -0.8417 -2.1829  1.5065
  615MOL0     H82971   3.329   4.710   9.901 -0.3360 -3.1393 -1.7201
  615MOL0     H82972   3.199   4.883   9.674 -2.9323 -2.6002  0.5114
  615MOL0     H82973   3.361   4.802   9.682  3.1117 -0.2012  4.1542
  615MOL0     H82974   3.423   4.930   9.872 -1.2314 -3.2132  0.1046
  615MOL0     H82975   3.389   5.021   9.722  1.0615  1.8042  1.4252
  615MOL0     H82976   3.255   5.010  10.075  1.0927 -0.4230 -1.3464
  615MOL0     H82977   3.122   5.236  10.201 -1.0634  0.8303  0.7999
  615MOL0     H82978   3.021   5.328  10.088  3.0577 -0.1384 -4.1092
  615MOL0     H82979   2.866   5.129  10.075  1.8471 -0.5783 -0.6781
  615MOL0     H82980   2.956   5.061  10.217 -0.5897  0.0335  0.2644
  615MOL0     H82981   2.818   5.331  10.217  0.7673  0.2398  0.5251
  615MOL0     H82982   2.909   5.274  10.342 -0.2212 -1.5875  1.7453
  615MOL0     H82983   2.676   5.089  10.270 -3.6041  1.6547 -0.6239
  615MOL0     H82984   2.633   5.233  10.348  0.2996  0.2963  3.7199
  615MOL0     H82985   2.592   5.318  10.538 -0.1966  1.6258  1.0030
  615MOL0     H82986   2.501   5.324  10.754 -0.7051 -0.1895  3.1762
  615MOL0     H82987   2.273   5.157  11.163  0.3136 -0.0353 -0.0235
  615MOL0     H82988   2.245   5.191  11.400  3.6850 -2.2955  2.4045
  615MOL0     H82989   2.524   5.384  11.691 -2.5010 -2.0269  3.5544
  615MOL0     H82990   2.454   5.505  11.572 -1.0793 -2.1552 -3.4034
  615MOL0     H82991   2.232   5.487  11.700 -0.3716 -2.5681  0.5274
  615MOL0     H82992   2.314   5.387  11.809 -2.7166  0.7257 -0.0836
  615MOL0     H82993   2.467   5.558  11.893  1.0405  0.3372 -0.3311
  615MOL0     H82994   2.402   5.678  11.777 -0.1681  2.6179  3.1565
  615MOL0     H82995   2.223   5.559  11.989  1.1654 -0.8228  0.3608
  615MOL0     H82996   2.186   5.689  11.876 -1.3143 -1.4023  1.1436
  615MOL0     H82997   2.328   5.846  11.986 -0.1404  1.0092  0.6762
  615MOL0     H82998   2.410   5.726  12.093  0.0299 -1.1767  1.1011
  615MOL0     H82999   2.253   5.854  12.215  1.0174 -0.6877  0.9754
  615MOL0     H83000   2.119   5.792  12.116 -0.8007  0.2184  2.6132
  615MOL0     H83001   2.315   5.607  12.238 -0.5561 -0.4896 -0.0902
  615MOL0     H83002   2.141   5.584  12.227 -1.1261  0.3386  1.9487
  615MOL0     H83003   2.259   5.763  12.442 -1.4329  2.2681  0.5603
  615MOL0     H83004   2.093   5.718  12.416  0.6015  0.0603  1.2019
  615MOL0     H83005   2.572   5.463  11.408  0.9380 -1.8655 -0.0076
  615MOL0     H83006   2.626   5.427  11.188  0.2644  1.3251  2.0325
  615MOL0     H83007   2.743   4.981  10.873 -0.7608 -3.2523 -3.1831
  615MOL0     H83008   2.828   4.977  10.633  1.1313  1.4643  0.3595
  615MOL0     H83009   2.883   4.093  10.300 -3.1651  3.5185  1.3657
  615MOL0     H83010   2.656   4.040  10.207 -0.6607  1.9027 -0.0013
  615MOL0     H83011   2.184   4.200   9.998  2.1800 -0.6199  1.9646
  615MOL0     H83012   2.017   4.141   9.855  0.3197  0.5493 -2.3916
  615MOL0     H83013   1.884   4.100   9.563 -5.5763 -2.3471 -2.5310
  615MOL0     H83014   1.867   4.044   9.729 -0.2123  1.9378  0.7297
  615MOL0     H83015   1.847   3.821   9.623  0.4019 -0.0558  0.9844
  615MOL0     H83016   1.825   3.889   9.465  2.2491 -0.9519  0.6251
  615MOL0     H83017   1.654   3.907   9.720  0.4548  0.3631  0.1788
  615MOL0     H83018   1.613   3.838   9.562 -1.6436  1.3874 -0.3925
  615MOL0     H83019   1.637   4.083   9.486 -0.4755  2.1214  0.7771
  615MOL0     H83020   1.491   4.049   9.576  0.0509  5.0741  0.8599
  615MOL0     H83021   1.676   4.296   9.848  0.8661 -1.3649  1.4324
  615MOL0     H83022   2.245   3.838   9.668 -3.2473 -0.2181 -0.3644
  615MOL0     H83023   2.452   3.784   9.752  1.0930 -0.4435  1.2992
  615MOL0     H83024   2.511   3.928   9.669  1.5481  1.2708  1.5452
  615MOL0     H83025   2.565   3.877   9.834  1.0109  1.2497 -0.6559
  616MOL0     O83026   3.472   4.962  10.162 -0.0375  0.0390 -0.2179
  616MOL0     C83027   3.533   4.981  10.269 -0.0987  0.4281  0.3438
  616MOL0     O83028   3.471   4.959  10.394  0.0216 -0.1762 -0.2697
  616MOL0     C83029   3.343   4.921  10.404 -1.2801  0.0061  0.0186
  616MOL0     C83030   3.314   4.783  10.387  0.2968  0.2910 -0.6396
  616MOL0     C83031   3.187   4.736  10.412 -0.6231  0.2444 -0.1122
  616MOL0     C83032   3.085   4.828  10.441  0.5824 -0.1038  0.8004
  616MOL0     O83033   2.952   4.779  10.451  0.4588  0.3985  0.2988
  616MOL0     C83034   2.905   4.717  10.329 -0.3209 -0.1946 -1.3914
  616MOL0     C83035   2.747   4.713  10.339 -0.1285 -0.7054  0.2414
  616MOL0     C83036   2.701   4.621  10.449 -0.2544 -0.2208 -0.5729
  616MOL0     C83037   2.546   4.618  10.461  0.0400  0.4218 -1.2666
  616MOL0     C83038   2.477   4.760  10.460  0.4681  0.4823 -0.3935
  616MOL0     C83039   2.346   4.755  10.530  0.7038  0.2565 -0.5501
  616MOL0     C83040   2.264   4.879  10.490 -0.0378 -0.1134  0.7013
  616MOL0     C83041   2.150   4.879  10.588  1.1212 -0.1735  0.4595
  616MOL0     N83042   2.024   4.938  10.538  0.0396 -0.7702  0.4438
  616MOL0     C83043   1.996   5.064  10.491  0.3753 -0.2193 -0.4239
  616MOL0     C83044   1.861   5.078  10.515 -0.3346 -0.3546 -0.0717
  616MOL0     C83045   1.814   5.221  10.517  0.3399  0.0130 -0.3979
  616MOL0     C83046   1.824   5.300  10.377 -0.2427 -0.8085 -0.5007
  616MOL0     C83047   1.815   5.461  10.385  0.5411 -0.5842  0.9580
  616MOL0     C83048   1.695   5.508  10.469  0.2121 -0.2068  0.8674
  616MOL0     O83049   1.735   5.490  10.610 -0.5471 -0.7390 -0.4618
  616MOL0     C83050   1.693   5.587  10.700  0.3441 -0.3062  0.1066
  616MOL0     C83051   1.592   5.684  10.676  0.4008  0.2122  0.2665
  616MOL0     C83052   1.559   5.777  10.777 -0.5343 -0.2176  0.6663
  616MOL0     C83053   1.628   5.774  10.901  0.3771  0.1341  0.8866
  616MOL0     C83054   1.581   5.872  11.006  0.7364 -0.2518  0.4488
  616MOL0     O83055   1.665   5.902  11.114 -0.1632  0.4354 -0.5098
  616MOL0     C83056   1.636   6.012  11.188  1.2616 -0.5602  0.5567
  616MOL0     C83057   1.628   6.138  11.130  0.7433  0.4217  0.5331
  616MOL0     C83058   1.617   6.248  11.223  0.8325 -0.0037 -0.9140
  616MOL0     C83059   1.600   6.229  11.362  0.1025 -0.1783 -0.2940
  616MOL0     O83060   1.590   6.348  11.437  0.2576  1.2199  0.1416
  616MOL0     C83061   1.550   6.351  11.578  0.2326 -0.6347  0.0507
  616MOL0     C83062   1.622   6.478  11.636  0.2013 -0.6946 -0.1648
  616MOL0     C83063   1.561   6.615  11.593  0.4275 -0.0748  0.2295
  616MOL0     C83064   1.637   6.739  11.652 -0.2264 -0.3533  0.4683
  616MOL0     C83065   1.556   6.869  11.631 -0.1755 -0.0789 -0.3132
  616MOL0     C83066   1.661   6.988  11.618  0.5857 -0.4154 -0.5641
  616MOL0     C83067   1.592   7.128  11.618  0.5052  0.2522 -0.3277
  616MOL0     C83068   1.529   7.157  11.481  0.9493  0.0166 -0.5269
  616MOL0    Cl83069   1.644   7.131  11.346 -0.2190  0.0124  0.1330
  616MOL0     C83070   1.606   6.100  11.417  0.9932 -0.3918 -0.2438
  616MOL0     C83071   1.618   5.995  11.324  0.1389  0.7516 -0.6041
  616MOL0     O83072   1.464   5.908  10.998  0.3424 -0.1483  0.0863
  616MOL0     C83073   1.725   5.673  10.924  1.1397 -0.4835 -0.1415
  616MOL0     C83074   1.755   5.583  10.823 -0.1240  0.0588 -0.3242
  616MOL0     N83075   1.805   4.963  10.558 -0.0801 -0.2963  0.7224
  616MOL0     N83076   1.901   4.882  10.569  0.0542 -0.3059 -0.0606
  616MOL0     C83077   3.118   4.966  10.466  0.6734  0.0761 -0.4022
  616MOL0     C83078   3.247   5.012  10.441  0.0885 -0.1070 -0.5646
  616MOL0     C83079   3.677   5.011  10.269 -0.6332 -0.6413 -0.7824
  616MOL0     C83080   3.727   5.057  10.398  0.7628 -0.3760  0.2719
  616MOL0     C83081   3.856   5.108  10.416 -0.0581 -0.3897 -0.4100
  616MOL0     C83082   3.948   5.101  10.317 -0.1379  0.2531  0.3351
  616MOL0     O83083   4.077   5.122  10.354 -0.2107 -0.0702 -0.2009
  616MOL0     C83084   4.163   5.190  10.262  0.4385  0.0548 -0.1430
  616MOL0     C83085   4.279   5.241  10.348  0.2682  0.6917  0.0195
  616MOL0     C83086   4.254   5.372  10.424  0.3588 -0.1880 -1.5586
  616MOL0     C83087   4.209   5.491  10.348  0.4404  0.0296 -0.8059
  616MOL0     C83088   4.315   5.541  10.265 -0.4407 -0.4279  0.0096
  616MOL0     C83089   4.395   5.590  10.185 -0.4970  0.1328 -0.7005
  616MOL0     C83090   3.901   5.060  10.181  0.6965 -0.5612 -0.4391
  616MOL0     C83091   3.767   5.024  10.156  0.5953 -0.1775  0.2322
  616MOL0     C83092   3.726   5.007  10.013 -0.4371  0.4208  0.4622
  616MOL0     H83093   3.392   4.708  10.380 -0.0640 -0.9641  4.4516
  616MOL0     H83094   3.168   4.630  10.403 -1.4813  0.1157  2.4446
  616MOL0     H83095   2.930   4.780  10.243  0.6581  1.1138 -0.1853
  616MOL0     H83096   2.947   4.617  10.325 -1.6811 -0.9305  0.9787
  616MOL0     H83097   2.708   4.678  10.243 -2.3331 -1.3369  1.3269
  616MOL0     H83098   2.708   4.815  10.354 -2.1013 -1.4902  0.7064
  616MOL0     H83099   2.736   4.659  10.545  3.7017  1.0035 -2.2799
  616MOL0     H83100   2.745   4.521  10.442 -1.1625 -0.6578 -0.2559
  616MOL0     H83101   2.509   4.559  10.377  1.1448 -2.1782 -0.0208
  616MOL0     H83102   2.524   4.561  10.551  1.0870  1.4570 -0.3250
  616MOL0     H83103   2.544   4.835  10.502  2.5321 -0.2685 -2.1628
  616MOL0     H83104   2.460   4.784  10.354 -1.5558  0.6629 -0.0653
  616MOL0     H83105   2.294   4.663  10.504  2.6667 -0.0069 -4.2455
  616MOL0     H83106   2.359   4.751  10.639  1.5900  2.0463 -0.5461
  616MOL0     H83107   2.233   4.871  10.385  1.0525  5.3701 -0.3842
  616MOL0     H83108   2.334   4.963  10.497  0.8790 -0.6697 -1.1342
  616MOL0     H83109   2.115   4.777  10.605 -2.4696  0.9826  1.0379
  616MOL0     H83110   2.178   4.935  10.677  0.3706  0.5724  0.2474
  616MOL0     H83111   2.076   5.135  10.472  1.0935 -0.7705  0.4581
  616MOL0     H83112   1.708   5.229  10.539  0.2990 -1.7344  0.2314
  616MOL0     H83113   1.886   5.279  10.576  0.5073  1.1277 -1.6632
  616MOL0     H83114   1.917   5.273  10.327  0.9512  3.7482 -1.2364
  616MOL0     H83115   1.744   5.261  10.313 -2.5020  0.4042  1.4172
  616MOL0     H83116   1.813   5.498  10.282  1.8011 -2.3346  0.2519
  616MOL0     H83117   1.908   5.499  10.427  1.0170 -2.4786  1.7257
  616MOL0     H83118   1.608   5.443  10.453 -1.3429  1.8970  0.3211
  616MOL0     H83119   1.663   5.607  10.435  0.3175  0.4076  2.5088
  616MOL0     H83120   1.534   5.689  10.584  3.1894 -0.9867 -1.6830
  616MOL0     H83121   1.482   5.851  10.761 -0.7838 -0.5685  0.2320
  616MOL0     H83122   1.641   6.141  11.023  2.6527 -1.7588  0.6168
  616MOL0     H83123   1.613   6.348  11.182  0.6065 -0.4199 -1.9436
  616MOL0     H83124   1.442   6.369  11.584  0.7458  2.6235  4.7417
  616MOL0     H83125   1.590   6.266  11.633  3.8301 -0.8093 -2.4579
  616MOL0     H83126   1.618   6.474  11.746 -1.7723 -0.3426 -0.2037
  616MOL0     H83127   1.726   6.467  11.604 -0.2878  0.5229 -2.3366
  616MOL0     H83128   1.574   6.632  11.485 -0.6256  0.6171  0.2002
  616MOL0     H83129   1.453   6.624  11.605  0.3030 -0.1263 -0.7766
  616MOL0     H83130   1.733   6.758  11.602 -0.9003  1.1350 -0.3507
  616MOL0     H83131   1.666   6.718  11.755 -0.6261 -2.2162  0.2198
  616MOL0     H83132   1.483   6.883  11.711 -1.3610  0.6614 -1.4876
  616MOL0     H83133   1.514   6.877  11.530  0.0263  0.2834 -0.3676
  616MOL0     H83134   1.737   6.987  11.697  0.9298  0.7983 -0.8640
  616MOL0     H83135   1.722   6.970  11.529  4.6182 -1.4702  2.1493
  616MOL0     H83136   1.659   7.214  11.625  1.0470 -0.2342  0.5148
  616MOL0     H83137   1.513   7.125  11.693 -0.0153  1.2866 -0.8041
  616MOL0     H83138   1.443   7.091  11.465  0.0441  1.0271 -0.0094
  616MOL0     H83139   1.491   7.260  11.478  0.6673 -0.0217  0.9226
  616MOL0     H83140   1.612   6.079  11.523  2.5942 -3.0378 -0.7754
  616MOL0     H83141   1.626   5.898  11.373  1.8514  0.5410 -1.2293
  616MOL0     H83142   1.769   5.671  11.023 -3.1017  2.2822  2.1021
  616MOL0     H83143   1.814   5.496  10.850 -0.3316  0.9348  3.5551
  616MOL0     H83144   3.050   5.038  10.508  1.0018 -0.4850  1.1380
  616MOL0     H83145   3.262   5.117  10.467 -1.6559  0.1812 -0.5969
  616MOL0     H83146   3.663   5.052  10.486  1.5781 -1.6694  0.8086
  616MOL0     H83147   3.892   5.120  10.517  1.7475 -1.2241 -0.9172
  616MOL0     H83148   4.109   5.273  10.214  1.9372 -0.1006 -2.2294
  616MOL0     H83149   4.218   5.139  10.183  1.5252 -0.3066  0.8318
  616MOL0     H83150   4.367   5.252  10.284 -1.2268  0.5762 -2.2095
  616MOL0     H83151   4.310   5.172  10.427  1.5928  2.2125  0.8729
  616MOL0     H83152   4.342   5.395  10.484 -0.0109  0.4991 -1.2703
  616MOL0     H83153   4.169   5.360  10.491 -1.6311  3.2520 -3.1494
  616MOL0     H83154   4.120   5.454  10.297  1.5827 -3.0346 -0.7776
  616MOL0     H83155   4.188   5.575  10.415  0.7701 -0.3667 -0.1860
  616MOL0     H83156   4.477   5.625  10.126 -0.5712  2.9168  0.6774
  616MOL0     H83157   3.979   5.051  10.107  2.9080  0.9520  1.5410
  616MOL0     H83158   3.657   5.086   9.984 -3.0514 -1.5610  0.9410
  616MOL0     H83159   3.802   4.993   9.936 -1.5709  0.3264 -0.6771
  616MOL0     H83160   3.679   4.909  10.008  0.6652 -0.1255  0.5548
  617MOL0     O83161   8.522   4.708   8.189  0.1735  0.1870 -0.4066
  617MOL0     C83162   8.463   4.788   8.266  0.3541  0.2408 -0.2583
  617MOL0     O83163   8.530   4.861   8.347 -0.5191 -0.7586 -0.3691
  617MOL0     C83164   8.658   4.822   8.388  0.5789  0.7719  0.1986
  617MOL0     C83165   8.672   4.795   8.526  0.2552  0.2423 -0.0178
  617MOL0     C83166   8.797   4.770   8.586  0.5559  0.4323  0.6108
  617MOL0     C83167   8.913   4.767   8.507 -0.2647  0.2206 -0.0174
  617MOL0     O83168   9.041   4.746   8.556 -0.1720 -0.4839 -0.1997
  617MOL0     C83169   9.057   4.657   8.667 -0.5543  0.4364 -0.3868
  617MOL0     C83170   9.206   4.705   8.714  0.1522  0.2962 -0.6798
  617MOL0     C83171   9.324   4.669   8.620  0.2907  0.0602  0.6750
  617MOL0     C83172   9.453   4.636   8.697  0.6301  0.6709 -0.0148
  617MOL0     C83173   9.559   4.550   8.620  0.0364 -0.0340 -0.2115
  617MOL0     C83174   9.692   4.537   8.687  0.0202 -0.0543  0.3528
  617MOL0     C83175   9.751   4.676   8.715 -0.1886 -0.1254 -0.0883
  617MOL0     C83176   9.881   4.667   8.801  0.3076 -0.0477 -0.2161
  617MOL0     N83177   9.980   4.764   8.758 -0.2654 -0.2772 -0.1411
  617MOL0     C83178  10.107   4.754   8.716  0.1484  0.3335 -0.9338
  617MOL0     C83179  10.157   4.881   8.719  0.2686  0.3719 -0.8352
  617MOL0     C83180  10.300   4.917   8.693 -0.4276  0.7834  0.2199
  617MOL0     C83181  10.408   4.818   8.738  0.2503 -0.1537  0.7052
  617MOL0     C83182  10.536   4.853   8.674 -0.4978  0.3788  0.8548
  617MOL0     C83183  10.648   4.752   8.705  0.8763  0.1127  0.1890
  617MOL0     O83184  10.751   4.804   8.629 -0.4031  0.5103 -0.0736
  617MOL0     C83185  10.884   4.805   8.675 -0.0509 -0.5483  0.6773
  617MOL0     C83186  10.935   4.731   8.786 -0.4260 -0.5323  0.1410
  617MOL0     C83187  11.071   4.743   8.820 -0.0642 -0.1603 -0.8032
  617MOL0     C83188  11.162   4.816   8.746 -0.2528  0.3063 -0.3336
  617MOL0     C83189  11.308   4.804   8.757 -0.8949  0.3941  0.0526
  617MOL0     O83190  11.343   4.750   8.874 -0.1070  0.7428 -0.0597
  617MOL0     C83191  11.466   4.763   8.921 -0.2498 -0.4956  0.0894
  617MOL0     C83192  11.576   4.754   8.834 -1.4959 -0.1351 -0.0386
  617MOL0     C83193  11.714   4.765   8.890  0.7751 -0.3667  1.0679
  617MOL0     C83194  11.727   4.784   9.028  0.0848 -0.8285 -0.2334
  617MOL0     O83195  11.848   4.812   9.092  0.0455 -0.2338  0.3514
  617MOL0     C83196  11.966   4.838   9.017 -0.8794  0.6048  0.4436
  617MOL0     C83197  12.083   4.857   9.099  0.9833  0.5418 -0.0040
  617MOL0     C83198  12.209   4.931   9.038  0.0531 -0.6095  0.2165
  617MOL0     C83199  12.272   4.852   8.921  0.0486 -0.2416 -0.8299
  617MOL0     C83200  12.370   4.930   8.843  0.3985 -1.0252  0.6988
  617MOL0     C83201  12.494   4.963   8.919 -0.6305  0.5432  0.4155
  617MOL0     C83202  12.586   5.043   8.830 -0.9927 -0.3287 -0.2444
  617MOL0     C83203  12.709   5.077   8.912  0.9192 -0.9004  0.1665
  617MOL0    Cl83204  12.787   5.212   8.823  0.0050  0.2179 -0.1013
  617MOL0     C83205  11.610   4.779   9.107  0.1463  0.9440  0.1655
  617MOL0     C83206  11.486   4.777   9.055  0.0622 -0.0068 -0.6483
  617MOL0     O83207  11.379   4.869   8.674  0.0415 -0.0417  0.5780
  617MOL0     C83208  11.111   4.886   8.634 -0.3226 -0.2447 -0.4135
  617MOL0     C83209  10.981   4.876   8.597  1.0367  0.4807  0.3265
  617MOL0     N83210  10.053   4.963   8.740 -0.1148 -0.0178 -0.0355
  617MOL0     N83211   9.952   4.892   8.775  0.5927  0.2771 -0.9394
  617MOL0     C83212   8.902   4.801   8.367  0.2306 -0.5645 -0.4597
  617MOL0     C83213   8.774   4.826   8.312 -0.8556 -1.7578  0.5422
  617MOL0     C83214   8.312   4.796   8.252  0.3095 -0.0128  0.2481
  617MOL0     C83215   8.259   4.711   8.150  1.0406 -0.0255 -0.4926
  617MOL0     C83216   8.118   4.704   8.121 -0.7229  0.5490  0.4035
  617MOL0     C83217   8.041   4.811   8.182  0.1246  0.0857  1.0914
  617MOL0     O83218   7.909   4.824   8.150 -0.0452 -0.9248  0.4069
  617MOL0     C83219   7.828   4.707   8.171 -0.3460  0.7970 -0.7337
  617MOL0     C83220   7.824   4.642   8.314  0.3296  0.1707 -0.5921
  617MOL0     C83221   7.765   4.731   8.424  0.7715  0.9887  0.0794
  617MOL0     C83222   7.615   4.756   8.416 -0.5171  0.0904  0.6593
  617MOL0     C83223   7.566   4.853   8.507 -0.0646  0.1103 -0.1174
  617MOL0     C83224   7.525   4.941   8.587 -0.5026 -0.3196  0.4130
  617MOL0     C83225   8.092   4.899   8.272 -0.7265  0.1031 -0.8891
  617MOL0     C83226   8.226   4.883   8.317  0.2922  0.2913 -0.5120
  617MOL0     C83227   8.260   4.994   8.411 -0.0331  0.3254  0.2138
  617MOL0     H83228   8.584   4.800   8.589 -1.0419  0.7313 -1.7947
  617MOL0     H83229   8.788   4.761   8.694 -2.1817  0.1766  0.4151
  617MOL0     H83230   8.986   4.670   8.749 -1.6190 -1.9105 -0.8224
  617MOL0     H83231   9.063   4.552   8.636 -2.1600  0.3119 -0.3963
  617MOL0     H83232   9.219   4.679   8.820 -2.0710 -1.6720 -0.8115
  617MOL0     H83233   9.200   4.814   8.717 -2.7860  0.3804 -3.7553
  617MOL0     H83234   9.345   4.742   8.541 -0.0937  0.8200  1.2644
  617MOL0     H83235   9.304   4.582   8.557 -0.9528  0.5822  0.3198
  617MOL0     H83236   9.494   4.734   8.720  1.4025  0.6684 -1.3309
  617MOL0     H83237   9.428   4.584   8.791 -1.2150  2.8167  0.7807
  617MOL0     H83238   9.526   4.447   8.602 -3.3644  0.7554  0.8051
  617MOL0     H83239   9.580   4.601   8.525  1.7582  1.7882  1.0645
  617MOL0     H83240   9.663   4.489   8.781  1.2375  1.5930  1.6262
  617MOL0     H83241   9.764   4.475   8.633  1.3504  1.5373  0.2251
  617MOL0     H83242   9.673   4.719   8.778  0.5674 -0.4275  1.0813
  617MOL0     H83243   9.754   4.738   8.624 -0.6837  1.1041  0.7089
  617MOL0     H83244   9.873   4.685   8.909 -1.0121 -1.7015 -0.0021
  617MOL0     H83245   9.923   4.567   8.784 -1.1728 -0.0799 -5.2493
  617MOL0     H83246  10.160   4.660   8.699 -0.4202 -0.1298 -0.1690
  617MOL0     H83247  10.312   4.940   8.587  0.3231 -0.6793 -0.0346
  617MOL0     H83248  10.315   5.008   8.753 -0.5154 -1.0161  3.1799
  617MOL0     H83249  10.425   4.818   8.846  1.2307  0.9302  0.5588
  617MOL0     H83250  10.380   4.714   8.713 -1.8259 -0.1244  2.6163
  617MOL0     H83251  10.570   4.951   8.709 -2.3388  1.3376  0.1212
  617MOL0     H83252  10.526   4.855   8.565 -0.3383  1.5967  0.8514
  617MOL0     H83253  10.613   4.650   8.684  2.6079 -0.5209  0.1874
  617MOL0     H83254  10.675   4.761   8.811 -0.9883 -0.3936  0.7400
  617MOL0     H83255  10.864   4.657   8.822 -0.1860 -1.2999 -0.9186
  617MOL0     H83256  11.103   4.687   8.908 -1.5770 -1.7623 -1.2071
  617MOL0     H83257  11.571   4.725   8.730  5.0864  3.0407 -1.7866
  617MOL0     H83258  11.802   4.750   8.829  0.3201 -0.9338  0.5386
  617MOL0     H83259  12.004   4.757   8.953  1.3892  0.8245  1.4330
  617MOL0     H83260  11.952   4.926   8.953 -1.2044  0.4976  0.3611
  617MOL0     H83261  12.040   4.920   9.177 -1.4697 -2.0442  0.9130
  617MOL0     H83262  12.103   4.757   9.138  0.8553 -0.7856 -3.0221
  617MOL0     H83263  12.165   5.019   8.990  0.9694  0.0961  0.6341
  617MOL0     H83264  12.274   4.949   9.124 -1.5863 -2.7618  2.0381
  617MOL0     H83265  12.193   4.818   8.854 -0.7104  2.0040 -1.1707
  617MOL0     H83266  12.311   4.763   8.970 -1.5721 -1.6217 -1.9622
  617MOL0     H83267  12.321   5.023   8.812  1.1126 -1.9444 -3.9129
  617MOL0     H83268  12.395   4.879   8.749 -0.3960 -0.6033  0.2462
  617MOL0     H83269  12.474   5.018   9.011  1.7166  0.2295  1.1824
  617MOL0     H83270  12.539   4.871   8.957 -0.1543  0.3250 -0.6358
  617MOL0     H83271  12.525   5.132   8.820 -1.0204  0.1679  3.1482
  617MOL0     H83272  12.616   4.990   8.739 -0.6194  0.8906 -0.8560
  617MOL0     H83273  12.686   5.120   9.010 -0.5588  0.9515 -0.9250
  617MOL0     H83274  12.782   4.996   8.920  0.2226 -2.2425 -4.0978
  617MOL0     H83275  11.609   4.778   9.216 -1.6498  0.9450  0.1652
  617MOL0     H83276  11.393   4.779   9.109  0.1474  1.1888 -0.5211
  617MOL0     H83277  11.185   4.942   8.577  1.6456 -1.7996  0.4908
  617MOL0     H83278  10.938   4.921   8.508 -0.5113  1.4540  1.5237
  617MOL0     H83279   8.980   4.811   8.293 -1.9253  0.0277 -2.7971
  617MOL0     H83280   8.765   4.860   8.209 -3.2997  1.6508  1.7249
  617MOL0     H83281   8.322   4.636   8.104  0.4557  0.0574 -1.4516
  617MOL0     H83282   8.078   4.631   8.052 -1.8789 -0.0345  1.6185
  617MOL0     H83283   7.851   4.621   8.107  0.4127  0.2324  0.2626
  617MOL0     H83284   7.726   4.733   8.141 -0.7984 -0.8902 -0.7718
  617MOL0     H83285   7.924   4.609   8.343  0.3881  0.4861 -0.4232
  617MOL0     H83286   7.752   4.560   8.307  1.6096 -0.8902 -2.1030
  617MOL0     H83287   7.812   4.829   8.422 -1.2696  2.0414  1.2122
  617MOL0     H83288   7.783   4.687   8.523  1.9782  3.1715  0.8803
  617MOL0     H83289   7.595   4.792   8.315  2.8603  1.5335  0.3677
  617MOL0     H83290   7.559   4.663   8.424 -1.9013  0.8176 -0.1283
  617MOL0     H83291   7.484   5.016   8.652  0.2339  2.5515 -2.2028
  617MOL0     H83292   8.033   4.976   8.320 -0.8275 -0.9536  0.7825
  617MOL0     H83293   8.331   4.968   8.491 -0.8906  3.1298  2.0400
  617MOL0     H83294   8.294   5.074   8.344  2.6338 -0.7146  0.1868
  617MOL0     H83295   8.168   5.026   8.459 -0.8366  1.8103 -2.1606
  618MOL0     O83296   8.407   1.114   6.399 -0.7726  0.8039  0.4932
  618MOL0     C83297   8.357   1.005   6.361 -0.8903 -0.4752  0.7847
  618MOL0     O83298   8.428   0.883   6.349  0.5256 -0.3362 -0.5571
  618MOL0     C83299   8.547   0.857   6.406  0.2744 -0.2966 -0.2555
  618MOL0     C83300   8.615   0.932   6.503  1.0521 -0.2242 -0.3764
  618MOL0     C83301   8.723   0.889   6.563 -0.3947 -0.3258 -0.3617
  618MOL0     C83302   8.774   0.766   6.534 -0.0083 -0.1068 -0.6618
  618MOL0     O83303   8.882   0.720   6.604  0.1315  0.0696  0.1353
  618MOL0     C83304   8.972   0.623   6.538 -0.0499  0.2630 -0.3080
  618MOL0     C83305   9.066   0.583   6.644 -0.8421 -0.1571 -0.1739
  618MOL0     C83306   9.182   0.500   6.584 -0.4151  0.0743 -0.1538
  618MOL0     C83307   9.294   0.484   6.683 -0.3632  0.4792 -0.7328
  618MOL0     C83308   9.414   0.396   6.633 -0.2614  0.6191  0.4608
  618MOL0     C83309   9.499   0.472   6.520  0.2510 -0.2728  0.0714
  618MOL0     C83310   9.645   0.420   6.506 -0.1107 -0.2957 -0.6339
  618MOL0     C83311   9.715   0.483   6.380 -0.1939 -0.7439  0.1100
  618MOL0     N83312   9.836   0.402   6.357 -0.3895  0.1148 -0.0296
  618MOL0     C83313   9.959   0.426   6.411  0.4970 -0.7355  0.2973
  618MOL0     C83314  10.033   0.325   6.371 -0.4413  0.3148  0.2460
  618MOL0     C83315  10.174   0.283   6.395  0.7980 -0.2297  0.6096
  618MOL0     C83316  10.208   0.238   6.539 -0.1613  0.1571  0.2992
  618MOL0     C83317  10.175   0.339   6.641  0.4068  0.8225 -0.4164
  618MOL0     C83318  10.269   0.334   6.762 -0.4036 -0.3126 -0.5164
  618MOL0     O83319  10.245   0.228   6.849  0.0196  0.0755 -0.3608
  618MOL0     C83320  10.359   0.164   6.882  0.7219  0.3087 -0.7693
  618MOL0     C83321  10.447   0.206   6.977 -0.1588 -0.3119  0.4211
  618MOL0     C83322  10.538   0.119   7.039 -0.6632 -0.5457  0.3494
  618MOL0     C83323  10.564  -0.002   6.975  0.0450 -0.5047  0.8406
  618MOL0     C83324  10.672  -0.091   7.024 -0.3811  0.1558  0.8255
  618MOL0     O83325  10.775  -0.027   7.094 -0.0970  0.5820 -1.0085
  618MOL0     C83326  10.891  -0.081   7.145 -0.6496  1.0588  0.2081
  618MOL0     C83327  10.925  -0.221   7.143  1.4574 -0.3325 -0.4878
  618MOL0     C83328  11.048  -0.263   7.196  0.7127  0.2646  0.8734
  618MOL0     C83329  11.147  -0.176   7.231  0.5776  0.2255 -0.4596
  618MOL0     O83330  11.274  -0.207   7.297 -0.3264 -0.1219  0.3921
  618MOL0     C83331  11.284  -0.337   7.361 -0.5298 -0.3672  0.1776
  618MOL0     C83332  11.384  -0.325   7.480  0.2947  0.2214 -0.4639
  618MOL0     C83333  11.514  -0.264   7.449  0.3845 -0.5300  0.2650
  618MOL0     C83334  11.612  -0.361   7.379  0.1482  0.5225 -0.8342
  618MOL0     C83335  11.744  -0.301   7.368  0.4882  0.7318 -0.0755
  618MOL0     C83336  11.843  -0.391   7.304  0.0237 -0.7801  1.1504
  618MOL0     C83337  11.964  -0.307   7.258 -0.5469 -0.1225  0.1415
  618MOL0     C83338  11.941  -0.235   7.133  0.6681  0.2607 -0.1598
  618MOL0    Cl83339  12.076  -0.123   7.115 -0.0681 -0.2303 -0.3274
  618MOL0     C83340  11.119  -0.037   7.223  0.1787  1.1739  0.1045
  618MOL0     C83341  10.993   0.010   7.186  0.0615  1.0367 -0.0180
  618MOL0     O83342  10.667  -0.211   6.982 -0.4676  0.0687 -0.5443
  618MOL0     C83343  10.495  -0.039   6.855  0.5425  0.2953 -0.0348
  618MOL0     C83344  10.390   0.042   6.814 -0.1549  0.7153 -0.3278
  618MOL0     N83345   9.963   0.229   6.299  0.1254 -0.6456 -0.2498
  618MOL0     N83346   9.844   0.285   6.293 -0.3284  0.6366  0.5267
  618MOL0     C83347   8.703   0.685   6.445 -0.2058  0.7831 -0.4000
  618MOL0     C83348   8.601   0.735   6.370  0.1956  1.0135 -0.3182
  618MOL0     C83349   8.225   1.007   6.283 -0.2675  0.8394 -0.6466
  618MOL0     C83350   8.175   0.881   6.237  0.2386  0.6872 -0.0405
  618MOL0     C83351   8.047   0.878   6.177 -0.0293  0.1383 -0.2844
  618MOL0     C83352   7.967   0.994   6.163 -0.3706 -0.6113  0.3172
  618MOL0     O83353   7.843   1.005   6.117 -0.0550  0.6198 -0.0228
  618MOL0     C83354   7.755   0.903   6.116  0.2095  0.6923  0.3564
  618MOL0     C83355   7.630   0.945   6.204  0.6545 -0.5216  0.2848
  618MOL0     C83356   7.576   1.091   6.186 -0.4242  0.4222 -0.3874
  618MOL0     C83357   7.424   1.111   6.187 -0.6779 -0.3016 -0.0343
  618MOL0     C83358   7.372   1.050   6.313 -0.5539  1.4075  1.2380
  618MOL0     C83359   7.329   1.000   6.417 -0.4282  0.1903 -0.2904
  618MOL0     C83360   8.012   1.118   6.208 -0.7651  0.4238 -0.1819
  618MOL0     C83361   8.140   1.128   6.278  0.1802  0.8358  0.4396
  618MOL0     C83362   8.167   1.257   6.340 -0.8854  0.3148 -1.0318
  618MOL0     H83363   8.575   1.027   6.538 -1.0855 -0.1125 -2.7589
  618MOL0     H83364   8.772   0.944   6.643 -2.2132  0.6795  0.1386
  618MOL0     H83365   8.925   0.534   6.496  1.4130 -1.2108  1.0230
  618MOL0     H83366   9.012   0.681   6.454 -0.9809  0.0722 -0.8887
  618MOL0     H83367   9.019   0.515   6.716 -1.3035 -0.1576 -0.4712
  618MOL0     H83368   9.103   0.662   6.710 -0.4723 -0.5574  0.1043
  618MOL0     H83369   9.217   0.545   6.490  1.0789 -1.5843 -0.4391
  618MOL0     H83370   9.146   0.399   6.562  0.3262 -0.9455  2.8175
  618MOL0     H83371   9.320   0.589   6.694  0.4588  0.3741 -1.6011
  618MOL0     H83372   9.253   0.447   6.778  3.5533  0.5371  1.1593
  618MOL0     H83373   9.481   0.371   6.716  0.6342 -2.2451 -1.0014
  618MOL0     H83374   9.392   0.294   6.600  0.6586  0.9148 -1.1837
  618MOL0     H83375   9.449   0.466   6.423  0.2736 -0.7819  0.0843
  618MOL0     H83376   9.509   0.576   6.550  2.3953 -1.2325  3.3148
  618MOL0     H83377   9.648   0.311   6.502  0.5943 -0.2558 -1.5230
  618MOL0     H83378   9.706   0.454   6.590 -1.7346  0.3710  0.3253
  618MOL0     H83379   9.657   0.496   6.289 -1.6550 -3.0379  0.6309
  618MOL0     H83380   9.754   0.579   6.416  0.3091 -1.2493  0.9627
  618MOL0     H83381   9.997   0.510   6.467  2.3305 -0.4979 -1.2221
  618MOL0     H83382  10.204   0.195   6.336 -1.7752 -0.5559 -0.3168
  618MOL0     H83383  10.228   0.376   6.375 -0.2632  0.4490  0.8232
  618MOL0     H83384  10.140   0.154   6.557  0.6400 -0.0001  3.0776
  618MOL0     H83385  10.311   0.205   6.558 -0.6733 -1.5326  0.2742
  618MOL0     H83386  10.073   0.325   6.676  0.9862 -0.6495  0.7679
  618MOL0     H83387  10.172   0.435   6.588 -0.2079  0.2764 -1.4058
  618MOL0     H83388  10.265   0.423   6.826  2.5740 -0.1197 -0.4243
  618MOL0     H83389  10.370   0.341   6.720  0.9778  1.1967  2.6386
  618MOL0     H83390  10.427   0.306   7.014 -2.0546 -0.0735 -1.1056
  618MOL0     H83391  10.603   0.152   7.120 -0.8583  3.2952 -0.8816
  618MOL0     H83392  10.853  -0.297   7.116 -0.7550  2.3209 -2.7314
  618MOL0     H83393  11.068  -0.369   7.197 -0.6834 -0.0408 -0.0759
  618MOL0     H83394  11.187  -0.370   7.398 -0.9568 -1.5037 -1.8335
  618MOL0     H83395  11.318  -0.412   7.289 -0.9710 -0.6130  0.2212
  618MOL0     H83396  11.329  -0.254   7.541 -2.1075  1.4238 -3.6942
  618MOL0     H83397  11.401  -0.416   7.538  0.7871  0.9180  0.5172
  618MOL0     H83398  11.508  -0.172   7.390  1.0030  0.7597  2.1299
  618MOL0     H83399  11.551  -0.230   7.546  0.1859  0.2753  0.0633
  618MOL0     H83400  11.576  -0.387   7.279  1.4952  0.4916 -1.3329
  618MOL0     H83401  11.616  -0.453   7.438  0.5472 -1.1732 -3.3630
  618MOL0     H83402  11.769  -0.290   7.473 -1.2185  0.8630  0.3339
  618MOL0     H83403  11.734  -0.203   7.320 -0.9967  0.6602  0.0338
  618MOL0     H83404  11.870  -0.470   7.374 -1.3820  0.1685  2.8273
  618MOL0     H83405  11.801  -0.440   7.215  1.2378 -1.5130  0.9467
  618MOL0     H83406  12.050  -0.371   7.238 -0.5324 -0.7004  1.8333
  618MOL0     H83407  11.991  -0.228   7.330  0.4785  2.1323 -2.5368
  618MOL0     H83408  11.940  -0.296   7.042 -2.4413  1.6987 -1.2378
  618MOL0     H83409  11.846  -0.182   7.125  1.9041  2.4853 -1.1806
  618MOL0     H83410  11.186   0.038   7.263  0.1175 -0.2959  3.3235
  618MOL0     H83411  10.967   0.116   7.185 -0.2543  1.0349  2.4884
  618MOL0     H83412  10.524  -0.123   6.794 -0.8898 -0.7491  0.6612
  618MOL0     H83413  10.325   0.007   6.734  2.8323 -0.5955 -2.3711
  618MOL0     H83414   8.729   0.580   6.432 -0.6263  0.8512 -2.0480
  618MOL0     H83415   8.553   0.667   6.300  1.3915 -2.1701  1.7324
  618MOL0     H83416   8.236   0.791   6.237 -1.0811 -0.3785  3.2458
  618MOL0     H83417   8.002   0.785   6.144 -0.7642  1.4343 -3.2463
  618MOL0     H83418   7.801   0.811   6.153 -0.6712 -0.2181 -0.7036
  618MOL0     H83419   7.707   0.879   6.021  0.0304 -1.2901  0.9014
  618MOL0     H83420   7.658   0.941   6.310 -1.4888  1.3810  1.0038
  618MOL0     H83421   7.544   0.883   6.175  0.3028  0.4224 -0.7255
  618MOL0     H83422   7.606   1.119   6.085 -1.1631 -0.2683 -0.8056
  618MOL0     H83423   7.623   1.161   6.257 -2.1000  1.6527 -0.4399
  618MOL0     H83424   7.396   1.217   6.192 -1.4899 -0.5468  3.7746
  618MOL0     H83425   7.378   1.068   6.098  0.0545  1.0224 -1.1009
  618MOL0     H83426   7.315   0.956   6.513 -0.1064  0.1613 -0.2561
  618MOL0     H83427   7.947   1.204   6.219 -0.2041  0.7339  0.8941
  618MOL0     H83428   8.265   1.285   6.299 -0.4696 -0.6965 -0.7670
  618MOL0     H83429   8.100   1.339   6.313 -0.2903  1.6559  1.2578
  618MOL0     H83430   8.164   1.261   6.449  1.8632  1.7636 -0.9156
  619MOL0     O83431   7.520  10.397  10.580 -0.2959 -0.6336  0.4571
  619MOL0     C83432   7.428  10.357  10.514  0.1134  0.4769 -0.4086
  619MOL0     O83433   7.331  10.429  10.454 -0.4904 -0.8484 -0.3203
  619MOL0     C83434   7.312  10.568  10.464  0.0804  0.7585  0.3781
  619MOL0     C83435   7.367  10.657  10.549 -0.3527 -0.4276 -0.5843
  619MOL0     C83436   7.339  10.798  10.540  0.0185 -1.3764  0.7778
  619MOL0     C83437   7.237  10.836  10.452 -1.4339 -0.4666 -0.7399
  619MOL0     O83438   7.199  10.968  10.455  1.4649  0.0421  0.1298
  619MOL0     C83439   7.057  10.985  10.475 -0.1654 -0.2102 -0.6636
  619MOL0     C83440   7.051  11.007  10.622 -0.9236 -0.4953  0.2934
  619MOL0     C83441   7.135  11.124  10.683 -0.1626  0.3009  0.2950
  619MOL0     C83442   7.127  11.256  10.612  0.0878  0.4111 -0.1658
  619MOL0     C83443   7.170  11.379  10.689 -0.1234  0.3607 -0.2338
  619MOL0     C83444   7.318  11.361  10.747 -0.6096 -0.0299 -0.7496
  619MOL0     C83445   7.329  11.319  10.893  0.1484  0.0559  0.6687
  619MOL0     C83446   7.465  11.350  10.945 -0.0622 -0.6636 -0.5418
  619MOL0     N83447   7.555  11.250  10.873  0.0390  0.5679 -0.6973
  619MOL0     C83448   7.550  11.114  10.904 -0.3919 -0.5658 -0.2314
  619MOL0     C83449   7.654  11.065  10.828 -0.4075  0.2969 -1.2538
  619MOL0     C83450   7.686  10.923  10.850  0.0071  0.1926  0.3074
  619MOL0     C83451   7.741  10.858  10.727  0.9299  0.1197 -0.6951
  619MOL0     C83452   7.785  10.723  10.761  0.0263  0.2532  0.1898
  619MOL0     C83453   7.826  10.641  10.634 -0.2116 -0.3251  0.3923
  619MOL0     O83454   7.898  10.529  10.675  0.1978  0.7494  0.3181
  619MOL0     C83455   7.927  10.432  10.588  0.5620 -0.0189 -1.0108
  619MOL0     C83456   7.981  10.311  10.638 -0.2802 -0.6663 -0.0949
  619MOL0     C83457   7.999  10.198  10.559 -0.0269  0.5256  0.3469
  619MOL0     C83458   7.967  10.203  10.420  0.8348 -0.5081  0.6762
  619MOL0     C83459   7.968  10.077  10.344 -0.8183  0.4179 -0.8006
  619MOL0     O83460   7.990  10.090  10.217 -0.3551 -0.4912 -0.0348
  619MOL0     C83461   8.037   9.983  10.138  0.9710 -0.2885  0.2472
  619MOL0     C83462   8.157   9.979  10.079  0.1746 -0.9329  0.1226
  619MOL0     C83463   8.207   9.866  10.010 -0.0830  0.0693 -0.0399
  619MOL0     C83464   8.138   9.751  10.011  0.4718  0.5318  0.3123
  619MOL0     O83465   8.204   9.646   9.948 -0.4420  1.0041 -0.1304
  619MOL0     C83466   8.151   9.514   9.975 -0.0658  0.3170 -0.4481
  619MOL0     C83467   8.240   9.411   9.903  0.1896 -0.2851  0.1307
  619MOL0     C83468   8.239   9.273   9.971 -0.6530 -0.5200 -0.3399
  619MOL0     C83469   8.114   9.215  10.043  0.1131  0.0380 -0.1042
  619MOL0     C83470   8.126   9.091  10.129 -0.0541 -1.1213  0.5278
  619MOL0     C83471   7.992   9.059  10.189  0.2461  2.0939 -0.4507
  619MOL0     C83472   7.987   8.901  10.212 -1.0618 -0.3005 -0.2752
  619MOL0     C83473   7.847   8.836  10.230  0.2702 -0.0804  0.6264
  619MOL0    Cl83474   7.781   8.862  10.391  0.2892 -0.1288  0.1527
  619MOL0     C83475   8.004   9.752  10.065  0.1377 -0.7524 -0.1830
  619MOL0     C83476   7.959   9.872  10.120  0.1281 -0.4056 -0.3713
  619MOL0     O83477   7.951   9.973  10.409  0.1451 -0.2044  0.0913
  619MOL0     C83478   7.919  10.327  10.371  0.2033  0.1322  1.0220
  619MOL0     C83479   7.907  10.442  10.456 -0.6119  0.0251  0.2124
  619MOL0     N83480   7.727  11.163  10.774 -0.9658 -0.5629  0.5817
  619MOL0     N83481   7.669  11.269  10.802 -0.1058  0.2974  0.4272
  619MOL0     C83482   7.185  10.740  10.367  0.0495  0.8575 -0.4821
  619MOL0     C83483   7.224  10.611  10.364 -0.2630 -0.6331 -0.0305
  619MOL0     C83484   7.412  10.206  10.515  1.3452 -0.2956 -0.8976
  619MOL0     C83485   7.287  10.148  10.480 -0.8530 -0.3240  0.2319
  619MOL0     C83486   7.262  10.014  10.493  0.1559  0.2412 -0.4679
  619MOL0     C83487   7.349   9.922  10.549  0.5510 -0.1514 -0.0619
  619MOL0     O83488   7.326   9.783  10.561  0.9748 -0.4046 -0.0114
  619MOL0     C83489   7.197   9.738  10.604 -0.5498 -0.4735 -0.1191
  619MOL0     C83490   7.220   9.600  10.670  0.5072  0.5676 -0.6571
  619MOL0     C83491   7.086   9.533  10.702 -0.7662  0.5951  0.5680
  619MOL0     C83492   7.006   9.596  10.815  0.5106  0.4460 -0.8315
  619MOL0     C83493   6.904   9.497  10.855 -1.0056 -0.1915  0.1008
  619MOL0     C83494   6.810   9.418  10.875  0.3450 -1.5385  0.2246
  619MOL0     C83495   7.474   9.977  10.586 -0.1165 -0.8112 -0.5564
  619MOL0     C83496   7.508  10.115  10.565  0.5038  0.3085 -0.4631
  619MOL0     C83497   7.656  10.148  10.597 -0.3605 -0.6951 -0.3724
  619MOL0     H83498   7.433  10.621  10.627 -0.4138 -0.6234 -0.6223
  619MOL0     H83499   7.381  10.881  10.596  2.2386 -2.1718  0.4029
  619MOL0     H83500   7.030  11.072  10.414 -1.5853 -0.4474 -0.4072
  619MOL0     H83501   6.998  10.901  10.438  0.6119 -0.6546 -0.9226
  619MOL0     H83502   7.074  10.917  10.679 -2.2184 -1.0524 -0.0197
  619MOL0     H83503   6.948  11.040  10.643 -0.4157 -0.2450  2.7955
  619MOL0     H83504   7.240  11.098  10.697  0.1563  0.6017 -1.2736
  619MOL0     H83505   7.089  11.128  10.782  1.4774 -0.3650  1.1120
  619MOL0     H83506   7.184  11.252  10.518  0.0665 -0.7486 -0.1528
  619MOL0     H83507   7.024  11.274  10.578  0.4795 -1.0484 -2.4148
  619MOL0     H83508   7.163  11.456  10.612 -0.8705 -0.5552 -1.1148
  619MOL0     H83509   7.099  11.414  10.765 -1.4437 -0.3537 -1.1081
  619MOL0     H83510   7.373  11.290  10.685  3.5783  0.7971  1.5989
  619MOL0     H83511   7.369  11.457  10.738  0.1015 -0.3004  0.1941
  619MOL0     H83512   7.310  11.215  10.920  0.0447  0.6538  3.1376
  619MOL0     H83513   7.248  11.380  10.935 -2.4703 -1.1286 -2.2254
  619MOL0     H83514   7.501  11.452  10.924 -3.0385  0.4633 -0.6086
  619MOL0     H83515   7.462  11.339  11.054 -0.6794 -1.5371 -0.6416
  619MOL0     H83516   7.479  11.065  10.970 -1.1570  2.3177  1.2601
  619MOL0     H83517   7.765  10.919  10.925 -1.4510  0.1052  1.8997
  619MOL0     H83518   7.596  10.872  10.886  0.9667 -3.8864 -2.3962
  619MOL0     H83519   7.667  10.851  10.646  1.8906 -0.9535 -1.5234
  619MOL0     H83520   7.828  10.913  10.690  1.4118 -1.1118 -1.4877
  619MOL0     H83521   7.703  10.676  10.816  0.8585  1.5191  2.7177
  619MOL0     H83522   7.876  10.724  10.822  0.2464 -2.5696  0.0713
  619MOL0     H83523   7.880  10.710  10.569 -3.0092  2.5500  0.8343
  619MOL0     H83524   7.738  10.608  10.579 -0.6026 -0.3655  1.0359
  619MOL0     H83525   7.999  10.302  10.744  0.8188 -0.6466 -0.2672
  619MOL0     H83526   8.032  10.100  10.594  2.6091  0.9450 -0.6941
  619MOL0     H83527   8.217  10.068  10.092 -0.9745 -0.1291  0.0090
  619MOL0     H83528   8.303   9.873   9.960 -1.2085  1.5444 -2.1246
  619MOL0     H83529   8.147   9.502  10.084  0.0093  0.3900 -0.4369
  619MOL0     H83530   8.049   9.503   9.938 -0.0432 -0.0255 -0.4179
  619MOL0     H83531   8.191   9.392   9.807 -0.4068 -1.3235  0.6219
  619MOL0     H83532   8.344   9.445   9.895 -1.0357  3.5239 -3.3590
  619MOL0     H83533   8.257   9.210   9.884 -2.9656 -0.2158 -1.1000
  619MOL0     H83534   8.311   9.274  10.054 -0.2804  1.2520 -0.6474
  619MOL0     H83535   8.045   9.190   9.962  0.1332 -0.1957 -0.0478
  619MOL0     H83536   8.069   9.285  10.113  2.9825  1.4828  0.4623
  619MOL0     H83537   8.194   9.119  10.211  0.3958 -1.4867  0.2808
  619MOL0     H83538   8.169   9.012  10.067  0.9623  0.8668 -1.4422
  619MOL0     H83539   7.972   9.110  10.284 -2.5943  0.6211 -0.1759
  619MOL0     H83540   7.909   9.077  10.121  1.3953  0.9737 -2.2348
  619MOL0     H83541   8.059   8.873  10.289 -0.8667 -2.7303 -1.2661
  619MOL0     H83542   8.028   8.865  10.118 -0.2856  5.9449 -2.8326
  619MOL0     H83543   7.781   8.870  10.150  1.1845  0.3963  0.0772
  619MOL0     H83544   7.860   8.731  10.203 -1.0147 -0.0948 -0.0404
  619MOL0     H83545   7.937   9.668  10.053 -0.5692 -0.0076 -1.6887
  619MOL0     H83546   7.854   9.864  10.144 -0.3143 -2.4729 -2.5802
  619MOL0     H83547   7.905  10.349  10.265 -0.3066  0.0537  1.0711
  619MOL0     H83548   7.866  10.531  10.410  0.2138 -1.2073 -3.2028
  619MOL0     H83549   7.109  10.781  10.301  1.0151  2.7802 -0.4612
  619MOL0     H83550   7.195  10.537  10.291  3.5899 -1.5804 -0.7911
  619MOL0     H83551   7.213  10.207  10.426 -1.3390 -0.7317  0.4500
  619MOL0     H83552   7.161   9.984  10.464  0.8447 -1.9237 -0.8030
  619MOL0     H83553   7.134   9.740  10.514 -1.5543 -0.2955  0.5642
  619MOL0     H83554   7.144   9.815  10.661 -1.9671  0.2155 -2.1998
  619MOL0     H83555   7.277   9.621  10.761  0.0155 -1.4646  0.1767
  619MOL0     H83556   7.285   9.539  10.606 -1.4097 -1.4576 -0.7588
  619MOL0     H83557   7.105   9.425  10.709 -2.9294 -0.5045 -4.9074
  619MOL0     H83558   7.028   9.539  10.609 -0.0371 -2.7946 -0.2375
  619MOL0     H83559   7.070   9.636  10.894 -1.8694  3.1827 -0.0886
  619MOL0     H83560   6.956   9.684  10.775  0.2898  0.1550 -1.1986
  619MOL0     H83561   6.726   9.353  10.888 -2.6742  1.6676 -1.5710
  619MOL0     H83562   7.557   9.912  10.614  1.3303  0.6402 -1.2436
  619MOL0     H83563   7.710  10.053  10.606 -0.1644 -0.7384 -1.8042
  619MOL0     H83564   7.699  10.208  10.516  1.2841 -3.4472 -1.6818
  619MOL0     H83565   7.670  10.192  10.696  1.9477 -0.9274 -0.5467
  620MOL0     O83566   8.443  10.906   6.597  0.0076 -0.0476  0.6288
  620MOL0     C83567   8.414  10.830   6.681  0.0315  1.1014 -0.5956
  620MOL0     O83568   8.284  10.816   6.726  0.1566  1.0238  0.1376
  620MOL0     C83569   8.182  10.871   6.656 -0.4459  0.0038 -0.1165
  620MOL0     C83570   8.168  10.882   6.515 -0.0246 -1.3953  0.6720
  620MOL0     C83571   8.054  10.943   6.461 -0.3432  0.4725  0.0785
  620MOL0     C83572   7.960  11.005   6.544 -0.1311  0.1004  0.9272
  620MOL0     O83573   7.861  11.071   6.478  0.1316 -0.3933 -0.6182
  620MOL0     C83574   7.750  11.114   6.564  1.4832 -0.4345  0.2432
  620MOL0     C83575   7.642  11.199   6.491  0.0511  0.0851  0.7338
  620MOL0     C83576   7.560  11.117   6.394 -0.0854 -0.0834  0.2279
  620MOL0     C83577   7.445  11.199   6.321  0.2546  0.3100 -0.0130
  620MOL0     C83578   7.327  11.237   6.404 -0.4701  0.8804 -0.1924
  620MOL0     C83579   7.216  11.289   6.317 -1.3989  0.8719 -0.3230
  620MOL0     C83580   7.097  11.335   6.395  0.9201 -0.0876  0.1116
  620MOL0     C83581   6.980  11.388   6.303 -0.3356  0.4649 -0.3485
  620MOL0     N83582   7.031  11.505   6.238 -0.6356  0.9444  0.0247
  620MOL0     C83583   7.017  11.631   6.297 -0.1490  0.7672  0.3158
  620MOL0     C83584   7.029  11.717   6.194 -0.7646 -0.7466  0.5315
  620MOL0     C83585   7.027  11.873   6.199 -1.0155  0.1240 -0.1649
  620MOL0     C83586   7.172  11.908   6.250  0.0561 -0.3988  0.3264
  620MOL0     C83587   7.193  12.057   6.204 -0.7187  0.3318 -0.0226
  620MOL0     C83588   7.321  12.118   6.272  0.3227 -0.0062  0.3099
  620MOL0     O83589   7.442  12.050   6.233 -0.2577  0.1260  0.3098
  620MOL0     C83590   7.557  12.063   6.305  0.5622 -0.2931 -0.0377
  620MOL0     C83591   7.667  11.988   6.269 -0.3356 -0.4557  0.2380
  620MOL0     C83592   7.794  11.999   6.331 -0.4386  0.4357 -0.5896
  620MOL0     C83593   7.804  12.075   6.450  0.5339 -0.1976 -0.1789
  620MOL0     C83594   7.935  12.095   6.519  0.2436 -0.5662 -0.6684
  620MOL0     O83595   7.949  12.162   6.642 -0.5900 -0.2212 -0.3536
  620MOL0     C83596   8.072  12.178   6.709 -0.0963 -0.4630 -0.2266
  620MOL0     C83597   8.073  12.181   6.849 -0.0017  0.5902  0.3677
  620MOL0     C83598   8.187  12.207   6.926 -0.2262 -0.7755 -0.6962
  620MOL0     C83599   8.305  12.240   6.855 -0.0135  0.5404 -0.2233
  620MOL0     O83600   8.422  12.244   6.932  0.0525 -0.0980 -0.4814
  620MOL0     C83601   8.543  12.243   6.854 -0.9585 -0.7653  0.1936
  620MOL0     C83602   8.662  12.221   6.945  1.3020 -0.3325 -1.2835
  620MOL0     C83603   8.645  12.082   7.006  0.7818  0.1929  1.4904
  620MOL0     C83604   8.746  12.048   7.116 -0.2468  0.2991  0.3781
  620MOL0     C83605   8.888  12.085   7.073 -1.4673  0.4328  0.6606
  620MOL0     C83606   8.988  12.066   7.177 -0.4774 -0.8701  0.1685
  620MOL0     C83607   9.132  12.126   7.138 -0.6723  0.8961  1.1210
  620MOL0     C83608   9.207  12.017   7.037 -0.0584 -0.3714 -0.6325
  620MOL0    Cl83609   9.381  12.024   7.086  0.2046  0.1979 -0.2544
  620MOL0     C83610   8.301  12.244   6.714 -0.4624 -1.0305  0.1400
  620MOL0     C83611   8.186  12.218   6.646  0.0904 -0.6597  0.3434
  620MOL0     O83612   8.028  12.048   6.452 -0.0351  0.0783  0.2077
  620MOL0     C83613   7.686  12.133   6.507  1.0477 -0.5127 -0.6586
  620MOL0     C83614   7.564  12.130   6.435  0.2852  0.2728  0.0228
  620MOL0     N83615   7.048  11.648   6.079 -0.4466 -0.0897 -0.8034
  620MOL0     N83616   7.038  11.524   6.100  0.4608 -0.1000 -0.5938
  620MOL0     C83617   7.982  10.989   6.686  0.0946 -0.2745  0.5344
  620MOL0     C83618   8.086  10.914   6.738 -0.1899 -0.8665  0.0622
  620MOL0     C83619   8.513  10.735   6.743 -0.0169 -0.4596 -0.0382
  620MOL0     C83620   8.475  10.676   6.860  0.3465  0.8317  0.4170
  620MOL0     C83621   8.573  10.612   6.943  0.9963  0.0252 -0.5932
  620MOL0     C83622   8.699  10.594   6.889 -0.5085 -0.6411 -0.8511
  620MOL0     O83623   8.788  10.506   6.953 -0.0527 -0.3066  0.5419
  620MOL0     C83624   8.918  10.489   6.890  0.4025  0.4142 -0.7198
  620MOL0     C83625   8.994  10.396   6.991 -0.0236  0.7025 -0.2097
  620MOL0     C83626   9.002  10.462   7.130 -0.5079  0.0791  0.3025
  620MOL0     C83627   9.055  10.361   7.231  0.6685  0.0122 -0.1818
  620MOL0     C83628   9.200  10.339   7.213 -0.4462  0.3665 -0.4221
  620MOL0     C83629   9.316  10.312   7.202  0.3066  0.5197 -0.2041
  620MOL0     C83630   8.740  10.640   6.762  0.5874 -0.7391  0.3657
  620MOL0     C83631   8.643  10.717   6.692  0.3665  0.0258 -0.9320
  620MOL0     C83632   8.681  10.767   6.559 -0.0153  0.1441 -0.4004
  620MOL0     H83633   8.225  10.822   6.444 -0.1190 -0.5396 -0.1503
  620MOL0     H83634   8.046  10.942   6.352 -0.9026 -1.2195  0.1069
  620MOL0     H83635   7.700  11.025   6.605 -1.8942  0.3257 -1.8382
  620MOL0     H83636   7.789  11.169   6.650  1.7882 -3.3163  2.0868
  620MOL0     H83637   7.695  11.278   6.437 -0.8417  2.7417  3.4590
  620MOL0     H83638   7.567  11.249   6.554 -0.8983  0.5367 -0.7100
  620MOL0     H83639   7.510  11.033   6.444  1.3006 -1.1647 -0.1450
  620MOL0     H83640   7.628  11.073   6.320  0.6053  0.9380  0.2322
  620MOL0     H83641   7.485  11.283   6.263 -3.0223  2.9648  1.2068
  620MOL0     H83642   7.407  11.133   6.242 -1.1946 -0.3980  1.2212
  620MOL0     H83643   7.299  11.144   6.455  0.1002  0.9001  0.1655
  620MOL0     H83644   7.348  11.311   6.482  2.5831 -0.6025  0.5501
  620MOL0     H83645   7.250  11.377   6.262  2.7772 -1.1539 -1.3737
  620MOL0     H83646   7.183  11.218   6.241 -0.2006  2.4795 -2.4381
  620MOL0     H83647   7.144  11.416   6.450  0.7924  0.5013 -0.6348
  620MOL0     H83648   7.063  11.251   6.457  1.4936  1.0946  2.1171
  620MOL0     H83649   6.945  11.311   6.234 -1.9175 -0.3226  1.2667
  620MOL0     H83650   6.888  11.414   6.356  0.5755  2.1647  0.4816
  620MOL0     H83651   7.008  11.651   6.403 -0.9931  1.9482  0.0396
  620MOL0     H83652   7.008  11.914   6.100 -0.1895 -0.7863 -0.7229
  620MOL0     H83653   6.954  11.922   6.264 -2.3616  1.1139 -2.3508
  620MOL0     H83654   7.164  11.918   6.358 -1.0566 -2.9041  0.5493
  620MOL0     H83655   7.243  11.834   6.211 -1.4583 -1.4014 -0.6663
  620MOL0     H83656   7.106  12.121   6.220 -1.8667 -1.0951 -0.4115
  620MOL0     H83657   7.207  12.064   6.095  1.8596  1.8041  0.3201
  620MOL0     H83658   7.307  12.114   6.380 -0.9818 -1.2736  0.1112
  620MOL0     H83659   7.321  12.224   6.244 -2.8195  0.1936  0.7932
  620MOL0     H83660   7.659  11.938   6.173 -0.8394 -0.9093  0.5109
  620MOL0     H83661   7.890  11.970   6.290  0.4215  1.3617  0.6833
  620MOL0     H83662   7.977  12.150   6.887 -0.4926 -1.0572 -1.9575
  620MOL0     H83663   8.176  12.205   7.033 -1.4467 -1.5049 -0.8137
  620MOL0     H83664   8.547  12.166   6.776 -1.0156 -1.8703  1.2487
  620MOL0     H83665   8.554  12.340   6.805  1.2387 -1.0325  0.0489
  620MOL0     H83666   8.753  12.234   6.885  0.6989  0.4976 -2.0604
  620MOL0     H83667   8.652  12.298   7.021 -1.7868  0.4010 -2.2861
  620MOL0     H83668   8.544  12.067   7.047 -0.6711 -0.3849 -1.9011
  620MOL0     H83669   8.669  12.014   6.924 -3.8566  2.1693 -1.9681
  620MOL0     H83670   8.733  11.942   7.139 -0.0064  0.1598 -0.1154
  620MOL0     H83671   8.716  12.104   7.205  0.7795 -2.2280  2.4475
  620MOL0     H83672   8.893  12.188   7.038  0.8369  0.2550  0.3478
  620MOL0     H83673   8.911  12.025   6.985  2.2992 -0.5514  2.1206
  620MOL0     H83674   8.957  12.114   7.270 -2.0273 -1.8879  0.2123
  620MOL0     H83675   8.997  11.959   7.198 -3.1605 -1.2076 -0.0139
  620MOL0     H83676   9.191  12.133   7.230  0.7990 -1.3314  0.4393
  620MOL0     H83677   9.120  12.224   7.089 -1.3158 -0.0953 -0.7903
  620MOL0     H83678   9.157  11.920   7.045 -0.5604  0.0651  3.0871
  620MOL0     H83679   9.197  12.037   6.930 -1.6307  0.3074 -0.3869
  620MOL0     H83680   8.381  12.269   6.644 -0.6250  2.3979  1.0150
  620MOL0     H83681   8.194  12.220   6.537 -1.2493 -0.1184  0.2427
  620MOL0     H83682   7.698  12.182   6.603  1.2251  0.5825 -1.2234
  620MOL0     H83683   7.478  12.182   6.477 -0.6209 -2.2699  1.5432
  620MOL0     H83684   7.911  11.029   6.757 -0.2031  2.1824 -1.0368
  620MOL0     H83685   8.104  10.906   6.845  1.5874 -1.2637 -0.2277
  620MOL0     H83686   8.374  10.677   6.899  0.3895 -0.4993  0.6227
  620MOL0     H83687   8.544  10.573   7.040 -4.5367  0.7826 -1.6259
  620MOL0     H83688   8.985  10.573   6.871  0.5447 -0.0685 -2.4982
  620MOL0     H83689   8.916  10.436   6.794  2.0982 -0.3490 -0.3712
  620MOL0     H83690   9.092  10.365   6.953 -0.8871 -4.3029  0.9206
  620MOL0     H83691   8.944  10.299   6.999 -0.7550  1.0323 -0.7469
  620MOL0     H83692   8.900  10.496   7.152 -0.7323  0.7309 -1.5720
  620MOL0     H83693   9.072  10.547   7.129 -1.3307  0.8620  2.5835
  620MOL0     H83694   9.041  10.395   7.334 -0.5367  2.4576 -1.0763
  620MOL0     H83695   8.994  10.271   7.225 -1.4907  1.4855 -2.7292
  620MOL0     H83696   9.418  10.283   7.190  0.4483 -0.4695  2.6999
  620MOL0     H83697   8.834  10.612   6.715  0.3833 -0.9085  0.0543
  620MOL0     H83698   8.687  10.876   6.554  0.1099  0.2923  1.9384
  620MOL0     H83699   8.777  10.724   6.529  0.1312 -2.8297  3.4735
  620MOL0     H83700   8.601  10.731   6.494  0.0720  1.1178 -1.0722
  621MOL0     O83701   4.976   2.799   6.383 -0.7185 -0.6158  0.2988
  621MOL0     C83702   4.982   2.797   6.509  0.7149  0.2965 -1.0455
  621MOL0     O83703   5.073   2.725   6.579  0.1337 -0.2745 -0.3344
  621MOL0     C83704   5.158   2.639   6.518 -0.1901 -0.6445 -0.0133
  621MOL0     C83705   5.255   2.685   6.419 -0.2272  0.0486 -0.4891
  621MOL0     C83706   5.335   2.579   6.360 -0.2172 -0.0459 -0.1866
  621MOL0     C83707   5.329   2.446   6.388 -0.3409  0.0374 -0.0637
  621MOL0     O83708   5.416   2.361   6.325 -0.6881 -0.0377 -0.0042
  621MOL0     C83709   5.445   2.230   6.373  0.7048  0.5996  0.4801
  621MOL0     C83710   5.516   2.227   6.517 -0.6214  0.9280  0.5850
  621MOL0     C83711   5.500   2.081   6.574 -0.6557  0.7271 -0.3093
  621MOL0     C83712   5.557   2.040   6.708  0.1308  0.2043 -0.9244
  621MOL0     C83713   5.723   2.035   6.713  0.1356 -0.3123 -0.3077
  621MOL0     C83714   5.776   2.027   6.859 -0.0056 -0.2657 -0.1003
  621MOL0     C83715   5.928   2.027   6.868  0.5469  0.3129 -0.5442
  621MOL0     C83716   5.957   2.050   7.013  0.3677 -0.1761 -0.2234
  621MOL0     N83717   6.106   2.072   7.031 -0.1849 -0.2188  0.0810
  621MOL0     C83718   6.201   1.980   7.051  0.5892  0.6688 -0.0228
  621MOL0     C83719   6.319   2.034   7.042  0.1850 -1.0282  0.2196
  621MOL0     C83720   6.459   1.980   7.065 -0.6289  0.4643 -0.2118
  621MOL0     C83721   6.461   1.907   7.201 -0.2939  0.4711 -0.2103
  621MOL0     C83722   6.595   1.858   7.240 -0.3050 -0.5006 -0.4228
  621MOL0     C83723   6.630   1.731   7.153  0.1067  0.6130  0.1652
  621MOL0     O83724   6.737   1.653   7.214 -0.5588 -0.6666 -0.2309
  621MOL0     C83725   6.751   1.521   7.186  0.1293 -0.5230 -0.1401
  621MOL0     C83726   6.826   1.443   7.281  0.0932  0.1294 -0.2013
  621MOL0     C83727   6.847   1.311   7.262  0.4208 -0.9295  0.1128
  621MOL0     C83728   6.792   1.244   7.150 -0.7089 -0.4320 -0.3422
  621MOL0     C83729   6.819   1.106   7.124  0.3964  0.7884 -0.0571
  621MOL0     O83730   6.912   1.038   7.202 -0.0639 -0.4375  0.1191
  621MOL0     C83731   6.909   0.906   7.233 -0.2364 -0.3017 -0.0484
  621MOL0     C83732   6.791   0.826   7.233 -0.3323 -0.6527  0.1190
  621MOL0     C83733   6.781   0.705   7.300  0.3550 -0.0921  0.0294
  621MOL0     C83734   6.900   0.647   7.353  1.1634 -0.0963 -0.2320
  621MOL0     O83735   6.900   0.514   7.406  0.9118 -0.1555  0.3977
  621MOL0     C83736   6.782   0.460   7.455  0.2473  0.5547 -0.4359
  621MOL0     C83737   6.810   0.320   7.508 -0.1549 -0.0557 -0.9104
  621MOL0     C83738   6.688   0.238   7.561 -1.3848  0.9358 -1.0008
  621MOL0     C83739   6.575   0.226   7.446  0.7778  0.3492 -0.8904
  621MOL0     C83740   6.458   0.136   7.495  0.2253 -0.2402 -0.6158
  621MOL0     C83741   6.348   0.140   7.401  0.6394  0.5940 -0.6916
  621MOL0     C83742   6.222   0.072   7.465 -0.5959  0.9508 -0.2401
  621MOL0     C83743   6.111   0.073   7.358 -0.8477  0.2273  0.6651
  621MOL0    Cl83744   6.053   0.234   7.315  0.1278  0.3237 -0.0536
  621MOL0     C83745   7.022   0.725   7.349  0.1833  0.7115  1.0893
  621MOL0     C83746   7.030   0.857   7.293  0.9013 -0.5434  0.0814
  621MOL0     O83747   6.745   1.051   7.040 -0.5735 -0.2791 -0.2980
  621MOL0     C83748   6.720   1.324   7.053 -0.3817 -0.2727  0.2309
  621MOL0     C83749   6.707   1.461   7.069  0.2436 -0.9620 -0.9505
  621MOL0     N83750   6.292   2.164   7.021 -0.3968 -0.7312 -0.3088
  621MOL0     N83751   6.173   2.191   6.999 -0.1502  0.3708 -0.9202
  621MOL0     C83752   5.231   2.400   6.480 -0.3587 -1.1163 -0.1200
  621MOL0     C83753   5.149   2.495   6.544  0.2717 -0.4312 -0.2433
  621MOL0     C83754   4.876   2.863   6.591 -0.0093 -0.4345 -0.1763
  621MOL0     C83755   4.837   2.804   6.717 -0.0954 -0.3997  0.0600
  621MOL0     C83756   4.742   2.871   6.791  0.2458  0.1622 -0.2027
  621MOL0     C83757   4.684   2.991   6.747  0.6095 -0.6364  0.0806
  621MOL0     O83758   4.586   3.043   6.825 -0.1064  0.5888 -0.2544
  621MOL0     C83759   4.543   3.179   6.812 -0.3609 -0.2739  0.0923
  621MOL0     C83760   4.645   3.293   6.843  0.6325  0.1162 -0.5842
  621MOL0     C83761   4.731   3.263   6.969  0.8200 -1.1193  1.0059
  621MOL0     C83762   4.651   3.244   7.095  0.3450 -0.6104  0.1371
  621MOL0     C83763   4.744   3.232   7.210  0.2645 -0.2456  0.5434
  621MOL0     C83764   4.820   3.232   7.302 -0.2207 -0.8713  0.1089
  621MOL0     C83765   4.727   3.045   6.626  0.2714  0.0438  0.8463
  621MOL0     C83766   4.818   2.981   6.548 -0.1014 -0.5393 -0.2161
  621MOL0     C83767   4.865   3.049   6.421  0.1272 -0.0346  0.4150
  621MOL0     H83768   5.269   2.789   6.394 -1.9404  0.8132  1.4614
  621MOL0     H83769   5.416   2.609   6.295  0.3754  1.8723  1.3507
  621MOL0     H83770   5.353   2.170   6.376 -0.6253  2.3924 -1.6161
  621MOL0     H83771   5.510   2.189   6.295 -2.1375 -1.8125 -0.8311
  621MOL0     H83772   5.468   2.303   6.579 -1.6237 -0.2505  1.3035
  621MOL0     H83773   5.619   2.256   6.495 -0.5526 -1.3294 -2.7515
  621MOL0     H83774   5.543   2.014   6.500 -0.4759  0.4506  0.0414
  621MOL0     H83775   5.391   2.071   6.577 -1.0486  2.6451 -3.4566
  621MOL0     H83776   5.505   2.114   6.770  4.0040  0.6790  2.1873
  621MOL0     H83777   5.521   1.939   6.729  1.4791  0.3780  2.9605
  621MOL0     H83778   5.751   1.944   6.661 -0.1122 -1.1203  0.9274
  621MOL0     H83779   5.749   2.128   6.662 -1.1207  1.2007  1.6294
  621MOL0     H83780   5.734   2.110   6.916  1.0302 -0.1998  0.5834
  621MOL0     H83781   5.756   1.941   6.923  0.2847  1.2600  2.1449
  621MOL0     H83782   5.961   2.106   6.800 -0.7184 -1.7351 -3.7402
  621MOL0     H83783   5.965   1.930   6.834 -0.0819  0.9080 -3.1077
  621MOL0     H83784   5.922   2.147   7.051 -1.3326  0.2860 -2.7691
  621MOL0     H83785   5.913   1.978   7.082 -0.9330 -0.9557 -1.8013
  621MOL0     H83786   6.172   1.878   7.074  2.0373  0.0009 -1.0439
  621MOL0     H83787   6.474   1.911   6.982  1.5220 -0.1180  0.5889
  621MOL0     H83788   6.536   2.058   7.059  0.2165 -0.3279 -0.0094
  621MOL0     H83789   6.424   1.972   7.281 -0.5161 -2.3406  2.1592
  621MOL0     H83790   6.392   1.823   7.192  1.6980 -1.2429 -0.1860
  621MOL0     H83791   6.596   1.834   7.346  2.2257  2.6424  0.4202
  621MOL0     H83792   6.663   1.943   7.229  3.8408 -3.6235 -2.1035
  621MOL0     H83793   6.652   1.744   7.047  0.6045 -1.5051 -0.0473
  621MOL0     H83794   6.539   1.669   7.155 -1.6402  3.0249  0.5637
  621MOL0     H83795   6.871   1.482   7.371 -0.8299  0.5259  0.0956
  621MOL0     H83796   6.901   1.258   7.339 -0.3890 -0.4025  1.0651
  621MOL0     H83797   6.699   0.864   7.189  0.5894  0.8351 -0.5932
  621MOL0     H83798   6.682   0.662   7.293  0.2358  0.1707  0.1020
  621MOL0     H83799   6.733   0.521   7.532 -1.0901 -1.3799  0.3258
  621MOL0     H83800   6.706   0.455   7.376 -0.2810  0.2084  0.0812
  621MOL0     H83801   6.851   0.269   7.420  2.8969  4.5692 -2.5632
  621MOL0     H83802   6.890   0.321   7.582 -0.6143  1.9945 -0.3850
  621MOL0     H83803   6.717   0.138   7.593 -0.8415  1.1627 -0.7716
  621MOL0     H83804   6.637   0.282   7.647 -0.5197 -3.9734  2.4399
  621MOL0     H83805   6.619   0.181   7.357  1.4350 -1.3155  0.2285
  621MOL0     H83806   6.534   0.323   7.416  0.6515  1.1413  1.5985
  621MOL0     H83807   6.423   0.175   7.591 -0.3167 -1.1859 -0.4151
  621MOL0     H83808   6.495   0.035   7.518  0.8678  0.6282  2.7202
  621MOL0     H83809   6.320   0.245   7.384  2.3527  1.2635  0.3542
  621MOL0     H83810   6.385   0.089   7.312 -0.2556  2.1873 -2.0481
  621MOL0     H83811   6.193   0.120   7.559  0.6162  3.4774 -1.0770
  621MOL0     H83812   6.245  -0.035   7.475 -0.9128  0.9112  0.0793
  621MOL0     H83813   6.152   0.035   7.264  1.1231 -2.4381  2.4387
  621MOL0     H83814   6.027   0.010   7.388 -1.1624 -0.1290 -0.9083
  621MOL0     H83815   7.108   0.678   7.397  1.6105  0.3253 -1.6260
  621MOL0     H83816   7.129   0.901   7.302  1.4544 -1.7853  0.3681
  621MOL0     H83817   6.664   1.290   6.966 -2.7191 -1.4940  2.0891
  621MOL0     H83818   6.649   1.509   6.992  0.7099  0.5695 -0.3879
  621MOL0     H83819   5.225   2.296   6.510  0.9743 -0.3364  3.2777
  621MOL0     H83820   5.077   2.449   6.610  2.2496 -3.1328  0.1879
  621MOL0     H83821   4.880   2.709   6.746  1.1068 -1.1463 -3.6267
  621MOL0     H83822   4.706   2.835   6.887 -0.3328  2.1113  0.3604
  621MOL0     H83823   4.453   3.190   6.873 -1.3259 -0.6823 -1.1925
  621MOL0     H83824   4.506   3.190   6.709  0.4763 -0.9356 -0.2947
  621MOL0     H83825   4.583   3.381   6.864 -1.0927 -1.3711  0.9429
  621MOL0     H83826   4.711   3.308   6.757  1.5528 -1.5996 -0.2198
  621MOL0     H83827   4.810   3.337   6.980  1.6154 -1.4465 -1.6751
  621MOL0     H83828   4.787   3.171   6.948  2.2694 -0.6660  2.6081
  621MOL0     H83829   4.581   3.328   7.099 -0.2979 -1.1883  2.1730
  621MOL0     H83830   4.599   3.147   7.089  0.6393 -0.7913  0.5381
  621MOL0     H83831   4.877   3.230   7.393  1.2036  2.4527 -0.5807
  621MOL0     H83832   4.676   3.135   6.591 -0.9311 -0.6385  0.7816
  621MOL0     H83833   4.809   3.143   6.418 -1.3743 -0.8950 -2.4107
  621MOL0     H83834   4.973   3.064   6.415 -0.1735  1.9341 -1.4016
  621MOL0     H83835   4.849   2.998   6.326 -0.3338  0.0531  0.4428
  622MOL0     O83836   1.844   9.461   8.594  0.6713  0.2833 -0.4226
  622MOL0     C83837   1.857   9.524   8.489 -0.1695 -1.6046 -0.2369
  622MOL0     O83838   1.981   9.542   8.422 -0.3409 -0.6801  0.3118
  622MOL0     C83839   2.091   9.500   8.501 -0.6333  0.0206  1.1965
  622MOL0     C83840   2.152   9.568   8.598  0.3688 -0.1389  0.3362
  622MOL0     C83841   2.263   9.510   8.659 -1.3161  0.0420  0.5655
  622MOL0     C83842   2.317   9.390   8.620  0.8223  0.5506 -0.0643
  622MOL0     O83843   2.414   9.330   8.689 -0.2472  0.1897 -0.0582
  622MOL0     C83844   2.516   9.416   8.741  0.3685  0.1242 -0.7970
  622MOL0     C83845   2.630   9.323   8.780  0.1918 -0.0633  0.3539
  622MOL0     C83846   2.589   9.202   8.861  0.0450  0.1179 -0.6192
  622MOL0     C83847   2.714   9.106   8.875  0.4497  0.0504 -0.7472
  622MOL0     C83848   2.693   8.974   8.949  0.1426 -0.3569 -0.2203
  622MOL0     C83849   2.811   8.895   8.978 -0.1410 -0.3542 -0.1242
  622MOL0     C83850   2.789   8.739   8.983 -1.5663  0.0087 -0.1315
  622MOL0     C83851   2.925   8.657   8.980  0.2781  0.1139 -0.2771
  622MOL0     N83852   3.003   8.658   8.862 -0.7240  0.2436 -0.3598
  622MOL0     C83853   2.953   8.619   8.742  1.0470  0.5092 -0.1001
  622MOL0     C83854   3.049   8.648   8.657 -0.2698  0.6311  0.0401
  622MOL0     C83855   3.036   8.624   8.509  0.3005  0.6536 -0.3055
  622MOL0     C83856   3.135   8.519   8.457 -0.2393  0.3906  0.2643
  622MOL0     C83857   3.281   8.584   8.452 -0.2829  0.7432 -0.5340
  622MOL0     C83858   3.377   8.505   8.360  0.4270  0.4470  0.0716
  622MOL0     O83859   3.467   8.596   8.293 -0.0039 -0.0263 -1.1303
  622MOL0     C83860   3.593   8.565   8.258 -0.3388  0.8785 -1.0943
  622MOL0     C83861   3.659   8.448   8.291  0.4646  0.2199 -1.0982
  622MOL0     C83862   3.799   8.435   8.255 -0.1285 -0.0378 -0.2777
  622MOL0     C83863   3.865   8.535   8.175  0.0436 -0.8981 -0.3502
  622MOL0     C83864   4.009   8.532   8.139  0.1306  0.5773  0.5682
  622MOL0     O83865   4.056   8.547   8.011 -0.1452  0.0967 -0.3336
  622MOL0     C83866   4.188   8.550   7.994 -0.7627 -0.5930  0.1045
  622MOL0     C83867   4.261   8.669   7.954 -0.0892 -0.1620 -0.7801
  622MOL0     C83868   4.399   8.672   7.944 -0.6258  0.7157 -0.2396
  622MOL0     C83869   4.473   8.548   7.949 -0.0629  0.3525  0.3099
  622MOL0     O83870   4.606   8.538   7.923 -0.7590 -0.0575 -0.0319
  622MOL0     C83871   4.687   8.637   7.862  0.3030  1.3268 -0.3973
  622MOL0     C83872   4.806   8.567   7.803  0.9592 -0.4806 -0.7177
  622MOL0     C83873   4.891   8.679   7.730  0.9136  0.5720 -0.4205
  622MOL0     C83874   5.041   8.681   7.761 -0.3726  0.8929 -1.0848
  622MOL0     C83875   5.098   8.809   7.700  0.4520 -0.2582 -0.5069
  622MOL0     C83876   5.221   8.754   7.622  0.1677  0.3254 -0.7690
  622MOL0     C83877   5.296   8.863   7.546  0.7853 -0.0369  0.6899
  622MOL0     C83878   5.380   8.795   7.450 -0.9905  0.2944  0.6287
  622MOL0    Cl83879   5.281   8.718   7.316  0.4313 -0.1422  0.5002
  622MOL0     C83880   4.399   8.429   7.966  0.4723 -0.4349 -0.0035
  622MOL0     C83881   4.263   8.427   7.993 -0.1634 -0.5944 -0.2324
  622MOL0     O83882   4.076   8.490   8.235  0.3361 -0.0086 -0.2688
  622MOL0     C83883   3.793   8.644   8.142 -0.0714  0.7438 -0.2953
  622MOL0     C83884   3.668   8.664   8.190  0.5620 -0.3917 -0.0624
  622MOL0     N83885   3.161   8.695   8.723  0.5023  0.2519  0.5778
  622MOL0     N83886   3.139   8.695   8.851 -0.0180  0.1937 -0.5185
  622MOL0     C83887   2.264   9.322   8.511  1.1186 -0.2129 -0.2359
  622MOL0     C83888   2.143   9.374   8.451 -1.2793  0.4837 -1.0990
  622MOL0     C83889   1.741   9.591   8.422  0.0499  0.3245  0.1675
  622MOL0     C83890   1.768   9.653   8.294  0.8200  0.0954  0.5661
  622MOL0     C83891   1.667   9.717   8.226  0.1369 -0.2362 -0.0879
  622MOL0     C83892   1.536   9.716   8.273 -0.1663  0.4873  0.7861
  622MOL0     O83893   1.423   9.783   8.218 -0.2211  0.6630  0.0008
  622MOL0     C83894   1.459   9.875   8.119 -0.1971 -1.1004  0.4447
  622MOL0     C83895   1.337   9.949   8.054  0.4472 -0.1612  0.3107
  622MOL0     C83896   1.357  10.078   7.999  0.5142 -0.6258  0.5727
  622MOL0     C83897   1.441  10.091   7.871  0.4114 -0.1012  0.5616
  622MOL0     C83898   1.581  10.124   7.902  0.6547 -0.2574  0.7212
  622MOL0     C83899   1.699  10.152   7.909  0.6255 -0.3121  0.0391
  622MOL0     C83900   1.510   9.645   8.394 -1.2342  0.8787 -0.7115
  622MOL0     C83901   1.610   9.594   8.474 -0.3723 -0.6316 -0.1383
  622MOL0     C83902   1.565   9.533   8.611 -0.0500  1.2800  0.6421
  622MOL0     H83903   2.117   9.668   8.621  2.7085  1.1628 -1.3352
  622MOL0     H83904   2.303   9.561   8.746 -0.5289  0.4838 -0.0405
  622MOL0     H83905   2.544   9.504   8.683 -1.1096  0.8910 -0.4043
  622MOL0     H83906   2.476   9.450   8.837 -1.6308 -1.4833 -0.9798
  622MOL0     H83907   2.709   9.370   8.839  3.4499 -3.5177 -0.8393
  622MOL0     H83908   2.686   9.288   8.693 -1.2531 -1.0758 -0.2110
  622MOL0     H83909   2.505   9.149   8.817  1.6630 -2.8127 -0.4075
  622MOL0     H83910   2.568   9.228   8.965  4.0812 -0.8074  0.6218
  622MOL0     H83911   2.736   9.086   8.769  3.2110  1.5751 -0.5667
  622MOL0     H83912   2.797   9.148   8.932  0.7628 -1.7006  0.1732
  622MOL0     H83913   2.638   9.002   9.039 -1.6946  0.8596 -1.6444
  622MOL0     H83914   2.629   8.924   8.876  2.0604 -2.0871 -0.8021
  622MOL0     H83915   2.873   8.908   8.889  1.9126  0.0670  1.2891
  622MOL0     H83916   2.881   8.930   9.054 -0.3232  0.9990 -0.5662
  622MOL0     H83917   2.724   8.704   8.902 -2.4414 -4.9858  2.2929
  622MOL0     H83918   2.729   8.708   9.070 -1.1152 -0.8083 -0.0965
  622MOL0     H83919   2.995   8.687   9.058  0.0898 -1.6220  0.5925
  622MOL0     H83920   2.903   8.557   9.019  0.3930  0.8694  1.8180
  622MOL0     H83921   2.859   8.565   8.744 -0.3278  2.6834  3.7675
  622MOL0     H83922   2.934   8.588   8.495  0.1273  1.0895 -0.1932
  622MOL0     H83923   3.042   8.719   8.455  0.8638 -0.4104 -2.1985
  622MOL0     H83924   3.133   8.427   8.517 -0.2383  0.4730  0.3896
  622MOL0     H83925   3.106   8.492   8.355 -0.7912  3.2175 -0.4077
  622MOL0     H83926   3.318   8.585   8.555 -2.2661 -0.5725  0.2597
  622MOL0     H83927   3.289   8.689   8.425 -0.1966  1.6345  2.5845
  622MOL0     H83928   3.320   8.458   8.279  1.2754  0.4110 -0.5144
  622MOL0     H83929   3.422   8.416   8.404 -2.1611 -0.3692  1.3287
  622MOL0     H83930   3.625   8.370   8.357 -0.5754 -1.2297 -3.2136
  622MOL0     H83931   3.865   8.351   8.278 -0.2550 -0.4162 -1.2468
  622MOL0     H83932   4.209   8.764   7.959  2.1910  1.4561 -4.0612
  622MOL0     H83933   4.443   8.769   7.926  0.4334  0.2370 -0.2862
  622MOL0     H83934   4.633   8.693   7.786 -2.3040 -2.2733 -1.4655
  622MOL0     H83935   4.721   8.714   7.932  0.9381  0.3973  0.3448
  622MOL0     H83936   4.861   8.523   7.887 -1.1902 -1.2881  0.3441
  622MOL0     H83937   4.769   8.497   7.728 -0.4801 -1.8865  1.2138
  622MOL0     H83938   4.874   8.662   7.623  2.6894  3.1314 -1.2340
  622MOL0     H83939   4.852   8.778   7.758 -1.1928 -0.8183  1.9611
  622MOL0     H83940   5.092   8.593   7.722 -0.7114  1.2828 -2.4956
  622MOL0     H83941   5.050   8.695   7.869 -1.3831 -0.4506 -0.8052
  622MOL0     H83942   5.126   8.886   7.773  0.5932  1.2186 -2.0514
  622MOL0     H83943   5.026   8.854   7.632  1.0597 -1.5865 -2.1077
  622MOL0     H83944   5.284   8.697   7.690 -2.7802  1.4462  3.2490
  622MOL0     H83945   5.179   8.683   7.550  2.0068 -0.1222 -1.4657
  622MOL0     H83946   5.361   8.913   7.619 -1.0034 -1.4895  3.4480
  622MOL0     H83947   5.221   8.928   7.500 -0.1398 -1.1685  0.5640
  622MOL0     H83948   5.440   8.872   7.401 -1.0215 -0.7888 -1.2062
  622MOL0     H83949   5.450   8.719   7.486 -1.2886 -0.4676 -0.3523
  622MOL0     H83950   4.453   8.336   7.949 -0.5099 -1.0052 -0.0918
  622MOL0     H83951   4.222   8.330   8.019  1.8320 -1.2135  0.7477
  622MOL0     H83952   3.836   8.724   8.083 -1.1234  0.3144 -1.6898
  622MOL0     H83953   3.614   8.756   8.168  3.7505  1.2733 -1.7191
  622MOL0     H83954   2.296   9.224   8.478 -1.2772 -0.9070 -0.7003
  622MOL0     H83955   2.094   9.324   8.369  1.5612 -0.7994 -2.1481
  622MOL0     H83956   1.868   9.656   8.251  1.2008  1.2477  1.4723
  622MOL0     H83957   1.700   9.772   8.138 -0.1387  1.4082  0.7842
  622MOL0     H83958   1.515   9.838   8.033 -2.0230  3.8347 -3.3402
  622MOL0     H83959   1.529   9.951   8.154  0.5329 -0.8878 -1.3630
  622MOL0     H83960   1.267   9.964   8.137 -0.5726  3.4645 -0.9880
  622MOL0     H83961   1.281   9.884   7.987  0.5860  0.5846 -0.5576
  622MOL0     H83962   1.399  10.140   8.079 -0.2828 -0.4290  0.8456
  622MOL0     H83963   1.256  10.119   7.989  1.2753  1.0658 -0.8674
  622MOL0     H83964   1.438  10.000   7.811 -3.3851 -0.0056  0.3666
  622MOL0     H83965   1.393  10.170   7.812  0.1014 -0.2125  0.6639
  622MOL0     H83966   1.803  10.175   7.900  0.9446 -1.8915 -0.6061
  622MOL0     H83967   1.412   9.627   8.436 -0.3749 -2.5704  0.1079
  622MOL0     H83968   1.457   9.538   8.626  0.2888  1.2672  3.5107
  622MOL0     H83969   1.604   9.431   8.615 -1.2672  0.6186 -1.9306
  622MOL0     H83970   1.628   9.576   8.689  0.3176  4.5554 -1.2624
  623MOL0     O83971   4.970   2.953   9.798 -0.1607  0.3103 -0.4881
  623MOL0     C83972   4.977   3.080   9.794  0.7080 -0.1510  0.7877
  623MOL0     O83973   4.875   3.161   9.761  0.5057 -0.8839  0.8937
  623MOL0     C83974   4.781   3.101   9.685 -0.3482 -0.2816  0.0836
  623MOL0     C83975   4.652   3.082   9.732  0.4053  0.2376  0.2071
  623MOL0     C83976   4.553   3.020   9.653  0.1199 -0.0239 -0.7510
  623MOL0     C83977   4.571   2.986   9.525 -0.6830 -0.3048 -0.7758
  623MOL0     O83978   4.467   2.935   9.454  0.5029 -0.0126  0.1732
  623MOL0     C83979   4.486   2.800   9.408  0.1897  0.6251 -0.4317
  623MOL0     C83980   4.387   2.768   9.290 -0.0823 -0.2048  0.1090
  623MOL0     C83981   4.364   2.886   9.194  0.1069 -0.0004  0.0148
  623MOL0     C83982   4.476   2.982   9.137 -0.3427 -0.2773  0.6274
  623MOL0     C83983   4.592   2.900   9.068  1.0252 -0.2820  0.0736
  623MOL0     C83984   4.721   2.977   9.029 -0.6841  0.0290  0.5510
  623MOL0     C83985   4.698   3.059   8.900  0.5226  0.5567 -0.2937
  623MOL0     C83986   4.824   3.093   8.822  0.1129  0.3601  0.8205
  623MOL0     N83987   4.954   3.090   8.896 -0.3042  0.7511  0.6854
  623MOL0     C83988   5.031   2.978   8.923 -0.6200  0.0439  0.5411
  623MOL0     C83989   5.156   3.021   8.953 -0.0709 -0.2791  0.5244
  623MOL0     C83990   5.264   2.960   9.029 -0.6139 -0.0939 -0.5523
  623MOL0     C83991   5.230   2.947   9.179  0.5592  0.6964 -0.3913
  623MOL0     C83992   5.231   3.077   9.249 -0.6336  0.0086 -0.4368
  623MOL0     C83993   5.181   3.067   9.387  0.1242 -0.6593 -0.9578
  623MOL0     O83994   5.242   2.958   9.456  0.4756  0.7289  0.6912
  623MOL0     C83995   5.369   2.969   9.510 -0.4437 -0.3192 -0.6559
  623MOL0     C83996   5.419   2.847   9.553 -0.5430 -0.1138  0.2534
  623MOL0     C83997   5.551   2.842   9.611 -0.4699  0.0784  1.1065
  623MOL0     C83998   5.632   2.957   9.618  0.2254  0.2385  0.8665
  623MOL0     C83999   5.765   2.955   9.682 -0.1424  0.4456  0.6626
  623MOL0     O84000   5.783   2.835   9.753 -0.0501  0.2170  0.2988
  623MOL0     C84001   5.898   2.826   9.822 -0.2309 -0.3210  0.5343
  623MOL0     C84002   6.012   2.772   9.775 -0.5443 -0.4592 -0.1253
  623MOL0     C84003   6.117   2.752   9.861 -0.5103  0.0916 -0.2584
  623MOL0     C84004   6.121   2.779   9.997 -0.2986 -0.1802 -0.2828
  623MOL0     O84005   6.231   2.760  10.077  0.1327  0.3263 -0.2509
  623MOL0     C84006   6.368   2.757  10.028 -0.5617  0.3401  0.6630
  623MOL0     C84007   6.431   2.901  10.003 -0.3528  0.0259  0.3147
  623MOL0     C84008   6.578   2.886   9.952  0.5866  0.3517 -0.3893
  623MOL0     C84009   6.622   3.023   9.890 -0.2219 -0.5393  0.2235
  623MOL0     C84010   6.750   3.027   9.818  1.2076  0.7273 -0.1948
  623MOL0     C84011   6.809   3.158   9.794  0.3200 -0.1983  0.2497
  623MOL0     C84012   6.846   3.233   9.927 -0.7646  0.0150 -0.0082
  623MOL0     C84013   6.886   3.378   9.907  0.4694  0.3649 -0.7395
  623MOL0    Cl84014   7.017   3.398   9.784  0.0481 -0.3002  0.1017
  623MOL0     C84015   6.005   2.841  10.041 -0.6646 -0.5057 -0.5099
  623MOL0     C84016   5.893   2.865   9.953 -0.0752  0.7760 -0.4719
  623MOL0     O84017   5.836   3.056   9.680 -0.4434 -0.0085 -0.3498
  623MOL0     C84018   5.577   3.077   9.573  0.0248 -0.4675  0.8093
  623MOL0     C84019   5.447   3.082   9.519  0.7985  0.6573 -1.0632
  623MOL0     N84020   5.158   3.147   8.909 -0.7324 -0.2291  0.3388
  623MOL0     N84021   5.039   3.188   8.869 -0.7097 -0.1898  0.5667
  623MOL0     C84022   4.698   3.007   9.476 -0.9035  0.8891 -0.3633
  623MOL0     C84023   4.803   3.068   9.551  0.4334  0.6327  0.3448
  623MOL0     C84024   5.108   3.138   9.835  1.3416 -1.4582  0.1225
  623MOL0     C84025   5.218   3.058   9.812 -0.4935  0.0725  0.4921
  623MOL0     C84026   5.341   3.101   9.861  0.7372 -0.1897  0.8415
  623MOL0     C84027   5.359   3.233   9.905  0.7581 -0.0061 -0.6267
  623MOL0     O84028   5.476   3.285   9.943 -0.9434  0.0328  0.7565
  623MOL0     C84029   5.529   3.216  10.054  0.0231  0.2505 -0.8606
  623MOL0     C84030   5.683   3.173  10.037 -0.3053  0.4768 -0.1157
  623MOL0     C84031   5.787   3.279  10.044  0.6286 -0.1749 -0.7471
  623MOL0     C84032   5.928   3.224  10.010  0.1629  0.4780 -0.1894
  623MOL0     C84033   6.024   3.319  10.069 -0.6524 -0.2419  0.1034
  623MOL0     C84034   6.098   3.394  10.130 -0.0823  0.5348  0.8295
  623MOL0     C84035   5.251   3.308   9.940  0.2046  0.2430 -0.2257
  623MOL0     C84036   5.117   3.266   9.906 -0.6839  0.7860  1.3736
  623MOL0     C84037   4.999   3.335   9.958 -0.3816  0.2286 -0.7955
  623MOL0     H84038   4.626   3.114   9.832  0.8926 -2.3187  1.2333
  623MOL0     H84039   4.454   3.015   9.696  0.2628 -2.5411 -0.5873
  623MOL0     H84040   4.586   2.778   9.367 -0.9638  0.7769 -3.6405
  623MOL0     H84041   4.465   2.727   9.486 -1.0181 -0.7165 -1.9409
  623MOL0     H84042   4.290   2.737   9.329 -1.2429  0.5245 -1.9959
  623MOL0     H84043   4.430   2.687   9.229 -1.1854 -1.8573  1.4376
  623MOL0     H84044   4.288   2.947   9.243 -0.9740 -1.3356  0.0700
  623MOL0     H84045   4.312   2.839   9.110  1.8413 -1.4738 -0.2979
  623MOL0     H84046   4.435   3.051   9.062 -1.4439 -1.8883 -0.3060
  623MOL0     H84047   4.516   3.047   9.215  0.0382  1.0826 -0.6476
  623MOL0     H84048   4.613   2.819   9.138  0.6386 -0.6044 -0.1812
  623MOL0     H84049   4.560   2.848   8.978 -1.6013  0.9097  0.2091
  623MOL0     H84050   4.752   3.045   9.109 -1.3726  1.0953 -0.0554
  623MOL0     H84051   4.799   2.910   8.995 -2.2802 -0.1431 -3.3025
  623MOL0     H84052   4.650   3.149   8.939 -1.7609 -1.0711  0.8960
  623MOL0     H84053   4.629   3.014   8.829 -0.5084 -0.2053  1.1399
  623MOL0     H84054   4.831   3.017   8.744 -1.8667 -0.4136  1.3292
  623MOL0     H84055   4.825   3.190   8.772  0.7678 -0.9332 -1.8558
  623MOL0     H84056   4.999   2.877   8.949  0.4957 -0.0267  1.7310
  623MOL0     H84057   5.298   2.865   8.987 -1.2714 -1.4882  1.8602
  623MOL0     H84058   5.350   3.028   9.033 -1.5669  1.1374 -0.4831
  623MOL0     H84059   5.136   2.894   9.197  1.3673 -1.1246 -1.3380
  623MOL0     H84060   5.307   2.883   9.222  0.3615  1.0820  0.5790
  623MOL0     H84061   5.162   3.152   9.207 -1.4764  0.2652  1.3242
  623MOL0     H84062   5.333   3.115   9.242  0.1180 -2.0500 -1.6240
  623MOL0     H84063   5.073   3.049   9.392  0.1445 -0.4633  0.4926
  623MOL0     H84064   5.201   3.160   9.440  4.8095 -1.4863 -0.8272
  623MOL0     H84065   5.348   2.765   9.547 -2.1598  1.2843 -0.4922
  623MOL0     H84066   5.579   2.750   9.662 -4.5288 -0.4332  2.8316
  623MOL0     H84067   6.013   2.742   9.671 -2.0366  3.2479 -1.4021
  623MOL0     H84068   6.202   2.704   9.812  1.0588  1.4812  1.0024
  623MOL0     H84069   6.426   2.712  10.110 -1.2393  0.3125  1.1330
  623MOL0     H84070   6.381   2.691   9.943 -2.9179  1.2354 -0.4751
  623MOL0     H84071   6.366   2.955   9.933  0.2503  4.0136  2.5255
  623MOL0     H84072   6.425   2.951  10.100 -1.9078 -2.5248  1.6218
  623MOL0     H84073   6.638   2.843  10.032 -2.0224  0.7233  1.9075
  623MOL0     H84074   6.578   2.809   9.873 -0.0672 -2.2580  1.9954
  623MOL0     H84075   6.619   3.098   9.969  1.6830  1.2791 -1.3020
  623MOL0     H84076   6.551   3.053   9.812  0.2092 -1.3573 -0.5004
  623MOL0     H84077   6.738   2.977   9.722 -2.3605 -0.6344  0.8059
  623MOL0     H84078   6.818   2.965   9.876  0.2247 -0.5204 -0.3403
  623MOL0     H84079   6.902   3.146   9.738  0.8007  0.3420  0.9157
  623MOL0     H84080   6.736   3.214   9.735  0.6364  4.4459  3.6745
  623MOL0     H84081   6.936   3.187   9.969  0.1413 -0.9434 -2.7953
  623MOL0     H84082   6.768   3.242  10.003  0.7136  3.9449  1.3199
  623MOL0     H84083   6.801   3.433   9.866 -0.1015  0.1720  0.1667
  623MOL0     H84084   6.911   3.429  10.000  0.8594 -0.9491 -0.1047
  623MOL0     H84085   5.997   2.855  10.148  0.1312 -4.8823  0.3210
  623MOL0     H84086   5.811   2.911  10.005  0.1527  1.0842 -0.3836
  623MOL0     H84087   5.625   3.175   9.571  0.8715 -0.8491  1.8022
  623MOL0     H84088   5.406   3.178   9.488  0.7802  0.4862 -1.5851
  623MOL0     H84089   4.720   2.976   9.375  0.6562  0.6507  0.0291
  623MOL0     H84090   4.900   3.092   9.509  0.2679 -1.2982 -1.2813
  623MOL0     H84091   5.210   2.966   9.755 -0.4572 -0.2099  0.9434
  623MOL0     H84092   5.423   3.034   9.835 -0.2189 -1.7171  1.6547
  623MOL0     H84093   5.475   3.123  10.074 -0.9605  1.3042  1.9071
  623MOL0     H84094   5.513   3.287  10.136 -2.6906  2.0016 -2.7794
  623MOL0     H84095   5.692   3.114   9.945 -0.5015 -0.7707  0.6462
  623MOL0     H84096   5.721   3.110  10.118 -0.7443  1.9193  1.2690
  623MOL0     H84097   5.774   3.324  10.143 -1.9445  1.3599 -1.6960
  623MOL0     H84098   5.756   3.357   9.974  1.7545  1.9127  0.9582
  623MOL0     H84099   5.946   3.127  10.057 -0.1600  2.5087  4.7370
  623MOL0     H84100   5.932   3.212   9.902 -0.4416 -2.1663  0.0023
  623MOL0     H84101   6.150   3.473  10.181  1.4018 -0.3994  0.8134
  623MOL0     H84102   5.273   3.400   9.992  0.9369  1.5640 -2.7038
  623MOL0     H84103   4.934   3.260  10.006 -1.3901  3.3301  3.2777
  623MOL0     H84104   5.026   3.404  10.039 -3.1664  1.6952 -0.9994
  623MOL0     H84105   4.952   3.386   9.874 -1.5391 -0.9271 -0.8947
  624MOL0     O84106   9.755   2.153   2.597  0.2069  0.1024 -0.2763
  624MOL0     C84107   9.663   2.206   2.529  0.9333  0.3276 -0.2413
  624MOL0     O84108   9.651   2.188   2.398  0.3169 -0.1923  0.3556
  624MOL0     C84109   9.730   2.087   2.339 -0.3962 -0.3565  0.8828
  624MOL0     C84110   9.866   2.109   2.314  0.4260  0.0076  0.0075
  624MOL0     C84111   9.942   2.012   2.239  0.0181 -0.5536  0.4945
  624MOL0     C84112   9.892   1.889   2.188  0.1631 -0.1703  0.7020
  624MOL0     O84113   9.951   1.806   2.095  0.1894 -0.0180 -0.1834
  624MOL0     C84114  10.096   1.784   2.121  0.8413 -0.0882 -0.1210
  624MOL0     C84115  10.138   1.661   2.047 -0.1420  0.0132 -0.6291
  624MOL0     C84116  10.271   1.697   1.975  0.7672  0.2273  0.0103
  624MOL0     C84117  10.326   1.569   1.912  0.0543  0.5099 -0.4596
  624MOL0     C84118  10.455   1.594   1.822 -0.5895  0.2068  0.0710
  624MOL0     C84119  10.522   1.461   1.791 -0.9072 -0.1093 -0.1800
  624MOL0     C84120  10.660   1.474   1.718  0.5449 -0.1224 -0.2497
  624MOL0     C84121  10.682   1.345   1.635  0.1700  0.1539  0.6956
  624MOL0     N84122  10.611   1.345   1.510 -0.8385  0.4249 -1.0598
  624MOL0     C84123  10.562   1.226   1.458 -0.6048  0.7846  0.3565
  624MOL0     C84124  10.494   1.264   1.351  1.3537  0.5752 -0.5378
  624MOL0     C84125  10.403   1.170   1.271 -0.2206 -0.9948 -0.5934
  624MOL0     C84126  10.333   1.059   1.346  0.5016  0.3101  0.5134
  624MOL0     C84127  10.287   0.939   1.249  0.0045  0.3985 -1.1615
  624MOL0     C84128  10.188   0.979   1.137 -0.5432  0.2050 -0.3607
  624MOL0     O84129  10.181   0.878   1.040 -0.2179 -0.0186  1.3410
  624MOL0     C84130  10.275   0.888   0.951 -0.1076  0.3488 -0.6047
  624MOL0     C84131  10.314   1.011   0.887  0.5012  0.5427  0.3303
  624MOL0     C84132  10.426   1.021   0.804 -0.2087  0.8150 -0.1951
  624MOL0     C84133  10.500   0.907   0.769  0.1792 -0.7203  0.1396
  624MOL0     C84134  10.627   0.920   0.702  0.3478 -0.4335  0.7558
  624MOL0     O84135  10.710   0.815   0.705 -0.9406 -0.0152 -0.3244
  624MOL0     C84136  10.819   0.809   0.622  0.4831 -0.5614  0.1224
  624MOL0     C84137  10.818   0.748   0.501  0.7195 -0.8024  0.1741
  624MOL0     C84138  10.934   0.745   0.421  0.2744 -0.5498  0.0123
  624MOL0     C84139  11.059   0.793   0.476  0.3989 -0.5270 -0.7620
  624MOL0     O84140  11.176   0.787   0.403 -0.8354  0.3702  0.2283
  624MOL0     C84141  11.239   0.914   0.398  0.1388 -0.0628 -0.5039
  624MOL0     C84142  11.375   0.899   0.324 -0.4625  0.3200 -0.5638
  624MOL0     C84143  11.365   0.889   0.173  0.5016  0.5961 -0.1376
  624MOL0     C84144  11.487   0.943   0.107  0.4522  0.0919 -0.0629
  624MOL0     C84145  11.489   0.939  -0.052  0.4266 -0.5172 -1.2985
  624MOL0     C84146  11.408   1.051  -0.116 -0.2182 -0.2391  0.6880
  624MOL0     C84147  11.392   1.040  -0.269  0.0357 -0.1542 -0.2588
  624MOL0     C84148  11.304   0.919  -0.319 -0.4655  0.0169 -0.3092
  624MOL0    Cl84149  11.138   0.925  -0.267  0.1134 -0.3861  0.2130
  624MOL0     C84150  11.059   0.838   0.606 -0.9687 -0.9344  0.6593
  624MOL0     C84151  10.940   0.850   0.677 -0.4043 -0.0705  0.1183
  624MOL0     O84152  10.646   1.024   0.631  0.3682  0.9164 -0.5408
  624MOL0     C84153  10.454   0.787   0.807  0.3138  0.9785  0.1548
  624MOL0     C84154  10.349   0.779   0.907  0.0847  0.1580 -0.7620
  624MOL0     N84155  10.490   1.406   1.356 -0.1087  0.4384  0.3003
  624MOL0     N84156  10.570   1.453   1.438  0.4766  0.6916 -0.2422
  624MOL0     C84157   9.753   1.874   2.222  0.3212  0.1069 -0.5865
  624MOL0     C84158   9.668   1.971   2.287 -0.1782 -0.9440 -0.3793
  624MOL0     C84159   9.552   2.287   2.597  0.6408 -0.3659  0.2505
  624MOL0     C84160   9.526   2.272   2.731  0.2001  0.2621 -0.0856
  624MOL0     C84161   9.413   2.336   2.790 -0.3473 -0.0977 -0.5471
  624MOL0     C84162   9.336   2.428   2.726  0.7717  0.5472  0.6128
  624MOL0     O84163   9.226   2.469   2.802 -0.2324 -0.0156 -0.9663
  624MOL0     C84164   9.121   2.551   2.756 -0.6772 -0.4321 -0.3483
  624MOL0     C84165   9.071   2.633   2.868  0.7413 -0.0664 -0.4310
  624MOL0     C84166   9.149   2.764   2.902 -0.4477  0.4415  0.1396
  624MOL0     C84167   9.223   2.738   3.025 -0.6697  1.3210  0.5147
  624MOL0     C84168   9.280   2.867   3.073 -0.2385  0.1840 -0.4401
  624MOL0     C84169   9.343   2.959   3.110 -0.3200 -0.4694  0.2287
  624MOL0     C84170   9.370   2.450   2.595  0.5608  0.3459 -1.1295
  624MOL0     C84171   9.480   2.388   2.529 -0.0004  0.0681  0.1899
  624MOL0     C84172   9.508   2.431   2.384  0.5669 -1.2056 -0.3488
  624MOL0     H84173   9.918   2.202   2.336  1.1250  0.4075 -2.8470
  624MOL0     H84174  10.046   2.025   2.208  0.9599 -3.6828  1.9113
  624MOL0     H84175  10.158   1.869   2.094  1.4999  0.2463  2.2576
  624MOL0     H84176  10.123   1.762   2.224  3.5181  2.0390 -0.2795
  624MOL0     H84177  10.066   1.638   1.968  2.7785  1.9575 -4.1469
  624MOL0     H84178  10.158   1.582   2.120  1.8183  0.4059 -0.6732
  624MOL0     H84179  10.337   1.734   2.054 -0.0637 -0.6316  1.1514
  624MOL0     H84180  10.247   1.776   1.904  2.3987 -0.8087 -1.7737
  624MOL0     H84181  10.349   1.492   1.986 -0.2823  1.7756  1.0288
  624MOL0     H84182  10.243   1.526   1.855  1.4381 -2.2816 -0.5464
  624MOL0     H84183  10.423   1.646   1.731  0.2380  1.9337  0.7087
  624MOL0     H84184  10.529   1.654   1.877  0.3524  1.9967 -2.8832
  624MOL0     H84185  10.538   1.412   1.887 -2.6510 -3.0952 -1.2646
  624MOL0     H84186  10.455   1.392   1.739 -1.9088  1.4760 -1.0852
  624MOL0     H84187  10.744   1.469   1.789 -1.2094 -1.3890  1.8510
  624MOL0     H84188  10.663   1.565   1.657  1.5834 -0.1224 -0.2245
  624MOL0     H84189  10.787   1.347   1.605 -0.3149  0.9816 -1.0246
  624MOL0     H84190  10.668   1.253   1.693  1.9480  0.7801  2.2255
  624MOL0     H84191  10.569   1.125   1.498 -2.6359 -1.3507 -3.9546
  624MOL0     H84192  10.329   1.210   1.201 -2.0393 -2.3553  0.4794
  624MOL0     H84193  10.469   1.111   1.206 -3.0669 -2.0714 -2.7112
  624MOL0     H84194  10.395   1.005   1.418 -1.7635 -3.8203 -0.2817
  624MOL0     H84195  10.241   1.094   1.395 -0.7109 -0.0976 -1.3558
  624MOL0     H84196  10.235   0.871   1.316  0.5995  2.3850  1.4654
  624MOL0     H84197  10.379   0.897   1.207 -0.3379 -1.1709 -0.3855
  624MOL0     H84198  10.213   1.076   1.093  0.0566  1.1262  1.8669
  624MOL0     H84199  10.089   0.978   1.183 -0.9011 -4.0809 -0.7673
  624MOL0     H84200  10.253   1.101   0.897 -1.6200 -0.5881 -1.4763
  624MOL0     H84201  10.466   1.117   0.772 -1.1266  0.1929 -3.5379
  624MOL0     H84202  10.725   0.705   0.465 -0.3197 -0.0901  1.8625
  624MOL0     H84203  10.935   0.705   0.320  3.5756  0.5898 -0.5335
  624MOL0     H84204  11.173   0.987   0.351 -0.3878  0.3874  0.8879
  624MOL0     H84205  11.261   0.947   0.500  1.8929 -1.2565 -0.4358
  624MOL0     H84206  11.435   0.989   0.340 -1.7802  1.7753 -3.0927
  624MOL0     H84207  11.436   0.814   0.355 -1.3450 -0.9453 -2.1396
  624MOL0     H84208  11.334   0.789   0.143 -0.6460 -0.2976  3.5085
  624MOL0     H84209  11.287   0.957   0.139  1.4602  0.9831 -1.6955
  624MOL0     H84210  11.568   0.882   0.148 -0.7247  0.4564  3.1065
  624MOL0     H84211  11.492   1.050   0.130  0.7134  0.1726 -0.4862
  624MOL0     H84212  11.453   0.838  -0.076  3.1539 -2.2878  1.3387
  624MOL0     H84213  11.588   0.938  -0.098  0.0942 -3.8827 -2.2268
  624MOL0     H84214  11.303   1.039  -0.087 -0.4956 -0.3658 -0.3224
  624MOL0     H84215  11.452   1.144  -0.080 -1.1080 -0.2749  1.9393
  624MOL0     H84216  11.493   1.033  -0.310  0.5645  0.8219  0.8424
  624MOL0     H84217  11.345   1.131  -0.308 -0.6784  0.0015  0.9067
  624MOL0     H84218  11.308   0.918  -0.428 -1.4165 -1.1613 -0.3513
  624MOL0     H84219  11.340   0.820  -0.289  0.8967  0.6864  0.3875
  624MOL0     H84220  11.150   0.885   0.643  0.9662 -1.3668 -3.0454
  624MOL0     H84221  10.941   0.894   0.776 -0.2217 -0.6346  0.3759
  624MOL0     H84222  10.500   0.692   0.782 -0.5450  0.5997 -0.0251
  624MOL0     H84223  10.310   0.688   0.951  2.0465 -0.0473  0.6828
  624MOL0     H84224   9.703   1.794   2.167 -1.2530  2.0476 -2.1373
  624MOL0     H84225   9.560   1.960   2.288 -0.2764 -0.0586 -0.3029
  624MOL0     H84226   9.596   2.215   2.792  1.7357  1.0241 -1.0835
  624MOL0     H84227   9.401   2.310   2.895  1.7690  0.5898 -0.0886
  624MOL0     H84228   9.038   2.492   2.716 -0.6043 -0.9792  0.2903
  624MOL0     H84229   9.154   2.616   2.674  3.2659  1.6483  2.5815
  624MOL0     H84230   9.048   2.570   2.954  1.7059 -0.9989 -0.8264
  624MOL0     H84231   8.976   2.675   2.835 -0.6966 -0.1042  3.2082
  624MOL0     H84232   9.078   2.844   2.924  1.1197  1.6762  1.0016
  624MOL0     H84233   9.199   2.788   2.808 -0.5961 -2.6466 -0.8091
  624MOL0     H84234   9.152   2.706   3.101 -1.9878 -0.6592 -1.4096
  624MOL0     H84235   9.304   2.664   3.023 -1.8749 -0.1562  2.5567
  624MOL0     H84236   9.398   3.037   3.160  0.2985 -0.9827  0.3579
  624MOL0     H84237   9.305   2.518   2.541  0.6228  1.9308  0.6995
  624MOL0     H84238   9.456   2.363   2.317 -1.5687 -2.2696  2.2151
  624MOL0     H84239   9.466   2.530   2.363  0.5691 -0.9518  0.7886
  624MOL0     H84240   9.616   2.437   2.368  0.6044 -1.5093 -0.2229
  625MOL0     O84241   8.150   3.609   8.611 -0.9067  0.0105 -0.9081
  625MOL0     C84242   8.226   3.711   8.640 -0.2338 -0.2411  0.2403
  625MOL0     O84243   8.362   3.700   8.680  0.3708 -0.2571  0.4389
  625MOL0     C84244   8.428   3.581   8.679 -0.7145  0.0794 -0.8363
  625MOL0     C84245   8.395   3.460   8.731  0.6969  0.0028  0.4729
  625MOL0     C84246   8.486   3.355   8.738  0.2876 -0.4002 -0.2373
  625MOL0     C84247   8.614   3.355   8.696  0.1549 -0.1679 -0.0534
  625MOL0     O84248   8.686   3.241   8.696 -0.0873 -0.8375 -0.5571
  625MOL0     C84249   8.801   3.221   8.611  0.3675 -1.2251  0.4891
  625MOL0     C84250   8.833   3.074   8.604 -0.2508  0.3717 -0.0113
  625MOL0     C84251   8.934   3.037   8.491 -0.3771  0.2354 -0.0375
  625MOL0     C84252   9.002   2.899   8.525 -0.5116  0.4544 -0.4728
  625MOL0     C84253   9.063   2.828   8.402 -0.1227 -0.4941 -1.2460
  625MOL0     C84254   8.963   2.785   8.292  0.5454 -0.3890 -0.4974
  625MOL0     C84255   8.882   2.667   8.322  0.2713 -0.2884 -0.9183
  625MOL0     C84256   8.953   2.528   8.303  0.5093 -0.1300  0.2430
  625MOL0     N84257   8.855   2.423   8.322  0.4492  0.2756  0.0115
  625MOL0     C84258   8.870   2.295   8.370 -0.4231 -0.8572 -0.3475
  625MOL0     C84259   8.744   2.240   8.357 -0.7051  0.0980  0.0186
  625MOL0     C84260   8.699   2.106   8.409  0.1291  0.5139 -0.4433
  625MOL0     C84261   8.764   1.993   8.325 -0.0002 -0.3440 -0.9964
  625MOL0     C84262   8.909   1.945   8.358  0.1223 -0.9348 -0.7914
  625MOL0     C84263   8.917   1.908   8.502  0.0082  0.8056  0.2444
  625MOL0     O84264   8.966   2.027   8.569  0.2178  0.2871 -0.4608
  625MOL0     C84265   9.093   2.055   8.573  0.0304 -1.7256 -0.3494
  625MOL0     C84266   9.134   2.149   8.665  0.5100 -0.5130 -0.6383
  625MOL0     C84267   9.268   2.186   8.685 -0.2471  0.6808 -0.5637
  625MOL0     C84268   9.368   2.117   8.613 -0.6529 -1.2074 -0.3242
  625MOL0     C84269   9.514   2.136   8.642 -0.3568 -0.2944  0.6028
  625MOL0     O84270   9.558   2.236   8.723  0.8827 -0.2523  0.7644
  625MOL0     C84271   9.685   2.260   8.770 -0.1577 -0.6260  0.0977
  625MOL0     C84272   9.806   2.205   8.719  0.6637 -1.1555  0.0926
  625MOL0     C84273   9.928   2.242   8.769  0.0222  0.3030  0.3709
  625MOL0     C84274   9.933   2.335   8.871 -0.1379 -0.0694  0.0168
  625MOL0     O84275  10.062   2.372   8.919  0.4020  0.1211  0.3896
  625MOL0     C84276  10.114   2.258   8.984  0.2299  0.0922 -0.2658
  625MOL0     C84277  10.261   2.291   9.025  0.1297  0.6266  0.2934
  625MOL0     C84278  10.347   2.285   8.905  0.1427 -0.4162  0.1384
  625MOL0     C84279  10.489   2.329   8.932 -0.2301 -0.2054 -0.3372
  625MOL0     C84280  10.593   2.228   8.978 -0.9743  0.0721  0.4121
  625MOL0     C84281  10.722   2.307   9.019  0.8889 -0.2237 -0.2888
  625MOL0     C84282  10.718   2.365   9.150  0.6995 -0.4513 -0.4299
  625MOL0     C84283  10.843   2.449   9.197 -0.2287 -0.0466 -0.0440
  625MOL0    Cl84284  10.843   2.620   9.140  0.2360 -0.8135 -0.0325
  625MOL0     C84285   9.817   2.401   8.921 -0.8523 -0.6854  0.8701
  625MOL0     C84286   9.693   2.368   8.862  0.4640 -0.1945 -0.2368
  625MOL0     O84287   9.592   2.055   8.593  0.6797  0.1497 -0.1048
  625MOL0     C84288   9.328   2.008   8.531 -0.0401  1.1434  0.6967
  625MOL0     C84289   9.195   1.991   8.505 -0.4540 -0.2010  0.0728
  625MOL0     N84290   8.661   2.330   8.287 -0.2213  0.5641 -0.4891
  625MOL0     N84291   8.735   2.438   8.267  0.2237  0.3961 -0.1072
  625MOL0     C84292   8.648   3.481   8.648 -0.3142 -1.3760  0.5031
  625MOL0     C84293   8.558   3.586   8.641  0.5242 -1.2014 -0.3400
  625MOL0     C84294   8.161   3.847   8.646  0.6194  0.8231  0.6000
  625MOL0     C84295   8.020   3.848   8.630  0.2225  0.2069 -0.0175
  625MOL0     C84296   7.947   3.959   8.661 -0.5789  0.5267 -0.3453
  625MOL0     C84297   8.010   4.078   8.704 -0.2293 -0.4124  0.6871
  625MOL0     O84298   7.939   4.186   8.727 -0.4135  0.4874  0.1556
  625MOL0     C84299   7.891   4.214   8.860 -0.3427 -0.2389  0.3610
  625MOL0     C84300   7.752   4.154   8.881  0.7349  0.2317 -0.9854
  625MOL0     C84301   7.674   4.206   9.005 -0.1046 -0.2407 -0.2762
  625MOL0     C84302   7.557   4.122   9.055  0.5274  0.4573  0.0657
  625MOL0     C84303   7.599   3.989   9.078 -0.2567  0.2279  0.0427
  625MOL0     C84304   7.623   3.873   9.065 -0.1333 -0.0133  0.5061
  625MOL0     C84305   8.145   4.078   8.715  0.4413 -0.1764 -0.5196
  625MOL0     C84306   8.225   3.968   8.690  0.3506  0.1572 -0.3769
  625MOL0     C84307   8.365   3.989   8.690 -0.4184 -0.0441 -0.2887
  625MOL0     H84308   8.295   3.449   8.771 -0.1503 -0.3833 -1.6157
  625MOL0     H84309   8.445   3.262   8.778 -0.8426  0.0455 -0.3023
  625MOL0     H84310   8.787   3.263   8.511  7.6344 -2.5459 -1.6542
  625MOL0     H84311   8.894   3.265   8.648  0.5122 -1.6957  0.6887
  625MOL0     H84312   8.743   3.013   8.591  0.2857 -1.6706  4.2329
  625MOL0     H84313   8.873   3.056   8.704 -1.1591 -0.5397  0.2140
  625MOL0     H84314   9.017   3.108   8.484 -0.6919  0.4569 -4.8681
  625MOL0     H84315   8.873   3.045   8.401 -1.4747 -1.2459  0.5406
  625MOL0     H84316   9.078   2.913   8.602  0.5009 -1.5827 -1.0144
  625MOL0     H84317   8.935   2.834   8.583  0.1953  0.5003  0.4083
  625MOL0     H84318   9.133   2.904   8.366 -0.5711 -0.1793 -1.4604
  625MOL0     H84319   9.122   2.748   8.446  1.3758  0.9389 -0.5390
  625MOL0     H84320   8.901   2.875   8.285 -0.3137 -0.8696  0.5609
  625MOL0     H84321   9.013   2.778   8.195  2.2056 -0.7333  0.3604
  625MOL0     H84322   8.804   2.676   8.245 -1.1562  8.8152  0.3920
  625MOL0     H84323   8.832   2.682   8.419  1.2262  2.1315 -0.7077
  625MOL0     H84324   8.983   2.530   8.198 -0.0788  1.5777  0.0797
  625MOL0     H84325   9.042   2.521   8.367  1.0589  0.0323 -0.4896
  625MOL0     H84326   8.958   2.239   8.399 -0.0210 -0.5366 -0.9048
  625MOL0     H84327   8.723   2.109   8.515  0.9775  3.5157 -0.6073
  625MOL0     H84328   8.590   2.097   8.405  0.2908 -4.3459  0.2939
  625MOL0     H84329   8.690   1.913   8.328 -1.0501  0.5061 -2.8156
  625MOL0     H84330   8.764   2.024   8.220 -0.8770  2.3104 -0.2833
  625MOL0     H84331   8.976   2.028   8.333 -2.4617  0.5137 -3.6329
  625MOL0     H84332   8.932   1.857   8.298  0.4534 -1.1942 -0.2909
  625MOL0     H84333   8.987   1.826   8.519 -1.6648 -0.1850  2.8164
  625MOL0     H84334   8.825   1.866   8.543  2.3516 -3.2658  1.8885
  625MOL0     H84335   9.059   2.196   8.727  0.3775  0.6206 -1.6059
  625MOL0     H84336   9.290   2.254   8.767  4.0501 -1.0159 -0.0824
  625MOL0     H84337   9.801   2.127   8.643  2.2983 -0.2862 -0.9562
  625MOL0     H84338  10.014   2.196   8.722 -0.2420  2.9763 -3.1322
  625MOL0     H84339  10.056   2.232   9.073 -1.2006 -2.8253 -1.8824
  625MOL0     H84340  10.127   2.168   8.922 -0.3308 -1.1957  1.4017
  625MOL0     H84341  10.263   2.394   9.063 -0.3049 -0.1099  2.5005
  625MOL0     H84342  10.295   2.228   9.107 -0.8564 -0.3615 -0.0299
  625MOL0     H84343  10.352   2.180   8.874  0.1411 -0.5314  0.5287
  625MOL0     H84344  10.301   2.351   8.831  0.2723 -1.2633 -0.7239
  625MOL0     H84345  10.472   2.406   9.008 -2.4715 -1.1081  0.1486
  625MOL0     H84346  10.534   2.368   8.840 -2.5421  2.6151 -0.4222
  625MOL0     H84347  10.626   2.158   8.901 -0.1545 -1.3493  2.0103
  625MOL0     H84348  10.551   2.167   9.058 -0.5754 -0.2655  0.3677
  625MOL0     H84349  10.805   2.236   9.023  0.8308 -0.2672  0.1821
  625MOL0     H84350  10.745   2.387   8.948 -1.0815  2.2788  1.7077
  625MOL0     H84351  10.700   2.286   9.224  0.5444 -0.3812 -0.3909
  625MOL0     H84352  10.626   2.420   9.169  1.9465  0.6343  3.1351
  625MOL0     H84353  10.857   2.443   9.306  1.6030 -1.2456 -0.2909
  625MOL0     H84354  10.928   2.395   9.155  0.4598 -0.3043  1.5954
  625MOL0     H84355   9.821   2.471   9.003 -0.2454 -0.3263  0.5456
  625MOL0     H84356   9.609   2.435   8.877  0.4847  0.2702 -1.9934
  625MOL0     H84357   9.401   1.939   8.491 -0.7139  1.1641 -0.6301
  625MOL0     H84358   9.163   1.913   8.436 -2.3616 -0.1198  0.8089
  625MOL0     H84359   8.753   3.500   8.626 -0.6905 -0.2718 -0.4313
  625MOL0     H84360   8.598   3.679   8.603 -4.6587  2.1842  1.4549
  625MOL0     H84361   7.966   3.759   8.598  1.6180 -2.0115  3.2254
  625MOL0     H84362   7.840   3.960   8.647 -0.4419  3.2063 -2.1131
  625MOL0     H84363   7.883   4.321   8.881 -4.0440 -0.1615 -0.8542
  625MOL0     H84364   7.957   4.165   8.932 -0.7719  0.7260  1.4525
  625MOL0     H84365   7.766   4.046   8.885  0.3625  0.0476 -3.2163
  625MOL0     H84366   7.698   4.178   8.789  0.1449  0.9528 -0.4643
  625MOL0     H84367   7.635   4.307   8.989 -1.8002 -0.4708  1.9793
  625MOL0     H84368   7.745   4.214   9.088 -1.4785  0.2804  0.8948
  625MOL0     H84369   7.509   4.165   9.144 -1.5951 -0.3870 -0.5974
  625MOL0     H84370   7.487   4.107   8.972  0.9228 -1.8592  0.1015
  625MOL0     H84371   7.657   3.774   9.045  0.8093  0.6516 -1.3692
  625MOL0     H84372   8.198   4.170   8.736  2.2796 -1.0957 -0.8765
  625MOL0     H84373   8.421   3.937   8.612  1.8120  3.6557 -1.4396
  625MOL0     H84374   8.381   4.093   8.658  0.5240 -0.0982 -0.0274
  625MOL0     H84375   8.414   3.970   8.786 -0.9554 -2.5267 -0.4522
  626MOL0     O84376  11.249   7.923   0.330 -0.4249  0.0901  0.1547
  626MOL0     C84377  11.169   7.897   0.239 -0.3843  0.3447 -0.3236
  626MOL0     O84378  11.187   7.790   0.151 -0.0089 -0.3813  0.1919
  626MOL0     C84379  11.306   7.758   0.088 -0.7306 -0.0208  0.2434
  626MOL0     C84380  11.303   7.661  -0.013 -0.6004  0.8142 -0.4952
  626MOL0     C84381  11.426   7.611  -0.063  0.3695 -0.0396 -0.1381
  626MOL0     C84382  11.555   7.663  -0.023  0.0724  0.3717  0.7897
  626MOL0     O84383  11.680   7.613  -0.060 -0.0040 -0.1865  0.1971
  626MOL0     C84384  11.702   7.626  -0.209 -0.2691 -0.0216  0.7899
  626MOL0     C84385  11.849   7.609  -0.264  0.4350  0.3152  0.7049
  626MOL0     C84386  11.888   7.468  -0.248  0.6325 -0.4045  0.3701
  626MOL0     C84387  11.913   7.429  -0.099 -0.1119 -0.5550 -0.6258
  626MOL0     C84388  11.993   7.297  -0.083 -1.0414  0.2149 -0.0325
  626MOL0     C84389  12.045   7.273   0.064 -0.1519 -0.3444  0.6959
  626MOL0     C84390  11.926   7.287   0.166  0.0987 -0.3553  0.6399
  626MOL0     C84391  11.968   7.245   0.303 -0.2673 -0.7085  1.6875
  626MOL0     N84392  12.055   7.343   0.374 -0.0071 -0.7199  0.4168
  626MOL0     C84393  12.018   7.464   0.433 -0.6895  0.2728  0.2229
  626MOL0     C84394  12.128   7.514   0.492  0.7634  0.5121  0.8866
  626MOL0     C84395  12.125   7.641   0.571  0.1387 -0.9568 -0.0195
  626MOL0     C84396  12.053   7.637   0.708  0.0421  0.4263  0.3181
  626MOL0     C84397  12.164   7.583   0.815  0.1689 -0.0519  0.0999
  626MOL0     C84398  12.242   7.457   0.782  0.1774 -0.1671 -0.5909
  626MOL0     O84399  12.302   7.403   0.906  0.0474  0.1430 -0.8414
  626MOL0     C84400  12.386   7.292   0.894  0.9495  0.2620 -0.8731
  626MOL0     C84401  12.422   7.229   0.774  0.2825 -0.5178  0.2621
  626MOL0     C84402  12.494   7.114   0.776  0.5681 -0.5435  0.5134
  626MOL0     C84403  12.529   7.054   0.903 -0.3426  0.1668  0.5162
  626MOL0     C84404  12.610   6.927   0.906 -0.2320 -0.8292  1.2345
  626MOL0     O84405  12.649   6.882   1.030  0.4620  0.3593  0.5629
  626MOL0     C84406  12.738   6.776   1.048  0.6049 -0.3791  0.2927
  626MOL0     C84407  12.719   6.645   1.003 -0.9355  0.4299 -0.5600
  626MOL0     C84408  12.815   6.542   1.021 -0.0572 -0.0857  0.5046
  626MOL0     C84409  12.937   6.572   1.079  0.1239  0.0897  0.0814
  626MOL0     O84410  13.031   6.466   1.085  0.6745 -0.2667 -0.4686
  626MOL0     C84411  13.044   6.427   1.224 -0.4384  0.2525  0.4725
  626MOL0     C84412  13.136   6.304   1.236 -0.5353  1.0378 -0.3661
  626MOL0     C84413  13.278   6.341   1.194  0.8929 -0.0634  0.6991
  626MOL0     C84414  13.360   6.219   1.168  0.5343  0.9373  0.3856
  626MOL0     C84415  13.476   6.239   1.076  0.1262 -0.8950 -0.1129
  626MOL0     C84416  13.571   6.125   1.081 -0.1095  0.1742  0.2549
  626MOL0     C84417  13.688   6.148   0.983 -0.3427 -0.3220  0.6498
  626MOL0     C84418  13.648   6.189   0.839 -0.5339  0.9472  0.5095
  626MOL0    Cl84419  13.773   6.152   0.722 -0.3185 -0.0961  0.1156
  626MOL0     C84420  12.956   6.707   1.130 -0.4698 -0.4019  0.2095
  626MOL0     C84421  12.859   6.807   1.116 -0.0382  0.2733 -0.6959
  626MOL0     O84422  12.648   6.887   0.792 -0.2764 -0.3316 -0.1447
  626MOL0     C84423  12.506   7.126   1.018  0.6543 -0.6767 -0.0271
  626MOL0     C84424  12.440   7.241   1.019  0.4437 -0.2787  0.9976
  626MOL0     N84425  12.227   7.434   0.453 -0.1301  0.4276  0.8470
  626MOL0     N84426  12.192   7.326   0.386  0.7447 -0.5310  0.9289
  626MOL0     C84427  11.553   7.765   0.074  0.2606 -0.3192  0.4623
  626MOL0     C84428  11.429   7.812   0.123 -0.5064  0.5395 -0.4845
  626MOL0     C84429  11.046   7.978   0.226 -0.8732  0.9175 -0.9285
  626MOL0     C84430  10.965   7.940   0.119  0.5854  0.5180 -0.6474
  626MOL0     C84431  10.843   8.010   0.097 -0.8424 -0.3927  0.2550
  626MOL0     C84432  10.791   8.104   0.187 -1.1919  0.3365  0.8735
  626MOL0     O84433  10.676   8.162   0.152 -0.4698  0.4858 -0.0825
  626MOL0     C84434  10.631   8.274   0.235 -0.6547  0.5255  0.1671
  626MOL0     C84435  10.561   8.204   0.350 -0.2005 -0.9165 -0.3783
  626MOL0     C84436  10.506   8.305   0.449 -1.2946  0.7703 -0.6698
  626MOL0     C84437  10.450   8.238   0.580  0.7309  0.3384  0.9584
  626MOL0     C84438  10.429   8.326   0.690 -0.2421  0.1374 -0.2083
  626MOL0     C84439  10.402   8.397   0.781  0.6351  0.3012  0.1933
  626MOL0     C84440  10.872   8.140   0.299  0.1239 -0.1407  0.2622
  626MOL0     C84441  10.997   8.071   0.317  0.6233 -0.4231 -0.9250
  626MOL0     C84442  11.070   8.113   0.440  0.1199 -0.4629 -0.1820
  626MOL0     H84443  11.213   7.611  -0.048  0.3021 -1.8240  0.7619
  626MOL0     H84444  11.414   7.529  -0.132 -2.5540  1.3010 -1.3902
  626MOL0     H84445  11.641   7.550  -0.258 -1.3303  1.1469  0.2464
  626MOL0     H84446  11.658   7.722  -0.236  0.9576  0.4987  0.5731
  626MOL0     H84447  11.915   7.682  -0.217 -0.5214  1.7985 -0.1748
  626MOL0     H84448  11.854   7.635  -0.370 -1.3714 -0.1002  0.4726
  626MOL0     H84449  11.988   7.463  -0.294  1.9714 -3.9309  3.2175
  626MOL0     H84450  11.813   7.409  -0.302  1.5580 -0.6516 -0.6927
  626MOL0     H84451  11.969   7.509  -0.051  1.8660 -2.3332  0.1692
  626MOL0     H84452  11.814   7.415  -0.054  0.9470 -2.9655  1.1500
  626MOL0     H84453  11.938   7.214  -0.130  2.4397 -0.8504 -2.6461
  626MOL0     H84454  12.087   7.303  -0.138 -0.1151 -0.9287  1.3513
  626MOL0     H84455  12.095   7.177   0.076  1.0488  0.5337  3.7562
  626MOL0     H84456  12.108   7.361   0.080  0.9894 -1.3645  1.9910
  626MOL0     H84457  11.843   7.224   0.136 -0.2332  0.3937 -0.0515
  626MOL0     H84458  11.886   7.389   0.169 -1.6868 -0.9965 -0.0506
  626MOL0     H84459  11.878   7.238   0.366 -1.5323  1.4123  0.2481
  626MOL0     H84460  12.014   7.146   0.292 -0.8699 -0.8531  0.2406
  626MOL0     H84461  11.925   7.519   0.434 -0.4618  0.6743  2.2336
  626MOL0     H84462  12.227   7.680   0.584 -1.0100  2.7962 -0.9205
  626MOL0     H84463  12.081   7.714   0.502 -1.4161 -0.0765  1.8062
  626MOL0     H84464  12.011   7.736   0.727 -0.8045  0.3054 -0.7855
  626MOL0     H84465  11.975   7.560   0.707 -1.1621  1.6343 -0.3179
  626MOL0     H84466  12.115   7.566   0.912  1.2761 -0.0960  0.6739
  626MOL0     H84467  12.234   7.665   0.836  0.3053  2.8507 -8.1430
  626MOL0     H84468  12.328   7.483   0.720  1.1413 -2.0177 -0.1112
  626MOL0     H84469  12.191   7.372   0.734 -2.1481  1.2679 -0.8083
  626MOL0     H84470  12.383   7.261   0.678 -1.5042 -1.7517  0.5221
  626MOL0     H84471  12.520   7.074   0.679 -3.4228  2.6744 -2.2496
  626MOL0     H84472  12.622   6.613   0.967 -1.5105  0.1076  1.1629
  626MOL0     H84473  12.798   6.438   0.994  0.1453 -0.1561  0.6372
  626MOL0     H84474  13.100   6.500   1.283 -0.7459 -0.7925  2.1357
  626MOL0     H84475  12.945   6.407   1.265 -0.6764  1.1420  0.3491
  626MOL0     H84476  13.147   6.267   1.339  2.1902 -0.0786 -0.9689
  626MOL0     H84477  13.091   6.218   1.186 -3.1572  0.3699  2.7558
  626MOL0     H84478  13.260   6.396   1.101  0.7642  1.4343  1.5677
  626MOL0     H84479  13.333   6.405   1.264  2.0823 -1.9613  1.5747
  626MOL0     H84480  13.302   6.141   1.119  1.6998  0.8836 -0.9671
  626MOL0     H84481  13.408   6.185   1.260 -0.9860  0.1263  0.9126
  626MOL0     H84482  13.507   6.334   1.120 -0.4232 -0.8025  0.0895
  626MOL0     H84483  13.453   6.261   0.971 -0.9550  0.0814  0.2968
  626MOL0     H84484  13.605   6.122   1.185  0.3062  0.4340  0.1290
  626MOL0     H84485  13.524   6.031   1.050  1.8755 -0.0317 -2.4722
  626MOL0     H84486  13.744   6.055   0.972 -0.7069 -0.3113 -2.3316
  626MOL0     H84487  13.762   6.221   1.018  2.4589 -1.6875 -1.9425
  626MOL0     H84488  13.553   6.149   0.800 -1.8335  1.2744  3.1247
  626MOL0     H84489  13.635   6.297   0.847 -3.7251  0.7207 -0.0202
  626MOL0     H84490  13.044   6.708   1.193 -1.3427 -2.5490  1.5462
  626MOL0     H84491  12.875   6.910   1.148  0.6156  0.8392 -2.6689
  626MOL0     H84492  12.527   7.097   1.121 -1.3807 -1.2888  0.2572
  626MOL0     H84493  12.407   7.283   1.114 -2.4558  0.7072 -0.3314
  626MOL0     H84494  11.652   7.800   0.101  0.7166 -0.3121 -1.1295
  626MOL0     H84495  11.431   7.885   0.203 -1.5445  1.0929 -0.9503
  626MOL0     H84496  10.986   7.872   0.038 -0.5907 -0.0367 -0.5019
  626MOL0     H84497  10.789   7.977   0.008 -2.5299  0.9271  0.7263
  626MOL0     H84498  10.566   8.342   0.179  3.8385  3.4610 -2.0490
  626MOL0     H84499  10.709   8.347   0.261 -0.3840  0.5174 -0.6086
  626MOL0     H84500  10.633   8.145   0.408 -1.6614 -2.0665  0.3472
  626MOL0     H84501  10.483   8.138   0.310 -0.2794 -1.3289  0.4272
  626MOL0     H84502  10.427   8.350   0.388 -1.6342  0.2763 -0.5996
  626MOL0     H84503  10.593   8.364   0.477  2.1105 -2.9058 -2.4503
  626MOL0     H84504  10.354   8.195   0.550  0.3109  1.4275  0.7107
  626MOL0     H84505  10.516   8.160   0.621  0.1459 -0.5851  0.1999
  626MOL0     H84506  10.380   8.471   0.855 -1.2756  0.4595 -0.4723
  626MOL0     H84507  10.840   8.215   0.371 -1.0050 -0.9617  0.6438
  626MOL0     H84508  11.101   8.021   0.491  3.3001  1.1748  1.1331
  626MOL0     H84509  11.156   8.171   0.405  0.7157 -2.1716 -1.6694
  626MOL0     H84510  11.010   8.180   0.503  0.1267 -0.5145 -0.1195
  627MOL0     O84511   5.789   0.415   2.317 -0.1525 -0.2804 -0.4386
  627MOL0     C84512   5.754   0.304   2.266 -0.3302 -1.2187 -0.2922
  627MOL0     O84513   5.836   0.209   2.205 -0.4263 -0.3938 -0.1618
  627MOL0     C84514   5.977   0.209   2.187 -0.5830 -0.0787 -0.4546
  627MOL0     C84515   6.024   0.114   2.100 -0.2747  1.1491 -0.3928
  627MOL0     C84516   6.157   0.091   2.066  0.4808 -0.1379 -0.3593
  627MOL0     C84517   6.243   0.195   2.104  0.9442 -0.3835 -0.1486
  627MOL0     O84518   6.372   0.213   2.058  0.3734 -0.4831 -0.4934
  627MOL0     C84519   6.455   0.116   2.131 -0.3422  0.6017  0.9630
  627MOL0     C84520   6.605   0.155   2.129  1.1056 -0.3032  0.7309
  627MOL0     C84521   6.693   0.039   2.187 -0.1550 -0.7164 -0.2381
  627MOL0     C84522   6.840   0.079   2.201  0.3144 -0.3340  0.7236
  627MOL0     C84523   6.922  -0.052   2.234 -0.9114  0.3941  0.3503
  627MOL0     C84524   7.073  -0.012   2.262  0.0324 -0.8068 -0.1289
  627MOL0     C84525   7.133  -0.145   2.317 -0.0507  0.0884  0.1283
  627MOL0     C84526   7.282  -0.126   2.357 -0.1460 -0.5213  0.9638
  627MOL0     N84527   7.368  -0.099   2.241  0.5682  0.3584  0.3390
  627MOL0     C84528   7.407  -0.193   2.151  0.1407  0.1350 -0.0251
  627MOL0     C84529   7.486  -0.126   2.064 -0.6564  0.3054  0.5858
  627MOL0     C84530   7.566  -0.205   1.963  0.4785 -0.4022  0.4719
  627MOL0     C84531   7.555  -0.147   1.819 -0.2881 -0.6768 -0.2119
  627MOL0     C84532   7.405  -0.135   1.770  0.0103  0.4842 -0.0399
  627MOL0     C84533   7.339  -0.004   1.807 -0.6800  0.2963  0.8892
  627MOL0     O84534   7.197  -0.016   1.790 -0.3793  0.0035 -0.8544
  627MOL0     C84535   7.118   0.092   1.834  0.9781 -1.1321  0.4837
  627MOL0     C84536   7.146   0.193   1.932 -0.4823  0.3892  0.3309
  627MOL0     C84537   7.064   0.302   1.956  0.0359 -0.7616 -0.3742
  627MOL0     C84538   6.944   0.313   1.881  0.1398 -0.6634  0.5871
  627MOL0     C84539   6.844   0.419   1.898 -0.8258 -0.1595 -0.3421
  627MOL0     O84540   6.735   0.427   1.808  0.1362  0.0307 -0.2034
  627MOL0     C84541   6.657   0.539   1.819  0.0835 -0.0034 -0.4551
  627MOL0     C84542   6.630   0.627   1.710  0.5070  0.2657  0.2926
  627MOL0     C84543   6.532   0.723   1.714 -0.0245 -0.2587 -0.4538
  627MOL0     C84544   6.459   0.750   1.830 -0.0690 -0.7845  0.2191
  627MOL0     O84545   6.346   0.830   1.842 -0.6788  0.5960 -0.0873
  627MOL0     C84546   6.231   0.784   1.912  0.2273  0.1107  0.0950
  627MOL0     C84547   6.110   0.882   1.896 -0.6152  0.8624 -0.6861
  627MOL0     C84548   5.989   0.880   2.000 -0.9119  0.4089  0.8968
  627MOL0     C84549   5.938   0.739   2.016  0.3220 -0.4422  0.7951
  627MOL0     C84550   5.843   0.725   2.121 -0.0683 -0.5111  1.0300
  627MOL0     C84551   5.710   0.805   2.107  0.2944 -0.1583  0.4120
  627MOL0     C84552   5.613   0.749   1.994 -0.8583  0.1846 -1.5522
  627MOL0     C84553   5.490   0.839   1.998  0.3492 -0.4303  0.0652
  627MOL0    Cl84554   5.393   0.806   1.846 -0.0739  0.0460  0.0486
  627MOL0     C84555   6.492   0.670   1.939  0.4012 -0.1093 -0.4876
  627MOL0     C84556   6.578   0.564   1.933 -0.7113 -0.3142 -0.0977
  627MOL0     O84557   6.871   0.506   1.987  0.3310 -0.5614  0.7338
  627MOL0     C84558   6.909   0.211   1.795  0.7457 -0.6569  1.2341
  627MOL0     C84559   6.993   0.104   1.769  0.1624 -0.2385  0.6719
  627MOL0     N84560   7.515  -0.001   2.109  0.1338 -0.0498 -0.6858
  627MOL0     N84561   7.438   0.014   2.211 -0.0954 -0.3641  0.0361
  627MOL0     C84562   6.195   0.308   2.171 -0.0985  0.0736  0.4578
  627MOL0     C84563   6.061   0.318   2.207  0.6517 -0.5553 -0.1135
  627MOL0     C84564   5.612   0.271   2.282  0.0638  0.6604 -0.0179
  627MOL0     C84565   5.582   0.132   2.275 -0.4390  0.1609  0.1240
  627MOL0     C84566   5.453   0.083   2.288  0.0223  0.5184  0.4868
  627MOL0     C84567   5.344   0.170   2.306  0.6928 -0.0680 -0.4505
  627MOL0     O84568   5.209   0.129   2.290 -0.1526 -0.1294  0.3529
  627MOL0     C84569   5.160  -0.001   2.291 -0.2145 -0.9078  0.5745
  627MOL0     C84570   5.185  -0.068   2.161 -0.2961  0.8561 -0.0914
  627MOL0     C84571   5.117  -0.209   2.137  0.8245 -0.4152 -0.1506
  627MOL0     C84572   5.107  -0.298   2.274  0.6087 -0.9151 -0.2481
  627MOL0     C84573   5.238  -0.362   2.299 -0.5259  0.3342  0.6624
  627MOL0     C84574   5.342  -0.421   2.300 -0.1983  0.7668 -0.2023
  627MOL0     C84575   5.379   0.300   2.333  0.0218  0.1754  0.0549
  627MOL0     C84576   5.506   0.353   2.304  1.0339  0.5234 -1.2448
  627MOL0     C84577   5.513   0.508   2.287 -0.0388 -0.0743  0.6930
  627MOL0     H84578   5.942   0.051   2.063 -0.4097  1.6792 -1.0194
  627MOL0     H84579   6.185   0.003   2.008 -2.9015 -2.6512  1.4988
  627MOL0     H84580   6.419   0.105   2.233 -1.2518 -2.5678  0.4089
  627MOL0     H84581   6.457   0.017   2.084  0.1047  2.2756 -3.0068
  627MOL0     H84582   6.624   0.248   2.182 -3.4773  2.7651 -2.2783
  627MOL0     H84583   6.627   0.165   2.022  2.1070 -0.0543  0.9495
  627MOL0     H84584   6.693  -0.048   2.119  0.8752 -0.0274 -1.1637
  627MOL0     H84585   6.651   0.003   2.281  1.4062 -3.0115 -0.3233
  627MOL0     H84586   6.889   0.119   2.111  2.3873 -1.2049  1.4170
  627MOL0     H84587   6.847   0.160   2.274  0.8346  1.7316 -1.4896
  627MOL0     H84588   6.881  -0.105   2.320  0.8357  3.3465  3.2347
  627MOL0     H84589   6.929  -0.117   2.146  2.6190 -0.8548  1.3766
  627MOL0     H84590   7.124  -0.001   2.166  0.4300 -0.9266  0.0658
  627MOL0     H84591   7.080   0.083   2.316  1.3108 -0.4886 -0.8380
  627MOL0     H84592   7.136  -0.218   2.236  0.0244 -0.4584  0.6259
  627MOL0     H84593   7.068  -0.180   2.397  2.5460 -0.6834  2.0494
  627MOL0     H84594   7.293  -0.040   2.424 -0.1610  0.9656 -0.8893
  627MOL0     H84595   7.324  -0.215   2.406  1.2175 -0.4409 -0.0051
  627MOL0     H84596   7.380  -0.298   2.149 -2.5634  0.7273  0.9576
  627MOL0     H84597   7.668  -0.215   2.001  0.6938  0.8882  0.2663
  627MOL0     H84598   7.533  -0.310   1.962 -0.0639 -0.2609  1.7789
  627MOL0     H84599   7.602  -0.048   1.816  3.5894 -2.2604  1.1619
  627MOL0     H84600   7.611  -0.218   1.756 -2.7337 -0.4000 -2.8847
  627MOL0     H84601   7.349  -0.213   1.822 -2.0499  1.5071 -0.6164
  627MOL0     H84602   7.386  -0.149   1.663 -2.5652  3.7312 -0.1748
  627MOL0     H84603   7.376   0.081   1.749 -2.1804  1.9955  2.3207
  627MOL0     H84604   7.354   0.012   1.914  3.0738 -0.2799  0.6090
  627MOL0     H84605   7.244   0.189   1.979  0.6713 -3.8157 -1.8557
  627MOL0     H84606   7.085   0.387   2.021 -2.6788 -0.7060  0.5606
  627MOL0     H84607   6.689   0.606   1.621 -2.3835  0.1850 -1.7654
  627MOL0     H84608   6.506   0.767   1.618  0.0496 -1.4910 -1.0557
  627MOL0     H84609   6.209   0.681   1.885 -2.0103  0.3989  0.6244
  627MOL0     H84610   6.251   0.788   2.020 -2.7474 -0.9929  0.7645
  627MOL0     H84611   6.134   0.988   1.885 -0.1358  0.9029  0.5770
  627MOL0     H84612   6.064   0.862   1.799 -1.9165  2.0297 -0.3414
  627MOL0     H84613   6.023   0.927   2.093  2.0413  0.3818 -0.0606
  627MOL0     H84614   5.914   0.943   1.953  0.9058  0.8145 -1.6536
  627MOL0     H84615   6.013   0.667   2.050 -1.7498 -1.9949  2.2634
  627MOL0     H84616   5.899   0.694   1.924 -1.7729  0.5228  1.1476
  627MOL0     H84617   5.881   0.761   2.217  1.4323  3.0466 -0.6867
  627MOL0     H84618   5.823   0.618   2.126  2.8831 -1.5870 -3.6412
  627MOL0     H84619   5.662   0.814   2.205  1.6987 -0.5218  1.1681
  627MOL0     H84620   5.743   0.907   2.083  2.3800 -1.6362 -3.9596
  627MOL0     H84621   5.580   0.646   2.012  0.0233  0.3622  1.7424
  627MOL0     H84622   5.665   0.745   1.898  1.8680 -2.0004 -0.1064
  627MOL0     H84623   5.433   0.833   2.091 -1.8288  1.6020 -1.0446
  627MOL0     H84624   5.516   0.945   1.993 -0.3527 -0.3044 -1.8478
  627MOL0     H84625   6.453   0.684   2.039  2.4714 -0.3909  0.4158
  627MOL0     H84626   6.602   0.494   2.012  2.7827  0.2203 -0.4886
  627MOL0     H84627   6.819   0.214   1.734 -1.1613 -0.0819  3.8934
  627MOL0     H84628   6.964   0.037   1.688  2.1214  1.5268 -1.6415
  627MOL0     H84629   6.268   0.385   2.193  0.8179 -1.1892  2.1101
  627MOL0     H84630   6.019   0.410   2.246  2.1339 -1.1335  3.2233
  627MOL0     H84631   5.661   0.058   2.268 -0.8721 -0.1201 -2.9778
  627MOL0     H84632   5.443  -0.023   2.312  0.6383  0.5683  0.9997
  627MOL0     H84633   5.053   0.004   2.313 -0.7965  0.0441 -2.0792
  627MOL0     H84634   5.210  -0.057   2.370  0.7874 -1.5481 -0.4850
  627MOL0     H84635   5.291  -0.072   2.134  0.0223  3.3120  0.4947
  627MOL0     H84636   5.127  -0.011   2.087 -2.0125  2.7808  2.5595
  627MOL0     H84637   5.173  -0.261   2.059 -1.7189 -0.7383 -1.8525
  627MOL0     H84638   5.013  -0.193   2.107  0.7747  3.9290  1.5906
  627MOL0     H84639   5.074  -0.236   2.358 -3.3551 -1.1285 -1.4271
  627MOL0     H84640   5.024  -0.370   2.269 -0.1902 -0.2281  1.9375
  627MOL0     H84641   5.427  -0.486   2.313 -0.3866  0.5756  0.0888
  627MOL0     H84642   5.298   0.367   2.358 -0.8579 -0.8184 -0.0578
  627MOL0     H84643   5.584   0.561   2.351  1.0000  0.6198 -0.9553
  627MOL0     H84644   5.538   0.527   2.182  1.3297 -2.3393  0.5284
  627MOL0     H84645   5.415   0.556   2.298 -0.0798  0.1931 -0.6518
  628MOL0     O84646   7.727   1.865   2.334  0.2466 -0.0016 -0.0666
  628MOL0     C84647   7.691   1.766   2.265 -0.9549 -0.7441 -0.1692
  628MOL0     O84648   7.725   1.638   2.285 -0.0032 -0.0510  0.2597
  628MOL0     C84649   7.787   1.602   2.406 -0.5249 -0.3843  0.0454
  628MOL0     C84650   7.930   1.613   2.419  0.2114  0.2129  1.0149
  628MOL0     C84651   7.989   1.573   2.534 -0.0465  0.2793 -1.1326
  628MOL0     C84652   7.909   1.517   2.636  0.3241  0.0988  0.6374
  628MOL0     O84653   7.978   1.478   2.748  1.0615 -0.0878  0.0702
  628MOL0     C84654   7.935   1.353   2.796  0.0155  0.4400 -0.0598
  628MOL0     C84655   8.060   1.261   2.820  0.2391  0.2970 -0.0151
  628MOL0     C84656   8.135   1.247   2.684  0.1457  0.0502 -0.3398
  628MOL0     C84657   8.219   1.113   2.685  0.1327  0.9795 -0.2670
  628MOL0     C84658   8.288   1.082   2.554  1.0336 -0.9268  1.0497
  628MOL0     C84659   8.325   0.939   2.534 -0.1320 -0.9725  0.1749
  628MOL0     C84660   8.423   0.914   2.419  0.8512 -0.2791 -0.6020
  628MOL0     C84661   8.336   0.870   2.298  0.3708  0.0110  1.0491
  628MOL0     N84662   8.422   0.866   2.177  0.1155 -0.0848  0.0067
  628MOL0     C84663   8.501   0.763   2.137 -0.2557 -0.7695  0.2939
  628MOL0     C84664   8.579   0.809   2.034  0.6604 -0.7009  0.8997
  628MOL0     C84665   8.680   0.729   1.952 -0.1499  0.1242 -0.6379
  628MOL0     C84666   8.816   0.756   2.026  0.2410 -0.1200 -0.1105
  628MOL0     C84667   8.940   0.668   2.010 -0.3166  0.4389 -0.1503
  628MOL0     C84668   9.048   0.686   2.116  0.2590 -0.2166 -0.1827
  628MOL0     O84669   9.146   0.579   2.089 -0.2466  0.1836 -0.4212
  628MOL0     C84670   9.268   0.576   2.152  1.1387  0.0623  0.2817
  628MOL0     C84671   9.363   0.497   2.104 -0.2125  0.2511  0.2682
  628MOL0     C84672   9.492   0.501   2.153 -0.4058 -0.0667  0.6375
  628MOL0     C84673   9.534   0.586   2.250 -0.8346  0.3762 -0.0313
  628MOL0     C84674   9.675   0.597   2.292  0.3833  0.1767 -0.1602
  628MOL0     O84675   9.707   0.701   2.376 -0.1025 -0.5655  0.6341
  628MOL0     C84676   9.833   0.700   2.425  0.3608  0.0057  0.8450
  628MOL0     C84677   9.948   0.694   2.347  0.3286 -0.2191  1.1068
  628MOL0     C84678  10.071   0.720   2.397 -0.8306 -0.2901 -0.2515
  628MOL0     C84679  10.088   0.743   2.533 -0.5012  0.0951 -0.5704
  628MOL0     O84680  10.209   0.774   2.590 -0.0671  0.3211 -0.5485
  628MOL0     C84681  10.315   0.698   2.528 -0.6147  0.0729 -0.7332
  628MOL0     C84682  10.433   0.693   2.626 -0.5256 -0.2579  0.3347
  628MOL0     C84683  10.565   0.684   2.548 -0.7768 -0.8480 -0.2118
  628MOL0     C84684  10.691   0.654   2.632  0.3269  0.2956 -0.4584
  628MOL0     C84685  10.682   0.541   2.726 -0.2231  0.0129 -0.2657
  628MOL0     C84686  10.822   0.504   2.801  0.1905  0.3946 -0.2638
  628MOL0     C84687  10.799   0.363   2.862 -0.6737  0.0004  0.7395
  628MOL0     C84688  10.927   0.293   2.878 -0.1113 -0.3656 -0.6879
  628MOL0    Cl84689  11.007   0.250   2.722  0.3167 -0.0839  0.1428
  628MOL0     C84690   9.978   0.735   2.619  1.0633 -0.0609  0.1688
  628MOL0     C84691   9.847   0.718   2.558 -0.1374 -0.6158 -0.6472
  628MOL0     O84692   9.754   0.510   2.249 -0.0354  0.5295  0.0097
  628MOL0     C84693   9.440   0.671   2.304 -0.6600  0.2153  0.1211
  628MOL0     C84694   9.303   0.663   2.258  0.1208  0.3507  0.4485
  628MOL0     N84695   8.533   0.935   2.003 -0.5153 -0.5750  0.1837
  628MOL0     N84696   8.446   0.968   2.089  0.1659  0.9872  0.2948
  628MOL0     C84697   7.771   1.520   2.623 -0.0477  0.2967  0.0186
  628MOL0     C84698   7.707   1.560   2.516 -0.2293 -0.6265  1.1533
  628MOL0     C84699   7.580   1.794   2.163  0.3726  0.2749  0.5686
  628MOL0     C84700   7.465   1.712   2.168  0.3666 -0.7694 -0.1460
  628MOL0     C84701   7.362   1.728   2.080  0.4509  0.4559  0.6300
  628MOL0     C84702   7.365   1.831   1.988  0.5612 -0.5689  0.2542
  628MOL0     O84703   7.248   1.844   1.917 -1.3312  0.3218  0.2100
  628MOL0     C84704   7.165   1.950   1.965 -0.2385  0.4061 -0.0624
  628MOL0     C84705   7.033   1.961   1.889 -0.3817  0.0408  0.0529
  628MOL0     C84706   6.945   2.080   1.929 -0.1231 -0.5521  0.2132
  628MOL0     C84707   6.868   2.063   2.059 -0.3747 -0.3378 -0.9955
  628MOL0     C84708   6.782   2.180   2.091 -0.3669  0.5658  0.3429
  628MOL0     C84709   6.729   2.281   2.113  0.9021 -0.3147  0.9260
  628MOL0     C84710   7.480   1.916   1.968  0.0688  0.3149  0.1662
  628MOL0     C84711   7.589   1.888   2.049 -0.9296 -0.0389 -0.1624
  628MOL0     C84712   7.710   1.978   2.023 -0.0070  0.8032 -0.2151
  628MOL0     H84713   7.980   1.665   2.338  0.6715 -1.2427  0.3196
  628MOL0     H84714   8.097   1.569   2.533 -0.0410 -2.1082  0.7576
  628MOL0     H84715   7.880   1.372   2.889 -2.8543  1.6882 -1.8737
  628MOL0     H84716   7.872   1.296   2.727 -0.9047  0.9620  0.3424
  628MOL0     H84717   8.027   1.162   2.852  0.6631  0.4642  0.9735
  628MOL0     H84718   8.122   1.303   2.899 -0.7682  0.3536  0.7547
  628MOL0     H84719   8.207   1.328   2.666  1.3938 -0.6586  1.1926
  628MOL0     H84720   8.065   1.232   2.602 -0.2552 -1.0977  0.1896
  628MOL0     H84721   8.294   1.110   2.764 -1.4552 -1.8096  1.2955
  628MOL0     H84722   8.152   1.030   2.709  1.6048  0.2586  1.5727
  628MOL0     H84723   8.215   1.111   2.478  1.5938  1.5730  1.3839
  628MOL0     H84724   8.367   1.158   2.553 -2.4752  3.0405  1.3597
  628MOL0     H84725   8.360   0.905   2.632 -0.5716  0.5257  0.8827
  628MOL0     H84726   8.233   0.881   2.519 -2.5377  2.3195  1.1636
  628MOL0     H84727   8.480   0.828   2.455 -1.2660 -2.5826 -2.3814
  628MOL0     H84728   8.492   0.997   2.400  0.3150  1.0484  2.5669
  628MOL0     H84729   8.281   0.777   2.316 -1.4585  0.7409 -0.3570
  628MOL0     H84730   8.252   0.934   2.272  0.6330 -0.7589 -2.1424
  628MOL0     H84731   8.513   0.662   2.175 -0.5859 -0.4661  1.2128
  628MOL0     H84732   8.662   0.622   1.966 -0.5441  0.1904 -0.6454
  628MOL0     H84733   8.682   0.759   1.847  4.1225 -0.4073 -0.8915
  628MOL0     H84734   8.847   0.860   2.014  0.3034 -0.0825  0.3252
  628MOL0     H84735   8.782   0.772   2.129 -2.8244  1.4312 -1.2273
  628MOL0     H84736   8.984   0.689   1.913 -1.1536  1.7196 -0.2798
  628MOL0     H84737   8.901   0.566   2.013 -3.0858  1.3083 -2.1434
  628MOL0     H84738   9.006   0.680   2.217  0.5779  2.4296  0.1645
  628MOL0     H84739   9.090   0.786   2.103  1.5169 -0.8391 -1.1803
  628MOL0     H84740   9.329   0.424   2.032  2.0023 -1.4690  0.8586
  628MOL0     H84741   9.565   0.443   2.098 -0.9284  0.0405 -0.1846
  628MOL0     H84742   9.934   0.678   2.241 -2.9615 -2.3383  1.6916
  628MOL0     H84743  10.150   0.738   2.326 -0.2239 -1.7895  0.0174
  628MOL0     H84744  10.274   0.597   2.517 -2.8108  0.8486 -0.0700
  628MOL0     H84745  10.344   0.739   2.431 -0.5359 -0.2796 -0.8630
  628MOL0     H84746  10.432   0.769   2.704  1.6882  0.1737 -0.0093
  628MOL0     H84747  10.423   0.596   2.675  1.9864 -0.7646 -0.0518
  628MOL0     H84748  10.546   0.608   2.471  0.3556 -0.3486 -1.0015
  628MOL0     H84749  10.584   0.777   2.495 -1.3459  0.2766  1.4841
  628MOL0     H84750  10.708   0.744   2.693  2.0518 -0.9210  0.9732
  628MOL0     H84751  10.771   0.645   2.558  0.6631 -1.5787  0.0766
  628MOL0     H84752  10.649   0.456   2.665 -1.5294 -0.3812  0.9230
  628MOL0     H84753  10.605   0.566   2.800  0.8177 -0.4580  1.0253
  628MOL0     H84754  10.903   0.486   2.729  1.3162 -3.3799  1.6556
  628MOL0     H84755  10.847   0.583   2.873  0.4727 -1.0072  1.2379
  628MOL0     H84756  10.755   0.298   2.787  2.3255 -1.2565 -0.0978
  628MOL0     H84757  10.741   0.359   2.954 -0.0627  1.2484  1.2154
  628MOL0     H84758  10.991   0.352   2.944 -0.5498  0.3286 -0.8753
  628MOL0     H84759  10.901   0.197   2.923 -1.7229  0.6684  0.7030
  628MOL0     H84760   9.971   0.759   2.725  0.1312 -0.5545  0.2339
  628MOL0     H84761   9.760   0.737   2.619  1.2529  0.8565  1.0015
  628MOL0     H84762   9.462   0.729   2.392  1.4252 -1.4398  0.7617
  628MOL0     H84763   9.226   0.707   2.321  1.1300  2.4976  0.2657
  628MOL0     H84764   7.710   1.482   2.704 -0.1778  0.0688 -0.1829
  628MOL0     H84765   7.600   1.571   2.533 -0.0683 -1.3938  2.8097
  628MOL0     H84766   7.453   1.649   2.256 -1.4878 -0.7220 -0.3421
  628MOL0     H84767   7.276   1.662   2.091  1.9153 -1.6894 -0.1670
  628MOL0     H84768   7.213   2.048   1.953 -0.8236  0.5541 -1.3646
  628MOL0     H84769   7.152   1.934   2.073 -1.8303  1.3080 -0.0801
  628MOL0     H84770   6.978   1.869   1.909  0.0917 -0.4906 -1.0379
  628MOL0     H84771   7.061   1.971   1.784  0.4903 -1.6797  0.0829
  628MOL0     H84772   6.881   2.102   1.843  1.9374  0.6375 -1.1124
  628MOL0     H84773   7.002   2.172   1.946 -1.4590  0.1756  0.8910
  628MOL0     H84774   6.799   1.981   2.037 -1.3887  0.3226 -0.3406
  628MOL0     H84775   6.935   2.038   2.142 -2.2058  0.8656  0.9546
  628MOL0     H84776   6.681   2.370   2.147 -0.5322 -1.3705  1.7574
  628MOL0     H84777   7.485   2.001   1.900 -1.7114  2.6748  2.7733
  628MOL0     H84778   7.799   1.936   2.071 -1.6664 -0.8842  1.5210
  628MOL0     H84779   7.714   2.004   1.917 -3.6540  1.9693 -0.2091
  628MOL0     H84780   7.697   2.079   2.063 -0.0210  1.9493 -2.8573
  629MOL0     O84781   5.914   0.390   7.997 -0.5528  0.0843 -0.0448
  629MOL0     C84782   5.853   0.316   7.920  0.2931 -0.2983  0.0728
  629MOL0     O84783   5.921   0.207   7.871  0.1828  0.4729  0.4508
  629MOL0     C84784   6.056   0.190   7.896  0.8208 -0.4998  0.6489
  629MOL0     C84785   6.143   0.267   7.823 -0.4023 -0.0766  0.2333
  629MOL0     C84786   6.278   0.264   7.852  0.2338  0.6350 -0.5270
  629MOL0     C84787   6.322   0.172   7.954  0.3458 -0.4923  0.0950
  629MOL0     O84788   6.455   0.169   7.980  0.1721  0.8198 -0.4254
  629MOL0     C84789   6.528   0.107   7.881  0.0530  0.5601 -0.3943
  629MOL0     C84790   6.584  -0.022   7.940 -0.6284 -0.4213  0.4578
  629MOL0     C84791   6.636  -0.128   7.833  0.2153 -0.5782  1.0513
  629MOL0     C84792   6.716  -0.250   7.882 -0.0833  1.0705  0.4275
  629MOL0     C84793   6.736  -0.352   7.770 -0.2223 -0.7614 -0.7237
  629MOL0     C84794   6.765  -0.492   7.830  0.4284 -0.0137  0.0606
  629MOL0     C84795   6.904  -0.516   7.873  0.1649 -0.4030 -0.4558
  629MOL0     C84796   7.007  -0.494   7.766  0.8425 -0.0545 -0.1119
  629MOL0     N84797   7.142  -0.523   7.811  0.1948 -0.2134  1.0291
  629MOL0     C84798   7.185  -0.645   7.834 -0.0763 -0.4835 -0.0000
  629MOL0     C84799   7.301  -0.631   7.905  0.4762 -0.1505 -0.5918
  629MOL0     C84800   7.397  -0.740   7.949  0.7218 -0.2696 -0.0297
  629MOL0     C84801   7.318  -0.866   7.995 -0.3938 -0.9666 -0.4732
  629MOL0     C84802   7.396  -0.932   8.108  0.3432 -0.3867 -0.4576
  629MOL0     C84803   7.334  -1.070   8.149  0.1731 -0.8591  0.0564
  629MOL0     O84804   7.414  -1.145   8.245 -0.1900  0.7511  0.5503
  629MOL0     C84805   7.458  -1.080   8.359 -0.1245 -0.0109  0.1380
  629MOL0     C84806   7.591  -1.048   8.355  0.8092  0.0079 -0.3292
  629MOL0     C84807   7.648  -0.980   8.460 -0.3551 -1.0900  0.0141
  629MOL0     C84808   7.584  -0.950   8.578  0.6739  0.4190  0.4121
  629MOL0     C84809   7.660  -0.868   8.679  0.2802  0.0887  0.3816
  629MOL0     O84810   7.580  -0.826   8.785  0.1924 -0.5332 -0.0515
  629MOL0     C84811   7.633  -0.731   8.877  0.1142 -0.1317  0.9689
  629MOL0     C84812   7.698  -0.611   8.834  0.7158  0.2041 -0.6069
  629MOL0     C84813   7.755  -0.531   8.926 -0.5551  0.3456  0.1090
  629MOL0     C84814   7.735  -0.559   9.063 -0.7986  0.9833 -1.2154
  629MOL0     O84815   7.783  -0.471   9.155  0.2017 -0.3646  0.8057
  629MOL0     C84816   7.828  -0.518   9.279 -0.4493 -0.6573  0.6713
  629MOL0     C84817   7.897  -0.420   9.375  0.5487  0.0878  0.6825
  629MOL0     C84818   7.908  -0.474   9.518 -0.1334  0.3828 -0.3726
  629MOL0     C84819   8.000  -0.590   9.525 -0.1060  0.2710  0.1063
  629MOL0     C84820   8.089  -0.609   9.652  0.4869  0.0061 -0.3169
  629MOL0     C84821   8.015  -0.633   9.778  0.5411 -0.3919 -0.4070
  629MOL0     C84822   8.102  -0.601   9.900 -0.6118  0.3219 -0.4448
  629MOL0     C84823   8.011  -0.590  10.031 -0.4076  0.2180  0.7414
  629MOL0    Cl84824   7.907  -0.726  10.055 -0.3498  0.0954  0.4887
  629MOL0     C84825   7.667  -0.680   9.107  0.0435 -0.7937  0.2855
  629MOL0     C84826   7.616  -0.767   9.010  0.5218  0.1008 -0.2809
  629MOL0     O84827   7.782  -0.841   8.651  0.2254 -0.1279  0.7242
  629MOL0     C84828   7.451  -0.991   8.584 -0.1391 -0.5141  0.1965
  629MOL0     C84829   7.388  -1.054   8.476  1.3740 -0.4935  0.0873
  629MOL0     N84830   7.322  -0.502   7.925 -1.3940  0.8081 -1.1203
  629MOL0     N84831   7.229  -0.437   7.863  0.2957  0.5198  0.7866
  629MOL0     C84832   6.231   0.096   8.033 -0.0454 -0.5896  0.0890
  629MOL0     C84833   6.093   0.104   7.998 -1.1542 -0.2870 -0.2552
  629MOL0     C84834   5.712   0.338   7.889  0.4444 -0.5948  0.1582
  629MOL0     C84835   5.663   0.323   7.757  1.1676 -0.8679 -0.8179
  629MOL0     C84836   5.533   0.362   7.719 -0.1368  0.1829 -0.6796
  629MOL0     C84837   5.445   0.407   7.811 -0.9940  0.5313  0.7902
  629MOL0     O84838   5.310   0.410   7.780  0.0959 -0.0100  0.5654
  629MOL0     C84839   5.227   0.449   7.895  0.5213 -0.4038  0.3328
  629MOL0     C84840   5.075   0.414   7.865  0.3733 -0.1301  0.4843
  629MOL0     C84841   5.007   0.514   7.760 -0.1709 -0.4917  0.2404
  629MOL0     C84842   4.858   0.499   7.749 -0.3182 -0.0402  0.4437
  629MOL0     C84843   4.801   0.594   7.652 -0.5670  0.0525 -0.2113
  629MOL0     C84844   4.749   0.645   7.558 -0.6639  0.0309 -1.4430
  629MOL0     C84845   5.496   0.424   7.944  0.7010  0.4940 -0.0886
  629MOL0     C84846   5.624   0.409   7.978 -0.5141 -0.3847 -0.3423
  629MOL0     C84847   5.667   0.447   8.123  0.2870  0.3975  0.7125
  629MOL0     H84848   6.105   0.332   7.745 -2.6866 -2.2135 -0.5236
  629MOL0     H84849   6.351   0.331   7.809  1.0149  0.7813  0.9691
  629MOL0     H84850   6.466   0.070   7.799 -0.8093 -0.2847  0.6079
  629MOL0     H84851   6.606   0.177   7.848  1.8309 -1.7360 -1.3324
  629MOL0     H84852   6.508  -0.079   7.994  2.7126 -2.4399  3.4583
  629MOL0     H84853   6.666   0.006   8.007 -1.3745  1.8491  0.4849
  629MOL0     H84854   6.705  -0.082   7.762  0.5568  1.0327  2.3696
  629MOL0     H84855   6.549  -0.164   7.777 -0.9951  3.0936  0.2865
  629MOL0     H84856   6.814  -0.224   7.922  0.2647 -0.5815  0.7072
  629MOL0     H84857   6.649  -0.296   7.955  2.0360  0.0250  1.8111
  629MOL0     H84858   6.650  -0.355   7.702 -0.2433  0.6209 -0.7790
  629MOL0     H84859   6.808  -0.319   7.694  1.2809 -0.0546  0.9328
  629MOL0     H84860   6.705  -0.509   7.919 -2.4883 -1.0732 -1.9660
  629MOL0     H84861   6.730  -0.563   7.754 -1.6890 -1.4958  2.2727
  629MOL0     H84862   6.911  -0.622   7.901  0.0230 -1.2738 -3.3569
  629MOL0     H84863   6.934  -0.460   7.962  0.3574  0.1360 -0.8514
  629MOL0     H84864   6.979  -0.557   7.682 -1.1010  2.4120 -1.4438
  629MOL0     H84865   7.001  -0.391   7.730 -0.6735 -0.7012 -1.8388
  629MOL0     H84866   7.137  -0.732   7.790 -1.3587 -0.4197  1.1776
  629MOL0     H84867   7.465  -0.760   7.866 -0.1334  1.1422 -1.1137
  629MOL0     H84868   7.462  -0.700   8.028 -0.4858  1.0159  0.3476
  629MOL0     H84869   7.226  -0.826   8.040  0.6832 -0.2525  1.1567
  629MOL0     H84870   7.299  -0.942   7.919 -1.1809 -0.6894 -0.5680
  629MOL0     H84871   7.406  -0.863   8.192 -2.5527 -0.5172  0.0882
  629MOL0     H84872   7.483  -0.950   8.045  1.2000  1.6972  0.0605
  629MOL0     H84873   7.335  -1.130   8.058 -0.9891  0.1076 -0.6208
  629MOL0     H84874   7.236  -1.060   8.198  0.2641 -3.0786  0.8149
  629MOL0     H84875   7.655  -1.068   8.269  1.1168 -0.5537  0.0302
  629MOL0     H84876   7.755  -0.961   8.452  0.1381 -2.0896  2.7826
  629MOL0     H84877   7.699  -0.582   8.729 -1.6584 -0.7900 -0.9652
  629MOL0     H84878   7.792  -0.438   8.885 -0.6243 -0.1235 -1.0671
  629MOL0     H84879   7.742  -0.561   9.331 -2.0610  1.9878  0.3879
  629MOL0     H84880   7.902  -0.595   9.253  1.4482  1.2709  0.0612
  629MOL0     H84881   7.993  -0.374   9.351  1.4693  0.7177  4.8846
  629MOL0     H84882   7.833  -0.333   9.393 -0.9416 -1.1282  1.5637
  629MOL0     H84883   7.951  -0.392   9.577 -2.2497  0.6206  0.9404
  629MOL0     H84884   7.806  -0.491   9.552 -1.1001  1.6683 -2.4147
  629MOL0     H84885   8.064  -0.573   9.438  1.7560 -0.2379  1.3109
  629MOL0     H84886   7.941  -0.680   9.503  0.9326 -0.3158 -0.3743
  629MOL0     H84887   8.142  -0.516   9.674 -0.3518  0.9364 -2.0531
  629MOL0     H84888   8.154  -0.696   9.637 -0.6065 -1.2770  1.9323
  629MOL0     H84889   7.920  -0.579   9.773  1.1033  0.7689  0.8825
  629MOL0     H84890   8.004  -0.741   9.789  5.0996 -0.8052  2.8159
  629MOL0     H84891   8.149  -0.503   9.894  2.0987 -0.6669  2.2151
  629MOL0     H84892   8.176  -0.680   9.917 -0.7509  0.4071  0.6206
  629MOL0     H84893   8.084  -0.589  10.112  2.0759 -1.6477 -1.3039
  629MOL0     H84894   7.952  -0.498  10.019 -0.4512 -0.0687 -1.6890
  629MOL0     H84895   7.642  -0.705   9.210 -1.4709 -0.7570 -0.0515
  629MOL0     H84896   7.549  -0.842   9.051 -0.1325 -0.6243 -2.5440
  629MOL0     H84897   7.388  -0.978   8.671 -1.7673 -3.2669 -0.4408
  629MOL0     H84898   7.282  -1.070   8.497  0.6361  2.8582 -0.5473
  629MOL0     H84899   6.265   0.037   8.118  0.3412 -2.1322 -1.0914
  629MOL0     H84900   6.017   0.048   8.050 -0.7202  0.1725  0.9079
  629MOL0     H84901   5.729   0.303   7.673  0.7076  2.4096 -2.1520
  629MOL0     H84902   5.493   0.356   7.618  0.2477  0.5262 -0.8527
  629MOL0     H84903   5.241   0.557   7.910  2.3355  0.0436 -3.5754
  629MOL0     H84904   5.242   0.382   7.980  2.5482  2.1570  2.1563
  629MOL0     H84905   5.018   0.424   7.958 -1.2133 -0.7903 -0.3632
  629MOL0     H84906   5.075   0.312   7.826 -0.4374  0.3548 -0.9042
  629MOL0     H84907   5.064   0.507   7.667 -1.0938  1.9443 -0.5856
  629MOL0     H84908   5.022   0.617   7.793  0.8007 -0.1390 -1.2403
  629MOL0     H84909   4.846   0.395   7.717  0.8092 -0.4744  1.3868
  629MOL0     H84910   4.803   0.507   7.842  0.0707 -2.5437  0.9499
  629MOL0     H84911   4.704   0.679   7.467  1.0768 -0.6405 -2.6234
  629MOL0     H84912   5.432   0.448   8.029  1.0115  2.1541 -0.2946
  629MOL0     H84913   5.736   0.531   8.125  1.6061 -0.5144  4.7881
  629MOL0     H84914   5.586   0.471   8.193 -0.9195  1.5480 -0.9904
  629MOL0     H84915   5.732   0.366   8.158 -0.5561 -0.8198 -0.4265
  630MOL0     O84916  10.839   6.156   4.323  0.7116 -0.1001 -0.3178
  630MOL0     C84917  10.864   6.146   4.444  0.0453 -0.4885 -0.2703
  630MOL0     O84918  10.993   6.129   4.503  1.0005 -0.0911  0.0006
  630MOL0     C84919  11.105   6.101   4.436 -0.0691  0.7645  1.2740
  630MOL0     C84920  11.223   6.095   4.504  0.4536  0.6006 -0.3390
  630MOL0     C84921  11.349   6.080   4.452 -0.7356  0.4046 -0.1405
  630MOL0     C84922  11.358   6.077   4.310 -0.5320 -0.3230  0.7197
  630MOL0     O84923  11.486   6.059   4.263  0.3062 -0.5415  0.4000
  630MOL0     C84924  11.518   6.065   4.124 -0.7995 -0.2555  0.1091
  630MOL0     C84925  11.670   6.103   4.102 -0.1226  0.4913 -0.3646
  630MOL0     C84926  11.755   5.980   4.144 -0.3258 -0.4552  0.2821
  630MOL0     C84927  11.905   5.998   4.108  0.4744  0.4789  0.8652
  630MOL0     C84928  11.992   5.916   4.196  1.1691  1.0912  0.4337
  630MOL0     C84929  12.120   5.870   4.121  0.0697  0.3889  0.3521
  630MOL0     C84930  12.222   5.802   4.205  0.6277 -0.2148 -0.0626
  630MOL0     C84931  12.353   5.790   4.124 -0.4002  0.2938  0.5810
  630MOL0     N84932  12.453   5.895   4.138  0.0728 -0.9739  0.0754
  630MOL0     C84933  12.427   6.027   4.197 -0.0574  0.2465  0.4440
  630MOL0     C84934  12.553   6.086   4.184 -0.5684  0.5020 -0.4465
  630MOL0     C84935  12.585   6.232   4.210 -0.2495  0.1634 -0.1220
  630MOL0     C84936  12.490   6.293   4.308 -0.1189 -0.7815  0.5111
  630MOL0     C84937  12.513   6.441   4.324  0.0010 -0.5060 -0.1802
  630MOL0     C84938  12.406   6.500   4.417  0.3393  1.3827 -0.6032
  630MOL0     O84939  12.418   6.640   4.428 -0.3787  1.1665  0.4433
  630MOL0     C84940  12.312   6.705   4.486 -0.5158  0.6778  0.1124
  630MOL0     C84941  12.307   6.835   4.456 -0.2164 -0.0997  0.0997
  630MOL0     C84942  12.199   6.914   4.501  0.2635  0.4975  0.3131
  630MOL0     C84943  12.095   6.863   4.578  0.2813  0.0027 -0.4286
  630MOL0     C84944  11.980   6.939   4.604  0.0445 -0.2606  0.1076
  630MOL0     O84945  11.988   7.060   4.552 -0.1840 -0.7925 -0.0463
  630MOL0     C84946  11.872   7.130   4.549 -0.5233 -0.0917 -0.8175
  630MOL0     C84947  11.810   7.143   4.429 -0.0459  0.1302  0.4651
  630MOL0     C84948  11.688   7.217   4.409 -0.2866 -0.6966 -0.1178
  630MOL0     C84949  11.642   7.270   4.526  0.5434  0.2586  0.6073
  630MOL0     O84950  11.527   7.340   4.502  0.1797 -0.2182 -0.1020
  630MOL0     C84951  11.479   7.421   4.614  0.3970  0.7294 -0.5746
  630MOL0     C84952  11.349   7.482   4.571 -0.0927 -0.3990  0.1063
  630MOL0     C84953  11.262   7.540   4.690 -0.0483  0.0465 -0.6870
  630MOL0     C84954  11.164   7.440   4.746  0.4107 -0.1446 -0.3421
  630MOL0     C84955  11.057   7.504   4.839  0.6057 -0.0127  0.5414
  630MOL0     C84956  10.954   7.410   4.886  0.6971 -0.4050  0.1065
  630MOL0     C84957  10.841   7.498   4.950 -0.7738 -0.0390 -0.8785
  630MOL0     C84958  10.776   7.418   5.060  0.8244 -0.0787  0.2112
  630MOL0    Cl84959  10.887   7.404   5.196 -0.0099 -0.1535 -0.1384
  630MOL0     C84960  11.701   7.257   4.648  0.2713  0.6544 -0.8845
  630MOL0     C84961  11.823   7.185   4.662  0.7312  0.4031 -0.4883
  630MOL0     O84962  11.878   6.897   4.658  0.2552  0.1784  0.3385
  630MOL0     C84963  12.107   6.728   4.605  0.2577  0.0269 -0.3206
  630MOL0     C84964  12.211   6.647   4.551 -0.0286 -0.3114 -0.4612
  630MOL0     N84965  12.642   5.996   4.128 -0.3640 -0.1876 -0.7755
  630MOL0     N84966  12.588   5.883   4.111 -0.5745 -0.0966 -1.1560
  630MOL0     C84967  11.239   6.087   4.230 -0.5770 -0.2735  0.1823
  630MOL0     C84968  11.117   6.083   4.294 -0.3809  0.6478 -0.7222
  630MOL0     C84969  10.747   6.147   4.534  0.3372 -0.1947  0.1916
  630MOL0     C84970  10.620   6.113   4.485 -0.2313  0.3923  0.5696
  630MOL0     C84971  10.503   6.115   4.564 -0.2525 -0.7829  0.0115
  630MOL0     C84972  10.514   6.134   4.701 -0.2966  0.0355 -0.1088
  630MOL0     O84973  10.406   6.149   4.788 -0.5905 -0.3023  0.1997
  630MOL0     C84974  10.276   6.135   4.731  0.7473 -0.2202  0.3141
  630MOL0     C84975  10.177   6.169   4.835 -0.2218 -0.0493  0.4148
  630MOL0     C84976  10.035   6.140   4.794  0.1952 -0.0348 -0.0530
  630MOL0     C84977   9.929   6.191   4.886  0.9024 -0.6695  0.3466
  630MOL0     C84978   9.909   6.336   4.858  0.6682  0.1565 -0.9135
  630MOL0     C84979   9.872   6.451   4.833 -0.5505  0.5036 -0.2632
  630MOL0     C84980  10.639   6.156   4.754 -0.8000 -0.6958  0.2286
  630MOL0     C84981  10.755   6.159   4.673  0.1987 -0.3576 -0.4731
  630MOL0     C84982  10.878   6.195   4.748 -1.1905  0.5223  0.8880
  630MOL0     H84983  11.218   6.100   4.612 -2.0515  2.3980 -0.4364
  630MOL0     H84984  11.426   6.057   4.525 -2.7479 -0.5436  1.8198
  630MOL0     H84985  11.492   5.978   4.064 -0.7850  0.7598 -1.4331
  630MOL0     H84986  11.452   6.140   4.079  0.3670  0.9255  0.2904
  630MOL0     H84987  11.681   6.194   4.161 -3.5666  2.1273 -1.9299
  630MOL0     H84988  11.684   6.132   3.998 -0.2752  3.3902  0.3472
  630MOL0     H84989  11.719   5.891   4.091 -0.4505 -0.6107  0.6237
  630MOL0     H84990  11.751   5.968   4.253 -0.2201  2.6547  0.7329
  630MOL0     H84991  11.910   5.947   4.012  0.4596 -2.2869  2.2534
  630MOL0     H84992  11.939   6.102   4.103  0.1164  0.5317 -1.4578
  630MOL0     H84993  12.024   5.981   4.278  1.9276  0.3969  0.6952
  630MOL0     H84994  11.942   5.823   4.227  0.5326  1.5334  0.7648
  630MOL0     H84995  12.097   5.799   4.041 -0.6961 -0.6844  1.4893
  630MOL0     H84996  12.168   5.961   4.082 -1.6090  0.3365 -2.0857
  630MOL0     H84997  12.184   5.703   4.230  1.2344 -1.0243 -2.1363
  630MOL0     H84998  12.259   5.844   4.299  2.6310 -1.8600 -0.0510
  630MOL0     H84999  12.405   5.699   4.153 -1.5468 -0.4684  0.3007
  630MOL0     H85000  12.330   5.787   4.017  0.4284 -1.1637  0.4246
  630MOL0     H85001  12.334   6.069   4.235 -4.7628 -6.1154 -2.1414
  630MOL0     H85002  12.683   6.228   4.258 -1.6434 -0.7789  2.8507
  630MOL0     H85003  12.579   6.286   4.114 -2.0931 -0.1148 -0.1946
  630MOL0     H85004  12.391   6.275   4.267 -0.3615  0.4332  0.5220
  630MOL0     H85005  12.515   6.254   4.407  1.2259  1.1755  1.0015
  630MOL0     H85006  12.508   6.499   4.231  2.5526  0.5322  0.2309
  630MOL0     H85007  12.606   6.466   4.376 -1.3244 -0.1913  2.1839
  630MOL0     H85008  12.393   6.453   4.515  0.5596  1.4995 -0.5177
  630MOL0     H85009  12.312   6.471   4.368  0.3473  1.7531 -0.8390
  630MOL0     H85010  12.385   6.880   4.395 -1.6142  0.3934 -1.4085
  630MOL0     H85011  12.200   7.016   4.464 -3.8573  0.8714  0.7801
  630MOL0     H85012  11.865   7.102   4.345 -1.0015  1.0139 -0.6169
  630MOL0     H85013  11.637   7.239   4.315  0.4301 -2.2496 -0.9132
  630MOL0     H85014  11.438   7.351   4.688 -1.0982 -2.1472 -3.8381
  630MOL0     H85015  11.552   7.496   4.646  0.9825 -0.0266 -0.0919
  630MOL0     H85016  11.367   7.560   4.497  1.5691  0.0200  0.9028
  630MOL0     H85017  11.292   7.412   4.510 -0.5779  1.1515 -1.2775
  630MOL0     H85018  11.315   7.585   4.775 -0.0679 -2.0603  0.5066
  630MOL0     H85019  11.207   7.622   4.645 -1.7723 -1.2011 -0.9347
  630MOL0     H85020  11.208   7.359   4.805  1.8670  0.5086 -0.5064
  630MOL0     H85021  11.111   7.402   4.658 -1.8436  4.7777 -1.4529
  630MOL0     H85022  11.011   7.585   4.780 -0.7192 -0.1817  1.3067
  630MOL0     H85023  11.101   7.562   4.920  3.1750 -2.0622  0.7582
  630MOL0     H85024  10.915   7.356   4.800 -0.5607 -2.3619  1.7971
  630MOL0     H85025  10.998   7.331   4.948  1.7786  0.3860  0.3818
  630MOL0     H85026  10.759   7.521   4.883 -1.4358  2.8053  0.7366
  630MOL0     H85027  10.873   7.596   4.987 -4.6586  0.6500  1.1112
  630MOL0     H85028  10.686   7.464   5.101  1.8834  0.4292  2.0680
  630MOL0     H85029  10.753   7.320   5.018 -1.2055 -0.9502  3.0656
  630MOL0     H85030  11.649   7.293   4.736 -0.3242 -0.5535 -0.7171
  630MOL0     H85031  11.863   7.165   4.761 -1.5854 -1.1583  0.2341
  630MOL0     H85032  12.031   6.681   4.667  0.9616 -2.4349 -1.1866
  630MOL0     H85033  12.211   6.543   4.580 -0.7795 -0.1671  0.1033
  630MOL0     H85034  11.233   6.093   4.121  2.8444  0.8604 -0.0750
  630MOL0     H85035  11.028   6.079   4.232 -0.2474 -2.1112 -0.8339
  630MOL0     H85036  10.587   6.099   4.382 -0.7933  1.7293  0.5377
  630MOL0     H85037  10.403   6.107   4.524  0.6328  0.3515 -2.6306
  630MOL0     H85038  10.254   6.034   4.693  2.2408  0.8329 -3.8254
  630MOL0     H85039  10.267   6.204   4.647  2.3674  0.0887  0.3598
  630MOL0     H85040  10.180   6.275   4.861 -1.5681  1.0939 -3.3888
  630MOL0     H85041  10.199   6.098   4.915 -0.0083 -0.1813  0.2377
  630MOL0     H85042  10.030   6.031   4.800 -1.0026 -0.0567 -1.0782
  630MOL0     H85043  10.010   6.167   4.691 -0.4300 -0.8816 -0.1308
  630MOL0     H85044   9.829   6.147   4.873  1.1180 -0.8046 -0.9152
  630MOL0     H85045   9.948   6.166   4.991 -2.9471 -2.3721  0.8252
  630MOL0     H85046   9.829   6.547   4.818 -2.2554 -0.3165 -0.8650
  630MOL0     H85047  10.649   6.182   4.859  1.5480  0.1121 -0.1205
  630MOL0     H85048  10.948   6.268   4.706 -1.9287  0.6615 -0.1612
  630MOL0     H85049  10.845   6.232   4.845 -1.1835  0.8683  0.7594
  630MOL0     H85050  10.944   6.108   4.758  0.1704  1.3802 -0.1180
  631MOL0     O85051   1.682  10.529   4.361  0.0627 -0.5067  0.3714
  631MOL0     C85052   1.693  10.485   4.479  0.7508 -0.7081 -0.3033
  631MOL0     O85053   1.804  10.427   4.527 -0.1396 -0.2582  0.1286
  631MOL0     C85054   1.919  10.427   4.448  0.3998  0.8987 -0.0392
  631MOL0     C85055   2.030  10.503   4.476  0.2512 -0.0183 -0.9062
  631MOL0     C85056   2.147  10.494   4.394  0.2778 -0.2561  0.0218
  631MOL0     C85057   2.143  10.426   4.276  0.0333  0.1493  0.8252
  631MOL0     O85058   2.245  10.445   4.186  0.2187  0.1611  0.0478
  631MOL0     C85059   2.372  10.381   4.224  0.4010 -0.1136  0.7142
  631MOL0     C85060   2.465  10.404   4.110  0.5716 -0.0456  0.2035
  631MOL0     C85061   2.610  10.355   4.115  0.2722 -0.0870  0.3280
  631MOL0     C85062   2.698  10.474   4.177  0.3772  0.6053 -0.2674
  631MOL0     C85063   2.853  10.434   4.163 -0.3565 -0.9999  0.3052
  631MOL0     C85064   2.894  10.300   4.211  1.0084  0.3010  0.4686
  631MOL0     C85065   3.045  10.283   4.209 -0.4111 -0.5559  0.7430
  631MOL0     C85066   3.095  10.253   4.351  0.7196  1.1942  0.9023
  631MOL0     N85067   3.238  10.273   4.373 -0.4017 -0.0452  0.4553
  631MOL0     C85068   3.296  10.364   4.467 -0.0203  0.3640 -0.2846
  631MOL0     C85069   3.431  10.351   4.454  1.1840  0.7714  0.3348
  631MOL0     C85070   3.533  10.415   4.542 -0.4645 -0.8091  1.0716
  631MOL0     C85071   3.538  10.341   4.674 -0.0989  0.0740 -0.0226
  631MOL0     C85072   3.623  10.223   4.674  1.2019 -0.3366  0.0436
  631MOL0     C85073   3.544  10.104   4.616  0.2078  1.8012  0.4019
  631MOL0     O85074   3.583   9.989   4.694 -0.5588 -0.0195  1.0614
  631MOL0     C85075   3.704   9.941   4.676 -0.3464  1.1814 -0.1857
  631MOL0     C85076   3.786   9.935   4.779 -0.6162 -0.1646 -0.0825
  631MOL0     C85077   3.912   9.884   4.769  0.3544 -0.7233  0.1221
  631MOL0     C85078   3.957   9.843   4.646 -0.3485 -0.4482 -0.9008
  631MOL0     C85079   4.095   9.799   4.623  0.9956  0.3077  0.0399
  631MOL0     O85080   4.139   9.803   4.495 -0.5527 -0.3281 -0.1475
  631MOL0     C85081   4.271   9.798   4.478  0.3782  0.3018 -0.3682
  631MOL0     C85082   4.327   9.916   4.428 -0.2040  0.5065 -0.2410
  631MOL0     C85083   4.470   9.916   4.411  0.4038 -1.0099  0.2749
  631MOL0     C85084   4.554   9.801   4.436  0.3117 -0.3160 -0.3374
  631MOL0     O85085   4.689   9.806   4.411  0.3481 -0.1337  1.0609
  631MOL0     C85086   4.763   9.779   4.529 -0.3256 -0.3746  0.2465
  631MOL0     C85087   4.909   9.745   4.497 -0.3402  0.8104 -0.3633
  631MOL0     C85088   4.993   9.751   4.619  0.9418  0.7616 -0.6435
  631MOL0     C85089   4.957   9.632   4.710  0.4465  0.0184  0.9267
  631MOL0     C85090   5.029   9.632   4.842 -0.0063  0.0944 -0.3096
  631MOL0     C85091   5.072   9.495   4.898 -0.8192 -0.0075  0.5487
  631MOL0     C85092   5.101   9.480   5.050  0.0030  0.5070  0.0190
  631MOL0     C85093   5.167   9.360   5.099 -0.8087  0.5908 -0.2530
  631MOL0    Cl85094   5.327   9.354   5.032 -0.6345  0.2590 -0.0264
  631MOL0     C85095   4.484   9.689   4.487  0.2712  0.5821 -0.1808
  631MOL0     C85096   4.348   9.679   4.501 -0.2506 -0.6387 -1.0221
  631MOL0     O85097   4.166   9.775   4.729 -0.1278 -0.5199  0.1060
  631MOL0     C85098   3.878   9.863   4.537 -0.0593  0.9167 -0.0482
  631MOL0     C85099   3.747   9.904   4.550  0.3795 -0.8426 -0.3630
  631MOL0     N85100   3.449  10.269   4.344  0.0482  0.4876 -0.2451
  631MOL0     N85101   3.339  10.224   4.293 -0.0213  0.6805 -0.6049
  631MOL0     C85102   2.030  10.343   4.249  0.8435 -0.3524  0.1334
  631MOL0     C85103   1.920  10.351   4.332  0.4876 -0.0338  0.9750
  631MOL0     C85104   1.561  10.502   4.554  0.9818 -0.7338  1.0572
  631MOL0     C85105   1.438  10.531   4.485 -0.4316  0.2690 -0.9385
  631MOL0     C85106   1.316  10.550   4.553  0.2098 -0.3798  0.3960
  631MOL0     C85107   1.308  10.536   4.698 -0.2041 -0.1485 -0.1154
  631MOL0     O85108   1.188  10.526   4.774  0.0814 -0.2680  0.1982
  631MOL0     C85109   1.065  10.569   4.704  0.5061  0.7353 -0.2511
  631MOL0     C85110   1.057  10.732   4.716  0.3634 -0.3542 -0.8131
  631MOL0     C85111   0.928  10.775   4.657 -0.0386 -0.1879  0.1065
  631MOL0     C85112   0.911  10.739   4.505 -0.1272 -0.0139 -0.2151
  631MOL0     C85113   1.023  10.769   4.421 -0.2626 -0.4579  0.9724
  631MOL0     C85114   1.122  10.798   4.359 -0.1108 -0.7601 -0.4265
  631MOL0     C85115   1.430  10.512   4.760  0.7346  0.4054 -0.1489
  631MOL0     C85116   1.549  10.492   4.694 -1.0081 -0.5137  0.2957
  631MOL0     C85117   1.665  10.471   4.786 -0.0353 -0.3683 -0.3165
  631MOL0     H85118   2.029  10.581   4.551  0.1981 -0.0662 -0.8568
  631MOL0     H85119   2.237  10.553   4.406  0.4974 -0.8294  1.3867
  631MOL0     H85120   2.409  10.415   4.321 -1.8957 -1.9414  2.3589
  631MOL0     H85121   2.352  10.274   4.231  0.3159 -0.1875 -0.4509
  631MOL0     H85122   2.462  10.511   4.087  4.6856  0.0875 -0.5607
  631MOL0     H85123   2.424  10.347   4.027  0.3626 -1.0844  1.0062
  631MOL0     H85124   2.642  10.341   4.011 -1.1817 -3.0317  0.1767
  631MOL0     H85125   2.608  10.260   4.168 -2.2991 -0.5196 -0.3633
  631MOL0     H85126   2.689  10.569   4.124 -1.5549  0.7215  0.2007
  631MOL0     H85127   2.667  10.497   4.280 -1.0869 -1.1643 -0.2615
  631MOL0     H85128   2.872  10.452   4.056 -0.7826  1.1549  0.5554
  631MOL0     H85129   2.916  10.506   4.215 -1.2037  0.5458 -0.7456
  631MOL0     H85130   2.843  10.294   4.307  0.8054  2.5352  0.5415
  631MOL0     H85131   2.848  10.227   4.144 -0.4335 -0.8880  2.6398
  631MOL0     H85132   3.090  10.372   4.164 -2.7759  1.1718  1.6310
  631MOL0     H85133   3.063  10.199   4.141  0.9534 -0.0974  0.5011
  631MOL0     H85134   3.028  10.318   4.406 -0.1482  1.6068 -0.5889
  631MOL0     H85135   3.070  10.151   4.380  1.9426  0.6035 -0.0339
  631MOL0     H85136   3.243  10.418   4.545  1.8455 -4.0302  4.6613
  631MOL0     H85137   3.632  10.406   4.497 -0.7920  1.2087 -0.1918
  631MOL0     H85138   3.523  10.524   4.554  2.0425 -0.5912  1.6751
  631MOL0     H85139   3.590  10.412   4.739 -0.7607  1.3474 -0.8433
  631MOL0     H85140   3.437  10.320   4.709  0.1516 -1.8021 -0.3499
  631MOL0     H85141   3.635  10.217   4.783 -0.7831  2.9713  0.5646
  631MOL0     H85142   3.715  10.242   4.618  0.5159 -0.9308 -1.3309
  631MOL0     H85143   3.562  10.092   4.509  0.2984 -2.0077  0.7322
  631MOL0     H85144   3.437  10.124   4.629 -0.4439  0.7760 -2.6408
  631MOL0     H85145   3.752   9.977   4.873  2.8200  1.1192  0.7187
  631MOL0     H85146   3.984   9.872   4.849 -0.6683 -0.6999  1.0651
  631MOL0     H85147   4.265  10.001   4.404  1.5414  1.2329 -2.6414
  631MOL0     H85148   4.528   9.999   4.373 -0.9950 -0.2671 -0.3065
  631MOL0     H85149   4.755   9.872   4.587 -0.1051  0.5722 -1.1777
  631MOL0     H85150   4.708   9.699   4.578  1.7683 -1.5627  0.8062
  631MOL0     H85151   4.931   9.650   4.449 -2.7967  0.8208 -1.6943
  631MOL0     H85152   4.941   9.816   4.419 -0.5310 -1.8362 -3.0440
  631MOL0     H85153   5.098   9.749   4.588  1.2379  4.6741 -0.4217
  631MOL0     H85154   4.985   9.842   4.679  3.4832  0.8650 -0.3914
  631MOL0     H85155   4.989   9.544   4.653  1.1566  1.8438 -1.6550
  631MOL0     H85156   4.850   9.608   4.716  0.5034 -0.7482 -0.5475
  631MOL0     H85157   4.967   9.678   4.919  1.1038  3.9932 -1.5180
  631MOL0     H85158   5.112   9.703   4.846  0.1867  0.0266 -2.2149
  631MOL0     H85159   5.007   9.411   4.874 -0.0838  0.0847 -2.1214
  631MOL0     H85160   5.160   9.470   4.837 -0.4327  1.1359  0.6170
  631MOL0     H85161   4.996   9.483   5.081 -1.1205 -0.5007 -3.3153
  631MOL0     H85162   5.158   9.564   5.092  0.4519 -0.5006  1.4772
  631MOL0     H85163   5.165   9.365   5.209  1.6144 -1.4459 -0.0203
  631MOL0     H85164   5.114   9.273   5.060 -0.6060  0.7104 -0.8005
  631MOL0     H85165   4.530   9.597   4.518 -2.6140 -1.2657 -0.9714
  631MOL0     H85166   4.294   9.591   4.535 -1.9766  1.1801  1.2556
  631MOL0     H85167   3.910   9.825   4.440 -1.8296 -0.0518 -0.3085
  631MOL0     H85168   3.674   9.910   4.469 -2.1513  2.6421  1.9149
  631MOL0     H85169   2.024  10.281   4.160  1.8381  1.4476 -1.2636
  631MOL0     H85170   1.829  10.294   4.318 -0.6050  1.8619 -0.2333
  631MOL0     H85171   1.453  10.539   4.377  0.1434 -0.1714 -0.8990
  631MOL0     H85172   1.228  10.564   4.492 -1.1931  0.4355  2.5361
  631MOL0     H85173   0.975  10.522   4.746 -1.0796  2.9175 -1.0527
  631MOL0     H85174   1.060  10.541   4.599 -0.7303  0.4460 -0.1259
  631MOL0     H85175   1.138  10.778   4.659  1.2215  1.5126  1.7283
  631MOL0     H85176   1.068  10.759   4.822  0.1037 -0.2672 -0.8081
  631MOL0     H85177   0.921  10.884   4.664 -0.9763 -0.2218 -0.1637
  631MOL0     H85178   0.849  10.730   4.719  1.0942  1.6261  3.0739
  631MOL0     H85179   0.869  10.639   4.488 -1.6509  0.5741 -0.0870
  631MOL0     H85180   0.820  10.791   4.474 -1.6076 -1.7947  0.8830
  631MOL0     H85181   1.201  10.827   4.293 -1.7043  1.0124 -1.6638
  631MOL0     H85182   1.420  10.511   4.868  0.6576  4.0701 -0.0048
  631MOL0     H85183   1.642  10.517   4.882 -0.2449  2.5670 -1.6690
  631MOL0     H85184   1.684  10.365   4.802  0.0120 -0.0034  2.5171
  631MOL0     H85185   1.751  10.528   4.751 -1.5106  2.1960 -0.0299
  632MOL0     O85186   5.270   0.063   6.826  0.1319  0.8644  0.0282
  632MOL0     C85187   5.171   0.020   6.878  0.2971 -0.0063 -0.1532
  632MOL0     O85188   5.165  -0.018   7.008  0.4600 -0.0275  0.3746
  632MOL0     C85189   5.265  -0.031   7.101 -0.7199 -0.4524  0.3812
  632MOL0     C85190   5.229  -0.107   7.213  0.5878  0.2800  0.0284
  632MOL0     C85191   5.321  -0.127   7.314 -0.3116 -0.5816  0.5238
  632MOL0     C85192   5.448  -0.076   7.310  0.5633 -0.6168 -0.1178
  632MOL0     O85193   5.522  -0.091   7.420  0.9829 -0.1116 -0.1425
  632MOL0     C85194   5.553   0.029   7.492 -0.0533 -0.1663 -0.6605
  632MOL0     C85195   5.631  -0.027   7.614 -0.2667  0.5815  0.3453
  632MOL0     C85196   5.773  -0.063   7.585  0.1119 -0.4724  0.3345
  632MOL0     C85197   5.850  -0.114   7.704 -0.9401  0.9900  0.8472
  632MOL0     C85198   5.999  -0.120   7.660 -1.0132  0.0968 -0.2000
  632MOL0     C85199   6.102  -0.167   7.764 -0.3028 -0.6426 -0.7102
  632MOL0     C85200   6.052  -0.272   7.866 -0.1287 -0.7781  0.5181
  632MOL0     C85201   6.168  -0.338   7.933 -0.3911  0.1314  0.0146
  632MOL0     N85202   6.223  -0.449   7.848  0.2086  0.6027  0.6877
  632MOL0     C85203   6.356  -0.472   7.802 -0.3833  0.1446 -1.0729
  632MOL0     C85204   6.352  -0.598   7.749  0.5817 -0.4620  0.4512
  632MOL0     C85205   6.476  -0.665   7.695  0.7887  0.3407 -0.0214
  632MOL0     C85206   6.450  -0.784   7.606  0.7523  0.0206  0.3087
  632MOL0     C85207   6.555  -0.888   7.590 -0.7843  0.6607 -1.0136
  632MOL0     C85208   6.684  -0.840   7.532 -0.1055 -0.2188 -0.3311
  632MOL0     O85209   6.664  -0.725   7.439 -0.0563  0.2749  0.1497
  632MOL0     C85210   6.758  -0.711   7.343 -0.1907 -0.9379 -0.0146
  632MOL0     C85211   6.798  -0.585   7.301 -0.1484 -0.2475  0.6704
  632MOL0     C85212   6.885  -0.571   7.190  0.0462 -0.4301  0.5588
  632MOL0     C85213   6.930  -0.671   7.114  0.0699  0.9863  0.1645
  632MOL0     C85214   7.030  -0.666   7.002 -0.1885 -0.6759  0.7950
  632MOL0     O85215   7.070  -0.780   6.939 -0.5921  0.4327  0.5687
  632MOL0     C85216   7.144  -0.771   6.824  0.2172  0.7150  0.3740
  632MOL0     C85217   7.069  -0.767   6.706  0.1730 -0.3359 -0.4632
  632MOL0     C85218   7.140  -0.740   6.591  0.0197  0.6123 -0.2558
  632MOL0     C85219   7.276  -0.706   6.597 -0.4012 -0.4370  0.8743
  632MOL0     O85220   7.351  -0.685   6.477  0.1477 -0.0568 -0.2238
  632MOL0     C85221   7.332  -0.774   6.370 -0.4573  0.0365 -0.2867
  632MOL0     C85222   7.469  -0.769   6.285  0.7907  0.4279 -0.0611
  632MOL0     C85223   7.591  -0.825   6.365  0.0227  0.2844  0.6245
  632MOL0     C85224   7.662  -0.708   6.446 -0.2322  0.6532  0.2154
  632MOL0     C85225   7.758  -0.763   6.561 -0.3480 -0.6898  0.0738
  632MOL0     C85226   7.884  -0.818   6.514 -0.3596 -0.0895  0.7857
  632MOL0     C85227   7.964  -0.861   6.622 -0.4892  0.3806 -0.7060
  632MOL0     C85228   8.091  -0.924   6.579 -0.1340 -0.0825  1.1308
  632MOL0    Cl85229   8.194  -0.963   6.720  0.3736 -0.2221 -0.0719
  632MOL0     C85230   7.342  -0.708   6.720  0.4725 -0.3680  0.2933
  632MOL0     C85231   7.277  -0.745   6.836 -0.3862 -0.7981 -0.2074
  632MOL0     O85232   7.076  -0.549   6.977 -0.1977 -0.2901  0.1126
  632MOL0     C85233   6.896  -0.798   7.162  0.1275 -0.0307 -0.3637
  632MOL0     C85234   6.808  -0.813   7.267  0.9894 -0.0330 -0.1162
  632MOL0     N85235   6.222  -0.650   7.752  0.2900 -0.1757 -0.5367
  632MOL0     N85236   6.150  -0.558   7.809 -0.0217 -0.1105 -0.6040
  632MOL0     C85237   5.492  -0.000   7.203  0.5092  0.4539  0.2195
  632MOL0     C85238   5.395   0.024   7.103  0.4049  0.3513 -0.4881
  632MOL0     C85239   5.053  -0.004   6.792  0.3534  1.0140 -0.7460
  632MOL0     C85240   5.032   0.085   6.685 -0.7647  0.5196  0.7692
  632MOL0     C85241   4.937   0.073   6.597 -0.4276 -0.6226 -0.6493
  632MOL0     C85242   4.838  -0.024   6.622  0.4391 -0.8540  0.1831
  632MOL0     O85243   4.722  -0.057   6.549  0.0114  0.6860  0.5601
  632MOL0     C85244   4.683   0.031   6.439  0.2130 -0.1115 -0.1391
  632MOL0     C85245   4.778   0.022   6.321  0.2563  0.2386 -0.6478
  632MOL0     C85246   4.774   0.127   6.203  0.3654  0.2602 -1.5465
  632MOL0     C85247   4.853   0.261   6.238  0.2822  0.5617 -0.0889
  632MOL0     C85248   4.998   0.222   6.235  0.6244  0.5797 -0.2948
  632MOL0     C85249   5.114   0.196   6.245 -0.7080  0.8942  0.3734
  632MOL0     C85250   4.846  -0.107   6.736 -0.6635 -0.4070  0.4738
  632MOL0     C85251   4.961  -0.106   6.816 -0.3808  0.5347  0.8899
  632MOL0     C85252   4.976  -0.220   6.922  0.4619 -0.3853  0.4447
  632MOL0     H85253   5.122  -0.123   7.216  0.2648  2.2938  1.0452
  632MOL0     H85254   5.284  -0.184   7.399  1.2982  1.3654  2.6350
  632MOL0     H85255   5.620   0.101   7.443  2.1358 -1.4539  0.2839
  632MOL0     H85256   5.465   0.080   7.533 -0.6160  0.0100 -2.0231
  632MOL0     H85257   5.575  -0.113   7.654 -1.8639  0.7287 -1.4308
  632MOL0     H85258   5.616   0.048   7.692 -0.9591 -1.6229  2.4829
  632MOL0     H85259   5.822   0.023   7.540 -3.1049  0.6180 -1.4052
  632MOL0     H85260   5.780  -0.144   7.512 -1.1694 -1.0427  0.8020
  632MOL0     H85261   5.827  -0.051   7.789  1.0319 -0.2861  2.4127
  632MOL0     H85262   5.821  -0.218   7.725  1.4665 -0.2633 -1.3273
  632MOL0     H85263   6.013  -0.185   7.573  1.7623  3.0176 -2.1831
  632MOL0     H85264   6.026  -0.019   7.627 -2.2267  1.1284  1.7810
  632MOL0     H85265   6.185  -0.206   7.704 -2.1443 -1.9780 -2.5485
  632MOL0     H85266   6.139  -0.084   7.824 -0.7965  0.4961 -1.9260
  632MOL0     H85267   5.978  -0.347   7.838  2.9205 -4.0734  0.5115
  632MOL0     H85268   6.012  -0.203   7.941 -0.0358 -0.0608 -0.0855
  632MOL0     H85269   6.249  -0.265   7.939 -1.4650  1.5697 -2.0762
  632MOL0     H85270   6.138  -0.374   8.032 -1.3742 -0.2989 -0.4333
  632MOL0     H85271   6.443  -0.412   7.827 -0.6861 -0.4634  1.8684
  632MOL0     H85272   6.527  -0.593   7.631  0.3118  2.4887  1.8872
  632MOL0     H85273   6.532  -0.687   7.787 -1.3365 -0.8438  1.0950
  632MOL0     H85274   6.363  -0.840   7.641  0.9171 -1.6539 -1.7391
  632MOL0     H85275   6.419  -0.744   7.509  3.7938  1.4502 -0.2022
  632MOL0     H85276   6.505  -0.965   7.530 -0.9004  0.1204 -0.2473
  632MOL0     H85277   6.571  -0.939   7.686  1.0238 -0.0724 -1.6514
  632MOL0     H85278   6.743  -0.924   7.494 -1.8566 -2.3674  1.4267
  632MOL0     H85279   6.742  -0.811   7.620 -1.4552 -1.1967  0.9177
  632MOL0     H85280   6.752  -0.500   7.349 -0.9970  1.0127 -2.1635
  632MOL0     H85281   6.898  -0.471   7.151 -0.3973 -1.0891 -1.4433
  632MOL0     H85282   6.966  -0.800   6.696 -0.8780  1.4298  2.9706
  632MOL0     H85283   7.095  -0.754   6.493  2.3663 -0.0329 -1.3133
  632MOL0     H85284   7.311  -0.874   6.410 -0.6139 -0.4535 -1.5511
  632MOL0     H85285   7.246  -0.740   6.311 -0.7223 -0.6323 -0.2945
  632MOL0     H85286   7.445  -0.826   6.195  0.5214 -2.0068  1.4391
  632MOL0     H85287   7.495  -0.665   6.264  0.1702  0.3205 -1.4791
  632MOL0     H85288   7.567  -0.910   6.430  0.1750 -3.3864 -3.5864
  632MOL0     H85289   7.671  -0.864   6.301 -0.7444 -2.3504  1.1371
  632MOL0     H85290   7.598  -0.657   6.519  3.3151 -2.4903  6.2970
  632MOL0     H85291   7.721  -0.650   6.374  0.1103 -0.4388 -0.3953
  632MOL0     H85292   7.710  -0.848   6.612 -3.5560  1.3705  0.7801
  632MOL0     H85293   7.782  -0.689   6.638 -0.6187 -1.0530  0.5161
  632MOL0     H85294   7.859  -0.905   6.452  1.2843  1.2974 -2.0227
  632MOL0     H85295   7.954  -0.750   6.465  0.9794 -1.1149  1.2197
  632MOL0     H85296   7.908  -0.931   6.685  0.9886  0.3268  0.5979
  632MOL0     H85297   7.994  -0.778   6.688 -0.9086  2.2034 -2.7084
  632MOL0     H85298   8.069  -1.017   6.526 -1.4351  0.3721  0.8325
  632MOL0     H85299   8.151  -0.864   6.510  0.2545 -0.0194  1.5152
  632MOL0     H85300   7.445  -0.675   6.725 -0.1649  1.7810  0.1031
  632MOL0     H85301   7.330  -0.725   6.929  1.2015 -3.8286 -0.3539
  632MOL0     H85302   6.927  -0.890   7.113 -2.7534 -1.3836  0.1378
  632MOL0     H85303   6.781  -0.916   7.291  2.6564 -0.5409 -0.2873
  632MOL0     H85304   5.591   0.042   7.190  0.4018  1.7447  2.9854
  632MOL0     H85305   5.415   0.072   7.008 -0.6055 -3.6465 -2.9554
  632MOL0     H85306   5.117   0.151   6.667 -0.3350 -0.6832 -2.1590
  632MOL0     H85307   4.937   0.138   6.511 -1.3682  0.6174  0.2603
  632MOL0     H85308   4.679   0.133   6.478 -2.4171  0.7574 -2.3313
  632MOL0     H85309   4.580   0.009   6.408 -0.8179  2.9653  0.7226
  632MOL0     H85310   4.743  -0.070   6.274 -0.8529  0.6436 -0.6301
  632MOL0     H85311   4.883   0.008   6.349 -0.9813 -1.7835  3.9592
  632MOL0     H85312   4.668   0.145   6.180 -0.2797 -0.0178  0.8951
  632MOL0     H85313   4.820   0.080   6.116  0.5849 -1.3758 -0.5971
  632MOL0     H85314   4.833   0.331   6.156  1.2320  0.5344 -0.3512
  632MOL0     H85315   4.810   0.303   6.330 -0.5495  0.1925 -0.3034
  632MOL0     H85316   5.219   0.183   6.263 -0.4808  2.7823  0.6170
  632MOL0     H85317   4.767  -0.179   6.752 -0.4541 -1.1783 -1.7182
  632MOL0     H85318   4.912  -0.306   6.899 -3.9163  3.0136 -1.4194
  632MOL0     H85319   5.079  -0.256   6.936  0.8532  1.4320  3.0999
  632MOL0     H85320   4.944  -0.182   7.020  1.5737  1.5104  0.1243
  633MOL0     O85321   0.971   3.443   5.955 -0.4071 -0.6944  0.5038
  633MOL0     C85322   0.920   3.539   5.910 -0.2753 -0.1198  0.0969
  633MOL0     O85323   0.987   3.660   5.897  0.5467 -0.1234  0.2592
  633MOL0     C85324   1.123   3.679   5.922  0.7142  0.3236  0.3769
  633MOL0     C85325   1.213   3.601   5.856 -0.2412 -0.1673  0.1988
  633MOL0     C85326   1.349   3.632   5.876  0.5445 -0.9075  0.2742
  633MOL0     C85327   1.398   3.754   5.942  0.1677  0.1556  0.2081
  633MOL0     O85328   1.526   3.793   5.982  0.5194 -0.1781  0.3295
  633MOL0     C85329   1.637   3.709   5.934  0.7134 -0.4054  0.3729
  633MOL0     C85330   1.758   3.755   6.004  0.0265  0.1468  0.7201
  633MOL0     C85331   1.882   3.672   5.965 -0.2286 -0.4293 -0.4696
  633MOL0     C85332   1.987   3.700   6.070 -0.5813  0.2840 -0.9378
  633MOL0     C85333   2.110   3.633   6.041 -0.5404 -0.5512  0.6198
  633MOL0     C85334   2.099   3.487   6.071  0.0963  0.1272  0.7032
  633MOL0     C85335   2.247   3.430   6.070 -0.0462 -1.2915  0.4743
  633MOL0     C85336   2.266   3.283   6.085  0.1828 -0.6418  0.8552
  633MOL0     N85337   2.409   3.257   6.071 -0.0577  0.2464 -0.0406
  633MOL0     C85338   2.498   3.258   6.172  0.2584  1.1753  1.0621
  633MOL0     C85339   2.622   3.235   6.103  0.2138  0.2574  0.3803
  633MOL0     C85340   2.768   3.226   6.157  0.9357  1.3530 -0.1304
  633MOL0     C85341   2.790   3.084   6.217  0.5471  0.0667  0.1288
  633MOL0     C85342   2.779   2.973   6.108 -0.6842 -0.6782  0.7156
  633MOL0     C85343   2.913   2.897   6.099  0.6281  0.6223 -0.8235
  633MOL0     O85344   2.937   2.815   6.220 -0.5353  0.0531 -0.1317
  633MOL0     C85345   3.064   2.758   6.235  0.1000 -0.4558  0.8174
  633MOL0     C85346   3.097   2.730   6.365  0.6005 -0.7031  0.2608
  633MOL0     C85347   3.210   2.661   6.409  0.2393 -0.5021 -1.0675
  633MOL0     C85348   3.305   2.626   6.307  0.1653 -0.3595  0.3090
  633MOL0     C85349   3.423   2.537   6.335 -1.1356  0.2856 -0.1825
  633MOL0     O85350   3.504   2.490   6.234 -0.4852  0.2425 -0.8673
  633MOL0     C85351   3.599   2.398   6.259 -0.4055 -0.9230 -0.8196
  633MOL0     C85352   3.554   2.266   6.260 -0.2143 -0.3553 -0.0155
  633MOL0     C85353   3.650   2.164   6.282 -0.2270 -0.0389 -0.4405
  633MOL0     C85354   3.788   2.208   6.301  0.0491  0.6977  0.6823
  633MOL0     O85355   3.884   2.104   6.315 -0.0297 -0.5418  0.5613
  633MOL0     C85356   4.021   2.135   6.284 -0.6599  0.4118 -0.0720
  633MOL0     C85357   4.076   2.003   6.218  0.6784 -0.8762  0.4548
  633MOL0     C85358   4.099   1.886   6.329 -0.1236 -0.0873  0.7644
  633MOL0     C85359   4.165   1.933   6.457 -0.0510  0.7756 -0.5968
  633MOL0     C85360   4.272   1.819   6.488  0.6439 -0.2545  0.4665
  633MOL0     C85361   4.330   1.835   6.628 -0.9954 -0.8249  0.8359
  633MOL0     C85362   4.431   1.721   6.663 -0.2182 -0.6183  0.3402
  633MOL0     C85363   4.536   1.783   6.748  0.1145  0.0804 -0.3790
  633MOL0    Cl85364   4.631   1.918   6.666 -0.3855  0.0377 -0.1720
  633MOL0     C85365   3.829   2.338   6.314 -0.0578 -0.3748  0.9737
  633MOL0     C85366   3.733   2.436   6.300  0.4124 -0.0252  0.3678
  633MOL0     O85367   3.441   2.511   6.453 -0.1075 -0.1582 -0.2758
  633MOL0     C85368   3.278   2.675   6.176 -0.6654  0.1615  0.3064
  633MOL0     C85369   3.163   2.733   6.137 -0.6685 -0.1524  0.2983
  633MOL0     N85370   2.590   3.223   5.978 -0.1866  1.1181  0.7764
  633MOL0     N85371   2.466   3.224   5.954 -0.5709 -0.1683  0.2538
  633MOL0     C85372   1.295   3.836   5.997  0.0164 -0.2577 -0.5154
  633MOL0     C85373   1.163   3.794   5.998 -0.5391  0.8331  0.3064
  633MOL0     C85374   0.780   3.529   5.868  1.0647  0.2042  0.1537
  633MOL0     C85375   0.700   3.640   5.878 -0.1535  0.3897  0.1609
  633MOL0     C85376   0.565   3.633   5.852  0.4063 -0.6196  0.4363
  633MOL0     C85377   0.499   3.516   5.838 -0.3550  0.4584 -0.1086
  633MOL0     O85378   0.366   3.532   5.845  0.3677  0.6809  0.4438
  633MOL0     C85379   0.287   3.428   5.788  0.3540  0.3692 -0.0404
  633MOL0     C85380   0.142   3.484   5.794  0.0267  0.6747  0.3205
  633MOL0     C85381   0.089   3.484   5.942  0.2838  0.6993  0.7231
  633MOL0     C85382  -0.060   3.490   5.947  0.2892  0.7541  1.0203
  633MOL0     C85383  -0.130   3.388   5.857  0.1048  0.2667  0.0936
  633MOL0     C85384  -0.192   3.315   5.769 -0.0562  0.5407  0.0109
  633MOL0     C85385   0.564   3.399   5.825 -0.4833  0.0168  0.3290
  633MOL0     C85386   0.704   3.403   5.842 -0.9815  0.8115  0.1617
  633MOL0     C85387   0.787   3.270   5.825  1.3201  0.1445  0.1391
  633MOL0     H85388   1.180   3.525   5.786 -0.7140  3.3718 -3.7694
  633MOL0     H85389   1.424   3.566   5.834  2.4814  0.6363  1.1155
  633MOL0     H85390   1.622   3.606   5.970  1.0388 -0.5234  0.1773
  633MOL0     H85391   1.656   3.719   5.826  3.9092 -1.0166  0.7544
  633MOL0     H85392   1.743   3.748   6.113  0.5136  1.2327  0.8707
  633MOL0     H85393   1.774   3.860   5.980 -2.6898  0.7067  1.0502
  633MOL0     H85394   1.904   3.707   5.864 -1.1740  1.6561  0.0065
  633MOL0     H85395   1.864   3.564   5.963  2.4731 -1.0121  1.2102
  633MOL0     H85396   2.009   3.807   6.062 -0.5966  0.3582 -0.0910
  633MOL0     H85397   1.963   3.673   6.173  2.0364 -0.4370 -0.4273
  633MOL0     H85398   2.149   3.645   5.940  1.9796  1.1588  1.7034
  633MOL0     H85399   2.186   3.667   6.112  0.2812 -2.0008  0.4930
  633MOL0     H85400   2.065   3.470   6.173  1.1278 -2.2961  0.7145
  633MOL0     H85401   2.035   3.440   5.995  1.2573  1.2653 -1.0587
  633MOL0     H85402   2.307   3.486   6.142  0.2597 -2.0285  0.8045
  633MOL0     H85403   2.283   3.446   5.968 -3.4184  0.8186 -0.5847
  633MOL0     H85404   2.226   3.246   6.180  0.4736 -1.9991  0.4690
  633MOL0     H85405   2.206   3.243   6.002 -1.3972  2.1514  0.4786
  633MOL0     H85406   2.501   3.270   6.280 -0.8975 -2.7253  1.6834
  633MOL0     H85407   2.824   3.238   6.064 -2.4395  2.9902 -2.1459
  633MOL0     H85408   2.793   3.302   6.232  0.2625 -0.5248  2.1150
  633MOL0     H85409   2.887   3.094   6.267 -0.4125  1.1522  1.8970
  633MOL0     H85410   2.714   3.071   6.296 -1.2392  3.7460 -0.7214
  633MOL0     H85411   2.743   3.001   6.009  0.2129 -0.1628  0.5251
  633MOL0     H85412   2.708   2.900   6.150  0.1235 -1.8342  0.1210
  633MOL0     H85413   2.992   2.971   6.089 -0.9749  3.2654  3.5840
  633MOL0     H85414   2.903   2.836   6.008  3.1985 -2.8788  0.9886
  633MOL0     H85415   3.024   2.771   6.434 -2.0960 -0.5678 -2.4702
  633MOL0     H85416   3.231   2.633   6.511 -2.4092  0.8960 -0.0412
  633MOL0     H85417   3.450   2.244   6.240 -0.7604  2.5527 -0.8834
  633MOL0     H85418   3.624   2.060   6.298  0.7890 -0.0082  1.6540
  633MOL0     H85419   4.035   2.215   6.210 -0.4369 -1.1633 -1.8186
  633MOL0     H85420   4.069   2.156   6.380 -1.5817  0.0608  0.4757
  633MOL0     H85421   4.004   1.978   6.140  0.1951  0.6275  0.3860
  633MOL0     H85422   4.169   2.017   6.163  0.3705 -1.0811 -0.1259
  633MOL0     H85423   4.006   1.831   6.346 -0.2057 -1.4657 -3.0596
  633MOL0     H85424   4.155   1.812   6.271  0.6904 -0.0664  1.5033
  633MOL0     H85425   4.091   1.951   6.535  0.2319  1.8011 -0.5502
  633MOL0     H85426   4.224   2.025   6.447  0.5309  0.3483 -1.2855
  633MOL0     H85427   4.330   1.816   6.395  0.8639 -0.5245  0.6102
  633MOL0     H85428   4.212   1.727   6.491  0.3316 -0.0463  0.6117
  633MOL0     H85429   4.380   1.933   6.626  3.4073 -2.8304  0.0234
  633MOL0     H85430   4.243   1.834   6.694 -2.1172 -0.9419 -0.5952
  633MOL0     H85431   4.475   1.679   6.572  1.2995  1.5929 -0.0426
  633MOL0     H85432   4.395   1.633   6.717 -0.2493 -1.6065 -1.2304
  633MOL0     H85433   4.488   1.831   6.834  0.0987  0.8489 -0.8099
  633MOL0     H85434   4.594   1.700   6.789 -3.0640 -1.1586  2.0291
  633MOL0     H85435   3.929   2.378   6.322 -0.4007  0.5818  0.5617
  633MOL0     H85436   3.766   2.539   6.309  1.8874  0.0213 -3.6066
  633MOL0     H85437   3.349   2.658   6.096  1.5263  1.2070  1.9548
  633MOL0     H85438   3.164   2.778   6.038 -1.9197  4.5360  2.1434
  633MOL0     H85439   1.316   3.929   6.049 -0.6357  0.0995 -0.8808
  633MOL0     H85440   1.091   3.857   6.048 -0.9654  0.0935  0.6457
  633MOL0     H85441   0.750   3.735   5.891  0.4787  0.6327 -3.2103
  633MOL0     H85442   0.507   3.723   5.837  0.9315 -0.2402  0.6530
  633MOL0     H85443   0.302   3.340   5.852  2.6321 -0.7343 -1.9132
  633MOL0     H85444   0.327   3.401   5.690  1.2869 -1.5302  0.7933
  633MOL0     H85445   0.076   3.426   5.730  1.6190 -0.2028 -0.5909
  633MOL0     H85446   0.153   3.589   5.765  1.0149  0.8053  1.1104
  633MOL0     H85447   0.143   3.565   5.992  0.7892  0.3986  0.6706
  633MOL0     H85448   0.110   3.391   5.996 -2.9980  0.1467  1.2618
  633MOL0     H85449  -0.090   3.472   6.051  2.9566  0.5129  1.8425
  633MOL0     H85450  -0.092   3.593   5.930  0.8302  1.1467  2.2036
  633MOL0     H85451  -0.251   3.256   5.703  1.0710 -1.7525  0.9247
  633MOL0     H85452   0.515   3.302   5.821  1.1411 -0.8109 -0.7972
  633MOL0     H85453   0.717   3.192   5.794  2.4444 -1.7525  2.1296
  633MOL0     H85454   0.867   3.295   5.755  1.1301 -0.7227 -0.3952
  633MOL0     H85455   0.820   3.241   5.925 -2.5095  0.4442  1.6535
  634MOL0     O85456   1.352   3.967   1.484  0.5259  0.1598  0.2576
  634MOL0     C85457   1.357   3.912   1.373  0.6927  0.4630 -0.1296
  634MOL0     O85458   1.461   3.832   1.332 -0.1455  0.5042  0.4481
  634MOL0     C85459   1.581   3.807   1.401 -0.5229  0.7314 -0.4202
  634MOL0     C85460   1.687   3.765   1.319 -0.5090 -0.6659 -0.5756
  634MOL0     C85461   1.816   3.753   1.381  0.5640  0.3103 -0.5597
  634MOL0     C85462   1.838   3.777   1.518  0.5716 -0.6843 -0.0644
  634MOL0     O85463   1.955   3.762   1.579  0.2192  0.0645  0.7090
  634MOL0     C85464   2.082   3.736   1.512 -0.6351 -0.4419  0.1359
  634MOL0     C85465   2.163   3.646   1.607  0.1137  0.0461 -0.2725
  634MOL0     C85466   2.313   3.633   1.569 -0.1918  0.7228 -0.0055
  634MOL0     C85467   2.405   3.757   1.600 -0.1859  0.2314 -1.0870
  634MOL0     C85468   2.554   3.734   1.579  0.0386 -0.2048 -0.0091
  634MOL0     C85469   2.611   3.608   1.653 -0.7345  1.1850 -0.2785
  634MOL0     C85470   2.758   3.588   1.608 -0.5985  0.9295 -0.1779
  634MOL0     C85471   2.766   3.524   1.465  0.0937 -0.4302  0.0487
  634MOL0     N85472   2.903   3.471   1.431 -0.5324  0.2614 -0.1022
  634MOL0     C85473   2.984   3.381   1.507 -0.5712 -0.5332  1.5364
  634MOL0     C85474   3.109   3.384   1.442 -0.6358 -0.2545  0.3050
  634MOL0     C85475   3.240   3.305   1.469  0.2039 -0.9305 -0.2406
  634MOL0     C85476   3.349   3.417   1.496  0.1814 -0.6549  0.1061
  634MOL0     C85477   3.495   3.370   1.494 -0.3504 -0.6299  0.2781
  634MOL0     C85478   3.529   3.258   1.592 -0.6262 -0.0213  0.0614
  634MOL0     O85479   3.473   3.291   1.715  0.6346 -0.7596  0.3960
  634MOL0     C85480   3.546   3.362   1.812  0.5110 -0.0962  0.0871
  634MOL0     C85481   3.499   3.352   1.943  0.0589  0.6936  0.2413
  634MOL0     C85482   3.552   3.431   2.041  0.4465 -0.1009  0.0932
  634MOL0     C85483   3.677   3.499   2.019  0.5151 -0.0346  0.0330
  634MOL0     C85484   3.753   3.552   2.128 -0.5387  0.0903 -0.0802
  634MOL0     O85485   3.671   3.577   2.240 -0.4366 -0.2827 -0.7274
  634MOL0     C85486   3.712   3.596   2.367 -0.0657 -0.5028  0.2658
  634MOL0     C85487   3.815   3.538   2.424 -0.6126 -0.4566 -0.3130
  634MOL0     C85488   3.872   3.579   2.542  0.2806  0.0010 -0.2440
  634MOL0     C85489   3.812   3.682   2.620  0.2194  0.3546 -0.4642
  634MOL0     O85490   3.870   3.724   2.738  0.5504  1.0597  0.4931
  634MOL0     C85491   3.771   3.772   2.826  0.1145 -0.0561 -0.7234
  634MOL0     C85492   3.828   3.785   2.966 -0.9071 -0.9006  0.3029
  634MOL0     C85493   3.825   3.658   3.056  0.5342 -0.9641  0.0190
  634MOL0     C85494   3.847   3.524   2.993 -0.5079  0.4018 -0.4885
  634MOL0     C85495   3.879   3.425   3.093 -0.1177  0.8493 -0.5669
  634MOL0     C85496   3.890   3.285   3.023  0.7752  0.2912  0.0285
  634MOL0     C85497   3.926   3.160   3.107  0.7113 -0.3434  1.4496
  634MOL0     C85498   3.931   3.019   3.032 -0.2271 -0.1873  0.2020
  634MOL0    Cl85499   3.790   2.987   2.921 -0.0878  0.1114 -0.5877
  634MOL0     C85500   3.684   3.722   2.568 -0.3514 -0.5788 -0.2310
  634MOL0     C85501   3.640   3.693   2.439 -0.4056  0.1866  0.4917
  634MOL0     O85502   3.880   3.558   2.122  0.3475 -0.1932  0.2037
  634MOL0     C85503   3.727   3.502   1.889  0.3445 -0.2925  0.0622
  634MOL0     C85504   3.653   3.449   1.784 -0.4868 -0.3093  0.1904
  634MOL0     N85505   3.102   3.490   1.352  0.2275  1.0168 -0.3563
  634MOL0     N85506   2.987   3.543   1.357 -0.0542  0.6502  0.3242
  634MOL0     C85507   1.729   3.825   1.594  0.3511  0.6206  1.2423
  634MOL0     C85508   1.603   3.839   1.537 -0.3549  0.3415  0.1009
  634MOL0     C85509   1.240   3.941   1.276  0.3452  0.0509 -0.6360
  634MOL0     C85510   1.228   3.855   1.168 -0.2924  0.3075  0.8742
  634MOL0     C85511   1.120   3.852   1.077  0.4739 -0.4090  0.0264
  634MOL0     C85512   1.019   3.955   1.091  0.9022 -0.0401  0.1920
  634MOL0     O85513   0.923   3.984   0.999 -0.1298  0.5075 -0.5029
  634MOL0     C85514   0.916   3.919   0.875 -0.9154  0.4338  0.5613
  634MOL0     C85515   0.817   3.791   0.886 -0.3526 -0.6313  0.0965
  634MOL0     C85516   0.672   3.843   0.903 -0.1621 -0.2175 -0.1705
  634MOL0     C85517   0.560   3.742   0.920 -0.2743 -0.2252 -0.2384
  634MOL0     C85518   0.568   3.639   0.813  0.5313  0.4440 -0.3953
  634MOL0     C85519   0.579   3.553   0.725 -0.4866 -0.0923  0.2572
  634MOL0     C85520   1.024   4.034   1.206 -0.5542  1.0005  0.3967
  634MOL0     C85521   1.124   4.025   1.300  0.2172  0.2640 -0.0146
  634MOL0     C85522   1.113   4.130   1.410 -0.0607  0.6912 -0.1681
  634MOL0     H85523   1.665   3.739   1.216 -1.7534  1.0114 -0.7751
  634MOL0     H85524   1.894   3.711   1.318  0.5710  0.2845 -0.5341
  634MOL0     H85525   2.076   3.681   1.418  2.0093 -1.6871  0.6182
  634MOL0     H85526   2.127   3.833   1.491 -0.0751 -0.8412 -0.5398
  634MOL0     H85527   2.100   3.559   1.586  1.0908 -0.8215  0.2876
  634MOL0     H85528   2.158   3.677   1.712  0.1618 -1.0203  0.0497
  634MOL0     H85529   2.331   3.608   1.464  0.6624  1.3292 -0.0144
  634MOL0     H85530   2.333   3.543   1.626 -0.9867  0.7873  0.3862
  634MOL0     H85531   2.384   3.849   1.545  1.7061  1.3629 -0.0143
  634MOL0     H85532   2.399   3.773   1.708  2.2714 -2.5397 -0.4190
  634MOL0     H85533   2.568   3.716   1.472  3.6154 -1.1315  0.4999
  634MOL0     H85534   2.612   3.823   1.605  3.8780 -0.2298 -6.3360
  634MOL0     H85535   2.604   3.620   1.761 -0.6144  1.1386 -0.2663
  634MOL0     H85536   2.553   3.518   1.628  0.7238  0.1625 -0.0789
  634MOL0     H85537   2.816   3.520   1.671 -1.0396  1.4101  0.7689
  634MOL0     H85538   2.811   3.684   1.607  1.2289 -0.0242 -0.8796
  634MOL0     H85539   2.704   3.434   1.473 -2.0981  1.1588  4.0595
  634MOL0     H85540   2.717   3.583   1.387 -3.3781 -0.7554  1.7706
  634MOL0     H85541   2.946   3.318   1.587 -3.5739 -0.1208  0.5453
  634MOL0     H85542   3.235   3.233   1.551 -2.9146 -1.2874 -0.5989
  634MOL0     H85543   3.251   3.235   1.385 -0.2323 -0.2926 -0.8512
  634MOL0     H85544   3.338   3.504   1.430 -4.1821 -1.9764 -1.2404
  634MOL0     H85545   3.319   3.461   1.592  0.6624  0.1075 -0.0819
  634MOL0     H85546   3.577   3.440   1.509  0.0935  0.2077 -4.6224
  634MOL0     H85547   3.517   3.333   1.394 -1.6816  1.9161 -1.0444
  634MOL0     H85548   3.633   3.225   1.599 -1.5081 -2.6944  2.1941
  634MOL0     H85549   3.472   3.174   1.553 -0.3639 -0.1393 -0.0761
  634MOL0     H85550   3.414   3.292   1.973  1.8425 -0.8769  2.5852
  634MOL0     H85551   3.501   3.431   2.137 -2.6006  0.8531 -1.3867
  634MOL0     H85552   3.873   3.464   2.368 -0.1374  0.1596 -0.6484
  634MOL0     H85553   3.953   3.528   2.593 -1.0955 -2.7566 -0.6690
  634MOL0     H85554   3.741   3.873   2.797 -1.2449 -0.4074 -0.6357
  634MOL0     H85555   3.684   3.705   2.830  1.4097 -1.7339  1.6499
  634MOL0     H85556   3.932   3.816   2.953 -0.0855 -1.9567  3.4497
  634MOL0     H85557   3.773   3.865   3.017  2.1708  1.9024 -0.4722
  634MOL0     H85558   3.913   3.677   3.119 -1.3980  3.2610  1.8239
  634MOL0     H85559   3.742   3.668   3.126  1.8423  0.2580  1.4951
  634MOL0     H85560   3.922   3.540   2.916  0.2955  0.4796  0.2936
  634MOL0     H85561   3.750   3.497   2.950 -1.6032  2.3661  0.5662
  634MOL0     H85562   3.797   3.417   3.166 -0.0944  0.6308 -0.5635
  634MOL0     H85563   3.971   3.457   3.142  0.4879 -2.5764  0.8687
  634MOL0     H85564   3.795   3.262   2.974  3.2025 -1.7319 -4.2025
  634MOL0     H85565   3.958   3.295   2.939 -0.4881 -3.1782 -1.5648
  634MOL0     H85566   3.844   3.160   3.180 -0.4028  0.0192  0.2313
  634MOL0     H85567   4.018   3.190   3.158 -0.3950  2.4747  1.9909
  634MOL0     H85568   4.020   3.021   2.968 -0.4685 -2.5215 -0.3066
  634MOL0     H85569   3.941   2.954   3.119 -1.9271  0.5647  1.0055
  634MOL0     H85570   3.639   3.806   2.622  1.1506 -1.9014  3.3635
  634MOL0     H85571   3.551   3.737   2.395  1.4534  2.1845 -1.5338
  634MOL0     H85572   3.819   3.559   1.879  0.7712 -0.9763  0.0356
  634MOL0     H85573   3.698   3.459   1.686  1.7251 -0.6311  1.1094
  634MOL0     H85574   1.753   3.853   1.696 -0.0338  3.2429  0.6923
  634MOL0     H85575   1.531   3.900   1.591 -0.2737  0.5511 -0.0254
  634MOL0     H85576   1.311   3.788   1.150  0.9648  2.3547 -1.6996
  634MOL0     H85577   1.120   3.786   0.991 -3.2268  1.2819 -1.5217
  634MOL0     H85578   1.012   3.880   0.840 -0.7011  2.1636 -0.9365
  634MOL0     H85579   0.878   3.983   0.795 -1.6506 -0.7764 -0.0987
  634MOL0     H85580   0.844   3.727   0.970 -1.2663 -2.3403 -0.8748
  634MOL0     H85581   0.819   3.726   0.799 -0.1908 -1.1258  0.4641
  634MOL0     H85582   0.653   3.899   0.811 -0.5691  1.2397  0.7529
  634MOL0     H85583   0.677   3.917   0.984  4.8205 -1.1267  0.6430
  634MOL0     H85584   0.557   3.690   1.016 -0.4160 -0.6993 -0.4990
  634MOL0     H85585   0.463   3.791   0.909 -1.0915 -1.1905  1.9900
  634MOL0     H85586   0.614   3.469   0.668  0.3959 -1.3807  2.5637
  634MOL0     H85587   0.938   4.100   1.215 -1.1331  0.0991  1.8189
  634MOL0     H85588   1.204   4.191   1.412 -0.6811  1.6459 -0.2250
  634MOL0     H85589   1.033   4.204   1.401  0.2570  0.7829 -3.4694
  634MOL0     H85590   1.091   4.086   1.508 -0.4030  1.3687  0.0643
  635MOL0     O85591   6.371   9.151   5.185 -0.2439 -0.0826 -0.1095
  635MOL0     C85592   6.356   9.163   5.304  0.2511  0.5956 -0.6418
  635MOL0     O85593   6.372   9.271   5.364  1.0224  0.2254  0.2423
  635MOL0     C85594   6.466   9.360   5.326  0.2010 -0.3704 -0.1319
  635MOL0     C85595   6.589   9.318   5.276  0.2354 -0.8205  0.6516
  635MOL0     C85596   6.692   9.416   5.255  0.4787 -0.0783 -0.1513
  635MOL0     C85597   6.661   9.549   5.267  0.5846 -0.0322 -0.2879
  635MOL0     O85598   6.755   9.640   5.235  0.6997 -0.1384  0.5962
  635MOL0     C85599   6.775   9.754   5.320  0.8470  0.5786 -0.2718
  635MOL0     C85600   6.913   9.806   5.276 -0.2874 -0.0955 -0.8012
  635MOL0     C85601   7.028   9.712   5.320  0.1099 -0.8173 -0.6043
  635MOL0     C85602   7.144   9.724   5.221 -0.2465  0.6645  0.0883
  635MOL0     C85603   7.267   9.630   5.276 -0.3790  0.6015 -0.7531
  635MOL0     C85604   7.264   9.482   5.229 -0.4660 -0.6803  0.2801
  635MOL0     C85605   7.325   9.462   5.082  0.6037 -0.3517 -0.4708
  635MOL0     C85606   7.337   9.320   5.038  0.1774 -0.1503 -0.9638
  635MOL0     N85607   7.412   9.309   4.913 -0.2377 -0.5533  0.0599
  635MOL0     C85608   7.371   9.235   4.804 -0.4334 -0.3254 -0.3497
  635MOL0     C85609   7.482   9.247   4.723 -0.0853  0.1528 -0.4022
  635MOL0     C85610   7.503   9.181   4.592 -0.4436  0.4744 -0.2425
  635MOL0     C85611   7.607   9.241   4.498  0.6356  0.2850  0.2016
  635MOL0     C85612   7.625   9.149   4.377 -0.8330 -0.9015  0.9763
  635MOL0     C85613   7.746   9.209   4.291  0.6170  0.0694 -0.3586
  635MOL0     O85614   7.787   9.100   4.208  0.1059 -0.2887 -0.1471
  635MOL0     C85615   7.889   9.128   4.117 -0.5323 -0.2268  0.8780
  635MOL0     C85616   7.925   9.007   4.047 -0.8024  0.6692  0.1402
  635MOL0     C85617   8.018   9.007   3.940 -0.4882  0.0670 -0.1493
  635MOL0     C85618   8.093   9.125   3.908 -0.5949 -0.1300 -0.7392
  635MOL0     C85619   8.205   9.111   3.814 -0.4182 -1.0139 -0.1881
  635MOL0     O85620   8.217   8.992   3.736  0.2820  0.5659 -0.5070
  635MOL0     C85621   8.331   8.965   3.661  0.0946  0.3986 -0.0702
  635MOL0     C85622   8.401   9.062   3.595 -0.8324 -0.1439 -0.2714
  635MOL0     C85623   8.511   9.043   3.514  0.7190  0.2536  0.0721
  635MOL0     C85624   8.551   8.908   3.496  0.8315 -0.1955  0.5634
  635MOL0     O85625   8.662   8.884   3.420  0.0598  0.1924 -0.3541
  635MOL0     C85626   8.765   8.795   3.484  0.5738  0.0054 -0.9154
  635MOL0     C85627   8.818   8.860   3.612 -0.5248 -0.2628  0.6446
  635MOL0     C85628   8.882   9.000   3.588 -0.5747 -0.1403  0.1409
  635MOL0     C85629   8.999   8.991   3.492  0.0421  0.3947 -0.0535
  635MOL0     C85630   8.987   9.094   3.377 -0.1168 -0.8543 -0.6187
  635MOL0     C85631   9.009   9.239   3.425  0.4617  0.0198  0.5711
  635MOL0     C85632   8.987   9.331   3.310  0.7298  0.6280 -0.2073
  635MOL0     C85633   9.030   9.465   3.353  0.1947 -0.2089 -0.1119
  635MOL0    Cl85634   8.905   9.550   3.447 -0.1196 -0.5303  0.0741
  635MOL0     C85635   8.477   8.808   3.563  0.0636  0.1117  0.6800
  635MOL0     C85636   8.372   8.838   3.643  0.4697  0.1308 -0.3114
  635MOL0     O85637   8.276   9.220   3.811 -0.2987 -0.3172  0.3619
  635MOL0     C85638   8.053   9.241   3.970 -0.3721 -0.0815 -0.5022
  635MOL0     C85639   7.957   9.249   4.072  0.9354  0.5206 -0.4426
  635MOL0     N85640   7.587   9.323   4.788 -0.7873  0.4245 -0.2861
  635MOL0     N85641   7.536   9.371   4.899 -0.1563  0.8204  0.5679
  635MOL0     C85642   6.531   9.584   5.316  0.6757 -1.0534 -0.5532
  635MOL0     C85643   6.432   9.491   5.351  0.2908 -0.7419 -0.9234
  635MOL0     C85644   6.288   9.052   5.380 -0.1836 -0.1768 -0.9572
  635MOL0     C85645   6.200   9.086   5.491  0.6004  0.0375  0.5219
  635MOL0     C85646   6.148   8.991   5.575  0.4560 -0.1804  0.1322
  635MOL0     C85647   6.175   8.857   5.550  0.5094 -0.1475  0.0250
  635MOL0     O85648   6.134   8.771   5.652  0.9771 -0.5858  0.5980
  635MOL0     C85649   6.082   8.643   5.615  0.5361  0.5274 -0.1030
  635MOL0     C85650   5.933   8.658   5.576  0.3502  0.2149 -0.2031
  635MOL0     C85651   5.874   8.519   5.533 -0.2358 -0.6905 -0.0368
  635MOL0     C85652   5.749   8.469   5.612  0.6529 -0.5354  0.0102
  635MOL0     C85653   5.770   8.455   5.758  0.4739 -0.2234  1.0086
  635MOL0     C85654   5.824   8.478   5.871 -0.8492  0.4220  0.2282
  635MOL0     C85655   6.252   8.816   5.440  1.3965 -0.2574  0.4888
  635MOL0     C85656   6.313   8.914   5.358 -0.4396  0.5594  0.1900
  635MOL0     C85657   6.406   8.869   5.251  0.3013 -0.0110 -0.0597
  635MOL0     H85658   6.628   9.219   5.252 -1.0909 -0.8083 -1.9190
  635MOL0     H85659   6.788   9.388   5.212 -0.1521 -0.5420 -1.2889
  635MOL0     H85660   6.700   9.833   5.313 -1.8126 -1.7589  0.3548
  635MOL0     H85661   6.781   9.740   5.429  1.7636  0.8645 -0.2784
  635MOL0     H85662   6.935   9.907   5.309 -1.5830 -0.1774  0.3989
  635MOL0     H85663   6.916   9.825   5.168 -2.3819  2.6594 -0.4816
  635MOL0     H85664   7.006   9.605   5.313 -0.1393 -0.7681 -0.5880
  635MOL0     H85665   7.065   9.738   5.420 -0.2661  1.4705 -1.0091
  635MOL0     H85666   7.109   9.690   5.123 -2.5198 -0.2307  1.1541
  635MOL0     H85667   7.177   9.829   5.215  2.2412  0.0761  1.8265
  635MOL0     H85668   7.359   9.670   5.232  1.1216 -2.6090 -0.8270
  635MOL0     H85669   7.273   9.626   5.385 -1.3894  2.1907 -0.6103
  635MOL0     H85670   7.308   9.410   5.298 -0.0905 -0.5488  0.1833
  635MOL0     H85671   7.164   9.439   5.229 -0.7101 -0.1500  1.8106
  635MOL0     H85672   7.422   9.511   5.070  0.3009  0.6905  1.0654
  635MOL0     H85673   7.258   9.509   5.010  1.8669 -0.7649 -1.9872
  635MOL0     H85674   7.381   9.269   5.123  2.5583 -0.8214 -2.4986
  635MOL0     H85675   7.236   9.280   5.022  0.2940 -0.3072 -1.3279
  635MOL0     H85676   7.283   9.172   4.792  0.4646 -2.0430  1.4928
  635MOL0     H85677   7.528   9.075   4.608 -0.8069  0.3676 -0.3740
  635MOL0     H85678   7.409   9.189   4.537 -1.1195  1.9749  1.0576
  635MOL0     H85679   7.567   9.335   4.459 -2.3660 -1.8894 -2.4883
  635MOL0     H85680   7.705   9.250   4.546  0.8089 -1.6565  0.2634
  635MOL0     H85681   7.538   9.132   4.312 -1.0471 -1.0815  1.3074
  635MOL0     H85682   7.655   9.051   4.413  2.2754 -1.3707 -2.3124
  635MOL0     H85683   7.809   9.258   4.366 -2.4006  1.7423  1.2841
  635MOL0     H85684   7.714   9.290   4.225  1.5205 -0.5908 -1.6544
  635MOL0     H85685   7.884   8.911   4.077  3.2899 -0.1835  4.0046
  635MOL0     H85686   8.041   8.912   3.892 -0.2496  0.1721 -0.2412
  635MOL0     H85687   8.389   9.170   3.600  1.1562  0.0596  0.7795
  635MOL0     H85688   8.565   9.117   3.457 -1.7057  0.3655 -2.2650
  635MOL0     H85689   8.733   8.692   3.500  0.3974  0.4733  2.2241
  635MOL0     H85690   8.839   8.782   3.404  1.5823 -1.0937  0.1526
  635MOL0     H85691   8.736   8.857   3.685 -2.7658  3.5228 -1.3977
  635MOL0     H85692   8.898   8.799   3.653  0.2993 -0.4395 -1.1474
  635MOL0     H85693   8.810   9.069   3.545  0.4507  1.5070  0.9730
  635MOL0     H85694   8.906   9.037   3.688 -0.3026 -1.5409  0.6215
  635MOL0     H85695   9.015   8.888   3.458 -0.3847  0.5852 -0.8427
  635MOL0     H85696   9.099   9.015   3.530  0.8989  0.7533 -2.3733
  635MOL0     H85697   8.894   9.090   3.320  0.6206  0.3805 -1.9590
  635MOL0     H85698   9.068   9.060   3.313  0.4688 -2.2098  0.7789
  635MOL0     H85699   8.930   9.242   3.501 -1.6996 -0.3227 -1.5527
  635MOL0     H85700   9.110   9.241   3.468  0.1759  3.3846  1.3449
  635MOL0     H85701   8.880   9.338   3.288  0.1948 -0.6904  1.6616
  635MOL0     H85702   9.042   9.292   3.224 -0.5726 -4.7616  0.9704
  635MOL0     H85703   9.128   9.467   3.402 -0.4089 -2.4460  1.3637
  635MOL0     H85704   9.042   9.520   3.259 -1.3330 -3.1865 -2.2058
  635MOL0     H85705   8.518   8.709   3.547 -1.4564 -0.3371 -0.6697
  635MOL0     H85706   8.332   8.754   3.700  0.2524  1.5667  1.7561
  635MOL0     H85707   8.110   9.327   3.936 -1.7372  0.7185 -0.8391
  635MOL0     H85708   7.925   9.348   4.103  2.8278  0.7288  1.0242
  635MOL0     H85709   6.523   9.691   5.335  0.5446 -1.1008 -0.3386
  635MOL0     H85710   6.332   9.512   5.386  0.1946 -0.6199 -1.2685
  635MOL0     H85711   6.165   9.188   5.502 -3.6354 -0.7435 -3.0016
  635MOL0     H85712   6.088   9.001   5.664  2.4850 -0.9286  1.6585
  635MOL0     H85713   6.098   8.571   5.696  2.0816  0.7697 -0.1555
  635MOL0     H85714   6.139   8.600   5.533 -0.2560  0.1954 -0.4929
  635MOL0     H85715   5.923   8.723   5.489  0.3400  1.0704  0.4286
  635MOL0     H85716   5.872   8.699   5.656 -0.8181  0.8840 -1.3874
  635MOL0     H85717   5.951   8.442   5.544  0.0140 -0.4556 -0.1417
  635MOL0     H85718   5.849   8.514   5.426 -0.8044 -1.7836  0.1251
  635MOL0     H85719   5.674   8.548   5.596  2.0672  0.3977 -2.7304
  635MOL0     H85720   5.708   8.378   5.568  0.5094 -0.7359  0.5545
  635MOL0     H85721   5.880   8.475   5.963 -1.4148  0.1853  0.5713
  635MOL0     H85722   6.274   8.715   5.406 -1.6987 -0.2397 -1.9781
  635MOL0     H85723   6.510   8.895   5.268  0.6081  1.2819 -3.2819
  635MOL0     H85724   6.409   8.760   5.242 -1.2424  0.0339 -1.7999
  635MOL0     H85725   6.359   8.895   5.155 -3.0363 -0.2290  1.3490
  636MOL0     O85726  10.538  11.232  10.900 -0.3475  0.4079  0.4857
  636MOL0     C85727  10.523  11.150  10.809 -0.1922 -0.0659  0.3710
  636MOL0     O85728  10.624  11.065  10.762  0.2166 -0.5044  0.1607
  636MOL0     C85729  10.753  11.083  10.803  0.1868 -0.0922  0.1691
  636MOL0     C85730  10.789  11.079  10.936 -0.5150 -0.3347 -0.2653
  636MOL0     C85731  10.919  11.125  10.973  0.6933  0.2991 -0.8766
  636MOL0     C85732  11.005  11.157  10.868 -0.0957 -0.2946 -0.7841
  636MOL0     O85733  11.138  11.180  10.888 -0.1724  0.6079  0.6354
  636MOL0     C85734  11.186  11.184  11.028  0.2690  0.6779 -0.1594
  636MOL0     C85735  11.340  11.194  11.023 -0.3982 -0.6073 -0.5155
  636MOL0     C85736  11.402  11.236  11.158  0.2778 -0.4421 -0.1206
  636MOL0     C85737  11.436  11.386  11.160  0.6956  0.4764  0.2996
  636MOL0     C85738  11.395  11.458  11.289 -0.2842 -0.5104 -0.8139
  636MOL0     C85739  11.250  11.478  11.308 -0.0780 -0.4308  1.2294
  636MOL0     C85740  11.227  11.491  11.453  0.4422  0.2458 -0.4581
  636MOL0     C85741  11.079  11.452  11.503 -0.3849  1.1116  0.0906
  636MOL0     N85742  11.044  11.307  11.492 -0.1639 -0.0757  0.3685
  636MOL0     C85743  11.119  11.210  11.558 -0.4762  0.0448 -0.5861
  636MOL0     C85744  11.096  11.091  11.486  0.0890 -0.1143  0.2857
  636MOL0     C85745  11.137  10.962  11.526  0.6496 -0.0052  0.1690
  636MOL0     C85746  11.017  10.861  11.536 -0.7621  0.6841 -0.0033
  636MOL0     C85747  11.065  10.707  11.541 -0.0200 -0.4399  0.0301
  636MOL0     C85748  11.121  10.663  11.675 -0.5065 -0.3442  0.1452
  636MOL0     O85749  11.237  10.739  11.706 -0.0781 -0.4475 -0.4981
  636MOL0     C85750  11.352  10.712  11.644 -0.2602  0.5479  0.0106
  636MOL0     C85751  11.383  10.599  11.562  0.2813  0.0576 -0.0278
  636MOL0     C85752  11.510  10.593  11.514 -0.5855  0.1145 -0.6952
  636MOL0     C85753  11.623  10.686  11.536  0.1971 -0.4959 -0.0398
  636MOL0     C85754  11.761  10.680  11.493  0.4299  1.2219  0.1531
  636MOL0     O85755  11.848  10.776  11.526  0.4302  0.6942  0.4805
  636MOL0     C85756  11.979  10.742  11.491  0.4306 -0.0496 -0.0089
  636MOL0     C85757  12.028  10.778  11.366  0.9262  0.3637  0.8288
  636MOL0     C85758  12.165  10.770  11.342 -0.4039  0.3572  0.8260
  636MOL0     C85759  12.256  10.714  11.434 -0.4672 -0.2070 -0.7846
  636MOL0     O85760  12.391  10.721  11.433 -0.2693  0.0555 -0.2419
  636MOL0     C85761  12.451  10.786  11.315 -0.5501 -0.0760 -0.2594
  636MOL0     C85762  12.601  10.739  11.300  0.0303 -0.2085  0.2641
  636MOL0     C85763  12.601  10.640  11.176 -0.1285  0.7240  0.7338
  636MOL0     C85764  12.749  10.619  11.142 -0.8873  0.9353  0.2594
  636MOL0     C85765  12.823  10.535  11.245  0.0127 -0.3573  0.0217
  636MOL0     C85766  12.967  10.508  11.205  0.3344 -0.1071 -0.3816
  636MOL0     C85767  13.045  10.435  11.318  0.4103 -1.0455  0.6837
  636MOL0     C85768  13.185  10.373  11.269  0.1259 -0.6223  0.3023
  636MOL0    Cl85769  13.287  10.522  11.241 -0.0104  0.1638  0.1407
  636MOL0     C85770  12.205  10.653  11.547  0.6133 -0.0407 -0.6835
  636MOL0     C85771  12.075  10.670  11.580 -0.8491 -1.1838  0.4316
  636MOL0     O85772  11.784  10.575  11.435 -1.2162 -0.4354 -0.0450
  636MOL0     C85773  11.577  10.796  11.610  1.0230  0.6332  0.4072
  636MOL0     C85774  11.453  10.802  11.667  0.4641 -0.6088  0.9608
  636MOL0     N85775  11.020  11.123  11.378  0.9230 -0.4851 -0.6502
  636MOL0     N85776  10.994  11.250  11.381  0.2022 -0.3452  0.2071
  636MOL0     C85777  10.971  11.158  10.737  0.7942  0.0106  0.0841
  636MOL0     C85778  10.844  11.119  10.701  0.0496  0.9656 -0.4396
  636MOL0     C85779  10.378  11.115  10.777 -0.6980  0.8699 -0.6965
  636MOL0     C85780  10.360  11.026  10.672 -0.0602  0.1393 -0.2491
  636MOL0     C85781  10.242  10.963  10.639  0.8482 -0.0670 -1.1492
  636MOL0     C85782  10.121  11.002  10.714  0.0919  0.2098 -0.0730
  636MOL0     O85783   9.990  10.973  10.669  0.2162  0.2406  0.7035
  636MOL0     C85784   9.958  10.843  10.688  0.2150  0.0762 -0.0772
  636MOL0     C85785   9.814  10.825  10.737  0.3714 -0.2931  0.3792
  636MOL0     C85786   9.754  10.684  10.727  0.4709 -0.0378  1.0939
  636MOL0     C85787   9.793  10.588  10.843  0.5241 -0.1708  0.5899
  636MOL0     C85788   9.933  10.556  10.840 -0.9996 -0.5309 -0.0195
  636MOL0     C85789  10.048  10.531  10.827  0.0361  0.0051 -0.2087
  636MOL0     C85790  10.134  11.093  10.814 -0.2817  0.4608 -0.4211
  636MOL0     C85791  10.258  11.154  10.842  0.2541 -0.3419  0.7312
  636MOL0     C85792  10.253  11.271  10.939 -0.3447  0.0552 -0.3835
  636MOL0     H85793  10.707  11.042  10.997 -1.7544  0.1407 -1.5853
  636MOL0     H85794  10.943  11.127  11.078 -1.4605 -1.8072 -0.2505
  636MOL0     H85795  11.141  11.272  11.075 -1.0127 -1.9266  4.0421
  636MOL0     H85796  11.149  11.104  11.092 -1.8982  1.3240 -0.5134
  636MOL0     H85797  11.370  11.273  10.953 -1.8389  2.0291  1.6451
  636MOL0     H85798  11.382  11.100  10.986  0.4465  0.0286 -1.2265
  636MOL0     H85799  11.493  11.178  11.173 -0.9140 -2.6376 -0.9999
  636MOL0     H85800  11.342  11.213  11.247  1.9727  1.1255  1.5327
  636MOL0     H85801  11.541  11.390  11.130  1.1725  0.9591  1.8967
  636MOL0     H85802  11.377  11.428  11.078  1.9089 -1.5251 -1.7293
  636MOL0     H85803  11.447  11.401  11.366  3.0665  1.1762 -1.5921
  636MOL0     H85804  11.447  11.554  11.279  3.6711 -2.2229  0.9340
  636MOL0     H85805  11.210  11.561  11.250  0.4759 -0.6105  0.5734
  636MOL0     H85806  11.192  11.393  11.272 -0.5238  0.6787 -0.8438
  636MOL0     H85807  11.235  11.595  11.488 -3.2188  0.2705  0.7332
  636MOL0     H85808  11.296  11.420  11.500  3.1706  0.8007 -3.2814
  636MOL0     H85809  11.069  11.476  11.609  0.5367 -1.9423  0.9872
  636MOL0     H85810  11.004  11.504  11.444 -1.0897 -1.2099 -1.1915
  636MOL0     H85811  11.175  11.239  11.646 -1.0311 -0.4837 -0.0554
  636MOL0     H85812  11.222  10.918  11.472 -0.5371 -1.2517 -0.7821
  636MOL0     H85813  11.164  10.969  11.632 -1.3418  2.1748  0.6071
  636MOL0     H85814  10.964  10.878  11.630  2.6863  0.8109  2.0836
  636MOL0     H85815  10.941  10.881  11.460 -0.8269  0.7121  0.0672
  636MOL0     H85816  11.137  10.686  11.462  1.0443  0.8036  0.6208
  636MOL0     H85817  10.978  10.641  11.531  0.4834 -0.9521 -1.1623
  636MOL0     H85818  11.153  10.559  11.679 -0.7962 -0.4109  3.1759
  636MOL0     H85819  11.043  10.679  11.750 -2.6870 -3.9653 -1.1070
  636MOL0     H85820  11.320  10.519  11.526  0.7491  0.4156 -1.7651
  636MOL0     H85821  11.549  10.498  11.479  1.9611  0.0965  1.7735
  636MOL0     H85822  11.969  10.822  11.286 -2.6202 -1.9571  1.9614
  636MOL0     H85823  12.196  10.816  11.248  3.0632 -0.5591  1.3664
  636MOL0     H85824  12.408  10.759  11.218  0.1743  0.8677 -0.8688
  636MOL0     H85825  12.453  10.896  11.310  3.9224 -0.0135 -1.4466
  636MOL0     H85826  12.674  10.817  11.278  0.0382 -1.1015 -3.5497
  636MOL0     H85827  12.613  10.700  11.402  1.9187  0.4698  0.3501
  636MOL0     H85828  12.549  10.544  11.186  0.9398  0.0302 -0.1858
  636MOL0     H85829  12.545  10.688  11.096  2.6963  2.1581 -0.5282
  636MOL0     H85830  12.815  10.704  11.120  0.7013 -0.4970 -0.7245
  636MOL0     H85831  12.753  10.563  11.049 -2.6656  0.3767  0.4968
  636MOL0     H85832  12.774  10.438  11.256  2.5431 -1.6421  0.7359
  636MOL0     H85833  12.813  10.592  11.338  2.3542  3.6437 -1.8820
  636MOL0     H85834  12.976  10.449  11.114  2.4895  0.7931 -0.8249
  636MOL0     H85835  13.015  10.607  11.200 -1.5622  0.7940 -3.4887
  636MOL0     H85836  12.983  10.349  11.347 -1.8802  0.6322  1.0403
  636MOL0     H85837  13.074  10.499  11.402  0.8609 -0.5457  0.1546
  636MOL0     H85838  13.230  10.309  11.345 -0.4318  1.0224  2.0891
  636MOL0     H85839  13.177  10.310  11.179  1.0312 -0.8094  0.3434
  636MOL0     H85840  12.270  10.620  11.627 -1.1454 -0.9355  0.4462
  636MOL0     H85841  12.040  10.641  11.678 -1.1392 -1.2311  0.3177
  636MOL0     H85842  11.631  10.887  11.636 -1.3653  3.2321 -2.8817
  636MOL0     H85843  11.433  10.884  11.736  0.6644 -0.7642  1.2089
  636MOL0     H85844  11.047  11.169  10.660  1.8972 -1.1918  0.9541
  636MOL0     H85845  10.820  11.128  10.595  4.6306 -1.5337 -1.9544
  636MOL0     H85846  10.442  10.990  10.611  0.8061 -0.8713  1.4426
  636MOL0     H85847  10.241  10.912  10.543  0.2743 -0.1067 -1.1264
  636MOL0     H85848  10.024  10.801  10.765  0.6110  1.1988  0.2060
  636MOL0     H85849   9.978  10.788  10.595 -0.5564 -0.2052 -0.0863
  636MOL0     H85850   9.745  10.897  10.693  1.0201  1.6336  2.3631
  636MOL0     H85851   9.819  10.870  10.836 -0.5059  5.1353 -1.7386
  636MOL0     H85852   9.786  10.639  10.632  1.1413  0.2621  1.1731
  636MOL0     H85853   9.647  10.683  10.704  1.2553  0.1782 -3.5550
  636MOL0     H85854   9.768  10.643  10.934 -2.1150 -1.3717  0.6976
  636MOL0     H85855   9.731  10.498  10.844 -0.8561  0.5653  5.2202
  636MOL0     H85856  10.149  10.501  10.810  0.0594  1.3073 -2.9108
  636MOL0     H85857  10.037  11.124  10.849  0.1057  1.8635 -0.5397
  636MOL0     H85858  10.260  11.369  10.891  3.0696 -0.5004 -1.2595
  636MOL0     H85859  10.154  11.277  10.986 -0.4421  0.0498 -0.5874
  636MOL0     H85860  10.331  11.270  11.016 -0.1586  3.3706 -0.3829
  637MOL0     O85861   4.686  10.039   9.317 -0.5656 -0.3546  0.6933
  637MOL0     C85862   4.588   9.993   9.373  0.0399 -1.2529  0.0264
  637MOL0     O85863   4.470  10.060   9.366  0.7951  0.2676 -0.4700
  637MOL0     C85864   4.471  10.196   9.362 -0.2433 -0.5468 -0.4057
  637MOL0     C85865   4.419  10.263   9.252 -0.2323 -0.5988  0.2628
  637MOL0     C85866   4.417  10.405   9.248 -1.1375 -0.8967 -0.6657
  637MOL0     C85867   4.466  10.480   9.358 -0.5888  0.2662 -0.2562
  637MOL0     O85868   4.470  10.617   9.381 -0.4331  0.5218 -0.3629
  637MOL0     C85869   4.439  10.703   9.272  0.1607  0.4058  0.5293
  637MOL0     C85870   4.555  10.706   9.165 -0.1408  1.2576  0.0988
  637MOL0     C85871   4.685  10.780   9.217  0.3143  0.5177  1.0184
  637MOL0     C85872   4.772  10.808   9.097  0.1068 -0.1825  0.5753
  637MOL0     C85873   4.916  10.847   9.148 -0.1337  0.4546  0.0680
  637MOL0     C85874   5.005  10.877   9.018  0.4759 -0.3879  0.3233
  637MOL0     C85875   5.161  10.871   9.038 -0.0507  0.1877  0.5989
  637MOL0     C85876   5.215  11.003   9.101  0.3283  0.5602  0.5725
  637MOL0     N85877   5.357  10.978   9.142 -0.0457 -1.1771 -0.0535
  637MOL0     C85878   5.446  10.890   9.102 -0.2514  0.3107  0.5823
  637MOL0     C85879   5.566  10.919   9.166  0.3403 -0.1612 -0.7675
  637MOL0     C85880   5.695  10.850   9.148  0.6420 -0.3637 -0.3857
  637MOL0     C85881   5.830  10.903   9.195  1.1148  0.6640 -0.1064
  637MOL0     C85882   5.836  10.957   9.336  0.4934  0.7339  0.0204
  637MOL0     C85883   5.980  10.945   9.390  0.3335  0.8324  0.2826
  637MOL0     O85884   6.002  10.807   9.421 -0.4316 -0.1323 -0.3244
  637MOL0     C85885   6.134  10.774   9.463  0.3442 -0.5951 -0.8284
  637MOL0     C85886   6.148  10.646   9.512  0.2569  0.1203  0.2864
  637MOL0     C85887   6.272  10.594   9.541  1.0256 -0.2692 -0.9846
  637MOL0     C85888   6.386  10.665   9.516  0.0961  0.0116  0.0465
  637MOL0     C85889   6.518  10.618   9.548  0.1917 -0.0401  0.1435
  637MOL0     O85890   6.572  10.637   9.673  0.4181 -0.0059  0.1106
  637MOL0     C85891   6.698  10.608   9.703  0.3904  0.2092 -0.7554
  637MOL0     C85892   6.806  10.646   9.628  0.2511 -0.6602 -0.5216
  637MOL0     C85893   6.940  10.606   9.657 -0.0673 -0.9713 -1.9710
  637MOL0     C85894   6.959  10.523   9.765 -0.4536 -0.4407  0.3524
  637MOL0     O85895   7.080  10.470   9.804 -0.4640  0.4495 -0.1923
  637MOL0     C85896   7.202  10.518   9.748  0.3183 -0.2457 -0.5415
  637MOL0     C85897   7.329  10.481   9.821 -0.8888 -0.0238  0.0536
  637MOL0     C85898   7.358  10.552   9.960  0.1787  0.6882  0.5335
  637MOL0     C85899   7.511  10.534  10.010  0.9104 -0.3241 -0.0867
  637MOL0     C85900   7.545  10.619  10.133 -0.4150 -0.7189  0.4242
  637MOL0     C85901   7.533  10.774  10.118 -0.5769  0.1616 -0.1661
  637MOL0     C85902   7.559  10.857  10.249 -0.2630  1.1110 -0.0864
  637MOL0     C85903   7.569  11.016  10.229  0.0235  1.3456 -0.7023
  637MOL0    Cl85904   7.709  11.062  10.128 -0.1901  0.0381  0.0313
  637MOL0     C85905   6.852  10.480   9.845 -0.4669 -0.7752  0.1690
  637MOL0     C85906   6.722  10.524   9.814 -0.4844  1.0179  0.7896
  637MOL0     O85907   6.579  10.559   9.463  0.1785  0.5467  0.3279
  637MOL0     C85908   6.372  10.793   9.470  0.6996  0.8210 -0.1858
  637MOL0     C85909   6.244  10.853   9.442  0.2474  0.7205 -0.2120
  637MOL0     N85910   5.542  11.035   9.243  0.5287  1.3385  0.0765
  637MOL0     N85911   5.417  11.057   9.230 -0.7197 -0.2203  0.3661
  637MOL0     C85912   4.515  10.409   9.469  0.7805  0.1599 -0.4668
  637MOL0     C85913   4.512  10.269   9.470 -0.1751 -0.4698  0.3930
  637MOL0     C85914   4.598   9.864   9.446  0.8614  0.2103 -0.0980
  637MOL0     C85915   4.724   9.836   9.508 -0.5284 -0.5749  0.4068
  637MOL0     C85916   4.729   9.733   9.600  0.5100  0.1709  1.1206
  637MOL0     C85917   4.609   9.666   9.632  1.0843 -0.7922 -0.0535
  637MOL0     O85918   4.632   9.574   9.733  0.2042 -0.0062  0.2582
  637MOL0     C85919   4.521   9.489   9.780  0.2109 -0.4672  0.6023
  637MOL0     C85920   4.565   9.406   9.906 -0.6928 -0.5973 -0.5779
  637MOL0     C85921   4.700   9.334   9.897 -0.1396 -0.2909 -0.0761
  637MOL0     C85922   4.756   9.305  10.039 -0.5321 -0.0188  0.5545
  637MOL0     C85923   4.861   9.204  10.020 -0.3577  0.0458 -0.2785
  637MOL0     C85924   4.944   9.118  10.003  0.4225  0.6016 -0.5402
  637MOL0     C85925   4.487   9.693   9.565  0.7051  0.0971 -0.8635
  637MOL0     C85926   4.486   9.789   9.464  0.3692 -0.0382  0.8566
  637MOL0     C85927   4.359   9.803   9.381  0.6415  0.6104 -0.2401
  637MOL0     H85928   4.371  10.208   9.172  1.5341  0.6435 -1.7750
  637MOL0     H85929   4.373  10.453   9.161 -1.2637 -0.3654 -0.3142
  637MOL0     H85930   4.339  10.674   9.239  0.0563 -2.7876  3.1134
  637MOL0     H85931   4.426  10.804   9.313  0.0923  0.4599  0.3730
  637MOL0     H85932   4.521  10.754   9.072  0.5620  0.0898 -0.7852
  637MOL0     H85933   4.573  10.601   9.141  0.5404  0.2291  4.3413
  637MOL0     H85934   4.740  10.719   9.289  2.3831  3.5540  2.1890
  637MOL0     H85935   4.669  10.872   9.274 -0.0541  0.6250  0.7448
  637MOL0     H85936   4.766  10.717   9.036 -5.1040 -1.5780  2.5794
  637MOL0     H85937   4.729  10.896   9.049 -1.0884 -1.1245 -0.1521
  637MOL0     H85938   4.895  10.934   9.211  0.7223  1.7645 -1.3884
  637MOL0     H85939   4.950  10.772   9.220 -1.1936  0.5779  0.7171
  637MOL0     H85940   4.981  10.792   8.954  0.0058 -0.5099  0.6602
  637MOL0     H85941   4.974  10.968   8.966  2.5057  0.3779  0.3573
  637MOL0     H85942   5.212  10.859   8.942 -0.2721  1.9057  0.2398
  637MOL0     H85943   5.187  10.786   9.101 -3.0766 -0.5403  1.0273
  637MOL0     H85944   5.215  11.087   9.031  3.1303  2.2044  2.3558
  637MOL0     H85945   5.155  11.028   9.189 -0.7586 -1.4229  0.4598
  637MOL0     H85946   5.424  10.830   9.015  2.7915  0.1904 -0.2279
  637MOL0     H85947   5.698  10.756   9.204  1.3612 -0.5123 -0.6591
  637MOL0     H85948   5.703  10.823   9.042 -0.3256  0.3205 -0.6530
  637MOL0     H85949   5.898  10.819   9.186 -1.8158 -1.6930 -2.0681
  637MOL0     H85950   5.858  10.986   9.130 -0.7143  2.3319  1.1059
  637MOL0     H85951   5.778  10.893   9.402  3.0389 -1.5547  0.2063
  637MOL0     H85952   5.794  11.058   9.345 -2.7617 -0.5259  0.2890
  637MOL0     H85953   5.986  10.999   9.485  0.8743 -2.0244  1.9863
  637MOL0     H85954   6.051  10.988   9.318  2.2620 -2.2231  0.2076
  637MOL0     H85955   6.058  10.595   9.544  1.8920 -1.8506  2.0604
  637MOL0     H85956   6.280  10.509   9.608 -0.8994  1.6006  1.8166
  637MOL0     H85957   6.779  10.700   9.537  1.0474 -0.4753 -0.6561
  637MOL0     H85958   7.023  10.640   9.596  1.1924 -2.4285 -1.1464
  637MOL0     H85959   7.205  10.486   9.644  0.1581  2.0066 -1.3011
  637MOL0     H85960   7.181  10.625   9.751 -2.5057 -0.7239  2.0857
  637MOL0     H85961   7.336  10.376   9.852 -0.3442  0.5099  1.8456
  637MOL0     H85962   7.411  10.499   9.750 -0.0589  0.8317  1.1844
  637MOL0     H85963   7.330  10.656   9.945 -0.2270  0.3077 -1.6132
  637MOL0     H85964   7.291  10.502  10.031 -1.8758 -2.6625 -3.3723
  637MOL0     H85965   7.591  10.543   9.935  0.8562 -2.1022 -0.3842
  637MOL0     H85966   7.528  10.428  10.032  2.0226 -0.3609 -1.0289
  637MOL0     H85967   7.652  10.598  10.145 -0.6038 -1.9960  0.0338
  637MOL0     H85968   7.503  10.583  10.228  2.0250 -3.4826  0.6236
  637MOL0     H85969   7.601  10.805  10.038  0.3480  1.9824  1.2561
  637MOL0     H85970   7.427  10.794  10.097 -2.1652 -3.8576  2.6931
  637MOL0     H85971   7.639  10.806  10.304 -1.7815 -4.4859 -2.4212
  637MOL0     H85972   7.466  10.841  10.303  1.4859 -1.2819  2.4712
  637MOL0     H85973   7.476  11.043  10.180  0.2266  0.8214 -1.3944
  637MOL0     H85974   7.567  11.058  10.330 -1.6405  3.5954 -1.5968
  637MOL0     H85975   6.868  10.413   9.929  1.7226 -1.5836 -0.8059
  637MOL0     H85976   6.634  10.493   9.870  0.4406  0.4547  1.9816
  637MOL0     H85977   6.464  10.846   9.449  0.9114  2.2840  3.7408
  637MOL0     H85978   6.241  10.953   9.400 -0.9157  0.8084  0.0491
  637MOL0     H85979   4.565  10.457   9.553 -1.3770 -0.2306  1.1252
  637MOL0     H85980   4.545  10.231   9.566 -0.9306  0.4175  1.0089
  637MOL0     H85981   4.816   9.891   9.492  0.1600 -1.3214  1.6536
  637MOL0     H85982   4.822   9.719   9.654  0.6712  1.4555  1.2112
  637MOL0     H85983   4.492   9.418   9.703  0.3051 -2.9546  2.7046
  637MOL0     H85984   4.430   9.546   9.800 -1.0607 -1.0991 -2.7949
  637MOL0     H85985   4.488   9.338   9.942 -1.7412 -0.0883 -1.7875
  637MOL0     H85986   4.572   9.471   9.994 -3.8169 -4.4864  2.9670
  637MOL0     H85987   4.762   9.407   9.844 -1.8543 -0.1498 -2.0138
  637MOL0     H85988   4.683   9.248   9.831 -1.3843 -0.2105  0.1205
  637MOL0     H85989   4.806   9.393  10.081  0.0621 -0.2044  0.2432
  637MOL0     H85990   4.675   9.266  10.101 -2.0245  1.9895 -0.0302
  637MOL0     H85991   5.023   9.047   9.994 -0.9239 -0.7376 -2.8283
  637MOL0     H85992   4.401   9.631   9.591  1.2261 -0.0274  0.6637
  637MOL0     H85993   4.387   9.814   9.276 -0.4588 -4.1193 -1.2302
  637MOL0     H85994   4.316   9.703   9.385 -2.8941  2.0292  1.7364
  637MOL0     H85995   4.290   9.885   9.405  0.3765 -0.4463  3.0120
  638MOL0     O85996  11.046   4.206   0.376  0.9468  0.5154 -0.7013
  638MOL0     C85997  10.964   4.253   0.454  0.2182  0.1589 -0.2841
  638MOL0     O85998  10.986   4.348   0.544  0.2258 -0.3856  0.1321
  638MOL0     C85999  11.109   4.372   0.603  0.1894 -0.0491  0.5691
  638MOL0     C86000  11.218   4.279   0.605 -0.3566 -0.9092  0.7493
  638MOL0     C86001  11.346   4.311   0.650 -0.3881  0.0619  0.2032
  638MOL0     C86002  11.380   4.433   0.706  0.4988  0.2762 -0.2551
  638MOL0     O86003  11.498   4.479   0.731 -0.7922  0.0175 -0.7627
  638MOL0     C86004  11.526   4.623   0.737 -0.0302  0.9102  0.0913
  638MOL0     C86005  11.671   4.639   0.770  0.1583 -0.8616 -0.3486
  638MOL0     C86006  11.756   4.632   0.645  0.9031 -0.3933 -0.9050
  638MOL0     C86007  11.904   4.660   0.670  0.0592 -0.0493 -0.4417
  638MOL0     C86008  11.981   4.677   0.545  0.1637 -0.2860  0.6016
  638MOL0     C86009  12.017   4.558   0.456 -0.1256  1.3011 -1.0783
  638MOL0     C86010  12.140   4.476   0.498  0.7132 -0.4335  0.4984
  638MOL0     C86011  12.155   4.347   0.407  0.0038 -0.7898  0.1481
  638MOL0     N86012  12.280   4.284   0.446  0.0536 -0.0700 -0.2205
  638MOL0     C86013  12.402   4.339   0.416  0.1412 -0.0957  0.1488
  638MOL0     C86014  12.489   4.243   0.450 -0.1630  0.2915  0.3565
  638MOL0     C86015  12.637   4.249   0.440  0.0770  0.0753  0.0408
  638MOL0     C86016  12.723   4.254   0.568  0.7655 -0.4540 -0.0418
  638MOL0     C86017  12.853   4.329   0.525 -0.2225  0.5023 -0.0189
  638MOL0     C86018  12.952   4.330   0.644 -0.7269 -0.0170 -1.1311
  638MOL0     O86019  13.060   4.421   0.610  0.0055 -0.6600 -0.6959
  638MOL0     C86020  13.158   4.437   0.705  0.2367  0.2361  0.4724
  638MOL0     C86021  13.159   4.383   0.831 -0.0639  0.8008 -0.9152
  638MOL0     C86022  13.270   4.394   0.906  0.0853 -0.4397 -0.1311
  638MOL0     C86023  13.382   4.469   0.866  0.6399  0.3769  0.7088
  638MOL0     C86024  13.500   4.477   0.952 -0.7653  0.7581  0.5434
  638MOL0     O86025  13.620   4.508   0.889 -0.4127 -0.1799 -0.0792
  638MOL0     C86026  13.729   4.532   0.969 -0.8792  0.1566  0.6046
  638MOL0     C86027  13.835   4.442   0.978 -0.4755  0.9293  0.0941
  638MOL0     C86028  13.944   4.472   1.068  0.4995  0.1484  0.4793
  638MOL0     C86029  13.948   4.601   1.126  1.2297 -0.0940  0.2099
  638MOL0     O86030  14.051   4.662   1.185 -0.2911 -0.1409  0.0061
  638MOL0     C86031  14.180   4.594   1.193 -0.0216 -0.0886  0.6321
  638MOL0     C86032  14.290   4.667   1.266 -0.3691 -0.0822 -0.6508
  638MOL0     C86033  14.239   4.699   1.406  0.1087  0.0050  0.5904
  638MOL0     C86034  14.338   4.785   1.492  0.2748 -0.3479  0.5998
  638MOL0     C86035  14.313   4.786   1.645 -0.6385  0.0354 -0.8341
  638MOL0     C86036  14.411   4.881   1.718 -0.7728 -0.8171  0.3710
  638MOL0     C86037  14.548   4.806   1.749  0.4292  0.3949  0.1830
  638MOL0     C86038  14.642   4.892   1.837 -0.7256 -0.0840  0.2869
  638MOL0    Cl86039  14.729   5.006   1.735 -0.0402 -0.2879 -0.3003
  638MOL0     C86040  13.839   4.681   1.116  0.6537 -0.8277 -0.3672
  638MOL0     C86041  13.729   4.647   1.043 -0.2423  0.2369 -0.5667
  638MOL0     O86042  13.492   4.452   1.071 -0.0097 -0.1345 -0.0117
  638MOL0     C86043  13.377   4.536   0.738 -0.5035  0.2016 -0.5511
  638MOL0     C86044  13.264   4.511   0.660 -0.2018  1.0327  0.9318
  638MOL0     N86045  12.422   4.143   0.514 -0.7761  0.0570 -0.5645
  638MOL0     N86046  12.294   4.163   0.499 -0.0097  1.1354  0.1170
  638MOL0     C86047  11.266   4.523   0.719  0.1931  0.5028  0.0383
  638MOL0     C86048  11.134   4.491   0.668 -0.1553  0.5339 -0.9657
  638MOL0     C86049  10.823   4.217   0.444 -0.5485  0.3901 -0.3476
  638MOL0     C86050  10.747   4.196   0.561  0.3851 -0.0608  0.2620
  638MOL0     C86051  10.611   4.165   0.544 -0.5203  0.8214  0.5863
  638MOL0     C86052  10.549   4.128   0.422 -0.1067 -0.5796  0.2106
  638MOL0     O86053  10.417   4.110   0.393 -0.1569 -0.2588  0.1945
  638MOL0     C86054  10.325   4.147   0.499 -1.0849  0.1177  0.8664
  638MOL0     C86055  10.175   4.136   0.451 -0.5102  0.9775 -1.3646
  638MOL0     C86056  10.147   4.233   0.342  0.0782 -0.6682  0.2866
  638MOL0     C86057  10.005   4.231   0.284  0.1921 -0.5753 -0.2370
  638MOL0     C86058   9.941   4.093   0.282 -0.3949 -0.4686  0.9619
  638MOL0     C86059   9.887   3.986   0.287 -0.1348 -0.5993 -0.6599
  638MOL0     C86060  10.630   4.140   0.311  0.0436 -0.3317  0.2028
  638MOL0     C86061  10.768   4.177   0.321  0.7404 -0.6158 -0.7996
  638MOL0     C86062  10.833   4.204   0.184 -0.0266  0.2343 -0.8686
  638MOL0     H86063  11.194   4.180   0.568 -0.0156 -0.8662  0.4061
  638MOL0     H86064  11.425   4.237   0.636  0.1717  0.4524  1.2365
  638MOL0     H86065  11.491   4.667   0.643  2.2405 -0.7287 -1.6410
  638MOL0     H86066  11.458   4.658   0.815 -2.1482  0.4086 -1.4399
  638MOL0     H86067  11.702   4.550   0.826  0.1642 -1.2050 -0.8866
  638MOL0     H86068  11.693   4.732   0.823 -1.4087  0.5396 -2.0093
  638MOL0     H86069  11.721   4.715   0.583  0.4119 -0.4264 -0.6748
  638MOL0     H86070  11.749   4.532   0.602 -2.5147 -1.9260  2.6680
  638MOL0     H86071  11.922   4.744   0.738 -1.8360 -0.2414  0.3506
  638MOL0     H86072  11.937   4.568   0.720  0.0273  0.9452  1.5048
  638MOL0     H86073  11.921   4.736   0.476  2.3892 -0.6443 -1.8154
  638MOL0     H86074  12.069   4.737   0.571 -0.5791  1.3315 -0.3952
  638MOL0     H86075  11.929   4.494   0.441 -1.8242  2.6925  1.9454
  638MOL0     H86076  12.034   4.601   0.357 -0.5137  2.9755 -0.4492
  638MOL0     H86077  12.134   4.446   0.603 -2.6440  1.5376  1.0050
  638MOL0     H86078  12.235   4.528   0.484 -0.9453  2.8226  0.4823
  638MOL0     H86079  12.073   4.277   0.426 -2.2731  1.7393  0.2605
  638MOL0     H86080  12.156   4.375   0.301 -1.3595  2.6351  0.8905
  638MOL0     H86081  12.426   4.432   0.365  1.2239 -0.9973 -1.0587
  638MOL0     H86082  12.670   4.166   0.377 -1.6488  0.1575 -1.0162
  638MOL0     H86083  12.659   4.339   0.382 -1.8873 -0.1452 -1.1305
  638MOL0     H86084  12.685   4.319   0.647  2.1662 -1.5997  1.6568
  638MOL0     H86085  12.744   4.154   0.607  0.4115  0.1179  1.6722
  638MOL0     H86086  12.829   4.426   0.481 -5.4198 -1.5440 -2.6294
  638MOL0     H86087  12.890   4.278   0.436 -1.6753  2.3510 -1.7944
  638MOL0     H86088  12.984   4.226   0.656  2.8688  0.7414 -2.9192
  638MOL0     H86089  12.903   4.371   0.732 -0.7712  0.7156 -1.4867
  638MOL0     H86090  13.081   4.327   0.882 -0.6292  3.3054  1.1943
  638MOL0     H86091  13.274   4.361   1.009  2.5313 -0.3269 -0.1177
  638MOL0     H86092  13.830   4.356   0.912  1.4117  0.9335 -0.0972
  638MOL0     H86093  14.030   4.407   1.083 -1.9531 -3.8231 -1.2943
  638MOL0     H86094  14.153   4.500   1.240 -0.3900 -0.0304  0.5399
  638MOL0     H86095  14.213   4.586   1.089 -2.6748  2.1264 -0.5064
  638MOL0     H86096  14.386   4.614   1.260  0.6078  1.5838 -0.4416
  638MOL0     H86097  14.325   4.760   1.221  0.8513  1.7737  3.5667
  638MOL0     H86098  14.146   4.757   1.396  1.1005  2.2548  3.2422
  638MOL0     H86099  14.228   4.610   1.469 -0.9566  1.9880  3.4006
  638MOL0     H86100  14.347   4.887   1.455  0.5713 -1.2610 -2.0396
  638MOL0     H86101  14.437   4.744   1.474  0.9265  2.3732 -3.4296
  638MOL0     H86102  14.313   4.687   1.693  0.1111  0.2801 -0.3082
  638MOL0     H86103  14.208   4.817   1.649 -0.0476  2.0994  0.2563
  638MOL0     H86104  14.424   4.961   1.644 -2.7721 -1.5557 -0.8571
  638MOL0     H86105  14.365   4.921   1.809 -3.1274 -2.3432 -0.0855
  638MOL0     H86106  14.607   4.783   1.659 -1.7431  3.2320 -2.1966
  638MOL0     H86107  14.516   4.713   1.797 -0.7606  0.4228 -0.5069
  638MOL0     H86108  14.588   4.942   1.918 -2.3748  0.5442 -1.1502
  638MOL0     H86109  14.716   4.821   1.874  0.1901 -0.4574 -2.0744
  638MOL0     H86110  13.831   4.781   1.159 -0.0065 -0.2787 -1.6996
  638MOL0     H86111  13.637   4.704   1.040 -3.0650 -3.6787  1.9886
  638MOL0     H86112  13.454   4.602   0.701 -0.3718 -1.3853 -3.4252
  638MOL0     H86113  13.265   4.551   0.559  1.1795  0.4134  0.6803
  638MOL0     H86114  11.266   4.621   0.765 -0.4570  0.3000  0.4892
  638MOL0     H86115  11.052   4.552   0.702 -1.5219 -1.5542 -0.3602
  638MOL0     H86116  10.786   4.192   0.662 -2.2327 -3.6531  1.3799
  638MOL0     H86117  10.537   4.177   0.622 -0.1478 -1.3215  1.3553
  638MOL0     H86118  10.348   4.250   0.531 -1.9156  1.0206 -1.2718
  638MOL0     H86119  10.346   4.082   0.584  0.7469  0.7623  0.9517
  638MOL0     H86120  10.104   4.153   0.533  0.2985  1.8335 -0.8181
  638MOL0     H86121  10.164   4.034   0.413 -0.6349  0.7790 -0.8071
  638MOL0     H86122  10.216   4.222   0.258 -0.1301 -1.4442  0.2141
  638MOL0     H86123  10.171   4.333   0.380  1.2492 -1.5196  1.9165
  638MOL0     H86124   9.957   4.281   0.368  1.4072  0.0943  0.0746
  638MOL0     H86125  10.007   4.301   0.200 -2.0532 -0.6040 -0.3729
  638MOL0     H86126   9.821   3.902   0.296 -3.4431  2.0216  1.8155
  638MOL0     H86127  10.586   4.127   0.213 -0.5471  0.0691  0.4132
  638MOL0     H86128  10.840   4.312   0.166 -3.5864  0.5751 -1.0322
  638MOL0     H86129  10.924   4.149   0.159  1.0003  2.9356 -3.7708
  638MOL0     H86130  10.761   4.168   0.110 -0.5954  0.1621 -0.2930
  639MOL0     O86131   6.073   2.849  10.888 -0.1995  0.4856  0.5400
  639MOL0     C86132   6.126   2.854  10.773  0.9436  0.3649 -0.0734
  639MOL0     O86133   6.232   2.931  10.735  0.2817 -0.4139  0.1499
  639MOL0     C86134   6.298   3.011  10.821  0.6044 -1.4035 -0.4158
  639MOL0     C86135   6.348   2.974  10.943  0.2334 -0.1940  0.4106
  639MOL0     C86136   6.439   3.055  11.017 -0.3663  0.4275 -0.0139
  639MOL0     C86137   6.501   3.167  10.971 -0.2682 -0.1524 -0.3636
  639MOL0     O86138   6.599   3.233  11.042 -0.2480  0.2167 -0.9030
  639MOL0     C86139   6.692   3.325  10.971 -0.1713  0.1797  0.4416
  639MOL0     C86140   6.799   3.378  11.065 -0.1908  0.6412  0.1776
  639MOL0     C86141   6.939   3.420  11.005  0.1446  0.7367 -0.1247
  639MOL0     C86142   7.023   3.480  11.115 -0.3001 -0.5815  0.5800
  639MOL0     C86143   7.166   3.525  11.077 -1.3749 -0.2106  0.0296
  639MOL0     C86144   7.247   3.585  11.195 -0.5589  0.5298 -0.2871
  639MOL0     C86145   7.385   3.638  11.148  0.9272 -0.3811 -0.5165
  639MOL0     C86146   7.444   3.738  11.263 -0.2088 -0.1775 -0.2177
  639MOL0     N86147   7.578   3.805  11.218  0.4959  0.5979  0.3532
  639MOL0     C86148   7.691   3.732  11.188  0.1194  0.1581 -0.2413
  639MOL0     C86149   7.770   3.824  11.136  0.0920  0.6907 -0.1845
  639MOL0     C86150   7.908   3.812  11.089 -0.0968 -0.2217  0.1733
  639MOL0     C86151   8.007   3.843  11.204  0.8078  0.0990  0.0498
  639MOL0     C86152   8.017   3.994  11.238 -0.0932 -0.1716  1.0694
  639MOL0     C86153   8.168   4.030  11.280 -0.2419 -0.7111 -1.4156
  639MOL0     O86154   8.165   4.147  11.366  0.7373  0.1083 -0.3095
  639MOL0     C86155   8.289   4.185  11.404 -0.1371  0.0573 -0.4008
  639MOL0     C86156   8.410   4.123  11.364  0.7247  0.4169 -1.1542
  639MOL0     C86157   8.532   4.175  11.410  0.2781 -0.5852 -0.5363
  639MOL0     C86158   8.534   4.280  11.501 -1.0333 -0.3934  0.3939
  639MOL0     C86159   8.667   4.330  11.541 -0.1993 -0.3070 -0.9575
  639MOL0     O86160   8.771   4.291  11.463 -0.1428  0.4449  0.2601
  639MOL0     C86161   8.901   4.333  11.466  0.5996 -0.6938 -0.2321
  639MOL0     C86162   8.968   4.371  11.586  0.7575 -0.1409  0.3314
  639MOL0     C86163   9.093   4.436  11.582  0.0728 -0.0552  0.4883
  639MOL0     C86164   9.160   4.446  11.458 -0.8584  0.3121 -0.2045
  639MOL0     O86165   9.283   4.511  11.441 -0.5513 -0.6138 -0.7557
  639MOL0     C86166   9.370   4.543  11.554  0.5757 -0.4640 -0.1534
  639MOL0     C86167   9.504   4.593  11.494  0.0976  0.3875 -0.6298
  639MOL0     C86168   9.624   4.581  11.592  0.2706  0.3256  0.0814
  639MOL0     C86169   9.737   4.683  11.573 -0.5721 -0.2452  0.3645
  639MOL0     C86170   9.838   4.689  11.682 -0.0533 -0.6508 -0.4619
  639MOL0     C86171   9.950   4.584  11.674  0.0107  0.2676  0.4429
  639MOL0     C86172  10.064   4.600  11.582 -0.0996  0.2933  0.1565
  639MOL0     C86173  10.185   4.681  11.640 -0.0494 -0.0969  1.0582
  639MOL0    Cl86174  10.238   4.589  11.794 -0.2203 -0.1958  0.2095
  639MOL0     C86175   9.094   4.403  11.338  1.1128 -0.1248 -0.2622
  639MOL0     C86176   8.966   4.339  11.349  0.0337 -0.7014 -0.2739
  639MOL0     O86177   8.673   4.393  11.648 -0.4440  0.0212 -0.2950
  639MOL0     C86178   8.412   4.337  11.553 -2.1999  0.1754  0.7543
  639MOL0     C86179   8.294   4.293  11.494  0.0094  0.1799 -0.1316
  639MOL0     N86180   7.693   3.940  11.130 -0.6791  0.0227  0.7544
  639MOL0     N86181   7.579   3.939  11.176  0.5798  0.5650  0.3913
  639MOL0     C86182   6.459   3.205  10.836 -0.1721  0.1852 -0.4116
  639MOL0     C86183   6.359   3.129  10.775 -0.5296 -0.1448  0.6407
  639MOL0     C86184   6.075   2.752  10.684 -0.6699  1.1618  0.0817
  639MOL0     C86185   6.003   2.640  10.732 -0.4746 -0.6109 -0.1355
  639MOL0     C86186   5.961   2.534  10.651  0.5691  0.2201 -0.0881
  639MOL0     C86187   5.973   2.545  10.513 -1.0329 -0.5357  0.1527
  639MOL0     O86188   5.931   2.450  10.421 -0.3249 -0.4029 -0.3054
  639MOL0     C86189   5.879   2.325  10.457 -0.2924  0.5276  0.3017
  639MOL0     C86190   5.824   2.241  10.337 -0.4709  0.0237 -0.1298
  639MOL0     C86191   5.732   2.317  10.247  0.8612  0.4699 -0.6057
  639MOL0     C86192   5.590   2.340  10.292 -1.1138 -0.4575 -0.4096
  639MOL0     C86193   5.586   2.440  10.403 -0.5791  0.2848 -0.1397
  639MOL0     C86194   5.582   2.535  10.489  0.7750 -0.6940  0.3920
  639MOL0     C86195   6.034   2.663  10.461  0.3021  0.9752 -0.0088
  639MOL0     C86196   6.083   2.763  10.543 -0.5333  0.6208  0.5158
  639MOL0     C86197   6.153   2.873  10.474  0.4632 -0.2166  0.2113
  639MOL0     H86198   6.325   2.881  10.995 -1.1659 -1.2054 -1.8860
  639MOL0     H86199   6.473   3.013  11.112 -2.3297 -1.6562 -0.1400
  639MOL0     H86200   6.747   3.277  10.889 -2.3338 -1.9092  0.1010
  639MOL0     H86201   6.645   3.412  10.924  1.5451 -0.4732 -2.8250
  639MOL0     H86202   6.831   3.298  11.134 -0.5201 -1.7385 -2.2481
  639MOL0     H86203   6.756   3.462  11.120 -0.4483  0.5060  0.1826
  639MOL0     H86204   6.934   3.489  10.920  1.4513  1.7527  0.5937
  639MOL0     H86205   6.995   3.335  10.965 -0.3288  1.2828 -2.0502
  639MOL0     H86206   6.960   3.558  11.158  2.5567  2.7927 -0.9241
  639MOL0     H86207   7.033   3.402  11.191 -1.6997 -1.6453 -0.2756
  639MOL0     H86208   7.234   3.444  11.049 -1.1524 -0.4544  1.2003
  639MOL0     H86209   7.151   3.609  11.009 -3.3418  2.2803  3.2602
  639MOL0     H86210   7.191   3.669  11.238 -1.6472  0.6158 -1.8005
  639MOL0     H86211   7.265   3.507  11.269  1.5375 -0.4498 -1.7431
  639MOL0     H86212   7.362   3.699  11.060  1.7587 -1.3715 -1.4572
  639MOL0     H86213   7.455   3.557  11.126 -0.1447 -3.4122  5.1863
  639MOL0     H86214   7.376   3.819  11.291 -0.9338 -0.6354 -0.6052
  639MOL0     H86215   7.474   3.681  11.351  2.8970  2.1438  0.4039
  639MOL0     H86216   7.708   3.629  11.215 -2.8032  0.1913  2.2459
  639MOL0     H86217   7.939   3.713  11.052  1.3189  0.2651 -0.0050
  639MOL0     H86218   7.921   3.886  11.010  0.5824 -1.0882 -0.5488
  639MOL0     H86219   7.982   3.783  11.293  2.2976 -2.7350 -1.2983
  639MOL0     H86220   8.103   3.813  11.161  0.2223 -0.3572 -0.9697
  639MOL0     H86221   7.948   4.018  11.319  0.9026 -0.6027  2.0788
  639MOL0     H86222   7.992   4.046  11.145  3.3770 -1.9908 -1.1063
  639MOL0     H86223   8.225   4.051  11.189  1.0535  1.4452 -0.1998
  639MOL0     H86224   8.210   3.940  11.325 -0.7361  0.0843  0.7837
  639MOL0     H86225   8.419   4.046  11.287  2.8253  0.1545 -0.7159
  639MOL0     H86226   8.621   4.126  11.370  0.2333 -0.6677 -0.5354
  639MOL0     H86227   8.915   4.376  11.680 -0.2516 -0.4435 -0.2002
  639MOL0     H86228   9.138   4.472  11.673 -1.7621  0.0779  1.3922
  639MOL0     H86229   9.332   4.634  11.600  1.1118 -1.8243  3.3091
  639MOL0     H86230   9.382   4.463  11.628 -0.4505  1.9464  2.8018
  639MOL0     H86231   9.524   4.523  11.413  2.5617  0.2045  0.0758
  639MOL0     H86232   9.502   4.693  11.450 -0.5114  0.0535 -1.3880
  639MOL0     H86233   9.589   4.595  11.694  0.5157  0.5541  0.1336
  639MOL0     H86234   9.659   4.477  11.591  2.0990  0.8787  1.6117
  639MOL0     H86235   9.683   4.778  11.567  4.2578  2.8257  0.1580
  639MOL0     H86236   9.785   4.670  11.475 -0.5495  2.6770 -0.1250
  639MOL0     H86237   9.785   4.675  11.777 -3.1157  0.1253 -1.8988
  639MOL0     H86238   9.886   4.787  11.691 -0.3205 -0.5599  0.0077
  639MOL0     H86239   9.975   4.559  11.777 -0.4884 -2.2995  0.0230
  639MOL0     H86240   9.903   4.495  11.630  1.2898  1.3621 -3.5725
  639MOL0     H86241  10.023   4.649  11.493 -1.1432  1.1914  1.1028
  639MOL0     H86242  10.104   4.501  11.558 -1.1044  0.0861 -0.7785
  639MOL0     H86243  10.265   4.669  11.566 -2.1000 -2.3840 -0.9741
  639MOL0     H86244  10.162   4.783  11.670 -2.1763 -0.3813  0.5609
  639MOL0     H86245   9.152   4.405  11.246 -0.1200 -2.5305 -1.1889
  639MOL0     H86246   8.929   4.294  11.257 -0.6469  1.9023 -1.3578
  639MOL0     H86247   8.411   4.423  11.619  0.3754  1.3360 -0.5373
  639MOL0     H86248   8.202   4.343  11.524 -0.3380 -0.0149 -0.8689
  639MOL0     H86249   6.496   3.290  10.780 -0.2021  0.1748 -0.4472
  639MOL0     H86250   6.337   3.161  10.674 -0.6165 -0.9190  0.4065
  639MOL0     H86251   5.970   2.631  10.835 -0.4907 -2.3093 -0.2707
  639MOL0     H86252   5.919   2.445  10.698  2.4517 -0.9964 -0.5858
  639MOL0     H86253   5.790   2.332  10.520 -0.9799 -1.2257 -0.4195
  639MOL0     H86254   5.958   2.278  10.517 -0.5725  1.1438  1.1720
  639MOL0     H86255   5.794   2.141  10.371  1.9718 -0.8998 -0.4233
  639MOL0     H86256   5.914   2.225  10.277  1.1067  2.0524  1.5306
  639MOL0     H86257   5.746   2.271  10.149 -1.1082 -0.1244 -0.6694
  639MOL0     H86258   5.771   2.414  10.218  1.0008 -0.0970 -2.4206
  639MOL0     H86259   5.537   2.374  10.203 -1.5675  0.9018  0.3364
  639MOL0     H86260   5.542   2.252  10.335 -0.1136 -0.5174  0.6340
  639MOL0     H86261   5.575   2.615  10.560  2.9143 -0.1288  0.0377
  639MOL0     H86262   6.055   2.680  10.356 -0.1811 -0.9423 -0.4596
  639MOL0     H86263   6.257   2.841  10.469  1.6343  3.4050 -1.7034
  639MOL0     H86264   6.107   2.889  10.376 -3.2515 -1.9062  1.4574
  639MOL0     H86265   6.146   2.973  10.517 -2.6899  0.2482 -1.0751
  640MOL0     O86266   8.189   1.044  10.821  0.3783 -0.0653 -0.8831
  640MOL0     C86267   8.249   0.935  10.827  0.1798  1.2929 -0.7267
  640MOL0     O86268   8.337   0.891  10.931  0.1370 -0.3686 -0.2114
  640MOL0     C86269   8.373   0.978  11.035  0.5284  0.1028  0.5268
  640MOL0     C86270   8.359   1.118  11.039 -0.4129 -0.3980  0.4632
  640MOL0     C86271   8.402   1.183  11.152  0.6844 -0.0100  0.5482
  640MOL0     C86272   8.454   1.112  11.266  0.3658 -0.5342  0.2627
  640MOL0     O86273   8.495   1.195  11.369 -0.6147  0.6918 -0.1378
  640MOL0     C86274   8.613   1.141  11.436 -0.0884 -0.2744  0.1579
  640MOL0     C86275   8.702   1.237  11.489 -0.2794  0.5060 -0.6407
  640MOL0     C86276   8.840   1.180  11.518 -0.1779 -0.4737  0.0375
  640MOL0     C86277   8.932   1.290  11.568 -0.7866 -0.0242 -0.1534
  640MOL0     C86278   9.077   1.232  11.585  0.2775  0.0815  0.1584
  640MOL0     C86279   9.171   1.331  11.650  0.5738  0.1134 -0.8553
  640MOL0     C86280   9.316   1.271  11.670  0.4560  0.4490 -0.1026
  640MOL0     C86281   9.408   1.367  11.761  0.2036 -0.8746  0.0106
  640MOL0     N86282   9.548   1.320  11.757  0.2640 -0.1915 -0.4240
  640MOL0     C86283   9.629   1.373  11.660 -0.0999  0.5145  0.6844
  640MOL0     C86284   9.753   1.337  11.702  0.6849  0.1968  0.4455
  640MOL0     C86285   9.877   1.371  11.627 -0.3013  0.4266  0.3191
  640MOL0     C86286   9.951   1.498  11.671 -0.7246 -0.1496 -0.1728
  640MOL0     C86287   9.998   1.495  11.815 -0.4092 -0.4212 -0.3129
  640MOL0     C86288  10.080   1.368  11.860 -0.1631 -0.4477  0.4517
  640MOL0     O86289  10.200   1.359  11.788  0.3560 -0.3268  0.6989
  640MOL0     C86290  10.324   1.386  11.848 -0.6521  0.0455  0.0059
  640MOL0     C86291  10.431   1.298  11.827  0.3638 -0.5384  0.5497
  640MOL0     C86292  10.563   1.307  11.892  0.2598 -0.2445 -0.3680
  640MOL0     C86293  10.587   1.431  11.956  0.2001 -0.2052  0.1018
  640MOL0     C86294  10.722   1.467  11.994 -0.2965 -0.3503  0.2800
  640MOL0     O86295  10.828   1.402  11.922 -0.2157  0.3689  0.0550
  640MOL0     C86296  10.957   1.448  11.931  0.7619  0.4318  0.4424
  640MOL0     C86297  11.000   1.580  11.968 -0.4389  1.1065  0.5934
  640MOL0     C86298  11.132   1.616  11.971 -0.4381 -0.1863 -1.1052
  640MOL0     C86299  11.231   1.521  11.934 -0.5860  0.4327 -0.1062
  640MOL0     O86300  11.363   1.558  11.932 -0.1485 -0.1293  0.2503
  640MOL0     C86301  11.465   1.470  11.989  0.6105  0.0709  0.4781
  640MOL0     C86302  11.596   1.535  12.017  0.1013 -0.1963  0.0721
  640MOL0     C86303  11.665   1.611  11.907  0.4653 -0.7322  0.1514
  640MOL0     C86304  11.803   1.656  11.939 -0.4013  0.1715 -0.9334
  640MOL0     C86305  11.855   1.762  11.842  0.3679 -0.4653  0.4167
  640MOL0     C86306  11.997   1.802  11.865  0.1235 -0.2010  0.7698
  640MOL0     C86307  12.100   1.701  11.829  0.5280  0.8324 -0.0913
  640MOL0     C86308  12.107   1.680  11.683 -0.8791  0.0095 -0.4006
  640MOL0    Cl86309  12.272   1.608  11.648  0.0042  0.1073  0.1861
  640MOL0     C86310  11.194   1.390  11.895 -0.8198  0.5488 -0.6191
  640MOL0     C86311  11.060   1.354  11.902 -0.4989  0.5812  0.5818
  640MOL0     O86312  10.731   1.540  12.096 -1.0709  0.0980  0.1339
  640MOL0     C86313  10.479   1.512  11.988 -0.4558 -0.0084  0.0554
  640MOL0     C86314  10.357   1.489  11.941  0.6290 -0.3946  0.3252
  640MOL0     N86315   9.742   1.260  11.817  0.2953  0.6465 -0.2351
  640MOL0     N86316   9.621   1.251  11.852  0.5340 -0.7563  0.0522
  640MOL0     C86317   8.470   0.971  11.260  0.6833 -1.0675  0.3695
  640MOL0     C86318   8.434   0.911  11.140  0.0464  1.0675 -0.3263
  640MOL0     C86319   8.229   0.831  10.722  0.5789  0.4953  0.4542
  640MOL0     C86320   8.158   0.869  10.611 -0.7744 -0.6656  0.0927
  640MOL0     C86321   8.124   0.780  10.512  1.4376  0.2036  0.2893
  640MOL0     C86322   8.170   0.646  10.514 -0.7521  0.3665  0.1167
  640MOL0     O86323   8.149   0.550  10.419  0.0066  0.3079 -0.8003
  640MOL0     C86324   8.062   0.570  10.305 -0.5951  0.3405  0.3802
  640MOL0     C86325   8.039   0.434  10.234 -0.2207  0.9175 -0.0619
  640MOL0     C86326   8.157   0.411  10.144 -0.3598  0.4777 -0.0996
  640MOL0     C86327   8.166   0.273  10.076  0.3304  0.8508  0.9679
  640MOL0     C86328   8.289   0.251   9.997 -0.3878 -0.7832  0.2949
  640MOL0     C86329   8.385   0.235   9.926  0.1767  0.5169 -0.6844
  640MOL0     C86330   8.241   0.608  10.629  0.4073 -1.1397  0.7017
  640MOL0     C86331   8.269   0.689  10.729  0.2765 -0.3374 -0.0604
  640MOL0     C86332   8.363   0.629  10.834  0.5062 -0.5736 -0.1475
  640MOL0     H86333   8.308   1.176  10.963 -2.9621 -0.5549  1.9628
  640MOL0     H86334   8.388   1.290  11.162 -0.4833 -0.1785  0.8983
  640MOL0     H86335   8.582   1.081  11.522  2.1050  1.3158  2.1667
  640MOL0     H86336   8.677   1.084  11.367  5.3967  2.5611  2.2561
  640MOL0     H86337   8.660   1.272  11.584 -2.1517 -0.2514 -1.1453
  640MOL0     H86338   8.713   1.318  11.417  0.7866 -0.0734 -1.1618
  640MOL0     H86339   8.880   1.123  11.433  0.5863 -0.1449  0.1677
  640MOL0     H86340   8.829   1.118  11.608  0.9958 -2.4642 -1.1024
  640MOL0     H86341   8.939   1.366  11.489 -0.1946  0.8903  0.7576
  640MOL0     H86342   8.900   1.345  11.656  2.1489  0.0987  0.9501
  640MOL0     H86343   9.079   1.141  11.645 -0.3515 -0.1867 -0.2200
  640MOL0     H86344   9.108   1.197  11.486 -2.4153 -0.6426 -0.5238
  640MOL0     H86345   9.190   1.414  11.581  1.3432 -0.0735 -0.8794
  640MOL0     H86346   9.129   1.368  11.743  2.4179 -1.1401  0.5629
  640MOL0     H86347   9.360   1.267  11.570  0.3168 -0.7737 -0.1259
  640MOL0     H86348   9.312   1.171  11.714 -3.1074 -0.3646 -1.9444
  640MOL0     H86349   9.396   1.463  11.709  0.1628 -1.2841 -0.7509
  640MOL0     H86350   9.364   1.381  11.860  0.2449  3.0699 -0.3500
  640MOL0     H86351   9.595   1.432  11.575  0.2500  2.3829  1.7755
  640MOL0     H86352   9.949   1.293  11.654 -0.9066  0.1552  1.1946
  640MOL0     H86353   9.870   1.359  11.519 -0.6551 -2.2076  0.5752
  640MOL0     H86354  10.042   1.515  11.613 -1.0546 -0.5099 -0.8123
  640MOL0     H86355   9.873   1.571  11.652 -1.0500 -0.0570  1.4116
  640MOL0     H86356   9.908   1.482  11.876 -1.5437  0.4141 -1.7400
  640MOL0     H86357  10.058   1.580  11.848 -0.8688  0.0275 -0.6233
  640MOL0     H86358  10.024   1.275  11.849  0.7670 -0.8740 -0.7785
  640MOL0     H86359  10.103   1.377  11.967  0.1203 -1.0761  0.4427
  640MOL0     H86360  10.407   1.214  11.763  1.1058  0.1741 -0.7060
  640MOL0     H86361  10.648   1.240  11.876  0.9470 -0.1702  2.4059
  640MOL0     H86362  10.934   1.664  11.982  0.1911  1.1810  3.9173
  640MOL0     H86363  11.157   1.721  11.985  2.0967 -0.7862 -0.6839
  640MOL0     H86364  11.426   1.419  12.077 -3.3241 -2.3828 -2.3647
  640MOL0     H86365  11.475   1.390  11.915  1.0542  1.2247 -0.7625
  640MOL0     H86366  11.583   1.611  12.095  0.7297  0.4507 -0.4472
  640MOL0     H86367  11.666   1.465  12.063  0.1435 -0.3368 -0.2083
  640MOL0     H86368  11.658   1.556  11.813  1.6538  0.1077 -0.4556
  640MOL0     H86369  11.614   1.708  11.906 -0.4843 -1.1423  2.1594
  640MOL0     H86370  11.870   1.569  11.937 -0.3608  0.1022  1.2873
  640MOL0     H86371  11.802   1.701  12.039 -3.0623 -1.2371 -0.2466
  640MOL0     H86372  11.789   1.848  11.838 -1.7941 -2.0891 -1.6513
  640MOL0     H86373  11.852   1.725  11.739  2.1260  0.8208 -0.1511
  640MOL0     H86374  12.015   1.892  11.807 -0.3036 -1.0083 -0.6477
  640MOL0     H86375  12.023   1.824  11.969  3.2363 -0.4809  0.1618
  640MOL0     H86376  12.074   1.604  11.872 -1.4915  0.2058 -2.5157
  640MOL0     H86377  12.198   1.732  11.867 -0.5575  0.8903  2.9634
  640MOL0     H86378  12.030   1.606  11.658  0.3343 -1.0690 -1.0611
  640MOL0     H86379  12.087   1.769  11.623 -0.8167  0.2609 -0.0508
  640MOL0     H86380  11.278   1.331  11.861  2.3521  2.5492  2.9466
  640MOL0     H86381  11.038   1.249  11.888 -0.0284  0.4121  1.0834
  640MOL0     H86382  10.487   1.606  12.041 -1.8187  0.6895 -0.9028
  640MOL0     H86383  10.288   1.572  11.949  0.8438 -0.2767  1.0074
  640MOL0     H86384   8.500   0.919  11.351 -0.2722  0.2487  1.4828
  640MOL0     H86385   8.452   0.804  11.146  2.0884  1.4040  0.5553
  640MOL0     H86386   8.120   0.969  10.596 -1.1186 -0.5057  1.7601
  640MOL0     H86387   8.067   0.803  10.422  1.4595 -3.3495 -0.7783
  640MOL0     H86388   8.102   0.643  10.234 -1.8934 -0.7035 -1.4790
  640MOL0     H86389   7.963   0.606  10.333 -0.6508  0.2239  0.3279
  640MOL0     H86390   7.945   0.442  10.179 -1.7905 -1.1270  2.1586
  640MOL0     H86391   8.036   0.351  10.306 -1.0029 -0.1349 -1.2690
  640MOL0     H86392   8.251   0.429  10.198 -0.1460  4.5455 -1.5223
  640MOL0     H86393   8.143   0.484  10.064 -2.3560  0.7362  0.4282
  640MOL0     H86394   8.177   0.201  10.158 -3.5376  0.8047  1.6252
  640MOL0     H86395   8.073   0.254  10.022  0.6154 -0.1239  0.7952
  640MOL0     H86396   8.471   0.208   9.867  0.9767 -1.4152  1.2401
  640MOL0     H86397   8.273   0.505  10.623  1.1105 -0.9003 -3.9950
  640MOL0     H86398   8.457   0.686  10.836 -0.4291  1.0496 -0.5512
  640MOL0     H86399   8.322   0.647  10.934  2.4530  0.8354  0.4745
  640MOL0     H86400   8.380   0.521  10.827  0.1769 -0.9594  3.2263
  641MOL0     O86401  10.277   7.114   6.490  0.3571  0.0491  0.0444
  641MOL0     C86402  10.254   6.990   6.487 -0.7203  0.0126 -0.5268
  641MOL0     O86403  10.134   6.937   6.533  0.3319 -0.0690 -0.1462
  641MOL0     C86404  10.068   6.999   6.637 -0.0610 -0.4496  1.1143
  641MOL0     C86405   9.928   7.005   6.619  0.5269  0.2788 -1.1209
  641MOL0     C86406   9.853   7.069   6.717 -0.0958  0.4397  0.7701
  641MOL0     C86407   9.913   7.145   6.811  0.2993 -1.4512 -0.2947
  641MOL0     O86408   9.840   7.218   6.903 -0.2734 -0.0500 -0.1957
  641MOL0     C86409   9.719   7.284   6.858 -1.1554 -0.1116  0.4451
  641MOL0     C86410   9.597   7.207   6.896  0.1008 -0.7717 -0.2282
  641MOL0     C86411   9.570   7.205   7.050  0.2146 -0.2419 -0.1140
  641MOL0     C86412   9.483   7.318   7.102  0.9595 -0.3967  0.4205
  641MOL0     C86413   9.436   7.311   7.249 -0.6609  0.6016  0.4341
  641MOL0     C86414   9.327   7.427   7.276 -0.1172 -0.0912 -0.0625
  641MOL0     C86415   9.344   7.467   7.425  0.2590 -1.2696  0.4442
  641MOL0     C86416   9.279   7.387   7.531 -0.3193 -0.5611  0.0746
  641MOL0     N86417   9.133   7.402   7.533  0.3306  0.2955  0.3596
  641MOL0     C86418   9.072   7.526   7.513  0.5262 -0.3395  0.2214
  641MOL0     C86419   8.943   7.492   7.524  0.5722  0.2837  0.6358
  641MOL0     C86420   8.827   7.588   7.497 -0.0264  0.1171 -0.0977
  641MOL0     C86421   8.726   7.598   7.611 -0.4905 -0.7874 -0.8878
  641MOL0     C86422   8.798   7.650   7.732 -0.2597 -0.4578  0.1467
  641MOL0     C86423   8.691   7.682   7.846 -0.0612 -0.1539 -0.0978
  641MOL0     O86424   8.753   7.712   7.972  0.0826  0.0120 -0.1089
  641MOL0     C86425   8.801   7.614   8.056 -0.1320 -0.4060  0.0469
  641MOL0     C86426   8.806   7.478   8.035  0.2889  0.8251  0.0036
  641MOL0     C86427   8.883   7.393   8.126  1.2415 -0.2365  0.3359
  641MOL0     C86428   8.961   7.451   8.224 -0.4752 -0.1898  0.1933
  641MOL0     C86429   9.045   7.365   8.306  0.2010  0.0568 -0.3194
  641MOL0     O86430   9.120   7.416   8.400 -0.4576 -0.1938 -0.6263
  641MOL0     C86431   9.198   7.337   8.483 -2.0020  0.3185 -0.0581
  641MOL0     C86432   9.283   7.402   8.580  0.7021  0.2394  0.5437
  641MOL0     C86433   9.373   7.340   8.658  0.0755 -0.0112 -0.3386
  641MOL0     C86434   9.391   7.199   8.660  0.6130 -0.0459  0.5258
  641MOL0     O86435   9.475   7.148   8.759  0.5140 -0.2840  0.4472
  641MOL0     C86436   9.502   7.009   8.775 -0.5951  1.0472 -0.9905
  641MOL0     C86437   9.592   6.992   8.907  0.0981  0.3487 -0.0313
  641MOL0     C86438   9.744   7.010   8.886 -0.2616 -0.6063  0.5980
  641MOL0     C86439   9.771   7.146   8.824 -0.4732 -0.6584 -0.0561
  641MOL0     C86440   9.919   7.184   8.835  0.4299 -0.1421  0.0668
  641MOL0     C86441   9.963   7.231   8.973  0.5385 -0.4865  0.0412
  641MOL0     C86442  10.111   7.285   8.963 -0.6699  0.4955  0.2239
  641MOL0     C86443  10.132   7.412   8.884  1.0905  0.0026  0.5722
  641MOL0    Cl86444  10.306   7.410   8.840  0.0817  0.0241 -0.0856
  641MOL0     C86445   9.302   7.125   8.571 -0.4348 -0.1868 -0.6206
  641MOL0     C86446   9.213   7.192   8.483  0.6424  0.0625  0.0368
  641MOL0     O86447   9.036   7.243   8.280  0.0643  0.3258  0.0280
  641MOL0     C86448   8.943   7.590   8.243 -1.4553 -0.0779 -0.1906
  641MOL0     C86449   8.871   7.671   8.163  0.3898 -0.1614  0.2055
  641MOL0     N86450   8.914   7.357   7.538 -0.2752  0.3657 -0.5076
  641MOL0     N86451   9.034   7.300   7.550  0.3875 -0.0915  1.2323
  641MOL0     C86452  10.044   7.143   6.830  0.0574  0.2468  0.8133
  641MOL0     C86453  10.130   7.062   6.754  0.3039  0.6634 -0.4531
  641MOL0     C86454  10.354   6.898   6.422  0.2882  0.9001 -0.4201
  641MOL0     C86455  10.471   6.885   6.492 -0.3212 -0.3479 -0.1520
  641MOL0     C86456  10.569   6.791   6.449  0.4491 -0.6772 -0.6729
  641MOL0     C86457  10.544   6.709   6.335  0.7822  0.3335 -1.4997
  641MOL0     O86458  10.645   6.620   6.310 -0.0471  0.0468  0.4287
  641MOL0     C86459  10.649   6.558   6.180  0.6456  0.5483  0.0882
  641MOL0     C86460  10.697   6.644   6.069 -0.7414  0.8126 -0.3899
  641MOL0     C86461  10.849   6.673   6.086 -0.4317 -0.3972  1.5544
  641MOL0     C86462  10.937   6.588   5.990 -0.8658  0.1402 -0.6919
  641MOL0     C86463  11.061   6.662   5.973 -0.5448  0.1076  0.0173
  641MOL0     C86464  11.159   6.733   5.983  0.3808 -0.1735 -0.3027
  641MOL0     C86465  10.422   6.729   6.268  0.3740 -0.2739 -0.5254
  641MOL0     C86466  10.323   6.828   6.306 -0.9901  0.0466 -0.5870
  641MOL0     C86467  10.193   6.835   6.231 -0.2841  0.0624  0.3458
  641MOL0     H86468   9.870   6.960   6.540 -2.1135  0.6879  0.4649
  641MOL0     H86469   9.746   7.055   6.717  0.0146 -0.7861  2.8253
  641MOL0     H86470   9.714   7.390   6.885  1.3400  0.3268 -0.4680
  641MOL0     H86471   9.723   7.295   6.749 -2.1827  0.9929  0.5019
  641MOL0     H86472   9.614   7.103   6.866 -0.8757 -0.9671 -0.1366
  641MOL0     H86473   9.515   7.257   6.844 -0.2639 -1.4009 -0.2650
  641MOL0     H86474   9.658   7.202   7.115 -0.9357 -1.3124  1.4461
  641MOL0     H86475   9.509   7.115   7.058 -2.0981  1.1512 -0.9683
  641MOL0     H86476   9.537   7.412   7.096 -1.2565  0.8984 -0.5252
  641MOL0     H86477   9.398   7.309   7.033 -0.4895  3.3764  1.5068
  641MOL0     H86478   9.401   7.212   7.282  1.3388 -0.0650  0.6969
  641MOL0     H86479   9.534   7.333   7.291  1.5657 -0.7369 -3.4678
  641MOL0     H86480   9.357   7.511   7.214  0.7419 -0.2592  0.1042
  641MOL0     H86481   9.221   7.403   7.264 -0.4182  2.0863 -2.4145
  641MOL0     H86482   9.323   7.573   7.443 -2.9369 -1.8795  0.9492
  641MOL0     H86483   9.452   7.468   7.439  0.3787  1.1855 -0.2461
  641MOL0     H86484   9.300   7.281   7.521  2.3092 -0.0641 -0.3596
  641MOL0     H86485   9.323   7.425   7.624  3.9287 -1.8542 -1.1832
  641MOL0     H86486   9.116   7.624   7.499  1.0088 -0.4422  0.9931
  641MOL0     H86487   8.868   7.686   7.473 -0.9902  0.3976 -0.6427
  641MOL0     H86488   8.776   7.542   7.412  0.0150  0.4995 -0.3287
  641MOL0     H86489   8.650   7.671   7.584 -0.4199  0.4192  1.8721
  641MOL0     H86490   8.669   7.507   7.628 -3.6871  1.3676  0.7897
  641MOL0     H86491   8.850   7.741   7.700 -2.2146  0.7226  0.1457
  641MOL0     H86492   8.865   7.574   7.773 -2.9796 -4.1974 -1.6921
  641MOL0     H86493   8.619   7.599   7.845 -0.8849  0.5573 -0.0864
  641MOL0     H86494   8.648   7.779   7.819 -2.2371 -0.2603  2.5414
  641MOL0     H86495   8.760   7.433   7.947 -2.3867  0.6351  1.3967
  641MOL0     H86496   8.886   7.287   8.102 -1.9079 -0.4172  0.2305
  641MOL0     H86497   9.264   7.508   8.591 -0.2730  0.0911  0.3795
  641MOL0     H86498   9.436   7.404   8.717 -0.4479  1.1583 -1.0019
  641MOL0     H86499   9.411   6.950   8.787 -0.2741  1.0531  2.4324
  641MOL0     H86500   9.553   6.981   8.682  0.0345  0.7151 -0.5593
  641MOL0     H86501   9.547   7.054   8.986 -0.0067  0.7418 -0.3917
  641MOL0     H86502   9.579   6.886   8.929  0.8794  0.8022  3.1104
  641MOL0     H86503   9.794   7.014   8.983  1.2987  2.3282 -0.2321
  641MOL0     H86504   9.788   6.927   8.829  0.8152  0.5834 -0.3352
  641MOL0     H86505   9.711   7.225   8.869  1.5893  1.6878 -1.1553
  641MOL0     H86506   9.750   7.143   8.717  0.5866 -1.2466 -0.2639
  641MOL0     H86507   9.932   7.277   8.778  4.8266 -0.1205  0.8079
  641MOL0     H86508   9.981   7.104   8.796  0.8058 -0.9173  2.1415
  641MOL0     H86509   9.900   7.316   9.002  0.7947  0.4827 -2.0364
  641MOL0     H86510   9.948   7.146   9.040 -1.2788 -0.8818 -0.7964
  641MOL0     H86511  10.171   7.203   8.923  1.0968  2.0619 -0.4363
  641MOL0     H86512  10.158   7.288   9.062 -0.6624 -0.5570  0.2665
  641MOL0     H86513  10.073   7.416   8.793  1.4535 -0.7199  0.2925
  641MOL0     H86514  10.105   7.502   8.939 -1.0739  0.0790 -0.5109
  641MOL0     H86515   9.316   7.018   8.571 -0.4251 -0.2321  1.9684
  641MOL0     H86516   9.146   7.126   8.428 -2.2134  2.3576  0.5330
  641MOL0     H86517   9.008   7.640   8.315  1.0755  0.0154 -2.3875
  641MOL0     H86518   8.866   7.778   8.183 -1.2047 -0.5849  2.5440
  641MOL0     H86519  10.076   7.205   6.914  1.2365  0.3491  0.3149
  641MOL0     H86520  10.233   7.061   6.787 -0.4389  1.6676  2.1524
  641MOL0     H86521  10.490   6.944   6.581 -2.8833  0.9648 -0.4035
  641MOL0     H86522  10.668   6.781   6.493  0.1354 -1.2695 -0.0870
  641MOL0     H86523  10.550   6.520   6.154  1.0331 -0.5325  0.1465
  641MOL0     H86524  10.716   6.472   6.182  1.9582  1.5488  1.3505
  641MOL0     H86525  10.635   6.734   6.073 -1.3695  0.4257 -1.0348
  641MOL0     H86526  10.687   6.604   5.967  2.3479 -1.5138  0.0914
  641MOL0     H86527  10.873   6.658   6.191 -1.7813 -1.1235  1.7774
  641MOL0     H86528  10.852   6.781   6.064 -0.3583 -0.9382 -1.7185
  641MOL0     H86529  10.950   6.488   6.033 -0.0525  0.3349 -0.4705
  641MOL0     H86530  10.893   6.583   5.890 -3.1764 -0.2448  0.2674
  641MOL0     H86531  11.250   6.790   5.978  2.0600 -2.7317 -0.8109
  641MOL0     H86532  10.385   6.662   6.191 -4.0626  3.3760 -2.0172
  641MOL0     H86533  10.146   6.737   6.215 -0.3384  0.0776  0.4118
  641MOL0     H86534  10.120   6.898   6.282 -1.0057 -0.5853  0.1318
  641MOL0     H86535  10.225   6.882   6.138  1.2731  0.0687  0.8477
  642MOL0     O86536   1.775  10.394   1.520 -0.8946  0.5407  0.2390
  642MOL0     C86537   1.725  10.408   1.411  0.2149 -0.0744 -0.2302
  642MOL0     O86538   1.803  10.408   1.291 -0.2845 -0.4121  0.7734
  642MOL0     C86539   1.939  10.408   1.287 -0.6631 -0.3152 -0.2376
  642MOL0     C86540   2.005  10.303   1.222 -0.3206  0.3366  0.3490
  642MOL0     C86541   2.139  10.313   1.208 -0.5792 -0.8415  0.2914
  642MOL0     C86542   2.218  10.417   1.264 -0.4920 -0.0066  1.1190
  642MOL0     O86543   2.354  10.400   1.255 -0.1546 -0.8718  0.1394
  642MOL0     C86544   2.432  10.479   1.349 -0.7037 -0.3020 -0.0389
  642MOL0     C86545   2.569  10.419   1.355 -0.0245 -0.0354  0.0742
  642MOL0     C86546   2.653  10.473   1.472  0.4209 -0.0496  0.1104
  642MOL0     C86547   2.720  10.600   1.438  0.4497 -0.5319  0.3828
  642MOL0     C86548   2.800  10.658   1.559 -0.1271  0.1559  0.1788
  642MOL0     C86549   2.933  10.585   1.574 -0.2941 -0.2034 -0.7259
  642MOL0     C86550   3.014  10.647   1.686  0.1338 -0.3462 -0.7363
  642MOL0     C86551   3.121  10.735   1.622  0.1049  1.0120 -0.3331
  642MOL0     N86552   3.199  10.797   1.720  0.5166 -0.3809 -0.3540
  642MOL0     C86553   3.305  10.750   1.801 -0.3627 -0.3082  0.3118
  642MOL0     C86554   3.319  10.849   1.898 -0.7228 -0.3468 -0.5841
  642MOL0     C86555   3.420  10.858   2.013 -0.3650  0.1520 -0.1670
  642MOL0     C86556   3.407  10.728   2.100  0.0579 -0.1173  0.3904
  642MOL0     C86557   3.500  10.728   2.218  0.2705  0.0208  0.3626
  642MOL0     C86558   3.646  10.717   2.168  0.6865 -0.5782  0.3544
  642MOL0     O86559   3.734  10.651   2.260 -0.4890 -0.7672 -0.9593
  642MOL0     C86560   3.864  10.616   2.220 -0.0622  0.5077 -0.5498
  642MOL0     C86561   3.935  10.542   2.311 -0.1764 -0.5618 -0.3198
  642MOL0     C86562   4.062  10.496   2.284 -1.3008 -0.0903  1.3108
  642MOL0     C86563   4.127  10.518   2.153  0.2206 -0.5121  0.1069
  642MOL0     C86564   4.251  10.455   2.106 -0.3937 -0.1475  0.4383
  642MOL0     O86565   4.318  10.384   2.204  0.3056 -1.0256 -0.4080
  642MOL0     C86566   4.446  10.362   2.172  0.0193 -0.0525  0.3857
  642MOL0     C86567   4.549  10.444   2.220  0.6743  0.6408  0.4013
  642MOL0     C86568   4.678  10.410   2.191 -1.1536  0.8955  0.0771
  642MOL0     C86569   4.714  10.296   2.114 -0.2593 -0.7512  0.8980
  642MOL0     O86570   4.840  10.251   2.097 -0.7697 -0.6571 -0.3449
  642MOL0     C86571   4.890  10.197   1.977  0.0550  0.0673 -0.2342
  642MOL0     C86572   5.029  10.155   1.995  0.4549  0.1743 -0.0690
  642MOL0     C86573   5.082  10.057   1.888  0.6755  1.1882 -0.7682
  642MOL0     C86574   5.151  10.122   1.764 -0.4265 -0.4102  0.0158
  642MOL0     C86575   5.295  10.067   1.728 -0.9509  0.2821 -0.3552
  642MOL0     C86576   5.298   9.918   1.684  0.2842  0.2028 -0.9807
  642MOL0     C86577   5.437   9.856   1.667  0.6054 -0.4207  0.2309
  642MOL0     C86578   5.520   9.915   1.557 -0.9324  0.4986  0.3051
  642MOL0    Cl86579   5.425   9.894   1.399 -0.3124 -0.2799  0.4602
  642MOL0     C86580   4.612  10.216   2.061 -0.0509  0.5530 -0.7594
  642MOL0     C86581   4.479  10.238   2.100  0.0281 -0.6018 -0.0796
  642MOL0     O86582   4.296  10.498   2.003 -0.7341  0.1033  0.5678
  642MOL0     C86583   4.057  10.605   2.064  0.1212  0.2336  0.1724
  642MOL0     C86584   3.927  10.647   2.097  0.0122 -0.1928 -0.0530
  642MOL0     N86585   3.219  10.940   1.885 -0.4177  0.4953  0.2085
  642MOL0     N86586   3.144  10.902   1.784  0.3953 -0.4327 -0.3055
  642MOL0     C86587   2.161  10.527   1.321 -0.3855 -0.3005  0.2023
  642MOL0     C86588   2.019  10.517   1.341 -0.0251  0.0395  0.3193
  642MOL0     C86589   1.581  10.421   1.407  0.1599  0.7817  0.0113
  642MOL0     C86590   1.500  10.430   1.526  0.3523  0.5558  0.3233
  642MOL0     C86591   1.366  10.460   1.510  0.8140 -0.5712 -1.5536
  642MOL0     C86592   1.297  10.460   1.394 -0.1205 -0.9460 -0.0182
  642MOL0     O86593   1.165  10.487   1.407  0.0801 -0.4726 -0.2414
  642MOL0     C86594   1.091  10.513   1.292 -0.2244 -0.0196  0.5578
  642MOL0     C86595   0.951  10.541   1.350  0.2656 -1.3813  0.7075
  642MOL0     C86596   0.851  10.556   1.236  0.2727 -0.0330 -0.2716
  642MOL0     C86597   0.711  10.585   1.293 -0.6142  0.1678 -0.5010
  642MOL0     C86598   0.715  10.722   1.337  0.1232  0.3743 -0.3301
  642MOL0     C86599   0.711  10.829   1.391 -0.1302 -0.7426  0.1096
  642MOL0     C86600   1.367  10.426   1.280  0.2362  1.0583  0.4383
  642MOL0     C86601   1.505  10.407   1.279 -0.3133  0.5279 -0.0551
  642MOL0     C86602   1.572  10.359   1.149 -0.5025  0.0265 -0.1493
  642MOL0     H86603   1.967  10.214   1.172  2.6065 -1.9846  1.9427
  642MOL0     H86604   2.200  10.230   1.173  2.4074  1.3901 -0.1758
  642MOL0     H86605   2.443  10.582   1.314 -0.6731 -1.0773 -2.4816
  642MOL0     H86606   2.397  10.480   1.453  2.3661  0.9186  1.0839
  642MOL0     H86607   2.625  10.423   1.260 -0.5740  4.1484 -0.2832
  642MOL0     H86608   2.556  10.313   1.378  1.1055  0.1784  1.8682
  642MOL0     H86609   2.725  10.402   1.514  0.0283 -0.3186  0.3337
  642MOL0     H86610   2.582  10.500   1.551  0.8107 -0.0492  0.4679
  642MOL0     H86611   2.784  10.597   1.350 -1.5576  0.0058 -1.1661
  642MOL0     H86612   2.643  10.674   1.410  1.1114 -0.0604 -0.2082
  642MOL0     H86613   2.823  10.763   1.539 -0.1797 -0.0879 -1.3469
  642MOL0     H86614   2.737  10.651   1.648 -0.0294  1.8512  0.4077
  642MOL0     H86615   2.923  10.477   1.584 -1.5173 -0.7979 -5.7109
  642MOL0     H86616   2.990  10.587   1.480  0.7985  0.5377 -0.0764
  642MOL0     H86617   3.058  10.567   1.746 -0.7929  0.3780  0.9707
  642MOL0     H86618   2.958  10.714   1.752  0.2301  0.2599 -1.2555
  642MOL0     H86619   3.178  10.671   1.555 -3.3786  0.2560 -2.8481
  642MOL0     H86620   3.064  10.808   1.563 -0.2290  0.5900 -0.5339
  642MOL0     H86621   3.360  10.656   1.801  2.4108  1.1773  2.4677
  642MOL0     H86622   3.524  10.873   1.981 -0.3375  1.4506  0.4468
  642MOL0     H86623   3.393  10.937   2.084 -0.8443 -0.3750  0.2432
  642MOL0     H86624   3.308  10.706   2.140 -0.9824  0.8288 -1.4831
  642MOL0     H86625   3.426  10.634   2.047  2.6606  1.2682 -1.3423
  642MOL0     H86626   3.484  10.638   2.279  1.7461 -0.2997  0.3208
  642MOL0     H86627   3.479  10.808   2.290 -3.8512 -1.0989  0.6656
  642MOL0     H86628   3.689  10.813   2.138  3.0937 -1.7597 -0.2832
  642MOL0     H86629   3.638  10.657   2.077 -1.9444  1.8633 -1.2030
  642MOL0     H86630   3.883  10.509   2.401  0.0445 -2.3276 -0.8002
  642MOL0     H86631   4.096  10.439   2.370  1.4245 -0.7993 -0.1221
  642MOL0     H86632   4.521  10.524   2.288 -1.4826  0.9272 -0.7575
  642MOL0     H86633   4.752  10.470   2.244  0.8102 -0.6789 -0.7182
  642MOL0     H86634   4.826  10.111   1.956  2.1682 -0.7376 -4.2779
  642MOL0     H86635   4.876  10.289   1.918  2.6366  2.7966  2.9631
  642MOL0     H86636   5.089  10.246   2.005 -0.0599  0.2753  3.2691
  642MOL0     H86637   5.049  10.098   2.086  1.5478 -1.3564 -1.2352
  642MOL0     H86638   5.157   9.984   1.918 -0.0384 -2.0917 -5.7682
  642MOL0     H86639   4.995   9.999   1.856  1.9158 -1.7125  0.7686
  642MOL0     H86640   5.150  10.229   1.790 -0.1834 -1.2414  4.2256
  642MOL0     H86641   5.091  10.124   1.673  1.9548  0.5001 -1.6251
  642MOL0     H86642   5.356  10.083   1.817  2.8561  1.9547 -3.0259
  642MOL0     H86643   5.341  10.131   1.653  4.1849  0.3229  2.4049
  642MOL0     H86644   5.243   9.861   1.760 -1.6528  1.2926 -1.4794
  642MOL0     H86645   5.244   9.892   1.592  2.4204 -2.1313 -1.6752
  642MOL0     H86646   5.430   9.748   1.654  1.3723 -0.3180 -1.2059
  642MOL0     H86647   5.494   9.866   1.760 -2.3462  0.6467  2.1184
  642MOL0     H86648   5.549  10.018   1.581 -1.4049 -0.1135  4.2633
  642MOL0     H86649   5.614   9.859   1.550 -1.7778 -0.9147 -0.2403
  642MOL0     H86650   4.633  10.128   2.001  1.5442  1.7768 -2.0968
  642MOL0     H86651   4.407  10.166   2.065  1.2122 -0.6991 -2.5345
  642MOL0     H86652   4.092  10.625   1.964 -0.4816 -1.3432 -0.3828
  642MOL0     H86653   3.882  10.714   2.024  0.4057  1.0951  0.8588
  642MOL0     H86654   2.220  10.615   1.344 -0.5471 -0.1652  0.1097
  642MOL0     H86655   1.974  10.607   1.383  4.9409  2.7167  0.7064
  642MOL0     H86656   1.554  10.415   1.619 -0.8418  0.0294  0.9449
  642MOL0     H86657   1.309  10.455   1.602  1.9217 -0.7986 -0.8618
  642MOL0     H86658   1.094  10.424   1.228 -3.4363  0.6715 -0.7324
  642MOL0     H86659   1.126  10.599   1.235  0.3459 -0.8317 -0.3656
  642MOL0     H86660   0.964  10.638   1.400 -1.2501 -1.1798  0.7484
  642MOL0     H86661   0.928  10.459   1.418  4.2900 -2.7147  0.7512
  642MOL0     H86662   0.835  10.463   1.180  4.4562 -0.7201 -0.6253
  642MOL0     H86663   0.880  10.629   1.160 -1.6310 -0.5390 -1.5682
  642MOL0     H86664   0.638  10.571   1.213 -2.9065  1.7757  1.1764
  642MOL0     H86665   0.682  10.532   1.385 -1.5937 -0.8676 -1.3750
  642MOL0     H86666   0.687  10.918   1.446 -0.7167 -1.1036  0.4466
  642MOL0     H86667   1.309  10.416   1.189  0.5272 -0.1352  0.3619
  642MOL0     H86668   1.635  10.433   1.100  2.2793 -1.0145  1.6565
  642MOL0     H86669   1.632  10.270   1.170 -0.6594 -0.1402 -0.3929
  642MOL0     H86670   1.508  10.317   1.070  3.3459 -0.7100 -3.2168
  643MOL0     O86671   7.428   9.379   2.799 -0.2964 -0.2041  0.5877
  643MOL0     C86672   7.437   9.261   2.835  1.2506 -0.7265  0.8604
  643MOL0     O86673   7.549   9.197   2.834 -0.1457  0.2252 -0.1075
  643MOL0     C86674   7.670   9.245   2.777 -0.0142 -0.0306 -1.6453
  643MOL0     C86675   7.783   9.219   2.855 -0.4503 -0.2347  0.0440
  643MOL0     C86676   7.902   9.264   2.795  0.6853 -0.4172  0.1295
  643MOL0     C86677   7.914   9.316   2.670  0.3364 -0.0379  0.6985
  643MOL0     O86678   8.040   9.339   2.625 -0.1218 -0.3245 -0.6226
  643MOL0     C86679   8.076   9.366   2.484  1.0905  0.4032 -0.3498
  643MOL0     C86680   8.221   9.343   2.457 -0.4664  0.5372  0.7162
  643MOL0     C86681   8.293   9.411   2.334 -0.0035  0.7432 -0.4273
  643MOL0     C86682   8.444   9.400   2.324  0.6859 -0.2333 -0.3131
  643MOL0     C86683   8.476   9.255   2.283  0.7637 -0.8113  0.3297
  643MOL0     C86684   8.626   9.235   2.289 -0.9611  0.3652 -0.3974
  643MOL0     C86685   8.688   9.098   2.228  0.4137 -0.7270  0.7724
  643MOL0     C86686   8.830   9.068   2.277 -0.2581 -0.2964  0.4913
  643MOL0     N86687   8.873   8.953   2.190 -0.4043  0.8633 -0.4158
  643MOL0     C86688   8.926   8.968   2.058  0.2766  0.0878 -0.2333
  643MOL0     C86689   8.926   8.849   2.003  0.5633 -0.6435 -0.3291
  643MOL0     C86690   8.970   8.804   1.865  0.8330 -0.5772 -0.2530
  643MOL0     C86691   9.084   8.702   1.865  0.0007 -0.7314  1.1934
  643MOL0     C86692   9.198   8.743   1.963 -0.5720  0.2772  0.2033
  643MOL0     C86693   9.287   8.631   2.007  0.9883 -0.6185  0.4360
  643MOL0     O86694   9.406   8.685   2.048  0.9695 -0.6434  1.1616
  643MOL0     C86695   9.508   8.606   2.082 -0.6971 -0.8333 -0.4407
  643MOL0     C86696   9.624   8.676   2.136  0.4009  0.8323 -0.4518
  643MOL0     C86697   9.736   8.601   2.172  0.4159 -0.6612 -0.2097
  643MOL0     C86698   9.745   8.462   2.145  1.0287 -0.3008  1.3992
  643MOL0     C86699   9.843   8.384   2.209 -0.4788  0.7596 -0.3079
  643MOL0     O86700   9.876   8.263   2.155  0.2752  0.3639 -0.5949
  643MOL0     C86701   9.973   8.189   2.213 -0.1292 -0.0275  0.0086
  643MOL0     C86702   9.942   8.066   2.283  0.1516 -0.0769 -0.9393
  643MOL0     C86703  10.039   7.977   2.318  0.1927  0.1085 -0.4591
  643MOL0     C86704  10.175   8.004   2.294  0.6289  0.3804  1.7804
  643MOL0     O86705  10.258   7.902   2.334 -0.8493  0.0355 -1.0620
  643MOL0     C86706  10.401   7.925   2.334 -0.2989 -0.0487  0.7995
  643MOL0     C86707  10.439   7.987   2.463  0.0765 -0.3434 -0.0149
  643MOL0     C86708  10.585   8.019   2.460 -0.0764 -0.5253  0.9033
  643MOL0     C86709  10.632   8.054   2.602 -0.6694  0.6305 -0.3983
  643MOL0     C86710  10.775   8.099   2.617  0.7718 -0.5003 -0.0316
  643MOL0     C86711  10.885   7.984   2.592 -0.4064 -0.2119 -0.6462
  643MOL0     C86712  11.017   8.038   2.617  1.1764 -0.0230 -0.7678
  643MOL0     C86713  11.056   7.996   2.762  0.2362 -0.1399 -0.6093
  643MOL0    Cl86714  11.227   8.018   2.784  0.0885 -0.0492 -0.0317
  643MOL0     C86715  10.213   8.134   2.237 -0.4615 -0.3749 -1.3681
  643MOL0     C86716  10.109   8.226   2.203  0.6101  0.1571 -0.3649
  643MOL0     O86717   9.893   8.428   2.305  0.0796 -0.3804 -0.4084
  643MOL0     C86718   9.638   8.400   2.069  0.7617  0.0380 -0.1208
  643MOL0     C86719   9.516   8.471   2.043  0.2609  0.2130 -0.2029
  643MOL0     N86720   8.893   8.754   2.101  0.2127  0.2007 -0.0532
  643MOL0     N86721   8.861   8.822   2.206 -0.3615  0.2620  0.8732
  643MOL0     C86722   7.796   9.335   2.590  0.4197  0.3422 -0.0266
  643MOL0     C86723   7.670   9.311   2.649  0.6021  0.2707 -0.2141
  643MOL0     C86724   7.314   9.194   2.871  0.0603 -0.8637  0.2031
  643MOL0     C86725   7.220   9.272   2.934  0.7297 -0.3201  0.2293
  643MOL0     C86726   7.098   9.215   2.974  0.1668  0.2355  0.2939
  643MOL0     C86727   7.069   9.077   2.967  0.1783  0.4420 -0.1856
  643MOL0     O86728   6.961   9.009   3.019 -0.3832 -0.5019 -0.1675
  643MOL0     C86729   6.826   9.058   2.996  0.6269 -0.5425 -0.1428
  643MOL0     C86730   6.771   9.164   3.106 -0.4890  0.1382  0.8146
  643MOL0     C86731   6.747   9.103   3.246  0.2404 -0.3840 -0.4189
  643MOL0     C86732   6.641   8.986   3.256  0.3579  0.1565 -0.7622
  643MOL0     C86733   6.508   9.040   3.215  0.2588  0.0418 -0.0796
  643MOL0     C86734   6.398   9.090   3.183 -1.3088 -0.6094 -0.4270
  643MOL0     C86735   7.168   9.001   2.920 -0.3716 -0.8237  0.0834
  643MOL0     C86736   7.285   9.055   2.860  0.6122  0.7636 -0.0028
  643MOL0     C86737   7.373   8.951   2.795  0.3182 -0.3044 -0.4263
  643MOL0     H86738   7.780   9.162   2.947 -0.7822 -1.4214 -0.6840
  643MOL0     H86739   7.999   9.239   2.835  0.6494  1.6355  1.6191
  643MOL0     H86740   8.020   9.296   2.422  0.5761  0.8839 -0.4355
  643MOL0     H86741   8.036   9.465   2.460 -0.9053  0.1393  1.6135
  643MOL0     H86742   8.238   9.236   2.442  0.1806  0.8409 -0.9438
  643MOL0     H86743   8.281   9.370   2.544 -1.1362  1.1659  0.9914
  643MOL0     H86744   8.265   9.516   2.335 -1.5842  0.3380 -0.3434
  643MOL0     H86745   8.249   9.374   2.241 -3.6064  1.6714  0.7827
  643MOL0     H86746   8.481   9.469   2.247  0.8126  2.8334  2.2921
  643MOL0     H86747   8.496   9.423   2.417 -0.7475  0.0723  0.4393
  643MOL0     H86748   8.421   9.189   2.350  2.0133  0.4898  2.7697
  643MOL0     H86749   8.439   9.223   2.185  0.8567  1.3904 -0.4872
  643MOL0     H86750   8.666   9.324   2.239 -0.4014  0.7746  0.7656
  643MOL0     H86751   8.665   9.243   2.390  1.2758  0.3931 -1.2111
  643MOL0     H86752   8.696   9.120   2.121  1.4709 -2.2427  0.5114
  643MOL0     H86753   8.626   9.009   2.243  1.3118 -1.4548  0.2491
  643MOL0     H86754   8.893   9.156   2.258 -0.9034  0.1962  0.5758
  643MOL0     H86755   8.822   9.043   2.383 -0.6099 -1.8120  0.1309
  643MOL0     H86756   8.957   9.058   2.005  1.1053 -0.2214 -0.3022
  643MOL0     H86757   8.879   8.770   1.815 -0.8637 -0.9398  2.8655
  643MOL0     H86758   9.003   8.896   1.816 -2.2613 -0.5413 -2.5053
  643MOL0     H86759   9.046   8.602   1.887 -1.0604 -0.6796 -0.2518
  643MOL0     H86760   9.126   8.702   1.764  0.4785 -1.6668  1.3847
  643MOL0     H86761   9.161   8.788   2.056  0.7895  3.6576 -0.7262
  643MOL0     H86762   9.249   8.830   1.921  0.3419 -0.9273 -1.2844
  643MOL0     H86763   9.304   8.580   1.912  3.5547  0.6318  0.1457
  643MOL0     H86764   9.238   8.572   2.085  0.9070 -5.3803 -2.8027
  643MOL0     H86765   9.614   8.783   2.153 -2.5358  0.7015 -0.7694
  643MOL0     H86766   9.819   8.654   2.218  0.3658  0.4448 -1.3481
  643MOL0     H86767   9.839   8.035   2.301  0.9490 -3.1323 -1.0773
  643MOL0     H86768  10.015   7.882   2.364  0.0436  1.0227  1.4128
  643MOL0     H86769  10.450   7.830   2.315 -1.2266  0.1030 -3.4193
  643MOL0     H86770  10.432   7.987   2.249 -1.3766 -1.9844 -1.1108
  643MOL0     H86771  10.383   8.079   2.486 -0.3465 -0.9897  1.6988
  643MOL0     H86772  10.408   7.923   2.546  2.4431  0.3892  1.5317
  643MOL0     H86773  10.642   7.938   2.414 -1.9063 -1.3411 -0.0478
  643MOL0     H86774  10.588   8.098   2.385 -0.2144 -3.2705 -2.2295
  643MOL0     H86775  10.623   7.960   2.657  1.2155  0.5146 -0.2143
  643MOL0     H86776  10.572   8.134   2.647  0.6333  1.0421  0.6837
  643MOL0     H86777  10.779   8.146   2.715  1.9614  0.5045 -0.5254
  643MOL0     H86778  10.800   8.179   2.547  2.5123  2.8276  3.9876
  643MOL0     H86779  10.865   7.891   2.646  1.9932  1.4292  3.5108
  643MOL0     H86780  10.893   7.952   2.487 -1.8895 -2.9164 -0.0232
  643MOL0     H86781  11.017   8.147   2.618  0.1009  0.0192 -2.1931
  643MOL0     H86782  11.097   8.003   2.551  3.6119  1.1773  1.3863
  643MOL0     H86783  11.005   8.058   2.837 -1.5611 -1.6836 -0.4659
  643MOL0     H86784  11.030   7.893   2.788 -0.8111  0.4752  0.9727
  643MOL0     H86785  10.311   8.178   2.229  0.4305 -2.1933 -0.9084
  643MOL0     H86786  10.136   8.323   2.163  0.0607  2.2034  3.7870
  643MOL0     H86787   9.639   8.299   2.029 -0.0606  0.6964 -1.8817
  643MOL0     H86788   9.434   8.422   1.993  0.4352 -1.7014  1.2772
  643MOL0     H86789   7.801   9.362   2.485  1.6370 -1.0787 -0.3717
  643MOL0     H86790   7.572   9.325   2.605 -0.0307  1.6269  1.5319
  643MOL0     H86791   7.234   9.378   2.948 -0.5837 -0.1693  0.4856
  643MOL0     H86792   7.017   9.280   3.007 -0.5251 -0.7879  0.6749
  643MOL0     H86793   6.756   8.974   2.989 -2.6626  1.9797  0.0001
  643MOL0     H86794   6.801   9.106   2.901 -0.9822 -1.2089 -0.1025
  643MOL0     H86795   6.673   9.201   3.076 -1.7996 -1.9799  2.2559
  643MOL0     H86796   6.833   9.253   3.121 -0.0621 -0.4906  3.1986
  643MOL0     H86797   6.725   9.183   3.318 -3.1473 -0.5398 -1.1006
  643MOL0     H86798   6.838   9.055   3.283  1.3912  1.0038 -1.3406
  643MOL0     H86799   6.678   8.891   3.216  1.0723 -0.2016  0.6929
  643MOL0     H86800   6.626   8.958   3.360 -0.9471  2.9103 -0.1244
  643MOL0     H86801   6.305   9.134   3.155 -0.2602 -0.1395 -3.5668
  643MOL0     H86802   7.155   8.894   2.915 -0.5154 -0.7758 -0.6051
  643MOL0     H86803   7.421   8.988   2.704 -2.7701  0.4984 -1.8746
  643MOL0     H86804   7.452   8.926   2.867 -0.1097 -2.1172 -0.5392
  643MOL0     H86805   7.329   8.854   2.770 -1.0889  0.5425 -1.3710
  644MOL0     O86806   7.172   0.157   4.111 -0.2440  0.7196 -0.0470
  644MOL0     C86807   7.146   0.129   4.230  0.5702 -0.0464  0.5289
  644MOL0     O86808   7.241   0.125   4.327 -0.9060 -0.8699 -0.3614
  644MOL0     C86809   7.377   0.176   4.306  0.4031 -0.1237  1.4748
  644MOL0     C86810   7.422   0.299   4.355  0.7962 -0.0795  0.2216
  644MOL0     C86811   7.557   0.322   4.331 -0.0716 -0.0056  0.5177
  644MOL0     C86812   7.645   0.226   4.275  0.1679 -0.3181  0.7692
  644MOL0     O86813   7.778   0.241   4.266  0.2093 -0.1222  0.0064
  644MOL0     C86814   7.844   0.322   4.359 -0.2455 -0.1698 -0.4606
  644MOL0     C86815   7.991   0.334   4.327 -0.8989  0.1647 -0.3914
  644MOL0     C86816   8.061   0.395   4.446  0.3519  0.9308  0.8141
  644MOL0     C86817   8.204   0.454   4.399 -0.7321  0.7459  1.2413
  644MOL0     C86818   8.290   0.489   4.523  0.3510  0.3296  0.0048
  644MOL0     C86819   8.363   0.365   4.581 -0.0442 -0.8946 -0.3567
  644MOL0     C86820   8.506   0.366   4.551  0.2320 -0.5356  0.9766
  644MOL0     C86821   8.572   0.254   4.613 -0.1322  1.2474  0.4495
  644MOL0     N86822   8.714   0.259   4.609 -0.1587 -0.8569  0.1128
  644MOL0     C86823   8.798   0.239   4.713 -0.5324  0.5799 -0.3702
  644MOL0     C86824   8.923   0.246   4.666  0.2305 -0.0040  0.1784
  644MOL0     C86825   9.043   0.224   4.742 -0.1622 -0.7316  0.3474
  644MOL0     C86826   9.150   0.136   4.666 -0.3689  0.3721 -0.5160
  644MOL0     C86827   9.272   0.144   4.756  0.2749 -0.1912  0.0644
  644MOL0     C86828   9.374   0.032   4.733  0.4653 -0.1032  0.0058
  644MOL0     O86829   9.465   0.051   4.842  0.5185  0.4698 -0.0006
  644MOL0     C86830   9.589   0.115   4.817  0.6663 -0.0678  0.1512
  644MOL0     C86831   9.682   0.119   4.921  1.2213  1.3944 -0.5093
  644MOL0     C86832   9.811   0.166   4.908 -0.1556  0.2604 -0.0859
  644MOL0     C86833   9.858   0.207   4.783 -0.7393 -0.1805  0.2277
  644MOL0     C86834  10.000   0.262   4.770 -0.1142  0.5142 -0.2450
  644MOL0     O86835  10.088   0.233   4.877  0.6714 -0.2035  0.5845
  644MOL0     C86836  10.221   0.259   4.867 -0.0186  0.1195  0.0131
  644MOL0     C86837  10.302   0.156   4.913 -0.7797  0.0998  0.0186
  644MOL0     C86838  10.438   0.172   4.932  0.1224 -0.4166 -0.5931
  644MOL0     C86839  10.504   0.291   4.895 -0.0440 -0.4678 -0.6575
  644MOL0     O86840  10.636   0.315   4.930 -0.3470  0.1216 -0.1651
  644MOL0     C86841  10.686   0.248   5.047 -0.1426  0.2221  0.7677
  644MOL0     C86842  10.825   0.322   5.066  0.1124  0.8665  0.5841
  644MOL0     C86843  10.812   0.460   5.114  0.3629 -0.2429 -0.2965
  644MOL0     C86844  10.951   0.536   5.116  1.2210  0.1061  0.1847
  644MOL0     C86845  10.923   0.668   5.193  0.0036 -0.3365 -0.3438
  644MOL0     C86846  11.059   0.746   5.165  0.9947  0.8490 -0.2836
  644MOL0     C86847  11.048   0.891   5.211  0.0361  0.3502  1.2234
  644MOL0     C86848  11.155   0.986   5.162  0.3483  0.1953  0.4121
  644MOL0    Cl86849  11.321   0.929   5.213  0.0810 -0.1170 -0.0370
  644MOL0     C86850  10.423   0.385   4.832 -0.2454 -0.7375  0.8435
  644MOL0     C86851  10.283   0.370   4.817 -0.0421  0.0791  1.2804
  644MOL0     O86852  10.033   0.324   4.664 -0.1718 -0.2641 -0.4294
  644MOL0     C86853   9.770   0.204   4.676  0.3781 -0.2495 -0.6586
  644MOL0     C86854   9.641   0.162   4.693  0.2545 -0.7977 -1.3420
  644MOL0     N86855   8.913   0.272   4.533 -0.3165  0.4215 -0.0083
  644MOL0     N86856   8.789   0.272   4.492  0.4393  0.4274 -0.4974
  644MOL0     C86857   7.596   0.108   4.232  0.0838  0.0902  0.0531
  644MOL0     C86858   7.459   0.084   4.236  0.1377 -0.6964  0.2791
  644MOL0     C86859   6.999   0.108   4.258  0.3628 -0.4212  0.3564
  644MOL0     C86860   6.902   0.177   4.174 -0.2449 -0.0208 -0.1525
  644MOL0     C86861   6.771   0.150   4.200 -0.4002 -0.0244  0.4844
  644MOL0     C86862   6.722   0.068   4.302  0.3985  0.5287  0.0754
  644MOL0     O86863   6.591   0.026   4.322  0.6264  0.1497 -0.2851
  644MOL0     C86864   6.499   0.063   4.219 -0.1309 -0.0677 -0.2778
  644MOL0     C86865   6.348   0.012   4.229 -0.6251 -0.0474 -0.3756
  644MOL0     C86866   6.351  -0.137   4.257 -0.4057 -0.0429 -0.5522
  644MOL0     C86867   6.225  -0.215   4.250  0.5721  0.4111 -0.3992
  644MOL0     C86868   6.171  -0.220   4.114  0.1845  0.2134 -0.6424
  644MOL0     C86869   6.139  -0.211   3.996  0.2162 -1.8808  0.0834
  644MOL0     C86870   6.821   0.009   4.384  1.4217 -0.7160 -0.5691
  644MOL0     C86871   6.956   0.039   4.371  0.1598  0.0480 -0.2402
  644MOL0     C86872   7.049  -0.020   4.472 -0.5496  0.0331  0.5049
  644MOL0     H86873   7.359   0.371   4.406 -2.1272 -0.6796 -2.1937
  644MOL0     H86874   7.603   0.412   4.370  1.6302  0.5669 -2.4742
  644MOL0     H86875   7.800   0.420   4.378  1.9001  0.8682 -0.4721
  644MOL0     H86876   7.836   0.272   4.456 -0.7492  1.8677  0.6054
  644MOL0     H86877   8.015   0.388   4.235  0.7760 -1.1707 -0.7859
  644MOL0     H86878   8.039   0.237   4.314  0.8960  0.9399  0.1664
  644MOL0     H86879   8.070   0.322   4.528 -1.8514 -1.0243 -0.5555
  644MOL0     H86880   7.996   0.477   4.477 -0.5057  2.0226 -3.2874
  644MOL0     H86881   8.267   0.395   4.331 -2.3159  0.3611  0.0345
  644MOL0     H86882   8.190   0.554   4.355 -2.5021 -0.2554 -0.6369
  644MOL0     H86883   8.359   0.569   4.495  0.4899  0.4367  0.6410
  644MOL0     H86884   8.223   0.535   4.596  1.1398  0.5297  0.6179
  644MOL0     H86885   8.364   0.370   4.691  0.7078 -0.2260 -0.3825
  644MOL0     H86886   8.311   0.274   4.550  0.6819 -0.8186 -1.8564
  644MOL0     H86887   8.548   0.462   4.582 -1.8142  0.7489 -0.0233
  644MOL0     H86888   8.523   0.349   4.445  1.3500 -1.0989  1.2259
  644MOL0     H86889   8.551   0.244   4.720  0.1318 -1.5884  0.3096
  644MOL0     H86890   8.545   0.156   4.573  0.4599  1.9334 -1.7676
  644MOL0     H86891   8.770   0.229   4.818  1.6708  2.7950  0.5287
  644MOL0     H86892   9.075   0.327   4.760 -3.9484  0.7049 -0.2059
  644MOL0     H86893   9.025   0.169   4.834  2.1572  0.2902  1.4920
  644MOL0     H86894   9.100   0.039   4.670 -0.5500  0.4236 -1.3494
  644MOL0     H86895   9.177   0.163   4.563  1.2654 -1.2560 -0.5586
  644MOL0     H86896   9.242   0.148   4.862  0.9541  1.4742  0.2316
  644MOL0     H86897   9.322   0.240   4.738  0.4386 -0.1673  0.6208
  644MOL0     H86898   9.420   0.047   4.635  0.2726 -2.2424 -0.4638
  644MOL0     H86899   9.328  -0.066   4.747  1.0111 -0.0857  2.2309
  644MOL0     H86900   9.637   0.077   5.011 -0.0718 -1.6277 -2.4160
  644MOL0     H86901   9.870   0.164   4.999  1.3133 -2.0936 -0.9998
  644MOL0     H86902  10.250   0.063   4.931  1.0093 -0.6084  2.0261
  644MOL0     H86903  10.486   0.094   4.989 -0.4822 -0.1097  0.3657
  644MOL0     H86904  10.635   0.259   5.143 -0.4655 -0.0020  0.6232
  644MOL0     H86905  10.710   0.145   5.022 -0.2327 -0.3284  2.7736
  644MOL0     H86906  10.870   0.259   5.144 -0.9358  1.5949  1.8155
  644MOL0     H86907  10.874   0.316   4.969 -1.0416  0.1315  0.0205
  644MOL0     H86908  10.746   0.513   5.044  2.0219  1.7926 -0.4348
  644MOL0     H86909  10.770   0.459   5.215 -2.2065 -2.2518 -1.2825
  644MOL0     H86910  10.980   0.549   5.011 -0.6537 -1.8278 -0.6366
  644MOL0     H86911  11.031   0.479   5.164  0.4128  0.0883  1.5527
  644MOL0     H86912  10.915   0.654   5.301  2.0289 -2.3434 -0.3826
  644MOL0     H86913  10.836   0.725   5.160  1.1999  3.0999  1.8679
  644MOL0     H86914  11.150   0.704   5.209 -0.2777 -1.0272  0.7085
  644MOL0     H86915  11.064   0.750   5.056  2.0703 -3.0741 -0.5361
  644MOL0     H86916  11.051   0.891   5.320  1.0193 -2.0879  1.2603
  644MOL0     H86917  10.946   0.923   5.187 -0.4335 -2.0281 -0.2790
  644MOL0     H86918  11.156   0.990   5.053 -0.3530  2.9964  0.4373
  644MOL0     H86919  11.128   1.084   5.203  0.6077 -0.1158  1.3476
  644MOL0     H86920  10.468   0.471   4.783  2.7575 -0.6583  3.3901
  644MOL0     H86921  10.225   0.452   4.777  1.4945  0.1006 -1.0767
  644MOL0     H86922   9.799   0.233   4.576 -0.2578  1.1543 -0.4583
  644MOL0     H86923   9.579   0.151   4.605 -0.5849 -2.2716 -0.6047
  644MOL0     H86924   7.657   0.027   4.194 -0.5074 -0.1699 -0.3396
  644MOL0     H86925   7.421  -0.008   4.193  0.0281 -1.4739  1.9804
  644MOL0     H86926   6.941   0.236   4.092  1.8976 -1.6633 -0.4178
  644MOL0     H86927   6.689   0.188   4.140 -1.0772 -0.6901  0.9659
  644MOL0     H86928   6.535   0.034   4.120  2.6656  1.6589  0.1269
  644MOL0     H86929   6.483   0.171   4.215  0.9857  0.0713 -3.0604
  644MOL0     H86930   6.302   0.042   4.134  1.4097  1.8617 -0.8559
  644MOL0     H86931   6.289   0.071   4.300  1.0381 -2.2438  3.1140
  644MOL0     H86932   6.385  -0.138   4.361 -0.0312 -0.5785 -0.6747
  644MOL0     H86933   6.434  -0.188   4.207  1.1943  0.5581  1.3724
  644MOL0     H86934   6.251  -0.319   4.270  0.5906  0.6622  0.9680
  644MOL0     H86935   6.144  -0.181   4.315  0.1390  0.0759 -0.7538
  644MOL0     H86936   6.103  -0.205   3.896  1.6069 -1.5931 -0.4237
  644MOL0     H86937   6.776  -0.054   4.460 -2.2283  2.3996  0.1155
  644MOL0     H86938   7.003  -0.104   4.525  0.7417 -0.9793  0.0733
  644MOL0     H86939   7.141  -0.059   4.428 -0.2596 -1.9021  2.6570
  644MOL0     H86940   7.079   0.048   4.552 -3.2787  4.5504 -1.8940
  645MOL0     O86941   1.252  11.204   9.506 -0.8460  1.3963  0.5000
  645MOL0     C86942   1.157  11.202   9.584  0.3912 -0.5017 -0.0127
  645MOL0     O86943   1.152  11.271   9.706  0.5146  0.4010 -1.1033
  645MOL0     C86944   1.265  11.275   9.779 -0.1552 -0.5201  0.1297
  645MOL0     C86945   1.373  11.353   9.742  0.6951 -0.5499  0.6892
  645MOL0     C86946   1.491  11.349   9.812  0.4807 -0.2804  0.3274
  645MOL0     C86947   1.508  11.273   9.930 -0.5294 -0.3316  0.1876
  645MOL0     O86948   1.624  11.285   9.996 -0.6500  0.5084 -0.3697
  645MOL0     C86949   1.672  11.153  10.048 -0.6638  0.0879 -0.8911
  645MOL0     C86950   1.830  11.172  10.047 -0.5189 -0.0421 -0.0079
  645MOL0     C86951   1.884  11.183  10.190  0.0544 -0.7264  0.2375
  645MOL0     C86952   2.032  11.182  10.187 -0.7519 -0.2924 -0.2723
  645MOL0     C86953   2.093  11.219  10.326 -0.0186 -0.6368  0.0393
  645MOL0     C86954   2.242  11.238  10.323  0.4063  0.3169 -0.3687
  645MOL0     C86955   2.296  11.296  10.456 -0.9055  0.5518 -0.1533
  645MOL0     C86956   2.449  11.295  10.478  0.2337 -0.1460  0.6607
  645MOL0     N86957   2.516  11.366  10.365  0.2151  0.5908  0.1132
  645MOL0     C86958   2.557  11.500  10.370  0.0978  0.6879 -0.1068
  645MOL0     C86959   2.610  11.525  10.246 -1.0082 -0.8046  0.1143
  645MOL0     C86960   2.679  11.658  10.213 -0.0966 -0.3053 -0.0266
  645MOL0     C86961   2.781  11.718  10.314  0.4582  0.1325 -1.1526
  645MOL0     C86962   2.853  11.620  10.405  0.0430 -1.2599  1.1508
  645MOL0     C86963   2.948  11.523  10.327  0.3671 -0.5477  0.4231
  645MOL0     O86964   2.999  11.445  10.434  0.3633  0.2048 -0.1988
  645MOL0     C86965   3.122  11.401  10.424 -0.1363  0.7491  0.3817
  645MOL0     C86966   3.185  11.361  10.306  0.0700 -0.5496 -0.0493
  645MOL0     C86967   3.297  11.299  10.306 -0.9733  0.3964  0.2334
  645MOL0     C86968   3.372  11.285  10.417 -0.5148 -0.8994 -0.3758
  645MOL0     C86969   3.510  11.238  10.421 -0.1335 -0.6448 -0.1405
  645MOL0     O86970   3.579  11.244  10.298  0.5804  0.0951  0.4167
  645MOL0     C86971   3.702  11.185  10.264  0.4390 -0.3489 -0.5570
  645MOL0     C86972   3.764  11.218  10.142  0.1511 -0.4513 -0.5051
  645MOL0     C86973   3.900  11.181  10.128  0.0613  0.5218 -0.5569
  645MOL0     C86974   3.961  11.090  10.217 -0.4548  0.6978  0.0020
  645MOL0     O86975   4.076  11.029  10.192 -0.1656  0.4297  0.3773
  645MOL0     C86976   4.116  10.992  10.059 -0.4491 -0.2940 -0.2831
  645MOL0     C86977   4.210  10.880  10.054 -0.3659  0.3790 -0.4797
  645MOL0     C86978   4.337  10.896  10.130  0.2569  0.6230  1.0123
  645MOL0     C86979   4.446  10.790  10.101  0.2591 -0.3721 -0.3614
  645MOL0     C86980   4.478  10.783   9.951 -1.0353 -0.0566  0.2020
  645MOL0     C86981   4.619  10.728   9.935  0.1013  0.1570  0.5013
  645MOL0     C86982   4.655  10.719   9.786  0.9307 -0.0371 -0.0421
  645MOL0     C86983   4.792  10.661   9.777 -0.3272  0.6121  0.1204
  645MOL0    Cl86984   4.851  10.639   9.613  0.1657  0.1409 -0.3913
  645MOL0     C86985   3.900  11.070  10.338  0.0306 -0.1655  0.2985
  645MOL0     C86986   3.769  11.108  10.355  0.4270 -0.7974 -1.4595
  645MOL0     O86987   3.546  11.172  10.520 -1.1167  0.2470 -0.0635
  645MOL0     C86988   3.315  11.317  10.540  1.0858  0.2256 -0.5548
  645MOL0     C86989   3.184  11.369  10.544  0.7149 -0.3028  1.1763
  645MOL0     N86990   2.605  11.403  10.177 -0.3439 -0.7042  0.1753
  645MOL0     N86991   2.569  11.306  10.253  0.1159 -0.7604 -0.5550
  645MOL0     C86992   1.396  11.203   9.974 -0.3262  0.0108  0.5549
  645MOL0     C86993   1.276  11.207   9.897 -0.5365 -0.7238 -0.3157
  645MOL0     C86994   1.028  11.145   9.543 -0.8651  0.2466 -0.5436
  645MOL0     C86995   1.022  11.098   9.412  0.5406 -0.1188 -0.2448
  645MOL0     C86996   0.907  11.050   9.353 -0.1241 -0.3055 -0.4443
  645MOL0     C86997   0.781  11.052   9.422 -0.2560  0.3017 -0.5363
  645MOL0     O86998   0.674  10.994   9.355  0.3739 -0.2952  0.0404
  645MOL0     C86999   0.559  11.086   9.341  0.4795  0.2226 -0.4763
  645MOL0     C87000   0.444  11.060   9.433  0.3719 -0.5737  0.3799
  645MOL0     C87001   0.327  11.167   9.406 -0.1186  0.2243  0.8053
  645MOL0     C87002   0.320  11.286   9.505  0.4227  0.1783 -0.7341
  645MOL0     C87003   0.246  11.234   9.619  0.1429 -0.9795 -0.6098
  645MOL0     C87004   0.182  11.199   9.718 -0.0625  0.6154  0.2597
  645MOL0     C87005   0.784  11.088   9.561  1.3881 -0.4162  0.1837
  645MOL0     C87006   0.900  11.133   9.618 -0.5843  0.4518 -0.0300
  645MOL0     C87007   0.885  11.150   9.772 -0.7313  0.0139  0.8463
  645MOL0     H87008   1.358  11.413   9.653 -4.2803 -1.3033  0.7730
  645MOL0     H87009   1.577  11.410   9.784  2.2600 -3.3535 -1.3861
  645MOL0     H87010   1.651  11.146  10.155  2.2934  4.0573  0.1706
  645MOL0     H87011   1.654  11.065   9.986  1.6708  0.9990 -3.0067
  645MOL0     H87012   1.859  11.266  10.000 -1.2237 -0.1116 -0.6035
  645MOL0     H87013   1.881  11.089   9.997 -0.8634  0.2355 -0.8241
  645MOL0     H87014   1.835  11.110  10.255 -0.2416 -0.7119  0.0342
  645MOL0     H87015   1.856  11.278  10.237  1.3829 -0.0695 -0.2558
  645MOL0     H87016   2.061  11.078  10.173 -2.7565 -0.8053 -0.9650
  645MOL0     H87017   2.077  11.247  10.111 -2.1524  3.4160  1.7748
  645MOL0     H87018   2.036  11.308  10.353 -2.5368 -1.4579 -2.0924
  645MOL0     H87019   2.069  11.145  10.404 -0.2865  0.6913  1.2519
  645MOL0     H87020   2.294  11.142  10.314  1.6665  0.9081  0.2193
  645MOL0     H87021   2.270  11.306  10.242  2.6422 -2.4752 -2.1353
  645MOL0     H87022   2.248  11.240  10.537 -0.6000 -1.0294 -1.0261
  645MOL0     H87023   2.259  11.398  10.471  2.8392  2.3766 -2.0320
  645MOL0     H87024   2.478  11.326  10.579 -1.2005  3.2339  0.1790
  645MOL0     H87025   2.482  11.192  10.462  1.2503  0.3169 -0.3464
  645MOL0     H87026   2.537  11.575  10.445  2.4519  1.0621  0.2201
  645MOL0     H87027   2.724  11.639  10.115 -0.2256  1.3910 -0.4537
  645MOL0     H87028   2.605  11.736  10.195  0.3160  0.9118  3.0796
  645MOL0     H87029   2.859  11.777  10.266  1.0248  0.2839 -0.0694
  645MOL0     H87030   2.720  11.787  10.372  2.2337  3.0855 -2.5753
  645MOL0     H87031   2.780  11.566  10.467 -3.2922 -0.0599 -1.3815
  645MOL0     H87032   2.920  11.679  10.468 -0.9987  1.6340 -0.2539
  645MOL0     H87033   3.025  11.578  10.272  1.0149 -4.7801 -3.5327
  645MOL0     H87034   2.900  11.466  10.247 -1.5472 -2.7957  3.0007
  645MOL0     H87035   3.140  11.370  10.208 -3.1404  1.3549  1.4107
  645MOL0     H87036   3.339  11.262  10.213 -2.2615 -2.5254  0.6878
  645MOL0     H87037   3.721  11.291  10.075  1.7755  0.8460 -0.2167
  645MOL0     H87038   3.953  11.213  10.039  2.1779  0.4777  0.6232
  645MOL0     H87039   4.024  10.967  10.005 -1.1863  1.1923  0.2383
  645MOL0     H87040   4.160  11.073  10.000  0.5125  0.0585  0.8790
  645MOL0     H87041   4.176  10.785  10.099  2.0992  0.5742  2.1152
  645MOL0     H87042   4.223  10.870   9.946  0.5016 -1.1129 -0.2736
  645MOL0     H87043   4.380  10.993  10.106  4.9140 -1.0534  1.5768
  645MOL0     H87044   4.308  10.908  10.235  2.3229  0.4481  1.6497
  645MOL0     H87045   4.423  10.691  10.143 -2.6768 -0.2255 -1.3926
  645MOL0     H87046   4.537  10.819  10.154 -0.1269 -1.2891  0.8716
  645MOL0     H87047   4.475  10.883   9.907  1.7710 -0.6433 -1.5717
  645MOL0     H87048   4.403  10.730   9.892 -2.9330  1.8451  0.7895
  645MOL0     H87049   4.691  10.792   9.987 -1.3354 -1.0094  4.2516
  645MOL0     H87050   4.630  10.628   9.978  1.1153  0.6045  1.3392
  645MOL0     H87051   4.638  10.820   9.747 -1.6817 -0.4391 -0.1495
  645MOL0     H87052   4.586  10.654   9.733  1.5350 -3.3113  2.8553
  645MOL0     H87053   4.867  10.724   9.826 -0.9525  0.8232  0.8166
  645MOL0     H87054   4.806  10.562   9.823  1.3329  0.7197 -0.1084
  645MOL0     H87055   3.945  11.000  10.408  1.7740 -0.5076 -1.0962
  645MOL0     H87056   3.728  11.063  10.445  1.6593 -0.0944 -0.5135
  645MOL0     H87057   3.359  11.300  10.638  0.0289 -3.1494 -0.5503
  645MOL0     H87058   3.137  11.402  10.635  1.7337  2.9523  0.6374
  645MOL0     H87059   1.392  11.154  10.071  2.6740 -3.3254 -0.7588
  645MOL0     H87060   1.188  11.156   9.935  0.2963 -1.8826  0.1227
  645MOL0     H87061   1.103  11.116   9.341 -1.1416  5.5107 -1.2989
  645MOL0     H87062   0.924  11.024   9.249  2.9561 -0.7158  0.0731
  645MOL0     H87063   0.527  11.089   9.236 -1.0271  2.3300 -0.0274
  645MOL0     H87064   0.598  11.188   9.352  4.4940 -1.2366  0.5377
  645MOL0     H87065   0.470  11.074   9.538 -1.4229  0.5276  0.7122
  645MOL0     H87066   0.404  10.960   9.415 -0.9738 -0.2648  1.5169
  645MOL0     H87067   0.229  11.118   9.415 -1.0990  1.8413 -0.4964
  645MOL0     H87068   0.334  11.200   9.302  3.1532  0.8611  1.1408
  645MOL0     H87069   0.416  11.335   9.523  1.1690 -1.4362 -0.1268
  645MOL0     H87070   0.255  11.364   9.465 -1.8519 -1.9001 -1.3874
  645MOL0     H87071   0.133  11.167   9.808  0.2534  0.1155  0.2600
  645MOL0     H87072   0.698  11.059   9.621  1.6105 -1.6574 -0.0876
  645MOL0     H87073   0.916  11.058   9.823 -1.9390 -0.5791  0.5675
  645MOL0     H87074   0.951  11.233   9.796  3.2620 -2.4539 -0.5233
  645MOL0     H87075   0.783  11.166   9.810 -2.7501 -4.6878 -1.6881
  646MOL0     O87076   7.083   2.677   2.253  0.3700 -0.8901  0.7996
  646MOL0     C87077   7.065   2.785   2.308  0.0279  0.0137  0.2060
  646MOL0     O87078   7.165   2.863   2.355  0.0386  0.2014 -0.2525
  646MOL0     C87079   7.291   2.809   2.363 -0.0007 -0.0412 -0.0944
  646MOL0     C87080   7.373   2.773   2.253  0.7169 -0.4624 -0.2665
  646MOL0     C87081   7.515   2.738   2.284  1.0805  0.0049 -0.6448
  646MOL0     C87082   7.564   2.745   2.415 -0.1189  0.3435  0.3387
  646MOL0     O87083   7.697   2.720   2.438  0.0377  0.5037  0.2841
  646MOL0     C87084   7.760   2.726   2.566 -0.1879 -0.4630 -0.5719
  646MOL0     C87085   7.915   2.742   2.532  0.0073  1.3662  0.1897
  646MOL0     C87086   7.997   2.767   2.653  0.2161  0.3290  0.1647
  646MOL0     C87087   8.154   2.770   2.622  0.5529 -0.5934  0.3209
  646MOL0     C87088   8.223   2.797   2.750  0.2485 -0.3444 -0.6107
  646MOL0     C87089   8.368   2.772   2.739 -0.1364  0.9645  0.3022
  646MOL0     C87090   8.425   2.707   2.868 -0.0912 -0.0544  0.0169
  646MOL0     C87091   8.407   2.552   2.876 -0.0017 -0.4213 -0.4989
  646MOL0     N87092   8.482   2.480   2.775  0.1470 -0.3063  0.0594
  646MOL0     C87093   8.429   2.436   2.656  0.0787 -0.0556 -0.3650
  646MOL0     C87094   8.531   2.406   2.573  0.3866 -1.1612 -0.4363
  646MOL0     C87095   8.518   2.356   2.436 -0.3560 -0.4813 -0.9028
  646MOL0     C87096   8.404   2.423   2.360  0.2496 -0.0010 -0.0737
  646MOL0     C87097   8.413   2.401   2.206  0.2900  0.1761  0.0611
  646MOL0     C87098   8.514   2.493   2.134 -0.4330 -0.3653 -0.4623
  646MOL0     O87099   8.648   2.466   2.174 -0.5047 -0.3452  0.1185
  646MOL0     C87100   8.738   2.411   2.087  0.0412  0.2181  0.8001
  646MOL0     C87101   8.862   2.374   2.133 -0.4115 -0.4842 -0.0994
  646MOL0     C87102   8.962   2.304   2.062  0.2655  0.1293 -0.1989
  646MOL0     C87103   8.934   2.271   1.930  0.5335 -1.0184 -0.5925
  646MOL0     C87104   9.034   2.202   1.845 -0.3714  1.1081 -1.1050
  646MOL0     O87105   9.156   2.191   1.905 -0.7094  0.7235  0.6848
  646MOL0     C87106   9.271   2.126   1.854  0.5797  0.6520 -0.8590
  646MOL0     C87107   9.263   2.031   1.750 -0.0182 -0.4798 -0.4565
  646MOL0     C87108   9.375   1.962   1.706  0.0732 -0.0403 -0.5334
  646MOL0     C87109   9.505   1.982   1.764  0.0706  0.0754  0.0523
  646MOL0     O87110   9.608   1.901   1.728  0.4756  0.7882 -0.1246
  646MOL0     C87111   9.738   1.930   1.766  0.1548 -0.0211  0.4791
  646MOL0     C87112   9.823   1.840   1.685 -1.7000 -0.2793 -0.3893
  646MOL0     C87113   9.977   1.874   1.693  0.2944  0.4985  0.0795
  646MOL0     C87114  10.051   1.789   1.588 -0.8256 -0.2421 -0.0516
  646MOL0     C87115  10.052   1.643   1.610 -1.1217  0.2395  0.3068
  646MOL0     C87116  10.131   1.557   1.504  1.0221 -0.4898  0.1692
  646MOL0     C87117  10.086   1.412   1.495  1.2453  0.0581 -0.8317
  646MOL0     C87118   9.977   1.408   1.404 -0.4615  0.8462 -0.4994
  646MOL0    Cl87119   9.892   1.248   1.409 -0.0736  0.1175 -0.4900
  646MOL0     C87120   9.508   2.079   1.867 -0.3089  1.0345 -0.0486
  646MOL0     C87121   9.401   2.150   1.916  0.4361  0.0248 -0.7467
  646MOL0     O87122   9.005   2.170   1.725  0.2990  0.7330  0.5062
  646MOL0     C87123   8.809   2.310   1.877  0.7521 -0.5962 -1.0672
  646MOL0     C87124   8.715   2.376   1.948 -0.2864 -0.4710  0.2744
  646MOL0     N87125   8.648   2.426   2.653  1.4077 -0.6589  0.9012
  646MOL0     N87126   8.612   2.476   2.761  0.0081 -0.5540 -0.1998
  646MOL0     C87127   7.472   2.777   2.517  0.3854  0.0189 -0.3035
  646MOL0     C87128   7.347   2.807   2.491  1.2870 -0.0640  0.2084
  646MOL0     C87129   6.933   2.843   2.314  0.1270  0.4206 -0.3025
  646MOL0     C87130   6.900   2.956   2.237 -0.3689 -0.0532  0.0794
  646MOL0     C87131   6.770   3.014   2.244 -0.3825  0.2917  0.0331
  646MOL0     C87132   6.675   2.965   2.328 -0.3331 -0.3518  0.8403
  646MOL0     O87133   6.560   3.037   2.343  0.3089 -0.3051 -0.3406
  646MOL0     C87134   6.448   2.970   2.405  0.2794  0.3819  0.3689
  646MOL0     C87135   6.309   3.042   2.383  0.9584 -0.5768  0.1429
  646MOL0     C87136   6.295   3.131   2.248  0.6483  0.1502  0.0152
  646MOL0     C87137   6.147   3.190   2.229 -0.2801  0.4487 -0.6450
  646MOL0     C87138   6.040   3.092   2.232  0.0213 -0.1723 -0.5314
  646MOL0     C87139   5.947   3.010   2.225  0.3758 -0.6882  0.2572
  646MOL0     C87140   6.704   2.848   2.399 -0.8754 -0.1531 -0.6324
  646MOL0     C87141   6.831   2.786   2.395 -0.5958 -0.6335 -0.1555
  646MOL0     C87142   6.867   2.668   2.478  0.2470  0.1320 -0.0771
  646MOL0     H87143   7.320   2.757   2.160 -1.9113  0.2087  1.0216
  646MOL0     H87144   7.580   2.696   2.208  3.1767  0.3776  0.8589
  646MOL0     H87145   7.737   2.812   2.629  0.1125 -0.9086  0.1681
  646MOL0     H87146   7.737   2.637   2.626  2.5133 -0.0131  1.3403
  646MOL0     H87147   7.935   2.812   2.450  0.5774  1.1884  0.1719
  646MOL0     H87148   7.951   2.648   2.488  2.7848  1.9772  0.9567
  646MOL0     H87149   7.979   2.691   2.730  0.7155  2.0120  2.0376
  646MOL0     H87150   7.959   2.863   2.691 -1.6634 -0.2635 -0.1304
  646MOL0     H87151   8.182   2.673   2.579 -2.9760 -1.0813 -1.2475
  646MOL0     H87152   8.170   2.842   2.542 -1.6353 -2.6103 -2.1469
  646MOL0     H87153   8.190   2.896   2.784 -2.6496 -1.3634 -0.1998
  646MOL0     H87154   8.187   2.728   2.827  3.3741  2.0149  3.3802
  646MOL0     H87155   8.394   2.703   2.658  1.3099  0.4786  1.1341
  646MOL0     H87156   8.408   2.871   2.715 -0.6622  0.8080 -1.3073
  646MOL0     H87157   8.396   2.749   2.965  0.7961 -1.4169  0.9158
  646MOL0     H87158   8.529   2.736   2.852 -0.5475 -0.0463 -4.1062
  646MOL0     H87159   8.437   2.514   2.974 -0.9947  0.2705  0.0942
  646MOL0     H87160   8.299   2.534   2.870 -0.0282  0.1960 -2.2311
  646MOL0     H87161   8.323   2.434   2.634 -0.3553  0.1660  1.5662
  646MOL0     H87162   8.616   2.365   2.389  1.0944 -4.3830  0.9929
  646MOL0     H87163   8.495   2.250   2.443  0.6545 -0.6362  0.7905
  646MOL0     H87164   8.309   2.403   2.410  0.8437 -0.1563  1.0295
  646MOL0     H87165   8.418   2.531   2.364  0.1409  0.0404 -0.7084
  646MOL0     H87166   8.313   2.434   2.176 -0.5274  0.3385  2.7422
  646MOL0     H87167   8.425   2.296   2.179 -1.4430  0.8800 -4.1532
  646MOL0     H87168   8.491   2.594   2.168  0.2238 -0.0515 -0.9424
  646MOL0     H87169   8.492   2.494   2.027  0.3927  0.6115 -0.6340
  646MOL0     H87170   8.867   2.389   2.240 -3.1886 -1.9165  0.3302
  646MOL0     H87171   9.059   2.284   2.108 -0.1644 -4.4579 -0.8495
  646MOL0     H87172   9.170   1.999   1.704  0.0747 -1.0019 -0.2881
  646MOL0     H87173   9.355   1.873   1.646  0.4134  1.2483 -2.6460
  646MOL0     H87174   9.762   2.036   1.753  3.1944 -0.4378  1.8910
  646MOL0     H87175   9.761   1.923   1.873 -0.5455  3.7498  1.0354
  646MOL0     H87176   9.816   1.735   1.716  1.6177 -1.0971 -1.8747
  646MOL0     H87177   9.791   1.846   1.581 -2.3703 -0.2295 -0.1865
  646MOL0     H87178  10.001   1.974   1.656 -1.7127 -0.0541 -3.0963
  646MOL0     H87179  10.013   1.858   1.795 -2.8435 -1.6183  0.9949
  646MOL0     H87180  10.157   1.817   1.585 -0.8305 -0.2348 -0.1331
  646MOL0     H87181  10.010   1.799   1.487 -1.0853 -0.8198 -0.0023
  646MOL0     H87182   9.949   1.609   1.598 -0.5899 -1.7091  0.9631
  646MOL0     H87183  10.093   1.621   1.708  0.0117  1.1306  0.0496
  646MOL0     H87184  10.124   1.607   1.408  1.2698 -2.0195 -0.6784
  646MOL0     H87185  10.239   1.559   1.526  1.1844 -3.9515  0.2563
  646MOL0     H87186  10.061   1.380   1.597 -0.9862  0.5352 -1.1762
  646MOL0     H87187  10.167   1.346   1.462 -1.3725 -2.4578 -2.6397
  646MOL0     H87188   9.917   1.492   1.442 -0.7000  0.1463  0.7303
  646MOL0     H87189   9.997   1.439   1.301  2.2725 -1.1436 -0.6839
  646MOL0     H87190   9.606   2.106   1.907 -0.3476  0.7432  0.2454
  646MOL0     H87191   9.404   2.233   1.986 -3.1570  0.9434 -1.4980
  646MOL0     H87192   8.779   2.282   1.776 -2.9030 -1.5422  0.1653
  646MOL0     H87193   8.622   2.396   1.895  0.4486 -0.6298 -1.1042
  646MOL0     H87194   7.515   2.753   2.614 -0.7611 -0.3746  0.1264
  646MOL0     H87195   7.275   2.813   2.572  2.1117 -4.0008  1.4530
  646MOL0     H87196   6.957   2.998   2.155  0.8090  0.4221  1.1087
  646MOL0     H87197   6.748   3.089   2.168  4.9288  1.3383 -0.8718
  646MOL0     H87198   6.464   2.959   2.513  2.4076  2.0865  0.2999
  646MOL0     H87199   6.454   2.871   2.359  2.1212  0.3539  0.5683
  646MOL0     H87200   6.278   3.109   2.464 -1.5203 -1.2258 -0.1916
  646MOL0     H87201   6.227   2.970   2.375 -0.3817  0.8386  0.4815
  646MOL0     H87202   6.329   3.084   2.155 -0.5111 -0.4418 -0.1195
  646MOL0     H87203   6.362   3.215   2.269  1.3542  0.2265 -2.2147
  646MOL0     H87204   6.128   3.258   2.313  2.0551  0.3796  0.0169
  646MOL0     H87205   6.131   3.233   2.129 -0.5083 -0.5532 -1.0505
  646MOL0     H87206   5.885   2.924   2.238  0.3188 -0.4071  2.0918
  646MOL0     H87207   6.630   2.810   2.468  0.4930  2.9040  2.8283
  646MOL0     H87208   6.776   2.628   2.524  0.3919 -2.1502 -1.6057
  646MOL0     H87209   6.896   2.582   2.417 -0.6731  0.8874 -1.6570
  646MOL0     H87210   6.934   2.705   2.556  1.1605  0.5248 -1.0275
  647MOL0     O87211   2.105   8.873   6.958 -0.3341  0.7233  0.0476
  647MOL0     C87212   2.093   8.989   7.003 -0.5544  0.1506 -0.2959
  647MOL0     O87213   2.182   9.089   6.972 -0.1304  0.2055 -0.0130
  647MOL0     C87214   2.288   9.063   6.890  1.2403  0.2321  0.8914
  647MOL0     C87215   2.282   9.093   6.757 -0.3814 -0.3860 -0.1254
  647MOL0     C87216   2.391   9.076   6.669  1.1257  0.3613  0.4977
  647MOL0     C87217   2.516   9.024   6.714 -0.1492 -0.2750  0.1769
  647MOL0     O87218   2.632   9.019   6.636  0.4831  0.2174 -0.0280
  647MOL0     C87219   2.599   8.965   6.504  0.0086  0.4896  0.1109
  647MOL0     C87220   2.722   8.968   6.420 -0.1537 -0.6004  0.7289
  647MOL0     C87221   2.749   9.110   6.373  0.2202 -0.7812 -0.8773
  647MOL0     C87222   2.822   9.194   6.479 -0.0897  0.0521 -0.3260
  647MOL0     C87223   2.916   9.304   6.416 -0.3653 -0.1418 -0.1533
  647MOL0     C87224   2.969   9.409   6.515  0.1474 -0.5175  0.9163
  647MOL0     C87225   3.065   9.500   6.450  0.0704  0.6786  0.3294
  647MOL0     C87226   3.108   9.610   6.555 -0.3394  0.5800 -1.0907
  647MOL0     N87227   3.159   9.562   6.686  0.7807  0.7852 -0.4138
  647MOL0     C87228   3.280   9.501   6.719 -0.2632 -0.7081 -0.2037
  647MOL0     C87229   3.272   9.448   6.843  0.8547  0.5717  0.7272
  647MOL0     C87230   3.367   9.365   6.920  0.3041  0.0520 -0.0981
  647MOL0     C87231   3.508   9.409   6.932 -0.3230 -0.7985 -0.4594
  647MOL0     C87232   3.580   9.344   7.054 -0.6372  0.3469  0.6559
  647MOL0     C87233   3.737   9.357   7.054  0.1077 -0.3005  0.0782
  647MOL0     O87234   3.769   9.497   7.028  0.8611 -0.7272 -0.6863
  647MOL0     C87235   3.893   9.529   6.997  0.2577  0.1623 -0.1492
  647MOL0     C87236   3.906   9.659   6.962 -0.0358 -0.7009 -0.1972
  647MOL0     C87237   4.028   9.720   6.944  0.3735  0.0341 -0.0852
  647MOL0     C87238   4.144   9.646   6.970  0.2331  0.3195  0.6829
  647MOL0     C87239   4.282   9.703   6.957 -0.6575 -0.5401  0.3713
  647MOL0     O87240   4.380   9.633   7.014 -0.3679 -0.7861  0.1500
  647MOL0     C87241   4.514   9.659   7.005  0.2624  0.7121 -0.0678
  647MOL0     C87242   4.585   9.677   7.123  1.1234  0.6270 -0.2065
  647MOL0     C87243   4.725   9.700   7.118  0.1669  0.1633  0.1774
  647MOL0     C87244   4.793   9.693   7.000 -0.2747 -0.1967 -0.5906
  647MOL0     O87245   4.929   9.714   7.019 -0.0716 -0.0096 -0.4808
  647MOL0     C87246   5.027   9.691   6.919 -0.5731  0.2296 -0.0712
  647MOL0     C87247   5.152   9.784   6.929  0.3511 -0.0071 -0.1424
  647MOL0     C87248   5.103   9.929   6.912  0.6733 -0.1646 -0.4244
  647MOL0     C87249   5.215  10.032   6.921  0.3790  0.5358 -0.6639
  647MOL0     C87250   5.276  10.042   6.779  0.3341 -0.0671  0.5322
  647MOL0     C87251   5.369  10.158   6.762  0.5571 -0.7241  0.3489
  647MOL0     C87252   5.484  10.156   6.855  0.5161  0.0646 -0.1283
  647MOL0     C87253   5.559  10.295   6.844  0.0636 -0.1934 -0.3820
  647MOL0    Cl87254   5.651  10.299   6.677 -0.4961  0.3016 -0.5469
  647MOL0     C87255   4.722   9.674   6.877 -0.0376 -0.8751 -0.1137
  647MOL0     C87256   4.581   9.662   6.881  0.2811 -0.2903  0.3366
  647MOL0     O87257   4.297   9.806   6.896  0.0463 -0.3655  0.0910
  647MOL0     C87258   4.129   9.507   6.995 -0.5350  0.3838  0.6689
  647MOL0     C87259   4.008   9.444   7.009  0.5477  0.3440 -0.1792
  647MOL0     N87260   3.149   9.490   6.891  0.4016 -0.2705 -0.7223
  647MOL0     N87261   3.084   9.560   6.806  0.2455  0.0739  0.3946
  647MOL0     C87262   2.525   8.976   6.852  0.5095 -0.4510 -0.1542
  647MOL0     C87263   2.410   9.002   6.936  0.5600 -0.5663 -0.1943
  647MOL0     C87264   1.967   9.022   7.081 -0.4126 -0.4134  1.1193
  647MOL0     C87265   1.919   9.159   7.065  0.0317 -0.3275 -0.3217
  647MOL0     C87266   1.790   9.200   7.108 -0.1979 -0.0997  0.3295
  647MOL0     C87267   1.704   9.103   7.172  0.3709  0.7153  0.7420
  647MOL0     O87268   1.585   9.148   7.227  0.4387  0.2300 -0.1567
  647MOL0     C87269   1.485   9.043   7.250  0.9250 -1.1148 -0.3340
  647MOL0     C87270   1.350   9.129   7.252 -0.2577  0.5018 -0.5824
  647MOL0     C87271   1.230   9.049   7.237 -0.2966 -0.3674 -0.5682
  647MOL0     C87272   1.099   9.125   7.223 -0.8291 -0.8380  0.5124
  647MOL0     C87273   1.042   9.169   7.349  0.0716  0.0447 -0.6626
  647MOL0     C87274   0.980   9.209   7.450  0.6739  0.4461 -0.4157
  647MOL0     C87275   1.751   8.968   7.187 -0.8338 -0.5831  0.4048
  647MOL0     C87276   1.881   8.927   7.148 -0.5169 -0.3847  0.0898
  647MOL0     C87277   1.920   8.777   7.166 -0.2664  0.4642  0.1105
  647MOL0     H87278   2.185   9.124   6.719  1.1564  2.2716 -2.2797
  647MOL0     H87279   2.386   9.108   6.566  2.2252  0.8610  0.5842
  647MOL0     H87280   2.571   8.861   6.518 -1.3001  0.8696  0.4885
  647MOL0     H87281   2.519   9.017   6.451  0.6053 -0.3017 -1.6408
  647MOL0     H87282   2.693   8.905   6.336  0.9027 -1.2608  0.8384
  647MOL0     H87283   2.808   8.921   6.468 -1.5453 -1.8972  2.0586
  647MOL0     H87284   2.656   9.162   6.347  0.5677 -0.2783 -1.1266
  647MOL0     H87285   2.810   9.107   6.282 -1.2450 -0.7458 -1.8917
  647MOL0     H87286   2.744   9.251   6.531  1.5917  2.3770 -0.1615
  647MOL0     H87287   2.872   9.130   6.552 -0.6742 -2.1150 -1.7487
  647MOL0     H87288   3.002   9.256   6.370  2.2680  2.0526  2.1095
  647MOL0     H87289   2.862   9.359   6.338  0.4916 -0.0225 -0.6771
  647MOL0     H87290   2.887   9.472   6.550  0.5125 -0.7201  2.1794
  647MOL0     H87291   3.003   9.364   6.609  1.0560  1.0775  1.3958
  647MOL0     H87292   3.027   9.553   6.362  2.3076  1.2573 -0.3725
  647MOL0     H87293   3.152   9.451   6.403  0.1855  0.9316  0.2726
  647MOL0     H87294   3.187   9.676   6.518  0.5678 -0.8344 -1.7352
  647MOL0     H87295   3.023   9.677   6.573  1.1189  2.1422  0.3876
  647MOL0     H87296   3.364   9.481   6.654 -1.5370 -0.2288 -2.0630
  647MOL0     H87297   3.317   9.349   7.016  2.5323 -2.7639  0.7325
  647MOL0     H87298   3.375   9.262   6.883  0.6993  0.2200 -0.4886
  647MOL0     H87299   3.568   9.374   6.847 -0.3334  1.6344 -1.5530
  647MOL0     H87300   3.515   9.518   6.941 -2.9283 -0.6544  0.6836
  647MOL0     H87301   3.559   9.237   7.054 -1.0441  0.4206  0.1199
  647MOL0     H87302   3.538   9.389   7.145 -0.2297 -0.3977  1.2149
  647MOL0     H87303   3.775   9.291   6.975 -0.6662 -2.8923  1.7422
  647MOL0     H87304   3.776   9.322   7.150  0.5436 -0.3048 -0.0988
  647MOL0     H87305   3.817   9.721   6.964 -1.5370 -2.5619  4.0455
  647MOL0     H87306   4.033   9.824   6.916  0.3540  0.1009  0.1549
  647MOL0     H87307   4.523   9.680   7.212 -1.7757 -0.3564 -2.0403
  647MOL0     H87308   4.792   9.714   7.202  1.4598  0.3031 -0.8425
  647MOL0     H87309   5.047   9.585   6.936 -1.6608  0.2162  1.3451
  647MOL0     H87310   4.985   9.709   6.819 -0.8123  3.6098  0.5216
  647MOL0     H87311   5.205   9.760   7.021 -0.8601 -2.1751  0.0642
  647MOL0     H87312   5.215   9.764   6.842 -0.3877 -1.7986 -0.3172
  647MOL0     H87313   5.053   9.934   6.815 -0.3992  0.3169  0.1334
  647MOL0     H87314   5.028   9.954   6.988 -1.3281 -1.1488 -1.9765
  647MOL0     H87315   5.289   9.995   6.992 -1.0996 -0.6919  0.2975
  647MOL0     H87316   5.189  10.133   6.956 -1.0093  0.4575 -1.3700
  647MOL0     H87317   5.210  10.051   6.692 -1.0986  2.7462  1.7812
  647MOL0     H87318   5.327   9.947   6.758  0.3098 -0.3043  1.4973
  647MOL0     H87319   5.389  10.166   6.655 -0.5136 -3.1296 -0.0941
  647MOL0     H87320   5.299  10.240   6.783 -0.3378 -1.0843 -1.0985
  647MOL0     H87321   5.558  10.083   6.820  2.6004  1.7672  0.5254
  647MOL0     H87322   5.441  10.139   6.954  0.0517 -1.9727 -0.6368
  647MOL0     H87323   5.482  10.372   6.837  0.7435  0.4379 -1.1918
  647MOL0     H87324   5.631  10.325   6.920 -2.8403  3.4291  1.2390
  647MOL0     H87325   4.779   9.664   6.786 -0.0032 -1.0998 -0.0674
  647MOL0     H87326   4.525   9.623   6.796 -2.5757 -0.7002  2.2863
  647MOL0     H87327   4.219   9.446   7.005  0.7426  2.1467  0.3910
  647MOL0     H87328   4.007   9.337   7.024  1.8584  0.1062 -1.5454
  647MOL0     H87329   2.620   8.944   6.893  0.5164  0.1715  0.3227
  647MOL0     H87330   2.422   8.980   7.042  2.1554  1.5396  0.1223
  647MOL0     H87331   1.983   9.226   7.009  0.1337  1.5813  1.9121
  647MOL0     H87332   1.759   9.302   7.087 -2.3319 -0.1240  2.8032
  647MOL0     H87333   1.499   8.990   7.344  1.1472  0.4862  0.5634
  647MOL0     H87334   1.476   8.974   7.165  1.3900 -1.3556 -0.1916
  647MOL0     H87335   1.366   9.187   7.161 -0.2808 -0.0875 -0.9667
  647MOL0     H87336   1.345   9.189   7.344 -1.2261 -0.2207 -0.1403
  647MOL0     H87337   1.218   8.970   7.312 -0.5408 -2.0322 -2.2811
  647MOL0     H87338   1.255   9.012   7.138  2.1328  0.5937 -0.3751
  647MOL0     H87339   1.124   9.217   7.169 -0.7200 -0.3219  1.4071
  647MOL0     H87340   1.025   9.077   7.159  1.4198 -0.2806 -2.7564
  647MOL0     H87341   0.927   9.233   7.540  0.5307 -1.1134 -0.0545
  647MOL0     H87342   1.679   8.899   7.230 -1.3258 -2.2218 -2.7850
  647MOL0     H87343   1.899   8.715   7.078  2.2472 -1.8031  0.9613
  647MOL0     H87344   2.027   8.776   7.185 -0.6344  0.5882  2.4189
  647MOL0     H87345   1.863   8.735   7.250 -1.4910 -3.1870 -2.2704
  648MOL0     O87346   1.578   5.991   9.985 -0.3032  0.2230  0.4147
  648MOL0     C87347   1.663   5.915  10.040  0.2386 -0.3445 -0.4131
  648MOL0     O87348   1.789   5.945  10.059 -0.4512 -0.1445  1.4618
  648MOL0     C87349   1.857   6.040   9.986 -0.3469 -0.6798 -0.4913
  648MOL0     C87350   1.945   6.127  10.054 -0.1067 -0.0931 -0.2350
  648MOL0     C87351   2.002   6.240   9.984 -0.1211 -0.9303 -0.2418
  648MOL0     C87352   1.974   6.257   9.849  0.0815  0.1406  0.4544
  648MOL0     O87353   2.028   6.366   9.779  0.9196  0.4331 -0.2619
  648MOL0     C87354   2.127   6.338   9.682  0.2745 -0.0045 -0.0666
  648MOL0     C87355   2.268   6.338   9.748 -0.5084  1.4053  0.3797
  648MOL0     C87356   2.324   6.478   9.745 -0.4499 -0.9858 -1.2270
  648MOL0     C87357   2.436   6.478   9.852  0.0432 -0.3667 -0.4978
  648MOL0     C87358   2.524   6.600   9.863 -0.4304  1.0983  0.3704
  648MOL0     C87359   2.627   6.625   9.744 -0.5149 -0.5133 -0.1765
  648MOL0     C87360   2.696   6.755   9.754 -0.6121 -0.6869  0.1510
  648MOL0     C87361   2.819   6.776   9.665 -0.1008  0.1741 -0.1418
  648MOL0     N87362   2.947   6.802   9.734 -0.2885 -0.2425  0.0080
  648MOL0     C87363   3.044   6.703   9.747  0.4487  0.4456  0.1399
  648MOL0     C87364   3.146   6.761   9.818  0.8946 -0.2844 -0.4264
  648MOL0     C87365   3.275   6.700   9.848  1.3291  0.4438  0.0614
  648MOL0     C87366   3.269   6.562   9.927  0.1893 -0.2484 -0.1325
  648MOL0     C87367   3.392   6.471   9.928 -0.8732  0.1902  0.6179
  648MOL0     C87368   3.446   6.421   9.788 -0.7433  0.0735  0.0666
  648MOL0     O87369   3.356   6.430   9.677 -0.5670 -0.2263 -0.0061
  648MOL0     C87370   3.245   6.358   9.670  0.1130  0.4554  0.3924
  648MOL0     C87371   3.148   6.398   9.574 -1.0861 -0.1857 -0.8241
  648MOL0     C87372   3.035   6.330   9.555  0.4433  0.4191  0.0735
  648MOL0     C87373   3.006   6.209   9.627 -0.4736  0.3476 -0.1293
  648MOL0     C87374   2.892   6.122   9.598  0.4390  0.6390  0.5110
  648MOL0     O87375   2.801   6.163   9.497 -0.2309 -0.1797  0.1349
  648MOL0     C87376   2.697   6.080   9.472  0.1635 -0.0716  0.1772
  648MOL0     C87377   2.680   6.029   9.345  0.3714  0.6285 -0.4797
  648MOL0     C87378   2.576   5.941   9.316  0.2441  0.0755 -0.4109
  648MOL0     C87379   2.479   5.913   9.408  0.7806 -0.5112  0.2514
  648MOL0     O87380   2.375   5.818   9.386  0.0753 -0.2279  0.6697
  648MOL0     C87381   2.337   5.794   9.251 -0.2456  0.4688  0.5789
  648MOL0     C87382   2.213   5.706   9.245  0.3811  0.4477  0.1348
  648MOL0     C87383   2.226   5.582   9.341 -0.8500 -0.0243  0.0453
  648MOL0     C87384   2.116   5.488   9.297  0.2598  0.3590  0.3431
  648MOL0     C87385   2.082   5.374   9.402 -0.2096 -0.4376 -0.4790
  648MOL0     C87386   1.963   5.293   9.357 -0.5250  0.3088 -0.4489
  648MOL0     C87387   1.919   5.203   9.471 -0.2261  0.2273  0.0205
  648MOL0     C87388   1.787   5.134   9.430  0.0605 -0.6440  0.0015
  648MOL0    Cl87389   1.658   5.155   9.555 -0.0935  0.3660  0.6348
  648MOL0     C87390   2.480   5.981   9.525 -0.6518  0.2603  0.2287
  648MOL0     C87391   2.591   6.060   9.558  0.1538 -0.4492 -0.5963
  648MOL0     O87392   2.884   6.020   9.665  0.2592  0.3363 -0.0915
  648MOL0     C87393   3.106   6.167   9.726 -0.1622 -0.2797 -0.3376
  648MOL0     C87394   3.222   6.237   9.734 -0.0524 -1.1797 -0.0066
  648MOL0     N87395   3.110   6.895   9.821  0.2286 -0.4838 -0.0252
  648MOL0     N87396   2.987   6.916   9.780 -0.1360 -0.2818  0.6786
  648MOL0     C87397   1.896   6.157   9.781  0.4002  0.4277  0.3387
  648MOL0     C87398   1.835   6.049   9.841 -0.9504 -0.1875  0.2098
  648MOL0     C87399   1.608   5.784  10.075 -0.4744  0.5631  0.8186
  648MOL0     C87400   1.504   5.787  10.172 -0.2860 -0.7173  0.1725
  648MOL0     C87401   1.448   5.668  10.214  0.0206  0.4439  0.2036
  648MOL0     C87402   1.487   5.543  10.152 -0.2674 -0.6201 -0.3426
  648MOL0     O87403   1.434   5.424  10.203 -0.4282  0.6694  0.2294
  648MOL0     C87404   1.295   5.416  10.242  0.2372  0.3150 -0.3744
  648MOL0     C87405   1.221   5.307  10.173 -0.1756  0.2026  1.3477
  648MOL0     C87406   1.088   5.283  10.238  0.0663  0.1066  0.5775
  648MOL0     C87407   0.978   5.365  10.188  0.6640 -0.1360 -0.6771
  648MOL0     C87408   0.852   5.305  10.232 -0.1165 -0.4730  0.2874
  648MOL0     C87409   0.754   5.269  10.291 -1.3064  1.1514  0.2449
  648MOL0     C87410   1.592   5.541  10.064  0.2840 -0.3870 -0.6332
  648MOL0     C87411   1.655   5.660  10.026 -0.5112  0.5856  0.7655
  648MOL0     C87412   1.775   5.638   9.929 -0.0949 -0.3312 -0.4199
  648MOL0     H87413   1.964   6.112  10.160  1.7333 -3.1568 -0.8604
  648MOL0     H87414   2.046   6.313  10.052 -1.4009 -0.6158  0.2725
  648MOL0     H87415   2.105   6.241   9.636  2.6432 -0.1201 -1.1443
  648MOL0     H87416   2.120   6.415   9.604  0.7670 -0.0457 -0.1538
  648MOL0     H87417   2.335   6.275   9.688 -0.1023 -0.1764  2.3841
  648MOL0     H87418   2.267   6.300   9.851 -1.5252 -2.5371 -0.8774
  648MOL0     H87419   2.251   6.558   9.761 -0.0863 -0.7171 -0.9022
  648MOL0     H87420   2.365   6.503   9.647  1.0388  1.1926 -0.1120
  648MOL0     H87421   2.395   6.470   9.953  4.2680  0.6459  1.5294
  648MOL0     H87422   2.497   6.389   9.837  0.2865  0.0261 -1.9496
  648MOL0     H87423   2.463   6.686   9.889 -0.7666  0.1763  2.8863
  648MOL0     H87424   2.575   6.585   9.958  0.2390 -0.1785 -0.1597
  648MOL0     H87425   2.707   6.551   9.751  0.2245  0.3821  1.7749
  648MOL0     H87426   2.576   6.601   9.651 -0.3659  0.4772 -0.5264
  648MOL0     H87427   2.713   6.776   9.859  0.0466 -0.7803  0.0672
  648MOL0     H87428   2.623   6.829   9.720 -2.0546 -0.5727  3.1616
  648MOL0     H87429   2.835   6.686   9.605  2.5819 -0.4434  1.3421
  648MOL0     H87430   2.801   6.853   9.590  2.6002 -2.4103 -3.8342
  648MOL0     H87431   3.047   6.604   9.704  0.9162  0.5460 -0.0727
  648MOL0     H87432   3.329   6.693   9.753 -0.4076  1.8440 -1.0887
  648MOL0     H87433   3.334   6.772   9.905  1.3845  0.2483  0.2525
  648MOL0     H87434   3.245   6.597  10.028 -1.7037  1.1709 -1.0050
  648MOL0     H87435   3.176   6.512   9.898  1.1018 -1.5671 -0.8967
  648MOL0     H87436   3.357   6.383   9.984  0.6519 -0.2580  0.9097
  648MOL0     H87437   3.464   6.523   9.991  0.4127 -2.9743  2.0196
  648MOL0     H87438   3.483   6.319   9.805 -0.8370  0.3260  1.9432
  648MOL0     H87439   3.529   6.490   9.770 -2.8477  2.9816  0.9006
  648MOL0     H87440   3.162   6.490   9.518  0.3945  0.6442  0.7929
  648MOL0     H87441   2.987   6.360   9.462  2.6603  0.2107 -1.2158
  648MOL0     H87442   2.747   6.058   9.264 -2.1238  0.7415 -2.6406
  648MOL0     H87443   2.584   5.884   9.224  4.1598 -1.0855  0.4892
  648MOL0     H87444   2.315   5.891   9.207  0.5571  0.5891  0.4166
  648MOL0     H87445   2.402   5.732   9.189 -4.5301 -0.7580 -3.2307
  648MOL0     H87446   2.129   5.769   9.273 -0.4562  0.2576 -1.7348
  648MOL0     H87447   2.203   5.671   9.141  1.8245 -2.0793  0.7462
  648MOL0     H87448   2.325   5.536   9.327  0.2908  2.0290  0.9651
  648MOL0     H87449   2.218   5.615   9.445  0.7013 -3.0539  1.2647
  648MOL0     H87450   2.152   5.445   9.203 -2.8980 -1.9297  0.0130
  648MOL0     H87451   2.025   5.541   9.270 -0.5637 -1.6673 -1.1402
  648MOL0     H87452   2.055   5.424   9.495  1.7273 -0.4782  0.1499
  648MOL0     H87453   2.172   5.315   9.423 -1.4353 -1.8761  1.0441
  648MOL0     H87454   1.883   5.357   9.319  0.1302  1.9875  0.8599
  648MOL0     H87455   2.001   5.224   9.281  0.6825 -2.6953  2.6449
  648MOL0     H87456   1.904   5.272   9.554  3.1187  0.1233  0.8306
  648MOL0     H87457   1.996   5.128   9.494 -1.4146 -1.2717 -0.6629
  648MOL0     H87458   1.743   5.186   9.344  1.1476  0.5085  0.1189
  648MOL0     H87459   1.810   5.028   9.413 -0.1528 -0.5772 -0.7642
  648MOL0     H87460   2.405   5.960   9.600 -2.1923  2.0260 -0.7091
  648MOL0     H87461   2.575   6.106   9.655  0.2474 -0.8408 -0.3909
  648MOL0     H87462   3.090   6.073   9.777 -1.6029 -0.1276 -0.4690
  648MOL0     H87463   3.299   6.201   9.801  0.1417 -0.8731 -0.0624
  648MOL0     H87464   1.878   6.160   9.674 -0.8346  4.0101  0.5128
  648MOL0     H87465   1.772   5.976   9.793 -1.2269  1.7608 -2.6436
  648MOL0     H87466   1.482   5.885  10.213  1.9571 -0.8362  1.8199
  648MOL0     H87467   1.363   5.675  10.281 -2.2597 -2.9171 -2.0065
  648MOL0     H87468   1.239   5.506  10.214 -3.2971 -1.8547 -0.8736
  648MOL0     H87469   1.285   5.402  10.350 -0.5914 -0.9714 -0.6003
  648MOL0     H87470   1.282   5.217  10.179  0.0814  0.3487  0.9316
  648MOL0     H87471   1.216   5.333  10.067  4.3145 -0.6549  0.7439
  648MOL0     H87472   1.091   5.291  10.348  1.1864  2.9261  0.4324
  648MOL0     H87473   1.060   5.184  10.200  0.4941  0.6397 -1.1738
  648MOL0     H87474   0.991   5.468  10.222  1.0590  0.3441 -2.2037
  648MOL0     H87475   0.979   5.361  10.078  0.9443  1.3038 -0.7579
  648MOL0     H87476   0.680   5.227  10.356 -1.7566 -0.1231 -1.0230
  648MOL0     H87477   1.627   5.443  10.032  4.9159  0.6393  0.6510
  648MOL0     H87478   1.772   5.713   9.849  3.0850  1.0903  0.6218
  648MOL0     H87479   1.870   5.662   9.977 -0.4201  1.9049 -0.7681
  648MOL0     H87480   1.775   5.538   9.885  0.0909 -0.4480 -0.1570
  649MOL0     O87481   9.716   4.215   0.969 -0.0277  0.3461  0.1109
  649MOL0     C87482   9.695   4.331   0.996  0.3519 -0.9546 -1.0881
  649MOL0     O87483   9.790   4.419   1.039  0.5790 -0.1846 -0.0195
  649MOL0     C87484   9.919   4.380   1.067 -0.6300 -0.0223 -0.7261
  649MOL0     C87485   9.956   4.269   1.142  0.0029 -0.4431  0.5424
  649MOL0     C87486  10.086   4.238   1.185 -0.1175  0.2625 -1.0280
  649MOL0     C87487  10.189   4.329   1.159 -0.3703  1.1934  0.0278
  649MOL0     O87488  10.319   4.311   1.210  0.6289 -0.5967  0.8500
  649MOL0     C87489  10.412   4.417   1.211  0.6961  0.9232 -0.3468
  649MOL0     C87490  10.432   4.433   1.358  0.5484 -1.0617 -0.4212
  649MOL0     C87491  10.549   4.519   1.379 -0.1415  0.0822  0.1312
  649MOL0     C87492  10.687   4.449   1.367  0.2100 -0.9166  0.5296
  649MOL0     C87493  10.813   4.540   1.374 -0.1191  0.8888 -0.0928
  649MOL0     C87494  10.937   4.465   1.332  0.0802  0.1984 -0.6413
  649MOL0     C87495  11.043   4.483   1.436 -0.8891  0.3800 -1.2012
  649MOL0     C87496  11.164   4.395   1.412 -0.5510 -0.3173  0.6266
  649MOL0     N87497  11.256   4.425   1.523  0.9948  0.2419 -0.3564
  649MOL0     C87498  11.325   4.542   1.534  0.8171  0.2548  0.3110
  649MOL0     C87499  11.421   4.506   1.628 -0.2707  0.0954 -0.2790
  649MOL0     C87500  11.524   4.607   1.680 -0.0087  0.1158 -0.1672
  649MOL0     C87501  11.638   4.649   1.591 -0.0107 -0.4823 -0.3412
  649MOL0     C87502  11.589   4.755   1.490 -0.3455  1.2794  0.1434
  649MOL0     C87503  11.711   4.822   1.426  0.7626  0.3586  0.3344
  649MOL0     O87504  11.771   4.725   1.337 -0.2151 -0.4945 -0.0311
  649MOL0     C87505  11.849   4.776   1.239 -0.0871  0.5259  1.0419
  649MOL0     C87506  11.886   4.682   1.149  0.1631  0.5877 -0.4158
  649MOL0     C87507  11.981   4.710   1.041 -0.2418  0.1991 -0.6071
  649MOL0     C87508  12.047   4.840   1.034 -0.1927 -0.4287  0.0838
  649MOL0     C87509  12.141   4.866   0.927 -0.7839 -0.0698  0.1629
  649MOL0     O87510  12.198   4.990   0.923 -0.1377 -0.2810  0.0407
  649MOL0     C87511  12.291   5.039   0.832 -1.0952  0.5061 -0.1287
  649MOL0     C87512  12.314   5.175   0.835 -0.4240  0.2644 -0.5420
  649MOL0     C87513  12.418   5.230   0.761 -0.7843 -0.7743  0.2249
  649MOL0     C87514  12.486   5.149   0.671  0.7866  0.9773  0.3864
  649MOL0     O87515  12.590   5.195   0.597  0.6050 -0.2517  0.0959
  649MOL0     C87516  12.716   5.147   0.643 -0.0895 -0.3837  0.0139
  649MOL0     C87517  12.811   5.117   0.531 -0.2591  0.2508  0.8845
  649MOL0     C87518  12.858   5.237   0.442  0.9751 -0.3869  0.3260
  649MOL0     C87519  12.921   5.343   0.532 -0.6906  0.0735 -0.6283
  649MOL0     C87520  13.011   5.425   0.444  0.0808 -1.3500  0.3226
  649MOL0     C87521  13.079   5.537   0.515 -0.1041 -0.1144  0.0414
  649MOL0     C87522  13.131   5.653   0.418  0.2645  0.2298  0.3827
  649MOL0     C87523  13.237   5.606   0.314  0.0381  0.2291  0.8636
  649MOL0    Cl87524  13.368   5.546   0.407 -0.0408  0.0620 -0.2293
  649MOL0     C87525  12.457   5.023   0.654 -0.1263 -0.6634  0.1200
  649MOL0     C87526  12.363   4.965   0.733  0.1455  0.3609 -0.3100
  649MOL0     O87527  12.157   4.774   0.844  0.2036 -0.6195 -0.7201
  649MOL0     C87528  11.993   4.944   1.116 -0.1146  0.2705  0.9768
  649MOL0     C87529  11.896   4.906   1.218  0.2981 -0.4287  0.1223
  649MOL0     N87530  11.387   4.390   1.691  0.2725  0.4235  0.0855
  649MOL0     N87531  11.292   4.337   1.630  0.3338 -0.2456 -0.0913
  649MOL0     C87532  10.158   4.446   1.083  0.3732 -0.1459 -0.0140
  649MOL0     C87533  10.020   4.470   1.031  0.5679  0.5846  0.1445
  649MOL0     C87534   9.562   4.381   0.984  0.1874 -0.6744 -0.1138
  649MOL0     C87535   9.540   4.520   1.020  0.7830 -0.4196 -0.4214
  649MOL0     C87536   9.412   4.570   1.012 -0.9156  0.0113  0.8573
  649MOL0     C87537   9.304   4.496   0.971 -0.8777 -0.2804  0.6439
  649MOL0     O87538   9.183   4.559   0.947 -0.4895 -0.9755 -0.2878
  649MOL0     C87539   9.071   4.508   1.019 -0.3043  0.5832 -0.3875
  649MOL0     C87540   8.982   4.625   1.046  0.1705  0.2519  0.1185
  649MOL0     C87541   8.862   4.574   1.134 -0.2547  0.6757  0.7951
  649MOL0     C87542   8.799   4.683   1.213  0.0776  0.2783  0.2398
  649MOL0     C87543   8.690   4.644   1.293  0.1398  0.1371 -0.0259
  649MOL0     C87544   8.588   4.612   1.346  0.0765  0.1289 -0.3064
  649MOL0     C87545   9.323   4.361   0.947  0.1845 -0.0691 -1.1728
  649MOL0     C87546   9.445   4.303   0.951 -0.3075  0.0308  0.5022
  649MOL0     C87547   9.448   4.153   0.935 -0.1963  0.8393 -0.0668
  649MOL0     H87548   9.876   4.201   1.172  0.1367  0.4305  3.1966
  649MOL0     H87549  10.105   4.154   1.251 -0.6365  1.2410  0.4102
  649MOL0     H87550  10.495   4.365   1.163  0.7858 -0.4340  1.2057
  649MOL0     H87551  10.396   4.506   1.150 -1.1403 -0.6221 -2.3107
  649MOL0     H87552  10.454   4.337   1.407 -0.9745 -0.5436  1.4209
  649MOL0     H87553  10.352   4.490   1.405 -0.6285 -1.3982 -1.9767
  649MOL0     H87554  10.543   4.567   1.478 -0.7850  2.0333 -0.7944
  649MOL0     H87555  10.546   4.605   1.312 -3.6602  0.0122  0.0140
  649MOL0     H87556  10.702   4.368   1.439 -0.8338 -1.7059 -0.1191
  649MOL0     H87557  10.680   4.399   1.270 -0.8230 -0.6787  0.4718
  649MOL0     H87558  10.788   4.629   1.316 -0.7422  0.5038 -0.4298
  649MOL0     H87559  10.818   4.573   1.478  0.3524  2.7963 -0.6792
  649MOL0     H87560  10.918   4.359   1.313  0.1679  0.0552  0.0451
  649MOL0     H87561  10.975   4.506   1.238 -0.1890 -2.6633 -2.1070
  649MOL0     H87562  10.992   4.453   1.528 -1.2462  1.5506 -1.0018
  649MOL0     H87563  11.079   4.587   1.442 -3.4714  1.3530 -1.2141
  649MOL0     H87564  11.139   4.289   1.401  2.7976 -1.1758  0.0134
  649MOL0     H87565  11.218   4.423   1.321 -1.2044 -2.1168 -0.3736
  649MOL0     H87566  11.314   4.637   1.482  0.4305  0.5558  0.9327
  649MOL0     H87567  11.461   4.696   1.689  1.5300  1.3470 -1.0282
  649MOL0     H87568  11.559   4.578   1.779  1.4354  0.8730 -0.4367
  649MOL0     H87569  11.718   4.697   1.649  1.2551 -0.2397 -2.2170
  649MOL0     H87570  11.687   4.563   1.546  0.7240 -1.1773  1.6903
  649MOL0     H87571  11.521   4.829   1.534  0.1328  1.1603  1.1068
  649MOL0     H87572  11.533   4.702   1.412  0.9257  3.1277 -2.1754
  649MOL0     H87573  11.784   4.862   1.496  2.1172  3.6554 -2.6738
  649MOL0     H87574  11.668   4.904   1.368 -5.0115 -0.7381  2.4779
  649MOL0     H87575  11.857   4.577   1.149 -0.9230  0.8724  0.5478
  649MOL0     H87576  12.014   4.629   0.978 -0.6390  1.1470 -2.0886
  649MOL0     H87577  12.252   5.236   0.900 -1.6559  0.6183 -1.9666
  649MOL0     H87578  12.448   5.333   0.777  0.5601 -1.1311  0.1268
  649MOL0     H87579  12.752   5.219   0.717 -0.1801 -3.8834  3.8375
  649MOL0     H87580  12.705   5.054   0.700 -0.2504 -1.9323 -2.4085
  649MOL0     H87581  12.908   5.082   0.570  0.6406  1.5973 -0.0404
  649MOL0     H87582  12.773   5.034   0.471  0.4011  0.2689  0.4282
  649MOL0     H87583  12.919   5.197   0.360  0.2571 -0.6193 -0.0959
  649MOL0     H87584  12.770   5.279   0.393 -1.9023 -0.1751  5.0319
  649MOL0     H87585  12.987   5.297   0.606  0.2548  0.4285 -1.2218
  649MOL0     H87586  12.850   5.399   0.593 -0.6967  0.9354 -1.4062
  649MOL0     H87587  12.934   5.462   0.376 -1.3480 -2.1012  1.4789
  649MOL0     H87588  13.087   5.367   0.392 -0.1182 -2.2756  1.0375
  649MOL0     H87589  13.024   5.585   0.597 -0.2217  1.0358 -0.6774
  649MOL0     H87590  13.167   5.498   0.565 -0.0549  1.2267  1.0709
  649MOL0     H87591  13.181   5.725   0.484 -1.1120  1.0164  0.5986
  649MOL0     H87592  13.058   5.703   0.353  1.9654 -1.4337 -3.0472
  649MOL0     H87593  13.194   5.539   0.239  4.1444  0.9732 -2.5621
  649MOL0     H87594  13.264   5.694   0.254 -1.4116  0.9203  1.1734
  649MOL0     H87595  12.503   4.969   0.573 -0.9264 -1.5725  0.2531
  649MOL0     H87596  12.337   4.860   0.719  0.3330 -0.0272  1.8844
  649MOL0     H87597  12.034   5.041   1.091  2.4618 -1.0359 -0.3477
  649MOL0     H87598  11.864   4.983   1.287 -1.1542  0.6974 -1.7260
  649MOL0     H87599  10.235   4.517   1.053  1.2870 -1.7770 -1.7162
  649MOL0     H87600   9.986   4.554   0.972 -2.2326 -1.1595 -0.8827
  649MOL0     H87601   9.617   4.590   1.052 -0.1849  1.1646 -1.3747
  649MOL0     H87602   9.389   4.675   1.018 -0.1700  0.2109  0.3349
  649MOL0     H87603   9.105   4.458   1.110  0.9452 -0.1604 -1.2374
  649MOL0     H87604   9.014   4.428   0.971 -1.6423 -0.0377  2.0290
  649MOL0     H87605   8.957   4.679   0.953  1.8243  1.1263  0.1518
  649MOL0     H87606   9.031   4.702   1.107  0.0588 -0.1751  0.7565
  649MOL0     H87607   8.905   4.503   1.206  0.1447 -0.1896 -0.2680
  649MOL0     H87608   8.791   4.524   1.068 -1.4610  2.3479  0.7430
  649MOL0     H87609   8.876   4.715   1.285  0.7700  2.6978 -1.4322
  649MOL0     H87610   8.773   4.771   1.153 -2.6211 -0.2643  0.4810
  649MOL0     H87611   8.514   4.561   1.405  0.7703  1.8454  2.2319
  649MOL0     H87612   9.233   4.306   0.922 -0.0081 -0.2392 -0.1610
  649MOL0     H87613   9.354   4.106   0.903 -0.4089  0.2505  1.3478
  649MOL0     H87614   9.526   4.111   0.870 -2.0003 -0.7437 -1.3486
  649MOL0     H87615   9.468   4.115   1.036  0.2821  2.2820  0.3945
  650MOL0     O87616   3.862   9.039  10.120 -0.1452 -0.9889 -0.3013
  650MOL0     C87617   3.794   8.984  10.205  0.9707  0.5303 -0.4680
  650MOL0     O87618   3.828   8.964  10.339  0.2270  0.4646 -0.3228
  650MOL0     C87619   3.965   8.984  10.354  0.7553 -0.7867 -0.6496
  650MOL0     C87620   4.001   9.091  10.438 -0.6430 -0.0039 -0.1736
  650MOL0     C87621   4.142   9.128  10.453  0.9079 -0.0660  0.9089
  650MOL0     C87622   4.243   9.046  10.387 -0.7276 -0.4068 -0.7306
  650MOL0     O87623   4.376   9.093  10.406  0.1915  0.6338  0.2403
  650MOL0     C87624   4.475   9.046  10.311 -0.0148  0.6837  0.2047
  650MOL0     C87625   4.616   9.085  10.354  0.1620  0.1464 -0.7141
  650MOL0     C87626   4.651   9.010  10.488 -0.3153 -0.2292  0.4219
  650MOL0     C87627   4.790   9.064  10.530 -0.4954  0.1792 -0.8449
  650MOL0     C87628   4.905   9.022  10.424 -0.1053  0.1694 -0.1301
  650MOL0     C87629   5.047   9.044  10.476 -0.6530 -0.9067  0.7785
  650MOL0     C87630   5.054   9.171  10.559 -0.2179 -0.6478  0.2987
  650MOL0     C87631   5.190   9.226  10.587 -0.7633  0.1319  0.5297
  650MOL0     N87632   5.192   9.330  10.689  0.0884  0.7672  0.7314
  650MOL0     C87633   5.271   9.441  10.686 -0.0890  0.2541 -0.1619
  650MOL0     C87634   5.235   9.505  10.803  0.3785 -0.5015  0.4801
  650MOL0     C87635   5.320   9.620  10.859 -0.1480  0.6843 -0.0017
  650MOL0     C87636   5.364   9.726  10.751  0.4465 -0.7028  0.0637
  650MOL0     C87637   5.518   9.716  10.718  1.1507  0.7625  0.6505
  650MOL0     C87638   5.570   9.821  10.611  0.2467 -0.7571  0.0915
  650MOL0     O87639   5.537   9.783  10.477 -0.2824 -0.5789  0.0313
  650MOL0     C87640   5.410   9.815  10.438 -1.0919  0.0140  1.2519
  650MOL0     C87641   5.341   9.931  10.452 -1.0588  0.3228  0.3580
  650MOL0     C87642   5.212   9.945  10.404  0.1321 -0.7188  0.2824
  650MOL0     C87643   5.138   9.835  10.360 -0.4002  0.7970 -0.5449
  650MOL0     C87644   5.007   9.865  10.302  0.0560  0.8921 -0.1432
  650MOL0     O87645   4.955   9.767  10.214 -0.1668 -0.4346 -0.1093
  650MOL0     C87646   4.836   9.791  10.148 -0.1092  0.4952  0.0187
  650MOL0     C87647   4.838   9.828  10.008 -0.1208 -0.5237 -0.8582
  650MOL0     C87648   4.717   9.845   9.934  0.2667 -0.2674 -0.0586
  650MOL0     C87649   4.595   9.813  10.011  0.1066 -1.0585  0.7295
  650MOL0     O87650   4.479   9.811   9.951  0.3164 -0.4439  0.9165
  650MOL0     C87651   4.448   9.924   9.862  0.4611  0.2367  0.2032
  650MOL0     C87652   4.302   9.938   9.818  0.1121 -0.4079  0.1406
  650MOL0     C87653   4.277  10.045   9.706 -0.1395 -0.2341 -0.2452
  650MOL0     C87654   4.153  10.126   9.722 -0.9434  0.6073  0.2127
  650MOL0     C87655   4.107  10.204   9.602 -0.2264 -0.1264 -0.1814
  650MOL0     C87656   3.984  10.290   9.625  0.3612  0.7157 -0.6882
  650MOL0     C87657   3.857  10.207   9.601 -0.1902  0.2415  0.1635
  650MOL0     C87658   3.738  10.289   9.639 -0.1006 -0.3078  0.3604
  650MOL0    Cl87659   3.582  10.193   9.622 -0.2222 -0.0688  0.3606
  650MOL0     C87660   4.597   9.776  10.146 -0.2144  0.6127  0.7941
  650MOL0     C87661   4.720   9.770  10.213 -0.2735  0.6474 -0.4439
  650MOL0     O87662   4.947   9.960  10.336  0.0284  0.1198  0.3181
  650MOL0     C87663   5.204   9.715  10.337 -0.1065  0.6518  0.4376
  650MOL0     C87664   5.339   9.700  10.377 -0.0439  0.8846 -0.1679
  650MOL0     N87665   5.135   9.436  10.859  0.1688  0.0126 -0.4531
  650MOL0     N87666   5.099   9.340  10.787 -0.3201 -0.1563  0.0893
  650MOL0     C87667   4.195   8.945  10.300 -0.1315  0.7717 -0.8770
  650MOL0     C87668   4.063   8.908  10.295  0.4642 -1.1383 -0.8287
  650MOL0     C87669   3.659   8.950  10.159  0.5770 -0.2553  0.5685
  650MOL0     C87670   3.589   9.051  10.096 -0.7313 -0.7253  0.0680
  650MOL0     C87671   3.455   9.041  10.065 -0.8329  0.5256 -0.3907
  650MOL0     C87672   3.381   8.923  10.093 -1.4157 -0.2401  0.2117
  650MOL0     O87673   3.255   8.889  10.064 -0.0987 -1.1382  0.6081
  650MOL0     C87674   3.192   8.967   9.957  0.7173  0.0654 -0.6488
  650MOL0     C87675   3.223   8.891   9.823 -0.6749 -0.3029 -0.8424
  650MOL0     C87676   3.096   8.903   9.747 -0.2515  0.4755 -0.2397
  650MOL0     C87677   3.118   8.843   9.610  0.0553  0.0444  0.1132
  650MOL0     C87678   2.986   8.840   9.540 -0.8499  1.4317  0.2659
  650MOL0     C87679   2.880   8.829   9.486 -0.4751  0.1217 -0.2326
  650MOL0     C87680   3.460   8.818  10.149  0.1132  0.3887  0.1870
  650MOL0     C87681   3.596   8.824  10.177 -0.1994 -1.0194  0.6004
  650MOL0     C87682   3.683   8.718  10.234 -0.0685  0.5207 -0.0532
  650MOL0     H87683   3.929   9.142  10.501  0.3736 -0.4798  1.4432
  650MOL0     H87684   4.178   9.210  10.515 -1.7429  1.8121  0.1571
  650MOL0     H87685   4.454   8.939  10.298 -1.4931  0.9949 -0.1077
  650MOL0     H87686   4.460   9.091  10.213  0.9035  2.2046  0.7270
  650MOL0     H87687   4.634   9.191  10.370 -0.2507  0.0586  0.4413
  650MOL0     H87688   4.677   9.045  10.272 -1.3761  0.5854 -2.1225
  650MOL0     H87689   4.651   8.901  10.479 -1.8404 -0.2476  0.4058
  650MOL0     H87690   4.575   9.035  10.563  0.1276 -1.0495  1.1541
  650MOL0     H87691   4.797   9.173  10.533  1.8470  0.2106 -3.3900
  650MOL0     H87692   4.806   9.034  10.635  1.6675  2.1983 -0.4960
  650MOL0     H87693   4.903   8.916  10.399 -0.0251 -0.9333  3.7977
  650MOL0     H87694   4.894   9.085  10.335 -0.0819  1.0792  0.4910
  650MOL0     H87695   5.086   8.958  10.531  0.9542 -0.7002  0.0064
  650MOL0     H87696   5.115   9.061  10.393  1.6986  0.7509  2.9161
  650MOL0     H87697   5.003   9.156  10.655  0.3596 -2.4504  0.3550
  650MOL0     H87698   5.011   9.263  10.517  0.8626  0.9234  2.4460
  650MOL0     H87699   5.264   9.148  10.610 -0.9253  0.1082  0.9730
  650MOL0     H87700   5.214   9.270  10.489  1.3408 -1.1435  0.3904
  650MOL0     H87701   5.353   9.467  10.620 -1.3029  2.4915 -0.8769
  650MOL0     H87702   5.263   9.677  10.932  1.9906  2.6170  0.2634
  650MOL0     H87703   5.406   9.577  10.910  0.3161 -0.1528 -1.4187
  650MOL0     H87704   5.305   9.702  10.662  0.1100 -3.0584  0.8335
  650MOL0     H87705   5.346   9.828  10.785 -0.7684  0.9788 -4.8625
  650MOL0     H87706   5.528   9.621  10.664  0.9265  1.6241 -0.9455
  650MOL0     H87707   5.576   9.711  10.811  0.0809  0.2631  1.3163
  650MOL0     H87708   5.679   9.822  10.620  0.4792  0.5060 -2.1085
  650MOL0     H87709   5.531   9.921  10.636 -2.7978 -1.6286 -0.6917
  650MOL0     H87710   5.401  10.016  10.482 -1.5603  1.2610 -1.1552
  650MOL0     H87711   5.172  10.045  10.411  0.6288 -0.4827 -0.1843
  650MOL0     H87712   4.933   9.839   9.957  1.1535  1.3356  1.7058
  650MOL0     H87713   4.713   9.871   9.829  1.9483  0.9107  0.1394
  650MOL0     H87714   4.476  10.019   9.908 -0.4948 -0.7115  2.9311
  650MOL0     H87715   4.503   9.909   9.769  0.1101 -0.4845  0.1016
  650MOL0     H87716   4.260   9.838   9.803  5.4330 -3.1218  0.9982
  650MOL0     H87717   4.246   9.955   9.911 -0.2384 -3.2437  0.5535
  650MOL0     H87718   4.369  10.105   9.703  1.5958 -2.7959 -2.3470
  650MOL0     H87719   4.274   9.993   9.610  1.3117  0.5440 -0.7359
  650MOL0     H87720   4.148  10.193   9.809 -5.5366  1.7272 -0.6463
  650MOL0     H87721   4.072  10.056   9.744 -0.2401 -0.1116  0.5460
  650MOL0     H87722   4.096  10.143   9.512 -1.1494 -1.3061  0.6994
  650MOL0     H87723   4.186  10.276   9.579 -1.8747  1.4969 -1.0774
  650MOL0     H87724   3.993  10.311   9.732  2.0957 -1.3363 -0.3697
  650MOL0     H87725   3.984  10.384   9.568  0.8657  0.7709 -0.6021
  650MOL0     H87726   3.860  10.113   9.658  5.3326 -0.0012  0.0575
  650MOL0     H87727   3.850  10.197   9.492  0.5439  0.3153  0.1057
  650MOL0     H87728   3.750  10.336   9.737 -1.5061 -1.6315  1.2146
  650MOL0     H87729   3.739  10.366   9.561 -1.2323 -2.4117 -1.8449
  650MOL0     H87730   4.518   9.728  10.203  1.6960 -3.7973  0.1786
  650MOL0     H87731   4.730   9.742  10.317 -0.9802  0.1048 -0.5140
  650MOL0     H87732   5.149   9.632  10.293  1.2039  1.1603 -2.3737
  650MOL0     H87733   5.395   9.611  10.350 -0.2874 -0.8698  4.3231
  650MOL0     H87734   4.265   8.891  10.237  0.2117 -1.5458  1.2949
  650MOL0     H87735   4.028   8.828  10.229 -2.4090 -1.1949  0.5968
  650MOL0     H87736   3.641   9.142  10.068 -0.1271 -1.4419 -1.2130
  650MOL0     H87737   3.416   9.131  10.019  1.0884  2.6870  1.9373
  650MOL0     H87738   3.209   9.075   9.944 -0.6873  0.5130  0.9193
  650MOL0     H87739   3.086   8.971   9.980  0.7749  4.0576 -0.3011
  650MOL0     H87740   3.260   8.790   9.842  1.4204  0.6182  0.3745
  650MOL0     H87741   3.308   8.939   9.772 -1.3887  4.1306  1.6178
  650MOL0     H87742   3.076   9.010   9.737  2.1856  1.1664  1.5029
  650MOL0     H87743   3.017   8.848   9.799  2.2038 -2.0985  1.0454
  650MOL0     H87744   3.183   8.908   9.551 -0.4079 -0.5113 -1.0578
  650MOL0     H87745   3.154   8.740   9.618 -1.5018 -1.1421 -4.7878
  650MOL0     H87746   2.787   8.819   9.435  0.8242 -2.1836 -2.3539
  650MOL0     H87747   3.406   8.727  10.170 -0.7022  1.2191  1.9268
  650MOL0     H87748   3.634   8.624  10.207 -3.0258  1.8542  0.2991
  650MOL0     H87749   3.785   8.725  10.194 -0.2946 -1.1833 -1.0435
  650MOL0     H87750   3.681   8.742  10.341 -0.6016  1.7642 -0.3316
  651MOL0     O87751  10.428  10.034   4.681 -0.2346 -0.5662 -0.3159
  651MOL0     C87752  10.366  10.073   4.780  0.2555  0.4869  0.1986
  651MOL0     O87753  10.403  10.175   4.864 -0.3106 -0.2760 -0.1688
  651MOL0     C87754  10.497  10.265   4.818  0.0806 -0.3932 -0.6183
  651MOL0     C87755  10.624  10.234   4.819  0.2800  0.7180 -0.4220
  651MOL0     C87756  10.712  10.324   4.769  0.4087  0.2042  0.8315
  651MOL0     C87757  10.674  10.440   4.695 -0.0783  0.1895 -0.2389
  651MOL0     O87758  10.772  10.510   4.630  0.2579  0.0878 -0.5548
  651MOL0     C87759  10.745  10.642   4.578 -0.7655  0.2032  0.1464
  651MOL0     C87760  10.862  10.668   4.480  0.0840  0.7122  0.2777
  651MOL0     C87761  10.993  10.708   4.522  0.0864  0.1117  0.1144
  651MOL0     C87762  11.104  10.704   4.429  0.2208  0.3670 -0.4281
  651MOL0     C87763  11.238  10.715   4.509 -0.5400  0.3314 -0.1808
  651MOL0     C87764  11.329  10.602   4.460 -0.3473 -0.3674 -0.0452
  651MOL0     C87765  11.460  10.602   4.526 -0.3067  0.4984  0.1308
  651MOL0     C87766  11.551  10.498   4.460  0.1177 -0.9966  0.4473
  651MOL0     N87767  11.675  10.491   4.537  0.0888 -0.2373  0.1629
  651MOL0     C87768  11.737  10.367   4.542  0.2022 -0.7088  0.0354
  651MOL0     C87769  11.852  10.398   4.601 -1.6299  0.5447  0.0255
  651MOL0     C87770  11.960  10.312   4.662 -0.4702  0.3970 -0.2032
  651MOL0     C87771  12.054  10.264   4.550 -0.3519  0.1233 -0.1781
  651MOL0     C87772  12.150  10.373   4.503  0.7015  0.3756 -0.2883
  651MOL0     C87773  12.280  10.300   4.467 -0.3120  0.2935  0.5766
  651MOL0     O87774  12.360  10.389   4.399 -0.2700 -0.1263 -0.1319
  651MOL0     C87775  12.481  10.338   4.346 -0.3046  0.0091 -0.8293
  651MOL0     C87776  12.557  10.426   4.271  0.3238 -0.7263  0.6506
  651MOL0     C87777  12.680  10.389   4.215  0.1850  0.3974  0.0039
  651MOL0     C87778  12.741  10.265   4.246 -0.3098  0.2003  0.5107
  651MOL0     C87779  12.868  10.226   4.186 -0.0335  0.8138  0.0627
  651MOL0     O87780  12.890  10.279   4.065 -0.6187  0.1139  0.2319
  651MOL0     C87781  13.009  10.270   4.000  0.1874  0.5777 -0.2930
  651MOL0     C87782  13.099  10.370   4.039  0.0706  0.3526 -0.1147
  651MOL0     C87783  13.225  10.390   3.976  0.5915 -0.9707  0.0850
  651MOL0     C87784  13.257  10.297   3.874 -0.0076  0.1945 -0.0317
  651MOL0     O87785  13.380  10.288   3.824 -0.5191 -0.1518  0.4296
  651MOL0     C87786  13.475  10.390   3.840  0.2366  0.0335 -0.2300
  651MOL0     C87787  13.435  10.505   3.744 -0.4455  0.3606 -0.1170
  651MOL0     C87788  13.551  10.608   3.729 -0.3185 -0.6416 -0.2879
  651MOL0     C87789  13.557  10.695   3.848 -0.2393 -0.8661 -1.1684
  651MOL0     C87790  13.659  10.808   3.833 -0.4202 -0.2281 -0.3291
  651MOL0     C87791  13.699  10.872   3.969 -0.3666 -0.4967 -0.3444
  651MOL0     C87792  13.824  10.962   3.956  0.5835 -0.0827 -0.4422
  651MOL0     C87793  13.952  10.867   3.992  0.0593 -0.3382  0.3224
  651MOL0    Cl87794  13.984  10.835   4.163 -0.1646 -0.1323 -0.2501
  651MOL0     C87795  13.156  10.206   3.823 -0.2706  0.7297 -0.8552
  651MOL0     C87796  13.036  10.191   3.894 -0.4611 -0.9295 -0.2597
  651MOL0     O87797  12.942  10.146   4.244  0.0124  0.3440 -0.1404
  651MOL0     C87798  12.668  10.181   4.337 -0.4958 -0.6678 -0.3688
  651MOL0     C87799  12.544  10.221   4.390  1.0561  0.7519 -0.4894
  651MOL0     N87800  11.864  10.534   4.615  0.1663 -0.4217 -0.8617
  651MOL0     N87801  11.759  10.592   4.570 -0.1290  0.7331  0.4647
  651MOL0     C87802  10.543  10.471   4.692 -0.3399 -0.4690 -0.3015
  651MOL0     C87803  10.452  10.386   4.755 -0.1110 -0.4624 -1.5394
  651MOL0     C87804  10.231  10.005   4.815 -0.2496 -0.0566  0.0679
  651MOL0     C87805  10.132  10.096   4.873  0.7262 -0.1477 -0.5050
  651MOL0     C87806  10.000  10.055   4.894 -0.6223  0.2263 -0.5870
  651MOL0     C87807   9.967   9.925   4.864 -0.2713 -0.1949  0.0318
  651MOL0     O87808   9.837   9.884   4.879  0.1495 -0.2512 -0.1599
  651MOL0     C87809   9.814   9.789   4.986 -1.0406  0.2606  0.2295
  651MOL0     C87810   9.677   9.805   5.042 -0.6493  0.3191 -0.1392
  651MOL0     C87811   9.576   9.784   4.935  0.4794  0.0972  0.1537
  651MOL0     C87812   9.432   9.830   4.977 -0.3277 -0.8524  0.0535
  651MOL0     C87813   9.362   9.750   5.078 -0.0366 -0.4222  0.1375
  651MOL0     C87814   9.311   9.672   5.158  0.0494 -0.2710  0.1723
  651MOL0     C87815  10.060   9.836   4.807  0.1565  1.2882  0.2914
  651MOL0     C87816  10.191   9.876   4.782 -0.4146  1.0239  0.4617
  651MOL0     C87817  10.296   9.778   4.729  0.1644  0.3618 -0.8544
  651MOL0     H87818  10.656  10.147   4.874 -1.7618  0.6494  0.7606
  651MOL0     H87819  10.814  10.294   4.789  0.5085  1.8394  3.1182
  651MOL0     H87820  10.644  10.655   4.539 -1.1372 -2.6343 -0.0302
  651MOL0     H87821  10.762  10.710   4.662  0.2892  0.8254 -0.5342
  651MOL0     H87822  10.827  10.735   4.400  0.6317  0.8522  0.1489
  651MOL0     H87823  10.880  10.575   4.424  1.1836  0.8542  0.3647
  651MOL0     H87824  11.010  10.637   4.604 -1.3812 -1.2272 -0.6856
  651MOL0     H87825  10.988  10.811   4.559 -2.6861  0.7007 -1.6158
  651MOL0     H87826  11.097  10.608   4.376  0.6536 -0.1465  0.4176
  651MOL0     H87827  11.102  10.787   4.358 -0.0844  3.0952  2.5552
  651MOL0     H87828  11.288  10.811   4.495 -0.7417  0.2434 -1.6835
  651MOL0     H87829  11.221  10.708   4.617 -1.8469  1.1070 -0.3240
  651MOL0     H87830  11.278  10.510   4.489 -1.6569  0.6746  1.0793
  651MOL0     H87831  11.333  10.609   4.351  1.4445 -2.8015 -0.2178
  651MOL0     H87832  11.450  10.577   4.632  2.7185 -0.6561  0.2317
  651MOL0     H87833  11.509  10.699   4.513 -0.3952  0.5293  0.0212
  651MOL0     H87834  11.500  10.401   4.454  0.9026 -1.3323 -1.2578
  651MOL0     H87835  11.584  10.544   4.367  0.3357  0.6141  1.2918
  651MOL0     H87836  11.698  10.273   4.506  0.3795 -0.2452 -1.3971
  651MOL0     H87837  12.018  10.366   4.738  2.5299 -2.0270 -0.5682
  651MOL0     H87838  11.923  10.230   4.724 -1.8137  1.4499  0.4367
  651MOL0     H87839  12.110  10.183   4.598 -1.6222 -0.3837  0.4892
  651MOL0     H87840  11.993  10.223   4.469  0.3136 -0.5658 -0.3406
  651MOL0     H87841  12.154  10.459   4.570  0.7538 -1.4530  2.2036
  651MOL0     H87842  12.109  10.424   4.415 -2.3500 -0.3575  0.5711
  651MOL0     H87843  12.246  10.223   4.397 -2.2375  1.8022 -0.2304
  651MOL0     H87844  12.339  10.274   4.556  0.1734  0.9714  0.4513
  651MOL0     H87845  12.517  10.522   4.240  0.2325 -1.0664 -0.3198
  651MOL0     H87846  12.731  10.458   4.149 -1.1786  0.2214 -1.2849
  651MOL0     H87847  13.074  10.445   4.114 -0.2289  0.2213 -0.0819
  651MOL0     H87848  13.294  10.466   4.011 -2.7052  3.2156 -1.5973
  651MOL0     H87849  13.487  10.433   3.939 -3.1795  1.1263 -0.1583
  651MOL0     H87850  13.571  10.349   3.808  0.7924  0.3497  1.0076
  651MOL0     H87851  13.421  10.466   3.643  1.3362 -0.0342 -0.2505
  651MOL0     H87852  13.340  10.552   3.771 -3.1552 -3.1148 -2.6412
  651MOL0     H87853  13.646  10.555   3.724 -1.4250 -2.6334 -2.1390
  651MOL0     H87854  13.534  10.670   3.641 -1.7172 -0.7878 -0.1482
  651MOL0     H87855  13.580  10.635   3.936  0.9079 -0.7597 -1.3683
  651MOL0     H87856  13.458  10.733   3.871  0.1823 -1.2228  1.5123
  651MOL0     H87857  13.620  10.881   3.762  3.1312 -0.6028 -2.9232
  651MOL0     H87858  13.755  10.770   3.795  0.8668 -1.7634  3.9019
  651MOL0     H87859  13.616  10.931   4.008 -0.7159 -0.7266 -0.7379
  651MOL0     H87860  13.728  10.796   4.041  2.6094  1.5981  0.9187
  651MOL0     H87861  13.815  11.040   4.033  3.7451 -1.1060  1.1231
  651MOL0     H87862  13.826  11.015   3.861  0.3823  0.7434  0.0014
  651MOL0     H87863  13.943  10.777   3.931  0.5417  1.4142 -2.5451
  651MOL0     H87864  14.039  10.927   3.962 -0.7583 -0.5666 -2.8583
  651MOL0     H87865  13.180  10.145   3.737  3.1407 -1.2420  1.2476
  651MOL0     H87866  12.965  10.114   3.865 -0.4502 -0.7848 -0.6793
  651MOL0     H87867  12.730  10.099   4.372  0.4151  0.1673  0.0168
  651MOL0     H87868  12.506  10.168   4.476  0.2612  1.2595 -0.5227
  651MOL0     H87869  10.510  10.558   4.636 -1.7761 -0.1481  0.9686
  651MOL0     H87870  10.344  10.401   4.756 -0.0507  0.0063 -0.1592
  651MOL0     H87871  10.157  10.193   4.915 -2.2768 -0.0577  1.3726
  651MOL0     H87872   9.922  10.115   4.939 -0.7197 -1.9917  2.5702
  651MOL0     H87873   9.884   9.800   5.069  0.6633  0.2560 -1.1344
  651MOL0     H87874   9.835   9.691   4.943 -1.2828  1.0811 -1.8972
  651MOL0     H87875   9.676   9.900   5.096 -0.2022  0.7794 -0.9221
  651MOL0     H87876   9.664   9.727   5.117  0.7778 -0.1966 -0.3805
  651MOL0     H87877   9.585   9.682   4.896 -1.1324 -0.2019  0.5101
  651MOL0     H87878   9.602   9.828   4.838  1.4700 -1.4115 -0.3101
  651MOL0     H87879   9.437   9.936   5.000 -4.3099 -0.5346  0.0921
  651MOL0     H87880   9.370   9.836   4.888 -0.3617 -2.2036 -0.0352
  651MOL0     H87881   9.266   9.611   5.233  0.6088  0.1480  0.8573
  651MOL0     H87882  10.033   9.734   4.781  4.3969  0.4859 -1.8927
  651MOL0     H87883  10.377   9.778   4.802  0.1695 -2.4611 -0.7465
  651MOL0     H87884  10.255   9.676   4.720  2.5628 -0.5984 -1.8369
  651MOL0     H87885  10.336   9.803   4.630  1.2443 -1.5209 -0.9517
  652MOL0     O87886   2.813   5.706   3.166  0.5152  0.6368  1.2594
  652MOL0     C87887   2.786   5.804   3.095 -0.6812 -0.1497 -0.3420
  652MOL0     O87888   2.695   5.901   3.120 -0.4316 -0.0268  0.2822
  652MOL0     C87889   2.634   5.912   3.245 -0.1837 -0.3489  0.4058
  652MOL0     C87890   2.706   5.898   3.363 -1.1698 -1.5761  0.1237
  652MOL0     C87891   2.653   5.922   3.488  0.7322 -0.4030 -0.5355
  652MOL0     C87892   2.512   5.946   3.492  0.9355  0.5114 -0.2965
  652MOL0     O87893   2.438   5.960   3.606  0.6226  0.8317 -0.0975
  652MOL0     C87894   2.487   5.928   3.734 -0.1892  0.8690 -0.4592
  652MOL0     C87895   2.369   5.909   3.817  0.8867  0.0312  0.2119
  652MOL0     C87896   2.406   5.921   3.969 -0.4114  0.4377 -0.9502
  652MOL0     C87897   2.396   6.066   4.018 -0.7773  0.7756 -0.5369
  652MOL0     C87898   2.415   6.062   4.174 -1.2737 -0.2626 -0.5546
  652MOL0     C87899   2.413   6.210   4.220  0.1346  0.4533 -0.6235
  652MOL0     C87900   2.481   6.223   4.367  0.2432 -0.2132  0.7191
  652MOL0     C87901   2.427   6.140   4.479  0.8456  0.7626 -0.4083
  652MOL0     N87902   2.489   6.170   4.605  0.0375  0.2174 -0.8408
  652MOL0     C87903   2.618   6.196   4.633 -0.9645  1.0031 -0.7535
  652MOL0     C87904   2.624   6.218   4.766 -0.3199  0.1052 -0.2184
  652MOL0     C87905   2.742   6.251   4.855  0.1276 -0.6235  0.1963
  652MOL0     C87906   2.803   6.119   4.900 -0.4167  0.8044  0.9852
  652MOL0     C87907   2.882   6.147   5.032  0.3487  0.3389 -0.1338
  652MOL0     C87908   2.966   6.021   5.080  0.1801 -0.2409  0.0785
  652MOL0     O87909   3.108   6.056   5.081  0.5453  0.2726  0.1982
  652MOL0     C87910   3.193   5.963   5.139 -0.2899 -0.2858 -0.1401
  652MOL0     C87911   3.242   5.856   5.059  1.2324 -1.4141  0.5240
  652MOL0     C87912   3.323   5.764   5.115  0.1356  0.0830  0.2656
  652MOL0     C87913   3.355   5.769   5.250 -0.0172  0.6832  0.7018
  652MOL0     C87914   3.452   5.673   5.307 -0.7844  0.4465  0.3857
  652MOL0     O87915   3.527   5.716   5.418  0.2399  0.5926 -0.1014
  652MOL0     C87916   3.654   5.668   5.440  0.2370  0.7432  0.2603
  652MOL0     C87917   3.710   5.680   5.570 -0.5628 -0.1548 -0.2451
  652MOL0     C87918   3.846   5.648   5.592 -0.7102  0.1637  0.4087
  652MOL0     C87919   3.918   5.589   5.484  0.3326  0.2705 -0.0515
  652MOL0     O87920   4.050   5.570   5.524  0.2121  0.2421 -0.1035
  652MOL0     C87921   4.146   5.666   5.473 -0.3079  0.7327 -0.2248
  652MOL0     C87922   4.281   5.608   5.523  0.1191 -0.5194  0.2401
  652MOL0     C87923   4.316   5.655   5.661 -0.8740 -0.6933 -0.2778
  652MOL0     C87924   4.464   5.637   5.666 -0.0547 -0.8946  0.6802
  652MOL0     C87925   4.515   5.669   5.805 -0.4721  1.1371 -0.0076
  652MOL0     C87926   4.662   5.670   5.814  0.5142  0.2191  0.3911
  652MOL0     C87927   4.703   5.718   5.954  0.2088 -1.1873  0.3384
  652MOL0     C87928   4.850   5.719   5.948 -0.1681  0.1130 -0.2872
  652MOL0    Cl87929   4.908   5.838   6.082 -0.3432 -0.2337 -0.4524
  652MOL0     C87930   3.860   5.568   5.357 -1.0047 -0.5414 -0.2474
  652MOL0     C87931   3.733   5.613   5.336  0.6065 -0.7724  0.5289
  652MOL0     O87932   3.475   5.573   5.240  0.4029  0.2346 -0.0283
  652MOL0     C87933   3.305   5.881   5.328 -0.3680 -0.1662  0.1267
  652MOL0     C87934   3.225   5.979   5.274 -0.6708 -0.0884 -0.9676
  652MOL0     N87935   2.501   6.200   4.819 -0.7751  0.7612  0.7764
  652MOL0     N87936   2.419   6.158   4.725 -0.5430  0.7778  0.1903
  652MOL0     C87937   2.442   5.971   3.374  0.4397 -0.7477  0.3745
  652MOL0     C87938   2.501   5.957   3.248 -0.1547  0.0279  0.1311
  652MOL0     C87939   2.883   5.831   2.982  1.0632 -0.2490 -1.3454
  652MOL0     C87940   2.852   5.790   2.845 -0.0241  1.0696 -1.2422
  652MOL0     C87941   2.946   5.807   2.746 -0.1133  0.9959 -0.2653
  652MOL0     C87942   3.063   5.862   2.785  0.5279  0.0591  1.5356
  652MOL0     O87943   3.160   5.855   2.680  0.4869 -0.5018  0.0143
  652MOL0     C87944   3.299   5.893   2.690  1.1282  0.7892  0.1739
  652MOL0     C87945   3.321   6.041   2.693  0.1990 -0.9732  0.0539
  652MOL0     C87946   3.471   6.071   2.696 -0.2248 -0.1730 -0.0503
  652MOL0     C87947   3.542   6.062   2.561 -0.5069  0.0841 -0.8295
  652MOL0     C87948   3.661   5.981   2.586 -0.3311  0.4972  0.9815
  652MOL0     C87949   3.761   5.919   2.608  1.0407  0.0490  0.0479
  652MOL0     C87950   3.094   5.910   2.907  0.1453  0.2714  0.0292
  652MOL0     C87951   3.004   5.895   3.012 -0.0397 -0.7063  0.9939
  652MOL0     C87952   3.035   5.938   3.151  0.9770  0.5274  0.0346
  652MOL0     H87953   2.812   5.879   3.366 -0.3435  1.7741 -2.3443
  652MOL0     H87954   2.716   5.910   3.575 -0.0387  0.1661  0.1209
  652MOL0     H87955   2.550   5.839   3.726  0.8085  1.4296  0.7283
  652MOL0     H87956   2.542   6.017   3.767  1.8812  0.0118 -1.3685
  652MOL0     H87957   2.319   5.814   3.799 -2.4124  1.8277 -1.0087
  652MOL0     H87958   2.296   5.987   3.795 -1.7336 -2.0916  0.9163
  652MOL0     H87959   2.505   5.883   3.996 -1.0590  1.2742  3.5254
  652MOL0     H87960   2.322   5.869   4.016 -1.0100  0.3842 -2.0394
  652MOL0     H87961   2.480   6.119   3.971  1.1208 -0.0166  1.7662
  652MOL0     H87962   2.301   6.115   3.994 -0.7996  0.7648 -0.4695
  652MOL0     H87963   2.343   5.995   4.220 -2.1644 -0.0340 -1.5615
  652MOL0     H87964   2.520   6.035   4.192 -0.8787  2.5041  1.9128
  652MOL0     H87965   2.468   6.272   4.149 -1.4353 -1.1380 -3.4088
  652MOL0     H87966   2.306   6.235   4.216 -0.6193 -2.5426 -1.1582
  652MOL0     H87967   2.482   6.330   4.391 -2.2231  0.2000 -0.6436
  652MOL0     H87968   2.585   6.198   4.345  0.2536  1.6457 -1.7943
  652MOL0     H87969   2.318   6.141   4.484  0.7965 -0.1269 -1.0805
  652MOL0     H87970   2.454   6.035   4.463 -0.3788  0.0501  1.7571
  652MOL0     H87971   2.695   6.202   4.557  1.0212 -0.9598  0.9639
  652MOL0     H87972   2.819   6.314   4.812 -1.8606  2.0110  0.2283
  652MOL0     H87973   2.702   6.298   4.946  1.9202 -1.0042  1.2292
  652MOL0     H87974   2.725   6.048   4.927  0.4256 -1.3933 -1.8138
  652MOL0     H87975   2.870   6.079   4.822  0.3683 -0.1336  2.1124
  652MOL0     H87976   2.811   6.182   5.107  0.1099 -0.3605 -0.0271
  652MOL0     H87977   2.951   6.228   5.007 -0.4228  0.7473 -0.9874
  652MOL0     H87978   2.964   5.943   5.003  3.7443 -0.9627  0.5166
  652MOL0     H87979   2.919   5.983   5.171 -3.0852 -2.1889 -2.1849
  652MOL0     H87980   3.222   5.862   4.953 -1.1564 -0.8656  0.9275
  652MOL0     H87981   3.378   5.690   5.059 -0.0132  0.7047 -0.7227
  652MOL0     H87982   3.647   5.712   5.653  2.0497  4.3804  0.2896
  652MOL0     H87983   3.887   5.663   5.691 -1.2317 -1.6757  0.9343
  652MOL0     H87984   4.141   5.669   5.364  2.0084 -0.6061 -0.4408
  652MOL0     H87985   4.127   5.765   5.515  0.7953  0.2587  1.5023
  652MOL0     H87986   4.274   5.500   5.512  0.8563 -0.8932  2.7874
  652MOL0     H87987   4.357   5.652   5.458 -0.3882  1.1784  0.7288
  652MOL0     H87988   4.299   5.762   5.673 -0.0241 -0.5695 -0.0806
  652MOL0     H87989   4.264   5.596   5.738  0.6031 -2.6016 -0.6556
  652MOL0     H87990   4.516   5.708   5.602  1.0783  0.2265  2.7444
  652MOL0     H87991   4.494   5.534   5.643  0.1507 -0.5715 -0.5737
  652MOL0     H87992   4.479   5.595   5.877 -0.1788  3.4870  2.7411
  652MOL0     H87993   4.467   5.763   5.835 -1.3548  0.2651  1.4115
  652MOL0     H87994   4.696   5.566   5.807  1.9234  0.6841 -0.0084
  652MOL0     H87995   4.714   5.721   5.732 -1.3562 -0.3553 -1.2359
  652MOL0     H87996   4.674   5.659   6.042  0.2109 -0.8474  0.5669
  652MOL0     H87997   4.672   5.822   5.966  0.3146 -1.1149 -0.0251
  652MOL0     H87998   4.888   5.622   5.979  0.0939  0.3093  0.0150
  652MOL0     H87999   4.889   5.749   5.851  0.0062  2.1509  0.3656
  652MOL0     H88000   3.909   5.524   5.270 -1.7854 -0.3953 -0.7744
  652MOL0     H88001   3.694   5.601   5.235 -0.4267  0.7577  0.7168
  652MOL0     H88002   3.335   5.895   5.431  1.2582  1.6670 -0.5376
  652MOL0     H88003   3.201   6.064   5.337 -1.4835 -2.5350  2.2856
  652MOL0     H88004   2.337   5.998   3.381  0.1466 -1.3869 -1.1611
  652MOL0     H88005   2.452   5.986   3.156 -0.9081 -1.8960 -0.1032
  652MOL0     H88006   2.758   5.738   2.831 -1.0226  2.7073 -0.8846
  652MOL0     H88007   2.934   5.777   2.642  1.0207 -0.0973 -0.1075
  652MOL0     H88008   3.337   5.859   2.593  0.8726  2.4760 -0.5513
  652MOL0     H88009   3.343   5.845   2.778 -2.8165 -0.6692  1.5346
  652MOL0     H88010   3.275   6.079   2.785 -0.9230  1.0870 -1.2746
  652MOL0     H88011   3.279   6.103   2.613  1.4124  2.1974  1.6699
  652MOL0     H88012   3.525   6.013   2.771 -0.0617  1.2819  0.9954
  652MOL0     H88013   3.488   6.174   2.726  2.3111 -0.5932  0.2267
  652MOL0     H88014   3.480   6.007   2.489 -1.7912 -1.7152  1.5310
  652MOL0     H88015   3.569   6.166   2.541  1.3153  0.4499  2.7430
  652MOL0     H88016   3.844   5.851   2.614  0.3635 -0.8431 -0.4657
  652MOL0     H88017   3.192   5.954   2.921 -0.7219  2.0311  0.8267
  652MOL0     H88018   3.107   6.021   3.153  1.8916 -0.2178 -0.6972
  652MOL0     H88019   2.949   5.989   3.194  0.0715 -2.5090  2.1547
  652MOL0     H88020   3.062   5.856   3.217 -1.1856 -1.0691 -0.9580
  653MOL0     O88021   2.892   7.216   1.204 -0.7403 -0.1276  0.0266
  653MOL0     C88022   2.941   7.245   1.099 -0.2549 -0.0879  0.9120
  653MOL0     O88023   3.032   7.335   1.073 -0.0441  0.1666  0.2178
  653MOL0     C88024   3.089   7.379   1.187 -1.2531 -0.1700 -0.4692
  653MOL0     C88025   3.202   7.307   1.224  0.0347 -0.8996  0.1326
  653MOL0     C88026   3.288   7.360   1.320 -0.3003 -0.0102  0.3544
  653MOL0     C88027   3.253   7.487   1.382  0.1378  0.2324 -0.1755
  653MOL0     O88028   3.316   7.549   1.483 -0.2563  0.1499  0.2112
  653MOL0     C88029   3.435   7.489   1.536  0.1660  0.1609 -0.1115
  653MOL0     C88030   3.496   7.574   1.643  0.4523 -0.0952  0.0434
  653MOL0     C88031   3.632   7.514   1.693  0.6728 -0.4240 -0.2911
  653MOL0     C88032   3.651   7.528   1.839 -0.7943 -0.0811 -0.6253
  653MOL0     C88033   3.737   7.650   1.886 -0.2289  0.8448  0.2511
  653MOL0     C88034   3.722   7.650   2.038 -1.0735  0.5367 -0.1241
  653MOL0     C88035   3.798   7.770   2.090  0.1982 -0.6581 -0.0027
  653MOL0     C88036   3.854   7.744   2.229 -0.2136  0.2074 -0.4455
  653MOL0     N88037   3.985   7.692   2.218  0.3828 -0.1866  0.9743
  653MOL0     C88038   4.088   7.770   2.192 -1.2289 -0.1088 -0.1917
  653MOL0     C88039   4.202   7.686   2.176  0.6387 -0.4695 -0.2761
  653MOL0     C88040   4.347   7.715   2.148  0.1586 -0.8644  0.5397
  653MOL0     C88041   4.381   7.864   2.170  0.8302  1.1078 -0.4445
  653MOL0     C88042   4.524   7.893   2.173  0.2466 -0.2399  1.0578
  653MOL0     C88043   4.596   7.852   2.044  0.6796 -0.5517  0.2649
  653MOL0     O88044   4.737   7.890   2.052  0.3958 -0.5335  0.0639
  653MOL0     C88045   4.774   8.013   2.006 -0.6895  0.3019  0.4776
  653MOL0     C88046   4.685   8.117   1.968  0.0580 -0.8755 -1.0617
  653MOL0     C88047   4.736   8.249   1.929  0.0118 -0.5988  0.2860
  653MOL0     C88048   4.866   8.282   1.926 -0.0576  0.1014 -0.0928
  653MOL0     C88049   4.928   8.412   1.887  0.1702 -0.5262 -0.3837
  653MOL0     O88050   5.061   8.420   1.896 -0.2594  0.3575 -0.0984
  653MOL0     C88051   5.139   8.507   1.828  0.1308 -0.5784 -0.2900
  653MOL0     C88052   5.107   8.650   1.811  0.0051  0.1555 -0.2157
  653MOL0     C88053   5.197   8.740   1.757  0.2673 -0.3500  0.3265
  653MOL0     C88054   5.327   8.701   1.720  0.8707 -0.2666 -0.4309
  653MOL0     O88055   5.408   8.800   1.663  0.0904 -0.0654  1.1096
  653MOL0     C88056   5.537   8.825   1.724 -0.2909  0.3081 -0.3639
  653MOL0     C88057   5.653   8.829   1.630  0.1680 -0.2207 -0.0132
  653MOL0     C88058   5.754   8.712   1.646 -0.9548  0.0195 -0.0920
  653MOL0     C88059   5.899   8.747   1.594  0.4774  0.5019  0.8465
  653MOL0     C88060   5.917   8.715   1.443 -0.0224 -0.6436 -0.3882
  653MOL0     C88061   6.060   8.752   1.385  0.0823  0.4958 -0.1345
  653MOL0     C88062   6.141   8.625   1.416  0.6522 -0.5459  1.2889
  653MOL0     C88063   6.296   8.629   1.398 -0.7801 -0.3517  0.1595
  653MOL0    Cl88064   6.349   8.540   1.263 -0.1879 -0.5412  0.0988
  653MOL0     C88065   5.354   8.564   1.728  1.3183 -0.5177  0.3281
  653MOL0     C88066   5.267   8.467   1.793 -0.2530 -0.3674  0.0300
  653MOL0     O88067   4.858   8.508   1.854  0.4038  0.8113 -0.5535
  653MOL0     C88068   4.954   8.181   1.966 -0.4563  0.9578 -0.2059
  653MOL0     C88069   4.905   8.052   2.005  0.2820  0.4567  0.1827
  653MOL0     N88070   4.157   7.556   2.200  0.7331 -0.1878  0.3657
  653MOL0     N88071   4.028   7.564   2.218 -0.3273 -0.3090 -0.4642
  653MOL0     C88072   3.128   7.546   1.350  0.0584 -0.6902 -0.0385
  653MOL0     C88073   3.050   7.493   1.257 -0.5081  0.2070  0.7368
  653MOL0     C88074   2.897   7.165   0.980 -0.1837  0.5886  0.7217
  653MOL0     C88075   2.830   7.037   1.000 -0.3305  0.2948 -0.0710
  653MOL0     C88076   2.798   6.953   0.889 -1.6971 -0.4633  0.3405
  653MOL0     C88077   2.817   6.996   0.759 -0.0352  0.2299 -0.3319
  653MOL0     O88078   2.766   6.908   0.656 -0.4095  0.8466 -0.3012
  653MOL0     C88079   2.799   6.939   0.512  0.4691  0.3927 -0.2215
  653MOL0     C88080   2.699   7.042   0.459  0.0057 -0.0748  0.9421
  653MOL0     C88081   2.732   7.065   0.311 -0.5343  0.1011 -0.0272
  653MOL0     C88082   2.866   7.143   0.294  0.6506  0.2445  0.9488
  653MOL0     C88083   2.857   7.232   0.173  0.3366  0.8549  0.0968
  653MOL0     C88084   2.852   7.310   0.076  0.0898 -0.2362  0.0103
  653MOL0     C88085   2.875   7.125   0.741  0.5708  0.4428  0.4804
  653MOL0     C88086   2.921   7.199   0.848  0.0051 -0.8612  1.2845
  653MOL0     C88087   2.994   7.322   0.803  0.5247  0.0368  0.2314
  653MOL0     H88088   3.236   7.222   1.165  3.0371 -0.8934  1.6179
  653MOL0     H88089   3.377   7.306   1.352  1.8211  0.8402 -3.4813
  653MOL0     H88090   3.432   7.388   1.578  1.9941  1.1920  2.8483
  653MOL0     H88091   3.505   7.484   1.452 -2.7977  2.5708 -3.0039
  653MOL0     H88092   3.422   7.591   1.722  2.0699  3.8706  0.9643
  653MOL0     H88093   3.506   7.674   1.600 -0.8062 -0.4998 -1.2872
  653MOL0     H88094   3.714   7.566   1.642  0.1740 -0.4870 -1.1734
  653MOL0     H88095   3.622   7.410   1.660  1.1368 -0.3548 -0.6577
  653MOL0     H88096   3.556   7.542   1.890 -0.3000  1.5182 -0.0901
  653MOL0     H88097   3.698   7.433   1.865 -1.3464 -0.7532 -1.9445
  653MOL0     H88098   3.839   7.653   1.848 -0.2060  1.7662  0.3736
  653MOL0     H88099   3.695   7.745   1.854  0.4247  0.7459 -0.9243
  653MOL0     H88100   3.618   7.660   2.071 -1.0286 -0.5624  0.4083
  653MOL0     H88101   3.762   7.557   2.080 -4.3139 -1.0490 -0.2397
  653MOL0     H88102   3.733   7.858   2.097  0.1958 -0.7945  2.8488
  653MOL0     H88103   3.880   7.792   2.021 -1.1781  1.4345 -1.0745
  653MOL0     H88104   3.853   7.834   2.292 -0.8937  0.3841 -0.6971
  653MOL0     H88105   3.779   7.687   2.284  0.0284  0.1801 -0.1471
  653MOL0     H88106   4.082   7.875   2.165  2.0161  0.0675 -0.6046
  653MOL0     H88107   4.404   7.652   2.217  1.2826  0.3316  0.7523
  653MOL0     H88108   4.378   7.681   2.049  0.5577  0.2027  0.2817
  653MOL0     H88109   4.332   7.922   2.091  3.6533  0.7844 -2.5851
  653MOL0     H88110   4.333   7.894   2.264  2.4416 -2.1530  1.6298
  653MOL0     H88111   4.575   7.857   2.263 -0.6529 -0.2705  1.5665
  653MOL0     H88112   4.538   8.002   2.175 -2.7288  0.3855 -2.5519
  653MOL0     H88113   4.534   7.885   1.960 -0.4161 -0.3197  1.1426
  653MOL0     H88114   4.596   7.743   2.036  2.6501 -0.5219 -0.6823
  653MOL0     H88115   4.580   8.094   1.955 -0.8009 -0.2574  3.3177
  653MOL0     H88116   4.669   8.325   1.888 -0.6963 -1.0813  0.5391
  653MOL0     H88117   5.015   8.687   1.856 -0.3607 -2.6973  1.6264
  653MOL0     H88118   5.173   8.846   1.747  2.3148  0.1870  0.7117
  653MOL0     H88119   5.530   8.923   1.774  0.7521 -1.6307  4.0978
  653MOL0     H88120   5.555   8.748   1.799  4.5933  1.7423  0.3338
  653MOL0     H88121   5.603   8.830   1.533  1.4178 -0.5925 -0.6826
  653MOL0     H88122   5.707   8.921   1.653 -1.0954  0.6698 -0.4918
  653MOL0     H88123   5.746   8.685   1.751 -3.1184 -2.1402 -0.7030
  653MOL0     H88124   5.717   8.625   1.591  0.0999 -0.5901  0.1516
  653MOL0     H88125   5.973   8.682   1.641  0.8812 -0.8273 -1.5023
  653MOL0     H88126   5.916   8.851   1.625  0.6724  1.1300 -1.2161
  653MOL0     H88127   5.841   8.787   1.410 -3.0157 -2.7601  1.4355
  653MOL0     H88128   5.876   8.617   1.417 -0.6288  0.6903 -5.8239
  653MOL0     H88129   6.054   8.775   1.278 -1.6695  2.2568  0.2605
  653MOL0     H88130   6.088   8.844   1.437 -1.4559  0.5032  0.7536
  653MOL0     H88131   6.106   8.543   1.353  3.2114  1.8135 -3.7999
  653MOL0     H88132   6.136   8.604   1.523  1.4569  2.7517  2.0921
  653MOL0     H88133   6.333   8.732   1.391  0.9343 -0.7991  1.6834
  653MOL0     H88134   6.339   8.584   1.488 -1.7324  1.6207  1.7035
  653MOL0     H88135   5.450   8.534   1.687 -1.3435 -6.2509 -2.9691
  653MOL0     H88136   5.305   8.366   1.800  0.6085  0.0200  1.4717
  653MOL0     H88137   5.060   8.201   1.961 -0.7152  3.2143  1.8778
  653MOL0     H88138   4.979   7.973   2.010  0.2145  0.4516  1.4093
  653MOL0     H88139   3.111   7.641   1.400  0.0396 -1.5008  1.5502
  653MOL0     H88140   2.962   7.553   1.237  1.6551  3.6258  0.7039
  653MOL0     H88141   2.812   7.006   1.102 -1.0063  0.6834 -0.0682
  653MOL0     H88142   2.756   6.855   0.909 -0.5488 -0.5394  2.7831
  653MOL0     H88143   2.785   6.846   0.456 -2.1914  0.6893 -0.2202
  653MOL0     H88144   2.898   6.983   0.503 -0.3770  2.4409 -0.0627
  653MOL0     H88145   2.704   7.136   0.515 -0.4538 -0.6953  2.0543
  653MOL0     H88146   2.592   7.018   0.462 -0.2387  0.9705  1.0138
  653MOL0     H88147   2.648   7.126   0.278 -0.7565 -0.6012 -0.7862
  653MOL0     H88148   2.738   6.975   0.249  2.6070  1.5536 -2.1134
  653MOL0     H88149   2.884   7.203   0.384  2.2313  0.4943  0.4839
  653MOL0     H88150   2.955   7.083   0.273  2.0907  2.1169  1.4285
  653MOL0     H88151   2.841   7.377  -0.007 -1.2747  1.6252  1.6121
  653MOL0     H88152   2.880   7.156   0.637 -3.6594 -1.6398 -0.5800
  653MOL0     H88153   3.094   7.292   0.837 -0.0677 -3.2265 -0.6534
  653MOL0     H88154   3.000   7.344   0.696  1.0926  0.8629  0.4149
  653MOL0     H88155   2.957   7.415   0.848 -1.2743  0.4403 -1.9218
  654MOL0     O88156  10.428   9.764   5.851  0.5646 -0.7716 -0.2505
  654MOL0     C88157  10.321   9.705   5.871 -0.0513  0.0302 -0.0725
  654MOL0     O88158  10.198   9.749   5.834  0.6235  1.0235  0.6077
  654MOL0     C88159  10.206   9.869   5.779  0.2094  0.8009  0.2487
  654MOL0     C88160  10.192   9.985   5.864 -0.3767  0.6810  0.2423
  654MOL0     C88161  10.204  10.111   5.803  0.3980 -0.1217 -0.0835
  654MOL0     C88162  10.225  10.124   5.662  0.1576  0.8899 -0.5746
  654MOL0     O88163  10.246  10.244   5.603  0.1811  0.1660 -0.2549
  654MOL0     C88164  10.161  10.346   5.641  1.0642  0.0295 -0.5708
  654MOL0     C88165  10.199  10.477   5.570  0.3740 -0.0762 -0.0197
  654MOL0     C88166  10.314  10.538   5.651 -0.5677 -0.2947  0.5353
  654MOL0     C88167  10.398  10.627   5.561  0.0810  0.8817  0.5562
  654MOL0     C88168  10.504  10.704   5.640 -0.2926  0.1220  0.1946
  654MOL0     C88169  10.620  10.770   5.561  0.5936 -0.3207 -0.1031
  654MOL0     C88170  10.723  10.668   5.528 -0.3857  0.0625 -0.2522
  654MOL0     C88171  10.846  10.709   5.445 -0.5198 -0.4273  0.1050
  654MOL0     N88172  10.964  10.621   5.452  0.8381 -0.4558  0.3416
  654MOL0     C88173  11.090  10.669   5.455 -0.3905 -0.0907 -0.3852
  654MOL0     C88174  11.166  10.576   5.387  0.0848 -0.0443  0.7346
  654MOL0     C88175  11.304  10.582   5.348 -0.2393 -0.3891 -0.1236
  654MOL0     C88176  11.397  10.471   5.395  0.6117 -0.3342  0.5669
  654MOL0     C88177  11.391  10.457   5.548  0.2184  0.5074  0.5618
  654MOL0     C88178  11.466  10.335   5.574  0.0465  0.4923 -0.5922
  654MOL0     O88179  11.594  10.385   5.573 -0.8147 -0.3225 -0.0960
  654MOL0     C88180  11.703  10.298   5.591 -0.2988  0.6062 -0.5517
  654MOL0     C88181  11.703  10.165   5.551 -0.3495  0.0723  0.3776
  654MOL0     C88182  11.825  10.087   5.556  1.1303  0.1292 -0.7605
  654MOL0     C88183  11.937  10.141   5.601 -0.2009 -0.3614  0.0691
  654MOL0     C88184  12.061  10.069   5.596 -1.0858 -0.3921 -0.0610
  654MOL0     O88185  12.166  10.113   5.675  0.2265  0.2149  0.1138
  654MOL0     C88186  12.284  10.041   5.688 -0.2311  0.1475 -0.3151
  654MOL0     C88187  12.376  10.037   5.579 -0.1780  0.1749  0.2575
  654MOL0     C88188  12.482   9.947   5.586 -0.0198  0.0538 -0.5564
  654MOL0     C88189  12.513   9.885   5.712 -0.9640 -0.2440 -1.1705
  654MOL0     O88190  12.629   9.815   5.736 -0.3299 -0.0055  0.1630
  654MOL0     C88191  12.651   9.701   5.658 -0.5180  0.5565 -0.6088
  654MOL0     C88192  12.754   9.619   5.732  0.1722  0.9088 -0.2078
  654MOL0     C88193  12.894   9.685   5.736  1.1117 -0.0660  0.1875
  654MOL0     C88194  13.008   9.613   5.797 -0.0593 -0.4297  0.1688
  654MOL0     C88195  13.133   9.700   5.761 -0.4150 -0.6544  0.0503
  654MOL0     C88196  13.256   9.659   5.840  0.0719 -1.4970 -0.0573
  654MOL0     C88197  13.379   9.731   5.790  0.3322 -0.2566  0.9230
  654MOL0     C88198  13.501   9.713   5.881 -0.4194  0.9666 -0.3879
  654MOL0    Cl88199  13.565   9.540   5.874  0.3654  0.4074 -0.0229
  654MOL0     C88200  12.418   9.889   5.817 -0.0611 -1.2678  0.0711
  654MOL0     C88201  12.301   9.968   5.805 -0.9210 -0.5165  0.0518
  654MOL0     O88202  12.069   9.983   5.511 -0.4548  0.1642  0.3758
  654MOL0     C88203  11.935  10.275   5.645 -0.2694  0.0390 -0.1932
  654MOL0     C88204  11.822  10.344   5.650  0.3007  0.3536  0.8994
  654MOL0     N88205  11.092  10.467   5.357  0.2897  0.3916 -0.5443
  654MOL0     N88206  10.968  10.501   5.389  0.3513 -0.4283  0.3806
  654MOL0     C88207  10.231  10.005   5.584 -0.1266 -0.8023  0.4120
  654MOL0     C88208  10.205   9.875   5.638 -0.5082  0.7391 -0.3007
  654MOL0     C88209  10.316   9.576   5.933 -0.5249  0.2160 -0.5856
  654MOL0     C88210  10.195   9.506   5.929  0.1301  0.5094  0.5697
  654MOL0     C88211  10.188   9.374   5.977  1.0174  0.0589 -0.0244
  654MOL0     C88212  10.297   9.322   6.043  0.2738 -0.4651  0.2679
  654MOL0     O88213  10.289   9.197   6.107  0.4830  0.1166  0.3882
  654MOL0     C88214  10.178   9.106   6.075 -0.6255  0.7465  0.1989
  654MOL0     C88215  10.227   8.963   6.067  0.0697  0.5693 -0.2346
  654MOL0     C88216  10.213   8.875   6.196 -0.8436  1.0061 -0.2394
  654MOL0     C88217  10.289   8.938   6.316 -0.8379  0.0826  0.2050
  654MOL0     C88218  10.277   8.855   6.431  0.3244  1.0813 -0.5786
  654MOL0     C88219  10.277   8.794   6.534 -0.3556 -0.4764  0.1465
  654MOL0     C88220  10.417   9.389   6.045 -0.8029  0.4263 -0.0138
  654MOL0     C88221  10.436   9.511   5.990  0.0986 -0.1000 -0.2475
  654MOL0     C88222  10.573   9.578   6.004  0.3792 -0.4286 -0.0140
  654MOL0     H88223  10.179   9.959   5.969  1.3326  1.7828  0.7709
  654MOL0     H88224  10.204  10.200   5.864  0.2862  2.9179 -4.1073
  654MOL0     H88225  10.058  10.320   5.614  1.1266 -1.5883  0.5634
  654MOL0     H88226  10.168  10.366   5.748  0.4454  0.5576 -0.6195
  654MOL0     H88227  10.114  10.545   5.579 -0.0659 -0.7863  1.5532
  654MOL0     H88228  10.222  10.467   5.464  1.1360 -0.6553  0.1871
  654MOL0     H88229  10.380  10.454   5.679  1.5912  0.0150 -3.0274
  654MOL0     H88230  10.271  10.597   5.732  0.7053  0.3949  0.7407
  654MOL0     H88231  10.453  10.558   5.497  3.3225  2.1559  1.7796
  654MOL0     H88232  10.335  10.691   5.498 -1.5616  0.4697  1.6965
  654MOL0     H88233  10.441  10.776   5.692 -0.9824  0.6336 -1.2953
  654MOL0     H88234  10.548  10.643   5.720 -1.9860 -3.1521 -1.1436
  654MOL0     H88235  10.564  10.820   5.481 -0.0308  0.3266  0.7186
  654MOL0     H88236  10.659  10.860   5.609 -3.6417  2.0133 -0.5522
  654MOL0     H88237  10.693  10.575   5.479 -0.1362 -0.6983  0.9990
  654MOL0     H88238  10.754  10.637   5.628  2.5371 -2.0396 -1.6291
  654MOL0     H88239  10.823  10.706   5.338  4.9489 -2.9256 -1.3479
  654MOL0     H88240  10.868  10.811   5.478  0.4424 -0.1131 -1.4273
  654MOL0     H88241  11.125  10.766   5.488 -0.6118  0.0690 -0.6145
  654MOL0     H88242  11.308  10.588   5.238 -2.1405 -3.0010 -0.4200
  654MOL0     H88243  11.326  10.681   5.388  1.2805 -1.2078  1.1975
  654MOL0     H88244  11.366  10.379   5.344 -1.4228 -0.7564  2.4208
  654MOL0     H88245  11.501  10.483   5.362  0.6174 -2.2965 -0.2411
  654MOL0     H88246  11.287  10.436   5.574 -1.9936  1.3185 -5.7516
  654MOL0     H88247  11.422  10.551   5.594 -0.9191  0.4808  1.4390
  654MOL0     H88248  11.451  10.264   5.493  2.2019  0.1307 -0.7505
  654MOL0     H88249  11.443  10.290   5.671 -0.0085 -4.0278 -2.4696
  654MOL0     H88250  11.619  10.114   5.505 -0.5188 -0.7019  1.5060
  654MOL0     H88251  11.810   9.983   5.527 -0.4324 -0.5440  2.1020
  654MOL0     H88252  12.348  10.095   5.491  1.7895 -1.5478 -1.6572
  654MOL0     H88253  12.552   9.947   5.504  1.4966  4.1687  0.5102
  654MOL0     H88254  12.560   9.643   5.641 -0.5209  0.1507  0.6894
  654MOL0     H88255  12.679   9.730   5.556 -1.8597  0.4361 -1.0192
  654MOL0     H88256  12.708   9.582   5.824  1.1195 -1.5786 -0.6546
  654MOL0     H88257  12.769   9.529   5.673 -1.1048 -0.6733  1.7507
  654MOL0     H88258  12.923   9.716   5.635 -0.1781  0.9726  0.1026
  654MOL0     H88259  12.883   9.777   5.793  2.3206  0.7270 -0.7848
  654MOL0     H88260  13.008   9.512   5.754 -0.2864 -0.6663  0.7222
  654MOL0     H88261  13.005   9.602   5.906  1.7074  0.6177  0.3716
  654MOL0     H88262  13.111   9.806   5.776  0.1262 -0.2248 -1.8300
  654MOL0     H88263  13.151   9.687   5.654 -2.7590 -0.8800 -0.3744
  654MOL0     H88264  13.244   9.686   5.946 -1.0244  0.1980 -0.5545
  654MOL0     H88265  13.267   9.551   5.837  1.7406 -1.5006  2.6563
  654MOL0     H88266  13.362   9.839   5.784  1.3958 -0.0977  0.6205
  654MOL0     H88267  13.400   9.698   5.688  0.4123  0.7611  0.5924
  654MOL0     H88268  13.578   9.781   5.844  0.3495 -0.2488 -1.1276
  654MOL0     H88269  13.470   9.743   5.981 -0.4362  1.9141 -0.6659
  654MOL0     H88270  12.438   9.831   5.907  3.1893  1.4568  1.3324
  654MOL0     H88271  12.233   9.983   5.888 -2.9793 -2.7707 -1.1149
  654MOL0     H88272  12.023  10.324   5.685  1.0741 -1.0905 -1.6003
  654MOL0     H88273  11.830  10.442   5.695  2.1767 -0.5692  2.7156
  654MOL0     H88274  10.227  10.011   5.476 -1.8838  0.8700  0.5235
  654MOL0     H88275  10.201   9.792   5.568  2.1193  1.5186 -1.4762
  654MOL0     H88276  10.099   9.548   5.901 -0.3479 -0.4557  0.7085
  654MOL0     H88277  10.092   9.323   5.967 -0.5253  2.8963 -0.6785
  654MOL0     H88278  10.129   9.125   5.979  1.0308 -2.4683 -1.4403
  654MOL0     H88279  10.098   9.112   6.149  2.2412  1.3389  3.4812
  654MOL0     H88280  10.331   8.962   6.031 -0.4799 -0.0929 -1.8663
  654MOL0     H88281  10.165   8.916   5.990 -0.9113  0.1472  0.7894
  654MOL0     H88282  10.252   8.775   6.178 -3.3850 -0.0988 -0.0367
  654MOL0     H88283  10.105   8.882   6.217 -1.3467 -0.5328 -2.0578
  654MOL0     H88284  10.393   8.945   6.284 -1.7851  4.0958 -2.9176
  654MOL0     H88285  10.256   9.038   6.345  1.2230  0.5356  1.1368
  654MOL0     H88286  10.266   8.732   6.620 -0.3573 -2.9183 -1.4974
  654MOL0     H88287  10.492   9.332   6.099  0.1432  0.5507 -1.1448
  654MOL0     H88288  10.626   9.539   6.092 -1.4511 -1.6414  0.6041
  654MOL0     H88289  10.628   9.567   5.910  0.7607  3.7571 -0.4771
  654MOL0     H88290  10.546   9.683   6.017 -1.3373 -0.8260 -0.1079
  655MOL0     O88291   0.292   5.163   1.758  0.0128  0.4773  0.5866
  655MOL0     C88292   0.338   5.072   1.822  0.0448 -0.2338 -0.1295
  655MOL0     O88293   0.257   4.991   1.904 -0.0448 -0.1039 -0.0943
  655MOL0     C88294   0.145   5.055   1.950  0.0078  0.5421 -0.0801
  655MOL0     C88295   0.151   5.129   2.062 -0.3804  0.8770  0.0529
  655MOL0     C88296   0.044   5.198   2.096  0.4594  0.1235  0.5320
  655MOL0     C88297  -0.082   5.183   2.026 -0.5493  0.2457 -0.2796
  655MOL0     O88298  -0.184   5.260   2.077  0.3585  0.2007 -0.7865
  655MOL0     C88299  -0.324   5.220   2.045 -0.5558 -0.2637 -0.6516
  655MOL0     C88300  -0.428   5.317   2.101  0.1831 -0.1551  0.0389
  655MOL0     C88301  -0.572   5.286   2.054 -0.2680  0.4620 -0.0358
  655MOL0     C88302  -0.682   5.378   2.104  0.1185 -0.3428  0.4133
  655MOL0     C88303  -0.819   5.352   2.041  0.7205  0.0347  0.8153
  655MOL0     C88304  -0.843   5.381   1.886 -0.1054 -0.5028  0.5997
  655MOL0     C88305  -0.799   5.528   1.840 -0.6557  0.2546 -0.8246
  655MOL0     C88306  -0.813   5.558   1.689  0.4647 -0.2387 -0.9294
  655MOL0     N88307  -0.732   5.473   1.606  1.1677 -0.2643  0.4986
  655MOL0     C88308  -0.597   5.472   1.587  0.7567  0.1120 -0.6292
  655MOL0     C88309  -0.583   5.381   1.487 -1.2475  0.0930  0.2977
  655MOL0     C88310  -0.447   5.347   1.434 -0.4863 -0.6538  0.9961
  655MOL0     C88311  -0.355   5.464   1.395 -0.3613  0.0533 -0.5106
  655MOL0     C88312  -0.225   5.434   1.326 -0.3733 -0.7106  0.1198
  655MOL0     C88313  -0.245   5.391   1.179  0.5626 -0.2953  0.1788
  655MOL0     O88314  -0.312   5.497   1.112 -0.3128 -0.0236  0.3233
  655MOL0     C88315  -0.250   5.608   1.059 -0.3664  1.0704  0.9694
  655MOL0     C88316  -0.247   5.724   1.134  0.3162 -1.8969  0.4961
  655MOL0     C88317  -0.199   5.850   1.077  0.8209  0.1202  0.3483
  655MOL0     C88318  -0.162   5.854   0.942 -0.1787 -0.0817 -0.0090
  655MOL0     C88319  -0.112   5.981   0.883  0.7080 -0.2492  0.9840
  655MOL0     O88320  -0.080   5.973   0.756 -0.6005  0.3405 -0.5150
  655MOL0     C88321  -0.042   6.081   0.680  0.2106 -0.9117 -0.5184
  655MOL0     C88322  -0.125   6.181   0.646 -0.2964 -1.1578  0.1894
  655MOL0     C88323  -0.079   6.288   0.565  0.3513  0.1448 -0.5626
  655MOL0     C88324   0.052   6.288   0.513 -0.3362  0.2345 -0.1676
  655MOL0     O88325   0.115   6.382   0.437  0.3703  0.3744  0.2118
  655MOL0     C88326   0.046   6.512   0.413 -0.5879 -0.9913 -1.1177
  655MOL0     C88327   0.142   6.595   0.322 -0.0735 -0.6289  0.3649
  655MOL0     C88328   0.078   6.639   0.180 -0.4196  0.0260 -0.5987
  655MOL0     C88329   0.192   6.716   0.107 -0.5240 -0.4335  0.1253
  655MOL0     C88330   0.144   6.774  -0.020 -0.0433  0.3329  0.1193
  655MOL0     C88331   0.246   6.874  -0.072  0.6109  0.1521 -0.1487
  655MOL0     C88332   0.182   6.948  -0.196 -0.1066  0.8920 -0.1407
  655MOL0     C88333   0.273   7.042  -0.274 -0.3798 -0.0482 -0.1038
  655MOL0    Cl88334   0.403   6.940  -0.336 -0.5999  0.1413  0.4875
  655MOL0     C88335   0.132   6.185   0.549 -0.1292  0.7286 -0.1353
  655MOL0     C88336   0.088   6.086   0.638  0.3646  1.0576 -0.1605
  655MOL0     O88337  -0.123   6.084   0.949  0.4384 -0.2108  0.3040
  655MOL0     C88338  -0.161   5.726   0.877  0.0957 -0.6184 -0.2635
  655MOL0     C88339  -0.197   5.609   0.934 -0.7618  0.1052  0.5804
  655MOL0     N88340  -0.695   5.328   1.456  0.0540  0.5676 -0.4975
  655MOL0     N88341  -0.784   5.376   1.529  0.9617 -0.7321 -0.6568
  655MOL0     C88342  -0.082   5.091   1.922  0.2548 -0.4259  0.0145
  655MOL0     C88343   0.035   5.030   1.875 -0.1610 -0.0445  1.3787
  655MOL0     C88344   0.479   5.033   1.811 -0.3802 -0.2252 -0.6010
  655MOL0     C88345   0.526   4.985   1.935  0.5655  1.0910 -0.8294
  655MOL0     C88346   0.668   4.957   1.944 -0.2149  0.4832 -0.7631
  655MOL0     C88347   0.761   4.981   1.840  0.7968 -0.8117  0.0568
  655MOL0     O88348   0.894   4.952   1.849  0.2808 -0.5159 -1.0881
  655MOL0     C88349   0.956   4.900   1.967  0.0967  0.2459  0.0710
  655MOL0     C88350   0.991   5.017   2.066  0.4797  0.5386  0.6972
  655MOL0     C88351   1.109   5.095   2.008  0.1526  0.4097  0.2952
  655MOL0     C88352   1.233   5.005   2.016  0.6561  1.0308 -0.3258
  655MOL0     C88353   1.345   5.090   1.981  0.2567 -0.1469  0.9252
  655MOL0     C88354   1.439   5.166   1.978  0.4077 -0.4239  0.6600
  655MOL0     C88355   0.711   5.039   1.726  0.4055 -0.6666 -0.1477
  655MOL0     C88356   0.571   5.058   1.707  0.6848 -0.5993  0.4149
  655MOL0     C88357   0.522   5.102   1.572 -0.6580  0.2686  0.6746
  655MOL0     H88358   0.241   5.134   2.122 -0.9545  0.9318  0.9299
  655MOL0     H88359   0.046   5.256   2.188  0.4627  0.8705  0.0668
  655MOL0     H88360  -0.335   5.222   1.936 -1.9984 -0.1716 -0.5371
  655MOL0     H88361  -0.354   5.122   2.084 -2.0950 -0.9830 -3.3623
  655MOL0     H88362  -0.417   5.421   2.071  0.2993  0.6364  2.6053
  655MOL0     H88363  -0.436   5.299   2.209 -1.1416  0.4741  0.0699
  655MOL0     H88364  -0.592   5.179   2.070  3.6575 -0.5556 -0.6575
  655MOL0     H88365  -0.575   5.309   1.947  0.4328 -0.6781 -0.3280
  655MOL0     H88366  -0.693   5.363   2.211  0.9098  3.5313  1.1914
  655MOL0     H88367  -0.649   5.481   2.088 -0.4698 -0.1345  0.5103
  655MOL0     H88368  -0.837   5.246   2.059 -0.5801 -0.4718 -2.7887
  655MOL0     H88369  -0.894   5.402   2.103  1.6290  1.9919  0.4272
  655MOL0     H88370  -0.786   5.305   1.832  2.6637  1.6763  0.2182
  655MOL0     H88371  -0.951   5.373   1.873 -0.2329  2.1888 -0.4497
  655MOL0     H88372  -0.694   5.545   1.865 -0.1142 -2.6890 -0.6486
  655MOL0     H88373  -0.862   5.596   1.897 -0.1952 -1.0687  1.3932
  655MOL0     H88374  -0.918   5.557   1.657  0.2085  0.7223 -0.2066
  655MOL0     H88375  -0.779   5.660   1.667 -1.2050 -0.2535 -4.1559
  655MOL0     H88376  -0.515   5.529   1.629  0.3399  1.2540 -1.3096
  655MOL0     H88377  -0.399   5.287   1.511  0.6738  1.9888  2.4583
  655MOL0     H88378  -0.466   5.294   1.340 -0.6571 -0.7831  1.1020
  655MOL0     H88379  -0.411   5.534   1.332 -4.1976 -2.0981  0.1651
  655MOL0     H88380  -0.336   5.516   1.489 -1.0053 -2.5194  1.1585
  655MOL0     H88381  -0.180   5.353   1.384 -0.7234 -0.8626  0.1840
  655MOL0     H88382  -0.161   5.522   1.335 -0.4611 -0.7165  0.8572
  655MOL0     H88383  -0.305   5.302   1.159  1.0007  0.1715 -3.9724
  655MOL0     H88384  -0.149   5.376   1.130 -1.1544  0.4105 -3.7283
  655MOL0     H88385  -0.287   5.716   1.235 -0.6566 -1.2548  0.1696
  655MOL0     H88386  -0.193   5.933   1.147 -0.5130 -1.5002  2.5138
  655MOL0     H88387  -0.226   6.165   0.683 -0.6994 -1.0483 -0.8306
  655MOL0     H88388  -0.144   6.372   0.544  0.5458  0.1908 -0.9884
  655MOL0     H88389  -0.052   6.498   0.367 -1.0757  0.7333 -0.6537
  655MOL0     H88390   0.033   6.553   0.513 -0.6500  0.0517 -1.5427
  655MOL0     H88391   0.168   6.683   0.382  1.6685 -0.3251 -0.7358
  655MOL0     H88392   0.233   6.537   0.303  0.8827  1.3308 -1.5604
  655MOL0     H88393   0.045   6.551   0.125  0.8543 -0.3602 -0.7797
  655MOL0     H88394  -0.007   6.706   0.197  0.0104  0.4761 -0.1568
  655MOL0     H88395   0.267   6.640   0.082 -1.1731 -0.7452 -0.9632
  655MOL0     H88396   0.230   6.798   0.167 -2.2530 -1.0061  2.1117
  655MOL0     H88397   0.048   6.825  -0.009 -0.2257  0.7645 -2.5882
  655MOL0     H88398   0.131   6.695  -0.095 -0.7532 -1.3422  1.9265
  655MOL0     H88399   0.279   6.953  -0.003  0.6104  0.0757 -0.0612
  655MOL0     H88400   0.335   6.814  -0.092  1.6560  1.2584  0.9594
  655MOL0     H88401   0.104   7.012  -0.154 -0.3096  1.1069 -0.8282
  655MOL0     H88402   0.142   6.874  -0.267  1.2368  0.3075 -0.3316
  655MOL0     H88403   0.216   7.101  -0.347 -0.4014  0.4306  0.2950
  655MOL0     H88404   0.311   7.122  -0.210 -0.8248 -0.6851  0.9894
  655MOL0     H88405   0.229   6.162   0.507 -1.1696 -1.4444 -1.5503
  655MOL0     H88406   0.156   6.002   0.650 -0.4135  0.6498  1.8621
  655MOL0     H88407  -0.146   5.700   0.773 -1.7379 -3.0805 -0.0051
  655MOL0     H88408  -0.188   5.513   0.884  0.2071 -1.0931  2.8536
  655MOL0     H88409  -0.176   5.093   1.867  2.4071  3.2050 -4.1894
  655MOL0     H88410   0.043   4.969   1.785  1.2600  2.2364 -0.1663
  655MOL0     H88411   0.459   4.971   2.019 -0.1732 -0.0960 -1.5818
  655MOL0     H88412   0.700   4.922   2.041 -2.2410  2.0542  0.5637
  655MOL0     H88413   1.045   4.845   1.936  0.1222 -0.0297  0.6087
  655MOL0     H88414   0.890   4.827   2.015 -2.6988  2.2595 -0.4583
  655MOL0     H88415   1.025   4.961   2.154  0.4345 -1.1975 -0.3632
  655MOL0     H88416   0.904   5.082   2.082 -1.6111 -1.9209 -0.0952
  655MOL0     H88417   1.117   5.186   2.067  0.0851  1.3271 -1.0789
  655MOL0     H88418   1.094   5.131   1.906 -1.8194  1.3841  0.8870
  655MOL0     H88419   1.243   4.961   2.116  1.1606 -2.4362 -1.7339
  655MOL0     H88420   1.247   4.923   1.944  4.5533  1.3957 -0.1467
  655MOL0     H88421   1.528   5.226   1.987  0.0656  0.0484  0.9600
  655MOL0     H88422   0.765   5.075   1.639 -0.5450  1.0600 -0.0813
  655MOL0     H88423   0.543   5.209   1.571 -1.9486  0.5294 -0.6994
  655MOL0     H88424   0.587   5.060   1.495  1.4364  2.7313  0.9304
  655MOL0     H88425   0.423   5.073   1.538  0.0053 -0.3902 -0.7947
  656MOL0     O88426   5.521   1.704   1.049 -1.0466 -0.7772 -0.3931
  656MOL0     C88427   5.628   1.657   1.008  0.2597  0.2052  0.6754
  656MOL0     O88428   5.638   1.555   0.908 -0.9228 -0.1487 -0.2786
  656MOL0     C88429   5.525   1.531   0.829  1.3017  0.5483 -0.4223
  656MOL0     C88430   5.494   1.403   0.787 -0.2245  0.6283 -0.3174
  656MOL0     C88431   5.377   1.367   0.716 -0.1464 -0.0215  0.1084
  656MOL0     C88432   5.308   1.477   0.657 -0.2807  0.2188  0.1900
  656MOL0     O88433   5.213   1.459   0.559 -1.0995 -0.4362 -0.6173
  656MOL0     C88434   5.163   1.332   0.525 -0.7754 -0.7695  0.0794
  656MOL0     C88435   5.074   1.355   0.393 -0.7345 -0.1157  0.8653
  656MOL0     C88436   4.991   1.226   0.359  0.3956  0.0731  0.0716
  656MOL0     C88437   4.891   1.258   0.248  0.1841  0.3518  0.0612
  656MOL0     C88438   4.937   1.339   0.131 -0.3785 -0.4065 -0.0278
  656MOL0     C88439   4.842   1.320   0.010 -0.5289  0.4410 -0.0653
  656MOL0     C88440   4.887   1.414  -0.111 -0.0927  0.3658 -0.1673
  656MOL0     C88441   4.780   1.420  -0.224  0.6416 -0.9476  0.8205
  656MOL0     N88442   4.654   1.498  -0.185  0.2707 -0.5720 -0.2742
  656MOL0     C88443   4.550   1.453  -0.124 -0.0050  0.1879 -0.0500
  656MOL0     C88444   4.478   1.568  -0.108  0.1763  0.5964  0.2791
  656MOL0     C88445   4.354   1.577  -0.018 -0.2896  0.0440 -0.5960
  656MOL0     C88446   4.345   1.492   0.115  0.1043 -0.3291  0.0685
  656MOL0     C88447   4.459   1.531   0.219  0.3786 -0.1147 -0.2473
  656MOL0     C88448   4.443   1.461   0.352 -0.8885  0.1210  0.0603
  656MOL0     O88449   4.307   1.484   0.395 -0.3806 -0.3175 -0.6802
  656MOL0     C88450   4.249   1.424   0.510 -0.0365 -0.3171 -0.1727
  656MOL0     C88451   4.323   1.372   0.620  0.0147  0.4129  0.2098
  656MOL0     C88452   4.256   1.317   0.735 -0.1103 -0.2645  0.4436
  656MOL0     C88453   4.111   1.320   0.736  0.1919 -0.1857 -0.0261
  656MOL0     C88454   4.039   1.270   0.853 -1.0123  0.3675  0.1604
  656MOL0     O88455   3.904   1.308   0.850  0.4483  0.1813 -0.0137
  656MOL0     C88456   3.823   1.254   0.958  0.1357 -1.0405  0.9342
  656MOL0     C88457   3.783   1.117   0.956 -0.3850 -0.5196 -0.2578
  656MOL0     C88458   3.709   1.065   1.063  0.1792  0.4217 -0.0632
  656MOL0     C88459   3.658   1.156   1.154  0.1435  0.1172  0.1016
  656MOL0     O88460   3.573   1.106   1.251  0.4335  0.5704 -0.0408
  656MOL0     C88461   3.503   1.195   1.332  0.8993  1.3526  0.1890
  656MOL0     C88462   3.395   1.113   1.396 -0.0413  0.5027 -0.6115
  656MOL0     C88463   3.264   1.075   1.317 -0.6021  0.1336 -0.0120
  656MOL0     C88464   3.154   1.017   1.411 -0.2315 -0.0016 -0.5604
  656MOL0     C88465   3.033   1.004   1.321  0.6070  0.0103  1.0560
  656MOL0     C88466   2.925   0.894   1.366 -0.3600 -0.5632  0.1458
  656MOL0     C88467   2.843   0.940   1.493 -0.3149  0.3153 -0.1146
  656MOL0     C88468   2.754   0.839   1.546  0.1695  0.0892  0.3511
  656MOL0    Cl88469   2.614   0.840   1.439 -0.1665  0.4022 -0.4251
  656MOL0     C88470   3.690   1.289   1.146  0.0246  1.3526 -0.1579
  656MOL0     C88471   3.777   1.339   1.050 -1.6855  0.2766 -0.1806
  656MOL0     O88472   4.094   1.212   0.945  0.5723  0.5863 -0.3510
  656MOL0     C88473   4.046   1.388   0.634 -0.6862 -0.5725  0.0915
  656MOL0     C88474   4.111   1.427   0.515  0.0377  0.0291 -0.1069
  656MOL0     N88475   4.542   1.679  -0.154 -0.3788 -0.0989 -0.0983
  656MOL0     N88476   4.654   1.638  -0.203  0.3612  0.5267 -0.2747
  656MOL0     C88477   5.347   1.608   0.683  0.2891 -0.4041  0.0449
  656MOL0     C88478   5.444   1.633   0.776 -0.0030  0.5144 -0.7588
  656MOL0     C88479   5.747   1.688   1.073 -0.9808  0.1715 -0.7671
  656MOL0     C88480   5.839   1.588   1.101  0.4310 -0.4977 -0.1197
  656MOL0     C88481   5.957   1.612   1.160 -0.2173 -0.7932 -0.9584
  656MOL0     C88482   6.005   1.748   1.184  0.5922  0.6829  0.0820
  656MOL0     O88483   6.130   1.785   1.231 -0.5544 -0.6120  0.2836
  656MOL0     C88484   6.200   1.701   1.322  0.4410  0.3138  0.5519
  656MOL0     C88485   6.344   1.757   1.357  0.2164  0.3246  0.4365
  656MOL0     C88486   6.442   1.756   1.245 -0.7345 -0.0450  0.7465
  656MOL0     C88487   6.572   1.792   1.299  0.5268  0.1728  0.1514
  656MOL0     C88488   6.681   1.760   1.208  0.2825  0.3390 -0.1271
  656MOL0     C88489   6.775   1.754   1.129 -0.3743 -0.1360  0.5338
  656MOL0     C88490   5.908   1.841   1.168  0.0372  0.0371 -0.2061
  656MOL0     C88491   5.779   1.818   1.120  0.2630 -0.1059 -0.6990
  656MOL0     C88492   5.677   1.928   1.143  0.6443 -0.1443 -0.1249
  656MOL0     H88493   5.557   1.324   0.829 -3.1950 -1.2811  0.8478
  656MOL0     H88494   5.360   1.260   0.704  1.5259 -0.0327 -3.7311
  656MOL0     H88495   5.237   1.258   0.494 -0.1289 -0.7224  1.4242
  656MOL0     H88496   5.094   1.288   0.597  0.8555 -2.6003  0.6163
  656MOL0     H88497   5.139   1.384   0.310  0.0637  1.7390  2.0755
  656MOL0     H88498   5.013   1.445   0.405  0.0450  0.8952 -1.8933
  656MOL0     H88499   4.942   1.196   0.453  1.3997  2.2140  1.3454
  656MOL0     H88500   5.050   1.140   0.327  1.9279  0.5250  1.5666
  656MOL0     H88501   4.853   1.162   0.214 -2.1508  0.9139  0.9452
  656MOL0     H88502   4.803   1.310   0.285 -0.9119 -1.4763  0.1364
  656MOL0     H88503   4.936   1.447   0.146 -0.6079 -0.0426 -2.3582
  656MOL0     H88504   5.035   1.298   0.106 -0.7898 -2.1338  0.9939
  656MOL0     H88505   4.823   1.217  -0.021  2.5107 -0.8321  1.8127
  656MOL0     H88506   4.746   1.355   0.049  0.4341  3.5118 -0.1606
  656MOL0     H88507   4.974   1.375  -0.165 -0.6186 -1.0770 -0.0101
  656MOL0     H88508   4.918   1.512  -0.073  1.8827 -0.1886 -0.2091
  656MOL0     H88509   4.838   1.465  -0.305  0.2430 -2.0129 -0.0800
  656MOL0     H88510   4.743   1.328  -0.270 -2.1433  0.0432  0.9183
  656MOL0     H88511   4.539   1.348  -0.097  1.1433 -0.0937 -0.6516
  656MOL0     H88512   4.341   1.684  -0.002  0.2189  0.2003 -1.1599
  656MOL0     H88513   4.263   1.547  -0.071 -1.0381  2.3559 -0.7151
  656MOL0     H88514   4.245   1.508   0.155  0.0837  4.3432 -1.3159
  656MOL0     H88515   4.368   1.388   0.090 -1.0754 -1.3137  2.7322
  656MOL0     H88516   4.460   1.638   0.243 -2.1215 -0.4143  1.6286
  656MOL0     H88517   4.558   1.503   0.182 -1.0448 -2.1184 -2.8677
  656MOL0     H88518   4.517   1.500   0.423  1.7086 -3.6361 -0.2627
  656MOL0     H88519   4.475   1.356   0.342 -0.1085  0.1096  2.1454
  656MOL0     H88520   4.431   1.378   0.609  0.5680 -0.9101  3.7005
  656MOL0     H88521   4.317   1.258   0.803 -1.1752 -2.4716 -0.3911
  656MOL0     H88522   3.804   1.050   0.873  1.4679 -1.0204  0.5614
  656MOL0     H88523   3.678   0.961   1.068 -0.3690  0.5081 -1.3213
  656MOL0     H88524   3.571   1.224   1.413  2.3987 -1.9605  0.2477
  656MOL0     H88525   3.466   1.287   1.285  0.9422  1.7614  0.9289
  656MOL0     H88526   3.440   1.019   1.431 -1.5624 -0.5854 -1.4779
  656MOL0     H88527   3.368   1.182   1.477  1.3980  1.4763 -0.9204
  656MOL0     H88528   3.231   1.162   1.260  0.1824  1.0145  0.8453
  656MOL0     H88529   3.286   1.000   1.240 -1.6937 -0.1778 -0.0352
  656MOL0     H88530   3.134   1.084   1.496 -1.2522 -1.7232  0.6191
  656MOL0     H88531   3.185   0.923   1.457 -0.6291  1.2716  2.5591
  656MOL0     H88532   3.083   0.987   1.225  0.3310 -0.9963  1.0745
  656MOL0     H88533   2.986   1.100   1.300  1.8497  0.5576  0.6380
  656MOL0     H88534   2.862   0.876   1.278 -0.8672 -1.6020  0.7055
  656MOL0     H88535   2.982   0.803   1.384 -1.4184 -1.5954 -1.4849
  656MOL0     H88536   2.796   1.037   1.476 -0.4919  0.1133 -0.7821
  656MOL0     H88537   2.924   0.958   1.565 -0.5213  2.4419 -0.3348
  656MOL0     H88538   2.794   0.739   1.529  0.0146  0.3836 -2.1276
  656MOL0     H88539   2.727   0.859   1.650 -0.2201  0.8344  0.1118
  656MOL0     H88540   3.648   1.353   1.222 -1.0205  0.2986  0.1723
  656MOL0     H88541   3.806   1.443   1.039  0.7259 -0.1573  1.3508
  656MOL0     H88542   3.938   1.387   0.629 -0.7217 -4.1179 -1.0225
  656MOL0     H88543   4.057   1.471   0.432 -1.0138  2.1815  1.6447
  656MOL0     H88544   5.288   1.690   0.643  0.6893  0.6038  1.4607
  656MOL0     H88545   5.465   1.739   0.793 -0.0971  0.1957  1.6875
  656MOL0     H88546   5.825   1.484   1.073 -1.3884 -0.4734  0.5435
  656MOL0     H88547   6.023   1.531   1.190 -0.3964 -0.3181  0.8410
  656MOL0     H88548   6.217   1.605   1.272  0.7826 -0.1983  1.6196
  656MOL0     H88549   6.147   1.679   1.415 -0.9380  3.0392  0.5265
  656MOL0     H88550   6.366   1.680   1.431 -5.4144 -4.9027 -2.3949
  656MOL0     H88551   6.331   1.861   1.389  1.7077  0.4240  0.7711
  656MOL0     H88552   6.404   1.827   1.170 -1.6090 -1.8539 -0.5961
  656MOL0     H88553   6.440   1.656   1.200 -0.8839 -0.9139  2.6009
  656MOL0     H88554   6.572   1.897   1.326  1.5416  0.5585 -1.2228
  656MOL0     H88555   6.585   1.733   1.390 -0.2949 -1.9157 -0.9909
  656MOL0     H88556   6.863   1.730   1.073 -0.9472 -2.7049  0.5838
  656MOL0     H88557   5.932   1.941   1.203  0.4857 -0.7754  1.9503
  656MOL0     H88558   5.615   1.951   1.056 -2.1055  3.2651  2.4327
  656MOL0     H88559   5.604   1.899   1.219 -0.1046 -0.5877 -0.9986
  656MOL0     H88560   5.725   2.020   1.178  1.3070 -0.8040  0.7284
  657MOL0     O88561   5.026  10.385   4.018  0.5070  0.2757  0.4069
  657MOL0     C88562   4.958  10.369   3.918  0.3845  0.0313  0.2057
  657MOL0     O88563   5.002  10.339   3.791  0.2770  0.6113 -0.4720
  657MOL0     C88564   5.139  10.338   3.783  0.2074  0.0988  0.2642
  657MOL0     C88565   5.215  10.223   3.740  0.2984 -0.1884 -0.5231
  657MOL0     C88566   5.357  10.225   3.740 -0.0945 -0.3001  0.1944
  657MOL0     C88567   5.422  10.343   3.766 -0.1508  0.1569  0.6861
  657MOL0     O88568   5.556  10.373   3.769 -0.4656  0.0261 -0.1297
  657MOL0     C88569   5.641  10.266   3.738 -0.3076 -0.3300 -0.1687
  657MOL0     C88570   5.651  10.168   3.857  0.0442 -0.0378  0.1644
  657MOL0     C88571   5.782  10.186   3.931 -0.4402 -0.4959 -0.3590
  657MOL0     C88572   5.906  10.120   3.877  0.1082 -0.4541  0.2285
  657MOL0     C88573   6.043  10.176   3.913 -0.7472  0.5476  0.7587
  657MOL0     C88574   6.073  10.297   3.822 -0.8171 -1.0563  0.1612
  657MOL0     C88575   6.061  10.280   3.673  0.4251 -0.5618  0.6199
  657MOL0     C88576   6.120  10.393   3.588 -0.0102  1.5273  0.0256
  657MOL0     N88577   6.264  10.400   3.624 -0.3315 -0.4513  0.1607
  657MOL0     C88578   6.349  10.290   3.646  0.0679 -0.1661  0.4234
  657MOL0     C88579   6.470  10.349   3.617 -0.4941 -0.0789 -0.3923
  657MOL0     C88580   6.603  10.285   3.623 -0.2949 -0.5194  0.7128
  657MOL0     C88581   6.670  10.287   3.489 -0.9666  0.0182 -0.4091
  657MOL0     C88582   6.583  10.229   3.371 -1.0546 -0.1241 -0.3732
  657MOL0     C88583   6.611  10.078   3.347  0.2642  0.3696  0.5872
  657MOL0     O88584   6.598   9.998   3.475  0.2549 -0.0680 -0.0486
  657MOL0     C88585   6.475   9.950   3.508 -0.3317  0.0810  0.3062
  657MOL0     C88586   6.468   9.856   3.608 -0.0731  0.7677  0.3635
  657MOL0     C88587   6.343   9.805   3.651  0.2853  1.1244  0.5122
  657MOL0     C88588   6.227   9.866   3.595 -0.6848 -0.7964 -0.3135
  657MOL0     C88589   6.089   9.825   3.633 -0.5952  0.1419 -0.8907
  657MOL0     O88590   5.988   9.900   3.570  0.0601  0.1508 -0.2208
  657MOL0     C88591   5.850   9.892   3.601 -0.1525  1.0281  0.0123
  657MOL0     C88592   5.790   9.781   3.678 -0.6043  0.5838  0.0717
  657MOL0     C88593   5.651   9.777   3.690 -0.2551  0.2094 -0.7760
  657MOL0     C88594   5.573   9.873   3.623 -0.9079  0.4062  1.3942
  657MOL0     O88595   5.438   9.879   3.623  0.4522 -0.1584  0.4809
  657MOL0     C88596   5.366   9.762   3.654 -0.8972  1.2431  0.8531
  657MOL0     C88597   5.213   9.781   3.656  0.1895  0.5484 -0.5526
  657MOL0     C88598   5.169   9.774   3.508 -0.5850 -0.3373 -0.9659
  657MOL0     C88599   5.017   9.786   3.483 -0.3408 -0.1743  0.6328
  657MOL0     C88600   4.931   9.666   3.523 -0.1510 -0.5074 -0.4211
  657MOL0     C88601   4.805   9.650   3.433  0.3774 -0.6541 -0.1672
  657MOL0     C88602   4.731   9.518   3.461  1.2479 -0.5420  0.4418
  657MOL0     C88603   4.581   9.538   3.423 -0.0217 -0.1993 -0.5195
  657MOL0    Cl88604   4.509   9.667   3.523  0.2656 -0.2894  0.4636
  657MOL0     C88605   5.637   9.971   3.553  0.1397 -0.7194 -0.4595
  657MOL0     C88606   5.770   9.987   3.552 -0.8944  0.3478 -0.5916
  657MOL0     O88607   6.071   9.749   3.728  0.3326  0.6787  0.4220
  657MOL0     C88608   6.235   9.968   3.507  0.4920  0.0568 -0.1266
  657MOL0     C88609   6.352   9.997   3.449 -0.6335 -0.3660  0.0230
  657MOL0     N88610   6.449  10.480   3.601 -0.8179  0.4067 -0.0835
  657MOL0     N88611   6.327  10.511   3.619 -0.6563  0.3502 -0.2403
  657MOL0     C88612   5.350  10.454   3.785  0.4644  0.4932  0.6088
  657MOL0     C88613   5.209  10.457   3.808  0.3989  0.7033  0.2349
  657MOL0     C88614   4.808  10.385   3.951 -0.2848  0.8079  0.1751
  657MOL0     C88615   4.716  10.316   3.871  0.8000 -0.6886  0.3873
  657MOL0     C88616   4.585  10.308   3.926  0.4583  0.2613  0.6152
  657MOL0     C88617   4.540  10.398   4.021 -0.5457 -0.2283  0.3674
  657MOL0     O88618   4.406  10.397   4.057 -0.6392  0.6137 -0.1248
  657MOL0     C88619   4.379  10.400   4.203 -0.5690 -1.1240  0.0652
  657MOL0     C88620   4.337  10.264   4.254  0.5426  0.1130  0.4482
  657MOL0     C88621   4.188  10.257   4.252  0.1068  0.9414  0.0619
  657MOL0     C88622   4.140  10.289   4.388  0.8085  0.0152 -0.1651
  657MOL0     C88623   4.002  10.267   4.381  0.1513  0.4244  0.1921
  657MOL0     C88624   3.886  10.229   4.390 -0.1864  0.5347 -0.4560
  657MOL0     C88625   4.634  10.496   4.074  0.3447  0.1492  0.5299
  657MOL0     C88626   4.768  10.488   4.036 -0.6159 -0.2100 -0.2173
  657MOL0     C88627   4.859  10.600   4.074 -0.6335 -0.6360  0.3442
  657MOL0     H88628   5.158  10.133   3.721 -1.0886  0.5813 -0.1228
  657MOL0     H88629   5.416  10.139   3.708  0.0370 -0.2981  0.4259
  657MOL0     H88630   5.605  10.215   3.648 -0.8026 -1.5602  0.7074
  657MOL0     H88631   5.743  10.297   3.712  0.0826 -2.4121 -1.3386
  657MOL0     H88632   5.638  10.063   3.829 -3.2047  0.0943  0.8313
  657MOL0     H88633   5.571  10.188   3.929 -1.8272 -1.2257 -1.4968
  657MOL0     H88634   5.764  10.136   4.026  3.1261  1.9452  1.8475
  657MOL0     H88635   5.808  10.289   3.955  1.2735 -0.8710 -0.4449
  657MOL0     H88636   5.908  10.013   3.898  2.1298 -0.6064 -0.5344
  657MOL0     H88637   5.899  10.130   3.768 -0.0477  2.7208  0.4389
  657MOL0     H88638   6.060  10.197   4.019 -1.2754 -0.4330  1.0543
  657MOL0     H88639   6.113  10.096   3.886 -1.7871  0.0770 -0.7134
  657MOL0     H88640   5.997  10.371   3.851  2.1962  1.7878  1.3851
  657MOL0     H88641   6.171  10.337   3.847 -0.3286 -2.9542  1.5200
  657MOL0     H88642   5.955  10.278   3.647  0.6216 -3.3167 -0.2598
  657MOL0     H88643   6.091  10.181   3.638 -3.1468 -1.7533  0.5286
  657MOL0     H88644   6.109  10.363   3.484  2.1577  2.2125 -0.4522
  657MOL0     H88645   6.071  10.490   3.604 -0.9737  0.5746  3.7384
  657MOL0     H88646   6.327  10.185   3.665  2.6830 -0.8859 -0.1841
  657MOL0     H88647   6.657  10.328   3.708  0.2677  1.3813 -0.5224
  657MOL0     H88648   6.586  10.180   3.647  1.8111 -1.5593 -1.8148
  657MOL0     H88649   6.694  10.389   3.459 -0.0393 -0.9556 -3.3290
  657MOL0     H88650   6.763  10.230   3.491 -0.2766  1.1323 -0.2530
  657MOL0     H88651   6.606  10.288   3.281  4.4930 -1.5856 -0.2536
  657MOL0     H88652   6.475  10.245   3.379 -1.0978  0.0411 -1.1776
  657MOL0     H88653   6.710  10.066   3.302 -1.0156  4.3536 -4.0518
  657MOL0     H88654   6.541  10.038   3.275 -1.8439  3.1144  0.9581
  657MOL0     H88655   6.546   9.816   3.673  0.1027 -0.1383 -0.3823
  657MOL0     H88656   6.333   9.736   3.733  0.9061 -1.3826 -1.3925
  657MOL0     H88657   5.850   9.699   3.715  1.6551  2.4803  0.9127
  657MOL0     H88658   5.609   9.693   3.745  3.1950 -2.4988 -1.8648
  657MOL0     H88659   5.389   9.679   3.587 -0.7929  1.1020  1.0623
  657MOL0     H88660   5.394   9.745   3.758  3.1959  0.5152 -0.1628
  657MOL0     H88661   5.153   9.715   3.718 -3.0272  2.3305 -1.5192
  657MOL0     H88662   5.190   9.880   3.697  0.0861  0.4663 -0.4130
  657MOL0     H88663   5.217   9.850   3.446 -3.2827 -0.1493 -3.0396
  657MOL0     H88664   5.200   9.677   3.468 -0.3472 -1.3682  1.5397
  657MOL0     H88665   5.003   9.810   3.377 -1.0692 -3.1397 -0.0346
  657MOL0     H88666   4.990   9.882   3.528  0.4489  0.4345 -0.1588
  657MOL0     H88667   4.903   9.680   3.628  2.7794  4.4632 -0.0130
  657MOL0     H88668   4.996   9.579   3.507  2.0144  0.7255  1.2349
  657MOL0     H88669   4.744   9.738   3.456  0.2288 -1.2665  1.9313
  657MOL0     H88670   4.841   9.647   3.329  3.3699  0.5200  0.7082
  657MOL0     H88671   4.730   9.490   3.567 -1.0731 -0.4032  0.5252
  657MOL0     H88672   4.765   9.430   3.406  0.4648 -0.4877 -0.1510
  657MOL0     H88673   4.569   9.563   3.317 -0.9440 -0.2258 -0.4273
  657MOL0     H88674   4.532   9.441   3.430  0.8683 -0.8262 -2.3776
  657MOL0     H88675   5.567  10.042   3.510  0.6829  0.9675  1.3305
  657MOL0     H88676   5.800  10.075   3.496 -0.0261 -0.8764 -2.1348
  657MOL0     H88677   6.148  10.016   3.463 -0.5158  0.0311  1.7344
  657MOL0     H88678   6.342  10.076   3.375 -0.4480  1.0042  1.4280
  657MOL0     H88679   5.401  10.548   3.803  1.2814  0.6226 -1.9004
  657MOL0     H88680   5.165  10.553   3.833 -0.9206  0.1282  0.2334
  657MOL0     H88681   4.735  10.263   3.778 -1.3490  1.6523 -1.5173
  657MOL0     H88682   4.517  10.248   3.866  1.4555  3.2979 -4.0118
  657MOL0     H88683   4.303  10.477   4.217 -1.9474 -2.1291 -1.5465
  657MOL0     H88684   4.468  10.428   4.261  0.6481  1.3141 -2.7363
  657MOL0     H88685   4.371  10.239   4.355  2.0437 -0.5883 -0.2144
  657MOL0     H88686   4.376  10.183   4.191 -0.2496 -0.5745  0.8141
  657MOL0     H88687   4.155  10.159   4.218 -0.5475  0.8328  0.9585
  657MOL0     H88688   4.143  10.321   4.175  0.0608  1.6482  0.6640
  657MOL0     H88689   4.185  10.223   4.463  2.2195  1.8351  0.6711
  657MOL0     H88690   4.181  10.385   4.419  1.7246  0.0650 -1.4427
  657MOL0     H88691   3.782  10.203   4.394  0.2734 -1.5030 -0.7811
  657MOL0     H88692   4.591  10.578   4.131  3.4771  1.4518  1.2250
  657MOL0     H88693   4.911  10.583   4.168  2.0422 -1.7823 -1.2342
  657MOL0     H88694   4.931  10.633   3.999 -1.9426  1.3167 -0.1254
  657MOL0     H88695   4.790  10.683   4.093  2.2345  1.4839  2.4156
  658MOL0     O88696   5.455   8.665  11.324  0.8219 -0.0289  0.2075
  658MOL0     C88697   5.386   8.597  11.401  0.1835 -0.1073  0.5874
  658MOL0     O88698   5.253   8.616  11.427 -0.7819  0.2300 -0.1014
  658MOL0     C88699   5.188   8.727  11.393  0.4746 -0.3488  0.4951
  658MOL0     C88700   5.164   8.832  11.487 -0.6709  1.1019  0.1306
  658MOL0     C88701   5.078   8.924  11.457 -0.2376  0.1843 -0.5002
  658MOL0     C88702   5.000   8.933  11.342 -0.3102  0.3612  0.6507
  658MOL0     O88703   4.898   9.029  11.308 -0.5474  0.2712  0.8894
  658MOL0     C88704   4.850   9.109  11.408 -0.9526 -0.2780  0.4708
  658MOL0     C88705   4.748   9.189  11.352  0.0111 -0.0017 -0.1544
  658MOL0     C88706   4.697   9.310  11.429 -0.1029  0.3289  0.3025
  658MOL0     C88707   4.559   9.288  11.485 -0.2260  0.3975 -0.6312
  658MOL0     C88708   4.514   9.419  11.568 -0.1325 -0.7166 -0.2556
  658MOL0     C88709   4.360   9.418  11.620 -1.2053 -0.1242  0.4317
  658MOL0     C88710   4.289   9.559  11.601 -0.3519 -0.1251 -0.8909
  658MOL0     C88711   4.137   9.563  11.619 -0.1527  0.6877 -0.2022
  658MOL0     N88712   4.085   9.532  11.761 -0.2371  0.3947 -0.1724
  658MOL0     C88713   4.060   9.409  11.818 -1.0417 -0.4675  0.2152
  658MOL0     C88714   4.029   9.437  11.948  0.6832  0.3203  0.3928
  658MOL0     C88715   3.997   9.330  12.058 -1.3587 -0.0712  0.3303
  658MOL0     C88716   4.115   9.234  12.080  0.2428 -0.6022  0.0519
  658MOL0     C88717   4.067   9.110  12.161 -0.2244  0.8211  0.1146
  658MOL0     C88718   4.018   9.007  12.061 -0.1477  0.3121  0.1800
  658MOL0     O88719   4.133   8.950  11.991 -0.2483 -0.3133  0.2975
  658MOL0     C88720   4.225   8.863  12.043 -0.1653 -0.7104 -0.1633
  658MOL0     C88721   4.331   8.827  11.966 -0.5527 -0.3508 -0.0949
  658MOL0     C88722   4.419   8.728  12.005  1.3747  0.3425  0.2744
  658MOL0     C88723   4.411   8.671  12.133 -0.7630  0.1090 -0.3643
  658MOL0     C88724   4.512   8.574  12.184 -0.1804  0.5201 -0.5340
  658MOL0     O88725   4.509   8.527  12.316 -0.6192  0.4649  0.1810
  658MOL0     C88726   4.579   8.415  12.358 -0.0319 -0.2530 -0.1137
  658MOL0     C88727   4.635   8.320  12.273 -0.0863 -0.4732  0.0829
  658MOL0     C88728   4.710   8.210  12.315  0.8350  0.5306 -0.2341
  658MOL0     C88729   4.738   8.196  12.455 -0.2253 -0.7894 -0.3155
  658MOL0     O88730   4.801   8.094  12.499  1.0357  0.3783  0.4042
  658MOL0     C88731   4.929   8.116  12.562  0.1492  0.1201 -0.0765
  658MOL0     C88732   5.038   8.165  12.465 -0.4604 -0.5425 -0.3313
  658MOL0     C88733   5.161   8.220  12.528 -0.0955  0.3394 -0.6770
  658MOL0     C88734   5.257   8.114  12.577 -0.2668  0.7554  0.6946
  658MOL0     C88735   5.393   8.181  12.621  0.0354  0.0497 -0.4963
  658MOL0     C88736   5.475   8.219  12.498 -1.1106 -0.7680  0.3461
  658MOL0     C88737   5.622   8.255  12.549  0.1386 -0.2918  0.7637
  658MOL0     C88738   5.701   8.315  12.433 -0.8284 -0.0965  0.7692
  658MOL0    Cl88739   5.886   8.298  12.450  0.0801 -0.1528  0.2566
  658MOL0     C88740   4.688   8.293  12.537 -0.4827  0.2014  0.1371
  658MOL0     C88741   4.605   8.395  12.492 -0.6133  0.4098  0.7104
  658MOL0     O88742   4.597   8.541  12.100 -0.7773 -0.1942  0.4390
  658MOL0     C88743   4.297   8.701  12.213 -0.3794  0.4784 -0.2604
  658MOL0     C88744   4.205   8.798  12.163 -0.0577 -0.0843  0.0297
  658MOL0     N88745   4.022   9.577  11.965 -0.6308 -0.9578 -0.0880
  658MOL0     N88746   4.070   9.633  11.854 -0.5291  0.1239  0.4602
  658MOL0     C88747   5.019   8.835  11.246 -0.6073 -0.0544  0.3286
  658MOL0     C88748   5.116   8.726  11.271 -0.3721 -0.4709 -0.7027
  658MOL0     C88749   5.442   8.477  11.467 -1.0231 -0.1696  0.2383
  658MOL0     C88750   5.357   8.377  11.511  0.0067  0.8420 -0.6783
  658MOL0     C88751   5.401   8.258  11.578  0.2598 -0.3995 -0.3161
  658MOL0     C88752   5.535   8.228  11.578 -0.2773 -1.0024 -1.0019
  658MOL0     O88753   5.590   8.114  11.627 -0.5687 -0.1444  0.0916
  658MOL0     C88754   5.547   8.052  11.755 -0.1383 -0.4003  0.3779
  658MOL0     C88755   5.477   7.913  11.728  0.8529 -0.2434 -0.3220
  658MOL0     C88756   5.557   7.821  11.633 -1.0447  1.2000  0.0801
  658MOL0     C88757   5.476   7.684  11.602  0.1060  0.0160 -0.1938
  658MOL0     C88758   5.509   7.579  11.691 -0.3948  0.7567  0.0681
  658MOL0     C88759   5.557   7.489  11.758  0.3789 -0.1640 -0.3082
  658MOL0     C88760   5.618   8.321  11.522  0.4488 -0.5114 -0.0097
  658MOL0     C88761   5.580   8.450  11.474 -0.2559 -0.0618  0.7023
  658MOL0     C88762   5.691   8.548  11.452  0.1940  0.0063 -0.0468
  658MOL0     H88763   5.213   8.830  11.584  0.0675 -0.1010 -0.2510
  658MOL0     H88764   5.073   9.003  11.531 -2.0026  2.3947 -2.8018
  658MOL0     H88765   4.813   9.044  11.487 -1.2069 -0.0611  0.5342
  658MOL0     H88766   4.931   9.174  11.441  0.5059 -0.1622 -2.9639
  658MOL0     H88767   4.667   9.127  11.311 -2.2535  2.0641  0.9147
  658MOL0     H88768   4.787   9.228  11.257 -2.7093  1.8556 -0.6314
  658MOL0     H88769   4.693   9.394  11.360 -0.1771 -0.7043 -0.9959
  658MOL0     H88770   4.755   9.349  11.513  0.1588 -1.2579  0.8980
  658MOL0     H88771   4.489   9.248  11.410 -1.4078  0.5042  0.3744
  658MOL0     H88772   4.570   9.205  11.555 -1.2047  1.2917  0.6349
  658MOL0     H88773   4.585   9.423  11.651  0.2539 -2.4128 -0.4741
  658MOL0     H88774   4.513   9.512  11.511  1.0603  0.9756  2.2598
  658MOL0     H88775   4.309   9.349  11.552  1.1466  0.3778 -1.9702
  658MOL0     H88776   4.357   9.381  11.723  4.5497 -0.0799  0.9218
  658MOL0     H88777   4.319   9.609  11.509 -0.5018 -2.7685 -2.4726
  658MOL0     H88778   4.321   9.626  11.682  1.2566  0.7314 -2.1904
  658MOL0     H88779   4.099   9.661  11.590 -0.8548  0.1856 -1.0369
  658MOL0     H88780   4.102   9.490  11.545  0.2959 -0.9397  1.1053
  658MOL0     H88781   4.070   9.310  11.776 -2.5628 -0.5027 -0.1248
  658MOL0     H88782   3.971   9.384  12.150 -3.3097 -3.4020  1.9267
  658MOL0     H88783   3.901   9.286  12.031 -1.9256  1.0357  0.4846
  658MOL0     H88784   4.169   9.210  11.988 -1.2223 -2.0428 -0.4911
  658MOL0     H88785   4.177   9.289  12.150 -1.1533 -0.0776  0.9141
  658MOL0     H88786   3.979   9.139  12.219  0.2935  0.8818  0.8792
  658MOL0     H88787   4.141   9.083  12.236  2.4734  0.6168 -2.4170
  658MOL0     H88788   3.962   9.081  12.003 -0.2447  1.4198  1.6394
  658MOL0     H88789   3.950   8.938  12.111  1.1534 -0.8865  0.3577
  658MOL0     H88790   4.348   8.889  11.879 -2.5007 -0.4167 -0.5675
  658MOL0     H88791   4.504   8.707  11.940 -0.1594  0.5321 -1.9032
  658MOL0     H88792   4.631   8.338  12.166  3.5326 -1.6674 -0.4232
  658MOL0     H88793   4.759   8.148  12.240 -1.9821 -0.6790 -1.1874
  658MOL0     H88794   4.924   8.194  12.638  1.3152  0.7256 -0.5978
  658MOL0     H88795   4.967   8.029  12.616  1.6712  0.4033 -0.6428
  658MOL0     H88796   5.064   8.082  12.399 -0.4459 -0.7561 -0.0570
  658MOL0     H88797   4.997   8.243  12.400  0.6844 -0.9314 -1.5863
  658MOL0     H88798   5.215   8.291  12.464  1.2096 -0.2338 -0.2496
  658MOL0     H88799   5.129   8.283  12.612 -1.5123 -1.6941  0.3785
  658MOL0     H88800   5.273   8.035  12.504  0.1834  1.2229  0.2758
  658MOL0     H88801   5.210   8.067  12.664 -0.2361  0.9791  0.8354
  658MOL0     H88802   5.443   8.116  12.693 -1.3130 -2.3692 -1.6394
  658MOL0     H88803   5.375   8.277  12.671  0.8886 -0.4462  0.8121
  658MOL0     H88804   5.480   8.143  12.419  3.7302  0.3877 -0.7529
  658MOL0     H88805   5.434   8.309  12.451  1.6405 -0.8761 -2.5867
  658MOL0     H88806   5.682   8.165  12.564 -2.5800 -2.3233  0.2755
  658MOL0     H88807   5.619   8.329  12.630 -0.1314  1.0494 -0.4344
  658MOL0     H88808   5.662   8.266  12.343 -1.5143  0.4680  0.7470
  658MOL0     H88809   5.685   8.422  12.411  0.9287 -0.3667 -2.6167
  658MOL0     H88810   4.702   8.291  12.644  2.9979 -2.2899 -0.2201
  658MOL0     H88811   4.573   8.481  12.550  2.5283  0.5905  2.3868
  658MOL0     H88812   4.280   8.649  12.306  0.8449 -2.4671 -1.5680
  658MOL0     H88813   4.119   8.827  12.222 -0.2131 -1.1879  0.3611
  658MOL0     H88814   4.953   8.837  11.160 -1.4586  2.3922  0.9477
  658MOL0     H88815   5.134   8.647  11.199 -2.3800 -0.3854 -1.3427
  658MOL0     H88816   5.256   8.416  11.502  0.3349  1.4213 -2.0231
  658MOL0     H88817   5.338   8.188  11.633  0.3483  0.1141  0.4596
  658MOL0     H88818   5.480   8.120  11.807  1.7724  2.1592 -0.2808
  658MOL0     H88819   5.636   8.044  11.819  0.4974  0.5206 -0.3643
  658MOL0     H88820   5.385   7.948  11.680  1.6796  2.2268 -0.2545
  658MOL0     H88821   5.459   7.869  11.827  0.3579  1.1764  0.2404
  658MOL0     H88822   5.656   7.808  11.676 -1.7222 -0.6932  1.1963
  658MOL0     H88823   5.564   7.875  11.538 -1.1339  2.6217  0.8520
  658MOL0     H88824   5.368   7.703  11.609  0.0942 -0.0512 -0.2012
  658MOL0     H88825   5.503   7.647  11.503 -1.4988 -3.4123  0.5202
  658MOL0     H88826   5.600   7.407  11.812 -1.3662 -0.8116  0.1465
  658MOL0     H88827   5.724   8.298  11.530  0.0522 -3.1449 -1.2681
  658MOL0     H88828   5.640   8.641  11.477 -0.6156 -0.7740  1.3710
  658MOL0     H88829   5.763   8.539  11.534 -1.2452 -1.4735  1.1386
  658MOL0     H88830   5.746   8.547  11.358 -0.4461  1.9956 -0.4773
  659MOL0     O88831   1.928   7.696   8.927  0.2630  0.4152 -0.7831
  659MOL0     C88832   2.027   7.626   8.903 -1.3392 -0.7370  0.1096
  659MOL0     O88833   2.153   7.632   8.962  0.1368  0.7551 -0.3540
  659MOL0     C88834   2.168   7.722   9.067  0.6708  0.1201 -0.0671
  659MOL0     C88835   2.198   7.847   9.028  1.0934 -0.9179  0.7571
  659MOL0     C88836   2.233   7.941   9.127 -0.6922 -0.4893 -0.1450
  659MOL0     C88837   2.225   7.921   9.259 -0.5487 -0.1751 -0.2218
  659MOL0     O88838   2.269   8.016   9.354  0.0850 -0.2990  0.7032
  659MOL0     C88839   2.247   8.156   9.320  0.1822  0.0733  1.2411
  659MOL0     C88840   2.218   8.252   9.439  0.2794  0.6354 -0.4961
  659MOL0     C88841   2.330   8.247   9.551 -0.1917 -0.1996 -0.5889
  659MOL0     C88842   2.261   8.286   9.682 -0.0007  0.3836 -0.1171
  659MOL0     C88843   2.349   8.302   9.804  0.4779  0.3119 -0.1211
  659MOL0     C88844   2.271   8.352   9.929 -0.2336 -0.0107 -0.1814
  659MOL0     C88845   2.367   8.361  10.044 -0.0860  0.3630 -0.0292
  659MOL0     C88846   2.462   8.478  10.032  0.3364 -0.1962 -0.1389
  659MOL0     N88847   2.534   8.522  10.155  0.1348  0.1381  0.7139
  659MOL0     C88848   2.476   8.575  10.267 -0.1700  1.1885  0.1095
  659MOL0     C88849   2.584   8.600  10.353 -0.1811  0.3473  1.2383
  659MOL0     C88850   2.568   8.649  10.493  0.5748  0.1142 -0.6654
  659MOL0     C88851   2.700   8.606  10.561 -0.5165  0.4510 -0.6293
  659MOL0     C88852   2.707   8.457  10.601  0.5445  0.6705 -0.7510
  659MOL0     C88853   2.839   8.422  10.675  0.1898 -0.4731  0.1970
  659MOL0     O88854   2.822   8.441  10.820  0.2518 -0.8531 -0.0885
  659MOL0     C88855   2.927   8.404  10.903  0.3449  0.0421  0.3612
  659MOL0     C88856   3.048   8.340  10.861 -0.8283 -0.0939 -0.0552
  659MOL0     C88857   3.151   8.311  10.963 -0.4183  0.0512  0.4406
  659MOL0     C88858   3.123   8.325  11.097 -0.2842 -0.1166  0.1674
  659MOL0     C88859   3.224   8.277  11.193 -0.6777 -0.4282  0.0192
  659MOL0     O88860   3.175   8.297  11.320  0.6802 -0.6510 -0.0675
  659MOL0     C88861   3.233   8.243  11.429 -0.1167 -0.3197  0.0058
  659MOL0     C88862   3.224   8.312  11.552  0.4858  0.3988  0.9883
  659MOL0     C88863   3.275   8.262  11.668  0.4405  0.1308  0.0864
  659MOL0     C88864   3.331   8.132  11.667  0.9407  0.2498 -0.5278
  659MOL0     O88865   3.376   8.068  11.780  0.0063 -0.1654  0.0723
  659MOL0     C88866   3.459   8.146  11.868  0.1086 -0.4206  0.0872
  659MOL0     C88867   3.554   8.048  11.921  0.1648  0.2911 -0.0052
  659MOL0     C88868   3.670   8.108  11.999 -0.1639 -0.7082 -0.2313
  659MOL0     C88869   3.741   8.228  11.927  0.6140  0.2152  0.2067
  659MOL0     C88870   3.869   8.268  11.998  0.1340 -0.0458 -0.1162
  659MOL0     C88871   3.849   8.323  12.140  0.2003 -0.2937  0.5271
  659MOL0     C88872   3.983   8.391  12.205  0.5110 -0.5688 -0.4644
  659MOL0     C88873   4.087   8.283  12.233  0.5366 -0.6271  0.2576
  659MOL0    Cl88874   4.239   8.339  12.294 -0.0696 -0.3550 -0.1401
  659MOL0     C88875   3.339   8.058  11.555  0.0889  0.7888  0.3863
  659MOL0     C88876   3.288   8.111  11.437 -1.0893 -0.1963  0.8320
  659MOL0     O88877   3.334   8.223  11.167  0.9032 -0.0026  0.4316
  659MOL0     C88878   3.000   8.386  11.136 -0.1436  0.5793  0.2471
  659MOL0     C88879   2.914   8.431  11.041  0.2726  0.8573  0.9207
  659MOL0     N88880   2.695   8.546  10.288  0.1235  0.4723 -0.2399
  659MOL0     N88881   2.662   8.509  10.166 -0.4518 -0.3060  0.2653
  659MOL0     C88882   2.184   7.790   9.302  0.5560  0.0481  0.8595
  659MOL0     C88883   2.151   7.688   9.203 -0.0115 -0.2824 -0.3581
  659MOL0     C88884   2.017   7.525   8.794  0.2850 -0.7481  0.2030
  659MOL0     C88885   2.134   7.489   8.721 -0.6197 -0.0355 -0.0800
  659MOL0     C88886   2.131   7.412   8.605  0.6288 -0.2372 -0.0009
  659MOL0     C88887   2.013   7.340   8.569 -0.2278 -1.3113  0.1291
  659MOL0     O88888   1.990   7.247   8.472  0.0415  0.7072  0.4826
  659MOL0     C88889   2.068   7.276   8.350  0.8083 -0.7656 -0.9740
  659MOL0     C88890   2.063   7.164   8.245  0.0019 -0.4196  0.1421
  659MOL0     C88891   1.931   7.158   8.176  0.1518  0.3420  1.3538
  659MOL0     C88892   1.845   7.045   8.241 -0.2477 -0.0261  0.5087
  659MOL0     C88893   1.901   6.928   8.179  0.0598  0.2505  0.3456
  659MOL0     C88894   1.942   6.823   8.139 -0.9857  0.2851 -0.4301
  659MOL0     C88895   1.902   7.359   8.655 -0.1832 -0.4399  0.0119
  659MOL0     C88896   1.904   7.447   8.761  0.4707  0.4749 -0.3528
  659MOL0     C88897   1.780   7.457   8.844  0.8228  0.0173  0.4549
  659MOL0     H88898   2.200   7.867   8.921  1.4463  1.0390  1.0984
  659MOL0     H88899   2.273   8.035   9.091  0.2025 -1.2529 -1.2147
  659MOL0     H88900   2.333   8.206   9.273 -1.8397  3.2162  0.5736
  659MOL0     H88901   2.159   8.170   9.256 -0.1501 -1.9416  1.2026
  659MOL0     H88902   2.129   8.201   9.479 -0.1130  0.8467 -1.0958
  659MOL0     H88903   2.204   8.357   9.414  1.9422  0.3142 -3.1937
  659MOL0     H88904   2.417   8.312   9.541  1.2378 -1.6454  1.4509
  659MOL0     H88905   2.373   8.147   9.556 -2.9656 -1.4035  1.9507
  659MOL0     H88906   2.221   8.386   9.666  0.1905  0.2301 -1.7217
  659MOL0     H88907   2.180   8.217   9.707 -0.0490  0.7590  0.8285
  659MOL0     H88908   2.401   8.208   9.826  2.8573  1.6304  0.2928
  659MOL0     H88909   2.429   8.373   9.780  2.0711 -1.5163 -0.4383
  659MOL0     H88910   2.206   8.437   9.909 -4.2139 -2.8681 -0.4135
  659MOL0     H88911   2.198   8.272   9.941 -0.8262  0.7220  1.3079
  659MOL0     H88912   2.425   8.268  10.049  0.1407  0.4442 -0.9908
  659MOL0     H88913   2.303   8.376  10.132 -0.3263  0.9349 -0.3006
  659MOL0     H88914   2.534   8.447   9.955  1.7901 -3.1934  2.2053
  659MOL0     H88915   2.404   8.563   9.995 -0.9211 -1.3799 -0.9994
  659MOL0     H88916   2.369   8.589  10.279 -0.2306  3.3749 -2.3077
  659MOL0     H88917   2.550   8.757  10.490  1.6529  0.4560  2.2912
  659MOL0     H88918   2.478   8.614  10.544  1.5585 -2.8343 -0.8008
  659MOL0     H88919   2.790   8.627  10.503  1.0643 -3.5440  0.0512
  659MOL0     H88920   2.712   8.671  10.648 -1.2578 -0.3971  0.1275
  659MOL0     H88921   2.726   8.391  10.516  2.4042  1.9779 -1.4379
  659MOL0     H88922   2.615   8.434  10.654 -1.6676  1.6566 -3.9022
  659MOL0     H88923   2.912   8.487  10.626 -0.5390 -0.1015 -0.4168
  659MOL0     H88924   2.879   8.322  10.655 -0.2718 -1.4276  3.4814
  659MOL0     H88925   3.062   8.305  10.759  0.1348 -0.2350  0.1148
  659MOL0     H88926   3.243   8.261  10.934  0.3587  0.9187  1.3512
  659MOL0     H88927   3.171   8.407  11.558 -3.7595 -1.6493  0.0025
  659MOL0     H88928   3.270   8.307  11.767 -1.9557 -0.8594  0.4793
  659MOL0     H88929   3.507   8.224  11.808  0.0797 -0.6272 -0.2042
  659MOL0     H88930   3.406   8.199  11.948 -0.4080  2.2531 -1.8758
  659MOL0     H88931   3.508   7.978  11.991  2.8856  0.0034  1.6503
  659MOL0     H88932   3.595   7.998  11.832  1.6350  1.6671 -0.1599
  659MOL0     H88933   3.628   8.145  12.092 -1.0894 -1.3229 -0.3914
  659MOL0     H88934   3.745   8.029  12.015 -1.6152 -2.3279 -1.1131
  659MOL0     H88935   3.672   8.313  11.923 -1.1335 -1.1698 -1.0343
  659MOL0     H88936   3.764   8.208  11.822 -0.5801 -0.4576  0.0546
  659MOL0     H88937   3.905   8.355  11.943 -2.7914 -0.2606 -2.6793
  659MOL0     H88938   3.942   8.186  11.995  0.3259  0.0035  1.9773
  659MOL0     H88939   3.794   8.414  12.118 -0.4919 -0.8707 -0.1696
  659MOL0     H88940   3.791   8.264  12.212 -1.2824  1.8876  1.2319
  659MOL0     H88941   3.950   8.428  12.302 -1.5521 -0.0871 -1.3078
  659MOL0     H88942   4.007   8.475  12.139  0.8031 -0.4537 -0.2146
  659MOL0     H88943   4.042   8.214  12.306  1.7774  0.8763  2.5872
  659MOL0     H88944   4.115   8.221  12.148  0.3265 -1.5883  0.8692
  659MOL0     H88945   3.380   7.958  11.562 -0.1805  0.5338 -1.1649
  659MOL0     H88946   3.290   8.045  11.351  2.5374  1.7470 -0.8136
  659MOL0     H88947   2.968   8.380  11.239  0.5990 -1.6147  0.4028
  659MOL0     H88948   2.819   8.479  11.061 -0.6191 -0.2223 -0.5300
  659MOL0     H88949   2.187   7.762   9.407 -1.4945 -0.4063  0.8487
  659MOL0     H88950   2.114   7.593   9.238  2.6978 -0.8482  1.2837
  659MOL0     H88951   2.227   7.541   8.738 -1.9733  2.0064  1.5484
  659MOL0     H88952   2.223   7.380   8.557 -0.3143 -2.6960 -0.2915
  659MOL0     H88953   2.173   7.297   8.371  0.9701 -1.6016 -0.9139
  659MOL0     H88954   2.012   7.366   8.321  2.1261  1.0037  1.5462
  659MOL0     H88955   2.100   7.073   8.292  2.5113  1.7098  2.6127
  659MOL0     H88956   2.140   7.192   8.172  1.9823 -2.1601  1.4533
  659MOL0     H88957   1.948   7.138   8.070  2.3724  0.7161  1.6024
  659MOL0     H88958   1.882   7.256   8.186  3.0764  2.0127  0.6190
  659MOL0     H88959   1.856   7.037   8.349 -0.8103  0.9641  0.6436
  659MOL0     H88960   1.740   7.059   8.213  0.2939  1.9551 -0.7063
  659MOL0     H88961   1.982   6.727   8.115 -1.1171  0.3317 -0.8331
  659MOL0     H88962   1.820   7.290   8.638  1.9462 -2.5457 -2.6501
  659MOL0     H88963   1.712   7.371   8.835 -2.0380  2.1118  0.5351
  659MOL0     H88964   1.813   7.466   8.948  0.5655 -1.4160  0.6900
  659MOL0     H88965   1.714   7.541   8.825 -1.3734 -2.1639 -2.4356
  660MOL0     O88966   4.483  11.181   1.269  0.5618 -0.1618 -0.0382
  660MOL0     C88967   4.494  11.188   1.147  0.1712 -1.2956  0.4063
  660MOL0     O88968   4.402  11.208   1.058 -0.7144  0.3038  0.1942
  660MOL0     C88969   4.278  11.243   1.099  0.4320 -0.2875 -0.2755
  660MOL0     C88970   4.236  11.378   1.106  0.0995  0.1378  0.2358
  660MOL0     C88971   4.103  11.407   1.139 -0.2974  0.2033 -0.1105
  660MOL0     C88972   4.009  11.299   1.158 -0.2530 -0.5663  0.1952
  660MOL0     O88973   3.875  11.330   1.171 -0.1123 -0.1543  0.2279
  660MOL0     C88974   3.839  11.458   1.209  0.8370 -1.3194  0.0975
  660MOL0     C88975   3.808  11.557   1.086 -0.8186  0.5336 -0.4876
  660MOL0     C88976   3.684  11.510   1.009 -0.0047 -0.0554 -0.4959
  660MOL0     C88977   3.548  11.527   1.080  0.0155  0.2942 -0.7417
  660MOL0     C88978   3.439  11.495   0.981 -0.8790  0.2986 -0.1350
  660MOL0     C88979   3.306  11.502   1.054 -0.0916 -0.4150 -0.2166
  660MOL0     C88980   3.179  11.460   0.977 -0.1045 -0.3028  0.1267
  660MOL0     C88981   3.058  11.465   1.069 -0.5360 -0.1087  0.4905
  660MOL0     N88982   2.948  11.398   1.005 -0.0572 -0.1404 -0.2126
  660MOL0     C88983   2.935  11.260   0.994  0.0228  0.5820 -0.0932
  660MOL0     C88984   2.818  11.246   0.933  0.6166 -0.0735  0.1588
  660MOL0     C88985   2.745  11.116   0.885  0.3777  0.1592 -0.4037
  660MOL0     C88986   2.820  11.027   0.786  0.7358 -0.2395  1.1032
  660MOL0     C88987   2.754  10.892   0.786 -0.9292  1.0567  0.5241
  660MOL0     C88988   2.603  10.898   0.760 -1.0937  0.1781  0.3829
  660MOL0     O88989   2.554  10.972   0.642 -0.0353  0.8416 -0.3703
  660MOL0     C88990   2.423  10.957   0.605  0.5632 -0.6715 -0.3832
  660MOL0     C88991   2.377  11.037   0.497 -0.0826  0.2784 -1.1761
  660MOL0     C88992   2.247  11.016   0.450 -0.8440 -0.9778 -0.5847
  660MOL0     C88993   2.156  10.937   0.511  0.5167 -0.8249  0.5625
  660MOL0     C88994   2.013  10.935   0.471  0.7642  0.7975 -0.0848
  660MOL0     O88995   1.952  11.043   0.419  0.6108 -0.1001  0.2521
  660MOL0     C88996   1.811  11.048   0.398 -1.4621 -0.1187 -1.5782
  660MOL0     C88997   1.746  11.150   0.467  0.1524  0.7641  0.1618
  660MOL0     C88998   1.605  11.169   0.451 -0.3369  0.9108 -0.4781
  660MOL0     C88999   1.532  11.083   0.375  0.1503 -0.3621  0.1328
  660MOL0     O89000   1.401  11.106   0.370 -0.0195  0.0817 -0.1726
  660MOL0     C89001   1.327  11.070   0.255  0.1266  0.0810  1.3210
  660MOL0     C89002   1.210  11.165   0.253  0.7793  0.7786  0.4248
  660MOL0     C89003   1.125  11.146   0.122 -1.0380 -0.1119  0.6581
  660MOL0     C89004   0.991  11.219   0.145  0.0263 -0.0305  0.1526
  660MOL0     C89005   0.900  11.207   0.018  0.2998 -0.4869 -0.3769
  660MOL0     C89006   0.866  11.337  -0.058 -0.3114 -0.1060  0.4014
  660MOL0     C89007   0.999  11.405  -0.111  0.2200 -0.0245  0.2291
  660MOL0     C89008   1.073  11.317  -0.217 -0.3610  0.0806 -0.3204
  660MOL0    Cl89009   1.177  11.425  -0.318  0.1029 -0.1498  0.1554
  660MOL0     C89010   1.597  10.979   0.305 -0.5899 -1.1422  0.6780
  660MOL0     C89011   1.736  10.958   0.324  0.4684  0.5543 -0.3007
  660MOL0     O89012   1.966  10.818   0.483  0.3720 -0.0070 -0.0217
  660MOL0     C89013   2.199  10.858   0.621  0.4970 -0.6964 -0.0931
  660MOL0     C89014   2.327  10.868   0.662  0.0408 -0.3442 -0.3947
  660MOL0     N89015   2.768  11.369   0.903 -0.4538  0.4804 -0.2654
  660MOL0     N89016   2.849  11.459   0.930  0.1677  0.7478  0.0545
  660MOL0     C89017   4.056  11.166   1.145 -0.5713  1.0263 -0.4062
  660MOL0     C89018   4.198  11.138   1.127  0.0090 -1.2147 -0.8246
  660MOL0     C89019   4.634  11.203   1.094 -0.5108 -0.6505  0.3694
  660MOL0     C89020   4.652  11.251   0.960  0.0708 -0.0082 -0.2858
  660MOL0     C89021   4.777  11.298   0.910 -0.2856  0.3882  0.5136
  660MOL0     C89022   4.889  11.297   0.989 -0.4570 -0.7105  0.3810
  660MOL0     O89023   5.011  11.353   0.954 -0.2886 -0.0569  0.6660
  660MOL0     C89024   5.041  11.404   0.827  0.1797  0.0057  0.2356
  660MOL0     C89025   5.065  11.292   0.721 -0.6679 -0.0857  0.7836
  660MOL0     C89026   4.993  11.312   0.590  0.4592  0.8127  1.2359
  660MOL0     C89027   5.076  11.249   0.481  0.1506 -1.0530  0.6072
  660MOL0     C89028   5.036  11.310   0.352 -0.3111  0.3627  0.0164
  660MOL0     C89029   5.009  11.340   0.242 -0.7774 -0.2511  1.0024
  660MOL0     C89030   4.875  11.254   1.124  0.5177 -0.5456 -0.0521
  660MOL0     C89031   4.752  11.200   1.172  0.7223  0.1191  0.5718
  660MOL0     C89032   4.766  11.159   1.315 -0.4950 -0.3726 -0.4233
  660MOL0     H89033   4.311  11.453   1.085  1.6813 -1.4276  0.0034
  660MOL0     H89034   4.066  11.508   1.128 -1.0898  0.0548  0.9926
  660MOL0     H89035   3.740  11.444   1.254  1.3711  1.1944  2.3055
  660MOL0     H89036   3.903  11.504   1.285 -0.6269 -0.2556  0.7456
  660MOL0     H89037   3.895  11.555   1.020 -0.5238  3.8179 -0.3898
  660MOL0     H89038   3.797  11.657   1.130 -2.0598  0.4296 -0.5316
  660MOL0     H89039   3.695  11.402   0.992  1.7426 -0.2560  1.4973
  660MOL0     H89040   3.696  11.553   0.909  0.0953 -1.0788 -0.9446
  660MOL0     H89041   3.539  11.459   1.165  1.3337  1.5952  0.4906
  660MOL0     H89042   3.545  11.629   1.121 -1.2687  0.7787 -1.9404
  660MOL0     H89043   3.455  11.563   0.896 -1.0970  1.0002  0.3710
  660MOL0     H89044   3.456  11.393   0.945 -1.9807 -0.3782  1.1862
  660MOL0     H89045   3.307  11.435   1.141 -1.8447 -0.2316 -0.0051
  660MOL0     H89046   3.297  11.606   1.090 -0.3232  0.4304 -2.5465
  660MOL0     H89047   3.187  11.362   0.930  1.3904 -1.0864  1.9096
  660MOL0     H89048   3.169  11.532   0.895  0.7955  0.5263  0.7270
  660MOL0     H89049   3.077  11.409   1.161 -0.0215  1.1965  1.2028
  660MOL0     H89050   3.028  11.566   1.099 -1.7384 -0.6742  1.2698
  660MOL0     H89051   3.008  11.187   1.029  1.3830  1.9543  0.0478
  660MOL0     H89052   2.727  11.068   0.981  5.3921  1.3838  1.4679
  660MOL0     H89053   2.651  11.153   0.842  1.0337  2.7880  0.2621
  660MOL0     H89054   2.831  11.067   0.684 -0.5314 -1.7389  0.3378
  660MOL0     H89055   2.924  11.021   0.819  2.1030  2.4866 -2.0689
  660MOL0     H89056   2.766  10.833   0.877 -1.3187  3.3786  2.1844
  660MOL0     H89057   2.793  10.828   0.706 -2.4167  2.6942 -1.6412
  660MOL0     H89058   2.562  10.940   0.853 -2.0365  0.1547 -0.0094
  660MOL0     H89059   2.567  10.795   0.750  1.8133 -0.9464  0.7000
  660MOL0     H89060   2.450  11.095   0.439  1.0040  1.5594  1.3056
  660MOL0     H89061   2.220  11.068   0.359 -0.3824 -0.5542 -0.4860
  660MOL0     H89062   1.808  11.213   0.530 -0.0651  0.0654  1.0905
  660MOL0     H89063   1.556  11.256   0.493  0.7808  1.3109  0.0474
  660MOL0     H89064   1.391  11.070   0.166 -0.9733  1.2996  0.4773
  660MOL0     H89065   1.276  10.974   0.261  1.3026 -1.1346 -3.5681
  660MOL0     H89066   1.147  11.134   0.337 -1.9055  1.6250 -1.1570
  660MOL0     H89067   1.225  11.273   0.261 -1.0686  1.0193  1.2453
  660MOL0     H89068   1.178  11.191   0.037  1.4348 -2.1563  1.0130
  660MOL0     H89069   1.100  11.047   0.083 -0.0640  0.1522 -0.7217
  660MOL0     H89070   1.008  11.326   0.164 -0.1507 -0.4381  3.1039
  660MOL0     H89071   0.944  11.177   0.234 -0.1294 -1.2098 -0.4775
  660MOL0     H89072   0.809  11.153   0.046  1.6258 -1.8190  1.6043
  660MOL0     H89073   0.944  11.142  -0.058 -0.7560 -1.2096 -0.3909
  660MOL0     H89074   0.820  11.304  -0.151  4.0539 -0.4541 -1.8747
  660MOL0     H89075   0.806  11.408  -0.000 -0.9392 -0.9018  0.7603
  660MOL0     H89076   1.066  11.419  -0.025 -0.7032  0.3719  0.8983
  660MOL0     H89077   0.985  11.509  -0.144  1.9461 -0.1764 -1.1070
  660MOL0     H89078   1.147  11.251  -0.169 -1.6016 -0.0806  1.4907
  660MOL0     H89079   1.004  11.268  -0.286 -1.4549  0.4293  0.4926
  660MOL0     H89080   1.536  10.922   0.235 -0.3977  1.2527 -1.6003
  660MOL0     H89081   1.791  10.880   0.271 -0.7498 -0.6972  0.2108
  660MOL0     H89082   2.132  10.781   0.658  1.5011 -1.4834  0.1623
  660MOL0     H89083   2.363  10.804   0.742 -0.8634 -1.1449 -0.5925
  660MOL0     H89084   3.992  11.080   1.164  0.4629 -0.2697 -2.4032
  660MOL0     H89085   4.225  11.034   1.117  0.4657 -1.1719 -0.1562
  660MOL0     H89086   4.567  11.261   0.893 -0.7513 -0.2832  0.6769
  660MOL0     H89087   4.772  11.327   0.806  1.1203 -2.4772 -0.4400
  660MOL0     H89088   5.128  11.470   0.831 -1.2881  2.0922 -0.3894
  660MOL0     H89089   4.959  11.468   0.792 -0.2701 -0.4665  0.4213
  660MOL0     H89090   5.032  11.196   0.761 -3.3597 -0.2962 -1.5978
  660MOL0     H89091   5.174  11.291   0.711 -0.6529  2.6341 -0.3579
  660MOL0     H89092   4.980  11.420   0.576 -1.0232  0.8089  2.3226
  660MOL0     H89093   4.890  11.274   0.595  0.0272  1.6390 -0.4814
  660MOL0     H89094   5.181  11.278   0.492 -0.2535  0.8325 -0.1073
  660MOL0     H89095   5.061  11.141   0.476 -3.3232 -0.6616 -0.8606
  660MOL0     H89096   4.990  11.375   0.142 -0.4226 -2.4913  0.0793
  660MOL0     H89097   4.961  11.262   1.189  0.4094 -1.7327  0.2517
  660MOL0     H89098   4.742  11.239   1.385  1.2362 -0.5440  0.4203
  660MOL0     H89099   4.710  11.066   1.326  0.7692 -1.2193 -0.8937
  660MOL0     H89100   4.867  11.129   1.346 -0.5866 -1.4710 -1.1184
  661MOL0     O89101   9.927   8.354   6.570 -0.3347  0.1405 -0.6345
  661MOL0     C89102   9.939   8.286   6.467  0.1010 -0.1003 -0.5314
  661MOL0     O89103   9.941   8.149   6.466  0.3685 -0.7333  0.5727
  661MOL0     C89104   9.963   8.081   6.572  0.0801 -0.5883 -0.3361
  661MOL0     C89105  10.089   8.036   6.601 -0.8241 -0.2687 -0.0705
  661MOL0     C89106  10.126   8.003   6.727  0.1240  0.5088 -0.6131
  661MOL0     C89107  10.032   7.993   6.830 -0.9617 -0.7775  0.6391
  661MOL0     O89108  10.064   7.940   6.956  0.3332  0.7322  0.3343
  661MOL0     C89109  10.175   7.985   7.030 -1.3650 -0.3705 -0.1581
  661MOL0     C89110  10.173   7.950   7.179  0.4510  0.2005 -0.6208
  661MOL0     C89111  10.056   8.007   7.247  0.3583 -0.8456 -0.3001
  661MOL0     C89112  10.079   8.163   7.260  0.6256  0.3890 -0.5580
  661MOL0     C89113   9.946   8.215   7.314 -0.1527  0.5871 -0.3290
  661MOL0     C89114   9.907   8.185   7.462 -0.3599  0.6358  0.3433
  661MOL0     C89115   9.872   8.050   7.514  0.0768  1.2611 -0.3589
  661MOL0     C89116   9.747   7.991   7.432  0.1134 -0.7963  0.4837
  661MOL0     N89117   9.743   7.848   7.431 -0.4092  0.0410  0.2733
  661MOL0     C89118   9.833   7.775   7.372  1.0138  0.0118 -0.2284
  661MOL0     C89119   9.759   7.659   7.333 -0.2274 -0.1083  0.1842
  661MOL0     C89120   9.813   7.554   7.232  1.1517 -0.1434  1.6054
  661MOL0     C89121   9.876   7.602   7.099 -0.0260  0.2678  0.3070
  661MOL0     C89122   9.980   7.490   7.049 -0.2702 -0.6969 -0.2517
  661MOL0     C89123  10.034   7.521   6.904 -0.1017  0.5344  0.6583
  661MOL0     O89124   9.920   7.539   6.819 -0.1447 -0.3994 -0.9251
  661MOL0     C89125   9.960   7.572   6.695 -0.2618 -0.5819  0.2591
  661MOL0     C89126  10.025   7.474   6.620 -0.0109 -0.5695  0.3199
  661MOL0     C89127  10.095   7.497   6.497  1.7737 -0.1342  0.8735
  661MOL0     C89128  10.082   7.621   6.438 -0.8345 -0.0751  0.1385
  661MOL0     C89129  10.150   7.649   6.309 -0.3579  0.3095 -0.2710
  661MOL0     O89130  10.237   7.547   6.260  0.5901 -0.1823 -0.0094
  661MOL0     C89131  10.341   7.585   6.178  0.0717 -0.6770 -0.4980
  661MOL0     C89132  10.320   7.648   6.056 -0.4842  0.6827 -0.1894
  661MOL0     C89133  10.430   7.660   5.972  0.4482  0.6565  0.1813
  661MOL0     C89134  10.554   7.603   5.996  0.1817 -0.0626 -0.9270
  661MOL0     O89135  10.641   7.616   5.896  1.0107 -0.5715  0.5433
  661MOL0     C89136  10.755   7.534   5.893 -0.4661 -0.1588 -0.3704
  661MOL0     C89137  10.834   7.553   5.759  0.0623 -1.2621 -0.3657
  661MOL0     C89138  10.955   7.466   5.767  0.4237 -0.1699 -0.2345
  661MOL0     C89139  10.987   7.431   5.618  0.1016 -0.0019 -0.4164
  661MOL0     C89140  10.986   7.559   5.512 -0.1239 -0.2561  0.3606
  661MOL0     C89141  11.072   7.668   5.537 -0.7704 -0.8922  0.4588
  661MOL0     C89142  11.054   7.771   5.420 -0.8659  0.0264 -0.4630
  661MOL0     C89143  11.147   7.890   5.435  1.2110  0.3267 -0.5624
  661MOL0    Cl89144  11.066   7.997   5.553  0.4261  0.4584 -0.2186
  661MOL0     C89145  10.571   7.528   6.112  0.6322  0.1562 -0.0200
  661MOL0     C89146  10.462   7.517   6.207  0.4464 -0.8735 -1.1547
  661MOL0     O89147  10.145   7.763   6.264  0.0383 -0.6706  0.3487
  661MOL0     C89148   9.998   7.720   6.506 -0.9299  0.5527  0.2279
  661MOL0     C89149   9.950   7.695   6.638 -0.2134 -0.4731  0.6209
  661MOL0     N89150   9.638   7.664   7.393  0.1502 -0.2348  0.8316
  661MOL0     N89151   9.626   7.779   7.444  0.2610 -0.1189  0.0185
  661MOL0     C89152   9.893   8.006   6.784  0.4732  0.1945  0.7261
  661MOL0     C89153   9.859   8.060   6.658 -0.7869  0.5839 -0.7239
  661MOL0     C89154   9.936   8.366   6.339  0.3055  0.1074 -0.0139
  661MOL0     C89155   9.843   8.316   6.236 -0.7246 -0.6609  0.3684
  661MOL0     C89156   9.829   8.386   6.118  0.0793  0.4009 -0.7709
  661MOL0     C89157   9.895   8.506   6.107 -0.1597 -0.7397  0.9942
  661MOL0     O89158   9.879   8.587   5.991  0.3275  0.2737 -0.1439
  661MOL0     C89159   9.869   8.516   5.861  0.2524 -0.4405  0.7373
  661MOL0     C89160   9.945   8.606   5.760  0.4212 -0.0611  0.1261
  661MOL0     C89161   9.947   8.547   5.617  0.6616  0.3359 -0.8180
  661MOL0     C89162   9.979   8.399   5.621 -0.6907  0.3115 -0.3943
  661MOL0     C89163  10.021   8.345   5.490  0.8460 -0.0755 -0.2187
  661MOL0     C89164  10.046   8.299   5.379 -0.4530  0.0897  0.1013
  661MOL0     C89165   9.990   8.552   6.202  0.2948 -0.4509  0.2341
  661MOL0     C89166  10.016   8.474   6.318 -1.0124 -0.0479  0.1189
  661MOL0     C89167  10.109   8.524   6.427 -0.6804 -0.7341 -0.4448
  661MOL0     H89168  10.171   8.038   6.530  0.7823 -0.0796  1.7171
  661MOL0     H89169  10.229   7.996   6.760  0.7557  2.9011 -1.8580
  661MOL0     H89170  10.262   7.935   6.987 -3.1497 -1.8011 -2.3301
  661MOL0     H89171  10.183   8.093   7.012 -0.9901 -0.9351 -4.2943
  661MOL0     H89172  10.267   7.973   7.230  0.7880 -1.0724 -0.6469
  661MOL0     H89173  10.162   7.842   7.184 -0.4389  0.3460  1.2037
  661MOL0     H89174  10.055   7.949   7.339  1.3695 -1.9481 -0.9523
  661MOL0     H89175   9.965   7.988   7.189 -0.0511 -0.4711  0.2138
  661MOL0     H89176  10.166   8.180   7.324  0.7105  0.6402 -0.7397
  661MOL0     H89177  10.098   8.206   7.162  0.1682  1.3929 -0.2201
  661MOL0     H89178   9.957   8.323   7.305  0.8951  0.7582  2.2875
  661MOL0     H89179   9.862   8.185   7.250  0.0022  0.0503 -0.2852
  661MOL0     H89180   9.996   8.208   7.521  0.3656  0.8012 -0.7885
  661MOL0     H89181   9.828   8.253   7.494 -1.6436 -0.6037 -0.1105
  661MOL0     H89182   9.859   8.058   7.622  1.6424  2.0190 -0.2071
  661MOL0     H89183   9.956   7.981   7.514 -2.4736 -2.1986  1.7737
  661MOL0     H89184   9.657   8.033   7.477  0.3746  0.8027 -0.4023
  661MOL0     H89185   9.752   8.013   7.325 -0.5117  3.5440  1.1647
  661MOL0     H89186   9.935   7.807   7.354  0.3494  1.4768 -1.6574
  661MOL0     H89187   9.880   7.494   7.294 -2.0999 -1.9561  3.7115
  661MOL0     H89188   9.734   7.485   7.201  1.1520  0.6194 -0.1801
  661MOL0     H89189   9.801   7.630   7.025  1.2801 -0.1088 -1.2104
  661MOL0     H89190   9.935   7.692   7.118 -0.6084  0.5111  1.0357
  661MOL0     H89191   9.951   7.389   7.077 -0.5181  0.0945  2.7202
  661MOL0     H89192  10.072   7.508   7.106 -0.9251  1.3491  0.2664
  661MOL0     H89193  10.087   7.436   6.859  0.1451  0.1388  1.6692
  661MOL0     H89194  10.094   7.611   6.917  1.9553  0.0564 -3.6344
  661MOL0     H89195  10.016   7.369   6.646 -1.7996 -1.5387 -3.4617
  661MOL0     H89196  10.145   7.418   6.443  1.0117 -0.4826  0.6653
  661MOL0     H89197  10.221   7.688   6.038  0.1369  3.1190  1.4150
  661MOL0     H89198  10.422   7.720   5.882  1.3530 -0.8914 -0.9892
  661MOL0     H89199  10.814   7.565   5.980 -2.3824 -0.7173  1.1932
  661MOL0     H89200  10.727   7.429   5.903 -1.3590  0.1003 -0.0528
  661MOL0     H89201  10.766   7.509   5.685 -0.7514 -1.7812  0.6612
  661MOL0     H89202  10.872   7.652   5.733 -0.2543 -0.7273  1.0924
  661MOL0     H89203  11.046   7.516   5.802  0.0242 -1.4388  2.8628
  661MOL0     H89204  10.938   7.382   5.835  0.5254  1.8075  2.3983
  661MOL0     H89205  10.911   7.358   5.589  0.0099 -0.8195  1.6763
  661MOL0     H89206  11.086   7.386   5.604 -0.0848  0.0387 -2.0516
  661MOL0     H89207  10.885   7.600   5.498  1.1376  3.1695  0.4769
  661MOL0     H89208  11.009   7.517   5.413 -0.9503 -2.2140  0.9344
  661MOL0     H89209  11.062   7.718   5.634 -0.4303  2.4631 -1.0900
  661MOL0     H89210  11.174   7.633   5.523 -0.9224 -0.6339 -1.4540
  661MOL0     H89211  10.950   7.805   5.413 -1.4902 -1.9970 -2.0665
  661MOL0     H89212  11.077   7.722   5.325 -0.9927 -0.4574 -0.2453
  661MOL0     H89213  11.248   7.864   5.467  0.5333  1.1612  2.6180
  661MOL0     H89214  11.143   7.921   5.330  0.1963  1.9223 -0.0727
  661MOL0     H89215  10.659   7.465   6.123  2.2667  2.2880 -0.1383
  661MOL0     H89216  10.477   7.473   6.305 -0.2343  0.9446 -0.1850
  661MOL0     H89217   9.972   7.808   6.447 -0.8859  1.0726  0.9762
  661MOL0     H89218   9.898   7.771   6.695 -1.1182  0.1409 -0.9792
  661MOL0     H89219   9.814   7.969   6.848 -0.4248  0.5479 -0.1605
  661MOL0     H89220   9.754   8.066   6.633 -1.9429 -1.1781  2.9718
  661MOL0     H89221   9.790   8.222   6.249  0.8707 -2.3284 -3.6490
  661MOL0     H89222   9.752   8.357   6.048 -0.1931  0.3214 -0.4405
  661MOL0     H89223   9.762   8.524   5.840  0.2633  3.1902  1.5218
  661MOL0     H89224   9.900   8.411   5.859  0.0422 -0.5067 -1.2456
  661MOL0     H89225  10.047   8.638   5.786  0.3856 -0.3752  0.6489
  661MOL0     H89226   9.893   8.702   5.753  1.9678  0.6931 -3.3299
  661MOL0     H89227  10.019   8.603   5.557  3.3577 -0.5589  1.3597
  661MOL0     H89228   9.848   8.557   5.572 -0.6075  0.3404  1.7692
  661MOL0     H89229  10.064   8.385   5.689  0.5821  1.5070 -1.6777
  661MOL0     H89230   9.897   8.343   5.666  0.8890 -1.5758  0.2627
  661MOL0     H89231  10.088   8.258   5.289 -1.9819  0.6571 -0.9157
  661MOL0     H89232  10.033   8.649   6.178 -0.2691  0.2042  1.7622
  661MOL0     H89233  10.129   8.457   6.511 -0.4505 -0.7560 -0.5175
  661MOL0     H89234  10.207   8.541   6.382  0.0395  0.1173  1.3619
  661MOL0     H89235  10.068   8.616   6.472 -1.6534 -1.4230  0.1237
  662MOL0     O89236   3.792   8.778  11.286 -0.3688  0.1422 -0.0277
  662MOL0     C89237   3.773   8.743  11.170 -0.3292 -0.2078  0.5005
  662MOL0     O89238   3.863   8.722  11.073 -0.5315  0.5830  0.0600
  662MOL0     C89239   3.977   8.659  11.114  0.6376 -0.7107 -0.1448
  662MOL0     C89240   4.074   8.719  11.190  0.1261 -0.7694 -0.1934
  662MOL0     C89241   4.182   8.654  11.261 -0.5405 -0.0094 -0.0723
  662MOL0     C89242   4.202   8.526  11.222 -0.8413  0.6281 -0.2785
  662MOL0     O89243   4.303   8.440  11.257  0.2467 -1.2173 -0.0471
  662MOL0     C89244   4.390   8.479  11.363 -0.2211 -0.4616 -0.7331
  662MOL0     C89245   4.503   8.379  11.389 -0.9548  0.2215  0.0160
  662MOL0     C89246   4.579   8.343  11.256 -0.3211 -0.0806 -0.1437
  662MOL0     C89247   4.655   8.466  11.200  0.3369  0.1231  0.0802
  662MOL0     C89248   4.741   8.425  11.078  0.0757  0.1383  0.2030
  662MOL0     C89249   4.873   8.361  11.137  0.0289  0.0397  0.1091
  662MOL0     C89250   4.988   8.350  11.030  0.3637  0.7782  0.0161
  662MOL0     C89251   4.969   8.234  10.935 -0.1017 -0.6091  0.4916
  662MOL0     N89252   5.084   8.191  10.864 -1.4180  0.4248  0.0589
  662MOL0     C89253   5.185   8.266  10.804  0.1237 -0.8761 -0.3067
  662MOL0     C89254   5.245   8.169  10.721 -0.4660 -0.4160 -0.4243
  662MOL0     C89255   5.353   8.186  10.612  0.0636 -0.2273  0.0398
  662MOL0     C89256   5.313   8.130  10.472  0.5597  0.6447 -0.3175
  662MOL0     C89257   5.400   8.195  10.364 -0.3704  0.3885  0.3926
  662MOL0     C89258   5.556   8.195  10.365 -0.5581  0.0217 -0.6775
  662MOL0     O89259   5.591   8.290  10.454 -0.2119 -0.7404  0.5471
  662MOL0     C89260   5.710   8.342  10.456 -0.9734 -0.4200  0.1091
  662MOL0     C89261   5.817   8.322  10.367  0.3564 -0.0197 -0.1738
  662MOL0     C89262   5.932   8.403  10.377 -1.4019 -1.1617 -0.1887
  662MOL0     C89263   5.939   8.501  10.477 -0.1988  0.0549 -0.6604
  662MOL0     C89264   6.059   8.590  10.495 -0.5760 -0.9094 -0.2621
  662MOL0     O89265   6.156   8.617  10.403  0.0846  0.2913 -0.6177
  662MOL0     C89266   6.254   8.713  10.415  0.0238  0.6585  0.0266
  662MOL0     C89267   6.312   8.737  10.538 -0.4214  0.3175  0.4332
  662MOL0     C89268   6.421   8.814  10.549  0.1880 -0.3693 -0.4761
  662MOL0     C89269   6.490   8.875  10.443 -0.1884  0.5406  0.7986
  662MOL0     O89270   6.606   8.941  10.468 -0.1997  0.2520 -0.2555
  662MOL0     C89271   6.719   8.884  10.388 -0.2077  0.2438  0.6744
  662MOL0     C89272   6.772   8.757  10.449 -1.2639  0.3032 -0.4974
  662MOL0     C89273   6.859   8.778  10.578 -0.1331 -0.2058  0.5547
  662MOL0     C89274   6.982   8.676  10.595  0.2576 -0.0402  0.3807
  662MOL0     C89275   7.073   8.692  10.473  1.0520 -0.5387  0.5729
  662MOL0     C89276   7.216   8.656  10.522  0.6177 -0.1527  0.3706
  662MOL0     C89277   7.296   8.672  10.401 -0.2259 -0.4750 -0.6458
  662MOL0     C89278   7.418   8.577  10.393 -0.0711  0.1299 -0.1621
  662MOL0    Cl89279   7.511   8.617  10.243  0.0475 -0.2560 -0.1239
  662MOL0     C89280   6.436   8.856  10.314  1.7475  0.2161 -0.8955
  662MOL0     C89281   6.313   8.780  10.300  0.2128  0.5353  1.1765
  662MOL0     O89282   6.056   8.651  10.605  0.6964  0.4470 -0.7388
  662MOL0     C89283   5.829   8.532  10.556 -0.6147 -0.0392 -0.1164
  662MOL0     C89284   5.717   8.446  10.551 -1.5553  0.2101 -0.0021
  662MOL0     N89285   5.181   8.050  10.734  0.3377 -0.0219 -0.7627
  662MOL0     N89286   5.089   8.060  10.822  0.3106  0.3107 -0.9235
  662MOL0     C89287   4.110   8.461  11.145  0.7360  0.3408  1.2458
  662MOL0     C89288   3.997   8.525  11.090 -0.2236  0.4127 -0.4089
  662MOL0     C89289   3.635   8.735  11.140 -1.2381  0.4062  0.0795
  662MOL0     C89290   3.559   8.613  11.129  0.7288 -0.2369  0.1624
  662MOL0     C89291   3.417   8.616  11.106  0.1942  0.5456  0.3425
  662MOL0     C89292   3.347   8.736  11.107 -1.3392  0.6497 -0.4452
  662MOL0     O89293   3.212   8.725  11.070 -0.3629 -0.0792 -0.1908
  662MOL0     C89294   3.125   8.842  11.063  1.3084  0.6736  0.4375
  662MOL0     C89295   2.992   8.787  11.001 -0.2449 -0.3111  0.0061
  662MOL0     C89296   2.982   8.751  10.849  0.3624 -0.3152  1.3506
  662MOL0     C89297   3.015   8.870  10.752 -0.3397 -0.3099 -0.9016
  662MOL0     C89298   2.918   8.978  10.766  0.9554 -0.2828 -0.7134
  662MOL0     C89299   2.836   9.074  10.768 -0.9853  0.1972 -0.8847
  662MOL0     C89300   3.416   8.858  11.122  0.4236 -0.5595 -1.0202
  662MOL0     C89301   3.557   8.853  11.148  0.5815 -0.0305  0.2871
  662MOL0     C89302   3.617   8.984  11.176  0.5718 -0.4845  0.4578
  662MOL0     H89303   4.060   8.826  11.195 -1.1082 -0.8139 -1.8758
  662MOL0     H89304   4.246   8.718  11.321 -1.2484  2.8575 -2.1137
  662MOL0     H89305   4.437   8.576  11.343 -1.6009  0.4317  0.1323
  662MOL0     H89306   4.331   8.496  11.454  0.3233  0.4038 -0.5280
  662MOL0     H89307   4.459   8.293  11.440 -1.3468  1.2093  1.3755
  662MOL0     H89308   4.581   8.421  11.454  1.8567  0.0826 -2.9719
  662MOL0     H89309   4.507   8.302  11.185 -2.7582  0.7836  1.6777
  662MOL0     H89310   4.653   8.268  11.285  1.0923  0.3111 -2.4470
  662MOL0     H89311   4.586   8.538  11.154  2.4191 -0.2861 -4.2346
  662MOL0     H89312   4.702   8.517  11.285 -1.9201  0.4203  1.2253
  662MOL0     H89313   4.691   8.354  11.011  1.1770 -2.3301  1.8437
  662MOL0     H89314   4.768   8.517  11.025 -1.1797  0.9255  0.8583
  662MOL0     H89315   4.912   8.419  11.221  0.3831  0.7683 -0.5549
  662MOL0     H89316   4.838   8.264  11.175 -1.0747 -0.0200 -1.0113
  662MOL0     H89317   5.086   8.339  11.077  1.2464  1.8765 -1.4611
  662MOL0     H89318   4.997   8.445  10.977 -0.0318  1.0644  0.4502
  662MOL0     H89319   4.926   8.154  10.996 -2.8076  0.6248  0.3754
  662MOL0     H89320   4.884   8.265  10.873 -2.8489 -0.7935  3.8593
  662MOL0     H89321   5.219   8.367  10.827  2.1181 -1.9143  1.7178
  662MOL0     H89322   5.379   8.291  10.603 -1.0811  0.0663  0.0424
  662MOL0     H89323   5.435   8.127  10.653  0.2954 -1.1503 -1.6394
  662MOL0     H89324   5.307   8.021  10.465  3.6111  0.2087  2.0133
  662MOL0     H89325   5.209   8.156  10.451 -0.3625 -0.8676  2.0424
  662MOL0     H89326   5.360   8.297  10.357  3.6567  2.2101  1.3773
  662MOL0     H89327   5.383   8.144  10.268  0.7105  1.8123 -0.5994
  662MOL0     H89328   5.600   8.218  10.267  0.8401  0.5333  0.0529
  662MOL0     H89329   5.593   8.098  10.398 -0.6241  0.2614  0.1163
  662MOL0     H89330   5.821   8.251  10.285 -1.6108  3.9278 -4.1016
  662MOL0     H89331   6.016   8.393  10.308  0.1893 -0.9580  1.6455
  662MOL0     H89332   6.276   8.679  10.622  0.0559  0.2210  0.5773
  662MOL0     H89333   6.461   8.823  10.649  1.0471 -4.2659 -0.3413
  662MOL0     H89334   6.693   8.867  10.283  2.2101 -0.2568  0.0793
  662MOL0     H89335   6.793   8.965  10.383  0.4639 -0.1850  2.8321
  662MOL0     H89336   6.688   8.695  10.481 -0.1039  0.1766  2.7566
  662MOL0     H89337   6.826   8.708  10.368  1.5759 -0.4775  1.6611
  662MOL0     H89338   6.903   8.878  10.574  1.5748 -0.8973  1.1099
  662MOL0     H89339   6.789   8.778  10.662 -0.8130  4.0608  0.1924
  662MOL0     H89340   6.967   8.570  10.619  1.6863 -0.2991  0.2383
  662MOL0     H89341   7.042   8.714  10.678  1.5047  1.0708 -0.9816
  662MOL0     H89342   7.075   8.796  10.440 -1.9273 -1.5618 -3.6064
  662MOL0     H89343   7.029   8.633  10.392  0.9351  0.2583  0.0483
  662MOL0     H89344   7.263   8.719  10.597  1.5555  1.4779 -1.4905
  662MOL0     H89345   7.226   8.556  10.565  2.0637  0.2780  1.0839
  662MOL0     H89346   7.323   8.777  10.384 -1.8981  0.0967 -0.0463
  662MOL0     H89347   7.236   8.655  10.311 -0.2830 -1.8321 -0.3595
  662MOL0     H89348   7.483   8.591  10.480  0.3312  1.7252 -0.6780
  662MOL0     H89349   7.377   8.476  10.390 -2.3726  0.9792  0.2251
  662MOL0     H89350   6.483   8.888  10.222  2.6931 -1.0523 -0.8768
  662MOL0     H89351   6.272   8.752  10.204  3.1928 -0.9730  0.2066
  662MOL0     H89352   5.832   8.608  10.633  1.6791 -1.4416  1.3112
  662MOL0     H89353   5.653   8.470  10.635  2.4620  1.3070  2.9984
  662MOL0     H89354   4.124   8.355  11.125  0.6985  0.2960  1.4469
  662MOL0     H89355   3.916   8.463  11.052 -1.0688 -0.0809  2.0212
  662MOL0     H89356   3.599   8.513  11.143 -1.6074 -1.1791  0.7168
  662MOL0     H89357   3.361   8.523  11.100 -2.9477  2.2860  0.8749
  662MOL0     H89358   3.165   8.931  11.012 -2.3539  1.9540 -0.5470
  662MOL0     H89359   3.104   8.871  11.167  0.4323 -2.9482  1.3907
  662MOL0     H89360   2.916   8.862  11.024  0.1724  1.0921 -2.8770
  662MOL0     H89361   2.958   8.704  11.065 -0.0816  0.6822  1.4329
  662MOL0     H89362   2.878   8.729  10.824  0.5904  0.3706 -0.3033
  662MOL0     H89363   3.038   8.660  10.826  2.4472  0.4026  3.1664
  662MOL0     H89364   3.116   8.892  10.788 -0.5084 -2.1745  0.8915
  662MOL0     H89365   3.022   8.844  10.646 -1.1207  1.1738 -1.3519
  662MOL0     H89366   2.787   9.169  10.778 -1.2831 -0.1293  1.1054
  662MOL0     H89367   3.356   8.948  11.125  3.3799  1.5342 -0.7873
  662MOL0     H89368   3.572   9.045  11.096 -0.3189 -3.7513 -1.7437
  662MOL0     H89369   3.595   9.020  11.277  0.8399  1.5017 -0.1360
  662MOL0     H89370   3.725   9.001  11.168  0.9465 -2.1906  1.4011
  663MOL0     O89371  10.687   8.631  11.222  0.5237  0.5660 -0.0317
  663MOL0     C89372  10.717   8.701  11.129 -0.2140  0.2447  0.0533
  663MOL0     O89373  10.633   8.727  11.014 -0.2992 -1.0893  0.2105
  663MOL0     C89374  10.495   8.705  11.018  0.2118 -0.0553 -0.0227
  663MOL0     C89375  10.418   8.694  11.133 -0.1045 -0.0236 -1.0438
  663MOL0     C89376  10.281   8.666  11.129  0.0242  0.2085  0.6207
  663MOL0     C89377  10.225   8.628  10.998  0.0997 -0.8036 -0.4181
  663MOL0     O89378  10.102   8.573  10.967 -0.5255 -0.0997 -0.3856
  663MOL0     C89379  10.002   8.559  11.070  0.1283  0.0096  0.5594
  663MOL0     C89380  10.014   8.420  11.139  0.6106 -0.4708  0.6721
  663MOL0     C89381   9.911   8.413  11.243 -0.6849  0.3842  0.1240
  663MOL0     C89382   9.920   8.511  11.354 -1.5464 -0.0298 -0.0272
  663MOL0     C89383   9.793   8.492  11.450  0.1367  0.2631 -0.0836
  663MOL0     C89384   9.805   8.561  11.586 -0.5796 -0.0999  1.1559
  663MOL0     C89385   9.679   8.553  11.676  0.0525 -0.2122 -0.0269
  663MOL0     C89386   9.697   8.624  11.811  1.0899  0.7267 -0.3165
  663MOL0     N89387   9.583   8.595  11.898  0.1349  0.6841 -0.0080
  663MOL0     C89388   9.481   8.494  11.877  0.1213  0.5114 -0.9229
  663MOL0     C89389   9.420   8.466  11.998 -0.5249  0.2950 -0.8742
  663MOL0     C89390   9.344   8.345  12.038 -0.2269 -0.6358 -0.8899
  663MOL0     C89391   9.239   8.321  11.933  0.1623 -0.8128  0.5005
  663MOL0     C89392   9.125   8.435  11.942 -0.2655 -0.1371 -0.1817
  663MOL0     C89393   9.050   8.433  12.071 -0.2435  1.0305 -0.9014
  663MOL0     O89394   9.018   8.295  12.104  0.2110 -0.5366  0.2907
  663MOL0     C89395   8.887   8.266  12.123 -0.6102 -0.1549  0.9632
  663MOL0     C89396   8.804   8.278  12.011  0.7156 -0.6154  1.4629
  663MOL0     C89397   8.662   8.249  12.040 -0.0088 -0.5001  0.6206
  663MOL0     C89398   8.610   8.215  12.171 -0.3598 -0.4491  0.3031
  663MOL0     C89399   8.469   8.177  12.184 -0.0562 -0.2271  0.2019
  663MOL0     O89400   8.393   8.200  12.068 -0.5397 -0.2371 -0.5331
  663MOL0     C89401   8.257   8.202  12.081 -0.0431  0.0996  0.1394
  663MOL0     C89402   8.197   8.254  12.196  0.5039 -0.6642 -0.4256
  663MOL0     C89403   8.058   8.285  12.192 -0.5813  0.6849 -0.4735
  663MOL0     C89404   7.975   8.250  12.085 -0.3796 -0.5622  0.0496
  663MOL0     O89405   7.842   8.286  12.079  0.3075  0.4881 -0.3944
  663MOL0     C89406   7.790   8.393  12.150 -0.4653 -0.1287  0.0778
  663MOL0     C89407   7.642   8.410  12.107  0.5300  0.3479 -0.1511
  663MOL0     C89408   7.588   8.536  12.167  0.5627  0.4153  0.8556
  663MOL0     C89409   7.438   8.563  12.131 -0.4596 -0.2573 -0.2099
  663MOL0     C89410   7.401   8.707  12.137 -1.3318 -0.5549 -1.2206
  663MOL0     C89411   7.258   8.732  12.084 -0.7372 -0.2561  0.6762
  663MOL0     C89412   7.157   8.734  12.204  0.4572  0.2916  0.2392
  663MOL0     C89413   7.013   8.740  12.135  0.5661  0.4780 -0.0948
  663MOL0    Cl89414   6.873   8.766  12.251 -0.0464  0.2315 -0.3309
  663MOL0     C89415   8.042   8.199  11.978  1.0000 -0.3047  0.0668
  663MOL0     C89416   8.175   8.173  11.973  0.0960  0.4085 -0.1651
  663MOL0     O89417   8.429   8.110  12.284  0.7056  0.2436  0.4595
  663MOL0     C89418   8.700   8.229  12.277 -0.3968  0.5580  0.3232
  663MOL0     C89419   8.833   8.250  12.250  0.5699 -0.5763 -0.0818
  663MOL0     N89420   9.481   8.554  12.086  0.5883 -0.1775  0.2952
  663MOL0     N89421   9.574   8.630  12.026 -0.1282  0.3809  0.2809
  663MOL0     C89422  10.309   8.621  10.893 -0.6360 -0.1881 -0.0713
  663MOL0     C89423  10.436   8.673  10.894  0.5540 -0.2181  0.1738
  663MOL0     C89424  10.865   8.744  11.132 -0.8946  0.5166  1.1794
  663MOL0     C89425  10.952   8.742  11.239  0.9430  0.9383 -0.0898
  663MOL0     C89426  11.079   8.790  11.244  0.4711 -0.0948 -0.5801
  663MOL0     C89427  11.136   8.862  11.138 -0.7911 -0.1412 -0.6105
  663MOL0     O89428  11.264   8.923  11.139  0.2595  0.1763  0.4760
  663MOL0     C89429  11.365   8.892  11.231  0.0829  0.3029 -0.4859
  663MOL0     C89430  11.420   9.029  11.264 -0.4556 -0.0229 -0.0231
  663MOL0     C89431  11.356   9.081  11.396  0.6522 -0.2894  0.1802
  663MOL0     C89432  11.429   9.189  11.466  0.0501 -0.3538  0.2034
  663MOL0     C89433  11.457   9.303  11.378  0.5282  0.2479  0.0921
  663MOL0     C89434  11.486   9.398  11.308  0.6471  0.2101  0.7226
  663MOL0     C89435  11.058   8.873  11.026 -0.3482 -0.7065  0.2011
  663MOL0     C89436  10.929   8.808  11.014  0.8120  0.0228 -0.2472
  663MOL0     C89437  10.858   8.809  10.878 -0.0987  0.7829 -0.4217
  663MOL0     H89438  10.448   8.706  11.236 -0.1262 -0.3589 -0.9983
  663MOL0     H89439  10.208   8.680  11.209 -2.1640 -0.4129 -1.1445
  663MOL0     H89440  10.005   8.637  11.148  1.7787 -0.6375  1.1943
  663MOL0     H89441   9.900   8.562  11.031  0.2702  1.3067  0.2329
  663MOL0     H89442  10.116   8.405  11.176  1.8394 -1.5540 -2.7842
  663MOL0     H89443  10.006   8.343  11.061 -0.8605  1.7896 -1.5310
  663MOL0     H89444   9.918   8.311  11.282  0.4654  0.4146  0.0350
  663MOL0     H89445   9.813   8.414  11.194 -1.0064 -1.4642  0.6491
  663MOL0     H89446  10.015   8.493  11.405 -0.8056 -0.4794 -1.5012
  663MOL0     H89447   9.926   8.616  11.326 -2.4205  1.1310  3.5660
  663MOL0     H89448   9.710   8.542  11.399 -0.2395 -0.4029 -0.1263
  663MOL0     H89449   9.781   8.387  11.477 -1.6374  1.1877  3.4634
  663MOL0     H89450   9.896   8.535  11.642  0.3978  2.4677  0.9205
  663MOL0     H89451   9.811   8.669  11.570 -0.8589 -0.1638  0.5826
  663MOL0     H89452   9.647   8.449  11.684  2.3917 -1.2820 -2.8188
  663MOL0     H89453   9.594   8.609  11.635 -1.4960 -0.4429  2.6426
  663MOL0     H89454   9.795   8.609  11.858  1.4767 -0.4574 -1.4379
  663MOL0     H89455   9.702   8.733  11.804  3.2913  0.6726 -0.4704
  663MOL0     H89456   9.458   8.442  11.785 -0.3494 -0.8782 -0.0627
  663MOL0     H89457   9.411   8.258  12.038 -0.2687 -0.6684 -0.8561
  663MOL0     H89458   9.308   8.368  12.139  2.9731  0.2602  0.1625
  663MOL0     H89459   9.290   8.318  11.836  1.7713 -1.1766  1.3158
  663MOL0     H89460   9.203   8.219  11.949  0.5895 -1.2247 -0.9794
  663MOL0     H89461   9.049   8.408  11.869 -0.9930  0.6059  0.2883
  663MOL0     H89462   9.154   8.537  11.916  0.9214 -0.5649 -0.5998
  663MOL0     H89463   8.959   8.493  12.062 -0.1565  1.0041 -2.1269
  663MOL0     H89464   9.109   8.493  12.142 -0.9207 -2.1549  2.6723
  663MOL0     H89465   8.826   8.297  11.907 -1.1086 -3.8403  0.3541
  663MOL0     H89466   8.596   8.234  11.955  0.6832  2.5747 -0.5940
  663MOL0     H89467   8.248   8.277  12.289 -0.5885 -2.9265  0.8104
  663MOL0     H89468   8.010   8.335  12.275  0.4782  0.4993  0.2762
  663MOL0     H89469   7.796   8.388  12.259 -2.8624 -0.6950  0.2499
  663MOL0     H89470   7.851   8.473  12.109 -0.5137 -0.0136  0.2336
  663MOL0     H89471   7.650   8.412  11.998  1.4135 -1.1591 -0.1464
  663MOL0     H89472   7.589   8.319  12.138 -1.0873  1.2576 -0.1149
  663MOL0     H89473   7.603   8.535  12.275 -2.0944 -1.7352  1.3199
  663MOL0     H89474   7.652   8.614  12.125 -0.4006  1.9361  2.1303
  663MOL0     H89475   7.379   8.518  12.212 -0.0004  1.7776  1.3475
  663MOL0     H89476   7.406   8.519  12.036 -0.5771 -3.1884  1.0696
  663MOL0     H89477   7.470   8.764  12.074 -0.1224 -2.6071 -1.8421
  663MOL0     H89478   7.405   8.746  12.239 -0.7055 -3.9203  0.1704
  663MOL0     H89479   7.242   8.832  12.042 -1.2124 -1.3377 -1.8825
  663MOL0     H89480   7.238   8.673  11.995  1.4344  0.4898 -0.3644
  663MOL0     H89481   7.154   8.820  12.271 -0.2659  0.1682  0.3704
  663MOL0     H89482   7.170   8.646  12.268  0.6023  0.8659  1.0152
  663MOL0     H89483   7.029   8.819  12.061  3.9831  0.7715  0.8114
  663MOL0     H89484   6.995   8.642  12.090 -0.5746  0.5533  0.1521
  663MOL0     H89485   7.989   8.209  11.884 -0.4420  3.6266  1.1161
  663MOL0     H89486   8.223   8.120  11.892 -1.4997 -1.5260  0.0746
  663MOL0     H89487   8.679   8.197  12.379  0.4918  0.7983  0.5932
  663MOL0     H89488   8.897   8.258  12.337 -0.5551  1.0313  0.6315
  663MOL0     H89489  10.282   8.589  10.793 -0.5985  3.5789 -1.4616
  663MOL0     H89490  10.492   8.674  10.801  1.4775  0.4190  0.7123
  663MOL0     H89491  10.916   8.684  11.323 -2.4408  1.6524 -0.8852
  663MOL0     H89492  11.126   8.785  11.342  2.0430  0.2681 -1.2876
  663MOL0     H89493  11.442   8.830  11.184 -1.4493 -0.0905 -2.5830
  663MOL0     H89494  11.332   8.839  11.320  0.1454 -0.0864 -0.6933
  663MOL0     H89495  11.414   9.100  11.181 -3.2033  0.0616  0.1576
  663MOL0     H89496  11.526   9.013  11.287  0.2379  1.1780 -2.0359
  663MOL0     H89497  11.344   8.994  11.461 -1.3981 -0.7963 -0.7971
  663MOL0     H89498  11.254   9.112  11.369  2.2026  1.9152 -4.1604
  663MOL0     H89499  11.365   9.207  11.553  2.1412  0.8902  1.5627
  663MOL0     H89500  11.524   9.145  11.496  1.0628  1.0841 -0.7240
  663MOL0     H89501  11.501   9.478  11.238 -2.3349  0.4187  0.2054
  663MOL0     H89502  11.106   8.922  10.942 -1.9423 -1.0877 -0.9883
  663MOL0     H89503  10.813   8.712  10.856 -2.3489  1.8584 -0.7813
  663MOL0     H89504  10.775   8.879  10.871 -1.8149 -1.3059 -2.3735
  663MOL0     H89505  10.930   8.830  10.798  1.2755 -1.0001  0.2681
  664MOL0     O89506   8.863   8.859   4.697  0.2742  0.1572  0.4664
  664MOL0     C89507   8.887   8.775   4.609  1.0604 -1.1705  0.0675
  664MOL0     O89508   8.798   8.684   4.557  0.3436 -0.4529  0.3431
  664MOL0     C89509   8.674   8.668   4.602 -0.6120 -0.1025  0.1959
  664MOL0     C89510   8.634   8.566   4.691  0.2546  0.1490  0.1356
  664MOL0     C89511   8.504   8.572   4.750  0.7071 -0.0781 -0.2866
  664MOL0     C89512   8.414   8.673   4.713 -0.2268 -0.9623  0.8405
  664MOL0     O89513   8.292   8.685   4.771 -0.3443 -0.0059 -0.8748
  664MOL0     C89514   8.201   8.593   4.716  0.1562 -0.0911  0.4444
  664MOL0     C89515   8.091   8.541   4.813 -0.3250 -0.6115 -0.1798
  664MOL0     C89516   8.158   8.501   4.942 -0.1172 -0.4876 -0.7387
  664MOL0     C89517   8.072   8.429   5.034 -0.2095 -0.5799 -0.8151
  664MOL0     C89518   7.935   8.498   5.059  0.4142  0.0252  0.0577
  664MOL0     C89519   7.868   8.433   5.182  0.0389  0.2727 -0.6628
  664MOL0     C89520   7.743   8.511   5.240 -0.3107 -1.0036  0.4035
  664MOL0     C89521   7.754   8.666   5.280  0.3953  1.1312 -0.3134
  664MOL0     N89522   7.865   8.681   5.382  0.1335 -0.4156  0.3179
  664MOL0     C89523   8.006   8.671   5.368 -0.4652 -0.3780  0.4245
  664MOL0     C89524   8.050   8.695   5.496  0.4835  0.0564 -0.6222
  664MOL0     C89525   8.191   8.681   5.563  0.0054 -1.0222  0.6915
  664MOL0     C89526   8.311   8.712   5.459  0.4877  0.6117 -0.6511
  664MOL0     C89527   8.442   8.749   5.540  0.0228 -0.0019 -0.0249
  664MOL0     C89528   8.524   8.841   5.465 -0.1671 -0.0610  0.6883
  664MOL0     O89529   8.621   8.905   5.554  0.0228  0.2153 -0.0247
  664MOL0     C89530   8.739   8.964   5.509  0.7281  0.2854 -0.6493
  664MOL0     C89531   8.814   9.038   5.609 -0.6924  1.1552  0.3011
  664MOL0     C89532   8.924   9.104   5.576  0.9169 -1.2851  0.3654
  664MOL0     C89533   8.980   9.102   5.446 -0.9621  0.4677  0.6984
  664MOL0     C89534   9.117   9.156   5.415  0.2120  0.0144  0.4067
  664MOL0     O89535   9.164   9.153   5.283  0.1031 -0.7693 -0.6575
  664MOL0     C89536   9.285   9.200   5.248  0.1190  0.3081 -0.0781
  664MOL0     C89537   9.402   9.125   5.269  0.4403  0.4462  0.3741
  664MOL0     C89538   9.521   9.182   5.217  0.5536  0.4501  0.7843
  664MOL0     C89539   9.532   9.302   5.138  0.3571 -0.1894 -0.9758
  664MOL0     O89540   9.653   9.343   5.085 -0.0411  0.0124 -0.5648
  664MOL0     C89541   9.773   9.331   5.162 -0.0071  1.2105  0.4222
  664MOL0     C89542   9.868   9.434   5.094 -0.3846  0.3784  1.0029
  664MOL0     C89543  10.005   9.444   5.166  0.3558 -0.0625  0.5315
  664MOL0     C89544  10.096   9.540   5.098 -0.0201 -0.1740 -0.0085
  664MOL0     C89545  10.228   9.544   5.161 -1.5335 -0.7151  0.3202
  664MOL0     C89546  10.312   9.632   5.063 -0.6052 -0.0693 -0.6122
  664MOL0     C89547  10.455   9.657   5.110 -0.1294  0.5600 -0.1072
  664MOL0     C89548  10.549   9.697   4.996 -0.7059  0.9547 -0.0813
  664MOL0    Cl89549  10.527   9.875   4.981 -0.1712  0.5288 -0.5027
  664MOL0     C89550   9.411   9.357   5.106  0.3212 -0.2872  0.1516
  664MOL0     C89551   9.295   9.309   5.163  0.4628  0.9750 -1.1729
  664MOL0     O89552   9.172   9.217   5.504  0.1444  0.7420 -0.3908
  664MOL0     C89553   8.912   9.028   5.356  1.7372  0.1744  0.4894
  664MOL0     C89554   8.793   8.961   5.380  0.3933 -0.2963 -0.2122
  664MOL0     N89555   7.939   8.733   5.581  0.2784  0.1644 -0.9950
  664MOL0     N89556   7.837   8.725   5.507  0.4481 -0.2858 -0.1481
  664MOL0     C89557   8.453   8.770   4.624  1.4821  0.0618 -0.1030
  664MOL0     C89558   8.581   8.767   4.568  0.7615 -0.3977 -0.5047
  664MOL0     C89559   9.023   8.788   4.546  0.2194 -0.3224 -0.4981
  664MOL0     C89560   9.121   8.876   4.597  0.4169  0.0523  0.3887
  664MOL0     C89561   9.252   8.886   4.545  0.9417  0.0275  0.2147
  664MOL0     C89562   9.284   8.810   4.430  0.0345  0.3563  0.1518
  664MOL0     O89563   9.405   8.807   4.360 -0.7097 -0.2015  0.4744
  664MOL0     C89564   9.511   8.896   4.413 -1.1583  0.3322  0.1549
  664MOL0     C89565   9.591   8.853   4.543 -0.7296  0.3393  0.3677
  664MOL0     C89566   9.632   8.707   4.544  0.3943  0.0096  0.3795
  664MOL0     C89567   9.652   8.656   4.687 -0.2385 -0.7097 -0.2236
  664MOL0     C89568   9.526   8.627   4.763  0.4733  0.0755 -0.7893
  664MOL0     C89569   9.426   8.628   4.834  0.8222 -1.0720 -0.9559
  664MOL0     C89570   9.192   8.732   4.372  0.2975 -0.0554 -0.1266
  664MOL0     C89571   9.062   8.713   4.428  0.0036 -0.3179 -0.8249
  664MOL0     C89572   8.971   8.609   4.358  1.4725  0.5076  0.1914
  664MOL0     H89573   8.699   8.481   4.710  2.6903  0.8279 -4.0491
  664MOL0     H89574   8.481   8.489   4.817  0.6641  2.5168  3.1908
  664MOL0     H89575   8.154   8.637   4.628  1.2981 -0.7893 -0.5514
  664MOL0     H89576   8.248   8.504   4.674  0.3123 -1.1950  2.7864
  664MOL0     H89577   8.038   8.454   4.774  1.0352 -2.2141  1.4065
  664MOL0     H89578   8.015   8.619   4.825 -0.5748 -1.0406  1.1873
  664MOL0     H89579   8.181   8.603   4.977 -3.4425 -0.2342  1.1935
  664MOL0     H89580   8.244   8.438   4.918  2.8533  4.1762 -4.0812
  664MOL0     H89581   8.044   8.329   4.999 -1.5794  0.1178 -1.8215
  664MOL0     H89582   8.125   8.424   5.129  0.1173 -0.9033 -1.0098
  664MOL0     H89583   7.953   8.604   5.076 -1.0881 -0.0280  2.5760
  664MOL0     H89584   7.871   8.491   4.971  1.5569 -2.3136 -0.6872
  664MOL0     H89585   7.853   8.327   5.159  2.5647 -0.2846 -0.0535
  664MOL0     H89586   7.933   8.436   5.270 -0.3726  0.7846 -0.3691
  664MOL0     H89587   7.714   8.465   5.335  0.6600  0.1107  1.2630
  664MOL0     H89588   7.665   8.498   5.164 -1.8937 -0.6213  1.9250
  664MOL0     H89589   7.780   8.731   5.196  0.0122  1.8136  0.0889
  664MOL0     H89590   7.658   8.707   5.315  0.5908  3.3723 -2.2032
  664MOL0     H89591   8.053   8.645   5.274 -2.8447  2.4068 -1.7369
  664MOL0     H89592   8.188   8.743   5.652  0.3369 -1.9811  1.3957
  664MOL0     H89593   8.198   8.583   5.612  0.5987 -2.1525 -1.4879
  664MOL0     H89594   8.336   8.630   5.391  2.8335  0.3294  0.4460
  664MOL0     H89595   8.279   8.804   5.410 -3.0821  0.2553  0.7277
  664MOL0     H89596   8.491   8.654   5.564 -2.8322 -1.8000 -0.8069
  664MOL0     H89597   8.416   8.807   5.629 -0.8561  0.2967 -0.4606
  664MOL0     H89598   8.475   8.914   5.401 -0.0094 -1.9808 -1.7548
  664MOL0     H89599   8.589   8.789   5.394 -1.4592 -0.3560 -0.3185
  664MOL0     H89600   8.775   9.039   5.710 -2.2612  0.9070 -0.2784
  664MOL0     H89601   8.983   9.166   5.643  1.7445  0.0890 -1.5599
  664MOL0     H89602   9.410   9.036   5.329 -1.2745  0.5350  0.7855
  664MOL0     H89603   9.614   9.132   5.239  2.5319  1.7177 -3.5820
  664MOL0     H89604   9.755   9.352   5.268 -1.1547  0.8049  0.3273
  664MOL0     H89605   9.804   9.227   5.151 -1.8956  0.7117 -0.6985
  664MOL0     H89606   9.893   9.412   4.989  2.7577  0.7785  1.5758
  664MOL0     H89607   9.822   9.532   5.110 -0.0660  0.8918 -0.8855
  664MOL0     H89608   9.984   9.488   5.264  1.8733 -0.8677  1.2548
  664MOL0     H89609  10.052   9.345   5.173  1.2539  0.0340 -2.5741
  664MOL0     H89610  10.058   9.643   5.104 -1.7368 -0.5878 -2.2788
  664MOL0     H89611  10.109   9.526   4.990  1.3632  1.6459 -0.1298
  664MOL0     H89612  10.273   9.444   5.164  2.0480  0.6893 -0.8419
  664MOL0     H89613  10.220   9.584   5.263 -1.3507  0.4514 -0.1118
  664MOL0     H89614  10.307   9.589   4.963 -1.1306 -0.1501 -0.5564
  664MOL0     H89615  10.269   9.732   5.051  1.2069  0.5174 -2.6468
  664MOL0     H89616  10.503   9.583   5.175  1.1389  2.6273  1.4469
  664MOL0     H89617  10.448   9.746   5.174 -0.0732 -0.2547  1.0444
  664MOL0     H89618  10.655   9.678   5.011 -0.8064  0.4631  0.0306
  664MOL0     H89619  10.528   9.649   4.900  0.4027 -1.4370  0.7860
  664MOL0     H89620   9.414   9.448   5.048  0.8763 -0.7593 -0.5821
  664MOL0     H89621   9.205   9.357   5.128  0.1211  1.0604 -0.2025
  664MOL0     H89622   8.958   9.015   5.258  1.2166  1.8664 -0.0130
  664MOL0     H89623   8.739   8.914   5.299 -0.9149 -0.0464  0.4764
  664MOL0     H89624   8.381   8.849   4.604  0.5391 -0.9037 -0.6436
  664MOL0     H89625   8.608   8.846   4.499  2.1601 -0.5927 -0.2158
  664MOL0     H89626   9.087   8.933   4.683 -3.4756 -0.8462 -0.3680
  664MOL0     H89627   9.322   8.951   4.596  2.7652 -1.0554 -0.8138
  664MOL0     H89628   9.467   8.993   4.440  0.5758  0.5641  2.4364
  664MOL0     H89629   9.590   8.909   4.338  0.1246 -1.3402  1.1663
  664MOL0     H89630   9.535   8.870   4.635 -1.3818  1.0360 -0.1474
  664MOL0     H89631   9.675   8.922   4.554 -1.6442  1.7178 -0.8093
  664MOL0     H89632   9.715   8.699   4.473  0.5653  1.9140  0.2940
  664MOL0     H89633   9.555   8.642   4.502 -0.4905  0.2896  1.5223
  664MOL0     H89634   9.700   8.558   4.685 -3.8228 -2.6159 -1.4480
  664MOL0     H89635   9.714   8.731   4.737  1.8686 -0.6131 -2.7265
  664MOL0     H89636   9.348   8.603   4.903  1.1415  0.6775  0.1021
  664MOL0     H89637   9.219   8.670   4.286 -0.0096 -0.0821 -0.2049
  664MOL0     H89638   9.027   8.569   4.273  1.3471 -0.9498  0.7602
  664MOL0     H89639   8.948   8.529   4.429 -1.6006  1.4105  0.3647
  664MOL0     H89640   8.879   8.656   4.321  1.5699 -1.2942 -2.7033
  665MOL0     O89641   8.869   2.064   9.022 -1.1250  0.6165  0.0961
  665MOL0     C89642   8.897   1.968   9.100 -0.2493  0.0175 -0.0244
  665MOL0     O89643   8.805   1.877   9.148 -0.9003 -0.1391 -0.1760
  665MOL0     C89644   8.682   1.878   9.091 -1.0527  0.0165 -0.5288
  665MOL0     C89645   8.567   1.893   9.176  0.2388 -0.8605  0.0223
  665MOL0     C89646   8.431   1.889   9.125 -0.4175  0.2442  0.2871
  665MOL0     C89647   8.405   1.851   8.990  0.4740  0.4233  0.8545
  665MOL0     O89648   8.275   1.842   8.948 -0.6651 -0.1501  0.1787
  665MOL0     C89649   8.231   1.791   8.825 -0.1463 -0.0548 -0.1459
  665MOL0     C89650   8.106   1.865   8.775 -0.8286 -0.2442 -0.5640
  665MOL0     C89651   7.979   1.782   8.797  0.1890  0.2137  1.1843
  665MOL0     C89652   7.865   1.874   8.758  0.5711 -0.3219 -0.2611
  665MOL0     C89653   7.722   1.810   8.791 -0.6621  0.0905 -0.2268
  665MOL0     C89654   7.609   1.900   8.751 -0.5634 -0.1902 -0.5467
  665MOL0     C89655   7.624   2.040   8.813  0.5503  0.0883  0.0423
  665MOL0     C89656   7.499   2.137   8.797 -0.7664  0.8899  0.0806
  665MOL0     N89657   7.486   2.198   8.663  0.1557  0.4203  0.0710
  665MOL0     C89658   7.400   2.152   8.574  0.1773 -0.4647  0.4589
  665MOL0     C89659   7.432   2.233   8.465 -0.4605 -0.0073  0.3535
  665MOL0     C89660   7.382   2.202   8.318 -0.6792  0.2564 -0.3453
  665MOL0     C89661   7.421   2.313   8.222 -0.2853  0.7231 -0.5721
  665MOL0     C89662   7.347   2.299   8.089  0.2325 -0.6842  1.5509
  665MOL0     C89663   7.193   2.301   8.088  0.5331  0.3773  0.3075
  665MOL0     O89664   7.149   2.281   7.957  0.0312  0.0817  0.5328
  665MOL0     C89665   7.009   2.307   7.950  0.6248 -0.0157 -0.4063
  665MOL0     C89666   6.964   2.429   7.904  0.3448 -0.8479  0.1311
  665MOL0     C89667   6.829   2.463   7.923 -0.0158 -0.8627 -0.2760
  665MOL0     C89668   6.737   2.385   7.999 -0.1434 -0.2010  1.4758
  665MOL0     C89669   6.590   2.410   8.019  0.2077 -0.5141 -0.9184
  665MOL0     O89670   6.523   2.481   7.922 -0.7638 -0.3440 -0.4938
  665MOL0     C89671   6.386   2.483   7.912 -0.3403 -0.1103 -0.1330
  665MOL0     C89672   6.306   2.383   7.967  0.1369 -0.4218  0.1645
  665MOL0     C89673   6.163   2.388   7.941  0.3203 -0.4450 -1.1520
  665MOL0     C89674   6.106   2.485   7.865 -0.6089  0.1678  0.1233
  665MOL0     O89675   5.977   2.492   7.828 -0.2152 -0.1840  0.1668
  665MOL0     C89676   5.893   2.377   7.865 -0.8206 -0.6280  0.4502
  665MOL0     C89677   5.741   2.419   7.845  0.3781  0.1664  0.6024
  665MOL0     C89678   5.664   2.495   7.955  1.2044  0.4852 -0.2120
  665MOL0     C89679   5.713   2.641   7.948  0.3994 -0.8163 -0.6708
  665MOL0     C89680   5.637   2.729   8.048 -0.3187  0.6568 -0.7387
  665MOL0     C89681   5.498   2.759   7.994  1.2045  0.1403  0.5097
  665MOL0     C89682   5.437   2.877   8.072 -0.4787  0.0082  0.4432
  665MOL0     C89683   5.305   2.923   8.016 -1.1557  0.0874 -0.6422
  665MOL0    Cl89684   5.261   3.096   8.044  0.2667  0.1530  0.3483
  665MOL0     C89685   6.186   2.597   7.833 -0.0274 -0.0810 -1.0762
  665MOL0     C89686   6.328   2.594   7.855  0.3694 -1.4361  0.1299
  665MOL0     O89687   6.541   2.370   8.123 -0.2736  0.1128  0.5677
  665MOL0     C89688   6.785   2.257   8.044  0.2041  0.0629 -0.0181
  665MOL0     C89689   6.920   2.224   8.027 -0.6940  0.5145 -0.2600
  665MOL0     N89690   7.516   2.345   8.503  0.1413  0.4423  0.0024
  665MOL0     N89691   7.548   2.320   8.627  0.1268  0.1115 -0.4079
  665MOL0     C89692   8.520   1.835   8.908 -0.3798  0.0321 -0.8116
  665MOL0     C89693   8.650   1.855   8.960 -0.2541  0.0673 -0.1099
  665MOL0     C89694   9.044   1.943   9.123  0.5023 -0.6184  0.1109
  665MOL0     C89695   9.129   2.027   9.045 -0.2311  0.5209 -0.0993
  665MOL0     C89696   9.264   2.010   9.056  0.0577 -0.9583  0.3452
  665MOL0     C89697   9.321   1.906   9.127 -0.0807  0.0048 -0.3697
  665MOL0     O89698   9.462   1.880   9.130 -0.2511  0.1877 -0.0656
  665MOL0     C89699   9.555   1.960   9.060  0.1884  0.6813 -0.1737
  665MOL0     C89700   9.703   1.899   9.082  0.3917 -0.3593 -0.3810
  665MOL0     C89701   9.815   1.984   9.011  0.6765 -0.2838  0.9605
  665MOL0     C89702   9.968   1.925   9.015 -0.5779  0.0329 -0.0561
  665MOL0     C89703  10.019   1.933   9.150 -0.4175 -0.0586  0.4268
  665MOL0     C89704  10.049   1.918   9.271 -0.2382  0.5518  0.1299
  665MOL0     C89705   9.239   1.825   9.200  1.1108  0.1102  0.8170
  665MOL0     C89706   9.099   1.845   9.204  0.0610  0.0127 -0.5840
  665MOL0     C89707   9.009   1.743   9.286  0.4827 -0.0857 -0.4641
  665MOL0     H89708   8.578   1.918   9.281 -0.6677  2.3245 -0.5235
  665MOL0     H89709   8.354   1.934   9.186  2.5422  1.0867  3.8170
  665MOL0     H89710   8.308   1.792   8.748  3.2105 -2.1687  2.8593
  665MOL0     H89711   8.217   1.683   8.839  2.5718 -1.0507 -3.6726
  665MOL0     H89712   8.138   1.886   8.672  3.2926 -1.0289  0.3892
  665MOL0     H89713   8.100   1.968   8.810 -1.4629 -0.9573  1.5948
  665MOL0     H89714   7.966   1.738   8.897  0.2531  0.1060  1.1464
  665MOL0     H89715   7.971   1.697   8.728  1.4150  1.1642 -0.1790
  665MOL0     H89716   7.870   1.968   8.815 -4.5806 -1.7251  3.1755
  665MOL0     H89717   7.871   1.901   8.652  0.9652 -0.8953 -0.3928
  665MOL0     H89718   7.704   1.708   8.756 -4.2782 -0.9227  3.7934
  665MOL0     H89719   7.720   1.801   8.900  1.2150 -1.5443 -0.2794
  665MOL0     H89720   7.621   1.909   8.643  1.2031 -1.4256 -0.4969
  665MOL0     H89721   7.512   1.853   8.768 -1.6276  1.4957 -1.6644
  665MOL0     H89722   7.705   2.093   8.763 -0.8287  0.2655 -2.1102
  665MOL0     H89723   7.632   2.013   8.919 -1.2692  0.6331  0.3448
  665MOL0     H89724   7.408   2.079   8.815 -1.0694  1.5086  0.5959
  665MOL0     H89725   7.501   2.220   8.869  0.7441  0.3076  0.7474
  665MOL0     H89726   7.335   2.065   8.576 -0.6905  0.1494 -0.3228
  665MOL0     H89727   7.427   2.107   8.285 -0.9124  0.1605 -0.3848
  665MOL0     H89728   7.273   2.203   8.321 -0.6707 -0.4820  0.9477
  665MOL0     H89729   7.401   2.418   8.249 -0.7839  0.7512 -1.0274
  665MOL0     H89730   7.528   2.301   8.206  0.0952  0.0098  2.0269
  665MOL0     H89731   7.380   2.199   8.060 -0.3409 -0.2499 -0.7985
  665MOL0     H89732   7.382   2.374   8.018 -0.3036  0.3924  2.3880
  665MOL0     H89733   7.161   2.400   8.120  2.1125  1.1767 -0.4314
  665MOL0     H89734   7.147   2.228   8.155 -0.7769  1.9684  1.1887
  665MOL0     H89735   7.033   2.486   7.843  1.3387 -0.4887  1.5329
  665MOL0     H89736   6.794   2.554   7.875  0.4198 -0.9105 -0.6946
  665MOL0     H89737   6.338   2.292   8.017 -3.1653 -1.9627 -0.2959
  665MOL0     H89738   6.112   2.301   7.981  1.4084 -0.8105 -0.5195
  665MOL0     H89739   5.909   2.279   7.818  2.5050  0.0169  0.0493
  665MOL0     H89740   5.908   2.361   7.972 -0.8300  2.6436  1.0395
  665MOL0     H89741   5.731   2.477   7.752  1.5068 -1.3436 -0.5065
  665MOL0     H89742   5.688   2.325   7.827  0.4021  0.6431 -2.5885
  665MOL0     H89743   5.555   2.496   7.949  0.9848  2.2070  2.2908
  665MOL0     H89744   5.688   2.459   8.055  2.3719  3.6240  0.7583
  665MOL0     H89745   5.700   2.675   7.845 -0.0577 -3.1984 -1.4616
  665MOL0     H89746   5.816   2.648   7.984 -0.6247  0.4386  2.3049
  665MOL0     H89747   5.693   2.822   8.060  3.3004 -1.2086 -1.5482
  665MOL0     H89748   5.630   2.682   8.147 -2.2199  3.3518  0.5185
  665MOL0     H89749   5.510   2.788   7.889 -0.5879 -2.3762 -0.5041
  665MOL0     H89750   5.423   2.679   7.994 -1.3260  2.3334 -1.1207
  665MOL0     H89751   5.501   2.966   8.063 -0.3943 -0.1952 -1.2482
  665MOL0     H89752   5.423   2.833   8.171 -0.6048  0.9708  0.8583
  665MOL0     H89753   5.305   2.907   7.908  0.6310  0.4905 -0.7255
  665MOL0     H89754   5.232   2.863   8.071 -2.2426  1.5305 -0.4409
  665MOL0     H89755   6.140   2.689   7.798  0.4866 -0.4660 -2.8506
  665MOL0     H89756   6.396   2.671   7.820 -1.8357  0.3883 -0.3772
  665MOL0     H89757   6.740   2.179   8.104  1.8749 -0.0171  1.2064
  665MOL0     H89758   6.955   2.134   8.078 -0.9714  0.8211  0.4937
  665MOL0     H89759   8.515   1.803   8.805 -0.0850 -1.5272 -0.3806
  665MOL0     H89760   8.740   1.843   8.900  0.7831  2.0494  0.9402
  665MOL0     H89761   9.113   2.115   8.983  1.1931  0.3623 -0.7317
  665MOL0     H89762   9.323   2.064   8.983 -1.0546 -0.4176 -0.1931
  665MOL0     H89763   9.557   2.058   9.109  0.7348 -0.4499  2.2539
  665MOL0     H89764   9.537   1.951   8.953  2.5222 -1.0763 -0.5104
  665MOL0     H89765   9.707   1.798   9.038 -0.8695 -0.0496 -1.2555
  665MOL0     H89766   9.731   1.888   9.187  0.0241 -1.4391 -0.3832
  665MOL0     H89767   9.814   2.085   9.052 -1.7048  0.2440 -0.2588
  665MOL0     H89768   9.781   1.999   8.909  0.5898  1.4070  1.2063
  665MOL0     H89769   9.959   1.817   9.000  3.0274 -1.1789  4.1390
  665MOL0     H89770  10.027   1.986   8.946 -0.4966  1.9510  1.5740
  665MOL0     H89771  10.083   1.920   9.372  3.0013 -0.2680 -0.8308
  665MOL0     H89772   9.281   1.742   9.256  2.6269  1.3580  1.5990
  665MOL0     H89773   8.919   1.707   9.236 -0.7614 -0.6241  1.9892
  665MOL0     H89774   9.063   1.656   9.326  0.7513 -0.8318 -2.3758
  665MOL0     H89775   8.968   1.805   9.366  1.2362  0.8059 -0.7430
  666MOL0     O89776   9.586   9.278   8.497  0.4298  0.5939  0.2709
  666MOL0     C89777   9.618   9.191   8.423 -0.7169  0.8825  0.3278
  666MOL0     O89778   9.750   9.164   8.391  0.1677 -0.0544 -0.0213
  666MOL0     C89779   9.839   9.189   8.488  0.1337 -0.0891 -0.2876
  666MOL0     C89780   9.907   9.308   8.477  1.0874  0.7441 -0.3515
  666MOL0     C89781  10.011   9.344   8.566 -1.1734  0.5693 -0.1490
  666MOL0     C89782  10.047   9.255   8.674  0.0982 -0.3135 -0.3764
  666MOL0     O89783  10.145   9.286   8.760 -0.9605 -0.9238 -0.1698
  666MOL0     C89784  10.231   9.400   8.736  0.7053  0.9501  0.4120
  666MOL0     C89785  10.325   9.422   8.859  0.5326  0.1642  0.3776
  666MOL0     C89786  10.438   9.524   8.820 -0.7474  0.0373 -0.6695
  666MOL0     C89787  10.539   9.539   8.933  0.3542  0.4692 -0.1289
  666MOL0     C89788  10.664   9.618   8.912 -0.2183  0.0710  0.0820
  666MOL0     C89789  10.767   9.548   8.820 -0.9308  0.1322  0.1729
  666MOL0     C89790  10.871   9.448   8.874 -0.0587  0.2853 -0.0321
  666MOL0     C89791  10.951   9.384   8.767  0.6225  0.1395 -0.0932
  666MOL0     N89792  11.047   9.470   8.686 -0.2851 -0.1637 -0.6075
  666MOL0     C89793  11.016   9.559   8.584  0.2538  1.4441  0.5438
  666MOL0     C89794  11.127   9.618   8.546  0.8768 -0.0732  0.1580
  666MOL0     C89795  11.136   9.710   8.424 -0.5430  0.1372 -0.5829
  666MOL0     C89796  11.132   9.846   8.471  0.4300  0.0866  0.3653
  666MOL0     C89797  11.231   9.928   8.388 -0.7315  0.6415  0.3881
  666MOL0     C89798  11.161  10.058   8.327 -0.0169  0.6440 -0.2570
  666MOL0     O89799  11.139  10.150   8.436 -0.4982  0.2560  0.0456
  666MOL0     C89800  11.175  10.276   8.407 -0.2837  0.8463 -0.0694
  666MOL0     C89801  11.293  10.312   8.346 -0.8194 -0.2980 -0.1626
  666MOL0     C89802  11.327  10.447   8.335 -0.3363 -0.1259 -0.2803
  666MOL0     C89803  11.246  10.550   8.383 -0.1238  0.2799  0.3426
  666MOL0     C89804  11.272  10.691   8.348  0.5335 -0.3145 -0.1998
  666MOL0     O89805  11.157  10.771   8.340 -0.4366 -0.5505  0.2753
  666MOL0     C89806  11.169  10.904   8.314 -0.4432 -0.5915  0.2919
  666MOL0     C89807  11.281  10.986   8.329 -0.7739 -0.1402  0.0381
  666MOL0     C89808  11.276  11.124   8.298 -0.1738  0.1199 -0.3079
  666MOL0     C89809  11.160  11.191   8.251  1.2084 -0.1180  0.1589
  666MOL0     O89810  11.138  11.324   8.225  0.4049 -0.1250  0.0533
  666MOL0     C89811  11.233  11.417   8.252 -0.5703 -0.7043  0.0466
  666MOL0     C89812  11.190  11.550   8.195  0.1587 -0.6547 -0.1573
  666MOL0     C89813  11.182  11.548   8.041  0.4260  0.0496  0.2204
  666MOL0     C89814  11.233  11.695   7.992 -0.3547  0.9509  0.6216
  666MOL0     C89815  11.193  11.719   7.848  0.5282  0.9567  0.3172
  666MOL0     C89816  11.258  11.606   7.760 -0.1412 -0.8179  0.0298
  666MOL0     C89817  11.240  11.628   7.611  0.0851  0.3989  0.1484
  666MOL0     C89818  11.324  11.517   7.548  0.3990 -0.4343 -0.0859
  666MOL0    Cl89819  11.502  11.559   7.550  0.5063  0.3981 -0.1869
  666MOL0     C89820  11.056  11.108   8.222 -0.3964 -0.4092  0.3425
  666MOL0     C89821  11.057  10.975   8.263  0.9959 -0.7495  0.5008
  666MOL0     O89822  11.387  10.717   8.320  0.8204 -0.5573 -0.2652
  666MOL0     C89823  11.124  10.511   8.452  0.1690  0.4637  0.3838
  666MOL0     C89824  11.093  10.378   8.467 -0.1645  0.2183 -0.6634
  666MOL0     N89825  11.225   9.579   8.626  0.7572  0.1775  0.3284
  666MOL0     N89826  11.176   9.493   8.715  0.1052  0.1444 -0.6059
  666MOL0     C89827   9.989   9.132   8.669 -0.0922 -0.9649 -0.9131
  666MOL0     C89828   9.893   9.096   8.581 -0.2513 -0.3168  0.4865
  666MOL0     C89829   9.509   9.108   8.358  0.1072 -0.3034 -1.0664
  666MOL0     C89830   9.542   9.054   8.236  0.4644 -1.1514  0.6299
  666MOL0     C89831   9.436   8.990   8.166 -1.0023  0.2401 -0.1027
  666MOL0     C89832   9.316   8.963   8.222 -0.2656 -0.4105  0.5744
  666MOL0     O89833   9.229   8.893   8.141 -0.3531 -0.1500 -0.0633
  666MOL0     C89834   9.089   8.922   8.155  0.7047 -0.2698  0.1294
  666MOL0     C89835   8.998   8.817   8.078 -0.0114  0.0056  0.5895
  666MOL0     C89836   8.991   8.684   8.147  0.4085  0.4747  0.3282
  666MOL0     C89837   8.852   8.680   8.221 -0.6981  0.2520  1.1503
  666MOL0     C89838   8.840   8.544   8.271 -0.1271 -0.8215 -0.2355
  666MOL0     C89839   8.808   8.430   8.299 -0.4832 -1.1002  0.3411
  666MOL0     C89840   9.292   8.997   8.351 -0.4217 -0.2057 -0.0009
  666MOL0     C89841   9.381   9.080   8.420  0.1966  0.3515  0.0507
  666MOL0     C89842   9.344   9.126   8.555 -0.6621  0.0047 -0.4286
  666MOL0     H89843   9.862   9.376   8.406 -2.6739 -0.9435  0.1770
  666MOL0     H89844  10.065   9.434   8.539  1.5264 -1.3874 -1.6868
  666MOL0     H89845  10.296   9.393   8.649  0.7459  2.1924  0.3225
  666MOL0     H89846  10.174   9.494   8.737  2.6981  2.4638 -4.0761
  666MOL0     H89847  10.370   9.332   8.901  3.2908 -0.3019 -3.0949
  666MOL0     H89848  10.271   9.463   8.945 -0.9953  0.7264 -0.7875
  666MOL0     H89849  10.389   9.619   8.793 -0.0052  0.4689 -0.5165
  666MOL0     H89850  10.484   9.493   8.726  1.5402  0.3497  0.2842
  666MOL0     H89851  10.480   9.589   9.011  0.2325  1.4409 -0.8211
  666MOL0     H89852  10.562   9.440   8.973 -1.5095 -0.1006 -0.3699
  666MOL0     H89853  10.650   9.717   8.868  0.9009  0.1276 -0.1881
  666MOL0     H89854  10.705   9.628   9.013  0.8131 -2.0351 -0.0682
  666MOL0     H89855  10.710   9.503   8.739  1.4545 -3.0892  0.1028
  666MOL0     H89856  10.835   9.623   8.778 -0.3026 -0.8003 -0.5183
  666MOL0     H89857  10.817   9.364   8.919 -1.4346  1.9395  1.5591
  666MOL0     H89858  10.939   9.491   8.949  1.6030 -3.3789  0.8173
  666MOL0     H89859  10.999   9.288   8.789  0.5485 -0.1032 -0.9450
  666MOL0     H89860  10.873   9.348   8.699  0.5493 -0.8242  0.4838
  666MOL0     H89861  10.917   9.572   8.540 -0.3302 -2.8404  0.1554
  666MOL0     H89862  11.232   9.681   8.382  0.5610 -1.5548  2.7389
  666MOL0     H89863  11.057   9.695   8.351  0.1316 -0.0250 -1.2895
  666MOL0     H89864  11.029   9.881   8.463 -1.0007 -3.6880 -0.0849
  666MOL0     H89865  11.162   9.848   8.576 -0.5501 -1.2834  0.7022
  666MOL0     H89866  11.276   9.879   8.300  2.0166  1.7372  1.0576
  666MOL0     H89867  11.310   9.961   8.456  0.7976 -2.5951  0.3757
  666MOL0     H89868  11.062  10.042   8.281 -0.0560 -0.2822  0.1208
  666MOL0     H89869  11.232  10.083   8.247  1.3455 -1.8572  0.0463
  666MOL0     H89870  11.366  10.238   8.313  1.7499  1.3770  1.3547
  666MOL0     H89871  11.427  10.479   8.307  0.2506  0.4619  2.2451
  666MOL0     H89872  11.380  10.960   8.367 -0.4396 -1.2399 -1.4729
  666MOL0     H89873  11.365  11.183   8.319  0.9611 -0.9882 -1.8157
  666MOL0     H89874  11.243  11.436   8.359  2.1639  2.0710 -0.5443
  666MOL0     H89875  11.329  11.405   8.200 -0.7857 -0.0434 -0.5253
  666MOL0     H89876  11.095  11.577   8.242  1.7429  0.5928  2.6005
  666MOL0     H89877  11.263  11.628   8.221 -0.7209 -0.3147  1.4071
  666MOL0     H89878  11.247  11.464   8.016  0.0475 -0.7531  1.7792
  666MOL0     H89879  11.082  11.537   7.997  0.1148  0.5335  0.7840
  666MOL0     H89880  11.338  11.715   8.013  0.0856 -1.5575  1.0924
  666MOL0     H89881  11.168  11.764   8.047 -1.3662 -1.8819  3.2717
  666MOL0     H89882  11.239  11.812   7.814  0.7306  0.2053 -1.5742
  666MOL0     H89883  11.084  11.713   7.838  0.6151 -2.9349  0.1478
  666MOL0     H89884  11.366  11.604   7.777  0.3636  0.5672 -2.4969
  666MOL0     H89885  11.221  11.506   7.782  0.2527 -0.7355  1.1223
  666MOL0     H89886  11.279  11.728   7.589 -0.1861  0.7866  1.3372
  666MOL0     H89887  11.134  11.625   7.583 -0.4218  0.1091  2.0048
  666MOL0     H89888  11.295  11.425   7.600 -3.7471  0.7267  0.0118
  666MOL0     H89889  11.286  11.496   7.447  1.8504 -2.1306 -0.3423
  666MOL0     H89890  10.959  11.143   8.189 -0.2206 -1.1030 -0.9829
  666MOL0     H89891  10.962  10.924   8.250  0.2460  0.8523 -0.6440
  666MOL0     H89892  11.058  10.592   8.480  0.0406  0.3303  0.4619
  666MOL0     H89893  11.009  10.357   8.532 -0.9377  1.2701 -1.2829
  666MOL0     H89894  10.026   9.062   8.745  3.3389  3.5748  2.2047
  666MOL0     H89895   9.850   8.997   8.584 -1.8584  0.2291 -1.9146
  666MOL0     H89896   9.635   9.079   8.185 -0.2744 -0.5130 -0.4668
  666MOL0     H89897   9.444   8.953   8.065 -1.9356  2.3964 -1.0335
  666MOL0     H89898   9.076   9.021   8.110  1.4648 -0.4752 -0.5658
  666MOL0     H89899   9.042   8.918   8.253 -1.6547 -2.4281 -0.9619
  666MOL0     H89900   9.036   8.800   7.977  0.5119  1.3221  0.5450
  666MOL0     H89901   8.900   8.865   8.069  0.1546  0.2038 -0.2461
  666MOL0     H89902   9.067   8.662   8.222  1.3948 -1.1767 -1.0885
  666MOL0     H89903   8.985   8.608   8.068 -0.4916  0.5616  0.3054
  666MOL0     H89904   8.849   8.748   8.306 -1.6555 -1.1052  2.2530
  666MOL0     H89905   8.776   8.718   8.151  0.8907  0.7639 -0.3479
  666MOL0     H89906   8.779   8.329   8.318 -1.2819 -0.4519  2.9404
  666MOL0     H89907   9.202   8.960   8.398 -0.7523  2.2635  1.4710
  666MOL0     H89908   9.324   9.233   8.546 -0.0359 -0.0515 -5.3581
  666MOL0     H89909   9.257   9.064   8.581 -0.1671 -1.2483 -1.6341
  666MOL0     H89910   9.430   9.113   8.620 -0.1809  0.2752 -0.9999
  667MOL0     O89911  10.631   1.093   3.785  0.4895 -1.2143  0.2104
  667MOL0     C89912  10.625   1.109   3.661  0.4072  0.2024 -0.1764
  667MOL0     O89913  10.726   1.079   3.579  0.0216 -0.2013  0.2803
  667MOL0     C89914  10.839   1.022   3.626 -0.0892  0.3061 -0.1902
  667MOL0     C89915  10.836   0.898   3.667 -0.1875  0.5226 -1.1783
  667MOL0     C89916  10.942   0.847   3.740 -0.6019  0.0079  0.2622
  667MOL0     C89917  11.069   0.918   3.757 -0.0316 -0.7543  0.5119
  667MOL0     O89918  11.170   0.886   3.832 -0.1669  0.0903  0.3434
  667MOL0     C89919  11.210   0.748   3.844 -0.1386  0.8705  0.7667
  667MOL0     C89920  11.272   0.726   3.984  0.1803 -0.3477 -0.4665
  667MOL0     C89921  11.393   0.625   4.004 -0.7910 -0.2448 -0.0938
  667MOL0     C89922  11.349   0.482   3.995 -0.1833  0.7630  0.7051
  667MOL0     C89923  11.464   0.375   4.010  0.9487  0.4770  0.4858
  667MOL0     C89924  11.566   0.374   3.893 -0.2027 -0.0765  0.4468
  667MOL0     C89925  11.677   0.271   3.941 -0.1223  0.3358 -0.9107
  667MOL0     C89926  11.768   0.216   3.827  0.3251 -1.2072 -0.0396
  667MOL0     N89927  11.886   0.295   3.827 -0.5432 -0.4982 -0.4191
  667MOL0     C89928  11.902   0.434   3.827  0.1274  0.2824  0.6798
  667MOL0     C89929  12.032   0.461   3.830 -0.2594 -0.5604 -0.0750
  667MOL0     C89930  12.085   0.599   3.842  0.6729  0.2737 -0.4110
  667MOL0     C89931  12.231   0.604   3.820 -0.3130  0.2500 -0.0986
  667MOL0     C89932  12.278   0.750   3.830  1.2493  0.2373 -0.1340
  667MOL0     C89933  12.420   0.781   3.847  0.1920  0.5454  0.1711
  667MOL0     O89934  12.453   0.914   3.836  0.6154 -0.2919 -0.0971
  667MOL0     C89935  12.541   0.978   3.914 -0.7235  0.6794  0.7220
  667MOL0     C89936  12.644   0.909   3.986  0.5688  0.4026  0.3972
  667MOL0     C89937  12.728   0.995   4.054 -0.6243 -0.2251  0.1711
  667MOL0     C89938  12.726   1.137   4.060  0.3481  0.3975  0.4672
  667MOL0     C89939  12.830   1.204   4.131 -0.1849 -0.8032  0.0373
  667MOL0     O89940  12.791   1.310   4.200  0.4522 -0.1881 -0.0325
  667MOL0     C89941  12.878   1.396   4.268  0.4918 -0.0106 -0.1871
  667MOL0     C89942  12.836   1.440   4.399  1.0684 -0.0921 -0.4545
  667MOL0     C89943  12.910   1.517   4.479 -0.1051  0.6001 -1.1974
  667MOL0     C89944  13.041   1.561   4.443 -0.7717 -0.2482 -0.6183
  667MOL0     O89945  13.127   1.623   4.539  0.7835 -0.1764 -0.0578
  667MOL0     C89946  13.213   1.722   4.481  0.7146 -0.4822 -0.1189
  667MOL0     C89947  13.322   1.727   4.577  0.1218 -0.4575 -0.0964
  667MOL0     C89948  13.431   1.815   4.540 -0.7791 -0.2888 -0.5711
  667MOL0     C89949  13.543   1.822   4.642  0.8949 -0.1489  0.3179
  667MOL0     C89950  13.649   1.913   4.578  0.3277  0.2458 -1.0068
  667MOL0     C89951  13.789   1.886   4.627 -0.0658 -0.0191  0.3500
  667MOL0     C89952  13.862   1.759   4.565  0.2129 -0.2064  0.8130
  667MOL0     C89953  13.894   1.763   4.412  0.8775 -0.3014 -0.1089
  667MOL0    Cl89954  13.938   1.931   4.352  0.0374  0.1529  0.2460
  667MOL0     C89955  13.083   1.512   4.314 -0.2699  0.1662  0.3104
  667MOL0     C89956  13.012   1.421   4.238 -0.1042 -0.7729  0.0993
  667MOL0     O89957  12.946   1.166   4.107 -0.1919 -0.4453  0.2067
  667MOL0     C89958  12.626   1.198   3.981 -0.1871 -0.0472  0.3293
  667MOL0     C89959  12.537   1.111   3.909  0.2447 -1.4539 -0.7364
  667MOL0     N89960  12.099   0.348   3.839  0.1483  0.5787  0.1583
  667MOL0     N89961  12.015   0.249   3.843  0.4363 -0.8767  0.1832
  667MOL0     C89962  11.069   1.044   3.701  0.6908  1.0881 -0.0675
  667MOL0     C89963  10.956   1.101   3.642  0.0154  0.3761 -0.2776
  667MOL0     C89964  10.497   1.150   3.594 -0.3240 -0.5432  0.6147
  667MOL0     C89965  10.485   1.128   3.455  0.1375  0.0074 -0.0537
  667MOL0     C89966  10.368   1.167   3.388  0.0328 -0.3093 -0.4370
  667MOL0     C89967  10.256   1.218   3.461  0.7610  0.6509  0.1562
  667MOL0     O89968  10.130   1.230   3.407  1.0638  0.8339 -0.2324
  667MOL0     C89969  10.079   1.172   3.285 -0.2917 -0.3630  0.1423
  667MOL0     C89970   9.966   1.074   3.313 -0.2158 -0.7048 -0.4628
  667MOL0     C89971   9.877   1.101   3.433  0.7855  0.3577 -0.6819
  667MOL0     C89972   9.736   1.044   3.427 -0.6790 -0.6061  0.8506
  667MOL0     C89973   9.747   0.902   3.391 -0.4325  0.6709  0.2245
  667MOL0     C89974   9.779   0.796   3.353  0.0265  0.1168  0.1597
  667MOL0     C89975  10.264   1.233   3.596  0.0134  0.2173  0.4669
  667MOL0     C89976  10.384   1.214   3.666 -0.7500 -0.7353  0.8312
  667MOL0     C89977  10.377   1.244   3.811  0.0187 -0.0810  1.0613
  667MOL0     H89978  10.761   0.821   3.650 -0.8159  0.1885  2.3022
  667MOL0     H89979  10.921   0.743   3.766 -1.4208  0.1506  0.2074
  667MOL0     H89980  11.131   0.673   3.840  0.3635  0.4017 -1.4776
  667MOL0     H89981  11.281   0.724   3.764 -1.3229 -1.4056  0.3166
  667MOL0     H89982  11.189   0.698   4.050 -0.3954 -0.3447 -1.1725
  667MOL0     H89983  11.306   0.826   4.014 -1.5208  1.0249 -2.7484
  667MOL0     H89984  11.446   0.639   4.099  0.6838  2.5777 -1.2135
  667MOL0     H89985  11.460   0.647   3.920 -4.6277 -2.3128 -4.0967
  667MOL0     H89986  11.278   0.455   4.074 -1.0778 -0.7610 -0.5446
  667MOL0     H89987  11.288   0.457   3.908 -0.9429 -1.1930  1.7320
  667MOL0     H89988  11.504   0.370   4.112 -1.9309  2.2904  1.8458
  667MOL0     H89989  11.406   0.284   3.990  2.7000 -0.1667 -2.0874
  667MOL0     H89990  11.513   0.350   3.801 -2.1525 -0.8107  1.6952
  667MOL0     H89991  11.614   0.470   3.875 -2.9201  1.0563 -1.2279
  667MOL0     H89992  11.616   0.184   3.964  1.8683 -1.3404 -1.6726
  667MOL0     H89993  11.740   0.294   4.027  3.1633 -3.8931 -1.8608
  667MOL0     H89994  11.804   0.114   3.848  4.1874 -0.3558 -1.7136
  667MOL0     H89995  11.724   0.210   3.726 -0.3996 -2.0386  0.3042
  667MOL0     H89996  11.823   0.509   3.826 -0.1354  0.0039  0.3965
  667MOL0     H89997  12.057   0.666   3.761 -0.9128 -0.7724 -0.7739
  667MOL0     H89998  12.060   0.639   3.941  3.5402 -1.0320  0.9850
  667MOL0     H89999  12.278   0.550   3.902  0.8124 -0.2097 -1.0189
  667MOL0     H90000  12.262   0.565   3.722  0.3564  2.9220 -1.0351
  667MOL0     H90001  12.223   0.799   3.911  1.5102  0.6595 -0.2051
  667MOL0     H90002  12.240   0.795   3.737 -1.2441 -0.3828  0.5204
  667MOL0     H90003  12.476   0.722   3.773  0.1271 -0.7526  1.1165
  667MOL0     H90004  12.459   0.747   3.944  1.0519 -0.2900 -0.4402
  667MOL0     H90005  12.655   0.801   3.984  0.4745  0.3768 -2.3876
  667MOL0     H90006  12.814   0.949   4.102 -0.3772  0.0841  0.0306
  667MOL0     H90007  12.753   1.386   4.442  1.6699  0.8880  2.0757
  667MOL0     H90008  12.863   1.548   4.572  0.6282 -1.3102 -0.1433
  667MOL0     H90009  13.255   1.700   4.382 -0.7104 -4.2006 -0.0518
  667MOL0     H90010  13.166   1.820   4.463  0.7265 -0.7120 -1.4805
  667MOL0     H90011  13.280   1.761   4.672  0.0324  0.3778 -0.4216
  667MOL0     H90012  13.368   1.629   4.589  0.8354  0.1160  2.6628
  667MOL0     H90013  13.470   1.764   4.452 -0.0887 -1.9648  0.6389
  667MOL0     H90014  13.398   1.915   4.513  2.7129  1.3286  0.6028
  667MOL0     H90015  13.578   1.719   4.659 -1.1501 -1.0989 -0.8841
  667MOL0     H90016  13.510   1.868   4.735  0.7705  0.7770 -0.1785
  667MOL0     H90017  13.614   2.012   4.608  0.1113 -0.0190 -0.3703
  667MOL0     H90018  13.646   1.908   4.469 -2.1893 -0.1405 -0.9718
  667MOL0     H90019  13.856   1.971   4.612 -0.5252  0.0304 -1.8591
  667MOL0     H90020  13.787   1.874   4.735  3.1296  2.8996  0.8977
  667MOL0     H90021  13.805   1.669   4.589 -2.2583  1.5206  1.7949
  667MOL0     H90022  13.954   1.764   4.624  1.0211  1.3319 -0.4749
  667MOL0     H90023  13.969   1.689   4.382  1.5912 -0.7695  2.5476
  667MOL0     H90024  13.801   1.744   4.358 -0.2405  5.5390 -0.8190
  667MOL0     H90025  13.181   1.536   4.274 -0.9284  2.0741 -0.2396
  667MOL0     H90026  13.058   1.377   4.150  1.3599 -2.1343  1.4716
  667MOL0     H90027  12.615   1.304   3.956 -0.3930 -0.4494 -1.4646
  667MOL0     H90028  12.461   1.162   3.850  0.5916 -0.2292 -0.1583
  667MOL0     H90029  11.162   1.098   3.715  1.2407 -0.2681  1.8560
  667MOL0     H90030  10.962   1.207   3.619 -0.1206  0.8455  1.6718
  667MOL0     H90031  10.568   1.094   3.395  1.8476  4.5410 -0.6975
  667MOL0     H90032  10.369   1.157   3.280 -1.5373  3.3397 -0.9438
  667MOL0     H90033  10.160   1.118   3.235  1.1543  1.5709  0.3144
  667MOL0     H90034  10.044   1.254   3.222  0.4913 -0.0348  0.1257
  667MOL0     H90035  10.015   0.978   3.328 -0.5178 -0.4403  2.9986
  667MOL0     H90036   9.896   1.076   3.229 -1.1670  2.4887  0.2743
  667MOL0     H90037   9.876   1.208   3.458  0.7767 -0.0834  1.4015
  667MOL0     H90038   9.924   1.067   3.526 -1.2917  0.7781  0.5879
  667MOL0     H90039   9.692   1.052   3.527 -1.8535 -0.5601  0.3408
  667MOL0     H90040   9.681   1.087   3.343 -1.2782 -2.2876  0.3345
  667MOL0     H90041   9.814   0.712   3.297 -0.1618  0.9070 -1.2089
  667MOL0     H90042  10.169   1.239   3.647 -1.2099 -3.0670 -1.1031
  667MOL0     H90043  10.375   1.152   3.871  0.8057 -0.1757  0.9560
  667MOL0     H90044  10.455   1.310   3.849 -1.6093  1.8565  1.1846
  667MOL0     H90045  10.286   1.302   3.827  1.8712  2.9277  1.5161
  668MOL0     O90046   0.386   5.102   5.115 -0.0531  0.4174 -0.7287
  668MOL0     C90047   0.311   5.101   5.218 -0.0096 -1.3363 -0.4614
  668MOL0     O90048   0.317   5.192   5.321  0.6581 -0.2497 -0.9884
  668MOL0     C90049   0.422   5.282   5.331 -0.0295  0.1093  0.1304
  668MOL0     C90050   0.420   5.385   5.237  0.2781 -0.1512 -0.1365
  668MOL0     C90051   0.519   5.489   5.239 -0.6092 -0.0729 -0.1391
  668MOL0     C90052   0.622   5.491   5.330  0.3724 -0.0682 -0.5310
  668MOL0     O90053   0.718   5.592   5.312 -0.5094  0.3038 -0.2404
  668MOL0     C90054   0.763   5.643   5.438  0.0555  0.6895 -1.0382
  668MOL0     C90055   0.905   5.684   5.453 -0.7390 -0.8643  1.0018
  668MOL0     C90056   0.985   5.562   5.453 -0.6766  0.5583  0.1735
  668MOL0     C90057   1.137   5.587   5.430  0.1053 -0.9289  0.0184
  668MOL0     C90058   1.196   5.651   5.545  0.1170 -0.8294 -0.4745
  668MOL0     C90059   1.342   5.651   5.541 -0.5207 -0.8269  1.0745
  668MOL0     C90060   1.398   5.761   5.630 -0.1979 -0.2458  0.4948
  668MOL0     C90061   1.544   5.755   5.630 -0.1455 -0.3351  0.0465
  668MOL0     N90062   1.617   5.860   5.708 -0.6424  0.1249  0.4314
  668MOL0     C90063   1.650   5.982   5.656  1.1519 -0.5631 -0.3800
  668MOL0     C90064   1.701   6.056   5.757  0.0338  0.3523 -0.1632
  668MOL0     C90065   1.744   6.196   5.753  0.4715  0.1182  0.0803
  668MOL0     C90066   1.895   6.210   5.780  0.0154 -0.7960  0.7153
  668MOL0     C90067   1.942   6.353   5.759  0.0030  0.2079 -1.1852
  668MOL0     C90068   2.096   6.344   5.808  1.1202  0.6345 -0.1845
  668MOL0     O90069   2.110   6.327   5.952 -0.1076  0.7574 -0.1486
  668MOL0     C90070   2.217   6.262   6.000 -0.5268 -0.0825 -0.4204
  668MOL0     C90071   2.306   6.193   5.929 -0.9310 -0.5374  0.2952
  668MOL0     C90072   2.425   6.133   5.977 -0.1526  0.1855 -0.3074
  668MOL0     C90073   2.461   6.164   6.112 -0.3921  0.6659 -0.1078
  668MOL0     C90074   2.595   6.121   6.178 -0.5928 -0.4342 -0.0897
  668MOL0     O90075   2.685   6.057   6.100  0.0699  0.6178 -0.2592
  668MOL0     C90076   2.812   6.014   6.141 -0.0449  1.1073  0.7676
  668MOL0     C90077   2.920   6.042   6.062  0.0326  1.0851  0.0848
  668MOL0     C90078   3.049   6.001   6.094 -0.5031 -1.2782 -0.4320
  668MOL0     C90079   3.079   5.923   6.217 -0.5411  0.5749 -0.0333
  668MOL0     O90080   3.202   5.901   6.274 -0.1093  0.5281 -0.0779
  668MOL0     C90081   3.305   5.969   6.213  0.0706  0.2854 -0.1187
  668MOL0     C90082   3.432   5.967   6.294  0.6782  0.9694  0.1477
  668MOL0     C90083   3.520   5.845   6.277 -0.2700  0.2770  0.8659
  668MOL0     C90084   3.645   5.851   6.366 -0.3369  0.3067 -0.4243
  668MOL0     C90085   3.725   5.718   6.364  0.2707  0.5906 -0.2929
  668MOL0     C90086   3.806   5.707   6.490 -1.0525 -0.7552 -0.4511
  668MOL0     C90087   3.956   5.749   6.463  0.1902 -1.2903  0.0509
  668MOL0     C90088   4.048   5.712   6.586  0.1205 -0.2764 -0.2750
  668MOL0    Cl90089   4.211   5.767   6.545 -0.5236  0.3019 -0.0521
  668MOL0     C90090   2.964   5.897   6.292 -0.5545  0.1790 -0.1926
  668MOL0     C90091   2.832   5.942   6.260  0.3027 -0.3847  0.3215
  668MOL0     O90092   2.618   6.144   6.302  1.2168 -0.0477 -0.0304
  668MOL0     C90093   2.373   6.248   6.187  0.4553  0.6433 -0.5739
  668MOL0     C90094   2.253   6.287   6.135  0.3708 -1.1706  0.7051
  668MOL0     N90095   1.708   5.966   5.866  0.1602  0.1799  0.2394
  668MOL0     N90096   1.652   5.849   5.844 -0.4450 -0.8523  1.1259
  668MOL0     C90097   0.640   5.379   5.414  0.3243 -0.7086 -0.1386
  668MOL0     C90098   0.543   5.275   5.411  1.1057 -0.1699 -0.0645
  668MOL0     C90099   0.233   4.985   5.258  0.1820  0.5811 -0.4790
  668MOL0     C90100   0.179   4.973   5.388  0.1200 -0.4132  0.9755
  668MOL0     C90101   0.101   4.867   5.429  0.1940 -0.3348  0.8616
  668MOL0     C90102   0.036   4.779   5.336  0.3405  0.7446 -0.2031
  668MOL0     O90103  -0.062   4.695   5.377  0.3107 -0.4600  0.4965
  668MOL0     C90104  -0.025   4.596   5.473  0.1518  0.4291  0.6784
  668MOL0     C90105  -0.101   4.465   5.464  0.1287  1.1162  0.2817
  668MOL0     C90106  -0.067   4.381   5.353 -0.0448  0.1406  1.0699
  668MOL0     C90107  -0.055   4.230   5.391  0.0533  1.2323  0.3057
  668MOL0     C90108  -0.068   4.136   5.281  0.0280 -0.5818  0.5047
  668MOL0     C90109  -0.071   4.052   5.184  0.4390 -0.0603  0.3353
  668MOL0     C90110   0.093   4.774   5.208  0.0310 -1.2370  0.1024
  668MOL0     C90111   0.185   4.885   5.168 -0.4075  0.4291 -0.5594
  668MOL0     C90112   0.226   4.881   5.025 -0.9513  0.6154  0.4645
  668MOL0     H90113   0.342   5.384   5.162 -0.8002  1.7806  0.8664
  668MOL0     H90114   0.515   5.566   5.163 -0.1202 -1.7249 -1.9421
  668MOL0     H90115   0.705   5.733   5.459 -2.7140 -1.1184 -0.4986
  668MOL0     H90116   0.735   5.574   5.519  0.7131  1.3548 -0.2185
  668MOL0     H90117   0.921   5.761   5.529  0.7988  1.3030 -1.3416
  668MOL0     H90118   0.924   5.739   5.361 -0.3375  1.0470  2.1847
  668MOL0     H90119   0.953   5.505   5.365  0.4302 -0.6742  0.5347
  668MOL0     H90120   0.975   5.516   5.552 -0.4628 -0.3134 -0.2005
  668MOL0     H90121   1.164   5.481   5.418 -3.2095 -2.1839  2.1741
  668MOL0     H90122   1.154   5.643   5.338  0.2106 -4.3939 -2.2743
  668MOL0     H90123   1.160   5.753   5.559  1.1819  0.0356 -3.3364
  668MOL0     H90124   1.171   5.582   5.625 -3.6334 -0.1455 -0.8935
  668MOL0     H90125   1.385   5.553   5.563 -1.9115 -1.7067  0.0665
  668MOL0     H90126   1.370   5.689   5.442  0.4559 -1.9168  0.9101
  668MOL0     H90127   1.360   5.755   5.732 -1.6192 -1.8609 -0.0811
  668MOL0     H90128   1.373   5.854   5.578 -0.0714  0.7262  2.1386
  668MOL0     H90129   1.589   5.661   5.663  0.1669 -0.4976 -0.8183
  668MOL0     H90130   1.587   5.766   5.530  1.5350 -1.2439  0.6189
  668MOL0     H90131   1.622   6.026   5.560 -1.4519  0.1944  0.6436
  668MOL0     H90132   1.731   6.238   5.653  2.0206  1.7007  0.4774
  668MOL0     H90133   1.681   6.251   5.825  1.0388  1.2080 -0.2240
  668MOL0     H90134   1.931   6.190   5.881  3.5574  0.0663 -0.2327
  668MOL0     H90135   1.949   6.140   5.716 -0.4468 -0.9095  0.4446
  668MOL0     H90136   1.888   6.427   5.819 -2.0702 -1.1421 -1.2624
  668MOL0     H90137   1.943   6.379   5.653 -0.6329  0.1544 -1.2130
  668MOL0     H90138   2.154   6.430   5.777  1.8456  0.3100  0.2468
  668MOL0     H90139   2.128   6.263   5.742 -1.1118  1.4583 -2.4551
  668MOL0     H90140   2.291   6.162   5.826  1.1067 -0.5736 -0.0470
  668MOL0     H90141   2.498   6.077   5.921  1.2736  0.2720  1.3776
  668MOL0     H90142   2.898   6.116   5.987 -0.5880  2.4579  1.5478
  668MOL0     H90143   3.129   6.043   6.034 -0.7571  0.7280  0.5393
  668MOL0     H90144   3.327   5.921   6.117  1.1015 -0.8126  0.6413
  668MOL0     H90145   3.273   6.073   6.207 -0.8268  0.0734  0.7802
  668MOL0     H90146   3.503   6.045   6.263  1.2792 -0.1736 -1.4748
  668MOL0     H90147   3.408   5.968   6.400 -0.2711 -0.7453 -0.0159
  668MOL0     H90148   3.465   5.754   6.302  1.2573 -0.5629  1.3094
  668MOL0     H90149   3.558   5.832   6.175 -0.1653 -0.8798  1.0368
  668MOL0     H90150   3.608   5.873   6.467 -1.8488 -6.5489  1.0132
  668MOL0     H90151   3.712   5.923   6.319 -2.8263  2.5449 -0.7599
  668MOL0     H90152   3.792   5.705   6.278  0.3786  0.5916 -0.2097
  668MOL0     H90153   3.663   5.630   6.350 -0.4654  1.1588 -0.6670
  668MOL0     H90154   3.763   5.771   6.567 -2.5616  0.2919 -2.0721
  668MOL0     H90155   3.797   5.608   6.536 -1.8602 -1.3914 -1.9187
  668MOL0     H90156   3.966   5.856   6.445  0.2994 -1.5560 -1.6660
  668MOL0     H90157   4.001   5.703   6.374 -0.4260 -1.5959 -0.1082
  668MOL0     H90158   4.004   5.766   6.671 -1.0670 -1.2764 -0.2337
  668MOL0     H90159   4.057   5.605   6.602  1.9803  0.0278  0.8878
  668MOL0     H90160   2.991   5.832   6.375 -0.5455 -1.1011 -1.1805
  668MOL0     H90161   2.748   5.928   6.326 -0.0731 -1.5285 -0.3784
  668MOL0     H90162   2.394   6.293   6.283  0.0613  2.2934 -1.2201
  668MOL0     H90163   2.186   6.353   6.189  1.0832 -1.5107  2.0379
  668MOL0     H90164   0.728   5.366   5.475 -0.2747  4.0666  2.1572
  668MOL0     H90165   0.569   5.190   5.474  1.9722 -0.0026 -0.1843
  668MOL0     H90166   0.203   5.051   5.459  0.4715  1.3000 -0.9235
  668MOL0     H90167   0.061   4.881   5.529  2.1098  0.1727  1.6044
  668MOL0     H90168  -0.034   4.639   5.573  2.2634  5.6214 -0.9845
  668MOL0     H90169   0.080   4.570   5.454 -0.2801 -0.6220 -0.3816
  668MOL0     H90170  -0.209   4.471   5.473  0.0834 -1.5226  3.1412
  668MOL0     H90171  -0.069   4.413   5.555  0.6153 -3.4837 -2.2239
  668MOL0     H90172   0.031   4.407   5.312 -1.5129 -0.1382 -3.1510
  668MOL0     H90173  -0.141   4.394   5.274 -1.1751  1.2522  2.2811
  668MOL0     H90174   0.044   4.210   5.433  0.7046  0.8616 -1.3483
  668MOL0     H90175  -0.124   4.203   5.472  0.5170 -1.6378 -0.1520
  668MOL0     H90176  -0.094   3.961   5.133 -1.0828  0.0223  0.8351
  668MOL0     H90177   0.063   4.702   5.134  1.0759 -2.3480  0.7177
  668MOL0     H90178   0.194   4.794   4.966 -1.3639  1.0074  0.1015
  668MOL0     H90179   0.201   4.970   4.967  1.3890  0.9961 -0.0678
  668MOL0     H90180   0.335   4.881   5.016 -0.7745 -2.3633  1.5539
  669MOL0     O90181   2.626   0.915   1.865 -0.1467 -0.2937 -0.0625
  669MOL0     C90182   2.623   1.015   1.943  0.5622  0.5761  0.1535
  669MOL0     O90183   2.717   1.057   2.026  0.3529 -1.4274  0.1006
  669MOL0     C90184   2.841   1.023   1.984  0.0270  0.0077  0.0068
  669MOL0     C90185   2.912   1.091   1.882 -0.4704  0.3329 -0.0749
  669MOL0     C90186   3.041   1.057   1.849  0.7872  0.2413  0.2096
  669MOL0     C90187   3.107   0.954   1.915  0.8019 -0.6452  0.4752
  669MOL0     O90188   3.236   0.925   1.895 -0.3905  0.1085  0.1789
  669MOL0     C90189   3.331   1.027   1.915  0.0088 -0.2552 -1.1690
  669MOL0     C90190   3.457   0.980   1.978  0.5188 -0.0310 -0.5270
  669MOL0     C90191   3.572   1.080   1.945 -0.0237  1.0782 -0.3314
  669MOL0     C90192   3.628   1.060   1.804 -0.5122  0.3930 -0.3421
  669MOL0     C90193   3.712   1.180   1.769 -0.3149  0.4865 -0.5669
  669MOL0     C90194   3.806   1.149   1.651  0.5324 -0.2664 -0.5560
  669MOL0     C90195   3.872   1.266   1.587  0.0103 -0.0433 -0.3657
  669MOL0     C90196   3.951   1.361   1.686  0.0195 -0.4531 -0.1094
  669MOL0     N90197   3.987   1.481   1.614  0.1417 -0.5308 -0.1882
  669MOL0     C90198   4.060   1.483   1.505 -0.8520  0.2149 -0.0418
  669MOL0     C90199   4.027   1.601   1.443 -0.2372  0.2286  0.9226
  669MOL0     C90200   4.082   1.657   1.317  0.4633  0.4562  0.1618
  669MOL0     C90201   4.235   1.647   1.304 -0.0715  0.2481  0.2203
  669MOL0     C90202   4.276   1.677   1.154 -0.0425  0.0321  0.3099
  669MOL0     C90203   4.419   1.719   1.133  0.4819 -0.4471  0.4106
  669MOL0     O90204   4.459   1.825   1.215  0.1529 -0.4353  0.5908
  669MOL0     C90205   4.583   1.820   1.279 -0.0475 -0.6629  0.8344
  669MOL0     C90206   4.602   1.917   1.370 -0.1716  0.9063  0.1874
  669MOL0     C90207   4.728   1.938   1.424 -0.0827 -0.3799  0.0710
  669MOL0     C90208   4.840   1.861   1.395 -0.2868  0.2663 -0.2075
  669MOL0     C90209   4.963   1.876   1.466 -0.6918  0.1623 -0.2878
  669MOL0     O90210   5.055   1.774   1.471  0.4544  0.4665  0.0053
  669MOL0     C90211   5.159   1.774   1.557  0.2320  0.6406  1.1151
  669MOL0     C90212   5.293   1.744   1.496  0.2237  1.3541  0.2044
  669MOL0     C90213   5.408   1.765   1.566  0.4717  0.9596 -0.2355
  669MOL0     C90214   5.397   1.792   1.703  0.7894  0.1054  0.1226
  669MOL0     O90215   5.516   1.810   1.770  0.1968  0.4867  0.3713
  669MOL0     C90216   5.516   1.738   1.894 -0.4321  0.2018 -0.0497
  669MOL0     C90217   5.616   1.622   1.893  0.9349 -0.2891 -0.1142
  669MOL0     C90218   5.764   1.673   1.899  0.7681 -0.2709 -0.2078
  669MOL0     C90219   5.817   1.680   2.038 -0.1332  0.6656  0.1957
  669MOL0     C90220   5.948   1.753   2.032  0.1246 -0.3030 -0.6330
  669MOL0     C90221   6.034   1.696   2.152 -0.1747 -0.5345 -0.6210
  669MOL0     C90222   6.169   1.768   2.141  0.2163  0.3079  0.0016
  669MOL0     C90223   6.269   1.715   2.248 -0.1236 -0.0757  0.4126
  669MOL0    Cl90224   6.341   1.573   2.182  0.1965  0.0400  0.0655
  669MOL0     C90225   5.272   1.821   1.762  0.0398  0.3807  0.1938
  669MOL0     C90226   5.158   1.817   1.687 -0.9740  0.1117  0.5432
  669MOL0     O90227   4.982   1.982   1.517  0.6059  0.3086 -0.1483
  669MOL0     C90228   4.814   1.747   1.312 -0.3302 -0.2920  0.6125
  669MOL0     C90229   4.692   1.735   1.242 -0.1222  0.9843  0.3155
  669MOL0     N90230   3.952   1.669   1.528  0.1915  1.0302  0.4104
  669MOL0     N90231   3.924   1.597   1.632  0.1020 -0.0042 -0.0899
  669MOL0     C90232   3.025   0.885   2.015  0.1367  0.3000  0.0258
  669MOL0     C90233   2.899   0.922   2.053  0.2391  0.9454  0.9488
  669MOL0     C90234   2.508   1.100   1.959 -0.5964  0.1052  0.1724
  669MOL0     C90235   2.477   1.140   2.093  0.9522  0.2588 -1.2294
  669MOL0     C90236   2.378   1.230   2.110  0.8328  0.0307  0.2640
  669MOL0     C90237   2.304   1.283   2.002  0.4728 -0.5282 -0.0348
  669MOL0     O90238   2.211   1.379   2.024  0.7638 -0.4261  0.6484
  669MOL0     C90239   2.083   1.353   1.971  0.5241 -0.4554  0.0143
  669MOL0     C90240   1.975   1.422   2.050 -0.3057  1.0620 -0.5200
  669MOL0     C90241   1.952   1.573   2.030  0.1845 -0.4833 -0.2978
  669MOL0     C90242   1.886   1.622   2.158  0.4851  0.0155 -0.7079
  669MOL0     C90243   1.741   1.602   2.165  0.1440 -1.0366  0.5278
  669MOL0     C90244   1.625   1.576   2.189 -0.7256  0.7101 -0.8134
  669MOL0     C90245   2.323   1.225   1.879  0.5393 -0.4078  0.2211
  669MOL0     C90246   2.425   1.134   1.857  0.1243  0.2262  0.0690
  669MOL0     C90247   2.453   1.098   1.716  0.4353 -0.0474  0.3509
  669MOL0     H90248   2.867   1.175   1.831  0.2754  1.5184  1.1521
  669MOL0     H90249   3.106   1.112   1.782 -1.3238 -1.8421 -3.9040
  669MOL0     H90250   3.352   1.080   1.821 -0.8007  0.2599 -1.0726
  669MOL0     H90251   3.286   1.106   1.976 -1.8757 -0.9039 -1.6535
  669MOL0     H90252   3.476   0.877   1.946  1.6011 -0.8379  2.3738
  669MOL0     H90253   3.432   0.979   2.084  2.0598 -0.0577 -0.1440
  669MOL0     H90254   3.645   1.086   2.026 -0.1113  3.6053 -0.3497
  669MOL0     H90255   3.529   1.181   1.949 -0.3928  1.0370 -2.2191
  669MOL0     H90256   3.693   0.972   1.801 -1.8672 -0.6356 -1.1079
  669MOL0     H90257   3.551   1.053   1.727  2.5849  1.1390 -3.7745
  669MOL0     H90258   3.636   1.254   1.742  1.0515  1.9342 -0.5558
  669MOL0     H90259   3.771   1.226   1.848  1.4362 -2.7513  0.1975
  669MOL0     H90260   3.886   1.082   1.685  2.4849  2.1489 -0.1095
  669MOL0     H90261   3.755   1.099   1.569  0.2996  1.7947 -1.7415
  669MOL0     H90262   3.790   1.326   1.545 -1.4287 -2.8193 -1.7981
  669MOL0     H90263   3.936   1.216   1.514 -0.0008 -1.0541  0.2998
  669MOL0     H90264   3.883   1.398   1.764  0.2310  0.4338 -0.3328
  669MOL0     H90265   4.026   1.307   1.744 -1.2867 -0.2629  1.8639
  669MOL0     H90266   4.130   1.410   1.466 -0.3418 -0.3438  1.8044
  669MOL0     H90267   4.046   1.584   1.244  2.3038 -2.3041  1.8536
  669MOL0     H90268   4.042   1.758   1.305 -1.1645  0.4144  3.9181
  669MOL0     H90269   4.287   1.726   1.358  0.6491 -0.2584  0.2846
  669MOL0     H90270   4.278   1.551   1.333 -0.1318  0.3945  0.8054
  669MOL0     H90271   4.211   1.758   1.118 -0.7712 -0.1514  1.1803
  669MOL0     H90272   4.256   1.594   1.085  0.9794  0.9669 -1.1788
  669MOL0     H90273   4.416   1.760   1.032  0.3467  0.1696  0.6601
  669MOL0     H90274   4.490   1.636   1.141 -0.1651 -1.1479 -0.7848
  669MOL0     H90275   4.521   1.977   1.409 -0.2952  0.0337  1.3442
  669MOL0     H90276   4.750   2.022   1.489 -0.0858  0.2006 -0.6630
  669MOL0     H90277   5.308   1.718   1.392 -0.1188  1.0569  0.2247
  669MOL0     H90278   5.505   1.751   1.519  0.2425  0.7874 -0.6702
  669MOL0     H90279   5.532   1.810   1.975 -0.6129 -0.2789  0.4213
  669MOL0     H90280   5.415   1.703   1.917 -1.6316  2.8874 -0.8224
  669MOL0     H90281   5.603   1.561   1.983  0.0990 -0.9061 -0.6440
  669MOL0     H90282   5.600   1.564   1.802  3.6546  1.0702 -1.5957
  669MOL0     H90283   5.829   1.606   1.841  0.7222 -0.6885  0.2168
  669MOL0     H90284   5.769   1.770   1.849  0.4795 -0.4841 -0.6510
  669MOL0     H90285   5.830   1.576   2.071  1.7960  0.5881 -0.6629
  669MOL0     H90286   5.732   1.699   2.104 -2.4921 -1.9626 -1.8140
  669MOL0     H90287   5.934   1.861   2.026  1.4980 -0.1849 -3.9482
  669MOL0     H90288   6.005   1.724   1.943  0.1545 -0.3984 -0.5831
  669MOL0     H90289   5.989   1.719   2.248 -0.0866  1.4967 -1.0216
  669MOL0     H90290   6.061   1.590   2.146  1.8298 -0.0349 -1.4779
  669MOL0     H90291   6.155   1.876   2.151 -0.3411  0.1272  1.2940
  669MOL0     H90292   6.210   1.747   2.041  0.9439 -1.0762  0.5671
  669MOL0     H90293   6.349   1.785   2.274  0.2523  0.1129 -1.1328
  669MOL0     H90294   6.214   1.692   2.339 -1.2359 -0.9785 -0.4602
  669MOL0     H90295   5.274   1.848   1.867  0.4918  1.3967 -0.0660
  669MOL0     H90296   5.066   1.848   1.734 -3.5848 -5.4794 -0.0807
  669MOL0     H90297   4.894   1.678   1.288  1.2495  1.2270  1.2860
  669MOL0     H90298   4.693   1.652   1.171  2.0179 -0.8584  2.3339
  669MOL0     H90299   3.077   0.800   2.058 -0.4152  1.0541  2.3098
  669MOL0     H90300   2.840   0.861   2.120 -1.2699 -1.2118 -2.1019
  669MOL0     H90301   2.528   1.100   2.180 -1.7094  0.2070  0.4579
  669MOL0     H90302   2.350   1.269   2.208 -0.2191  0.5930 -0.2451
  669MOL0     H90303   2.063   1.246   1.955  0.0840 -0.3238 -0.3500
  669MOL0     H90304   2.075   1.391   1.868 -0.3185 -1.5930 -0.3634
  669MOL0     H90305   1.981   1.388   2.154  3.0329 -0.4329 -1.0813
  669MOL0     H90306   1.881   1.384   2.009  1.5312 -1.4999 -2.7206
  669MOL0     H90307   1.889   1.602   1.945  1.0428  0.4652 -0.6310
  669MOL0     H90308   2.042   1.634   2.017 -0.9250  2.4665  3.7621
  669MOL0     H90309   1.938   1.598   2.251  1.3706 -1.1267 -1.4724
  669MOL0     H90310   1.895   1.731   2.156  0.3175  0.0254 -3.0837
  669MOL0     H90311   1.523   1.546   2.203 -1.1595  2.3537 -0.1303
  669MOL0     H90312   2.257   1.250   1.796  0.0837 -1.8777  0.1119
  669MOL0     H90313   2.400   1.161   1.644 -0.9762  1.2556  2.4078
  669MOL0     H90314   2.560   1.112   1.700 -0.1956  1.0001 -4.3926
  669MOL0     H90315   2.427   0.995   1.691 -0.4585 -0.2022  1.7913
  670MOL0     O90316   1.369   9.324   5.989  0.0523  0.6142 -1.3901
  670MOL0     C90317   1.246   9.325   6.003  0.2224  1.4977 -0.4179
  670MOL0     O90318   1.165   9.215   5.978 -0.8031  0.0555  0.1947
  670MOL0     C90319   1.215   9.087   5.980 -0.5540 -0.4062 -1.1178
  670MOL0     C90320   1.284   9.041   6.092 -0.1269 -0.9255 -0.5869
  670MOL0     C90321   1.353   8.923   6.095  0.0150 -0.2909  1.2666
  670MOL0     C90322   1.337   8.833   5.988 -0.4571 -0.4639  0.2092
  670MOL0     O90323   1.385   8.708   5.980 -0.5248 -0.2696 -0.6049
  670MOL0     C90324   1.424   8.641   6.106 -0.1154 -0.4700  0.6645
  670MOL0     C90325   1.454   8.491   6.070  0.5300 -0.9116  0.4130
  670MOL0     C90326   1.519   8.416   6.183 -0.0137  0.3685  0.5221
  670MOL0     C90327   1.421   8.389   6.295 -0.0577 -0.1803  0.8249
  670MOL0     C90328   1.307   8.288   6.265 -0.3259 -0.2986 -0.0825
  670MOL0     C90329   1.241   8.256   6.402  0.4176 -0.8790 -0.4960
  670MOL0     C90330   1.122   8.150   6.393 -1.0649 -0.0774 -0.7654
  670MOL0     C90331   1.008   8.186   6.288  0.7619 -0.1594  0.3350
  670MOL0     N90332   0.936   8.314   6.316  0.0017 -0.4260  0.3599
  670MOL0     C90333   0.959   8.446   6.269  0.0244  0.3399 -0.4134
  670MOL0     C90334   0.857   8.507   6.334  0.7323 -0.5833  0.6965
  670MOL0     C90335   0.842   8.655   6.326  1.4025  0.7980  0.2629
  670MOL0     C90336   0.703   8.674   6.256  0.4040  0.2497  1.9399
  670MOL0     C90337   0.670   8.826   6.247 -0.8922  0.1057  0.6727
  670MOL0     C90338   0.622   8.885   6.380 -0.0227 -0.3709  0.5047
  670MOL0     O90339   0.704   8.857   6.495 -0.4847 -0.2088  1.6304
  670MOL0     C90340   0.683   8.938   6.602 -0.7496 -0.0734  0.1633
  670MOL0     C90341   0.564   8.992   6.648  0.5682 -0.1352  0.2947
  670MOL0     C90342   0.562   9.063   6.765  0.6829  0.4960  0.0334
  670MOL0     C90343   0.678   9.084   6.850  0.7222  0.4061  0.4566
  670MOL0     C90344   0.660   9.155   6.976 -0.1966 -0.1124 -0.9065
  670MOL0     O90345   0.538   9.215   7.016 -0.0198 -0.5875  0.3628
  670MOL0     C90346   0.497   9.260   7.140  0.0743 -0.0425 -0.5513
  670MOL0     C90347   0.584   9.281   7.240  0.1599  0.9147  0.0394
  670MOL0     C90348   0.544   9.327   7.366 -0.3140  0.0727  0.4957
  670MOL0     C90349   0.412   9.366   7.395  0.1625 -0.2068  0.3666
  670MOL0     O90350   0.370   9.422   7.509 -0.2139  0.1248  0.3143
  670MOL0     C90351   0.461   9.435   7.618 -0.3037  0.7001 -1.1319
  670MOL0     C90352   0.475   9.294   7.670  0.4728 -0.2992 -0.0507
  670MOL0     C90353   0.555   9.289   7.795 -0.4295  0.1652 -0.0309
  670MOL0     C90354   0.502   9.164   7.879  0.4548 -0.7438  0.1294
  670MOL0     C90355   0.529   9.184   8.030  0.5768  0.5679 -0.2333
  670MOL0     C90356   0.433   9.092   8.114  0.7643  0.1877  0.0440
  670MOL0     C90357   0.483   8.943   8.108 -0.4170  0.4139 -0.6312
  670MOL0     C90358   0.422   8.844   8.210 -0.1342  0.5811  0.4483
  670MOL0    Cl90359   0.447   8.871   8.380  0.1609 -0.2341 -0.0931
  670MOL0     C90360   0.323   9.343   7.287 -0.0515  0.4308  0.1331
  670MOL0     C90361   0.365   9.292   7.160  0.4647 -0.0236 -0.8209
  670MOL0     O90362   0.762   9.158   7.043  0.5730 -0.6208  0.5231
  670MOL0     C90363   0.787   9.020   6.795  0.2938 -0.5790  0.2271
  670MOL0     C90364   0.795   8.955   6.675  0.0229 -0.0729 -0.3889
  670MOL0     N90365   0.781   8.427   6.413  0.1104  0.5300 -0.2232
  670MOL0     N90366   0.830   8.317   6.407  0.5497  0.4555 -0.0179
  670MOL0     C90367   1.268   8.874   5.871 -0.2694  0.2080  0.0807
  670MOL0     C90368   1.212   9.004   5.873 -0.4414 -0.5790  0.4452
  670MOL0     C90369   1.182   9.436   6.061 -0.6674  0.1856  0.2567
  670MOL0     C90370   1.050   9.459   6.008 -0.6021 -0.2907  0.5759
  670MOL0     C90371   0.965   9.560   6.058 -0.3147  0.8949  1.5270
  670MOL0     C90372   1.007   9.635   6.162 -0.1123  0.4795 -0.5107
  670MOL0     O90373   0.925   9.733   6.219 -0.3778  0.8364  0.2750
  670MOL0     C90374   0.803   9.678   6.269  1.4415 -0.7192 -0.3871
  670MOL0     C90375   0.767   9.774   6.389  0.2316  0.4349  0.8600
  670MOL0     C90376   0.743   9.921   6.348 -0.1648 -0.7304  0.4871
  670MOL0     C90377   0.609   9.932   6.272  0.8611  0.8188 -0.2769
  670MOL0     C90378   0.495   9.913   6.357 -0.3521 -1.2931 -0.3031
  670MOL0     C90379   0.388   9.912   6.423 -0.6655  0.4755 -0.0239
  670MOL0     C90380   1.138   9.619   6.206  0.0514  0.1217 -0.4881
  670MOL0     C90381   1.226   9.525   6.160 -0.5768  0.3084 -0.9644
  670MOL0     C90382   1.369   9.513   6.215  0.7132 -0.3899 -0.9549
  670MOL0     H90383   1.271   9.103   6.180 -1.2797  0.1806 -1.4847
  670MOL0     H90384   1.409   8.878   6.176 -1.0264 -4.4403 -0.0306
  670MOL0     H90385   1.509   8.693   6.151 -0.8358  2.6391 -1.2739
  670MOL0     H90386   1.342   8.650   6.177 -0.4948 -0.3712  0.2205
  670MOL0     H90387   1.525   8.497   5.986  1.7289  1.5038  1.5020
  670MOL0     H90388   1.366   8.437   6.035 -1.9057  3.5902 -1.1631
  670MOL0     H90389   1.598   8.481   6.223 -2.2400  0.6498  5.1879
  670MOL0     H90390   1.549   8.323   6.134  0.4955  0.8324 -0.0568
  670MOL0     H90391   1.482   8.343   6.373 -0.4121 -0.1221  1.1362
  670MOL0     H90392   1.374   8.479   6.334 -1.9882  0.3728 -2.4355
  670MOL0     H90393   1.245   8.339   6.192  1.4205  2.4370  0.2233
  670MOL0     H90394   1.359   8.201   6.223 -3.9688 -1.7333 -1.9855
  670MOL0     H90395   1.316   8.218   6.471  0.3527  3.7168  2.5707
  670MOL0     H90396   1.201   8.352   6.436  3.1850 -0.3139  1.4989
  670MOL0     H90397   1.075   8.157   6.491 -0.7030 -1.9329 -0.4206
  670MOL0     H90398   1.162   8.048   6.388 -2.7789 -0.7481 -1.6760
  670MOL0     H90399   1.039   8.192   6.183 -2.2575  0.2520 -0.6326
  670MOL0     H90400   0.928   8.111   6.296  1.0392 -0.3917  0.9654
  670MOL0     H90401   1.034   8.481   6.199  0.9574  0.1190  0.4691
  670MOL0     H90402   0.861   8.696   6.425 -1.3918  1.1949  0.7117
  670MOL0     H90403   0.921   8.700   6.264  2.7450 -2.7128 -0.8461
  670MOL0     H90404   0.704   8.630   6.156  1.2422 -1.3815  2.6159
  670MOL0     H90405   0.629   8.626   6.321  0.6285  0.9670  2.7522
  670MOL0     H90406   0.592   8.845   6.172  0.0559  1.7440  0.0569
  670MOL0     H90407   0.765   8.873   6.222 -0.1556 -0.5987  2.0306
  670MOL0     H90408   0.526   8.839   6.401 -1.3221  1.0362 -1.8308
  670MOL0     H90409   0.621   8.993   6.361  1.2275 -0.4404 -0.0975
  670MOL0     H90410   0.470   8.982   6.595  0.3634 -1.2860  0.8379
  670MOL0     H90411   0.457   9.076   6.789  0.6848  0.8886 -0.1796
  670MOL0     H90412   0.685   9.241   7.237  0.4941  1.7258  0.2217
  670MOL0     H90413   0.625   9.349   7.435 -0.8022  0.5008  0.9437
  670MOL0     H90414   0.558   9.477   7.592 -0.3431  1.5777  0.0646
  670MOL0     H90415   0.415   9.499   7.693  0.6496  0.3877 -0.2556
  670MOL0     H90416   0.373   9.257   7.684 -0.8014  1.6660 -3.0808
  670MOL0     H90417   0.539   9.240   7.600  0.0778 -2.3051  1.0446
  670MOL0     H90418   0.662   9.288   7.769 -0.3272  0.4557  0.3676
  670MOL0     H90419   0.533   9.374   7.860  2.9920  0.6501  0.7151
  670MOL0     H90420   0.543   9.070   7.841  0.0378 -0.3250 -1.4331
  670MOL0     H90421   0.394   9.169   7.863  0.6548  1.0658 -0.9877
  670MOL0     H90422   0.507   9.288   8.057 -1.4083  0.2627 -0.5158
  670MOL0     H90423   0.632   9.165   8.061 -0.3650 -1.6996  1.7752
  670MOL0     H90424   0.427   9.126   8.218  1.6935  3.3685 -0.8603
  670MOL0     H90425   0.330   9.085   8.076  0.9391 -1.2010 -0.2316
  670MOL0     H90426   0.590   8.955   8.127 -0.2688 -1.3037 -0.2373
  670MOL0     H90427   0.466   8.910   8.005 -0.7661  0.4945 -0.6011
  670MOL0     H90428   0.315   8.842   8.186  0.4570 -0.3710 -2.6447
  670MOL0     H90429   0.464   8.744   8.195  0.0180  0.7428 -0.2506
  670MOL0     H90430   0.216   9.361   7.294 -0.0583  0.7916 -0.7514
  670MOL0     H90431   0.301   9.274   7.074  1.1921 -1.9071 -1.0366
  670MOL0     H90432   0.876   9.024   6.856  1.2990 -1.6248 -1.0808
  670MOL0     H90433   0.885   8.922   6.625 -1.0481 -0.2631 -2.2828
  670MOL0     H90434   1.254   8.810   5.784  0.8961  0.5008 -0.3463
  670MOL0     H90435   1.151   9.037   5.790  1.5537  1.2012 -0.4042
  670MOL0     H90436   1.015   9.418   5.914 -0.2858  1.1670 -0.2032
  670MOL0     H90437   0.869   9.572   6.009 -0.4127  3.3599  2.1882
  670MOL0     H90438   0.789   9.579   6.313  0.6140  0.1873  1.4801
  670MOL0     H90439   0.725   9.694   6.194  1.3045  1.0843  0.0974
  670MOL0     H90440   0.849   9.764   6.460  1.8982 -0.4308 -1.0946
  670MOL0     H90441   0.684   9.729   6.444  0.2493 -2.1135 -1.0388
  670MOL0     H90442   0.821   9.964   6.284 -2.4223  1.0920 -1.2130
  670MOL0     H90443   0.741   9.985   6.437 -1.4533  3.8420 -2.4478
  670MOL0     H90444   0.597  10.034   6.235  0.2302  0.6563 -0.5306
  670MOL0     H90445   0.595   9.862   6.189 -1.5913  0.8847  0.0035
  670MOL0     H90446   0.298   9.927   6.479  1.1943  3.2177  2.5413
  670MOL0     H90447   1.181   9.686   6.280 -2.5201  2.5506 -1.0190
  670MOL0     H90448   1.381   9.581   6.300  1.0672 -1.0090 -0.5095
  670MOL0     H90449   1.381   9.413   6.257  1.1438  2.3031  7.1570
  670MOL0     H90450   1.448   9.544   6.146  0.6728  3.4504  0.4689
  671MOL0     O90451   6.498   7.944   2.339 -0.2831 -0.7253  0.6832
  671MOL0     C90452   6.459   7.945   2.222 -0.9388  0.4869  0.2573
  671MOL0     O90453   6.510   7.868   2.117 -0.2486 -0.0065  0.4268
  671MOL0     C90454   6.636   7.820   2.113  0.0745  0.5724  1.0210
  671MOL0     C90455   6.675   7.765   1.988  0.1694 -0.3978  0.7333
  671MOL0     C90456   6.804   7.708   1.969 -0.2646  0.2009 -1.4476
  671MOL0     C90457   6.894   7.694   2.074  0.4295 -0.1779 -0.9568
  671MOL0     O90458   7.014   7.638   2.035  0.1663  0.1327  0.0269
  671MOL0     C90459   7.103   7.614   2.150 -0.1246  0.2548  0.4344
  671MOL0     C90460   7.237   7.577   2.093 -0.7944 -0.2830 -0.3735
  671MOL0     C90461   7.312   7.508   2.202 -0.5895  0.4704 -0.1239
  671MOL0     C90462   7.462   7.480   2.159 -0.4022 -0.0343  0.1674
  671MOL0     C90463   7.556   7.429   2.273  0.4436  0.1155  0.0564
  671MOL0     C90464   7.666   7.338   2.222  0.4723  1.0654 -0.2143
  671MOL0     C90465   7.753   7.401   2.107  0.3755 -0.5293  0.8275
  671MOL0     C90466   7.854   7.507   2.168  0.2441  0.0889  0.2185
  671MOL0     N90467   7.976   7.435   2.214 -0.9005 -0.3472  0.8898
  671MOL0     C90468   8.096   7.492   2.275 -0.4520  0.0205  0.1063
  671MOL0     C90469   8.157   7.372   2.322 -1.1631  0.0090  1.0988
  671MOL0     C90470   8.265   7.358   2.423 -0.3205  0.6949  0.4481
  671MOL0     C90471   8.377   7.242   2.399  0.7896 -0.4089 -0.6587
  671MOL0     C90472   8.508   7.281   2.482  0.6750  0.4101 -0.8343
  671MOL0     C90473   8.593   7.155   2.504  1.0523  0.8329  1.1413
  671MOL0     O90474   8.694   7.188   2.605  0.1169  0.0756 -0.3748
  671MOL0     C90475   8.764   7.079   2.655  0.8171 -0.1249 -0.1584
  671MOL0     C90476   8.741   6.946   2.633 -0.6127  0.8480  0.8111
  671MOL0     C90477   8.810   6.843   2.688  0.3718 -0.0230  0.0486
  671MOL0     C90478   8.907   6.881   2.783 -0.2432 -0.5144 -0.2445
  671MOL0     C90479   8.967   6.779   2.873 -0.3136  0.8383  0.1002
  671MOL0     O90480   9.027   6.824   2.980  0.5969 -0.2990 -0.1181
  671MOL0     C90481   9.128   6.758   3.054  0.1562  0.0891 -0.2479
  671MOL0     C90482   9.193   6.854   3.140  0.8020  0.1659  0.5879
  671MOL0     C90483   9.290   6.808   3.228  0.3932 -0.4399 -0.5678
  671MOL0     C90484   9.340   6.672   3.228 -0.3765 -0.5988  0.3444
  671MOL0     O90485   9.459   6.648   3.289 -0.6142 -0.0699  0.3302
  671MOL0     C90486   9.540   6.535   3.242  0.2047  0.2479 -0.0740
  671MOL0     C90487   9.672   6.536   3.320 -0.5529  0.3214  0.4180
  671MOL0     C90488   9.649   6.506   3.469  1.0406  0.2685 -0.3811
  671MOL0     C90489   9.776   6.445   3.534 -0.6121  0.3221  0.1007
  671MOL0     C90490   9.744   6.430   3.678 -0.2255  0.0890  0.0491
  671MOL0     C90491   9.857   6.399   3.766  0.0790  0.4185 -0.6793
  671MOL0     C90492   9.967   6.491   3.776 -0.1224 -0.3859 -0.1827
  671MOL0     C90493  10.077   6.443   3.863 -0.1841 -0.0085 -0.9006
  671MOL0    Cl90494  10.026   6.356   4.006  0.1122 -0.0224  0.1504
  671MOL0     C90495   9.269   6.585   3.145 -0.3745  0.2991 -0.5897
  671MOL0     C90496   9.162   6.626   3.061  0.7738 -0.1932  0.3453
  671MOL0     O90497   8.961   6.665   2.845  0.1687  0.3548  0.0579
  671MOL0     C90498   8.939   7.013   2.810 -0.5272 -0.2384  0.3815
  671MOL0     C90499   8.863   7.112   2.746  0.0445  0.2295  0.2944
  671MOL0     N90500   8.092   7.268   2.266 -0.1055  0.6797 -0.1954
  671MOL0     N90501   7.987   7.293   2.206  0.3551 -0.2387 -0.4993
  671MOL0     C90502   6.860   7.752   2.194 -0.4819  0.2274  0.7079
  671MOL0     C90503   6.731   7.802   2.211 -0.2617  0.0909 -0.1670
  671MOL0     C90504   6.328   8.013   2.194 -0.5960  1.6456 -0.0218
  671MOL0     C90505   6.247   7.980   2.084  0.6862  1.0064  0.0217
  671MOL0     C90506   6.123   8.044   2.063  0.3408 -0.6060  0.9890
  671MOL0     C90507   6.067   8.130   2.148  1.3456  0.5755  0.2006
  671MOL0     O90508   5.943   8.188   2.151 -0.4050 -0.0692  0.6838
  671MOL0     C90509   5.895   8.213   2.023 -0.0950  0.5669  0.2239
  671MOL0     C90510   5.783   8.317   2.036 -0.1855 -0.7850  0.3592
  671MOL0     C90511   5.654   8.267   2.112 -0.3676 -0.6101 -0.6513
  671MOL0     C90512   5.561   8.191   2.024 -0.2322 -0.1869  0.5566
  671MOL0     C90513   5.437   8.154   2.096 -0.2307  0.1281  0.7138
  671MOL0     C90514   5.337   8.128   2.150 -0.3914 -0.7539  0.1605
  671MOL0     C90515   6.136   8.162   2.259  0.3500 -0.3740 -0.5286
  671MOL0     C90516   6.266   8.101   2.283  0.3064 -0.1994  0.6301
  671MOL0     C90517   6.334   8.163   2.408  0.0740  0.6674 -0.9059
  671MOL0     H90518   6.609   7.766   1.902  0.7679  2.8997  0.1677
  671MOL0     H90519   6.843   7.650   1.886  1.9206 -0.0927 -0.2758
  671MOL0     H90520   7.113   7.707   2.207 -2.8894 -0.3458  2.1032
  671MOL0     H90521   7.052   7.547   2.220 -0.7257  1.6295  1.3650
  671MOL0     H90522   7.298   7.663   2.064  1.1370 -1.5799 -0.3357
  671MOL0     H90523   7.225   7.511   2.007 -3.8813  1.7218 -1.6516
  671MOL0     H90524   7.261   7.412   2.212 -1.7785  0.8648 -1.8541
  671MOL0     H90525   7.301   7.560   2.297 -0.4772  0.1315  0.0784
  671MOL0     H90526   7.453   7.399   2.086  1.0161 -0.3982  0.3608
  671MOL0     H90527   7.518   7.563   2.116 -1.2892  0.2420 -0.4706
  671MOL0     H90528   7.593   7.521   2.319 -0.6308  1.2282 -1.2360
  671MOL0     H90529   7.496   7.366   2.339  1.7049 -2.1366 -0.8444
  671MOL0     H90530   7.732   7.300   2.300  0.3899 -1.0243 -1.1152
  671MOL0     H90531   7.618   7.247   2.186  4.6780 -1.5278  0.0610
  671MOL0     H90532   7.692   7.455   2.034  1.7657  0.9614  0.7042
  671MOL0     H90533   7.806   7.330   2.044  1.7658  1.9193 -0.9186
  671MOL0     H90534   7.857   7.582   2.089 -2.5593  0.3950  0.2873
  671MOL0     H90535   7.813   7.549   2.260 -1.6698  0.5633 -0.8043
  671MOL0     H90536   8.123   7.587   2.319  0.3912  0.4135 -1.1969
  671MOL0     H90537   8.310   7.458   2.429  0.3038  0.4891 -0.6060
  671MOL0     H90538   8.218   7.339   2.520  0.8641 -0.7404  0.7774
  671MOL0     H90539   8.331   7.145   2.418  2.3392 -1.1531 -0.6006
  671MOL0     H90540   8.402   7.233   2.293  2.3925  3.9402 -0.8479
  671MOL0     H90541   8.473   7.309   2.582  3.1723 -2.0330  0.9184
  671MOL0     H90542   8.579   7.351   2.439  1.5764  0.3169  0.4379
  671MOL0     H90543   8.640   7.119   2.412  2.9149 -1.1335  2.7558
  671MOL0     H90544   8.525   7.077   2.539  0.6955  0.6331  0.0322
  671MOL0     H90545   8.662   6.926   2.562  1.7010  1.0073 -2.0054
  671MOL0     H90546   8.787   6.738   2.671  0.6505 -1.0681  4.8280
  671MOL0     H90547   9.167   6.959   3.148  1.5111  0.3834  0.1361
  671MOL0     H90548   9.327   6.873   3.306  0.8766  0.7492 -1.7479
  671MOL0     H90549   9.475   6.452   3.269 -0.7593  1.1571  0.4523
  671MOL0     H90550   9.556   6.535   3.133 -1.2896  0.7310 -0.3065
  671MOL0     H90551   9.742   6.470   3.267 -1.8008  0.7052 -1.8178
  671MOL0     H90552   9.714   6.637   3.313  1.3070 -0.3464  1.2444
  671MOL0     H90553   9.624   6.597   3.525  0.9739 -1.1665  2.0975
  671MOL0     H90554   9.558   6.447   3.485  1.2682  0.3720  1.6001
  671MOL0     H90555   9.865   6.509   3.524  0.5351 -0.6557  3.1669
  671MOL0     H90556   9.797   6.352   3.480  3.6302  0.6810  0.7711
  671MOL0     H90557   9.671   6.350   3.694  0.4245 -0.2811  1.3273
  671MOL0     H90558   9.703   6.524   3.717  1.4895  0.6818  0.4943
  671MOL0     H90559   9.825   6.372   3.868  0.6617 -1.8160 -1.0408
  671MOL0     H90560   9.883   6.301   3.726  0.6780  1.2170 -2.3198
  671MOL0     H90561   9.932   6.588   3.812 -0.6106 -0.5711 -0.1594
  671MOL0     H90562  10.010   6.514   3.678  0.5830 -1.2146 -0.0791
  671MOL0     H90563  10.143   6.374   3.810 -0.5307 -1.4365  0.4475
  671MOL0     H90564  10.149   6.521   3.891  0.8551 -2.0785  2.9168
  671MOL0     H90565   9.303   6.482   3.154  0.9213  0.8053  0.5455
  671MOL0     H90566   9.110   6.555   2.997 -0.0234  0.2449  0.4950
  671MOL0     H90567   9.017   7.032   2.883 -1.2012 -0.3166  1.1284
  671MOL0     H90568   8.885   7.215   2.774 -1.1860  0.3871  0.7174
  671MOL0     H90569   6.930   7.736   2.275  2.0873  2.8698 -0.8115
  671MOL0     H90570   6.708   7.836   2.311 -0.7833  1.0685 -0.6054
  671MOL0     H90571   6.265   7.907   2.006  1.9504  0.4234  0.8253
  671MOL0     H90572   6.076   8.038   1.965  0.9303 -1.0384  0.7272
  671MOL0     H90573   5.842   8.122   1.996 -0.6687  0.8048  0.5318
  671MOL0     H90574   5.969   8.248   1.950  0.3275  0.9334  0.8209
  671MOL0     H90575   5.764   8.344   1.931  1.5412  1.6384  0.6022
  671MOL0     H90576   5.822   8.407   2.083 -2.1182 -0.5933  1.7328
  671MOL0     H90577   5.622   8.362   2.155  1.7720 -0.4228  0.6759
  671MOL0     H90578   5.689   8.201   2.191  1.7392  2.0918  0.8571
  671MOL0     H90579   5.525   8.254   1.943 -0.8764 -3.0551 -1.5347
  671MOL0     H90580   5.607   8.106   1.973  3.0059  1.3238  0.7126
  671MOL0     H90581   5.248   8.108   2.206 -0.8244  0.5065 -0.0495
  671MOL0     H90582   6.076   8.227   2.323 -1.8531 -2.3485 -0.4615
  671MOL0     H90583   6.320   8.099   2.495  1.0808 -0.9487 -1.8807
  671MOL0     H90584   6.440   8.182   2.386  0.3570 -2.4653 -2.8407
  671MOL0     H90585   6.281   8.257   2.423 -0.7382  0.2374 -1.0413
  672MOL0     O90586  10.214   6.263   8.686  0.0564 -0.2735  0.3407
  672MOL0     C90587  10.234   6.250   8.807  0.8498 -0.1903 -0.0070
  672MOL0     O90588  10.352   6.209   8.860  0.1155 -0.0728 -0.1642
  672MOL0     C90589  10.459   6.195   8.783  0.2576 -0.1336  0.6005
  672MOL0     C90590  10.514   6.309   8.714 -0.0722  0.0443  0.2551
  672MOL0     C90591  10.632   6.289   8.639 -0.0178  0.6416  0.3585
  672MOL0     C90592  10.696   6.164   8.630  0.3952 -1.4101  0.2663
  672MOL0     O90593  10.814   6.161   8.559  0.6658 -0.4140  0.1869
  672MOL0     C90594  10.921   6.082   8.603  0.7379 -0.2808  0.7592
  672MOL0     C90595  11.038   6.083   8.504  0.0874  0.3722 -0.1623
  672MOL0     C90596  11.105   6.219   8.484 -0.0097  0.9790  0.1887
  672MOL0     C90597  11.232   6.212   8.403 -0.1266 -0.1852  0.0702
  672MOL0     C90598  11.345   6.314   8.443  0.6147  0.3045 -0.6474
  672MOL0     C90599  11.303   6.461   8.429  0.9385 -0.6176  0.7299
  672MOL0     C90600  11.422   6.555   8.455 -0.2070 -0.6744  1.2010
  672MOL0     C90601  11.520   6.564   8.332  1.2143 -0.1697 -0.9107
  672MOL0     N90602  11.626   6.659   8.387 -0.1897  0.4476  0.0946
  672MOL0     C90603  11.762   6.629   8.370  1.0683  0.4019 -0.0554
  672MOL0     C90604  11.824   6.746   8.379 -0.7067 -0.4115  0.4232
  672MOL0     C90605  11.979   6.760   8.363  1.3980  0.1849  0.4008
  672MOL0     C90606  12.026   6.915   8.397 -0.2465  0.0948 -0.2700
  672MOL0     C90607  12.166   6.915   8.455  0.0218 -0.3033  0.2854
  672MOL0     C90608  12.198   7.047   8.515  0.5861 -0.1768  0.4007
  672MOL0     O90609  12.321   7.028   8.558  0.0556  0.3992 -0.4272
  672MOL0     C90610  12.401   7.124   8.629 -0.5668 -0.3617  0.6751
  672MOL0     C90611  12.535   7.095   8.661  1.4182  0.7732  0.1871
  672MOL0     C90612  12.611   7.189   8.735  0.1742 -0.4662  0.3342
  672MOL0     C90613  12.549   7.312   8.781  0.0905  0.1279 -0.3736
  672MOL0     C90614  12.617   7.401   8.869  0.2147 -0.5466 -0.6166
  672MOL0     O90615  12.699   7.344   8.964 -0.2312 -0.0713 -0.4582
  672MOL0     C90616  12.800   7.414   9.024 -1.0658  0.7132 -0.4253
  672MOL0     C90617  12.822   7.376   9.153 -0.3625  0.1398 -0.2768
  672MOL0     C90618  12.905   7.447   9.242 -0.1718  0.5212 -0.0084
  672MOL0     C90619  12.976   7.562   9.205 -0.2388 -0.2232  0.6662
  672MOL0     O90620  13.052   7.619   9.303  0.8098 -0.4315  0.6633
  672MOL0     C90621  13.151   7.708   9.264 -0.3603 -0.8810 -0.4059
  672MOL0     C90622  13.239   7.767   9.374 -0.5543  0.1260  0.6832
  672MOL0     C90623  13.148   7.840   9.478 -0.4994 -0.1816 -0.1872
  672MOL0     C90624  13.237   7.912   9.589  0.2833 -0.2285  0.0565
  672MOL0     C90625  13.189   8.054   9.611 -0.9460  0.1366  0.6762
  672MOL0     C90626  13.256   8.102   9.751  0.7881  1.0564 -0.1456
  672MOL0     C90627  13.257   8.254   9.747 -0.3672  0.0562  0.0118
  672MOL0     C90628  13.265   8.309   9.893 -0.7837  0.4190 -0.7602
  672MOL0    Cl90629  13.379   8.214   9.998 -0.5310  0.1767 -0.4937
  672MOL0     C90630  12.956   7.609   9.069 -0.6332  0.2294  0.5176
  672MOL0     C90631  12.878   7.525   8.983  0.4849  0.6303  0.1482
  672MOL0     O90632  12.603   7.525   8.852 -0.0512 -0.6838  0.2647
  672MOL0     C90633  12.425   7.353   8.730  0.7946  0.2877  0.0399
  672MOL0     C90634  12.350   7.256   8.656 -0.1860  0.3058  0.0286
  672MOL0     N90635  11.732   6.843   8.410 -0.2535 -0.4981 -0.0661
  672MOL0     N90636  11.610   6.790   8.415 -0.7585 -0.1604 -0.2509
  672MOL0     C90637  10.632   6.061   8.699 -0.3123  0.1278 -0.4716
  672MOL0     C90638  10.515   6.073   8.777  0.4726 -0.7182  0.3800
  672MOL0     C90639  10.134   6.318   8.893  0.1037 -0.3259  0.3563
  672MOL0     C90640  10.003   6.268   8.885  0.3725 -0.6002  0.0051
  672MOL0     C90641   9.900   6.317   8.963 -0.1629  0.1351  0.3493
  672MOL0     C90642   9.927   6.434   9.042 -0.7167 -0.4300 -0.8362
  672MOL0     O90643   9.826   6.489   9.108  0.1852 -0.5433 -0.1774
  672MOL0     C90644   9.787   6.611   9.046 -0.6478 -0.5829  0.9911
  672MOL0     C90645   9.640   6.616   9.038 -0.2327 -0.7132  0.0530
  672MOL0     C90646   9.581   6.687   9.168  0.3654 -0.3731  0.3200
  672MOL0     C90647   9.428   6.681   9.165 -0.0236 -0.2525  0.2381
  672MOL0     C90648   9.380   6.725   9.292 -0.0519 -0.4128 -0.5953
  672MOL0     C90649   9.317   6.775   9.387 -0.0587  0.3776  0.4463
  672MOL0     C90650  10.059   6.481   9.052  0.4812 -0.3784 -0.1103
  672MOL0     C90651  10.162   6.427   8.974  0.7735 -0.5990  0.2443
  672MOL0     C90652  10.299   6.486   8.977 -0.5019  0.4282 -0.3790
  672MOL0     H90653  10.484   6.413   8.726  0.1827  0.4285 -2.0947
  672MOL0     H90654  10.688   6.374   8.600 -0.4874 -0.2492 -2.5268
  672MOL0     H90655  10.963   6.116   8.699  0.4757 -0.2588  0.8661
  672MOL0     H90656  10.883   5.980   8.612  0.2699 -0.1857 -0.0892
  672MOL0     H90657  11.005   6.053   8.404  0.8002 -0.7073 -0.0822
  672MOL0     H90658  11.120   6.014   8.524 -0.1321  0.2633  0.3685
  672MOL0     H90659  11.136   6.252   8.584 -0.0998 -0.4495  0.7029
  672MOL0     H90660  11.025   6.285   8.447 -0.3945  0.7811  0.6562
  672MOL0     H90661  11.275   6.112   8.408  1.1616  0.2759 -1.2384
  672MOL0     H90662  11.208   6.240   8.300  0.0857  0.7008  0.2506
  672MOL0     H90663  11.393   6.287   8.538  0.8570  1.1506 -0.5205
  672MOL0     H90664  11.420   6.294   8.366  1.8458 -0.2550  0.6493
  672MOL0     H90665  11.262   6.474   8.329  0.1845 -2.6370  0.7401
  672MOL0     H90666  11.227   6.483   8.505 -1.6229  2.4722 -2.3757
  672MOL0     H90667  11.473   6.509   8.540 -2.8396 -1.4979  2.4745
  672MOL0     H90668  11.385   6.654   8.483  0.8241 -0.8471  3.3504
  672MOL0     H90669  11.551   6.462   8.309  0.8006 -1.5627  3.7445
  672MOL0     H90670  11.455   6.590   8.248  0.8817 -3.9354 -2.0204
  672MOL0     H90671  11.798   6.532   8.337  0.2564 -1.5669  4.1397
  672MOL0     H90672  12.024   6.689   8.433  2.4227 -0.4986 -0.9099
  672MOL0     H90673  11.999   6.728   8.260 -0.7440 -0.5263  0.1580
  672MOL0     H90674  12.043   6.968   8.303  4.0723 -2.6832 -1.3328
  672MOL0     H90675  11.962   6.976   8.462 -2.7207 -2.8739  0.3367
  672MOL0     H90676  12.246   6.886   8.386 -0.6533  0.6890 -0.9488
  672MOL0     H90677  12.170   6.837   8.532  0.3408 -1.8884 -1.2682
  672MOL0     H90678  12.126   7.066   8.596 -0.2097 -0.2944 -0.2756
  672MOL0     H90679  12.183   7.129   8.444 -1.7754  0.0939  1.1132
  672MOL0     H90680  12.578   7.003   8.622  0.9699  0.4491  0.4390
  672MOL0     H90681  12.709   7.163   8.775 -0.3833 -1.1696  1.2652
  672MOL0     H90682  12.765   7.295   9.198 -0.9070  1.0639  0.7720
  672MOL0     H90683  12.922   7.415   9.344  0.6736  0.4261 -0.1755
  672MOL0     H90684  13.210   7.658   9.187 -2.6636 -0.6575 -2.4421
  672MOL0     H90685  13.092   7.796   9.233 -2.0922 -0.1531  4.2116
  672MOL0     H90686  13.300   7.688   9.418 -2.5306 -1.5174  0.6458
  672MOL0     H90687  13.296   7.844   9.321 -1.6991  1.1290  0.8669
  672MOL0     H90688  13.084   7.911   9.425 -0.1850  0.8815  0.7933
  672MOL0     H90689  13.092   7.764   9.532  0.3333 -1.2342 -0.7645
  672MOL0     H90690  13.341   7.912   9.556  0.7261  1.8443  1.2589
  672MOL0     H90691  13.220   7.862   9.685  0.4235  4.4079  2.8301
  672MOL0     H90692  13.080   8.053   9.615 -1.0541  2.8414  0.1416
  672MOL0     H90693  13.225   8.121   9.533 -1.7072  0.6954  0.8003
  672MOL0     H90694  13.197   8.071   9.838 -0.8268  1.9435 -0.8830
  672MOL0     H90695  13.360   8.074   9.764  0.7590  1.1094  0.2243
  672MOL0     H90696  13.166   8.296   9.705  1.1332  3.0856 -0.4871
  672MOL0     H90697  13.348   8.287   9.696  1.4583  0.5817  3.3052
  672MOL0     H90698  13.283   8.416   9.887  3.2505  0.1624  2.2807
  672MOL0     H90699  13.169   8.279   9.936  0.4959 -3.7457 -0.2856
  672MOL0     H90700  12.997   7.702   9.031 -1.4708  1.2991  2.0936
  672MOL0     H90701  12.861   7.558   8.881 -1.4706  1.8927  0.8196
  672MOL0     H90702  12.378   7.450   8.747 -2.1147 -0.5700 -2.2955
  672MOL0     H90703  12.249   7.281   8.625 -1.3828 -2.9499  0.8706
  672MOL0     H90704  10.693   5.973   8.717  0.8095  1.0697  0.4818
  672MOL0     H90705  10.485   5.987   8.836 -1.2754  1.0760  2.2898
  672MOL0     H90706   9.985   6.192   8.810 -0.3463  0.1372 -0.5946
  672MOL0     H90707   9.800   6.277   8.951  0.5425 -1.0955 -2.1009
  672MOL0     H90708   9.826   6.617   8.944  0.7000  1.6105  1.5852
  672MOL0     H90709   9.830   6.689   9.109  1.1794 -1.6324  1.1160
  672MOL0     H90710   9.603   6.512   9.039  0.1720 -0.8623 -0.2907
  672MOL0     H90711   9.602   6.665   8.948  0.4981 -0.5669 -0.1797
  672MOL0     H90712   9.600   6.794   9.154 -1.0051  0.5977  4.3474
  672MOL0     H90713   9.608   6.647   9.266 -1.2485 -1.7833  0.2378
  672MOL0     H90714   9.401   6.748   9.083 -0.2362 -0.7966 -0.1381
  672MOL0     H90715   9.393   6.578   9.152 -0.1808 -0.6807  3.1698
  672MOL0     H90716   9.261   6.815   9.470  0.8005  1.9532  0.3192
  672MOL0     H90717  10.099   6.561   9.114  1.6272 -0.9307 -0.1021
  672MOL0     H90718  10.331   6.509   8.875 -1.9319 -0.9469 -1.1750
  672MOL0     H90719  10.282   6.575   9.039  2.3377  1.8272 -1.4319
  672MOL0     H90720  10.367   6.411   9.017  0.6366  1.2614 -0.6995
  673MOL0     O90721   1.872   8.922   7.616  0.9950 -0.4545 -0.4493
  673MOL0     C90722   1.788   8.835   7.650 -0.3556 -0.4315 -1.4981
  673MOL0     O90723   1.824   8.712   7.690 -0.3556  0.1273  0.3709
  673MOL0     C90724   1.946   8.662   7.677 -0.2390 -0.3074 -0.2015
  673MOL0     C90725   2.037   8.688   7.585 -1.1722  0.1187  0.4173
  673MOL0     C90726   2.152   8.612   7.554 -0.8193  0.1741 -0.4326
  673MOL0     C90727   2.185   8.488   7.628  0.3772 -0.6569  0.1855
  673MOL0     O90728   2.301   8.425   7.581 -0.3159 -0.3594  0.4941
  673MOL0     C90729   2.316   8.290   7.623  0.2361  0.9104  0.4110
  673MOL0     C90730   2.449   8.235   7.571  0.3398  0.1159  0.6134
  673MOL0     C90731   2.484   8.107   7.643 -0.7807 -0.0445  0.2177
  673MOL0     C90732   2.633   8.087   7.653 -0.5183  0.3051  0.0723
  673MOL0     C90733   2.671   7.968   7.738  0.4104 -0.2303  0.1078
  673MOL0     C90734   2.654   7.834   7.668 -0.2699  0.5839  0.0193
  673MOL0     C90735   2.707   7.724   7.758  0.3092 -0.1189  0.0988
  673MOL0     C90736   2.712   7.593   7.682 -0.4188 -0.0223  0.5504
  673MOL0     N90737   2.580   7.516   7.682 -0.2877 -0.3639  0.3981
  673MOL0     C90738   2.459   7.558   7.636 -0.2004 -0.6402  0.1676
  673MOL0     C90739   2.374   7.470   7.679  0.1065  0.5942  0.7866
  673MOL0     C90740   2.226   7.479   7.666 -0.1610 -0.1905 -0.9933
  673MOL0     C90741   2.203   7.458   7.520 -0.1725 -0.3179  0.0657
  673MOL0     C90742   2.055   7.439   7.471 -0.2383 -0.2026  0.5032
  673MOL0     C90743   2.062   7.387   7.326 -0.3534 -0.7732 -0.2836
  673MOL0     O90744   2.125   7.259   7.332  0.2104 -0.1606  0.5687
  673MOL0     C90745   2.230   7.241   7.242  0.3307  0.1359  0.1749
  673MOL0     C90746   2.231   7.280   7.107 -0.0525 -0.4397 -0.6195
  673MOL0     C90747   2.343   7.278   7.026 -1.0178 -0.1829 -0.4639
  673MOL0     C90748   2.471   7.242   7.076  0.1015 -0.3849 -0.1073
  673MOL0     C90749   2.594   7.262   6.993  0.4514  0.5684  1.2631
  673MOL0     O90750   2.708   7.279   7.059  0.8503 -0.0845  0.1130
  673MOL0     C90751   2.811   7.283   6.970  0.3179 -0.2131 -0.3291
  673MOL0     C90752   2.883   7.168   6.956  0.0726  0.2995  0.3731
  673MOL0     C90753   2.983   7.167   6.869 -0.8052  0.6997  0.8036
  673MOL0     C90754   3.020   7.288   6.796 -0.2253  0.3506 -0.0800
  673MOL0     O90755   3.116   7.295   6.692 -0.0353  0.5056 -0.1335
  673MOL0     C90756   3.223   7.193   6.684  0.1516 -0.5359 -1.0740
  673MOL0     C90757   3.358   7.263   6.643  0.4162 -0.7645 -0.8423
  673MOL0     C90758   3.407   7.372   6.742 -0.2891 -0.0294  1.0260
  673MOL0     C90759   3.508   7.459   6.665  0.1356 -0.4264 -0.3487
  673MOL0     C90760   3.560   7.578   6.753 -0.1543  0.3399  0.6016
  673MOL0     C90761   3.706   7.554   6.803 -0.3308  0.2958 -0.2302
  673MOL0     C90762   3.806   7.586   6.691  0.9499 -0.5293  0.1393
  673MOL0     C90763   3.948   7.544   6.729  0.2833 -0.0241 -0.5337
  673MOL0    Cl90764   3.958   7.370   6.709  0.2456 -0.0411  0.2026
  673MOL0     C90765   2.950   7.402   6.824 -0.4667 -0.3598 -0.2008
  673MOL0     C90766   2.842   7.410   6.913  0.0721  0.2553  0.1476
  673MOL0     O90767   2.573   7.255   6.868 -0.4447 -0.9975 -0.1152
  673MOL0     C90768   2.471   7.192   7.210 -0.4130 -0.4305  0.0947
  673MOL0     C90769   2.350   7.183   7.283 -0.7552 -0.8397 -0.0198
  673MOL0     N90770   2.433   7.375   7.755  0.3566  0.7855  0.8654
  673MOL0     N90771   2.555   7.407   7.765 -0.0318 -0.1650  0.6119
  673MOL0     C90772   2.078   8.457   7.722 -0.5844  0.3577 -0.1460
  673MOL0     C90773   1.969   8.542   7.744  0.1642 -0.1404  0.1857
  673MOL0     C90774   1.638   8.860   7.641  0.7584  0.5979  0.9564
  673MOL0     C90775   1.551   8.753   7.655  0.2682  0.2186 -0.8228
  673MOL0     C90776   1.410   8.754   7.646 -0.4770 -0.8150  0.4725
  673MOL0     C90777   1.354   8.880   7.626 -1.1472  0.3919  0.5412
  673MOL0     O90778   1.221   8.912   7.613 -0.1808  0.4652 -0.3900
  673MOL0     C90779   1.122   8.819   7.673 -0.0231 -0.9027 -0.2472
  673MOL0     C90780   0.971   8.858   7.653 -0.1723 -0.0537 -0.2842
  673MOL0     C90781   0.918   8.943   7.776  0.7021 -0.3709 -0.3154
  673MOL0     C90782   1.009   9.073   7.826  0.2620  0.2938 -0.3024
  673MOL0     C90783   0.947   9.168   7.908  0.2684 -0.2238  0.5668
  673MOL0     C90784   0.922   9.264   7.977  0.4459  0.9096 -1.0134
  673MOL0     C90785   1.429   8.987   7.603  0.1419  0.4262  0.0663
  673MOL0     C90786   1.567   8.982   7.611  0.4437  0.3512 -0.1539
  673MOL0     C90787   1.642   9.121   7.592  0.2363  0.4482 -0.1601
  673MOL0     H90788   2.031   8.781   7.530  0.1000  0.6512  1.1629
  673MOL0     H90789   2.220   8.649   7.478 -0.2454  2.4667  1.0658
  673MOL0     H90790   2.292   8.273   7.728 -0.5682 -0.9708 -0.0284
  673MOL0     H90791   2.236   8.231   7.576  0.0668 -0.1351  1.9255
  673MOL0     H90792   2.520   8.312   7.603 -1.4615  1.7441  0.9388
  673MOL0     H90793   2.451   8.229   7.462  0.0748  1.1487  0.5421
  673MOL0     H90794   2.429   8.020   7.605  2.5057 -1.8245 -0.8490
  673MOL0     H90795   2.449   8.119   7.746  0.3065 -2.0633  0.8714
  673MOL0     H90796   2.689   8.082   7.559  1.4827 -2.1294  1.2689
  673MOL0     H90797   2.685   8.170   7.702  0.5301 -1.1281  1.5132
  673MOL0     H90798   2.775   7.985   7.768 -0.7213 -0.1054  4.7864
  673MOL0     H90799   2.617   7.967   7.833 -1.6343  0.1093 -0.9906
  673MOL0     H90800   2.547   7.816   7.654 -0.4276  0.7922  0.8915
  673MOL0     H90801   2.714   7.838   7.576  2.2681 -1.3336  1.4608
  673MOL0     H90802   2.642   7.722   7.846  2.2224 -1.6916  1.5704
  673MOL0     H90803   2.811   7.748   7.786 -0.1608 -1.8429  3.9813
  673MOL0     H90804   2.743   7.599   7.577  1.5181  0.4709  1.1119
  673MOL0     H90805   2.776   7.521   7.735 -0.2520  0.8829  1.6215
  673MOL0     H90806   2.428   7.650   7.587  1.0876  0.7525  1.8433
  673MOL0     H90807   2.174   7.408   7.731 -0.9314  1.0581 -0.2036
  673MOL0     H90808   2.193   7.581   7.688 -0.3012 -0.0591 -1.7601
  673MOL0     H90809   2.231   7.555   7.477 -0.8468  0.4381  1.3001
  673MOL0     H90810   2.263   7.373   7.485  0.8471  0.6952 -0.7434
  673MOL0     H90811   2.021   7.543   7.477  2.8963  0.8661  2.8075
  673MOL0     H90812   1.995   7.377   7.539 -0.7121 -1.2550 -0.8231
  673MOL0     H90813   2.121   7.457   7.267  3.0070 -3.8869 -0.9725
  673MOL0     H90814   1.971   7.384   7.265  0.4503  0.0997 -1.5885
  673MOL0     H90815   2.136   7.328   7.083 -1.4147 -1.7546  1.7587
  673MOL0     H90816   2.331   7.313   6.924 -2.5607 -0.3504 -0.3553
  673MOL0     H90817   2.849   7.072   6.997 -2.0136  0.0406 -1.7735
  673MOL0     H90818   3.022   7.069   6.841 -4.2070 -0.4289 -0.5909
  673MOL0     H90819   3.239   7.147   6.782  0.6862  1.4744 -0.1798
  673MOL0     H90820   3.195   7.104   6.626 -2.4663 -1.9801  2.0292
  673MOL0     H90821   3.432   7.183   6.629 -0.4429 -1.4683 -1.4034
  673MOL0     H90822   3.332   7.317   6.552 -2.6967 -1.3931 -0.4424
  673MOL0     H90823   3.320   7.435   6.765 -2.3002 -2.9294  1.9216
  673MOL0     H90824   3.439   7.327   6.836 -1.0396  1.4087  2.0085
  673MOL0     H90825   3.466   7.499   6.573 -1.4666  2.4615  1.4852
  673MOL0     H90826   3.597   7.401   6.637  1.9292  2.3819 -0.8285
  673MOL0     H90827   3.488   7.598   6.833 -1.0439  0.3723 -0.1914
  673MOL0     H90828   3.562   7.667   6.690 -1.9869 -1.0904 -1.6431
  673MOL0     H90829   3.723   7.630   6.880  3.7995  0.6568 -1.2781
  673MOL0     H90830   3.725   7.455   6.847  1.5497  0.4723 -0.5755
  673MOL0     H90831   3.795   7.691   6.662  0.1842 -0.1342  1.7734
  673MOL0     H90832   3.781   7.537   6.596 -3.0819  0.2218  0.6391
  673MOL0     H90833   4.026   7.590   6.668  2.6492 -1.6419  1.0849
  673MOL0     H90834   3.967   7.560   6.836  2.3290 -3.5419 -0.2201
  673MOL0     H90835   2.983   7.489   6.768  3.2501 -1.9510 -0.7876
  673MOL0     H90836   2.789   7.500   6.943  0.4134 -0.1999  2.2727
  673MOL0     H90837   2.562   7.161   7.261  0.9043  0.3621 -1.6739
  673MOL0     H90838   2.362   7.140   7.382  1.8874 -0.2967 -0.0313
  673MOL0     H90839   2.078   8.385   7.803 -0.3740  1.6366  1.0218
  673MOL0     H90840   1.901   8.514   7.824 -2.5437 -0.6935 -2.1374
  673MOL0     H90841   1.602   8.661   7.684  0.3173 -0.0383 -1.6970
  673MOL0     H90842   1.346   8.669   7.663  0.0754 -1.1094  1.1413
  673MOL0     H90843   1.148   8.806   7.779  1.3990  2.8486  0.0042
  673MOL0     H90844   1.142   8.725   7.620  1.9258 -0.7350  0.1293
  673MOL0     H90845   0.908   8.769   7.650  1.3226 -1.1295 -1.1336
  673MOL0     H90846   0.958   8.899   7.552 -1.1803  0.4702  0.0361
  673MOL0     H90847   0.909   8.878   7.863  0.1152  0.6007  0.3666
  673MOL0     H90848   0.815   8.962   7.747  0.9732  0.1303 -0.9749
  673MOL0     H90849   1.097   9.033   7.877 -0.4091 -1.6493 -0.5965
  673MOL0     H90850   1.039   9.123   7.733  3.1741 -0.8502 -0.0839
  673MOL0     H90851   0.891   9.341   8.045 -1.5884  1.0802 -2.0470
  673MOL0     H90852   1.386   9.079   7.565 -1.0646 -0.5595 -1.0590
  673MOL0     H90853   1.743   9.123   7.635  0.3148 -1.3039 -0.1735
  673MOL0     H90854   1.656   9.145   7.486  1.5128  1.4938  0.2169
  673MOL0     H90855   1.584   9.199   7.642  1.5914  0.5797  1.2681
  674MOL0     O90856   8.884   7.414   8.727  0.6064  0.2083 -0.1797
  674MOL0     C90857   8.852   7.513   8.659 -0.8538  0.2601  0.4930
  674MOL0     O90858   8.899   7.650   8.671 -1.2171 -0.4460  0.1775
  674MOL0     C90859   8.963   7.686   8.787 -0.3726 -0.1580  1.6526
  674MOL0     C90860   9.095   7.645   8.803  0.6957 -1.2546 -0.1726
  674MOL0     C90861   9.166   7.695   8.917 -0.3069  0.8427  0.2083
  674MOL0     C90862   9.098   7.784   9.002 -0.7350 -0.4027 -1.0458
  674MOL0     O90863   9.165   7.859   9.106  0.1145  0.2441 -0.1475
  674MOL0     C90864   9.305   7.862   9.111 -0.4226 -0.1361 -0.1759
  674MOL0     C90865   9.364   7.938   9.231 -0.3401 -0.7088  0.0768
  674MOL0     C90866   9.357   7.849   9.357 -0.3329 -0.5062 -0.8812
  674MOL0     C90867   9.316   7.938   9.482 -0.7882 -0.1978 -0.1313
  674MOL0     C90868   9.340   7.858   9.607 -0.0721  0.2252  0.0826
  674MOL0     C90869   9.473   7.796   9.644  0.0275 -0.0774  0.6822
  674MOL0     C90870   9.595   7.895   9.634 -0.4996  0.5299  0.1153
  674MOL0     C90871   9.592   8.016   9.720  0.1756  0.2200 -0.2044
  674MOL0     N90872   9.724   8.082   9.730 -0.2754  0.0872  0.2400
  674MOL0     C90873   9.775   8.161   9.638 -0.4350 -0.8186  0.2138
  674MOL0     C90874   9.869   8.231   9.699  0.4540 -0.1296  1.2305
  674MOL0     C90875   9.954   8.332   9.639 -0.3316 -0.1150  1.0486
  674MOL0     C90876   9.882   8.468   9.597  0.2689 -0.1667  0.4185
  674MOL0     C90877   9.951   8.602   9.637  0.4486  1.3982 -0.4011
  674MOL0     C90878  10.055   8.637   9.533 -0.4517 -0.2005 -0.3682
  674MOL0     O90879  10.140   8.750   9.573 -0.1029 -0.2774 -0.8032
  674MOL0     C90880  10.241   8.796   9.485  0.7327  0.0496  0.6102
  674MOL0     C90881  10.347   8.708   9.467  0.3848  0.8603  0.1625
  674MOL0     C90882  10.447   8.745   9.371  0.2690 -0.9119  0.2437
  674MOL0     C90883  10.431   8.861   9.286  0.3433 -0.4475  0.4484
  674MOL0     C90884  10.536   8.887   9.176 -0.1315 -0.6571 -0.4497
  674MOL0     O90885  10.658   8.830   9.187 -0.5465 -0.0429  0.2303
  674MOL0     C90886  10.765   8.900   9.114  0.1208  0.3339 -0.6453
  674MOL0     C90887  10.860   8.983   9.189  0.1697  0.4483  0.2691
  674MOL0     C90888  10.972   9.040   9.141  0.1780  0.3553  0.6244
  674MOL0     C90889  10.988   9.018   9.003  0.7024 -0.9042  0.0426
  674MOL0     O90890  11.090   9.083   8.939  0.1037 -0.8183  0.6525
  674MOL0     C90891  11.199   9.148   9.014 -0.0749  1.2432  0.2547
  674MOL0     C90892  11.158   9.288   9.033  0.0776  0.0653 -0.3749
  674MOL0     C90893  11.230   9.350   9.155 -0.3593 -0.0810 -0.7438
  674MOL0     C90894  11.200   9.497   9.157  0.0108  0.7075  0.0381
  674MOL0     C90895  11.295   9.573   9.246 -0.3838 -0.3650  0.6325
  674MOL0     C90896  11.432   9.592   9.185 -0.7806  0.1708 -0.1535
  674MOL0     C90897  11.527   9.695   9.247  0.0794 -0.4225  0.1907
  674MOL0     C90898  11.525   9.824   9.164  0.1215  0.5288  0.0780
  674MOL0    Cl90899  11.373   9.907   9.192  0.0601  0.3826  0.4953
  674MOL0     C90900  10.894   8.960   8.927  0.3280 -0.8141  0.4737
  674MOL0     C90901  10.786   8.893   8.980 -0.2728  0.2557  0.4744
  674MOL0     O90902  10.501   8.968   9.087 -0.3726 -0.1640  0.3117
  674MOL0     C90903  10.300   8.926   9.288 -0.6311  0.3205 -0.2573
  674MOL0     C90904  10.212   8.898   9.384 -1.0243  0.4360  0.1469
  674MOL0     N90905   9.878   8.193   9.826  1.1819 -0.6610  0.4228
  674MOL0     N90906   9.778   8.109   9.851  0.4744 -0.0513  0.1975
  674MOL0     C90907   8.962   7.810   8.986 -0.5359 -0.2177 -0.2153
  674MOL0     C90908   8.893   7.755   8.883 -0.1501  0.4908 -0.2502
  674MOL0     C90909   8.764   7.474   8.545 -0.1968  0.1370  0.3273
  674MOL0     C90910   8.693   7.580   8.489 -0.1041 -0.6513 -0.5552
  674MOL0     C90911   8.603   7.567   8.387  0.5688  0.5477  0.1746
  674MOL0     C90912   8.576   7.436   8.337 -0.1156 -0.0320 -0.1407
  674MOL0     O90913   8.499   7.401   8.237 -0.7145 -0.1171 -0.1794
  674MOL0     C90914   8.455   7.497   8.145 -0.5986 -0.7484  0.3637
  674MOL0     C90915   8.310   7.468   8.107 -0.8947  0.1145  0.4583
  674MOL0     C90916   8.252   7.567   7.999  0.4509 -0.3976  0.7502
  674MOL0     C90917   8.249   7.714   8.039 -0.5805 -0.5072  0.8700
  674MOL0     C90918   8.177   7.779   7.923 -0.2898 -0.1872 -0.2562
  674MOL0     C90919   8.111   7.833   7.839 -0.3544 -0.3024 -0.3707
  674MOL0     C90920   8.633   7.330   8.406  0.1877 -0.0656 -0.2867
  674MOL0     C90921   8.730   7.338   8.506  0.2147  0.0371  0.7949
  674MOL0     C90922   8.787   7.201   8.558  0.2127 -0.2285  0.6194
  674MOL0     H90923   9.141   7.571   8.739  2.5195 -0.5224  0.2237
  674MOL0     H90924   9.272   7.670   8.926 -0.5813 -0.4917  0.0277
  674MOL0     H90925   9.356   7.765   9.118  0.1913  0.2360  0.6671
  674MOL0     H90926   9.338   7.918   9.023  1.2625 -0.4864  0.1799
  674MOL0     H90927   9.309   8.032   9.240 -0.3233 -0.6310 -0.5506
  674MOL0     H90928   9.470   7.954   9.212 -0.6552  1.2954 -0.1447
  674MOL0     H90929   9.454   7.799   9.365  0.4361  0.5244 -2.9094
  674MOL0     H90930   9.277   7.775   9.345 -3.5914  2.7591 -1.1491
  674MOL0     H90931   9.386   8.022   9.486 -1.3430  0.3092 -0.6602
  674MOL0     H90932   9.213   7.974   9.475 -0.3621  0.9961 -0.5931
  674MOL0     H90933   9.308   7.921   9.690  1.3233  0.8950  0.1356
  674MOL0     H90934   9.266   7.777   9.599 -0.6062  0.9030 -2.8648
  674MOL0     H90935   9.454   7.768   9.748 -0.3524  2.6174  1.4126
  674MOL0     H90936   9.482   7.705   9.584  2.9471 -0.3588  1.4242
  674MOL0     H90937   9.598   7.926   9.529 -0.6877 -0.9333 -0.3439
  674MOL0     H90938   9.687   7.838   9.648 -1.9754 -1.6312  1.6338
  674MOL0     H90939   9.521   8.094   9.692 -0.7405 -0.0994  1.1579
  674MOL0     H90940   9.572   7.994   9.825 -0.6896 -0.9188 -0.5816
  674MOL0     H90941   9.735   8.185   9.540 -0.1687  1.4058  0.6197
  674MOL0     H90942  10.044   8.351   9.699 -0.4094  1.2323  0.7591
  674MOL0     H90943   9.996   8.289   9.548 -2.5312  1.4849 -0.8319
  674MOL0     H90944   9.867   8.464   9.489  0.0398  3.0970  0.2392
  674MOL0     H90945   9.785   8.469   9.648 -0.5466  0.4612 -1.1038
  674MOL0     H90946   9.989   8.587   9.739 -3.2035  1.9003  1.1839
  674MOL0     H90947   9.886   8.689   9.645  1.1108  1.7506  2.1248
  674MOL0     H90948  10.020   8.650   9.430  1.5497 -1.1508 -1.2167
  674MOL0     H90949  10.127   8.556   9.517  1.6941  1.4954  0.2966
  674MOL0     H90950  10.350   8.619   9.530 -0.5205  1.0303  0.4689
  674MOL0     H90951  10.536   8.682   9.366 -2.6714 -5.4822 -0.3403
  674MOL0     H90952  10.828   8.981   9.292  0.3993  0.2139  0.3359
  674MOL0     H90953  11.038   9.094   9.208  0.7349  1.8586 -1.0490
  674MOL0     H90954  11.205   9.098   9.111 -2.8062  1.3570  0.5762
  674MOL0     H90955  11.296   9.141   8.965 -1.5507 -0.2254 -2.6739
  674MOL0     H90956  11.165   9.346   8.941  2.3417 -0.7687 -0.7733
  674MOL0     H90957  11.053   9.281   9.066 -0.0592 -3.5839 -1.1681
  674MOL0     H90958  11.185   9.311   9.247  0.0177 -0.4923 -0.7316
  674MOL0     H90959  11.337   9.333   9.146 -0.2995 -1.6557  2.0119
  674MOL0     H90960  11.098   9.511   9.194 -0.0207  0.2112  0.1531
  674MOL0     H90961  11.201   9.540   9.057 -2.8004 -1.6165 -1.1595
  674MOL0     H90962  11.306   9.506   9.333 -1.3877  1.1013  1.9316
  674MOL0     H90963  11.255   9.671   9.271  4.7164  2.3104 -0.3127
  674MOL0     H90964  11.481   9.497   9.204 -2.3674 -0.2765  2.0850
  674MOL0     H90965  11.415   9.600   9.077 -0.9530 -2.3161 -0.3632
  674MOL0     H90966  11.624   9.646   9.233 -0.6289 -1.7279 -0.3688
  674MOL0     H90967  11.499   9.724   9.348 -1.9671  1.8938 -0.9487
  674MOL0     H90968  11.610   9.887   9.191  0.0105  1.2020 -1.0831
  674MOL0     H90969  11.546   9.806   9.058 -1.4889  0.8355 -0.3293
  674MOL0     H90970  10.915   8.962   8.820 -2.4189 -2.4405 -0.1835
  674MOL0     H90971  10.707   8.843   8.926  0.0966 -0.9061  0.9792
  674MOL0     H90972  10.277   9.010   9.222 -2.2295 -2.1760 -3.1828
  674MOL0     H90973  10.119   8.954   9.384 -0.8082  0.8977  2.7827
  674MOL0     H90974   8.929   7.860   9.076  2.6723 -1.3228  1.7205
  674MOL0     H90975   8.786   7.768   8.882 -0.3603 -1.0860 -0.9717
  674MOL0     H90976   8.696   7.685   8.517  1.2349 -0.6911 -0.4550
  674MOL0     H90977   8.552   7.650   8.338  0.1862  1.1000  1.4758
  674MOL0     H90978   8.521   7.480   8.059 -0.2852 -1.2474  0.7056
  674MOL0     H90979   8.457   7.599   8.185  0.2497 -0.0032 -1.4497
  674MOL0     H90980   8.244   7.469   8.194 -2.5245 -1.7038 -0.6994
  674MOL0     H90981   8.303   7.370   8.059  1.0646  0.3942 -0.5114
  674MOL0     H90982   8.153   7.530   7.971  0.1294  2.6100 -2.9178
  674MOL0     H90983   8.309   7.560   7.906  0.2109  1.6177  0.4174
  674MOL0     H90984   8.196   7.733   8.133  1.5755  0.8008  1.9013
  674MOL0     H90985   8.352   7.751   8.040 -1.0718  1.1904 -1.5248
  674MOL0     H90986   8.069   7.884   7.755  4.4582 -0.3053 -3.1344
  674MOL0     H90987   8.611   7.226   8.383  3.1536 -0.6771 -0.8051
  674MOL0     H90988   8.713   7.141   8.612  1.6231 -1.5522  1.1686
  674MOL0     H90989   8.824   7.140   8.475 -0.6553  1.5120 -1.1176
  674MOL0     H90990   8.875   7.212   8.622  0.8893 -1.1806 -0.1102
  675MOL0     O90991   5.700   8.613   8.074  0.4733  0.1849 -0.3456
  675MOL0     C90992   5.818   8.572   8.044  0.0629  0.5494 -0.8464
  675MOL0     O90993   5.850   8.503   7.933 -0.4428  0.1158 -0.2020
  675MOL0     C90994   5.751   8.468   7.851  0.3032  0.2024 -0.2571
  675MOL0     C90995   5.696   8.340   7.881  0.3254  0.1422  0.2868
  675MOL0     C90996   5.588   8.286   7.811  0.2249 -0.5673  0.5201
  675MOL0     C90997   5.541   8.359   7.691 -0.2785 -0.7520 -0.0910
  675MOL0     O90998   5.450   8.296   7.614 -0.1390  0.6139  0.6459
  675MOL0     C90999   5.393   8.367   7.507  0.7196 -0.2983  0.0830
  675MOL0     C91000   5.271   8.280   7.453  0.9317  0.5425  0.8144
  675MOL0     C91001   5.214   8.344   7.329 -1.0525 -0.6513  0.3423
  675MOL0     C91002   5.064   8.378   7.355 -0.2077  0.1211  0.5369
  675MOL0     C91003   4.991   8.407   7.230 -0.7832  0.0511  0.7316
  675MOL0     C91004   4.840   8.431   7.245 -0.0515 -0.0964  0.0102
  675MOL0     C91005   4.815   8.557   7.331 -0.3813  0.1161 -0.8038
  675MOL0     C91006   4.669   8.605   7.324 -0.1080  0.3605 -0.0883
  675MOL0     N91007   4.569   8.500   7.365  0.0407 -0.2001  0.0853
  675MOL0     C91008   4.501   8.489   7.484  0.6455 -1.1497 -0.2630
  675MOL0     C91009   4.391   8.412   7.455 -0.2130  0.1717  1.0602
  675MOL0     C91010   4.278   8.378   7.545  0.4600 -0.8699 -0.0947
  675MOL0     C91011   4.177   8.486   7.556  0.2961 -0.0095 -0.2976
  675MOL0     C91012   4.062   8.461   7.650  0.0030 -0.0098  0.2383
  675MOL0     C91013   3.972   8.590   7.661 -0.6663 -0.2582  0.1516
  675MOL0     O91014   3.862   8.568   7.752  0.5354  0.3474 -0.1715
  675MOL0     C91015   3.774   8.671   7.758 -0.2039 -0.5007 -0.5712
  675MOL0     C91016   3.814   8.784   7.832 -0.4992 -0.7297 -0.4908
  675MOL0     C91017   3.722   8.884   7.869 -0.0091  0.7590 -0.5265
  675MOL0     C91018   3.580   8.865   7.831 -0.8968  0.1072  0.0940
  675MOL0     C91019   3.475   8.958   7.875  0.4810  0.2756 -0.3199
  675MOL0     O91020   3.341   8.930   7.846  0.1784  0.5234  0.1517
  675MOL0     C91021   3.249   9.023   7.888 -0.2750 -0.9971  0.8198
  675MOL0     C91022   3.172   9.096   7.789 -0.6454  0.9572 -0.7856
  675MOL0     C91023   3.086   9.189   7.831 -0.8167 -0.5253 -0.4084
  675MOL0     C91024   3.059   9.217   7.962 -0.1564  0.7921 -0.1639
  675MOL0     O91025   2.963   9.306   7.998 -0.2453 -0.3249 -0.2215
  675MOL0     C91026   2.834   9.279   7.940 -1.0249  0.4249  0.0462
  675MOL0     C91027   2.739   9.387   7.987  0.4711  0.0289  0.6489
  675MOL0     C91028   2.688   9.349   8.122 -0.2832  0.7509 -0.3073
  675MOL0     C91029   2.548   9.282   8.115  0.3674  0.1923  0.4779
  675MOL0     C91030   2.496   9.242   8.256  0.0658  0.9641 -0.9302
  675MOL0     C91031   2.559   9.111   8.305 -0.2349 -0.4853 -0.2101
  675MOL0     C91032   2.515   9.076   8.445  0.0119 -0.2020 -0.3606
  675MOL0     C91033   2.603   8.966   8.502  0.3179 -0.8267 -0.0272
  675MOL0    Cl91034   2.598   8.826   8.400  0.0087 -0.1057 -0.5434
  675MOL0     C91035   3.148   9.161   8.058  0.1205  0.0041  0.4736
  675MOL0     C91036   3.238   9.058   8.020  0.2647 -0.4016 -0.7865
  675MOL0     O91037   3.504   9.063   7.931 -0.6959  0.3112 -0.6035
  675MOL0     C91038   3.550   8.754   7.755  0.1328 -0.7842 -0.2953
  675MOL0     C91039   3.645   8.662   7.715  0.2043 -0.2497  0.5476
  675MOL0     N91040   4.394   8.372   7.320  0.1013 -0.0139  0.3768
  675MOL0     N91041   4.493   8.433   7.272  0.4385 -0.2190  0.4902
  675MOL0     C91042   5.600   8.483   7.664 -1.1124 -0.0408  0.1164
  675MOL0     C91043   5.702   8.534   7.743 -0.5029 -0.3320  0.7222
  675MOL0     C91044   5.937   8.598   8.137  0.4904  0.4317 -1.1659
  675MOL0     C91045   6.051   8.511   8.118  0.2878 -0.0041 -0.1582
  675MOL0     C91046   6.157   8.519   8.210 -0.1409  0.7997 -0.0679
  675MOL0     C91047   6.149   8.607   8.319 -0.7321 -0.0435 -0.3823
  675MOL0     O91048   6.259   8.618   8.407  0.0754  0.0196  0.4256
  675MOL0     C91049   6.252   8.546   8.527 -0.7296 -0.2383  0.9985
  675MOL0     C91050   6.191   8.626   8.643 -0.7961 -0.1561  0.4303
  675MOL0     C91051   6.150   8.532   8.766 -0.0068  0.6523  0.2102
  675MOL0     C91052   6.280   8.464   8.826 -0.6175 -0.0086  0.8764
  675MOL0     C91053   6.323   8.532   8.943 -0.0135 -0.5579 -0.2563
  675MOL0     C91054   6.361   8.565   9.058  0.0189 -0.8079 -0.2494
  675MOL0     C91055   6.036   8.692   8.331 -0.0788 -0.0950  0.2233
  675MOL0     C91056   5.921   8.686   8.247 -0.8818  0.4358  0.0063
  675MOL0     C91057   5.797   8.777   8.267  0.2544  0.5309 -0.1157
  675MOL0     H91058   5.736   8.286   7.965 -0.5220 -0.7987  0.0919
  675MOL0     H91059   5.551   8.186   7.830 -0.7532 -0.2291  0.4948
  675MOL0     H91060   5.353   8.462   7.543  1.0291 -0.0858 -0.1307
  675MOL0     H91061   5.458   8.400   7.425 -0.2292  1.1784 -0.1109
  675MOL0     H91062   5.200   8.264   7.535 -3.9950  1.4671 -2.7956
  675MOL0     H91063   5.300   8.179   7.424  2.6273  1.3972 -0.6666
  675MOL0     H91064   5.223   8.265   7.254 -0.0517 -1.2314  1.0432
  675MOL0     H91065   5.276   8.430   7.303 -1.4877 -0.9775 -2.0146
  675MOL0     H91066   5.016   8.296   7.410 -0.0083 -2.2883 -2.6078
  675MOL0     H91067   5.054   8.461   7.425 -1.5194  0.2711  0.1940
  675MOL0     H91068   5.034   8.498   7.187 -0.3663 -0.7854 -0.6910
  675MOL0     H91069   5.004   8.315   7.172 -2.2851  0.3949 -0.1942
  675MOL0     H91070   4.818   8.447   7.139  2.3118  2.6373 -0.2216
  675MOL0     H91071   4.790   8.347   7.294  1.0560 -0.1649  1.0806
  675MOL0     H91072   4.879   8.635   7.290 -0.2448  0.2595 -0.3305
  675MOL0     H91073   4.849   8.534   7.433 -0.6230  1.7792 -0.3189
  675MOL0     H91074   4.649   8.682   7.399 -0.5910 -0.7369  0.9393
  675MOL0     H91075   4.651   8.635   7.220  0.6623  0.0928 -0.3075
  675MOL0     H91076   4.523   8.532   7.582 -0.7599 -0.3520 -0.2686
  675MOL0     H91077   4.226   8.287   7.513  1.2690 -2.2903  2.3580
  675MOL0     H91078   4.322   8.356   7.643  0.4550 -1.8485 -0.3044
  675MOL0     H91079   4.224   8.571   7.605 -1.7074  1.5130 -0.8596
  675MOL0     H91080   4.146   8.521   7.457  1.2622 -0.3011 -0.7131
  675MOL0     H91081   4.088   8.408   7.742 -1.2571 -2.0981 -0.5205
  675MOL0     H91082   4.000   8.384   7.602  1.2434 -0.2287 -1.0887
  675MOL0     H91083   3.929   8.615   7.564  0.8630  1.3965 -0.1545
  675MOL0     H91084   4.034   8.678   7.680 -0.0504 -0.7857  0.6322
  675MOL0     H91085   3.916   8.779   7.869 -0.3201 -3.3126 -1.1347
  675MOL0     H91086   3.752   8.973   7.924  0.1886 -0.7864  2.0324
  675MOL0     H91087   3.179   9.064   7.686 -0.2724 -0.7113 -0.2693
  675MOL0     H91088   3.031   9.247   7.758  1.5243 -0.0464 -1.8916
  675MOL0     H91089   2.838   9.285   7.831 -0.7125  0.3998  0.0570
  675MOL0     H91090   2.810   9.177   7.971  2.7429 -0.8181 -0.5689
  675MOL0     H91091   2.785   9.486   7.987 -0.4307  0.4603 -0.3431
  675MOL0     H91092   2.664   9.393   7.908  0.0911 -0.4692  0.9663
  675MOL0     H91093   2.758   9.275   8.162  0.8163 -0.5771 -4.2061
  675MOL0     H91094   2.677   9.440   8.182  1.2176 -1.0810  3.0049
  675MOL0     H91095   2.548   9.191   8.054 -0.5629 -0.5868  1.6034
  675MOL0     H91096   2.483   9.353   8.063 -2.8990 -2.2269  0.9213
  675MOL0     H91097   2.388   9.235   8.244 -0.0275  1.5629 -0.4826
  675MOL0     H91098   2.522   9.321   8.327 -0.4597  0.0762  0.2861
  675MOL0     H91099   2.528   9.031   8.237  0.6902 -1.8300  0.8924
  675MOL0     H91100   2.668   9.119   8.300 -0.1586 -1.2729  0.0829
  675MOL0     H91101   2.413   9.037   8.449  0.7325 -2.5377 -2.2122
  675MOL0     H91102   2.533   9.157   8.517  0.6868 -1.2254  0.6536
  675MOL0     H91103   2.708   8.993   8.491  0.0527  0.6472  0.8935
  675MOL0     H91104   2.571   8.940   8.603 -0.8961 -1.4571 -0.5556
  675MOL0     H91105   3.128   9.189   8.161 -4.3872  2.6733 -0.8443
  675MOL0     H91106   3.303   9.030   8.103  3.1828  0.1974 -2.7323
  675MOL0     H91107   3.449   8.752   7.715 -0.1237  2.0987 -0.0152
  675MOL0     H91108   3.611   8.572   7.664  1.5462 -1.0767  1.0694
  675MOL0     H91109   5.559   8.553   7.592 -2.2199  0.5631  1.2983
  675MOL0     H91110   5.742   8.634   7.732  1.5015 -1.2263 -0.7266
  675MOL0     H91111   6.053   8.424   8.053  0.5055 -0.7509  0.8264
  675MOL0     H91112   6.241   8.452   8.197 -1.9249 -1.3067 -1.4420
  675MOL0     H91113   6.355   8.525   8.555 -0.6575  0.5407  1.3522
  675MOL0     H91114   6.193   8.455   8.513 -2.9553  1.0595  1.4195
  675MOL0     H91115   6.101   8.667   8.597 -0.7769 -0.3379  0.2287
  675MOL0     H91116   6.268   8.698   8.672 -0.8145  0.1117 -0.1816
  675MOL0     H91117   6.074   8.457   8.743  0.8896  0.3030 -1.8488
  675MOL0     H91118   6.097   8.592   8.840 -1.7911 -0.7755  0.1713
  675MOL0     H91119   6.252   8.367   8.868 -0.7395 -0.8286 -0.9870
  675MOL0     H91120   6.359   8.447   8.753 -1.7278 -1.7307  0.0134
  675MOL0     H91121   6.394   8.594   9.156 -0.2816 -0.4773 -0.2447
  675MOL0     H91122   6.033   8.766   8.410  2.0375  0.4667 -0.1699
  675MOL0     H91123   5.768   8.818   8.170 -1.2670 -0.4718 -0.1315
  675MOL0     H91124   5.714   8.732   8.323  3.5066 -1.3790  3.6578
  675MOL0     H91125   5.823   8.870   8.318 -0.7842  1.9180 -2.0031
  676MOL0     O91126   1.860   3.391   3.108 -0.4300  0.0371 -0.3085
  676MOL0     C91127   1.948   3.335   3.052 -0.3023  0.7695 -0.1868
  676MOL0     O91128   1.990   3.357   2.924  0.3185  0.1398  0.6505
  676MOL0     C91129   1.940   3.470   2.857 -0.3172 -0.1185 -0.2033
  676MOL0     C91130   2.023   3.577   2.813 -0.0350 -0.2570 -0.1163
  676MOL0     C91131   1.971   3.679   2.731  0.9022 -0.5360  0.1634
  676MOL0     C91132   1.841   3.663   2.672  0.1193 -0.1648  0.4455
  676MOL0     O91133   1.790   3.760   2.589  0.7699  0.1775  0.3063
  676MOL0     C91134   1.799   3.727   2.459  0.3322  0.7374 -0.3548
  676MOL0     C91135   1.724   3.846   2.396 -0.5517  0.3439 -0.6915
  676MOL0     C91136   1.627   3.801   2.280  0.0644  0.7184  0.1942
  676MOL0     C91137   1.505   3.717   2.332  0.2455 -0.7929 -0.7972
  676MOL0     C91138   1.397   3.728   2.225 -0.0990 -0.2360 -0.0496
  676MOL0     C91139   1.316   3.855   2.225  0.1192 -0.1668  0.4213
  676MOL0     C91140   1.168   3.822   2.199 -0.0032  0.4195 -0.6534
  676MOL0     C91141   1.082   3.790   2.327  0.6112 -0.1587  0.0469
  676MOL0     N91142   0.942   3.762   2.284 -0.3373  0.1671 -0.5520
  676MOL0     C91143   0.849   3.854   2.257  0.5723 -0.3093  0.6269
  676MOL0     C91144   0.733   3.790   2.228 -0.6281  0.4955  0.0825
  676MOL0     C91145   0.598   3.815   2.186 -1.1677 -1.1155 -0.1622
  676MOL0     C91146   0.621   3.883   2.047  0.2000 -0.2263 -0.0588
  676MOL0     C91147   0.709   3.803   1.947 -0.4117 -0.4943  0.3483
  676MOL0     C91148   0.707   3.851   1.808  0.7157 -0.5491 -0.1152
  676MOL0     O91149   0.679   3.995   1.784  0.1873 -0.0832 -0.4656
  676MOL0     C91150   0.785   4.086   1.780  0.4300 -1.0484 -0.4222
  676MOL0     C91151   0.922   4.059   1.775  0.6609 -0.5278 -0.6767
  676MOL0     C91152   1.018   4.154   1.748  0.1317  0.7734 -0.8632
  676MOL0     C91153   0.984   4.289   1.732  0.9376 -0.2725  0.0245
  676MOL0     C91154   1.094   4.386   1.712  0.3804 -0.3436 -0.0972
  676MOL0     O91155   1.227   4.354   1.753 -0.1456  0.3207 -0.3385
  676MOL0     C91156   1.331   4.436   1.717 -0.1887 -0.2566  0.7534
  676MOL0     C91157   1.348   4.561   1.776  0.4112  0.4320  1.0615
  676MOL0     C91158   1.459   4.638   1.747 -0.0706 -0.3071 -0.4443
  676MOL0     C91159   1.555   4.610   1.654  0.8920  0.7240 -0.0890
  676MOL0     O91160   1.655   4.700   1.641  0.3622 -0.5812 -0.8073
  676MOL0     C91161   1.780   4.667   1.588 -1.0935  0.4542 -0.3497
  676MOL0     C91162   1.873   4.787   1.621 -0.0283 -0.0998 -1.2162
  676MOL0     C91163   1.903   4.801   1.778  0.1019 -0.6572  1.0240
  676MOL0     C91164   2.038   4.885   1.785  0.1619  0.9528  0.4357
  676MOL0     C91165   2.076   4.927   1.926 -0.2662 -0.0893 -0.7621
  676MOL0     C91166   1.983   5.028   1.994  0.0563 -0.1215  0.3880
  676MOL0     C91167   1.955   5.154   1.915  0.5098 -0.3568  0.2824
  676MOL0     C91168   1.868   5.254   1.983  0.1250 -0.1079  0.0523
  676MOL0    Cl91169   1.858   5.417   1.916  0.2625 -0.4377  0.1488
  676MOL0     C91170   1.540   4.476   1.599 -0.5067 -0.7380 -0.4537
  676MOL0     C91171   1.434   4.385   1.636 -1.8015 -0.3799 -0.6589
  676MOL0     O91172   1.057   4.502   1.678  0.0966 -0.3174 -0.5788
  676MOL0     C91173   0.851   4.329   1.748  0.5419  0.2362 -0.1677
  676MOL0     C91174   0.757   4.227   1.762  0.3486 -0.0303  0.3553
  676MOL0     N91175   0.761   3.658   2.260  0.5391  0.5243  0.1261
  676MOL0     N91176   0.886   3.637   2.270 -0.6359 -0.1304 -0.0472
  676MOL0     C91177   1.767   3.541   2.699  0.9115 -0.3447 -0.1743
  676MOL0     C91178   1.817   3.455   2.798 -0.0153  0.0482  0.2349
  676MOL0     C91179   2.008   3.232   3.130  0.7077  0.8802 -0.9039
  676MOL0     C91180   2.150   3.218   3.142 -0.1638  0.7455 -0.5511
  676MOL0     C91181   2.200   3.111   3.214 -0.2793  0.1972 -0.2132
  676MOL0     C91182   2.126   3.018   3.288 -0.2530  0.0406  0.0042
  676MOL0     O91183   2.186   2.910   3.343 -0.7139 -0.1592 -0.1253
  676MOL0     C91184   2.102   2.794   3.375 -0.1677 -0.0227  0.7090
  676MOL0     C91185   2.180   2.659   3.354  0.3205  0.6414  0.8322
  676MOL0     C91186   2.313   2.642   3.437 -0.1870 -0.5383  0.7848
  676MOL0     C91187   2.368   2.502   3.395  0.1034  0.3656  0.5347
  676MOL0     C91188   2.471   2.457   3.478 -0.3535  0.2752  0.5389
  676MOL0     C91189   2.545   2.408   3.565 -0.2478  0.1957  0.2822
  676MOL0     C91190   1.987   3.039   3.285 -0.0822 -0.3343  0.2577
  676MOL0     C91191   1.928   3.133   3.202  0.5421 -1.0765  0.0412
  676MOL0     C91192   1.776   3.137   3.204 -0.1193 -0.0616 -0.1982
  676MOL0     H91193   2.124   3.590   2.852  0.3159 -1.5330 -0.5470
  676MOL0     H91194   2.039   3.760   2.707 -0.5884  0.8652  0.5126
  676MOL0     H91195   1.896   3.709   2.411  0.6539  0.5928  0.3464
  676MOL0     H91196   1.746   3.632   2.452  4.5299 -2.1577  2.3336
  676MOL0     H91197   1.794   3.915   2.347  0.6847 -1.8647 -2.2340
  676MOL0     H91198   1.666   3.900   2.471 -0.8737  1.7215 -1.8775
  676MOL0     H91199   1.687   3.747   2.206 -0.1111  1.0814 -0.2190
  676MOL0     H91200   1.596   3.896   2.235 -4.2815 -1.6832 -2.5025
  676MOL0     H91201   1.540   3.615   2.349  4.1480  0.8032  2.3671
  676MOL0     H91202   1.490   3.754   2.434  1.2446 -0.2332 -0.8451
  676MOL0     H91203   1.431   3.706   2.123 -0.6971  1.0133 -0.5436
  676MOL0     H91204   1.337   3.648   2.270 -1.9393  2.1692  2.0652
  676MOL0     H91205   1.327   3.910   2.320 -0.6164 -0.1012  0.4702
  676MOL0     H91206   1.358   3.916   2.145 -4.8803  1.7940 -1.0486
  676MOL0     H91207   1.148   3.737   2.133 -4.1297  1.2489 -0.7235
  676MOL0     H91208   1.125   3.909   2.149  1.1703  1.0144 -0.6690
  676MOL0     H91209   1.121   3.704   2.383  1.4902  0.4191  0.3518
  676MOL0     H91210   1.081   3.870   2.401 -1.0628 -1.5738  1.6615
  676MOL0     H91211   0.856   3.962   2.269  0.1333 -0.3419  1.1820
  676MOL0     H91212   0.541   3.722   2.185  0.1947 -2.0223  1.1721
  676MOL0     H91213   0.552   3.878   2.263  0.2745  0.6967 -0.6956
  676MOL0     H91214   0.521   3.892   2.002 -0.3098 -3.0365  0.3542
  676MOL0     H91215   0.670   3.980   2.062 -1.7897  0.8720 -0.3175
  676MOL0     H91216   0.689   3.696   1.937 -4.2381  0.0543  0.5752
  676MOL0     H91217   0.810   3.808   1.989 -0.3354  4.4095  0.0777
  676MOL0     H91218   0.638   3.786   1.753 -1.1668  1.9522 -0.9258
  676MOL0     H91219   0.803   3.838   1.758 -0.4865 -0.1995 -2.6445
  676MOL0     H91220   0.940   3.955   1.801 -1.0735  0.1734  4.3872
  676MOL0     H91221   1.122   4.124   1.743  0.0298  0.5181 -1.5108
  676MOL0     H91222   1.269   4.606   1.835 -0.7366  0.6252 -0.5817
  676MOL0     H91223   1.473   4.733   1.797  1.2369 -0.7712  0.1053
  676MOL0     H91224   1.814   4.573   1.630  0.7267  0.3538 -1.9046
  676MOL0     H91225   1.771   4.653   1.480 -0.4381 -4.4636  0.0370
  676MOL0     H91226   1.970   4.791   1.570  1.2772  1.0797  1.1826
  676MOL0     H91227   1.827   4.880   1.586  1.5813  1.1002 -0.2681
  676MOL0     H91228   1.822   4.859   1.822 -3.4298 -4.3454  0.0485
  676MOL0     H91229   1.897   4.708   1.836 -1.3900 -1.3459 -0.1440
  676MOL0     H91230   2.015   4.974   1.725 -2.9281  0.9131  1.3618
  676MOL0     H91231   2.117   4.824   1.742 -0.3192 -1.7268  3.0702
  676MOL0     H91232   2.177   4.967   1.915  0.3913 -1.8887 -1.7036
  676MOL0     H91233   2.066   4.843   1.996  2.8247  2.0803  2.6612
  676MOL0     H91234   1.883   4.989   2.017  0.8069 -1.1857  2.0640
  676MOL0     H91235   2.028   5.053   2.090 -0.7459  0.1549  0.7051
  676MOL0     H91236   1.916   5.123   1.818  0.8757 -2.6771  0.8248
  676MOL0     H91237   2.050   5.205   1.895  0.6089 -1.1405 -1.4939
  676MOL0     H91238   1.764   5.222   1.996  0.1053  0.7266  2.3921
  676MOL0     H91239   1.909   5.271   2.082  2.8587  2.5011 -1.3693
  676MOL0     H91240   1.610   4.441   1.524 -2.9696 -3.9232 -1.5165
  676MOL0     H91241   1.434   4.286   1.591  3.0373  0.7198 -3.8056
  676MOL0     H91242   0.821   4.433   1.739 -1.8158 -0.4810 -1.3341
  676MOL0     H91243   0.655   4.261   1.772  0.5761  0.3722  1.5554
  676MOL0     H91244   1.669   3.517   2.660  0.4177  0.2169  0.6749
  676MOL0     H91245   1.773   3.356   2.809 -0.3752 -0.0933 -2.1190
  676MOL0     H91246   2.213   3.279   3.078  3.1278 -2.3484 -0.5467
  676MOL0     H91247   2.308   3.108   3.203 -0.3426 -2.9151 -0.7065
  676MOL0     H91248   2.027   2.790   3.295  0.7481 -0.0791 -0.1752
  676MOL0     H91249   2.061   2.802   3.476  1.7547 -0.3667  1.5683
  676MOL0     H91250   2.217   2.650   3.252  0.5379 -4.2169  1.1311
  676MOL0     H91251   2.112   2.577   3.377  1.8116 -1.4175 -1.5754
  676MOL0     H91252   2.286   2.649   3.542 -0.4771  1.7289  0.6223
  676MOL0     H91253   2.386   2.722   3.425 -2.0411  1.2328  0.6426
  676MOL0     H91254   2.282   2.435   3.391 -1.6203  2.5112 -0.8392
  676MOL0     H91255   2.397   2.506   3.289 -0.8734 -1.6388  0.1616
  676MOL0     H91256   2.600   2.366   3.647  0.6421  1.8510  0.5691
  676MOL0     H91257   1.923   2.971   3.339  1.6097 -1.5821  0.7782
  676MOL0     H91258   1.737   3.161   3.105  0.7667  2.5517  0.0345
  676MOL0     H91259   1.713   3.051   3.231 -0.7899 -0.4180 -2.6663
  676MOL0     H91260   1.737   3.207   3.278 -1.5130 -0.1506 -0.8196
  677MOL0     O91261   4.746   4.707   5.095  0.2941  0.3161 -0.4749
  677MOL0     C91262   4.743   4.804   5.027  0.5370 -0.5206  0.6687
  677MOL0     O91263   4.845   4.858   4.959  0.7580 -0.8524 -0.1787
  677MOL0     C91264   4.956   4.782   4.941 -0.7508  0.1055  0.0931
  677MOL0     C91265   5.074   4.847   4.936  0.2694 -0.0308 -0.5797
  677MOL0     C91266   5.194   4.781   4.917  0.5669 -0.2567  0.4160
  677MOL0     C91267   5.198   4.648   4.881 -0.0007 -0.0440 -1.0312
  677MOL0     O91268   5.320   4.595   4.853 -0.1063  0.0266 -1.0176
  677MOL0     C91269   5.322   4.472   4.781  0.6525  0.9192 -0.7876
  677MOL0     C91270   5.475   4.443   4.764 -0.0606 -0.1347  1.0155
  677MOL0     C91271   5.537   4.541   4.669  0.0573 -0.0459  0.6141
  677MOL0     C91272   5.679   4.504   4.643  0.1145 -0.2035  0.9611
  677MOL0     C91273   5.750   4.590   4.542 -0.7555 -0.2461  0.0640
  677MOL0     C91274   5.697   4.545   4.397 -1.4606 -0.0947  0.7480
  677MOL0     C91275   5.784   4.608   4.289  1.3213 -0.7416 -0.4558
  677MOL0     C91276   5.929   4.555   4.287 -0.1995 -0.5420  0.2112
  677MOL0     N91277   5.995   4.564   4.161  0.0620 -0.2412 -0.3089
  677MOL0     C91278   5.969   4.500   4.042 -1.5711  0.2799 -0.5096
  677MOL0     C91279   6.069   4.544   3.956 -0.0720  0.2300 -0.1158
  677MOL0     C91280   6.095   4.484   3.814  0.1048  0.3934 -0.7980
  677MOL0     C91281   6.245   4.504   3.776  0.7641 -0.1801 -0.9109
  677MOL0     C91282   6.343   4.413   3.858  0.1340  0.3630 -0.2675
  677MOL0     C91283   6.484   4.412   3.804 -0.1847  0.2769 -0.4331
  677MOL0     O91284   6.576   4.325   3.877  1.0125 -0.4454  0.4240
  677MOL0     C91285   6.690   4.288   3.823 -0.4310 -0.6037 -0.3302
  677MOL0     C91286   6.730   4.333   3.695 -0.8448 -0.6102 -0.6804
  677MOL0     C91287   6.856   4.285   3.643 -0.8084  0.1840 -0.3859
  677MOL0     C91288   6.932   4.192   3.713  0.1288 -0.4360  0.2715
  677MOL0     C91289   7.049   4.125   3.656 -0.0673  0.9202  0.0981
  677MOL0     O91290   7.119   4.040   3.735  0.0348  0.2488 -0.8536
  677MOL0     C91291   7.241   3.988   3.702  0.4373 -1.0209 -0.2024
  677MOL0     C91292   7.256   3.908   3.588  0.0577 -0.0703  0.2043
  677MOL0     C91293   7.384   3.865   3.556  0.6914  0.7685 -0.4890
  677MOL0     C91294   7.490   3.874   3.638  0.0973 -0.5503  0.9388
  677MOL0     O91295   7.614   3.822   3.618 -0.7196 -0.1412  0.5210
  677MOL0     C91296   7.628   3.690   3.591  0.2916 -0.1005 -0.5505
  677MOL0     C91297   7.640   3.608   3.725 -0.6123  0.1536  0.2087
  677MOL0     C91298   7.508   3.562   3.780  0.1154 -0.9768 -0.3311
  677MOL0     C91299   7.531   3.447   3.881 -0.2275 -0.6037  0.1557
  677MOL0     C91300   7.397   3.403   3.945 -0.1321  0.5200 -0.5399
  677MOL0     C91301   7.424   3.289   4.052 -0.3451  0.3214 -0.0818
  677MOL0     C91302   7.496   3.159   3.991 -0.2690  0.3256  0.2049
  677MOL0     C91303   7.536   3.065   4.110  0.1832  0.4897 -0.2330
  677MOL0    Cl91304   7.389   3.013   4.198 -0.2939 -0.3639  0.1176
  677MOL0     C91305   7.468   3.937   3.759  0.9807  0.1016 -0.1624
  677MOL0     C91306   7.345   3.999   3.792 -0.3646 -0.6250 -0.2071
  677MOL0     O91307   7.068   4.138   3.534  0.0056 -0.8734 -1.1829
  677MOL0     C91308   6.902   4.163   3.850 -0.1479 -0.4079 -0.2889
  677MOL0     C91309   6.781   4.211   3.898  0.1181  0.7874  0.2112
  677MOL0     N91310   6.149   4.631   4.023  0.9363 -0.4489  0.1510
  677MOL0     N91311   6.095   4.651   4.138 -0.4152  0.5997  0.2178
  677MOL0     C91312   5.074   4.576   4.878  0.7170  0.9410  0.0001
  677MOL0     C91313   4.950   4.647   4.903  0.1054  1.0627 -0.5871
  677MOL0     C91314   4.607   4.874   4.997 -0.4954 -0.2265 -0.4900
  677MOL0     C91315   4.518   4.868   5.110  0.2478  0.0384 -0.4220
  677MOL0     C91316   4.390   4.928   5.112 -0.9803 -0.0055  0.0936
  677MOL0     C91317   4.344   4.974   4.992 -0.0451  0.0961 -0.3558
  677MOL0     O91318   4.219   5.026   4.980 -0.0493 -0.5559 -0.1455
  677MOL0     C91319   4.137   5.079   5.086 -0.4037 -0.1781  0.2181
  677MOL0     C91320   4.036   5.183   5.030  1.2678  0.4239  0.7113
  677MOL0     C91321   3.941   5.115   4.927 -0.3270 -0.8742 -0.1116
  677MOL0     C91322   3.843   5.221   4.873  0.0763 -0.8467 -1.0910
  677MOL0     C91323   3.737   5.258   4.975 -0.4693  0.2460 -0.8741
  677MOL0     C91324   3.658   5.293   5.065 -0.1467 -0.1797 -0.0472
  677MOL0     C91325   4.429   4.971   4.882 -0.8311 -0.8542  0.2787
  677MOL0     C91326   4.568   4.926   4.876  1.5295 -1.2417 -0.6026
  677MOL0     C91327   4.651   4.937   4.757  0.2280 -1.3584  0.5802
  677MOL0     H91328   5.088   4.950   4.967  1.8291 -0.1969 -0.6288
  677MOL0     H91329   5.288   4.834   4.925  0.9464 -0.6142 -1.2436
  677MOL0     H91330   5.271   4.392   4.834  1.2363  0.8613 -0.2981
  677MOL0     H91331   5.267   4.472   4.686  0.0495 -0.3678 -0.4474
  677MOL0     H91332   5.500   4.340   4.737 -2.5858 -0.2687 -1.1521
  677MOL0     H91333   5.519   4.445   4.865  1.1474  1.9005  0.5078
  677MOL0     H91334   5.526   4.641   4.713 -1.7445 -0.8993  2.2676
  677MOL0     H91335   5.491   4.534   4.571 -0.1993  2.5043  0.4810
  677MOL0     H91336   5.732   4.514   4.739  0.1845 -0.4661  0.9509
  677MOL0     H91337   5.680   4.398   4.615 -1.9879 -0.5239  1.9371
  677MOL0     H91338   5.732   4.696   4.563  1.4930  0.1499  0.2523
  677MOL0     H91339   5.856   4.569   4.557  0.2823  4.3122  0.5613
  677MOL0     H91340   5.706   4.437   4.382  1.1115  0.2521 -0.7628
  677MOL0     H91341   5.593   4.578   4.385 -1.4282 -0.8421 -2.2943
  677MOL0     H91342   5.790   4.717   4.298 -0.2733 -0.6384 -0.4468
  677MOL0     H91343   5.738   4.594   4.191  1.6735 -0.4857 -0.6613
  677MOL0     H91344   5.984   4.608   4.365  2.9191  0.0327 -2.1924
  677MOL0     H91345   5.941   4.450   4.316 -0.7615 -0.5920  0.2733
  677MOL0     H91346   5.896   4.423   4.021 -0.9987 -1.4641  3.1388
  677MOL0     H91347   6.050   4.384   3.810  0.1659  0.3208  0.0618
  677MOL0     H91348   6.026   4.544   3.756 -0.4106 -0.1895 -0.8021
  677MOL0     H91349   6.267   4.481   3.671  3.2704 -0.2019 -0.4395
  677MOL0     H91350   6.270   4.610   3.789 -0.2295  0.0054 -0.4494
  677MOL0     H91351   6.314   4.309   3.844  2.9001 -0.3324 -1.6031
  677MOL0     H91352   6.353   4.434   3.965  1.5706  3.2453 -0.8602
  677MOL0     H91353   6.528   4.512   3.798  0.3213  0.0021 -1.6111
  677MOL0     H91354   6.473   4.384   3.699 -1.5495 -0.0776 -0.2054
  677MOL0     H91355   6.682   4.400   3.625 -0.2780  0.2956 -0.2355
  677MOL0     H91356   6.895   4.316   3.547  1.8535  0.0273  0.5742
  677MOL0     H91357   7.171   3.880   3.526 -0.9285  1.4862  0.7935
  677MOL0     H91358   7.394   3.814   3.461 -1.0710 -0.5853 -0.0096
  677MOL0     H91359   7.541   3.648   3.540 -0.1807 -1.8123  1.5547
  677MOL0     H91360   7.722   3.673   3.537  1.2155 -0.1491  1.0222
  677MOL0     H91361   7.700   3.516   3.720 -0.8985  0.0132 -1.1936
  677MOL0     H91362   7.687   3.668   3.803 -1.9829  0.8835  0.4957
  677MOL0     H91363   7.465   3.649   3.830  2.6297  0.4980 -0.5507
  677MOL0     H91364   7.438   3.536   3.700 -0.6765  3.6166 -1.3939
  677MOL0     H91365   7.608   3.479   3.951 -0.4663 -1.1651  0.6798
  677MOL0     H91366   7.577   3.372   3.815  0.7325  0.5787 -0.5573
  677MOL0     H91367   7.320   3.385   3.870 -0.2174  1.3843 -0.6753
  677MOL0     H91368   7.355   3.488   4.000 -1.8514 -0.0290 -0.9640
  677MOL0     H91369   7.488   3.326   4.132  0.0702 -1.1942  0.3291
  677MOL0     H91370   7.322   3.266   4.083 -0.8295  2.4673  0.0908
  677MOL0     H91371   7.586   3.187   3.936 -0.3414 -1.5130 -0.9261
  677MOL0     H91372   7.429   3.110   3.920 -0.4717  3.4065 -1.9567
  677MOL0     H91373   7.581   2.971   4.076  0.9124  1.5487 -2.3936
  677MOL0     H91374   7.613   3.112   4.171 -0.4527 -2.4028  3.0895
  677MOL0     H91375   7.553   3.950   3.824  2.0046 -0.2833 -1.3941
  677MOL0     H91376   7.338   4.049   3.888  1.6920 -0.2304 -0.2211
  677MOL0     H91377   6.961   4.083   3.894 -0.7816 -0.4098  0.5784
  677MOL0     H91378   6.745   4.179   3.996  0.9069 -1.1734 -0.0953
  677MOL0     H91379   5.076   4.471   4.852  1.8991  1.1180 -0.7138
  677MOL0     H91380   4.852   4.603   4.890  0.6707 -0.0271 -1.3894
  677MOL0     H91381   4.562   4.829   5.201 -1.2692  0.3697  0.4808
  677MOL0     H91382   4.331   4.929   5.203  0.0082 -1.1951  0.7792
  677MOL0     H91383   4.198   5.132   5.161  0.4759 -2.4811  1.2162
  677MOL0     H91384   4.083   4.997   5.134 -2.0586  1.6078  1.5901
  677MOL0     H91385   4.078   5.275   4.987 -1.4644  0.0582 -3.3596
  677MOL0     H91386   3.984   5.219   5.119  0.4456  0.0184  0.4089
  677MOL0     H91387   3.893   5.034   4.983  2.8543 -2.1662  0.9807
  677MOL0     H91388   4.001   5.073   4.845  3.8999 -0.7343  2.6125
  677MOL0     H91389   3.889   5.312   4.834  2.0173 -0.6105  1.5001
  677MOL0     H91390   3.796   5.180   4.783  1.6490  1.3144 -2.9950
  677MOL0     H91391   3.591   5.311   5.147 -1.4814  0.4177 -1.2366
  677MOL0     H91392   4.383   5.021   4.797  0.5545 -2.5272 -1.5359
  677MOL0     H91393   4.721   4.853   4.755  0.2463 -1.3480  0.7690
  677MOL0     H91394   4.578   4.936   4.676 -0.5965 -0.2087  1.2856
  677MOL0     H91395   4.710   5.029   4.752  2.9829 -2.9990  0.5470
  678MOL0     O91396   2.452   6.778   3.016  0.5045  0.4052  0.4665
  678MOL0     C91397   2.486   6.702   3.106  0.1672  0.2965 -1.0956
  678MOL0     O91398   2.595   6.715   3.190  0.4232 -0.7149  0.2348
  678MOL0     C91399   2.667   6.832   3.184  0.2779 -0.0815 -0.2549
  678MOL0     C91400   2.705   6.892   3.302  0.1135  0.4070 -0.8227
  678MOL0     C91401   2.761   7.017   3.305 -0.2752 -0.1808 -0.1507
  678MOL0     C91402   2.805   7.080   3.186 -0.4347 -0.1392 -0.7157
  678MOL0     O91403   2.880   7.191   3.204  0.1530  0.1630 -0.0170
  678MOL0     C91404   2.882   7.290   3.098  0.6142 -0.9288 -0.5696
  678MOL0     C91405   2.917   7.440   3.145 -0.0040 -0.3452 -0.8522
  678MOL0     C91406   3.052   7.442   3.222  0.7643  0.1325  0.7309
  678MOL0     C91407   3.088   7.583   3.250  0.0966 -0.9842 -1.2109
  678MOL0     C91408   3.224   7.602   3.325  0.2000 -0.6802  0.3228
  678MOL0     C91409   3.238   7.522   3.459 -0.4175  0.0328 -1.5003
  678MOL0     C91410   3.304   7.382   3.432  0.1719 -0.5659 -0.2045
  678MOL0     C91411   3.286   7.301   3.564  0.6020  0.9207  0.1020
  678MOL0     N91412   3.325   7.160   3.555  0.2638 -0.2293 -0.3675
  678MOL0     C91413   3.445   7.094   3.522  0.6689 -0.1429 -0.3486
  678MOL0     C91414   3.424   6.959   3.544 -0.3168 -0.2698 -0.5247
  678MOL0     C91415   3.522   6.849   3.512 -0.8016  0.8532  0.2421
  678MOL0     C91416   3.460   6.716   3.453 -0.5873 -0.0998 -0.0361
  678MOL0     C91417   3.559   6.621   3.373 -0.6114 -0.1611 -0.0040
  678MOL0     C91418   3.697   6.615   3.430 -0.3267  0.5244  0.8246
  678MOL0     O91419   3.668   6.575   3.565  0.0031  0.8130 -0.6861
  678MOL0     C91420   3.772   6.552   3.657 -1.0422 -0.8725 -1.1023
  678MOL0     C91421   3.748   6.537   3.795 -0.4586 -0.4154  0.1411
  678MOL0     C91422   3.853   6.518   3.884  0.8923 -0.7319  0.2974
  678MOL0     C91423   3.988   6.516   3.840  0.4537  1.0134 -0.8813
  678MOL0     C91424   4.096   6.502   3.945 -0.9520  0.7430  0.8268
  678MOL0     O91425   4.220   6.496   3.891  0.0061  0.0594 -0.1213
  678MOL0     C91426   4.320   6.474   3.985 -0.7546  0.0852 -0.4191
  678MOL0     C91427   4.334   6.531   4.113 -0.2999 -0.5226 -0.0625
  678MOL0     C91428   4.452   6.507   4.182  0.2202 -1.2054  0.3944
  678MOL0     C91429   4.559   6.441   4.127 -0.3425 -0.3926  0.6782
  678MOL0     O91430   4.678   6.449   4.203 -0.2771  0.0978  0.0202
  678MOL0     C91431   4.795   6.376   4.148  0.9368 -0.2470 -0.4053
  678MOL0     C91432   4.906   6.390   4.257 -0.2958 -0.4234  0.4818
  678MOL0     C91433   5.040   6.353   4.206 -0.3503  0.7334  0.1827
  678MOL0     C91434   5.047   6.198   4.191 -0.0212 -0.0529 -0.3143
  678MOL0     C91435   5.188   6.138   4.196 -1.1222 -0.1872  0.4719
  678MOL0     C91436   5.281   6.200   4.085 -0.2371 -0.4013  0.0701
  678MOL0     C91437   5.417   6.137   4.096 -0.1194  0.3845 -0.1798
  678MOL0     C91438   5.511   6.227   4.019 -1.1020  0.3241  0.5721
  678MOL0    Cl91439   5.668   6.153   4.019  0.2297  0.2649  0.1043
  678MOL0     C91440   4.546   6.393   3.993  0.3813  0.3442  0.4040
  678MOL0     C91441   4.424   6.402   3.922  0.3014 -0.0838 -1.0705
  678MOL0     O91442   4.058   6.509   4.060 -0.5252 -0.5499 -0.2806
  678MOL0     C91443   4.010   6.537   3.706 -0.7093 -0.7193 -0.1400
  678MOL0     C91444   3.910   6.560   3.618  0.7159 -0.4190 -0.1368
  678MOL0     N91445   3.297   6.939   3.582  0.3483  0.1441 -0.6651
  678MOL0     N91446   3.245   7.061   3.588 -0.1785  0.1705 -0.2423
  678MOL0     C91447   2.787   7.008   3.071 -0.2521 -0.2441  0.5319
  678MOL0     C91448   2.710   6.887   3.064 -0.0174 -0.1200 -1.2876
  678MOL0     C91449   2.414   6.579   3.116 -1.0709  0.3550 -0.1975
  678MOL0     C91450   2.393   6.537   3.249  0.2825  0.5493  0.5628
  678MOL0     C91451   2.319   6.415   3.265 -0.4309 -0.1177 -0.0300
  678MOL0     C91452   2.270   6.345   3.158 -0.0040  0.1608 -0.7886
  678MOL0     O91453   2.200   6.228   3.188 -0.6247  0.7057  0.1090
  678MOL0     C91454   2.111   6.167   3.098  0.4406 -0.4486  0.7536
  678MOL0     C91455   1.972   6.234   3.092  0.3288  0.8550 -0.5451
  678MOL0     C91456   1.891   6.210   3.215 -0.8602  0.4565 -0.0403
  678MOL0     C91457   1.742   6.244   3.209  0.3952 -0.3977  0.5007
  678MOL0     C91458   1.681   6.213   3.335  1.5056 -0.8557 -0.6508
  678MOL0     C91459   1.629   6.193   3.440  0.1183  0.1952  0.0064
  678MOL0     C91460   2.294   6.399   3.030  0.6808  0.3933 -1.0267
  678MOL0     C91461   2.364   6.509   3.002 -0.4757 -0.3624 -0.0667
  678MOL0     C91462   2.385   6.550   2.858 -0.7356  0.7826  0.0805
  678MOL0     H91463   2.683   6.848   3.398  1.0412  0.4660 -0.5759
  678MOL0     H91464   2.763   7.073   3.398 -3.4034  0.9517 -0.6623
  678MOL0     H91465   2.960   7.266   3.025 -1.0815 -2.3877 -2.0213
  678MOL0     H91466   2.792   7.290   3.036  0.3614  1.6890 -0.2811
  678MOL0     H91467   2.846   7.481   3.217 -0.4601 -3.4752  0.6824
  678MOL0     H91468   2.936   7.509   3.062  0.8936  1.3115  0.6931
  678MOL0     H91469   3.130   7.411   3.151  1.1228 -1.0496  1.6144
  678MOL0     H91470   3.051   7.374   3.307  2.0457 -0.4752  0.2824
  678MOL0     H91471   3.087   7.632   3.152  0.9956  0.7250 -0.4072
  678MOL0     H91472   3.006   7.626   3.308  2.6234 -1.6441  3.3503
  678MOL0     H91473   3.306   7.563   3.265 -1.8483 -3.7536 -0.6792
  678MOL0     H91474   3.236   7.710   3.342 -0.4691 -0.2185 -1.9082
  678MOL0     H91475   3.307   7.573   3.527 -0.8768 -3.2325  1.7146
  678MOL0     H91476   3.138   7.508   3.503 -0.8722  1.2365 -2.1031
  678MOL0     H91477   3.410   7.392   3.409 -0.4054  0.0971 -2.8794
  678MOL0     H91478   3.259   7.321   3.353 -1.1227 -0.6523  0.5738
  678MOL0     H91479   3.349   7.341   3.645 -1.1309  1.6501  1.1518
  678MOL0     H91480   3.183   7.310   3.601  0.3469  0.8343 -0.5686
  678MOL0     H91481   3.534   7.137   3.478  0.8480 -1.6256 -1.5302
  678MOL0     H91482   3.588   6.878   3.429 -2.5439  0.4435 -1.3414
  678MOL0     H91483   3.583   6.828   3.600 -1.1499  0.9743  0.5138
  678MOL0     H91484   3.419   6.666   3.542  2.0822  2.6408  3.0032
  678MOL0     H91485   3.380   6.744   3.383  0.2850 -2.0797 -1.9375
  678MOL0     H91486   3.564   6.675   3.278  0.7618  0.3738  0.3548
  678MOL0     H91487   3.509   6.525   3.354 -1.2341  0.4086 -1.3577
  678MOL0     H91488   3.747   6.710   3.412 -2.7329  1.4283 -1.8410
  678MOL0     H91489   3.746   6.534   3.375 -0.9621  1.2904 -0.9610
  678MOL0     H91490   3.647   6.526   3.833 -0.4303  0.0275  0.3439
  678MOL0     H91491   3.830   6.504   3.989  1.5795  3.1436  1.1060
  678MOL0     H91492   4.260   6.601   4.149  0.0517  1.3864 -2.7568
  678MOL0     H91493   4.446   6.546   4.283 -2.5452 -1.2267  0.2989
  678MOL0     H91494   4.756   6.275   4.133 -2.7622  0.6496  1.8873
  678MOL0     H91495   4.822   6.429   4.056 -0.3067 -1.2904 -1.4170
  678MOL0     H91496   4.907   6.489   4.303 -0.3642 -0.7716  1.2624
  678MOL0     H91497   4.880   6.335   4.348  0.5793  1.3680  1.8715
  678MOL0     H91498   5.080   6.398   4.115  2.2384  1.8901  1.7696
  678MOL0     H91499   5.102   6.387   4.289 -0.3690  0.3199  0.3670
  678MOL0     H91500   4.998   6.171   4.097  1.4983 -0.6035 -0.9651
  678MOL0     H91501   4.996   6.151   4.276  0.7055 -0.7367 -0.2496
  678MOL0     H91502   5.185   6.031   4.172  0.9246  0.3354 -2.7766
  678MOL0     H91503   5.231   6.156   4.295 -1.6165 -1.0731  0.8627
  678MOL0     H91504   5.235   6.175   3.989 -2.1044 -4.6604  1.8048
  678MOL0     H91505   5.289   6.309   4.092 -3.4635 -0.0704  0.0271
  678MOL0     H91506   5.427   6.033   4.062 -1.9040  0.1130  0.0353
  678MOL0     H91507   5.441   6.130   4.202 -3.5596 -1.0071  0.6394
  678MOL0     H91508   5.479   6.250   3.917  0.4020  0.5038  0.1137
  678MOL0     H91509   5.522   6.323   4.069 -1.0104 -0.6359  2.4908
  678MOL0     H91510   4.634   6.363   3.936  1.4217  0.9722  1.6409
  678MOL0     H91511   4.417   6.365   3.821  2.1281  0.3177 -1.3811
  678MOL0     H91512   4.112   6.534   3.667 -0.8643  1.7969 -0.9027
  678MOL0     H91513   3.940   6.562   3.513 -0.6923  2.6179 -0.5823
  678MOL0     H91514   2.829   7.044   2.978 -2.0185 -4.5626 -2.2534
  678MOL0     H91515   2.701   6.838   2.968  0.7761 -0.0108 -1.4211
  678MOL0     H91516   2.433   6.585   3.338 -0.7931  1.5097  0.5506
  678MOL0     H91517   2.298   6.376   3.365 -1.3367 -3.3236 -1.3311
  678MOL0     H91518   2.101   6.062   3.125  1.1192 -0.2074  2.0401
  678MOL0     H91519   2.155   6.170   2.998 -0.1530  1.7705  0.4905
  678MOL0     H91520   1.923   6.189   3.004  0.8324  1.6096 -1.2260
  678MOL0     H91521   1.986   6.339   3.065 -0.7294  0.4080 -3.2278
  678MOL0     H91522   1.930   6.265   3.300  1.3346 -2.5197  1.0696
  678MOL0     H91523   1.902   6.103   3.236 -2.0696  0.6389  1.7238
  678MOL0     H91524   1.724   6.351   3.193  0.6388 -0.5082 -0.5758
  678MOL0     H91525   1.689   6.190   3.129  1.4805  0.8000 -1.1026
  678MOL0     H91526   1.582   6.191   3.536 -2.2059 -2.3830 -1.0491
  678MOL0     H91527   2.251   6.340   2.950 -1.4094  1.8388 -1.0412
  678MOL0     H91528   2.490   6.563   2.829 -0.7835 -0.1599 -0.5505
  678MOL0     H91529   2.331   6.484   2.789 -2.7578  1.6048  0.7837
  678MOL0     H91530   2.340   6.649   2.844  2.6660  2.4633  0.0372
  679MOL0     O91531   2.594   8.012  10.462 -0.2103 -0.2761  0.2702
  679MOL0     C91532   2.596   7.914  10.396  0.2460 -1.0315 -0.5993
  679MOL0     O91533   2.490   7.847  10.350  0.2376 -0.1544 -0.0076
  679MOL0     C91534   2.362   7.889  10.389  0.9447  0.3414 -0.0488
  679MOL0     C91535   2.315   7.888  10.521 -0.9197 -0.1412  1.5455
  679MOL0     C91536   2.190   7.940  10.554 -0.1718 -0.3597  0.3728
  679MOL0     C91537   2.115   8.004  10.459  0.4301 -0.3013  0.1501
  679MOL0     O91538   1.993   8.064  10.478  0.3702  0.0608 -0.2883
  679MOL0     C91539   1.931   8.062  10.598  0.1541 -0.1845 -0.1964
  679MOL0     C91540   1.806   8.147  10.593 -0.0245 -0.2432 -0.2325
  679MOL0     C91541   1.829   8.295  10.586 -0.5607  0.3607  0.4788
  679MOL0     C91542   1.893   8.348  10.719  0.6580 -0.1780  0.4846
  679MOL0     C91543   1.885   8.504  10.728 -0.2844  0.1302 -0.5996
  679MOL0     C91544   1.752   8.578  10.775 -0.2499  0.3006 -0.2729
  679MOL0     C91545   1.719   8.547  10.921 -0.6581 -0.4207  0.0919
  679MOL0     C91546   1.826   8.599  11.019 -0.1030  0.0047 -0.3463
  679MOL0     N91547   1.768   8.574  11.153  0.0200  0.6091 -0.1297
  679MOL0     C91548   1.786   8.450  11.217 -0.7099  0.7962  0.3279
  679MOL0     C91549   1.718   8.468  11.332 -0.1370  0.7236  0.5891
  679MOL0     C91550   1.687   8.369  11.445  0.4122  0.6831 -0.0884
  679MOL0     C91551   1.537   8.335  11.464 -0.3610 -0.3167 -0.1366
  679MOL0     C91552   1.432   8.375  11.354  0.6018  0.8168 -0.1489
  679MOL0     C91553   1.416   8.266  11.246 -0.4191  0.0092 -0.1023
  679MOL0     O91554   1.546   8.266  11.173  0.2568 -0.3700 -0.2702
  679MOL0     C91555   1.612   8.150  11.149  0.1242 -0.2676  0.2048
  679MOL0     C91556   1.668   8.141  11.028 -0.2826  0.0604 -0.8281
  679MOL0     C91557   1.764   8.039  11.000 -0.1978 -0.0844  0.4713
  679MOL0     C91558   1.782   7.935  11.093 -0.2870  0.7983  0.3277
  679MOL0     C91559   1.874   7.818  11.062 -0.3325  1.1847 -0.7395
  679MOL0     O91560   1.877   7.713  11.150  0.0612  1.1631 -0.2378
  679MOL0     C91561   1.952   7.591  11.143  0.3845  0.3523 -0.3447
  679MOL0     C91562   1.924   7.492  11.238 -0.3735 -0.5234  0.2749
  679MOL0     C91563   1.965   7.364  11.216  0.3260 -0.3681 -0.5397
  679MOL0     C91564   2.053   7.329  11.115 -0.1073 -0.4491  0.0782
  679MOL0     O91565   2.101   7.208  11.084 -0.9306  0.1159  0.3359
  679MOL0     C91566   2.039   7.095  11.151 -1.4084 -0.5493 -0.3361
  679MOL0     C91567   1.906   7.053  11.099  0.8002 -0.4844  0.1957
  679MOL0     C91568   1.898   7.027  10.952 -0.3794  0.3045 -0.3089
  679MOL0     C91569   2.017   6.941  10.902  0.8542 -0.5144  0.6429
  679MOL0     C91570   1.993   6.882  10.756 -0.1774  0.1994  0.0496
  679MOL0     C91571   2.118   6.813  10.689 -0.5543 -0.6485  1.1636
  679MOL0     C91572   2.123   6.804  10.538  0.1198  1.3244 -0.6835
  679MOL0     C91573   2.013   6.708  10.487 -0.6633  0.0934 -0.5863
  679MOL0    Cl91574   2.069   6.543  10.544 -0.1138  0.2079  0.6600
  679MOL0     C91575   2.089   7.433  11.025 -0.1122 -0.2694  0.0745
  679MOL0     C91576   2.042   7.562  11.041 -0.3122  0.0956  0.9550
  679MOL0     O91577   1.936   7.824  10.960  0.1087 -0.9892 -0.0914
  679MOL0     C91578   1.711   7.937  11.213 -0.0176  0.8906  0.2198
  679MOL0     C91579   1.623   8.043  11.237 -0.0290  0.3474  0.0035
  679MOL0     N91580   1.667   8.596  11.345  0.4739  0.2761  0.3337
  679MOL0     N91581   1.689   8.650  11.229  0.0644 -0.4417  0.0182
  679MOL0     C91582   2.151   8.000  10.323  0.1371 -0.1449  0.4140
  679MOL0     C91583   2.279   7.947  10.287 -0.2369  0.3869 -0.0829
  679MOL0     C91584   2.731   7.861  10.357  0.0729  0.2262  1.0502
  679MOL0     C91585   2.755   7.724  10.351 -0.0640 -0.3256  0.3354
  679MOL0     C91586   2.868   7.674  10.292 -0.3539 -0.1673 -0.3660
  679MOL0     C91587   2.972   7.754  10.241  0.0420 -1.1487  0.0014
  679MOL0     O91588   3.071   7.689  10.173  0.0528 -0.7901 -0.2670
  679MOL0     C91589   3.204   7.744  10.160  0.4921  0.0743 -0.3125
  679MOL0     C91590   3.216   7.787  10.009 -0.3664  0.3710 -0.4209
  679MOL0     C91591   3.354   7.822   9.967  0.3396 -0.2275 -0.4145
  679MOL0     C91592   3.352   7.882   9.819  0.0602 -0.0553  0.8113
  679MOL0     C91593   3.310   7.779   9.719 -1.5395  0.0857  0.6282
  679MOL0     C91594   3.291   7.696   9.632 -0.3189 -0.2853  0.2221
  679MOL0     C91595   2.956   7.893  10.252 -1.0585  0.0028  0.0049
  679MOL0     C91596   2.836   7.945  10.300  0.3191 -0.7049 -0.6390
  679MOL0     C91597   2.809   8.100  10.306 -0.4135 -0.5833  0.1531
  679MOL0     H91598   2.369   7.838  10.601  0.6466  0.6723  1.0329
  679MOL0     H91599   2.169   7.929  10.660 -1.1255  4.8883  1.0059
  679MOL0     H91600   1.899   7.961  10.626  0.7432  0.4919  3.3513
  679MOL0     H91601   1.997   8.092  10.680  1.6468 -1.4283 -0.8859
  679MOL0     H91602   1.763   8.126  10.692  1.6150  0.2827  0.6387
  679MOL0     H91603   1.736   8.115  10.516  0.1587  1.6464 -1.2470
  679MOL0     H91604   1.733   8.345  10.599 -0.7795 -0.4287  2.2079
  679MOL0     H91605   1.897   8.329  10.508  0.7802 -0.2712  1.3227
  679MOL0     H91606   1.834   8.305  10.801  0.6531 -0.3051  0.4140
  679MOL0     H91607   1.997   8.316  10.720  0.6525 -0.5003 -2.3522
  679MOL0     H91608   1.972   8.539  10.784  0.2551  3.4116 -3.1869
  679MOL0     H91609   1.914   8.542  10.630 -1.5324 -3.5668 -2.5924
  679MOL0     H91610   1.759   8.685  10.754 -0.5677  0.3787  0.0126
  679MOL0     H91611   1.668   8.543  10.715  0.9224 -1.6396 -0.8662
  679MOL0     H91612   1.707   8.439  10.926  0.4805 -0.5251  1.6527
  679MOL0     H91613   1.626   8.599  10.943 -0.0473  1.0012 -0.5692
  679MOL0     H91614   1.921   8.546  11.015 -0.3404 -0.3715 -2.8160
  679MOL0     H91615   1.846   8.705  10.999  0.2845  0.0137  0.1061
  679MOL0     H91616   1.830   8.357  11.181 -2.3538  0.3680 -0.6591
  679MOL0     H91617   1.746   8.280  11.421 -1.7785 -0.5517 -1.2381
  679MOL0     H91618   1.725   8.410  11.539 -0.0377 -0.9354  0.8176
  679MOL0     H91619   1.518   8.230  11.491  0.4770  0.0384  2.0504
  679MOL0     H91620   1.512   8.391  11.555 -1.9959 -0.9514 -0.1568
  679MOL0     H91621   1.468   8.464  11.302  1.0616 -0.0482 -1.3591
  679MOL0     H91622   1.337   8.389  11.406  1.0878 -0.7371  1.2683
  679MOL0     H91623   1.335   8.293  11.177  0.4939  2.2118 -0.4134
  679MOL0     H91624   1.397   8.166  11.285  2.0691 -0.7957 -0.7551
  679MOL0     H91625   1.659   8.220  10.954 -0.2270 -1.9814 -3.1537
  679MOL0     H91626   1.814   8.045  10.903  1.7800  1.0251  1.5013
  679MOL0     H91627   1.847   7.512  11.311  0.7854  1.0605  1.1284
  679MOL0     H91628   1.927   7.278  11.272 -0.8800 -0.9140 -2.1392
  679MOL0     H91629   2.115   7.020  11.125  0.9657  1.5123  0.2699
  679MOL0     H91630   2.052   7.091  11.259  1.3444 -0.0289 -0.5669
  679MOL0     H91631   1.888   6.958  11.150  1.2061  1.6779  4.9376
  679MOL0     H91632   1.835   7.129  11.134 -0.3287 -0.7987 -1.3071
  679MOL0     H91633   1.802   6.987  10.918 -0.4304  0.9380 -0.9220
  679MOL0     H91634   1.898   7.126  10.906 -1.8884  0.5910  0.2352
  679MOL0     H91635   2.036   6.852  10.963  3.6959 -1.7226 -1.7973
  679MOL0     H91636   2.106   7.005  10.907  1.1211 -0.9663  3.0613
  679MOL0     H91637   1.958   6.959  10.687 -1.1651 -1.0242 -0.8590
  679MOL0     H91638   1.912   6.808  10.761 -0.9099  1.0511  1.3396
  679MOL0     H91639   2.198   6.885  10.708 -1.9464  0.7582  1.9204
  679MOL0     H91640   2.144   6.714  10.729 -4.8312 -2.3599  0.2246
  679MOL0     H91641   2.220   6.785  10.492 -0.5821  0.8641 -2.0318
  679MOL0     H91642   2.099   6.901  10.493 -0.2450  1.3878 -0.3544
  679MOL0     H91643   1.914   6.729  10.528 -1.3481 -0.5905 -1.8453
  679MOL0     H91644   2.002   6.718  10.379 -0.4345 -2.5473 -0.9228
  679MOL0     H91645   2.155   7.411  10.942  0.5984 -0.8704  0.7784
  679MOL0     H91646   2.068   7.635  10.965 -2.5161  1.3008  1.2832
  679MOL0     H91647   1.715   7.856  11.285 -0.2683 -2.0416 -2.7787
  679MOL0     H91648   1.572   8.049  11.332 -0.6904 -0.8156 -0.2634
  679MOL0     H91649   2.084   8.043  10.249  2.7041  0.8012 -1.5411
  679MOL0     H91650   2.303   7.967  10.183 -0.4923  1.8980  0.1191
  679MOL0     H91651   2.676   7.657  10.382  0.1444  0.3871  2.5740
  679MOL0     H91652   2.881   7.567  10.302 -0.0758 -0.0867  0.1829
  679MOL0     H91653   3.290   7.682  10.189  0.3685 -1.0453 -2.2113
  679MOL0     H91654   3.214   7.835  10.221 -2.5120  1.1236 -1.2210
  679MOL0     H91655   3.149   7.871   9.988 -4.1007 -2.0672  0.7295
  679MOL0     H91656   3.178   7.693   9.968 -3.7403  0.0155  2.8884
  679MOL0     H91657   3.412   7.731   9.985 -2.3000 -1.5837  2.2185
  679MOL0     H91658   3.392   7.903  10.031  2.4492 -0.7456 -0.9392
  679MOL0     H91659   3.293   7.973   9.804 -1.7888 -1.4677 -1.0759
  679MOL0     H91660   3.455   7.917   9.801 -0.0069 -0.2215  0.0640
  679MOL0     H91661   3.291   7.632   9.546 -0.2313  0.9936 -0.7630
  679MOL0     H91662   3.044   7.943  10.214 -0.2238 -1.2486  0.2415
  679MOL0     H91663   2.831   8.134  10.408  1.8532 -1.7267  0.1128
  679MOL0     H91664   2.871   8.140  10.225 -2.0337 -3.5475 -2.7795
  679MOL0     H91665   2.708   8.133  10.279  0.6865  4.0407  0.8159
  680MOL0     O91666   0.817   3.385   7.115 -0.1201 -0.0494 -0.3470
  680MOL0     C91667   0.799   3.474   7.212  0.0837  0.1749 -0.5011
  680MOL0     O91668   0.687   3.488   7.288  1.0814 -0.6688  0.1553
  680MOL0     C91669   0.595   3.386   7.280  0.7474  0.3628  0.0564
  680MOL0     C91670   0.623   3.245   7.291 -0.1449  0.0498 -0.1858
  680MOL0     C91671   0.527   3.147   7.276 -1.2198 -0.5370 -0.6750
  680MOL0     C91672   0.396   3.190   7.257 -0.0950 -0.3905  0.1497
  680MOL0     O91673   0.305   3.091   7.245  0.2918  0.2373  0.2037
  680MOL0     C91674   0.251   3.086   7.108 -0.4660 -0.8238 -0.1864
  680MOL0     C91675   0.137   2.975   7.108 -0.7351  0.3152 -0.1728
  680MOL0     C91676   0.107   2.916   6.968 -0.9293 -0.3170 -0.7965
  680MOL0     C91677  -0.025   2.842   6.979  0.1642  0.5695 -0.8836
  680MOL0     C91678  -0.057   2.764   6.843 -0.2256 -0.2197 -0.3681
  680MOL0     C91679  -0.135   2.854   6.745 -0.1979 -1.1854  0.2098
  680MOL0     C91680  -0.194   2.775   6.627 -0.2145  0.0489 -0.1945
  680MOL0     C91681  -0.218   2.846   6.491  0.3491 -0.0860 -0.6816
  680MOL0     N91682  -0.318   2.767   6.412 -0.5893  0.1715  0.0539
  680MOL0     C91683  -0.388   2.814   6.294 -1.0260 -0.1798 -0.2388
  680MOL0     C91684  -0.474   2.715   6.274 -0.4590  0.8127  0.3734
  680MOL0     C91685  -0.589   2.704   6.177  0.0208  0.9205  0.0667
  680MOL0     C91686  -0.676   2.572   6.191 -0.2359 -0.2417  0.1691
  680MOL0     C91687  -0.757   2.558   6.323 -0.3954  0.0068  0.0349
  680MOL0     C91688  -0.845   2.433   6.306 -0.2638 -0.6534 -0.1553
  680MOL0     O91689  -0.760   2.325   6.290 -0.0604 -0.0207 -0.1886
  680MOL0     C91690  -0.819   2.200   6.296  0.1377  0.3229 -0.5454
  680MOL0     C91691  -0.955   2.173   6.305 -0.3138 -0.3883  0.3225
  680MOL0     C91692  -1.008   2.051   6.317 -0.0816  0.0366 -0.7384
  680MOL0     C91693  -0.921   1.939   6.338 -0.0504 -0.5775  0.1124
  680MOL0     C91694  -0.995   1.812   6.353  0.8365 -0.5669 -0.4904
  680MOL0     O91695  -1.110   1.819   6.428 -0.0985  0.6345  0.7236
  680MOL0     C91696  -1.192   1.703   6.417  0.8605  0.5267 -0.3624
  680MOL0     C91697  -1.228   1.650   6.291  0.8462  0.0717  0.6104
  680MOL0     C91698  -1.306   1.534   6.286  0.0163 -0.4154  0.2248
  680MOL0     C91699  -1.375   1.493   6.400  0.0480 -0.1051  0.5195
  680MOL0     O91700  -1.466   1.386   6.400 -0.6569  0.5889  0.0885
  680MOL0     C91701  -1.529   1.339   6.284 -0.4314 -1.2819  0.3351
  680MOL0     C91702  -1.642   1.249   6.329  0.5521 -0.0533  0.5066
  680MOL0     C91703  -1.773   1.310   6.356  0.0357 -0.4276  0.3585
  680MOL0     C91704  -1.773   1.410   6.475  0.3941  0.2159 -0.0379
  680MOL0     C91705  -1.925   1.458   6.492 -0.6483  0.4678 -1.1913
  680MOL0     C91706  -1.957   1.536   6.621 -0.1953 -0.0372 -0.3948
  680MOL0     C91707  -2.091   1.611   6.618  0.5995  0.1593 -0.4890
  680MOL0     C91708  -2.211   1.526   6.666 -0.2524  0.5576  0.4591
  680MOL0    Cl91709  -2.202   1.489   6.840 -0.7383  0.0993 -0.1759
  680MOL0     C91710  -1.348   1.547   6.522 -0.0940 -0.0213 -0.1671
  680MOL0     C91711  -1.248   1.648   6.537 -1.1270 -1.4103 -0.4320
  680MOL0     O91712  -0.937   1.718   6.307  0.3491  0.4150 -0.0401
  680MOL0     C91713  -0.781   1.954   6.326  0.2550  0.0677  0.1709
  680MOL0     C91714  -0.731   2.085   6.305  0.1285 -0.2266  0.5790
  680MOL0     N91715  -0.446   2.609   6.359 -0.3380 -0.0812  0.0581
  680MOL0     N91716  -0.356   2.647   6.440  0.0184  0.0894 -0.1176
  680MOL0     C91717   0.368   3.326   7.246  0.6385  0.4235 -0.9851
  680MOL0     C91718   0.465   3.422   7.263  0.0511 -0.0937  0.9991
  680MOL0     C91719   0.913   3.553   7.245  1.0328  0.1273 -0.1557
  680MOL0     C91720   0.894   3.693   7.242  0.0897  0.2400 -0.2901
  680MOL0     C91721   0.999   3.778   7.277 -0.4116  0.4219 -0.3165
  680MOL0     C91722   1.127   3.730   7.309  0.9039  0.0601  0.5711
  680MOL0     O91723   1.227   3.820   7.343 -0.5300 -0.8550  0.3652
  680MOL0     C91724   1.354   3.784   7.395  0.0557 -0.6147 -0.3199
  680MOL0     C91725   1.461   3.748   7.286  1.2356  0.3052 -0.1725
  680MOL0     C91726   1.539   3.864   7.242  0.2582 -0.3886  0.0852
  680MOL0     C91727   1.652   3.909   7.330  1.2157 -0.1331 -0.8072
  680MOL0     C91728   1.746   3.981   7.247  0.0864  0.5508  0.3819
  680MOL0     C91729   1.833   4.038   7.194 -0.4503  0.5757 -0.3985
  680MOL0     C91730   1.144   3.591   7.311 -0.3721 -0.7199 -1.1757
  680MOL0     C91731   1.041   3.500   7.285  0.7762  0.2599 -0.4226
  680MOL0     C91732   1.066   3.350   7.300  0.2723  0.4446  1.1065
  680MOL0     H91733   0.720   3.202   7.314 -0.5739 -1.7162 -1.4992
  680MOL0     H91734   0.559   3.044   7.270  0.3656 -0.0913 -0.3696
  680MOL0     H91735   0.217   3.187   7.084  1.5047 -0.2477 -0.7184
  680MOL0     H91736   0.329   3.055   7.038 -2.1775 -2.9055 -1.3105
  680MOL0     H91737   0.044   3.012   7.152 -1.0155 -1.9938  1.3231
  680MOL0     H91738   0.174   2.888   7.163 -0.4367  0.8091  0.4067
  680MOL0     H91739   0.197   2.857   6.944 -0.5041 -0.3747  0.8232
  680MOL0     H91740   0.095   2.998   6.897  2.0672 -2.2971 -3.9068
  680MOL0     H91741  -0.030   2.768   7.060 -1.7407 -1.2710 -2.5454
  680MOL0     H91742  -0.116   2.897   7.006 -0.8995 -2.2062  1.8407
  680MOL0     H91743   0.042   2.739   6.804  0.9332  2.1129  0.9138
  680MOL0     H91744  -0.111   2.672   6.868 -1.4782  0.7671  0.6340
  680MOL0     H91745  -0.219   2.901   6.797 -0.6337  0.1933 -1.6264
  680MOL0     H91746  -0.071   2.930   6.699  0.5959 -1.0548  1.4864
  680MOL0     H91747  -0.287   2.734   6.668  1.4731  0.3329  4.6164
  680MOL0     H91748  -0.115   2.702   6.606  0.6817  0.5943  1.1041
  680MOL0     H91749  -0.241   2.952   6.508 -5.0557 -0.6144 -2.6321
  680MOL0     H91750  -0.126   2.841   6.434  1.1494  0.9769  0.4621
  680MOL0     H91751  -0.393   2.909   6.242  2.6473 -0.5683 -1.6582
  680MOL0     H91752  -0.653   2.791   6.194 -0.9869 -0.1671  2.2435
  680MOL0     H91753  -0.544   2.705   6.077 -1.7228  1.2463 -0.7484
  680MOL0     H91754  -0.738   2.576   6.101 -2.2939  2.0075  1.5653
  680MOL0     H91755  -0.618   2.480   6.179  0.9202  0.5271 -0.3816
  680MOL0     H91756  -0.820   2.645   6.344 -0.5672 -0.2071  0.4114
  680MOL0     H91757  -0.689   2.548   6.408  1.7610  0.1820 -1.5777
  680MOL0     H91758  -0.909   2.449   6.218  1.0464  0.8240 -0.8936
  680MOL0     H91759  -0.901   2.423   6.399  0.5912  0.9930  0.5892
  680MOL0     H91760  -1.019   2.260   6.296  2.4869  1.8172  0.6953
  680MOL0     H91761  -1.115   2.038   6.316 -0.5079  2.6917  0.1556
  680MOL0     H91762  -1.186   1.691   6.200 -0.7554  2.5281  0.8872
  680MOL0     H91763  -1.325   1.473   6.199 -3.7759 -0.8753  1.1996
  680MOL0     H91764  -1.553   1.427   6.224 -1.0279 -0.2839  1.9851
  680MOL0     H91765  -1.468   1.273   6.221 -0.6630 -0.1917 -1.0612
  680MOL0     H91766  -1.663   1.180   6.247 -3.7090 -0.1065  1.4079
  680MOL0     H91767  -1.606   1.201   6.420  0.1965  1.8367  1.7181
  680MOL0     H91768  -1.821   1.362   6.273 -4.1817  0.1561  2.8371
  680MOL0     H91769  -1.843   1.228   6.373  0.8330 -1.5830 -1.5810
  680MOL0     H91770  -1.695   1.485   6.470  0.8951 -0.0760  2.1149
  680MOL0     H91771  -1.751   1.348   6.563  0.0616  1.4346  0.9273
  680MOL0     H91772  -1.995   1.375   6.483 -3.7301  3.1138 -4.6083
  680MOL0     H91773  -1.965   1.524   6.414 -2.2921  0.1337 -0.6789
  680MOL0     H91774  -1.943   1.472   6.709  1.3035 -1.1186 -1.3832
  680MOL0     H91775  -1.877   1.609   6.639  4.8652 -4.4442 -2.4612
  680MOL0     H91776  -2.104   1.663   6.523  1.5673 -1.4000 -1.5099
  680MOL0     H91777  -2.082   1.698   6.684  1.4361  2.9799 -3.9945
  680MOL0     H91778  -2.302   1.580   6.639 -0.8563 -0.1476  1.0312
  680MOL0     H91779  -2.223   1.433   6.609  0.4170  1.4729 -1.2318
  680MOL0     H91780  -1.388   1.504   6.613 -1.4575  0.0712 -0.6892
  680MOL0     H91781  -1.203   1.683   6.630  2.7632 -0.2324 -2.5143
  680MOL0     H91782  -0.719   1.865   6.330 -0.3759 -0.3474  1.2471
  680MOL0     H91783  -0.626   2.110   6.293 -0.4733  1.1069 -3.1518
  680MOL0     H91784   0.266   3.360   7.228 -0.9981 -4.1809 -1.7837
  680MOL0     H91785   0.437   3.527   7.260 -2.5636 -0.7268 -2.4670
  680MOL0     H91786   0.796   3.730   7.211 -1.1257 -1.7008  0.9873
  680MOL0     H91787   1.001   3.885   7.263 -0.9367  0.5418  0.4798
  680MOL0     H91788   1.352   3.707   7.472 -1.1813  0.7038  1.0212
  680MOL0     H91789   1.380   3.871   7.457 -2.1433  0.3054 -0.5934
  680MOL0     H91790   1.411   3.709   7.196  1.7038  3.6941 -2.0423
  680MOL0     H91791   1.536   3.676   7.319  3.2996  2.6444  0.4802
  680MOL0     H91792   1.478   3.949   7.210  1.1748 -0.8390 -3.1779
  680MOL0     H91793   1.570   3.829   7.143 -1.2712 -1.8609  0.1019
  680MOL0     H91794   1.608   3.979   7.401  2.2680  0.2183 -0.4761
  680MOL0     H91795   1.713   3.839   7.388 -0.1690 -0.3281  0.4697
  680MOL0     H91796   1.926   4.075   7.156  0.2343  0.7956  1.4036
  680MOL0     H91797   1.249   3.566   7.324  1.0738  4.2476 -0.8722
  680MOL0     H91798   1.013   3.301   7.382  1.1977  0.0530  1.4859
  680MOL0     H91799   1.058   3.305   7.201 -0.0530 -2.0877  2.1929
  680MOL0     H91800   1.171   3.349   7.329  0.7208  1.7765 -0.3430
  681MOL0     O91801   9.330   9.769   4.382 -0.6129  0.5242  0.0455
  681MOL0     C91802   9.323   9.749   4.505 -0.2355 -1.1921  0.5094
  681MOL0     O91803   9.424   9.790   4.590 -0.3834  0.1437  0.3725
  681MOL0     C91804   9.522   9.870   4.538  0.2206  0.2021  0.3580
  681MOL0     C91805   9.652   9.831   4.570 -0.0871 -0.4333 -0.5223
  681MOL0     C91806   9.761   9.912   4.542  0.0399 -0.2249 -0.0137
  681MOL0     C91807   9.742  10.039   4.478  1.0042  0.5567 -0.1850
  681MOL0     O91808   9.840  10.124   4.446 -0.1645 -0.3462  0.6496
  681MOL0     C91809   9.969  10.051   4.421  1.0528 -0.2285  0.3907
  681MOL0     C91810  10.067  10.153   4.347  0.0795 -0.3724  0.1852
  681MOL0     C91811  10.200  10.092   4.362 -0.3405  0.2450  0.3208
  681MOL0     C91812  10.312  10.138   4.269  0.6232 -0.5157  0.0063
  681MOL0     C91813  10.452  10.121   4.334 -0.1826  0.5199 -0.1502
  681MOL0     C91814  10.565  10.128   4.237 -0.4207 -0.2877 -0.3090
  681MOL0     C91815  10.707  10.123   4.307 -0.7784  0.5190  0.1872
  681MOL0     C91816  10.758  10.254   4.378  0.1198  0.9102 -0.0689
  681MOL0     N91817  10.904  10.279   4.358 -0.5334 -0.1904  0.5143
  681MOL0     C91818  10.996  10.187   4.414 -1.2631 -0.0694  1.0278
  681MOL0     C91819  11.111  10.225   4.355  0.0905  0.9532  0.1758
  681MOL0     C91820  11.244  10.150   4.378  0.9848  0.0009 -0.0209
  681MOL0     C91821  11.274  10.038   4.275 -0.6373  0.1867  0.1531
  681MOL0     C91822  11.297  10.093   4.129 -0.0325 -0.6088 -1.0120
  681MOL0     C91823  11.385  10.218   4.111 -1.0961  0.1697 -0.1425
  681MOL0     O91824  11.500  10.215   4.208 -0.5172  0.7076  0.1848
  681MOL0     C91825  11.615  10.291   4.188 -0.0633  0.1004  0.1734
  681MOL0     C91826  11.740  10.259   4.240 -0.2260  0.0079  0.8186
  681MOL0     C91827  11.855  10.320   4.208 -0.2208  0.5282 -0.1564
  681MOL0     C91828  11.856  10.432   4.130  0.2092  0.0622  0.5464
  681MOL0     C91829  11.975  10.501   4.085  0.1966 -0.5245 -0.1996
  681MOL0     O91830  12.088  10.432   4.104  0.4564 -0.1873  0.5403
  681MOL0     C91831  12.205  10.481   4.057  0.3803 -0.9010 -0.9203
  681MOL0     C91832  12.249  10.616   4.087  0.3335  0.9601  0.0051
  681MOL0     C91833  12.366  10.655   4.029  0.6483  0.3959  0.4217
  681MOL0     C91834  12.439  10.573   3.950  0.0569 -0.1680 -0.3474
  681MOL0     O91835  12.570  10.622   3.922 -0.1655 -1.1853  0.1963
  681MOL0     C91836  12.664  10.532   3.859 -0.8699 -0.3594 -0.7116
  681MOL0     C91837  12.687  10.547   3.711  0.8207 -1.2967 -0.7112
  681MOL0     C91838  12.776  10.425   3.663  0.4993 -0.1158 -0.1309
  681MOL0     C91839  12.821  10.464   3.522 -0.1060  0.4390 -0.2833
  681MOL0     C91840  12.907  10.358   3.466  1.3657 -1.1072 -0.1331
  681MOL0     C91841  13.053  10.373   3.513  0.7347 -0.0797  1.8104
  681MOL0     C91842  13.133  10.271   3.418  1.5871  0.1747  0.0405
  681MOL0     C91843  13.278  10.301   3.403  0.2639  0.6577  0.9837
  681MOL0    Cl91844  13.371  10.154   3.346  0.1447 -0.1578  0.0658
  681MOL0     C91845  12.390  10.439   3.920  0.3028  0.4756  0.3840
  681MOL0     C91846  12.268  10.398   3.973  0.6712  0.2338 -0.5646
  681MOL0     O91847  11.964  10.607   4.021  0.8840 -0.0032 -0.4423
  681MOL0     C91848  11.732  10.475   4.084 -0.2165 -0.3476  0.5570
  681MOL0     C91849  11.619  10.402   4.110  0.3422 -0.1755 -0.0529
  681MOL0     N91850  11.092  10.337   4.275  0.6725  0.2690 -0.1712
  681MOL0     N91851  10.966  10.369   4.276 -0.0374  0.1777  0.8743
  681MOL0     C91852   9.612  10.074   4.446 -0.1670  0.3175 -1.5557
  681MOL0     C91853   9.496   9.992   4.475 -0.0051  0.3684 -1.1653
  681MOL0     C91854   9.210   9.675   4.562  0.6761  0.5993 -0.3691
  681MOL0     C91855   9.223   9.607   4.688 -0.1589  0.5422 -0.7165
  681MOL0     C91856   9.111   9.546   4.746 -0.0729 -0.1797  0.1620
  681MOL0     C91857   8.990   9.525   4.677 -0.0122 -1.1587  0.3938
  681MOL0     O91858   8.894   9.444   4.742  0.7989  0.0705  0.3732
  681MOL0     C91859   8.778   9.392   4.674  0.0492 -0.8646 -0.0728
  681MOL0     C91860   8.660   9.399   4.761  0.1852 -0.1434  0.0964
  681MOL0     C91861   8.530   9.343   4.702  0.3968 -0.8876 -0.4302
  681MOL0     C91862   8.419   9.359   4.804 -1.0412 -0.2554  0.8158
  681MOL0     C91863   8.369   9.232   4.841  0.4685 -0.4558  0.6803
  681MOL0     C91864   8.339   9.117   4.862 -0.1930 -0.1605 -0.6986
  681MOL0     C91865   8.981   9.574   4.543  0.4960  0.0454  0.5731
  681MOL0     C91866   9.084   9.656   4.488 -0.0145  0.0995  0.0128
  681MOL0     C91867   9.048   9.722   4.356 -0.3249 -0.1371  0.6299
  681MOL0     H91868   9.667   9.745   4.635  0.1729  0.4236  0.5810
  681MOL0     H91869   9.861   9.885   4.574  0.3110 -0.2552 -0.8598
  681MOL0     H91870  10.014  10.018   4.515  0.2126  1.9860  1.6412
  681MOL0     H91871   9.950   9.972   4.347 -0.4467  0.5472 -0.0984
  681MOL0     H91872  10.070  10.243   4.409 -0.1752 -0.2474  0.0187
  681MOL0     H91873  10.040  10.177   4.244  2.9785  1.7155 -0.2057
  681MOL0     H91874  10.188   9.984   4.346 -0.4264  0.0498  1.6189
  681MOL0     H91875  10.228  10.092   4.468 -1.4075  0.1108  0.6134
  681MOL0     H91876  10.307  10.090   4.170 -0.9283  3.1436 -1.8670
  681MOL0     H91877  10.299  10.244   4.247 -1.2370 -0.8880 -0.8366
  681MOL0     H91878  10.463  10.202   4.406 -0.0758  1.3970 -1.1165
  681MOL0     H91879  10.465  10.026   4.386  2.0363 -0.0675 -1.6381
  681MOL0     H91880  10.553  10.059   4.153  0.1683 -1.5722  0.6303
  681MOL0     H91881  10.552  10.226   4.191 -0.2132  0.3921  1.0237
  681MOL0     H91882  10.774  10.098   4.224 -0.5909 -0.6761  0.6868
  681MOL0     H91883  10.712  10.044   4.382  1.0439 -1.8035 -2.2011
  681MOL0     H91884  10.713  10.338   4.323  0.2148 -0.0771 -1.7337
  681MOL0     H91885  10.724  10.248   4.481 -2.6200 -2.9274 -0.9888
  681MOL0     H91886  10.984  10.099   4.477 -1.0748 -0.0637  1.0707
  681MOL0     H91887  11.332  10.215   4.378 -0.0934  1.5424 -0.3816
  681MOL0     H91888  11.234  10.105   4.477 -1.9985 -0.3274 -0.3886
  681MOL0     H91889  11.376  10.011   4.303 -1.3616 -2.2157  0.6612
  681MOL0     H91890  11.213   9.948   4.287  0.3435 -1.2259 -3.9653
  681MOL0     H91891  11.197  10.099   4.087 -1.0298  1.7350  1.3965
  681MOL0     H91892  11.341  10.016   4.064 -2.0240 -2.3256 -0.4373
  681MOL0     H91893  11.332  10.313   4.121 -3.6816 -1.3600  2.2138
  681MOL0     H91894  11.420  10.210   4.008 -2.2219 -2.1674 -0.4081
  681MOL0     H91895  11.734  10.168   4.299 -2.3575  0.0883  0.8107
  681MOL0     H91896  11.954  10.288   4.238  0.2422  0.7988 -1.3235
  681MOL0     H91897  12.193  10.685   4.149  0.9587 -0.8226  2.7088
  681MOL0     H91898  12.414  10.747   4.061  2.4980  0.7324 -2.8631
  681MOL0     H91899  12.763  10.555   3.899  0.7758 -0.3752 -4.3858
  681MOL0     H91900  12.657  10.425   3.881  0.1629 -0.6363 -1.6840
  681MOL0     H91901  12.594  10.550   3.654  0.6224 -4.9694 -0.8703
  681MOL0     H91902  12.746  10.637   3.692 -0.2080 -0.5752 -0.5249
  681MOL0     H91903  12.859  10.404   3.732  0.8979 -4.3004 -1.6245
  681MOL0     H91904  12.703  10.345   3.650 -2.1302  2.4542 -2.4706
  681MOL0     H91905  12.874  10.560   3.521  1.3257 -0.2856 -2.3549
  681MOL0     H91906  12.738  10.478   3.452 -1.7863  0.9566  1.7170
  681MOL0     H91907  12.909  10.367   3.357  1.7966  1.0018 -0.0024
  681MOL0     H91908  12.860  10.264   3.496 -0.4606 -0.5151 -1.0087
  681MOL0     H91909  13.078  10.476   3.485 -1.2970  0.2680  1.0315
  681MOL0     H91910  13.061  10.365   3.621 -0.6080 -0.1034  1.9236
  681MOL0     H91911  13.080  10.261   3.323  0.5438 -1.5578  0.7492
  681MOL0     H91912  13.124  10.173   3.466  1.6602 -0.7560 -1.7734
  681MOL0     H91913  13.304  10.385   3.337 -2.0260  0.8450  0.2595
  681MOL0     H91914  13.316  10.318   3.504  0.2463 -2.5431  1.6330
  681MOL0     H91915  12.453  10.380   3.854  1.4737  2.2888 -0.1993
  681MOL0     H91916  12.226  10.299   3.957 -1.2651  0.3750  2.7465
  681MOL0     H91917  11.723  10.570   4.032 -2.0175 -0.3482  0.7833
  681MOL0     H91918  11.528  10.452   4.080  1.0208  0.5375 -1.0010
  681MOL0     H91919   9.594  10.175   4.408  1.1803 -0.1803 -3.7185
  681MOL0     H91920   9.401  10.038   4.451 -0.9602  0.8347  2.7344
  681MOL0     H91921   9.307   9.629   4.754  1.7979 -0.9811 -2.5759
  681MOL0     H91922   9.123   9.503   4.845 -0.8453 -2.1122 -0.5170
  681MOL0     H91923   8.806   9.287   4.661  0.6174 -1.3068  3.7387
  681MOL0     H91924   8.753   9.448   4.583  0.2359  0.0577  0.4309
  681MOL0     H91925   8.636   9.506   4.772 -2.0409 -0.5664 -0.1479
  681MOL0     H91926   8.680   9.351   4.857  0.7291  2.2962  1.2915
  681MOL0     H91927   8.544   9.239   4.670  0.8054 -0.9861  0.0658
  681MOL0     H91928   8.525   9.413   4.618  0.1253 -0.9822 -0.4958
  681MOL0     H91929   8.452   9.416   4.892  0.1046 -0.7806  0.7530
  681MOL0     H91930   8.340   9.414   4.752  0.2929  2.0225  1.0535
  681MOL0     H91931   8.313   9.015   4.880 -0.7504 -0.4218 -2.7228
  681MOL0     H91932   8.915   9.531   4.468  1.1309 -2.7871  1.4972
  681MOL0     H91933   9.068   9.829   4.358  3.8017 -0.7835  1.2160
  681MOL0     H91934   9.120   9.686   4.282  0.4328 -1.1770  1.8482
  681MOL0     H91935   8.949   9.690   4.320  0.8375  0.5279 -3.8047
  682MOL0     O91936   0.140   6.146   1.740  0.0581 -0.5845  0.0545
  682MOL0     C91937   0.103   6.255   1.770 -0.0319 -0.1267 -0.3456
  682MOL0     O91938  -0.013   6.282   1.843  0.4481 -0.2344  0.0559
  682MOL0     C91939  -0.073   6.176   1.912 -0.5420 -0.4468  0.9375
  682MOL0     C91940  -0.046   6.169   2.051  0.0176 -0.5442  0.5992
  682MOL0     C91941  -0.112   6.082   2.128  0.2356  0.4042 -0.1770
  682MOL0     C91942  -0.195   5.986   2.070  1.1034  0.0727 -0.3853
  682MOL0     O91943  -0.264   5.902   2.152 -0.2171  0.1823 -0.5651
  682MOL0     C91944  -0.188   5.838   2.253 -0.2061 -0.2161  0.0315
  682MOL0     C91945  -0.274   5.708   2.300  0.9976  0.1462  0.4623
  682MOL0     C91946  -0.236   5.658   2.438  0.0648 -0.3106 -0.7557
  682MOL0     C91947  -0.169   5.516   2.438 -0.0295  0.2847  0.3374
  682MOL0     C91948  -0.132   5.461   2.574 -0.5911  0.7773 -0.3533
  682MOL0     C91949  -0.250   5.418   2.638  0.7042  0.1192  0.2550
  682MOL0     C91950  -0.223   5.338   2.770 -0.0970 -0.6788 -0.2397
  682MOL0     C91951  -0.151   5.202   2.738 -0.5353 -0.3689 -0.5936
  682MOL0     N91952  -0.135   5.121   2.852  0.2903 -0.7385 -0.4006
  682MOL0     C91953  -0.241   5.045   2.897  0.4248 -0.8185  0.3138
  682MOL0     C91954  -0.211   5.011   3.024 -0.3446  0.2066  0.1181
  682MOL0     C91955  -0.285   4.921   3.111  0.0833  0.5887  0.3478
  682MOL0     C91956  -0.250   4.771   3.076 -0.0341 -0.0147  0.5401
  682MOL0     C91957  -0.356   4.666   3.118  0.2774 -0.1651  0.0133
  682MOL0     C91958  -0.295   4.590   3.244 -0.2739  0.3511  0.2504
  682MOL0     O91959  -0.177   4.515   3.197  0.6262  0.0358  0.1251
  682MOL0     C91960  -0.100   4.493   3.305 -0.6321  0.1638 -0.2004
  682MOL0     C91961   0.025   4.548   3.307 -0.4973 -0.3195 -0.7105
  682MOL0     C91962   0.104   4.536   3.417  0.1827 -0.0605  0.5253
  682MOL0     C91963   0.055   4.474   3.534  0.2134 -0.4820  0.3446
  682MOL0     C91964   0.133   4.454   3.654  0.0345 -0.2145  1.1829
  682MOL0     O91965   0.075   4.374   3.746  0.1382  0.2473  0.6064
  682MOL0     C91966   0.138   4.347   3.860 -1.2902  1.1205  0.3619
  682MOL0     C91967   0.161   4.204   3.871  0.7192 -0.4202  0.6331
  682MOL0     C91968   0.230   4.162   3.989  0.0764  0.6915 -0.1057
  682MOL0     C91969   0.271   4.248   4.089 -0.0716  0.8015  0.8742
  682MOL0     O91970   0.337   4.190   4.189  0.5366  0.5134  0.8946
  682MOL0     C91971   0.410   4.270   4.280 -0.0184 -0.7714 -0.3494
  682MOL0     C91972   0.504   4.185   4.367  0.1610 -0.1527 -1.3044
  682MOL0     C91973   0.602   4.098   4.289  0.8774 -0.3527 -0.2348
  682MOL0     C91974   0.714   4.189   4.216  0.3904  0.2553 -0.4656
  682MOL0     C91975   0.783   4.090   4.116 -1.0499 -0.3595  0.2090
  682MOL0     C91976   0.925   4.147   4.079  0.0100  0.1306 -0.3905
  682MOL0     C91977   0.923   4.293   4.042  0.4359 -0.5747  0.5433
  682MOL0     C91978   1.064   4.338   4.011 -0.2753 -0.5741  0.5123
  682MOL0    Cl91979   1.142   4.388   4.163  0.0102 -0.0796  0.6369
  682MOL0     C91980   0.238   4.385   4.079 -0.0711 -0.1519 -0.4511
  682MOL0     C91981   0.176   4.430   3.959 -0.5834 -0.4352 -0.3326
  682MOL0     O91982   0.248   4.500   3.664 -0.7216  0.2688  0.6123
  682MOL0     C91983  -0.074   4.420   3.538  0.2543  0.3201  0.1087
  682MOL0     C91984  -0.149   4.429   3.420  0.3499 -0.6848 -0.1001
  682MOL0     N91985  -0.083   5.065   3.049  0.6575 -0.1963 -0.7620
  682MOL0     N91986  -0.034   5.118   2.946  1.7229 -0.2775  0.1322
  682MOL0     C91987  -0.241   6.004   1.938  0.0011  0.0709 -0.8776
  682MOL0     C91988  -0.171   6.097   1.858  0.3598 -0.2611 -0.3009
  682MOL0     C91989   0.188   6.361   1.707 -0.5746  0.2340 -0.3898
  682MOL0     C91990   0.135   6.495   1.718 -0.2871  0.3317 -0.9709
  682MOL0     C91991   0.207   6.591   1.640  0.2232 -0.3504 -0.2685
  682MOL0     C91992   0.311   6.569   1.561 -0.8440 -0.5618  0.3387
  682MOL0     O91993   0.367   6.665   1.479 -0.3891 -0.5422 -0.6281
  682MOL0     C91994   0.474   6.648   1.388  0.6154 -0.0789 -0.0980
  682MOL0     C91995   0.414   6.604   1.255 -0.3661  0.2301  0.2702
  682MOL0     C91996   0.432   6.703   1.136  0.6362  0.7728 -0.9644
  682MOL0     C91997   0.566   6.678   1.054 -0.0408 -1.0062 -0.0001
  682MOL0     C91998   0.694   6.677   1.123 -0.0483 -0.5631 -0.1286
  682MOL0     C91999   0.806   6.674   1.172 -0.3072  0.0002  0.4107
  682MOL0     C92000   0.368   6.444   1.571  1.3607  0.7120 -0.0762
  682MOL0     C92001   0.312   6.338   1.642 -0.1387  0.1936 -0.9363
  682MOL0     C92002   0.399   6.208   1.655 -0.0637  0.0853  0.2968
  682MOL0     H92003   0.024   6.241   2.091  1.7169 -0.8269 -1.6715
  682MOL0     H92004  -0.113   6.087   2.236 -1.1536  1.7292 -0.2252
  682MOL0     H92005  -0.095   5.794   2.216  1.9610  1.1274  3.3411
  682MOL0     H92006  -0.169   5.911   2.332  2.2211 -1.1023  0.3700
  682MOL0     H92007  -0.261   5.628   2.228  0.9667  0.7649 -0.2440
  682MOL0     H92008  -0.380   5.734   2.297  0.6299 -1.2763  0.4908
  682MOL0     H92009  -0.330   5.638   2.491 -0.7303 -0.2999 -2.1035
  682MOL0     H92010  -0.183   5.727   2.504 -0.3000 -1.4052  0.7199
  682MOL0     H92011  -0.225   5.442   2.380  2.8591 -1.7262 -0.1294
  682MOL0     H92012  -0.082   5.527   2.372 -0.4510  1.4171 -0.0606
  682MOL0     H92013  -0.056   5.384   2.559 -0.2936  1.2668 -1.5057
  682MOL0     H92014  -0.082   5.529   2.643  0.7047 -0.9553  0.4883
  682MOL0     H92015  -0.313   5.503   2.665 -1.5745 -1.2817 -0.3604
  682MOL0     H92016  -0.311   5.359   2.568 -0.4851 -0.9470  2.1119
  682MOL0     H92017  -0.319   5.306   2.810 -0.7576 -0.8129 -1.8449
  682MOL0     H92018  -0.169   5.404   2.838 -0.9158 -1.0732  0.8192
  682MOL0     H92019  -0.217   5.152   2.666 -1.4134  0.0912 -0.1150
  682MOL0     H92020  -0.048   5.220   2.705 -0.2900 -0.6620  0.0065
  682MOL0     H92021  -0.335   5.031   2.844  0.1560 -1.3489  0.9185
  682MOL0     H92022  -0.268   4.932   3.219 -3.3099  0.4920  1.0205
  682MOL0     H92023  -0.391   4.940   3.090  0.3007  0.9137 -0.4829
  682MOL0     H92024  -0.241   4.772   2.967 -5.3596 -0.4964 -0.1574
  682MOL0     H92025  -0.152   4.743   3.116  0.1050  2.8996  2.6278
  682MOL0     H92026  -0.371   4.593   3.037 -0.4445 -1.3978  1.2191
  682MOL0     H92027  -0.451   4.718   3.132  0.4583  0.9674 -2.3525
  682MOL0     H92028  -0.364   4.524   3.297  0.1617  1.0204  1.7183
  682MOL0     H92029  -0.270   4.651   3.332  0.0577 -1.5291  1.5239
  682MOL0     H92030   0.066   4.593   3.218  0.3946  0.8263  0.2459
  682MOL0     H92031   0.205   4.571   3.404  1.4153 -2.0535  3.4730
  682MOL0     H92032   0.130   4.144   3.786 -0.5607  3.0544 -1.5497
  682MOL0     H92033   0.243   4.057   4.013  0.6775  1.5843  4.4579
  682MOL0     H92034   0.470   4.342   4.225 -0.6281  1.7271  2.0452
  682MOL0     H92035   0.346   4.326   4.349  1.9954  0.5831  0.5033
  682MOL0     H92036   0.565   4.251   4.429 -0.4155  0.2431 -1.1547
  682MOL0     H92037   0.451   4.130   4.446  1.1850  2.6412  1.5292
  682MOL0     H92038   0.646   4.030   4.362 -2.9554 -0.9941  1.7246
  682MOL0     H92039   0.545   4.039   4.217 -0.2481 -3.2307  2.7997
  682MOL0     H92040   0.792   4.224   4.284  0.2597 -1.7063  0.7511
  682MOL0     H92041   0.660   4.271   4.166 -0.8725  1.2967  2.4101
  682MOL0     H92042   0.739   4.070   4.018 -0.7932 -0.3649  0.0937
  682MOL0     H92043   0.801   3.989   4.154 -1.3160 -0.2744  0.5625
  682MOL0     H92044   0.992   4.127   4.162 -0.6198 -2.0949 -0.3477
  682MOL0     H92045   0.963   4.090   3.994  3.1412  2.7079 -0.9356
  682MOL0     H92046   0.892   4.347   4.132  2.6151  4.1244 -1.2465
  682MOL0     H92047   0.860   4.309   3.954  2.3225 -1.5435 -1.0616
  682MOL0     H92048   1.126   4.259   3.968  3.3232  2.0419  0.3875
  682MOL0     H92049   1.075   4.420   3.940 -2.5071  0.6371  1.4654
  682MOL0     H92050   0.265   4.464   4.148  0.6313 -0.5189 -0.3031
  682MOL0     H92051   0.169   4.537   3.941 -0.5865  0.3969  3.7097
  682MOL0     H92052  -0.127   4.384   3.626 -0.2317 -3.0431 -1.3858
  682MOL0     H92053  -0.252   4.396   3.416  0.8855 -2.3878 -0.3267
  682MOL0     H92054  -0.322   5.950   1.890 -1.7948  1.2877  0.6147
  682MOL0     H92055  -0.181   6.113   1.751  0.3918  1.9944 -0.0047
  682MOL0     H92056   0.052   6.523   1.782 -1.1476 -3.9172  0.0149
  682MOL0     H92057   0.181   6.696   1.644 -0.0974 -0.3738 -1.3461
  682MOL0     H92058   0.549   6.574   1.418 -1.5268 -2.5279 -0.4460
  682MOL0     H92059   0.527   6.743   1.380  0.6489 -0.1701 -1.1035
  682MOL0     H92060   0.307   6.608   1.279 -0.4269  3.4612 -0.0991
  682MOL0     H92061   0.439   6.499   1.236 -0.0811 -0.2400  2.8562
  682MOL0     H92062   0.422   6.806   1.173  0.3956  0.9863 -1.5979
  682MOL0     H92063   0.356   6.704   1.057 -0.8277 -2.6415  0.2280
  682MOL0     H92064   0.559   6.584   0.998 -1.8083  0.5539 -2.5913
  682MOL0     H92065   0.576   6.764   0.987 -1.6436 -0.7769  0.0062
  682MOL0     H92066   0.906   6.664   1.209 -0.3142 -2.9456 -0.0752
  682MOL0     H92067   0.461   6.417   1.522  1.6986 -1.2437  1.5025
  682MOL0     H92068   0.499   6.238   1.621 -0.4487  2.2094  0.9415
  682MOL0     H92069   0.425   6.183   1.758  4.2203 -1.5055 -0.9218
  682MOL0     H92070   0.366   6.128   1.588 -2.6981  1.3855 -0.0812
  683MOL0     O92071  11.286   4.855  10.995  0.5838  0.0437 -1.0569
  683MOL0     C92072  11.268   4.736  10.962  0.8276 -1.1819  0.0320
  683MOL0     O92073  11.353   4.671  10.875  0.4336 -0.3022 -0.2054
  683MOL0     C92074  11.432   4.759  10.814  0.9756 -0.9013  0.3109
  683MOL0     C92075  11.399   4.829  10.694  1.4438 -0.3573  0.0382
  683MOL0     C92076  11.491   4.918  10.638  0.3402 -1.7339 -0.1281
  683MOL0     C92077  11.617   4.955  10.702 -0.2473  0.2515 -0.1057
  683MOL0     O92078  11.698   5.058  10.662 -0.2463 -0.0356 -0.2001
  683MOL0     C92079  11.647   5.131  10.544 -0.5249  0.1744 -0.0302
  683MOL0     C92080  11.764   5.237  10.523  0.3177 -0.4387 -0.0358
  683MOL0     C92081  11.718   5.350  10.430  0.2687 -0.3290 -0.0239
  683MOL0     C92082  11.691   5.304  10.284  0.1850  0.7102 -0.6851
  683MOL0     C92083  11.694   5.428  10.194  0.0970 -0.1647  0.1825
  683MOL0     C92084  11.723   5.391  10.045  0.1004  0.2206  1.1585
  683MOL0     C92085  11.858   5.313  10.021  0.5414 -0.5799  0.3257
  683MOL0     C92086  11.902   5.332   9.877  0.1273  0.5930 -0.6485
  683MOL0     N92087  11.820   5.257   9.783  0.7745  0.4723 -0.3304
  683MOL0     C92088  11.806   5.117   9.790 -0.1874 -0.0735 -0.0558
  683MOL0     C92089  11.718   5.093   9.695 -0.1815  0.8490 -0.1179
  683MOL0     C92090  11.661   4.952   9.693  0.1024 -0.3655  0.1226
  683MOL0     C92091  11.585   4.923   9.563 -0.5682  0.8314  0.3717
  683MOL0     C92092  11.510   4.791   9.579  0.1662  0.0494 -0.1484
  683MOL0     C92093  11.426   4.778   9.453 -1.2163  0.2939  0.1515
  683MOL0     O92094  11.377   4.636   9.466 -0.1639 -0.0628 -0.0308
  683MOL0     C92095  11.284   4.591   9.371  0.6184 -0.0472  0.5046
  683MOL0     C92096  11.208   4.681   9.291 -0.6161  0.4862 -0.0449
  683MOL0     C92097  11.101   4.630   9.215  0.2857  0.5352 -0.2800
  683MOL0     C92098  11.085   4.487   9.198 -0.1663  0.0426  0.2066
  683MOL0     C92099  10.979   4.434   9.112 -0.2168  0.0578 -0.2010
  683MOL0     O92100  10.999   4.308   9.061  0.2739  0.0723 -0.1817
  683MOL0     C92101  10.916   4.280   8.947 -0.0431 -0.4209 -0.2993
  683MOL0     C92102  10.843   4.165   8.947  0.7186 -0.5991 -0.5576
  683MOL0     C92103  10.754   4.124   8.852  0.4123  0.3744 -0.4494
  683MOL0     C92104  10.732   4.200   8.735 -0.3378 -0.7775 -0.7892
  683MOL0     O92105  10.642   4.176   8.638 -0.3967  0.3032  0.0253
  683MOL0     C92106  10.555   4.065   8.660 -0.0888 -0.8164 -0.9738
  683MOL0     C92107  10.444   4.063   8.559  0.0663  0.2381  0.7289
  683MOL0     C92108  10.489   3.987   8.433 -0.5076 -0.4124 -0.9907
  683MOL0     C92109  10.387   3.983   8.322  0.5822 -0.2733  0.0016
  683MOL0     C92110  10.445   3.901   8.196  0.0128 -0.1449  0.0627
  683MOL0     C92111  10.355   3.902   8.071 -0.0044  0.1387 -0.3521
  683MOL0     C92112  10.363   3.760   8.000 -0.4649 -0.1952 -0.6537
  683MOL0     C92113  10.412   3.766   7.863  0.4454  0.4088  0.6002
  683MOL0    Cl92114  10.296   3.839   7.761 -0.1518  0.3780  0.4707
  683MOL0     C92115  10.805   4.320   8.727 -0.2910 -0.2700  0.0369
  683MOL0     C92116  10.889   4.363   8.838  0.2684 -0.0705 -0.1353
  683MOL0     O92117  10.888   4.515   9.083  0.0683  0.7635  0.1750
  683MOL0     C92118  11.162   4.396   9.279 -0.1174  0.0090 -0.2988
  683MOL0     C92119  11.259   4.452   9.370 -0.0165  0.7161  0.2264
  683MOL0     N92120  11.672   5.214   9.646 -0.2207 -0.2142 -0.3240
  683MOL0     N92121  11.729   5.322   9.695 -0.3137  0.2463 -0.3798
  683MOL0     C92122  11.644   4.894  10.826  0.6317  0.7107  0.1778
  683MOL0     C92123  11.553   4.797  10.880  0.8315  0.6137  0.2828
  683MOL0     C92124  11.154   4.657  11.008  0.9378 -0.5355 -0.1508
  683MOL0     C92125  11.157   4.517  11.010  0.1072 -0.3904 -0.0795
  683MOL0     C92126  11.044   4.444  11.045  0.9091  0.6707 -0.7614
  683MOL0     C92127  10.919   4.503  11.078  0.6393 -0.2911  0.0659
  683MOL0     O92128  10.801   4.444  11.110  0.4863  0.2724 -0.0724
  683MOL0     C92129  10.803   4.323  11.180  0.2169 -0.2486 -0.0979
  683MOL0     C92130  10.704   4.323  11.293 -0.4139 -0.3200  0.4490
  683MOL0     C92131  10.567   4.364  11.239  0.6796 -0.0949  0.9109
  683MOL0     C92132  10.468   4.340  11.353  0.0234 -0.0092 -0.2014
  683MOL0     C92133  10.336   4.395  11.326 -0.3459  1.5535  0.0631
  683MOL0     C92134  10.219   4.422  11.317 -0.6123  0.4072  0.5596
  683MOL0     C92135  10.919   4.641  11.093  0.1111 -0.0663 -0.3384
  683MOL0     C92136  11.035   4.721  11.064 -0.2214 -0.0180 -0.2441
  683MOL0     C92137  11.021   4.868  11.084  0.5118  0.2085 -0.9256
  683MOL0     H92138  11.317   4.806  10.628  2.5312 -4.4662 -0.1623
  683MOL0     H92139  11.467   4.962  10.542  1.6716 -1.7570 -0.4979
  683MOL0     H92140  11.633   5.063  10.459  0.7750 -0.9561  0.6230
  683MOL0     H92141  11.550   5.177  10.565 -1.0345 -0.1489 -1.5477
  683MOL0     H92142  11.852   5.192  10.477  0.7615  0.5383 -0.1705
  683MOL0     H92143  11.795   5.285  10.617  1.4374 -0.7295 -0.2440
  683MOL0     H92144  11.798   5.425  10.429  0.4512 -0.5054  0.6458
  683MOL0     H92145  11.646   5.413  10.483  1.5521  1.1774  0.0355
  683MOL0     H92146  11.768   5.232  10.256  1.6684  1.6943  0.6882
  683MOL0     H92147  11.590   5.263  10.276  0.0895  0.7407  0.2421
  683MOL0     H92148  11.605   5.492  10.199 -0.0837  0.0278 -3.1272
  683MOL0     H92149  11.779   5.485  10.232 -0.2291 -0.0912  0.8253
  683MOL0     H92150  11.646   5.325  10.003  1.6903 -1.7860  1.2716
  683MOL0     H92151  11.722   5.495  10.012 -0.5261 -0.8494 -2.6492
  683MOL0     H92152  11.845   5.205  10.033  0.0684 -0.9037 -2.4542
  683MOL0     H92153  11.941   5.351  10.081  1.2753  1.2721 -1.7143
  683MOL0     H92154  11.895   5.434   9.839 -3.9500  0.4284 -0.7445
  683MOL0     H92155  12.009   5.308   9.877  0.3232  1.4151 -0.6842
  683MOL0     H92156  11.835   5.043   9.864 -0.8682  0.7944  1.1184
  683MOL0     H92157  11.746   4.883   9.695  0.1834 -0.2603  0.8153
  683MOL0     H92158  11.597   4.940   9.781 -1.2794 -1.1599 -0.9617
  683MOL0     H92159  11.524   5.011   9.540  0.0482  1.0357 -0.5149
  683MOL0     H92160  11.656   4.916   9.480 -1.4873  2.6871 -0.6361
  683MOL0     H92161  11.434   4.801   9.658  0.5921 -1.1731  0.4327
  683MOL0     H92162  11.586   4.719   9.608  0.3475  0.2923 -0.0125
  683MOL0     H92163  11.487   4.796   9.364 -1.3763 -1.5511 -0.3851
  683MOL0     H92164  11.352   4.858   9.459 -0.9741  0.4518  1.4546
  683MOL0     H92165  11.225   4.786   9.309  0.5916  0.2997 -0.0313
  683MOL0     H92166  11.039   4.703   9.165 -3.3817 -3.9579 -3.0887
  683MOL0     H92167  10.845   4.114   9.043 -1.3975  0.4354  0.0833
  683MOL0     H92168  10.701   4.031   8.873 -0.7691  1.3630  1.1417
  683MOL0     H92169  10.614   3.972   8.662  0.4368 -0.5680  2.4009
  683MOL0     H92170  10.508   4.071   8.759  0.3760 -1.5295 -0.6986
  683MOL0     H92171  10.362   4.003   8.598  0.3302 -1.9442 -1.7583
  683MOL0     H92172  10.406   4.160   8.527 -1.9478 -0.4161  1.0409
  683MOL0     H92173  10.579   4.032   8.392  0.2541 -1.2922 -0.3393
  683MOL0     H92174  10.519   3.887   8.468 -0.0742  0.2215  0.5159
  683MOL0     H92175  10.371   4.084   8.284  0.1027 -0.2137  0.3592
  683MOL0     H92176  10.287   3.953   8.353 -1.1564  0.9622 -3.8544
  683MOL0     H92177  10.472   3.801   8.228  2.6267  0.5703  0.3665
  683MOL0     H92178  10.541   3.944   8.165  1.1786 -0.0315  3.5027
  683MOL0     H92179  10.253   3.918   8.108  1.3944  1.3734  3.5176
  683MOL0     H92180  10.373   3.983   8.000  1.3598  0.8023  0.7068
  683MOL0     H92181  10.267   3.707   8.002  0.7826 -2.5511  0.3704
  683MOL0     H92182  10.439   3.694   8.043 -1.1027 -2.7187 -3.0993
  683MOL0     H92183  10.494   3.838   7.858 -1.2060  2.3224 -0.6578
  683MOL0     H92184  10.444   3.667   7.830 -0.6410  0.5111 -0.8409
  683MOL0     H92185  10.790   4.382   8.640 -2.0212 -2.9223 -1.7199
  683MOL0     H92186  10.938   4.459   8.828 -1.3732  0.7819 -0.3346
  683MOL0     H92187  11.144   4.289   9.273 -0.5315  0.0592 -0.0399
  683MOL0     H92188  11.332   4.402   9.433 -0.1363 -0.4032 -0.5060
  683MOL0     H92189  11.744   4.902  10.869  0.9105 -2.7613  0.4963
  683MOL0     H92190  11.580   4.738  10.967 -0.0246 -2.7509 -1.5499
  683MOL0     H92191  11.249   4.467  10.981  0.9139  1.6629 -1.3014
  683MOL0     H92192  11.045   4.335  11.053  0.6659  0.8153  2.6011
  683MOL0     H92193  10.904   4.292  11.208 -0.1061 -0.0630  1.3438
  683MOL0     H92194  10.772   4.241  11.114  0.0530 -0.0061 -0.3315
  683MOL0     H92195  10.726   4.390  11.377 -2.0673  0.8887 -0.0042
  683MOL0     H92196  10.693   4.219  11.324 -0.2935 -0.1959  0.9191
  683MOL0     H92197  10.543   4.288  11.163 -0.0519 -0.9798  1.9894
  683MOL0     H92198  10.573   4.464  11.196  0.0539 -0.4421 -0.0260
  683MOL0     H92199  10.445   4.234  11.359  0.9725 -0.3920 -2.3908
  683MOL0     H92200  10.511   4.375  11.448  0.2300  0.9590 -0.6348
  683MOL0     H92201  10.118   4.455  11.327 -0.4456  0.9646  0.4906
  683MOL0     H92202  10.827   4.691  11.124  0.4982  2.1900 -2.4715
  683MOL0     H92203  11.022   4.933  10.995 -0.9815  1.2752 -0.2125
  683MOL0     H92204  10.927   4.894  11.134  1.5345  2.0408  0.1665
  683MOL0     H92205  11.104   4.898  11.148  1.9165 -1.9651 -1.6423
  684MOL0     O92206   8.996   5.079   5.079  0.5474 -0.7466 -0.2837
  684MOL0     C92207   8.939   4.996   5.155  0.6666  0.1977  0.1335
  684MOL0     O92208   8.986   4.945   5.277  0.7849 -0.6263  0.4430
  684MOL0     C92209   9.107   4.997   5.312 -0.7633 -0.0767 -1.5387
  684MOL0     C92210   9.126   5.114   5.399 -0.2018 -0.0020 -0.0038
  684MOL0     C92211   9.253   5.168   5.416  0.9088 -0.5815 -0.1096
  684MOL0     C92212   9.361   5.107   5.351 -1.0284  0.0516 -0.2315
  684MOL0     O92213   9.494   5.151   5.371  0.8333 -0.1191  0.2977
  684MOL0     C92214   9.602   5.131   5.281  0.0518 -1.0064  0.3414
  684MOL0     C92215   9.730   5.194   5.339  0.5964  0.5249  0.5111
  684MOL0     C92216   9.711   5.345   5.322  0.8116 -0.4613 -0.2453
  684MOL0     C92217   9.837   5.424   5.376 -0.3609 -0.3331  0.6431
  684MOL0     C92218   9.843   5.424   5.519  0.6125  0.4535 -0.3448
  684MOL0     C92219   9.751   5.529   5.584 -0.3170  0.2873 -0.3747
  684MOL0     C92220   9.746   5.511   5.730  0.7336  0.1833  0.3915
  684MOL0     C92221   9.883   5.532   5.805  0.1562  0.1377  0.7758
  684MOL0     N92222   9.867   5.537   5.945 -0.0735  0.6476  0.8029
  684MOL0     C92223   9.907   5.645   6.020 -0.6704  0.3244 -0.2357
  684MOL0     C92224   9.880   5.607   6.149 -0.2180  0.6411 -0.4716
  684MOL0     C92225   9.870   5.697   6.277  0.2765  0.4685 -0.2730
  684MOL0     C92226   9.742   5.770   6.302 -0.2637  0.1523  0.2557
  684MOL0     C92227   9.610   5.717   6.252 -0.8382  0.0140 -0.1263
  684MOL0     C92228   9.487   5.799   6.297  0.2627  0.4032 -1.3771
  684MOL0     O92229   9.371   5.726   6.268  0.1060 -0.5809 -0.2286
  684MOL0     C92230   9.261   5.815   6.271  0.6072 -0.1124  0.0769
  684MOL0     C92231   9.150   5.776   6.189 -0.5095  0.2423 -0.1886
  684MOL0     C92232   9.035   5.853   6.186  0.2487  0.3533  0.5748
  684MOL0     C92233   9.023   5.976   6.248 -0.7765  0.0619  0.1208
  684MOL0     C92234   8.902   6.053   6.251  0.9302  0.4654 -0.3208
  684MOL0     O92235   8.906   6.181   6.284  0.8108 -0.5598 -0.3326
  684MOL0     C92236   8.786   6.241   6.313 -0.1373  0.3250 -0.1015
  684MOL0     C92237   8.673   6.237   6.239  0.4758  0.4656 -0.6023
  684MOL0     C92238   8.556   6.308   6.292  0.4891  0.0103  0.3928
  684MOL0     C92239   8.562   6.399   6.400 -0.5869  0.2901 -0.2592
  684MOL0     O92240   8.449   6.460   6.456 -0.7975 -0.2408 -0.5450
  684MOL0     C92241   8.354   6.504   6.360  0.0682  0.9713 -0.2018
  684MOL0     C92242   8.282   6.643   6.392  1.3934 -1.0218  0.0304
  684MOL0     C92243   8.143   6.653   6.317  1.2315 -0.4463 -0.4064
  684MOL0     C92244   8.017   6.653   6.409 -0.1571 -0.6702 -0.3653
  684MOL0     C92245   8.022   6.781   6.504  0.0770  0.7355  1.7255
  684MOL0     C92246   8.000   6.913   6.434  0.3725 -0.5274  0.1053
  684MOL0     C92247   7.916   7.012   6.529 -0.2758 -0.4036  0.0457
  684MOL0     C92248   7.990   7.060   6.654  0.2965 -0.5637 -0.8653
  684MOL0    Cl92249   7.889   7.197   6.730  0.4240 -0.1708 -0.5522
  684MOL0     C92250   8.683   6.407   6.467 -0.1834  0.2920  0.5937
  684MOL0     C92251   8.793   6.333   6.423  0.7028 -0.0712  0.2241
  684MOL0     O92252   8.798   5.985   6.225 -0.5412 -0.0151 -0.1001
  684MOL0     C92253   9.139   6.027   6.312 -0.4792  0.0571  0.6585
  684MOL0     C92254   9.252   5.943   6.332  0.7943 -0.7810  0.6466
  684MOL0     N92255   9.839   5.472   6.149  0.3590 -0.6402 -0.5026
  684MOL0     N92256   9.834   5.435   6.024  0.0939 -0.1773  0.3783
  684MOL0     C92257   9.343   4.988   5.280 -0.6430  0.4048  0.7533
  684MOL0     C92258   9.221   4.928   5.255 -0.4753 -0.7751 -0.6723
  684MOL0     C92259   8.799   4.957   5.112 -0.0047  0.0086  0.0146
  684MOL0     C92260   8.726   4.897   5.215  0.0260  0.0733  0.5093
  684MOL0     C92261   8.593   4.854   5.192 -0.5654 -0.0961 -0.4876
  684MOL0     C92262   8.536   4.875   5.073 -0.1325 -0.3862  0.1652
  684MOL0     O92263   8.406   4.851   5.048  0.2576 -0.1654 -0.8554
  684MOL0     C92264   8.336   4.776   5.146 -0.2613  0.1040 -0.6765
  684MOL0     C92265   8.204   4.749   5.095  0.2548  0.0134  0.4308
  684MOL0     C92266   8.190   4.666   4.974  0.5765  0.1651  0.6929
  684MOL0     C92267   8.042   4.656   4.922  0.0524 -0.3319  0.3551
  684MOL0     C92268   7.972   4.587   5.021  0.7353 -0.1217  0.2834
  684MOL0     C92269   7.916   4.521   5.104 -1.2521 -0.5467 -0.0847
  684MOL0     C92270   8.604   4.937   4.974 -0.7637  0.3931  0.3732
  684MOL0     C92271   8.733   4.985   4.986 -0.6959 -0.9577  0.0196
  684MOL0     C92272   8.791   5.057   4.860 -0.7177  0.9373 -0.9047
  684MOL0     H92273   9.040   5.164   5.441 -0.1194 -0.0070  0.1694
  684MOL0     H92274   9.274   5.260   5.470 -0.9338  0.0190 -0.3302
  684MOL0     H92275   9.624   5.024   5.266  1.8461 -0.6964  0.5467
  684MOL0     H92276   9.569   5.164   5.182 -5.1036 -1.0461  1.7370
  684MOL0     H92277   9.805   5.166   5.266 -1.0621 -1.6405 -0.4579
  684MOL0     H92278   9.747   5.163   5.443 -0.0637  3.0014  1.4402
  684MOL0     H92279   9.620   5.374   5.375 -0.2119 -0.4134 -1.9636
  684MOL0     H92280   9.687   5.368   5.218 -1.5429  3.6159  1.0132
  684MOL0     H92281   9.928   5.386   5.328  0.4001  1.3645  0.6660
  684MOL0     H92282   9.835   5.526   5.336  3.4051  0.2329  1.5231
  684MOL0     H92283   9.835   5.330   5.575  0.7295  0.0849 -0.9335
  684MOL0     H92284   9.944   5.451   5.552  0.7180 -1.1168  0.7474
  684MOL0     H92285   9.789   5.629   5.566 -1.5382  0.7813 -0.2842
  684MOL0     H92286   9.648   5.524   5.547 -1.7993 -1.1626  3.4088
  684MOL0     H92287   9.693   5.419   5.756  3.2748 -1.0417  1.5836
  684MOL0     H92288   9.681   5.595   5.756  2.0420  1.6857 -0.9521
  684MOL0     H92289   9.943   5.441   5.792 -0.2895  0.0808 -1.2243
  684MOL0     H92290   9.928   5.623   5.764 -0.4432  0.2792  0.4042
  684MOL0     H92291   9.921   5.749   5.996 -0.6869  0.3032 -0.3372
  684MOL0     H92292   9.880   5.638   6.369 -0.8823 -0.3092 -0.6322
  684MOL0     H92293   9.953   5.769   6.273 -1.4112  2.6784  1.5328
  684MOL0     H92294   9.737   5.772   6.411 -0.1250  0.7147  0.2554
  684MOL0     H92295   9.761   5.867   6.255  0.2920 -0.1153 -0.0785
  684MOL0     H92296   9.600   5.612   6.282 -0.0689  0.4260  1.6885
  684MOL0     H92297   9.602   5.707   6.143 -1.1737 -0.5807 -0.0536
  684MOL0     H92298   9.488   5.890   6.236 -1.0186  0.4197 -1.3876
  684MOL0     H92299   9.492   5.808   6.406 -0.5733  1.7313 -1.4307
  684MOL0     H92300   9.162   5.679   6.141  1.1595 -0.5739  1.7339
  684MOL0     H92301   8.951   5.803   6.139  0.6176  0.2981 -0.0388
  684MOL0     H92302   8.651   6.173   6.154  0.3410 -1.6555  0.9226
  684MOL0     H92303   8.465   6.299   6.233 -0.2346  2.6999  0.9578
  684MOL0     H92304   8.410   6.505   6.266  2.3166 -2.5055  0.9195
  684MOL0     H92305   8.275   6.429   6.359  0.5728  0.3952  1.1079
  684MOL0     H92306   8.259   6.645   6.499 -2.0042  0.5982 -0.5838
  684MOL0     H92307   8.343   6.727   6.357  0.6196 -0.7976 -0.8553
  684MOL0     H92308   8.134   6.744   6.257  0.5860 -0.5089 -0.4118
  684MOL0     H92309   8.137   6.566   6.251  3.0080 -2.5185  1.9247
  684MOL0     H92310   8.014   6.561   6.468 -1.4895 -1.4496 -1.5788
  684MOL0     H92311   7.926   6.659   6.349  0.7500 -0.4800 -1.7937
  684MOL0     H92312   8.103   6.769   6.577  2.1373 -2.2237 -0.7495
  684MOL0     H92313   7.937   6.769   6.571  0.3078  0.2240  1.9372
  684MOL0     H92314   8.099   6.948   6.405  1.6155 -2.4610  1.7104
  684MOL0     H92315   7.937   6.888   6.348  2.7662 -1.3290 -1.5102
  684MOL0     H92316   7.825   6.957   6.556  0.2498 -0.9759  0.6785
  684MOL0     H92317   7.894   7.099   6.466  0.3104  0.3327  0.8454
  684MOL0     H92318   7.998   6.981   6.729 -0.8549  1.3182  1.3941
  684MOL0     H92319   8.090   7.097   6.631  0.7624 -1.1181  0.2392
  684MOL0     H92320   8.679   6.473   6.553  0.8489  0.2569  0.6805
  684MOL0     H92321   8.884   6.344   6.481  1.1846 -1.1405 -0.2763
  684MOL0     H92322   9.149   6.120   6.367  1.1996  0.1958  0.1626
  684MOL0     H92323   9.334   5.986   6.388  1.1779  0.3822 -0.7585
  684MOL0     H92324   9.438   4.949   5.245 -0.2696  1.7129  0.2485
  684MOL0     H92325   9.210   4.848   5.182  0.9341  0.3726 -2.1920
  684MOL0     H92326   8.776   4.873   5.308  0.3638 -1.6273 -0.0678
  684MOL0     H92327   8.547   4.795   5.270  1.2929  1.0918  1.6373
  684MOL0     H92328   8.339   4.825   5.244 -0.8137  0.1571 -0.6837
  684MOL0     H92329   8.389   4.680   5.153 -1.1296 -0.5418 -2.4248
  684MOL0     H92330   8.140   4.837   5.086  1.6751  1.1625  1.2053
  684MOL0     H92331   8.152   4.695   5.174 -1.0511 -1.3661 -1.2675
  684MOL0     H92332   8.234   4.567   4.989 -2.3528 -2.1837 -3.7943
  684MOL0     H92333   8.254   4.711   4.898 -1.9177  0.9593 -1.0770
  684MOL0     H92334   7.995   4.753   4.908 -0.1058 -0.8585 -4.1937
  684MOL0     H92335   8.045   4.601   4.828  0.5238  0.7101 -0.2521
  684MOL0     H92336   7.881   4.465   5.188  1.2822 -2.4166 -0.1480
  684MOL0     H92337   8.555   4.955   4.880  0.0363  0.2099 -0.0931
  684MOL0     H92338   8.826   5.154   4.896 -1.7833 -0.5696  5.5100
  684MOL0     H92339   8.881   5.011   4.818 -1.5210 -0.0910 -1.5522
  684MOL0     H92340   8.723   5.050   4.775 -1.1428 -0.0467 -0.4977
  685MOL0     O92341   5.504   2.044   5.750  0.2201 -0.3526  0.6192
  685MOL0     C92342   5.585   1.948   5.740  0.3856 -0.0702 -0.5644
  685MOL0     O92343   5.720   1.952   5.724 -0.0355  0.2791 -0.4105
  685MOL0     C92344   5.793   2.071   5.702  0.4837 -0.1200 -0.3190
  685MOL0     C92345   5.929   2.041   5.683  1.1211  0.4466 -1.0800
  685MOL0     C92346   6.017   2.146   5.667  0.7631  0.0866  0.0388
  685MOL0     C92347   5.982   2.282   5.667  0.4523 -0.2064  0.1168
  685MOL0     O92348   6.054   2.396   5.637 -0.1990  0.1788  0.3257
  685MOL0     C92349   6.180   2.404   5.710 -0.3145 -0.5302  0.3442
  685MOL0     C92350   6.186   2.391   5.855  0.2218 -0.2265 -0.0314
  685MOL0     C92351   6.146   2.526   5.910 -0.4915  0.5389  0.0962
  685MOL0     C92352   6.130   2.522   6.063  0.5352 -0.2161 -0.0705
  685MOL0     C92353   6.085   2.663   6.117  0.8069  0.1216 -0.6068
  685MOL0     C92354   6.165   2.792   6.071  0.5622 -0.3675  0.6771
  685MOL0     C92355   6.121   2.927   6.129  0.9289 -0.4837  0.5284
  685MOL0     C92356   6.118   3.049   6.034 -0.0195 -0.9906  0.2030
  685MOL0     N92357   6.253   3.093   6.008 -0.4229  0.4321 -0.5522
  685MOL0     C92358   6.338   3.167   6.096  1.2229 -0.2752  0.8978
  685MOL0     C92359   6.456   3.156   6.041 -0.4283  0.0672  0.5567
  685MOL0     C92360   6.583   3.215   6.106  0.1712 -0.1745 -0.0811
  685MOL0     C92361   6.638   3.122   6.210  0.3933  0.1645  0.2751
  685MOL0     C92362   6.706   2.994   6.151 -0.2721  0.4935 -0.5022
  685MOL0     C92363   6.859   3.024   6.123 -0.3673 -0.6169  0.0489
  685MOL0     O92364   6.923   3.036   6.244 -0.4877 -0.3847 -0.3651
  685MOL0     C92365   7.059   3.080   6.233 -0.2796 -0.4904  1.1710
  685MOL0     C92366   7.118   3.132   6.342 -0.2896 -0.3910 -0.5776
  685MOL0     C92367   7.249   3.172   6.351 -0.5092 -0.0195  0.4101
  685MOL0     C92368   7.333   3.158   6.236 -0.5859  0.2752  1.7044
  685MOL0     C92369   7.474   3.200   6.246  0.7969  0.6656  0.2978
  685MOL0     O92370   7.501   3.275   6.351  0.4860  0.7831 -0.3263
  685MOL0     C92371   7.622   3.310   6.403 -0.4037  0.1155 -0.0850
  685MOL0     C92372   7.619   3.396   6.511 -0.4965  0.8000 -0.3651
  685MOL0     C92373   7.730   3.431   6.584 -0.0691 -1.1395 -0.2549
  685MOL0     C92374   7.860   3.374   6.557  0.3947  0.1692  1.0012
  685MOL0     O92375   7.974   3.413   6.625  0.0683 -0.1888 -0.2732
  685MOL0     C92376   8.003   3.558   6.609 -0.3201  0.6322  0.0734
  685MOL0     C92377   8.142   3.578   6.649  0.8724  0.2341 -0.3853
  685MOL0     C92378   8.160   3.561   6.808  0.4715  0.1556  0.1226
  685MOL0     C92379   8.274   3.657   6.853 -0.3313  0.7878  0.3848
  685MOL0     C92380   8.418   3.612   6.804 -0.1463 -0.3563  0.3053
  685MOL0     C92381   8.537   3.685   6.847 -0.5147  0.2748 -0.9581
  685MOL0     C92382   8.555   3.830   6.794  0.4033 -0.5499  0.1320
  685MOL0     C92383   8.692   3.886   6.822 -0.1835 -0.4278  0.2389
  685MOL0    Cl92384   8.666   4.071   6.797  0.6235  0.1587 -0.1637
  685MOL0     C92385   7.867   3.294   6.444  0.1482 -0.5281  0.7796
  685MOL0     C92386   7.754   3.264   6.368 -0.3819  0.8116 -0.3162
  685MOL0     O92387   7.551   3.151   6.166 -0.3316  0.2574  0.1944
  685MOL0     C92388   7.274   3.114   6.117  0.9344 -1.2031  0.4394
  685MOL0     C92389   7.139   3.075   6.114  0.4289 -0.3185  0.3509
  685MOL0     N92390   6.457   3.091   5.920 -0.3910  0.3736 -0.3525
  685MOL0     N92391   6.331   3.047   5.905  0.0181  0.8082  0.3058
  685MOL0     C92392   5.849   2.310   5.685 -0.7381  0.3422 -0.0867
  685MOL0     C92393   5.751   2.205   5.687 -0.1473 -0.2924 -0.7923
  685MOL0     C92394   5.527   1.824   5.741  0.6092 -0.3159 -0.3640
  685MOL0     C92395   5.605   1.717   5.790  0.4360 -0.6358  0.0327
  685MOL0     C92396   5.556   1.585   5.780 -0.6679  0.0356  0.9606
  685MOL0     C92397   5.425   1.556   5.743  0.3732  0.6731  0.3392
  685MOL0     O92398   5.372   1.427   5.740 -0.1288  0.4758 -0.3186
  685MOL0     C92399   5.412   1.344   5.849  0.0681  0.3819  0.7339
  685MOL0     C92400   5.339   1.207   5.842 -0.4695 -0.3891  0.1290
  685MOL0     C92401   5.193   1.231   5.829  0.1123  0.4024 -0.6232
  685MOL0     C92402   5.121   1.086   5.837  0.4034 -1.0454  0.4545
  685MOL0     C92403   4.970   1.087   5.828  0.9853 -0.3195 -1.1469
  685MOL0     C92404   4.850   1.082   5.832  0.4194 -0.2782 -0.1271
  685MOL0     C92405   5.348   1.655   5.695  0.4869  0.0198 -0.5372
  685MOL0     C92406   5.388   1.791   5.703  0.5977  0.1020 -0.2978
  685MOL0     C92407   5.289   1.896   5.662  0.2004 -0.3380 -0.1702
  685MOL0     H92408   5.950   1.935   5.675 -0.3643  0.0874 -0.5456
  685MOL0     H92409   6.117   2.114   5.639 -0.2456 -3.4827  0.0280
  685MOL0     H92410   6.245   2.324   5.675 -1.9975 -2.2459  0.9971
  685MOL0     H92411   6.224   2.500   5.682 -1.2338 -0.1357  0.1910
  685MOL0     H92412   6.291   2.370   5.876  0.1731 -0.3172  0.1278
  685MOL0     H92413   6.139   2.309   5.910 -2.2649  1.4286  0.4892
  685MOL0     H92414   6.051   2.566   5.872  0.2677  2.2077 -0.1484
  685MOL0     H92415   6.227   2.593   5.878 -0.1290 -0.6985 -1.6741
  685MOL0     H92416   6.057   2.446   6.092  0.2679 -0.1683 -0.6214
  685MOL0     H92417   6.228   2.495   6.105  0.7599  1.9043  0.9032
  685MOL0     H92418   5.979   2.674   6.091  0.0958 -2.9250  0.6779
  685MOL0     H92419   6.092   2.661   6.226  1.1726 -0.7675 -0.6385
  685MOL0     H92420   6.271   2.769   6.082  1.5118  2.9708 -0.4622
  685MOL0     H92421   6.167   2.812   5.963 -1.7113  2.8994  1.1085
  685MOL0     H92422   6.196   2.958   6.202  1.8249  1.0288 -0.9674
  685MOL0     H92423   6.021   2.922   6.172 -0.1032 -0.5573 -1.7547
  685MOL0     H92424   6.065   3.028   5.940 -1.2438 -0.3727  0.7400
  685MOL0     H92425   6.065   3.126   6.089  2.0656 -1.2516  2.7477
  685MOL0     H92426   6.310   3.221   6.186  0.2520  0.7325  0.0341
  685MOL0     H92427   6.653   3.239   6.025 -0.3907 -0.2621 -0.6036
  685MOL0     H92428   6.548   3.308   6.153 -0.8338 -0.3153 -0.5231
  685MOL0     H92429   6.715   3.180   6.261  0.0595  0.7220  0.1493
  685MOL0     H92430   6.561   3.098   6.284 -0.2694  2.9450  0.5812
  685MOL0     H92431   6.664   2.964   6.054  0.2370  1.7290 -1.1317
  685MOL0     H92432   6.693   2.925   6.235 -2.7743  1.3783 -0.0719
  685MOL0     H92433   6.854   3.117   6.066  0.5966  2.4984  4.6261
  685MOL0     H92434   6.899   2.937   6.069 -2.3969 -1.7719  0.2895
  685MOL0     H92435   7.062   3.154   6.433 -1.7105  1.5047 -1.8289
  685MOL0     H92436   7.284   3.223   6.440  1.0207 -2.4567  1.2872
  685MOL0     H92437   7.524   3.427   6.554 -0.2416 -1.5741  2.2175
  685MOL0     H92438   7.720   3.489   6.676  3.9332 -1.0568  0.3103
  685MOL0     H92439   7.995   3.596   6.507 -0.3337  1.2731  0.3126
  685MOL0     H92440   7.943   3.611   6.683  2.2668  1.4380  1.7638
  685MOL0     H92441   8.201   3.498   6.604 -3.6261 -2.8795 -1.3226
  685MOL0     H92442   8.170   3.682   6.626 -2.7686  0.9119 -2.6686
  685MOL0     H92443   8.066   3.572   6.863 -0.2011  1.8999 -1.2688
  685MOL0     H92444   8.187   3.458   6.833 -2.7385 -0.4570  1.6183
  685MOL0     H92445   8.262   3.670   6.961 -0.7846  2.0545  0.1981
  685MOL0     H92446   8.250   3.758   6.820  1.3194  1.6984  1.7686
  685MOL0     H92447   8.415   3.628   6.696  1.5023 -0.8762  0.1511
  685MOL0     H92448   8.429   3.504   6.820  2.8661 -0.0635  0.7567
  685MOL0     H92449   8.551   3.689   6.955  0.2732  3.3454 -1.0692
  685MOL0     H92450   8.622   3.632   6.802 -1.4412 -1.8433 -0.3112
  685MOL0     H92451   8.486   3.898   6.844  0.7559  0.5054 -0.7679
  685MOL0     H92452   8.537   3.842   6.687  3.3846 -5.5370 -1.2705
  685MOL0     H92453   8.695   3.870   6.930 -1.7142 -0.5581  0.2952
  685MOL0     H92454   8.781   3.844   6.775  1.0342  1.2029  0.9806
  685MOL0     H92455   7.965   3.252   6.423  0.5359  0.9678 -0.5962
  685MOL0     H92456   7.766   3.203   6.279  0.7949  1.6781 -0.7764
  685MOL0     H92457   7.331   3.099   6.026 -0.8229  1.8909 -1.3223
  685MOL0     H92458   7.090   3.024   6.031 -1.0712  1.4305  0.1195
  685MOL0     H92459   5.813   2.411   5.694  2.4823  2.0860 -3.7044
  685MOL0     H92460   5.654   2.247   5.714  0.9487  2.8495 -1.3680
  685MOL0     H92461   5.713   1.718   5.806  0.6646 -2.3053 -1.1055
  685MOL0     H92462   5.626   1.503   5.793  1.5786  1.2463 -2.3437
  685MOL0     H92463   5.383   1.394   5.942 -2.0528  0.7231 -0.0367
  685MOL0     H92464   5.520   1.327   5.849  0.0811  0.3657  1.9891
  685MOL0     H92465   5.369   1.137   5.921  2.6763 -1.0117 -1.4512
  685MOL0     H92466   5.361   1.163   5.744 -1.5301 -0.2912 -0.1630
  685MOL0     H92467   5.171   1.281   5.735 -1.3497  2.4693  0.7581
  685MOL0     H92468   5.153   1.289   5.913 -0.0832 -1.1582  0.4127
  685MOL0     H92469   5.158   1.027   5.753 -0.1725 -0.7286 -0.0331
  685MOL0     H92470   5.149   1.039   5.932  1.3222 -1.9165 -0.2333
  685MOL0     H92471   4.743   1.079   5.837  0.1922  2.4738 -1.8174
  685MOL0     H92472   5.245   1.638   5.664 -0.3889  0.0995  2.1147
  685MOL0     H92473   5.196   1.860   5.617 -0.8917  1.5105  0.4769
  685MOL0     H92474   5.259   1.973   5.734 -0.8245  2.9054 -3.7299
  685MOL0     H92475   5.342   1.942   5.578  0.9383 -1.3076 -0.2516
  686MOL0     O92476   9.183   5.239   8.968  0.1135  0.3265 -0.7175
  686MOL0     C92477   9.079   5.308   8.971  0.0731  0.3830 -0.3569
  686MOL0     O92478   9.072   5.445   8.998 -0.2540 -0.4814 -0.0600
  686MOL0     C92479   9.190   5.514   9.034  0.1851  0.8206  0.3465
  686MOL0     C92480   9.193   5.653   8.998 -0.3618  0.3407  0.3741
  686MOL0     C92481   9.303   5.728   9.028  0.0611 -0.4983 -0.5329
  686MOL0     C92482   9.416   5.676   9.099 -0.0165  0.1868  0.7828
  686MOL0     O92483   9.528   5.749   9.102  0.0126  0.6501 -0.1167
  686MOL0     C92484   9.637   5.689   9.028  0.1385 -0.4865 -0.0715
  686MOL0     C92485   9.759   5.790   9.018 -0.0417  0.9461  0.1707
  686MOL0     C92486   9.855   5.739   8.908  0.1961 -0.5041 -0.4988
  686MOL0     C92487   9.988   5.822   8.901 -0.1317  0.6569 -0.2330
  686MOL0     C92488  10.066   5.786   8.768  0.3835  0.5799 -0.3897
  686MOL0     C92489  10.200   5.874   8.763  0.1165 -0.8964 -0.7264
  686MOL0     C92490  10.259   5.879   8.626  0.4004  0.1398  0.8271
  686MOL0     C92491  10.190   5.951   8.508  0.2593  0.3178  0.7592
  686MOL0     N92492  10.299   5.965   8.411 -0.4100 -0.3437  0.1021
  686MOL0     C92493  10.409   6.051   8.419 -0.5672  0.5412 -0.3235
  686MOL0     C92494  10.487   6.020   8.308  0.0215 -0.5325 -0.2309
  686MOL0     C92495  10.612   6.090   8.273  0.5126  0.0853 -0.3103
  686MOL0     C92496  10.632   6.113   8.127  0.2145  0.3616  0.4196
  686MOL0     C92497  10.750   6.205   8.096 -0.0533  0.4284 -0.0710
  686MOL0     C92498  10.749   6.285   7.964 -0.7918 -0.1639 -0.2676
  686MOL0     O92499  10.877   6.354   7.956 -0.3036 -0.7734 -0.4842
  686MOL0     C92500  10.888   6.438   7.843  0.1662 -0.4438  0.1247
  686MOL0     C92501  11.015   6.479   7.822 -0.4624  0.0487 -0.2115
  686MOL0     C92502  11.046   6.541   7.704 -0.2250 -0.4429  1.2519
  686MOL0     C92503  10.950   6.576   7.608  0.8550 -0.5195  0.8329
  686MOL0     C92504  10.986   6.657   7.494 -0.1618 -0.5577 -0.3016
  686MOL0     O92505  10.896   6.750   7.442  0.4576 -0.2656 -0.8153
  686MOL0     C92506  10.928   6.836   7.341 -0.4904  0.5381  0.2756
  686MOL0     C92507  11.052   6.878   7.292  0.9834  0.5388 -0.4002
  686MOL0     C92508  11.065   6.961   7.183  0.7973 -0.6098  0.2637
  686MOL0     C92509  10.947   6.997   7.123 -0.0934  0.5100  0.6159
  686MOL0     O92510  10.951   7.075   7.008 -0.2871  0.5152  0.4215
  686MOL0     C92511  11.072   7.132   6.951  0.5732 -0.2179 -0.7642
  686MOL0     C92512  11.059   7.203   6.816  0.6144  0.2812  0.2241
  686MOL0     C92513  11.181   7.282   6.756  0.6554 -0.1539  0.2651
  686MOL0     C92514  11.151   7.329   6.603 -0.5043  0.4778  0.1146
  686MOL0     C92515  11.279   7.383   6.549  0.1160 -0.0898 -0.1497
  686MOL0     C92516  11.388   7.283   6.518  0.5872  0.9362  0.2851
  686MOL0     C92517  11.504   7.349   6.442  0.5557  0.6107 -0.0043
  686MOL0     C92518  11.618   7.250   6.407  0.4610 -0.2414 -0.6004
  686MOL0    Cl92519  11.697   7.202   6.573  0.3272  0.4826 -0.0746
  686MOL0     C92520  10.824   6.948   7.155  0.5243 -0.4687  0.3170
  686MOL0     C92521  10.817   6.871   7.268  0.2292 -0.4160 -1.0600
  686MOL0     O92522  11.103   6.650   7.460  0.3948 -0.2649  0.7875
  686MOL0     C92523  10.815   6.539   7.634 -0.6566  0.2371 -0.1540
  686MOL0     C92524  10.782   6.468   7.752  0.1967  0.3236 -1.5036
  686MOL0     N92525  10.420   5.916   8.249  0.5580  0.0416 -0.0845
  686MOL0     N92526  10.323   5.872   8.312  0.3331 -0.1492 -0.2989
  686MOL0     C92527   9.410   5.540   9.136 -0.8206  0.4784 -0.1689
  686MOL0     C92528   9.296   5.462   9.108 -0.3120  0.6235 -0.7703
  686MOL0     C92529   8.942   5.243   8.954 -0.5775 -0.0701 -0.2512
  686MOL0     C92530   8.832   5.332   8.963  0.1248  0.1236 -0.3247
  686MOL0     C92531   8.707   5.292   8.951 -0.0606 -0.1841 -0.6661
  686MOL0     C92532   8.682   5.164   8.922  0.6284  0.3194  0.2618
  686MOL0     O92533   8.548   5.128   8.903  0.1254  0.0199 -0.2209
  686MOL0     C92534   8.516   4.989   8.878  0.3709  0.0849  0.7852
  686MOL0     C92535   8.368   4.995   8.838 -0.6008  0.1435 -0.0436
  686MOL0     C92536   8.281   4.866   8.844  0.3705 -0.4918 -0.6219
  686MOL0     C92537   8.308   4.764   8.732 -0.0928 -0.4543 -0.1370
  686MOL0     C92538   8.238   4.630   8.759  0.1045  0.0733  0.4286
  686MOL0     C92539   8.159   4.536   8.765  0.0430 -0.1215  0.6431
  686MOL0     C92540   8.787   5.068   8.909 -0.1228  0.2448  0.4259
  686MOL0     C92541   8.916   5.108   8.921 -0.5287 -0.6716  0.2550
  686MOL0     C92542   9.018   4.999   8.901 -0.1647 -0.5868  0.6426
  686MOL0     H92543   9.107   5.699   8.951 -1.5102  0.8655  2.8422
  686MOL0     H92544   9.311   5.833   9.003  2.1584 -0.8859 -1.7397
  686MOL0     H92545   9.684   5.605   9.080  1.6580 -1.2351 -2.5164
  686MOL0     H92546   9.601   5.653   8.932 -0.6788 -1.7691  0.6812
  686MOL0     H92547   9.804   5.786   9.118  0.0526 -2.3345  0.1152
  686MOL0     H92548   9.728   5.893   8.998  0.3140  1.0338  0.0721
  686MOL0     H92549   9.820   5.748   8.805  2.4442 -1.5282 -1.4363
  686MOL0     H92550   9.887   5.637   8.931  2.4033  0.0607 -0.7632
  686MOL0     H92551   9.973   5.930   8.907 -4.2536  0.1375  2.3177
  686MOL0     H92552  10.065   5.809   8.978  1.5972  0.4187 -1.9040
  686MOL0     H92553  10.088   5.679   8.772  0.8819  0.6381 -1.3098
  686MOL0     H92554  10.007   5.809   8.679 -0.3436 -1.1482 -0.3922
  686MOL0     H92555  10.186   5.977   8.798 -0.2726 -1.5482  1.1732
  686MOL0     H92556  10.263   5.818   8.832 -0.4403 -2.5101 -1.4713
  686MOL0     H92557  10.269   5.772   8.607  0.0301  0.4266 -1.1905
  686MOL0     H92558  10.362   5.914   8.623 -0.3063  2.3062  0.4083
  686MOL0     H92559  10.118   5.883   8.462 -1.6829  1.5961  1.7957
  686MOL0     H92560  10.150   6.050   8.528  0.2665  0.2560  1.0876
  686MOL0     H92561  10.427   6.117   8.504 -3.1319  0.6458  0.2300
  686MOL0     H92562  10.612   6.191   8.313 -0.0247  0.7114 -1.7975
  686MOL0     H92563  10.693   6.031   8.317 -0.0266  0.4409  1.2047
  686MOL0     H92564  10.661   6.017   8.082 -0.4517 -1.3585  3.4228
  686MOL0     H92565  10.542   6.148   8.077  0.8135  2.8788  0.9694
  686MOL0     H92566  10.842   6.146   8.100 -0.4953 -0.2361  0.6777
  686MOL0     H92567  10.758   6.279   8.176 -3.2865 -0.2164  1.0098
  686MOL0     H92568  10.678   6.366   7.985  0.1939  0.5936  0.2703
  686MOL0     H92569  10.713   6.225   7.881 -1.8062  0.1840 -0.0952
  686MOL0     H92570  11.086   6.459   7.903 -2.1073 -1.6244  0.8952
  686MOL0     H92571  11.148   6.572   7.684 -1.1164  1.2257 -1.3471
  686MOL0     H92572  11.146   6.851   7.340  0.0961 -3.0837 -0.4000
  686MOL0     H92573  11.156   7.016   7.161 -0.1408  1.8013  1.9652
  686MOL0     H92574  11.105   7.206   7.024  1.3980 -1.4448  0.1420
  686MOL0     H92575  11.159   7.066   6.952  0.1590 -0.7814  0.3780
  686MOL0     H92576  11.037   7.129   6.738  0.4136  1.8518 -1.2664
  686MOL0     H92577  10.968   7.263   6.822 -2.2554 -3.7913  2.7251
  686MOL0     H92578  11.202   7.359   6.831 -0.6448 -0.6824  1.2159
  686MOL0     H92579  11.261   7.209   6.742 -2.5283 -3.3833 -3.8403
  686MOL0     H92580  11.075   7.407   6.598  0.8156  1.8315  0.1969
  686MOL0     H92581  11.128   7.235   6.553 -1.5539 -0.5635  2.4104
  686MOL0     H92582  11.319   7.440   6.633  1.0529 -0.0845 -0.5947
  686MOL0     H92583  11.256   7.443   6.460  1.9234 -1.2561 -1.4526
  686MOL0     H92584  11.421   7.225   6.604 -2.1792  0.7426  1.3118
  686MOL0     H92585  11.333   7.216   6.450  2.2963 -0.9905  0.7187
  686MOL0     H92586  11.544   7.433   6.501  1.5870 -0.4083  0.8003
  686MOL0     H92587  11.464   7.388   6.348  0.5284 -0.2108 -0.3437
  686MOL0     H92588  11.578   7.160   6.360  1.5925 -1.3545  0.4783
  686MOL0     H92589  11.697   7.293   6.345  0.8430 -0.7465 -0.4681
  686MOL0     H92590  10.733   6.974   7.101  0.8808 -0.5657 -0.3386
  686MOL0     H92591  10.721   6.839   7.306 -0.2014  1.9513  0.0620
  686MOL0     H92592  10.737   6.557   7.560 -0.6313  1.8869  0.1830
  686MOL0     H92593  10.679   6.443   7.773  0.0950  0.0330 -2.3116
  686MOL0     H92594   9.486   5.493   9.198 -0.1819  1.5558 -0.1135
  686MOL0     H92595   9.294   5.358   9.141 -2.2039  0.8618 -0.0217
  686MOL0     H92596   8.836   5.438   8.985 -0.0121 -0.5616  3.8710
  686MOL0     H92597   8.635   5.372   8.967  0.1824 -0.1864  0.5791
  686MOL0     H92598   8.543   4.922   8.960  2.5119 -0.2229 -0.1027
  686MOL0     H92599   8.575   4.950   8.794 -0.4313 -2.3509  1.2799
  686MOL0     H92600   8.352   5.044   8.742  1.0560  0.0579 -0.3956
  686MOL0     H92601   8.340   5.068   8.915  2.9952  1.1740  0.4840
  686MOL0     H92602   8.177   4.901   8.842  0.6429  0.5478  1.0761
  686MOL0     H92603   8.288   4.811   8.939  2.1828  1.3533  0.3819
  686MOL0     H92604   8.259   4.800   8.642 -2.3154  0.3339  1.2978
  686MOL0     H92605   8.415   4.751   8.713  0.3006  1.4817  0.5052
  686MOL0     H92606   8.097   4.448   8.763 -1.2441  0.7438  1.2120
  686MOL0     H92607   8.765   4.962   8.897  2.2755 -0.4046  1.2867
  686MOL0     H92608   8.964   4.907   8.877 -1.4392  0.8748 -2.9614
  686MOL0     H92609   9.075   5.029   8.813  0.5210 -2.5269  0.3948
  686MOL0     H92610   9.074   4.995   8.994 -0.9715  1.3298  1.2741
  687MOL0     O92611   9.581   4.327   3.041  0.2500  0.0961 -0.0745
  687MOL0     C92612   9.576   4.449   3.011  0.1068  1.6218 -0.8004
  687MOL0     O92613   9.609   4.503   2.884 -0.1027 -0.0448 -0.1177
  687MOL0     C92614   9.664   4.430   2.779 -0.2155 -0.8423  0.1283
  687MOL0     C92615   9.770   4.343   2.794  0.0280 -0.5488 -0.0403
  687MOL0     C92616   9.825   4.279   2.690  0.8361 -0.4467  0.1457
  687MOL0     C92617   9.783   4.305   2.558  0.4788 -0.5262 -0.2233
  687MOL0     O92618   9.855   4.251   2.453  0.3120  0.1957  0.3835
  687MOL0     C92619   9.810   4.120   2.424 -0.2495 -0.3591 -0.4112
  687MOL0     C92620   9.911   4.066   2.331 -0.1637 -0.8978  0.1094
  687MOL0     C92621   9.862   3.953   2.240  0.0482  0.4151  0.6116
  687MOL0     C92622   9.965   3.882   2.151 -0.3370  1.3341  0.6356
  687MOL0     C92623   9.889   3.764   2.080  0.6236 -0.6871  0.5064
  687MOL0     C92624   9.865   3.644   2.173 -0.5465  0.4113 -0.6076
  687MOL0     C92625   9.721   3.595   2.164 -0.1576 -0.3546 -0.1679
  687MOL0     C92626   9.708   3.450   2.202 -0.0769  0.9031 -0.0258
  687MOL0     N92627   9.609   3.378   2.124  0.0339  1.1678 -0.1246
  687MOL0     C92628   9.469   3.395   2.116 -0.6816  0.0053  0.9405
  687MOL0     C92629   9.432   3.326   2.010  0.2641  0.2982  0.4416
  687MOL0     C92630   9.287   3.324   1.962  0.5936 -0.5122 -0.7359
  687MOL0     C92631   9.193   3.212   2.020 -0.4855 -0.5425  0.1260
  687MOL0     C92632   9.045   3.233   2.016 -0.7248  0.4676  1.2572
  687MOL0     C92633   8.985   3.255   1.870  0.0427 -0.9185  0.3634
  687MOL0     O92634   8.951   3.131   1.802 -0.2200 -0.8443 -0.4883
  687MOL0     C92635   8.865   3.132   1.701  0.0786 -0.3245  1.2541
  687MOL0     C92636   8.856   3.239   1.612 -0.2567  0.5408 -0.0271
  687MOL0     C92637   8.761   3.234   1.516 -0.3685  0.0733 -0.3344
  687MOL0     C92638   8.678   3.113   1.495 -0.4852  0.1449  0.9087
  687MOL0     C92639   8.564   3.112   1.402 -0.0931 -0.3237  0.0986
  687MOL0     O92640   8.461   3.030   1.428 -0.3071 -0.1397  0.6621
  687MOL0     C92641   8.337   3.048   1.367  0.0064 -0.3892 -0.3481
  687MOL0     C92642   8.256   2.942   1.343 -0.6960  0.2443  0.4049
  687MOL0     C92643   8.123   2.960   1.311  0.6796 -0.0542 -0.6778
  687MOL0     C92644   8.071   3.091   1.279  0.5268 -0.0927 -0.6826
  687MOL0     O92645   7.937   3.103   1.260 -0.8836  0.6834  0.4846
  687MOL0     C92646   7.873   3.218   1.200 -0.5964 -0.0700  0.0785
  687MOL0     C92647   7.728   3.190   1.185 -0.2188 -0.4516 -0.4493
  687MOL0     C92648   7.657   3.322   1.186  1.2340  1.3554  0.0298
  687MOL0     C92649   7.528   3.331   1.265  0.2038 -0.0512 -0.1289
  687MOL0     C92650   7.462   3.473   1.277  0.2730  0.1178 -0.5653
  687MOL0     C92651   7.440   3.538   1.139  0.4131  0.5979 -0.1108
  687MOL0     C92652   7.352   3.454   1.039 -0.1903  0.3957 -0.6727
  687MOL0     C92653   7.313   3.525   0.915  0.2987 -0.1239  0.7174
  687MOL0    Cl92654   7.451   3.499   0.802 -0.1087 -0.1502  0.0603
  687MOL0     C92655   8.149   3.200   1.303  0.4339  0.3238  0.0047
  687MOL0     C92656   8.279   3.180   1.361 -0.0816 -1.0194 -1.0124
  687MOL0     O92657   8.576   3.188   1.308  0.0212  0.3508  0.5164
  687MOL0     C92658   8.690   3.013   1.588 -0.2529  0.4731 -0.2054
  687MOL0     C92659   8.788   3.020   1.691  0.4258  0.2766  0.0463
  687MOL0     N92660   9.544   3.263   1.956  0.1806 -0.0332 -0.4760
  687MOL0     N92661   9.647   3.279   2.033  0.2069  0.6592 -0.2425
  687MOL0     C92662   9.685   4.403   2.540  0.6363 -0.1754 -0.4542
  687MOL0     C92663   9.624   4.469   2.645  0.2093 -0.1439 -0.1260
  687MOL0     C92664   9.491   4.537   3.102 -0.3443 -0.4870 -0.2636
  687MOL0     C92665   9.558   4.631   3.174 -0.2055 -0.5780  0.0305
  687MOL0     C92666   9.486   4.717   3.260 -0.1803  0.0594 -0.6658
  687MOL0     C92667   9.345   4.714   3.263  0.4065  0.2255 -0.1653
  687MOL0     O92668   9.271   4.791   3.348 -1.1927 -0.2185 -0.1431
  687MOL0     C92669   9.330   4.831   3.470  0.6755  0.0136  0.2234
  687MOL0     C92670   9.338   4.710   3.557  0.4472 -0.4134  0.1564
  687MOL0     C92671   9.191   4.652   3.583 -0.5299 -0.7328 -0.6835
  687MOL0     C92672   9.127   4.728   3.701 -0.0077 -0.6372  0.4067
  687MOL0     C92673   8.993   4.688   3.734 -0.4822  0.1931 -0.0596
  687MOL0     C92674   8.888   4.643   3.739  0.1420 -0.7147  0.1346
  687MOL0     C92675   9.273   4.620   3.188  0.1801 -0.1627  0.3242
  687MOL0     C92676   9.344   4.534   3.103 -1.3212 -0.3662  0.2966
  687MOL0     C92677   9.271   4.440   3.013 -0.0085  0.0751 -0.1277
  687MOL0     H92678   9.809   4.318   2.893 -0.1911 -1.4732 -0.1808
  687MOL0     H92679   9.904   4.206   2.706 -0.2642 -1.6073  0.4562
  687MOL0     H92680   9.797   4.048   2.505  1.2964  0.1326  0.3031
  687MOL0     H92681   9.714   4.125   2.370 -0.2196  1.9477 -0.3588
  687MOL0     H92682   9.997   4.047   2.396 -0.8646 -1.3658  0.9130
  687MOL0     H92683   9.946   4.144   2.263 -3.0656  0.3346 -0.1185
  687MOL0     H92684   9.774   3.983   2.182  0.7521  0.2472 -0.5971
  687MOL0     H92685   9.817   3.879   2.305  0.7525  0.0815  0.7344
  687MOL0     H92686  10.006   3.958   2.084  1.8902 -0.2148  0.1158
  687MOL0     H92687  10.053   3.854   2.209  0.2497  2.5586  0.3696
  687MOL0     H92688   9.798   3.808   2.037  1.0016 -1.0919 -0.7757
  687MOL0     H92689   9.953   3.730   1.997 -2.0705 -2.1478 -1.1264
  687MOL0     H92690   9.933   3.565   2.142 -0.1617 -1.0494  3.3674
  687MOL0     H92691   9.889   3.673   2.276 -0.4757 -2.0156  0.1067
  687MOL0     H92692   9.680   3.614   2.064  0.4287  2.4116  0.0324
  687MOL0     H92693   9.666   3.653   2.239 -2.4667 -2.6156  0.0083
  687MOL0     H92694   9.809   3.417   2.178  0.1960  1.7862 -0.1357
  687MOL0     H92695   9.690   3.442   2.309  2.0361  2.3810  0.5074
  687MOL0     H92696   9.407   3.454   2.183 -2.0665 -3.2794  2.8291
  687MOL0     H92697   9.243   3.422   1.982 -0.3461 -1.0304 -0.2246
  687MOL0     H92698   9.288   3.318   1.853  3.6436 -0.9569 -0.7810
  687MOL0     H92699   9.216   3.116   1.971  0.8128  0.6927 -1.8083
  687MOL0     H92700   9.210   3.195   2.127 -1.6302  1.6053  0.7066
  687MOL0     H92701   9.021   3.321   2.077  0.4337  0.5367  1.6341
  687MOL0     H92702   8.996   3.144   2.056  1.7799 -2.0019 -0.8173
  687MOL0     H92703   9.068   3.298   1.815  2.3724 -2.8787  2.1306
  687MOL0     H92704   8.892   3.311   1.882 -0.7923 -1.9596 -0.9568
  687MOL0     H92705   8.904   3.336   1.616  1.1065 -0.0253 -1.4621
  687MOL0     H92706   8.754   3.316   1.446  0.0994  2.9522  2.7358
  687MOL0     H92707   8.282   2.839   1.368  0.2194  0.7585  1.6769
  687MOL0     H92708   8.056   2.877   1.331  0.6116  0.1398 -0.0693
  687MOL0     H92709   7.896   3.312   1.251 -0.1484  0.4383 -1.0150
  687MOL0     H92710   7.922   3.225   1.102 -1.6964 -0.9954 -0.5556
  687MOL0     H92711   7.707   3.127   1.098 -1.6143  0.5177 -0.8444
  687MOL0     H92712   7.691   3.138   1.273 -0.1255  0.8752  0.4127
  687MOL0     H92713   7.722   3.403   1.220 -0.3287  1.0859  4.2886
  687MOL0     H92714   7.627   3.345   1.083 -0.1531 -1.1756 -0.2065
  687MOL0     H92715   7.556   3.300   1.366  0.0887 -1.5751 -0.5357
  687MOL0     H92716   7.450   3.261   1.230 -2.0731  3.7400 -3.5380
  687MOL0     H92717   7.529   3.529   1.343 -0.8247  2.3921 -1.2894
  687MOL0     H92718   7.368   3.457   1.330  0.9163  2.4389  1.4300
  687MOL0     H92719   7.380   3.629   1.151 -0.8259  0.0591 -1.8960
  687MOL0     H92720   7.533   3.565   1.088 -1.0189  3.5516 -1.4248
  687MOL0     H92721   7.254   3.457   1.088 -0.1280  2.1264 -0.5904
  687MOL0     H92722   7.384   3.351   1.020 -0.0881 -0.0086  1.4301
  687MOL0     H92723   7.216   3.483   0.886 -0.1040 -0.2333  2.1315
  687MOL0     H92724   7.299   3.632   0.929  2.1650  0.0399  1.7163
  687MOL0     H92725   8.104   3.298   1.293 -1.8072 -0.8189 -2.1333
  687MOL0     H92726   8.345   3.260   1.394 -1.9306 -0.3742  1.4013
  687MOL0     H92727   8.644   2.915   1.583  4.3189 -1.9488 -0.4985
  687MOL0     H92728   8.805   2.934   1.755  1.7880 -1.8484 -2.9693
  687MOL0     H92729   9.656   4.419   2.436  2.3345  1.0460 -0.7709
  687MOL0     H92730   9.544   4.543   2.644 -0.0712 -0.4497 -0.7452
  687MOL0     H92731   9.666   4.643   3.166 -0.1624  1.6621  2.6364
  687MOL0     H92732   9.555   4.785   3.308  1.0690 -1.4988 -0.1477
  687MOL0     H92733   9.247   4.888   3.514  0.7665 -0.5812  1.1979
  687MOL0     H92734   9.419   4.893   3.460  1.2372 -0.4780  1.8051
  687MOL0     H92735   9.381   4.742   3.653 -0.6946  0.3190  0.4371
  687MOL0     H92736   9.407   4.640   3.507  1.3413  0.3802  0.2450
  687MOL0     H92737   9.192   4.545   3.604  0.4358 -0.5210  0.4783
  687MOL0     H92738   9.137   4.665   3.489 -0.6357  1.7054 -0.3613
  687MOL0     H92739   9.184   4.725   3.795 -0.9476 -1.2277  0.9797
  687MOL0     H92740   9.115   4.835   3.682 -0.3336 -0.5973  0.8119
  687MOL0     H92741   8.783   4.625   3.729  0.2435 -0.6523 -1.1914
  687MOL0     H92742   9.166   4.608   3.198  0.1355  0.1535  0.2487
  687MOL0     H92743   9.215   4.371   3.077 -0.9353  2.1387  1.4021
  687MOL0     H92744   9.190   4.490   2.959  0.4369  0.6343 -0.2869
  687MOL0     H92745   9.327   4.378   2.943 -1.2905 -0.0727 -1.0642
  688MOL0     O92746   8.957   2.634   3.623  1.0180 -0.2282 -0.0450
  688MOL0     C92747   8.903   2.544   3.690  1.1070  0.7111  0.7808
  688MOL0     O92748   8.970   2.431   3.723 -0.1744 -0.1043  0.2845
  688MOL0     C92749   9.108   2.431   3.706  0.4589 -0.1377 -0.6288
  688MOL0     C92750   9.186   2.469   3.817 -0.1712  0.2492 -0.2839
  688MOL0     C92751   9.324   2.472   3.807 -0.4754  0.3965 -0.4838
  688MOL0     C92752   9.389   2.454   3.684  0.6281  0.1395 -1.1150
  688MOL0     O92753   9.523   2.472   3.672  0.7796  0.5347 -0.7100
  688MOL0     C92754   9.592   2.445   3.558  0.0339 -0.0174 -0.5306
  688MOL0     C92755   9.617   2.300   3.536 -0.5286  0.1841 -0.3841
  688MOL0     C92756   9.731   2.246   3.631  0.1825 -0.0712 -0.9907
  688MOL0     C92757   9.866   2.289   3.571 -0.4887  0.2905 -0.2522
  688MOL0     C92758   9.891   2.227   3.430  0.5520 -0.4939 -0.7715
  688MOL0     C92759  10.033   2.235   3.388  0.0142 -0.0798  0.3324
  688MOL0     C92760  10.056   2.159   3.255  0.0847  0.0389 -0.1277
  688MOL0     C92761  10.060   2.005   3.249 -0.4515 -0.2900 -0.3326
  688MOL0     N92762  10.199   1.950   3.284  0.6499  0.6137 -0.5263
  688MOL0     C92763  10.276   1.884   3.189 -0.0324 -0.4099 -0.5157
  688MOL0     C92764  10.402   1.900   3.239  0.5907 -0.0886  0.8572
  688MOL0     C92765  10.522   1.829   3.190  0.0856 -0.1217  0.2000
  688MOL0     C92766  10.640   1.921   3.144  0.3258  0.9620  0.2296
  688MOL0     C92767  10.781   1.837   3.145  0.5715 -0.5019 -0.5012
  688MOL0     C92768  10.795   1.716   3.053  0.0528  0.2556 -0.3745
  688MOL0     O92769  10.777   1.764   2.920  0.1656  0.0905 -0.3886
  688MOL0     C92770  10.796   1.677   2.815  0.2251 -0.1431 -0.1893
  688MOL0     C92771  10.894   1.576   2.810 -0.0404 -0.4267 -0.1806
  688MOL0     C92772  10.908   1.501   2.695 -0.0241 -0.4579  0.1395
  688MOL0     C92773  10.817   1.520   2.584 -0.4550  1.2483 -0.4028
  688MOL0     C92774  10.825   1.439   2.461  0.2109  0.7733 -0.1627
  688MOL0     O92775  10.732   1.465   2.367  0.6799  1.6301 -0.8520
  688MOL0     C92776  10.754   1.403   2.243 -0.4134 -0.3542  0.4813
  688MOL0     C92777  10.693   1.284   2.204  0.0545 -0.6509 -0.8689
  688MOL0     C92778  10.713   1.224   2.084 -0.2198 -0.4389  0.4637
  688MOL0     C92779  10.810   1.285   2.004  0.1662 -1.0024 -0.3447
  688MOL0     O92780  10.826   1.219   1.892 -0.4885 -1.2347  0.7220
  688MOL0     C92781  10.969   1.192   1.874 -0.8720 -1.1071 -1.1309
  688MOL0     C92782  10.998   1.046   1.889 -1.3123  0.0305 -0.6178
  688MOL0     C92783  10.992   0.981   2.030  0.0297  0.4575 -0.0317
  688MOL0     C92784  11.070   1.064   2.139 -0.0642 -0.9837  0.0880
  688MOL0     C92785  11.086   0.984   2.271 -0.8796 -0.7724 -0.2207
  688MOL0     C92786  11.186   1.068   2.351 -0.1419  0.7231  0.3560
  688MOL0     C92787  11.272   0.958   2.433 -0.0938  0.0516  0.2696
  688MOL0     C92788  11.381   1.015   2.524 -0.4591  0.0707  0.2567
  688MOL0    Cl92789  11.517   1.061   2.417 -0.1827  0.5919 -0.0459
  688MOL0     C92790  10.863   1.413   2.022  0.7723  0.6585 -0.1348
  688MOL0     C92791  10.827   1.478   2.140  0.3230 -0.9333 -0.1667
  688MOL0     O92792  10.922   1.359   2.453 -0.2695 -0.0263  0.0703
  688MOL0     C92793  10.717   1.609   2.596 -0.1462 -0.3669 -1.6227
  688MOL0     C92794  10.706   1.693   2.712  0.2110  1.2968 -0.8939
  688MOL0     N92795  10.395   1.983   3.350  0.5841 -0.5522 -0.2830
  688MOL0     N92796  10.273   1.997   3.391 -0.2016 -0.1699  1.2483
  688MOL0     C92797   9.312   2.417   3.572  0.2254  0.8498  0.0049
  688MOL0     C92798   9.173   2.399   3.589  0.0335 -1.2768  0.3454
  688MOL0     C92799   8.756   2.539   3.711  0.5955  0.9273  0.6211
  688MOL0     C92800   8.687   2.414   3.746 -0.4241 -0.1017 -0.6956
  688MOL0     C92801   8.548   2.398   3.778 -0.6570 -0.3854  0.7189
  688MOL0     C92802   8.467   2.510   3.758 -0.1217  0.1835 -1.0610
  688MOL0     O92803   8.332   2.491   3.777  0.1762  1.0264 -0.6608
  688MOL0     C92804   8.268   2.572   3.878 -0.6557  0.5948 -0.6499
  688MOL0     C92805   8.168   2.688   3.830  0.1506 -1.0722  0.0690
  688MOL0     C92806   8.051   2.631   3.754  0.5510 -0.2782  0.1422
  688MOL0     C92807   7.959   2.746   3.718  0.7349 -0.8095  1.1617
  688MOL0     C92808   7.833   2.695   3.654  0.6253  0.2874  0.8668
  688MOL0     C92809   7.730   2.662   3.592 -0.8626 -0.0447 -0.0639
  688MOL0     C92810   8.529   2.628   3.726  0.5886  0.5378 -1.0986
  688MOL0     C92811   8.665   2.652   3.703  0.0210 -0.8617  1.1749
  688MOL0     C92812   8.705   2.794   3.663 -0.2261 -0.0418  0.6904
  688MOL0     H92813   9.141   2.499   3.911 -1.1741 -2.7962  0.3185
  688MOL0     H92814   9.378   2.496   3.898 -1.1069  1.6145 -0.3995
  688MOL0     H92815   9.544   2.496   3.474  0.9921  0.0311 -1.0517
  688MOL0     H92816   9.687   2.498   3.569 -0.2093  0.3593 -0.2188
  688MOL0     H92817   9.647   2.260   3.439  0.4593 -1.7844  0.6565
  688MOL0     H92818   9.519   2.258   3.560 -2.8254  4.6597 -0.8687
  688MOL0     H92819   9.729   2.137   3.622  0.9846 -0.0444 -1.4725
  688MOL0     H92820   9.712   2.281   3.733  2.8081 -1.2052 -0.0230
  688MOL0     H92821   9.877   2.398   3.570  3.8806  0.0163 -0.7275
  688MOL0     H92822   9.946   2.258   3.639 -0.6381  1.4196  0.4627
  688MOL0     H92823   9.854   2.124   3.419  0.2097 -0.3493 -0.9804
  688MOL0     H92824   9.827   2.280   3.360 -2.3133 -2.3952  0.2214
  688MOL0     H92825  10.048   2.341   3.367  0.8101  0.0424  1.4857
  688MOL0     H92826  10.099   2.193   3.464  1.0762 -0.1284 -0.5989
  688MOL0     H92827  10.144   2.196   3.203  0.3433 -1.0883 -0.5262
  688MOL0     H92828   9.970   2.198   3.200  0.2656 -0.0255 -0.4601
  688MOL0     H92829  10.000   1.962   3.330  1.4113 -1.7423  0.3272
  688MOL0     H92830  10.022   1.975   3.151 -0.5668 -0.5268 -0.2181
  688MOL0     H92831  10.237   1.820   3.111 -1.5737  2.3011 -2.1294
  688MOL0     H92832  10.546   1.758   3.269  1.7267 -0.8248 -0.8822
  688MOL0     H92833  10.488   1.773   3.102  2.0909 -2.6916  0.9292
  688MOL0     H92834  10.624   1.950   3.040  1.7657 -1.6055 -0.8065
  688MOL0     H92835  10.641   2.006   3.212  2.9299  2.3252 -1.3775
  688MOL0     H92836  10.797   1.809   3.250 -0.5185  0.3061 -0.0990
  688MOL0     H92837  10.860   1.905   3.112  0.1970  0.2809  0.1736
  688MOL0     H92838  10.727   1.637   3.087  0.1275  0.2499 -0.2352
  688MOL0     H92839  10.892   1.669   3.072 -0.9922 -1.5679  0.6707
  688MOL0     H92840  10.949   1.560   2.902  0.6590 -0.0106 -0.5153
  688MOL0     H92841  10.978   1.419   2.680 -3.2452 -3.2024 -0.9858
  688MOL0     H92842  10.628   1.234   2.275 -0.6105 -2.6041 -2.7130
  688MOL0     H92843  10.665   1.133   2.052  1.0748 -2.2280  3.2496
  688MOL0     H92844  10.984   1.228   1.772 -4.7441  2.3911 -0.7283
  688MOL0     H92845  11.041   1.251   1.932 -0.7155 -0.8244 -1.6075
  688MOL0     H92846  10.940   0.997   1.810 -0.9579  1.0220 -1.5034
  688MOL0     H92847  11.101   1.034   1.852 -0.7623  0.0576  0.8263
  688MOL0     H92848  10.886   0.973   2.055 -0.1719  3.6579  0.6529
  688MOL0     H92849  11.035   0.881   2.024 -0.0547  0.4797 -1.1937
  688MOL0     H92850  11.020   1.161   2.144  1.5531  0.0561 -2.0721
  688MOL0     H92851  11.167   1.083   2.091  1.6736 -1.1835  3.2306
  688MOL0     H92852  11.122   0.885   2.243  0.6158 -0.5428  0.7767
  688MOL0     H92853  10.991   0.976   2.325  0.5616 -3.2851  2.2605
  688MOL0     H92854  11.245   1.139   2.292 -2.4561  3.0754  0.7348
  688MOL0     H92855  11.136   1.141   2.415  0.5143 -0.1348  1.9143
  688MOL0     H92856  11.322   0.882   2.371  1.2364  0.0879  1.2634
  688MOL0     H92857  11.211   0.910   2.510  1.9931  0.4997  2.2772
  688MOL0     H92858  11.348   1.105   2.578  1.8730  3.0415 -2.7993
  688MOL0     H92859  11.411   0.940   2.597 -2.6851 -3.3185 -1.9715
  688MOL0     H92860  10.918   1.460   1.941  3.9289  1.5885  2.3252
  688MOL0     H92861  10.859   1.581   2.152  1.6307 -0.9927 -2.6392
  688MOL0     H92862  10.646   1.622   2.515 -1.3469  0.9548 -0.4272
  688MOL0     H92863  10.627   1.766   2.725  0.2643  0.9940  1.6717
  688MOL0     H92864   9.357   2.393   3.476 -0.5957 -1.4862  0.1409
  688MOL0     H92865   9.109   2.374   3.505  1.2634  0.2625 -1.1229
  688MOL0     H92866   8.753   2.331   3.768 -0.1651  0.7430  2.1295
  688MOL0     H92867   8.506   2.302   3.807 -2.0414 -0.3665 -1.0228
  688MOL0     H92868   8.354   2.608   3.935  1.7858 -1.9588 -2.4324
  688MOL0     H92869   8.202   2.504   3.933 -2.5117  1.0131 -2.2553
  688MOL0     H92870   8.228   2.761   3.774  1.1106 -0.6799  1.5343
  688MOL0     H92871   8.129   2.739   3.918 -0.5759 -0.0171 -0.8467
  688MOL0     H92872   7.997   2.555   3.812  0.1651  1.3069  1.9832
  688MOL0     H92873   8.085   2.597   3.656 -0.6415  1.3507 -0.8866
  688MOL0     H92874   7.928   2.813   3.799 -0.9370 -0.3844  0.2245
  688MOL0     H92875   8.021   2.800   3.646  0.8777 -0.7206  1.3494
  688MOL0     H92876   7.640   2.632   3.544 -0.7791  1.3582 -1.1603
  688MOL0     H92877   8.460   2.712   3.722 -2.2016 -1.3261  2.4332
  688MOL0     H92878   8.633   2.871   3.693 -0.8476 -1.3328  2.7559
  688MOL0     H92879   8.796   2.818   3.720  0.6735  0.5036 -0.9258
  688MOL0     H92880   8.720   2.809   3.556 -0.9678 -2.4058  0.2073
  689MOL0     O92881   0.142   0.389   3.540 -1.2877  0.2301  0.3919
  689MOL0     C92882   0.096   0.343   3.436  1.4060 -0.1250 -0.5332
  689MOL0     O92883   0.162   0.259   3.352 -0.4108 -0.0464 -0.2960
  689MOL0     C92884   0.281   0.205   3.400 -0.0825 -0.2264 -0.1763
  689MOL0     C92885   0.382   0.272   3.469 -0.0811 -0.1119 -0.6488
  689MOL0     C92886   0.503   0.211   3.489  0.0802  0.4706 -0.1660
  689MOL0     C92887   0.520   0.071   3.469 -0.1706  0.2417  0.7332
  689MOL0     O92888   0.645   0.002   3.491 -0.2131  0.1882  0.6955
  689MOL0     C92889   0.758   0.056   3.558 -0.5349 -0.8171  0.2628
  689MOL0     C92890   0.856  -0.054   3.553  0.4659  0.4366 -0.3845
  689MOL0     C92891   0.952  -0.032   3.670  0.4174  0.3607 -0.6526
  689MOL0     C92892   1.046   0.083   3.661  0.0014 -0.8110 -0.9676
  689MOL0     C92893   1.136   0.061   3.782 -0.3128 -0.3605  0.5722
  689MOL0     C92894   1.239   0.173   3.785 -0.8366 -0.1515 -0.3248
  689MOL0     C92895   1.346   0.142   3.895  1.1811  0.0162  0.1126
  689MOL0     C92896   1.432   0.014   3.888 -0.0560  0.3763 -0.8041
  689MOL0     N92897   1.499  -0.009   3.758  0.5043  0.9540  0.0567
  689MOL0     C92898   1.613   0.054   3.715 -0.7059  0.0806 -0.6167
  689MOL0     C92899   1.640  -0.012   3.598  0.3198  0.0841  1.1451
  689MOL0     C92900   1.765   0.010   3.502  1.2345  0.3444 -0.1440
  689MOL0     C92901   1.836  -0.123   3.501  0.1456 -1.0503 -0.1462
  689MOL0     C92902   1.945  -0.141   3.384  1.0262 -0.4848 -0.1840
  689MOL0     C92903   2.076  -0.075   3.421  0.1450 -0.2217 -0.8000
  689MOL0     O92904   2.133  -0.147   3.530  0.2076  0.1037  0.2993
  689MOL0     C92905   2.246  -0.119   3.592 -0.4539  0.1684  0.2273
  689MOL0     C92906   2.277  -0.182   3.711  0.0017 -0.0825  0.1171
  689MOL0     C92907   2.389  -0.141   3.781 -0.9893  0.4792  0.0167
  689MOL0     C92908   2.482  -0.058   3.725 -0.3052  0.6758  0.7995
  689MOL0     C92909   2.607  -0.021   3.796  0.4312 -0.2902  0.5684
  689MOL0     O92910   2.705   0.037   3.718  0.5532 -0.3800 -0.9448
  689MOL0     C92911   2.817   0.093   3.779  0.6294 -0.0764 -0.5811
  689MOL0     C92912   2.830   0.132   3.918  0.3060  0.1983  0.4757
  689MOL0     C92913   2.954   0.173   3.966  0.2308 -0.4783 -0.2462
  689MOL0     C92914   3.071   0.194   3.886 -0.5091 -1.1024 -0.0943
  689MOL0     O92915   3.182   0.250   3.943  0.4557  0.4369 -0.1328
  689MOL0     C92916   3.299   0.275   3.871 -0.9452  0.2465  0.5081
  689MOL0     C92917   3.418   0.341   3.952  0.2652  0.7239  0.4185
  689MOL0     C92918   3.461   0.255   4.071 -0.5782 -1.0366  0.2228
  689MOL0     C92919   3.582   0.327   4.140  0.1692 -0.6794  1.5680
  689MOL0     C92920   3.523   0.447   4.220  0.8019 -0.1114 -0.3363
  689MOL0     C92921   3.630   0.498   4.313  0.2301 -0.3118  0.3191
  689MOL0     C92922   3.556   0.599   4.411 -0.3723  0.0171  1.1003
  689MOL0     C92923   3.645   0.695   4.479 -0.3494  0.2639 -0.6586
  689MOL0    Cl92924   3.760   0.778   4.360  0.6113  0.2301  0.2188
  689MOL0     C92925   3.049   0.158   3.758  0.7596 -0.1770 -0.0245
  689MOL0     C92926   2.926   0.105   3.700 -0.2835  0.9937 -0.1739
  689MOL0     O92927   2.625  -0.053   3.916 -0.2843 -1.0191  0.2078
  689MOL0     C92928   2.458  -0.001   3.598  0.4791  0.4633  0.2460
  689MOL0     C92929   2.337  -0.030   3.533 -0.1330 -0.7673  0.4893
  689MOL0     N92930   1.535  -0.099   3.568  0.0002 -0.8458  0.4983
  689MOL0     N92931   1.455  -0.100   3.669  0.8831 -0.2188  0.7581
  689MOL0     C92932   0.421   0.001   3.395 -0.0091 -0.6781 -0.1173
  689MOL0     C92933   0.300   0.073   3.367  0.7197 -0.4743 -1.6330
  689MOL0     C92934  -0.045   0.366   3.404  0.2692 -1.2196 -0.1076
  689MOL0     C92935  -0.098   0.315   3.283 -0.0813  0.0224  0.3956
  689MOL0     C92936  -0.222   0.348   3.239  0.8344 -0.2097  0.3677
  689MOL0     C92937  -0.305   0.440   3.308  0.2427  0.1329  0.6394
  689MOL0     O92938  -0.428   0.470   3.255  0.1735 -0.8252  0.3077
  689MOL0     C92939  -0.521   0.548   3.340 -0.3324  0.6919  0.3970
  689MOL0     C92940  -0.640   0.589   3.254  0.1188 -0.4573 -0.2411
  689MOL0     C92941  -0.751   0.668   3.336 -0.0192  0.1982  0.2077
  689MOL0     C92942  -0.723   0.817   3.368  0.7734  0.5115 -0.2377
  689MOL0     C92943  -0.748   0.896   3.247  0.6246  0.5502 -0.6313
  689MOL0     C92944  -0.780   0.959   3.157 -0.1279 -0.8749 -0.1393
  689MOL0     C92945  -0.260   0.494   3.428 -0.0069 -0.1039  1.0392
  689MOL0     C92946  -0.137   0.457   3.481 -0.4574  0.2944  0.3141
  689MOL0     C92947  -0.115   0.493   3.621  0.4635 -0.6603  0.7460
  689MOL0     H92948   0.376   0.376   3.502 -1.3226 -0.2460 -0.4137
  689MOL0     H92949   0.571   0.278   3.541  2.9631 -0.9291 -1.8977
  689MOL0     H92950   0.789   0.151   3.513  1.3644 -1.9371 -0.9480
  689MOL0     H92951   0.732   0.065   3.664  4.3909 -3.1912  1.9848
  689MOL0     H92952   0.912  -0.035   3.460  2.4335  0.5318  0.7495
  689MOL0     H92953   0.805  -0.151   3.554  2.7833 -0.9597 -2.8433
  689MOL0     H92954   1.004  -0.128   3.663  0.8804  0.3461  1.9149
  689MOL0     H92955   0.892  -0.027   3.761 -1.5201  2.0115 -1.9443
  689MOL0     H92956   1.101   0.066   3.568 -1.5829 -0.8084 -1.9327
  689MOL0     H92957   0.991   0.177   3.654  1.8404  0.6936  2.4487
  689MOL0     H92958   1.083   0.066   3.877 -0.1709 -0.6417  0.6655
  689MOL0     H92959   1.185  -0.036   3.777 -1.1214 -0.7494  0.0092
  689MOL0     H92960   1.299   0.178   3.693 -0.0472  0.2497  0.2022
  689MOL0     H92961   1.191   0.270   3.796 -0.7789  0.7743 -5.4981
  689MOL0     H92962   1.293   0.127   3.990  0.8466 -0.5489 -0.1536
  689MOL0     H92963   1.410   0.230   3.900 -0.0873  1.0465 -1.0059
  689MOL0     H92964   1.519   0.032   3.952  0.0431 -0.7457 -0.6043
  689MOL0     H92965   1.371  -0.069   3.923 -0.9844  0.5151 -2.0203
  689MOL0     H92966   1.667   0.127   3.775 -2.0825 -1.2286  2.4250
  689MOL0     H92967   1.737   0.022   3.397  2.6269 -0.1746 -0.5956
  689MOL0     H92968   1.825   0.096   3.531 -2.0897  2.2741  1.5886
  689MOL0     H92969   1.888  -0.138   3.595  0.2460 -0.3737 -0.0903
  689MOL0     H92970   1.759  -0.201   3.491  0.8323 -2.1705  2.5147
  689MOL0     H92971   1.902  -0.103   3.291 -0.8300  0.4573  1.0012
  689MOL0     H92972   1.966  -0.245   3.356  1.7997 -0.0075 -1.4918
  689MOL0     H92973   2.051   0.024   3.461 -2.5904 -0.2872 -2.1029
  689MOL0     H92974   2.147  -0.063   3.338  3.0046  1.4834  1.6445
  689MOL0     H92975   2.207  -0.259   3.740 -0.0812 -0.2209 -0.4360
  689MOL0     H92976   2.420  -0.197   3.869  1.3497  1.0056 -0.3949
  689MOL0     H92977   2.742   0.123   3.981 -0.4502 -0.1055 -0.6088
  689MOL0     H92978   2.966   0.200   4.071  1.9098 -0.5250 -0.4015
  689MOL0     H92979   3.333   0.183   3.824 -1.2078 -0.3853  1.5357
  689MOL0     H92980   3.276   0.343   3.788 -1.3098  0.7345  0.9974
  689MOL0     H92981   3.504   0.346   3.886  0.1354  1.5263  0.3021
  689MOL0     H92982   3.393   0.440   3.991  3.1063  2.2742 -1.4022
  689MOL0     H92983   3.382   0.236   4.143 -0.3094 -1.5241  0.3909
  689MOL0     H92984   3.495   0.160   4.028  1.3700 -0.6736  0.8692
  689MOL0     H92985   3.659   0.351   4.067  0.3351 -0.3542  1.8457
  689MOL0     H92986   3.629   0.255   4.207  2.8029 -0.4977  0.0365
  689MOL0     H92987   3.439   0.408   4.279  1.3501 -1.0854 -0.1721
  689MOL0     H92988   3.480   0.531   4.165  0.9825 -0.3644 -0.8653
  689MOL0     H92989   3.688   0.425   4.371 -1.2852 -2.1038 -0.3493
  689MOL0     H92990   3.702   0.554   4.253 -1.0463 -0.6019 -1.5639
  689MOL0     H92991   3.488   0.545   4.478 -0.9723  0.3034  0.7320
  689MOL0     H92992   3.497   0.668   4.350  0.2389  1.3179  1.9267
  689MOL0     H92993   3.590   0.776   4.528  5.7044  2.8548  3.0929
  689MOL0     H92994   3.708   0.649   4.556 -2.8684  0.3772  1.6058
  689MOL0     H92995   3.136   0.167   3.694  3.3012 -0.1108  3.2292
  689MOL0     H92996   2.905   0.073   3.599 -0.6596 -0.1807  0.2606
  689MOL0     H92997   2.519   0.075   3.551 -0.4639 -1.1366 -3.9493
  689MOL0     H92998   2.311   0.039   3.453 -1.9974 -0.3245  1.3990
  689MOL0     H92999   0.435  -0.102   3.363  1.2666 -0.0872 -1.5586
  689MOL0     H93000   0.219   0.023   3.315  0.1069 -3.0721  1.4985
  689MOL0     H93001  -0.046   0.252   3.212 -0.5446 -0.3686  0.3936
  689MOL0     H93002  -0.255   0.310   3.143  1.7066 -0.2848  0.0940
  689MOL0     H93003  -0.472   0.633   3.389  1.5520 -1.0929  1.7445
  689MOL0     H93004  -0.551   0.478   3.417  1.3815 -0.6271 -0.0819
  689MOL0     H93005  -0.672   0.495   3.208  0.8238  0.0118 -1.7418
  689MOL0     H93006  -0.608   0.655   3.173 -2.4621  0.0771 -0.8883
  689MOL0     H93007  -0.779   0.617   3.428  2.8544 -2.4790 -0.2331
  689MOL0     H93008  -0.849   0.669   3.287 -0.6449  1.5706  1.4195
  689MOL0     H93009  -0.802   0.853   3.435  0.1863  1.9964 -1.6540
  689MOL0     H93010  -0.628   0.839   3.418  0.6653 -1.3184  0.8380
  689MOL0     H93011  -0.795   1.012   3.065  0.2648 -3.2405 -1.6394
  689MOL0     H93012  -0.330   0.547   3.492  1.1398  2.2837  0.4420
  689MOL0     H93013  -0.198   0.550   3.664  1.7816  1.4682  0.6124
  689MOL0     H93014  -0.094   0.394   3.663  2.7755 -0.9314 -0.8709
  689MOL0     H93015  -0.018   0.543   3.628 -0.4615  1.1084  1.3657
  690MOL0     O93016   7.945   5.934   6.133  0.6229  0.6761  0.2339
  690MOL0     C93017   7.942   6.019   6.045 -0.4188 -0.5211 -0.3019
  690MOL0     O93018   7.842   6.104   6.008 -0.8618  0.2211 -0.0320
  690MOL0     C93019   7.716   6.086   6.051  0.9740  0.4271  0.1304
  690MOL0     C93020   7.667   6.049   6.178 -0.1220  0.1107 -0.4084
  690MOL0     C93021   7.532   6.042   6.214 -0.5200 -0.0046  0.3520
  690MOL0     C93022   7.437   6.076   6.118  0.0127 -0.6480 -0.5345
  690MOL0     O93023   7.305   6.077   6.157 -0.1678 -0.3520  0.0864
  690MOL0     C93024   7.211   6.165   6.091 -0.3198  0.0442  0.2741
  690MOL0     C93025   7.111   6.216   6.194 -0.0223 -0.3665 -1.1925
  690MOL0     C93026   7.019   6.332   6.125  0.1970 -0.3416 -0.6172
  690MOL0     C93027   6.943   6.408   6.233 -0.0439  0.0704  0.7160
  690MOL0     C93028   6.831   6.497   6.187 -0.1551  0.1802  0.3786
  690MOL0     C93029   6.744   6.565   6.297  0.2035 -0.4672  0.1630
  690MOL0     C93030   6.809   6.672   6.391  0.0026 -0.5089 -1.0300
  690MOL0     C93031   6.879   6.792   6.308  0.4445 -0.0810 -0.6651
  690MOL0     N93032   7.021   6.778   6.280 -0.2231 -0.3454  0.6077
  690MOL0     C93033   7.121   6.784   6.381  1.2211  0.1054 -0.0084
  690MOL0     C93034   7.237   6.762   6.309 -0.8621  0.0705  1.1918
  690MOL0     C93035   7.380   6.780   6.358 -1.3021 -1.1232  0.2698
  690MOL0     C93036   7.480   6.700   6.264  0.0490 -0.2728  0.2619
  690MOL0     C93037   7.438   6.545   6.257  0.0952  0.6430 -0.2377
  690MOL0     C93038   7.557   6.446   6.251 -0.3845 -0.3193 -0.3978
  690MOL0     O93039   7.653   6.481   6.359 -0.0032  1.4481 -0.1892
  690MOL0     C93040   7.735   6.376   6.394  0.7040  0.1978 -0.8065
  690MOL0     C93041   7.709   6.286   6.499 -0.2396 -0.3798  0.2402
  690MOL0     C93042   7.808   6.189   6.532  0.1151  0.4206 -1.0691
  690MOL0     C93043   7.922   6.169   6.459  0.3843  0.1128 -0.1343
  690MOL0     C93044   8.018   6.059   6.493  0.4712  0.4730  0.5436
  690MOL0     O93045   8.121   6.039   6.405  0.9485 -0.3266  0.4445
  690MOL0     C93046   8.218   5.944   6.429 -0.1401  0.2851  0.0865
  690MOL0     C93047   8.214   5.806   6.477  0.8358  1.1713  0.2398
  690MOL0     C93048   8.332   5.735   6.498  0.2509  0.2667  0.6523
  690MOL0     C93049   8.456   5.780   6.462  0.9219  0.3336  1.4098
  690MOL0     O93050   8.555   5.686   6.468  0.3954 -0.0328 -0.4114
  690MOL0     C93051   8.685   5.732   6.467 -0.9645 -0.1804 -0.3635
  690MOL0     C93052   8.779   5.627   6.521  0.0671 -0.3684  0.2774
  690MOL0     C93053   8.916   5.654   6.480 -0.3678  0.1429 -0.2406
  690MOL0     C93054   9.011   5.551   6.543 -0.0011 -0.1120  0.6366
  690MOL0     C93055   9.142   5.622   6.567  0.2914 -0.9742 -0.3612
  690MOL0     C93056   9.238   5.518   6.640  0.5534 -0.5589  0.5595
  690MOL0     C93057   9.368   5.589   6.674  0.7446  0.3068  0.3629
  690MOL0     C93058   9.483   5.509   6.627 -0.1933 -0.3164 -0.1413
  690MOL0    Cl93059   9.645   5.576   6.666 -0.2926 -0.2083 -0.2385
  690MOL0     C93060   8.464   5.911   6.413  0.5406  0.1394 -0.3142
  690MOL0     C93061   8.345   5.987   6.386 -0.6052  0.8567 -0.5129
  690MOL0     O93062   7.988   5.976   6.580 -0.9915  0.7954 -0.4087
  690MOL0     C93063   7.943   6.253   6.351  0.2541 -0.6184 -0.3286
  690MOL0     C93064   7.853   6.357   6.322  0.5617 -1.0683 -0.5955
  690MOL0     N93065   7.211   6.757   6.172 -0.5385  0.0671 -0.0409
  690MOL0     N93066   7.084   6.763   6.158 -0.4781 -0.0886 -0.1392
  690MOL0     C93067   7.476   6.111   5.988 -0.5109  0.5371  0.6049
  690MOL0     C93068   7.615   6.115   5.954  0.2573 -0.7655 -0.5609
  690MOL0     C93069   8.086   6.047   5.985 -0.0336 -0.4499  0.0670
  690MOL0     C93070   8.200   6.000   6.058 -0.8745 -0.0285 -0.1313
  690MOL0     C93071   8.335   6.005   6.012 -0.0427  0.5621  1.0048
  690MOL0     C93072   8.350   6.083   5.894 -0.4449  0.1064 -0.0423
  690MOL0     O93073   8.482   6.088   5.852 -0.2590  0.2700  0.1097
  690MOL0     C93074   8.502   6.122   5.717  0.6509 -0.1053 -0.6206
  690MOL0     C93075   8.649   6.092   5.678  0.1986 -0.4693 -0.3624
  690MOL0     C93076   8.696   5.953   5.715  0.1250  0.3193  0.8663
  690MOL0     C93077   8.714   5.918   5.864  0.3810 -0.3648 -0.0665
  690MOL0     C93078   8.805   5.808   5.876 -0.9022  0.1220  0.0772
  690MOL0     C93079   8.866   5.701   5.881  0.5606 -0.1828 -0.6529
  690MOL0     C93080   8.241   6.135   5.824  0.1432  1.1021  0.1057
  690MOL0     C93081   8.108   6.118   5.866  0.4114 -0.4664  0.2425
  690MOL0     C93082   7.995   6.175   5.785  0.1317  0.5827  0.9541
  690MOL0     H93083   7.746   6.017   6.246  0.8889  1.8140 -0.7181
  690MOL0     H93084   7.500   6.005   6.311  2.2029  0.1941  1.4457
  690MOL0     H93085   7.269   6.250   6.053  1.4552 -0.7442  1.0918
  690MOL0     H93086   7.163   6.114   6.006  2.3104  0.5798 -1.6627
  690MOL0     H93087   7.171   6.265   6.272 -2.1833 -0.5378  0.6968
  690MOL0     H93088   7.053   6.135   6.239 -2.6198  2.9122  2.0049
  690MOL0     H93089   6.951   6.286   6.052 -0.3404  1.9050 -1.5973
  690MOL0     H93090   7.082   6.401   6.068  2.5522 -1.5578  0.3664
  690MOL0     H93091   6.895   6.325   6.285 -2.6741  0.1409 -1.4029
  690MOL0     H93092   7.010   6.456   6.305 -0.4957  0.8657  0.6121
  690MOL0     H93093   6.865   6.569   6.113  0.2519  0.3463  0.7263
  690MOL0     H93094   6.764   6.424   6.140  2.4948 -1.7587 -0.6364
  690MOL0     H93095   6.667   6.614   6.235  1.8548 -1.2097 -2.6578
  690MOL0     H93096   6.704   6.489   6.364 -1.0325 -0.0765 -0.0991
  690MOL0     H93097   6.876   6.624   6.462 -0.2544  2.2920  1.3018
  690MOL0     H93098   6.727   6.704   6.457 -0.9652 -1.2972 -1.8113
  690MOL0     H93099   6.818   6.801   6.218 -1.2887 -1.5266  0.2985
  690MOL0     H93100   6.855   6.889   6.352  1.3819  0.2732 -0.8946
  690MOL0     H93101   7.099   6.805   6.485 -1.0033 -3.7118  0.4992
  690MOL0     H93102   7.410   6.883   6.376 -0.4223 -0.7402 -2.7938
  690MOL0     H93103   7.389   6.737   6.458  1.0797  0.1408  0.6508
  690MOL0     H93104   7.481   6.745   6.165 -3.2388  0.9599  0.6424
  690MOL0     H93105   7.582   6.713   6.302  0.7949  3.2804 -2.4182
  690MOL0     H93106   7.376   6.541   6.167 -0.3552 -2.2282  0.1204
  690MOL0     H93107   7.385   6.509   6.345  1.6214  0.0606  0.4898
  690MOL0     H93108   7.601   6.446   6.151  1.0447  2.4179  0.1333
  690MOL0     H93109   7.523   6.342   6.262 -1.4649  0.1028  0.4507
  690MOL0     H93110   7.618   6.295   6.557 -0.6397  1.6696 -0.6071
  690MOL0     H93111   7.793   6.118   6.613 -1.6624 -1.1897 -2.7030
  690MOL0     H93112   8.124   5.756   6.511  0.6639  0.2706 -1.4467
  690MOL0     H93113   8.325   5.628   6.515  1.1159  0.2730  1.1156
  690MOL0     H93114   8.720   5.752   6.365 -1.9244 -0.2307 -0.7141
  690MOL0     H93115   8.693   5.823   6.528  2.8736 -2.0722  2.3922
  690MOL0     H93116   8.767   5.623   6.630 -1.0633  0.7228  0.2123
  690MOL0     H93117   8.751   5.531   6.478 -1.5233  0.3235 -0.2867
  690MOL0     H93118   8.942   5.658   6.374  4.0466 -1.8554  0.5280
  690MOL0     H93119   8.931   5.751   6.528 -2.5015  1.3796 -1.9068
  690MOL0     H93120   9.033   5.470   6.473 -0.1583  0.9692 -0.6879
  690MOL0     H93121   8.971   5.512   6.637  0.7703 -1.3887  0.4644
  690MOL0     H93122   9.124   5.711   6.628  1.4580 -1.2441  0.4134
  690MOL0     H93123   9.191   5.651   6.474 -0.7812  0.2806 -0.5727
  690MOL0     H93124   9.204   5.467   6.731  0.4873  1.2777  1.6171
  690MOL0     H93125   9.264   5.442   6.566 -2.1768  0.8568 -2.0411
  690MOL0     H93126   9.368   5.613   6.781  0.7524  1.3814  0.1405
  690MOL0     H93127   9.375   5.679   6.612 -1.8522 -0.3949 -1.1231
  690MOL0     H93128   9.476   5.408   6.670 -0.5448 -0.0699  0.3939
  690MOL0     H93129   9.472   5.498   6.518 -1.1576 -0.5450 -0.0323
  690MOL0     H93130   8.554   5.961   6.377 -0.2683  1.0534 -1.1662
  690MOL0     H93131   8.349   6.085   6.340 -2.1207  1.8924  1.4336
  690MOL0     H93132   8.036   6.242   6.295  1.4977 -1.7145  1.8430
  690MOL0     H93133   7.864   6.409   6.227  1.2001 -1.0661 -0.5242
  690MOL0     H93134   7.401   6.125   5.911 -1.7976 -1.6537  1.3674
  690MOL0     H93135   7.661   6.150   5.862  0.5155 -1.5652 -0.7482
  690MOL0     H93136   8.187   5.949   6.153  0.7903 -2.6308 -1.1785
  690MOL0     H93137   8.417   5.954   6.062  2.0285  1.0724 -1.6171
  690MOL0     H93138   8.483   6.229   5.713 -1.6715 -0.4851 -1.2475
  690MOL0     H93139   8.423   6.086   5.651 -0.4031 -1.0055  1.0599
  690MOL0     H93140   8.728   6.155   5.721 -0.8188 -0.1581  1.1289
  690MOL0     H93141   8.647   6.126   5.574  0.7199  0.5465 -0.0525
  690MOL0     H93142   8.795   5.961   5.669  0.4410 -0.9496  1.2651
  690MOL0     H93143   8.619   5.886   5.675  1.7504  0.6172 -3.2277
  690MOL0     H93144   8.761   6.007   5.907  2.1640 -1.6564  0.8017
  690MOL0     H93145   8.621   5.890   5.914 -1.6166  6.3113  0.8823
  690MOL0     H93146   8.928   5.613   5.875  0.5758 -0.1991 -0.2539
  690MOL0     H93147   8.258   6.200   5.739  3.7813  0.8476  0.4825
  690MOL0     H93148   7.923   6.247   5.823 -0.4331 -0.1791  1.3598
  690MOL0     H93149   8.048   6.211   5.696 -0.6713 -0.5997 -0.0377
  690MOL0     H93150   7.933   6.091   5.752 -0.8773  2.2423 -1.6880
  691MOL0     O93151   7.008   4.720  10.257 -0.3806 -0.0859 -0.4448
  691MOL0     C93152   7.111   4.666  10.226 -0.7916  0.2029 -0.1456
  691MOL0     O93153   7.120   4.561  10.129 -0.3833  0.5700 -0.0246
  691MOL0     C93154   7.016   4.490  10.080  0.2299  0.8128  0.7795
  691MOL0     C93155   6.878   4.493  10.123  0.2986 -0.3013  0.3376
  691MOL0     C93156   6.773   4.428  10.063 -0.5217 -0.2349  0.0802
  691MOL0     C93157   6.808   4.352   9.945  0.3149 -0.6613  0.0632
  691MOL0     O93158   6.712   4.288   9.863 -0.3286 -0.1338 -1.0968
  691MOL0     C93159   6.611   4.210   9.934  0.7508  0.6919  0.0873
  691MOL0     C93160   6.523   4.134   9.827  1.0711  0.4724  0.6247
  691MOL0     C93161   6.380   4.095   9.878  0.9642 -0.2132 -0.0245
  691MOL0     C93162   6.278   4.067   9.772 -0.6723 -0.6389 -0.0845
  691MOL0     C93163   6.141   4.061   9.827  0.0809 -0.1596  0.1121
  691MOL0     C93164   6.127   3.934   9.918 -0.8630  0.4744 -0.2248
  691MOL0     C93165   5.981   3.945   9.958  0.9542  0.1137 -0.0462
  691MOL0     C93166   5.933   3.836  10.066 -0.0435  0.1736  0.0281
  691MOL0     N93167   6.007   3.834  10.194 -0.5400  0.0275 -0.5823
  691MOL0     C93168   6.130   3.781  10.229  0.3219 -0.1546 -0.1142
  691MOL0     C93169   6.162   3.828  10.354 -0.2863  0.0453 -0.0085
  691MOL0     C93170   6.269   3.793  10.450  0.4666  0.0884 -0.3904
  691MOL0     C93171   6.383   3.903  10.461  0.4892  0.1408 -0.2874
  691MOL0     C93172   6.455   3.928  10.319 -0.2984 -0.4128  0.9222
  691MOL0     C93173   6.561   4.030  10.316 -1.0294  0.5581  0.7180
  691MOL0     O93174   6.662   3.984  10.402  0.4070 -0.0887  0.0264
  691MOL0     C93175   6.788   4.010  10.365 -0.2575 -0.4593  0.6151
  691MOL0     C93176   6.825   4.130  10.304  0.3342  0.1197 -0.7974
  691MOL0     C93177   6.954   4.153  10.253 -0.3352 -0.4290  0.0623
  691MOL0     C93178   7.052   4.068  10.280 -0.5226 -0.5339 -0.0724
  691MOL0     C93179   7.190   4.076  10.223 -0.4425 -0.2832  0.6239
  691MOL0     O93180   7.191   4.165  10.122  0.2080  0.2112  0.0878
  691MOL0     C93181   7.308   4.177  10.049  0.4226 -0.1881  0.6137
  691MOL0     C93182   7.364   4.073   9.978  0.3566  0.1454 -0.0544
  691MOL0     C93183   7.477   4.100   9.902 -0.5495  0.7079  0.3647
  691MOL0     C93184   7.536   4.226   9.903  0.0923 -0.5003  0.4898
  691MOL0     O93185   7.656   4.245   9.833 -0.3000 -0.6885 -0.3995
  691MOL0     C93186   7.728   4.147   9.769  0.8783 -0.5155  0.1825
  691MOL0     C93187   7.847   4.206   9.705  0.0589  0.7399 -0.2169
  691MOL0     C93188   7.922   4.110   9.616  0.0634  0.6577 -0.4176
  691MOL0     C93189   8.037   4.186   9.545  0.2590 -0.6916 -0.5239
  691MOL0     C93190   8.136   4.089   9.476  0.3742 -0.4264  0.4448
  691MOL0     C93191   8.230   4.018   9.569 -0.5669  1.2987  0.2091
  691MOL0     C93192   8.359   3.985   9.483  0.5872 -0.0111 -0.3427
  691MOL0     C93193   8.463   3.931   9.575  0.3015  0.9391  0.5077
  691MOL0    Cl93194   8.551   4.067   9.645  0.3402  0.1432 -0.1380
  691MOL0     C93195   7.476   4.336   9.966 -0.2954 -0.3688  0.3764
  691MOL0     C93196   7.359   4.306  10.037 -0.1093  0.6302  0.3890
  691MOL0     O93197   7.286   4.003  10.261  0.6697 -0.7209 -0.1743
  691MOL0     C93198   7.019   3.957  10.362 -0.5278 -0.1567 -0.9515
  691MOL0     C93199   6.888   3.925  10.396  0.2607  0.6160 -0.1346
  691MOL0     N93200   6.068   3.924  10.389 -0.5145 -0.0065  0.2782
  691MOL0     N93201   5.974   3.914  10.298 -0.0005  0.3965  0.0240
  691MOL0     C93202   6.942   4.337   9.907  0.5126  0.7688  0.3017
  691MOL0     C93203   7.047   4.412   9.966  0.4013  0.5113 -0.7995
  691MOL0     C93204   7.242   4.708  10.285  0.8040 -0.2110 -0.1818
  691MOL0     C93205   7.356   4.635  10.238 -0.0749 -0.2276 -0.6805
  691MOL0     C93206   7.481   4.665  10.303 -0.4566 -0.1740  0.6257
  691MOL0     C93207   7.496   4.751  10.407 -0.4527 -0.3398  0.3422
  691MOL0     O93208   7.631   4.767  10.448 -1.3413 -0.6594 -0.3566
  691MOL0     C93209   7.710   4.891  10.414  0.8409  0.0912 -0.1726
  691MOL0     C93210   7.856   4.878  10.469 -1.0246 -0.2598 -0.1321
  691MOL0     C93211   7.965   4.963  10.409  0.4539 -0.0283  0.1180
  691MOL0     C93212   8.036   4.871  10.306  1.1049  0.8047 -0.4804
  691MOL0     C93213   8.134   4.941  10.229  0.8428 -0.1581 -0.5104
  691MOL0     C93214   8.206   5.002  10.155  0.2675  0.4490 -0.5052
  691MOL0     C93215   7.386   4.814  10.460  0.1722  0.2260  0.5131
  691MOL0     C93216   7.255   4.798  10.400  0.0277 -0.0702 -0.0968
  691MOL0     C93217   7.145   4.880  10.477  1.0115  0.2224 -0.8003
  691MOL0     H93218   6.853   4.540  10.217 -3.0737 -1.3326  0.0668
  691MOL0     H93219   6.672   4.448  10.098 -0.4496  0.8003 -0.2638
  691MOL0     H93220   6.657   4.135   9.998  1.0407 -1.5598 -2.5832
  691MOL0     H93221   6.545   4.280   9.986 -0.5453 -1.3097  1.2224
  691MOL0     H93222   6.576   4.044   9.795  2.9529  1.2427  1.4292
  691MOL0     H93223   6.511   4.196   9.738 -0.2596 -1.1918 -0.4195
  691MOL0     H93224   6.346   4.173   9.947  0.9661  0.0594 -0.3297
  691MOL0     H93225   6.394   3.998   9.927 -0.3765 -0.1808  0.4613
  691MOL0     H93226   6.286   4.152   9.703  2.7904  0.1946  1.0941
  691MOL0     H93227   6.298   3.986   9.701 -3.2367 -0.9858 -0.4887
  691MOL0     H93228   6.117   4.150   9.885 -1.0511 -0.9907  0.9649
  691MOL0     H93229   6.066   4.067   9.748  0.6119 -1.5746 -0.5368
  691MOL0     H93230   6.151   3.846   9.857 -4.0183  1.1699 -2.7203
  691MOL0     H93231   6.185   3.944  10.010 -1.1896  0.0808  0.0276
  691MOL0     H93232   5.915   3.946   9.871  1.2743  0.1964 -0.2907
  691MOL0     H93233   5.957   4.044   9.996 -1.5029 -0.5340  0.2437
  691MOL0     H93234   5.829   3.866  10.077  0.3739  0.8705  2.7340
  691MOL0     H93235   5.939   3.741  10.013  0.3643 -0.9021  1.8935
  691MOL0     H93236   6.181   3.711  10.163  0.4893 -1.2960  1.1858
  691MOL0     H93237   6.221   3.782  10.548 -1.3847  2.5446 -0.9176
  691MOL0     H93238   6.316   3.697  10.423 -0.5697  0.1475 -2.6242
  691MOL0     H93239   6.345   3.994  10.507  1.0350 -0.3233  1.1239
  691MOL0     H93240   6.455   3.862  10.533 -2.4573 -1.1275  2.1552
  691MOL0     H93241   6.386   3.960  10.241  0.4335  1.5991  1.0441
  691MOL0     H93242   6.499   3.838  10.276 -0.3289 -1.8765  3.7310
  691MOL0     H93243   6.523   4.125  10.354 -0.9673  1.0307 -0.3924
  691MOL0     H93244   6.602   4.046  10.216 -0.2303 -0.5904  0.8409
  691MOL0     H93245   6.760   4.216  10.291 -0.4626 -0.3983 -0.2775
  691MOL0     H93246   6.973   4.238  10.187  2.7999  0.1454  1.5154
  691MOL0     H93247   7.320   3.974   9.969  0.9938 -0.1749  0.3213
  691MOL0     H93248   7.509   4.011   9.850 -3.1698  0.6857 -1.3920
  691MOL0     H93249   7.751   4.061   9.832  1.1875 -0.5463  0.0299
  691MOL0     H93250   7.672   4.111   9.682  3.4162  0.7888 -2.1260
  691MOL0     H93251   7.826   4.298   9.648  2.4291  2.2261  1.1334
  691MOL0     H93252   7.917   4.232   9.785  0.7164 -2.0655  0.2252
  691MOL0     H93253   7.961   4.030   9.680  1.7476  1.1416 -0.7894
  691MOL0     H93254   7.855   4.080   9.535 -1.5328 -0.9864  1.3866
  691MOL0     H93255   8.093   4.246   9.618 -1.1346 -1.1389  0.9666
  691MOL0     H93256   7.999   4.251   9.465 -2.8453 -2.6608 -0.8029
  691MOL0     H93257   8.192   4.139   9.396  2.7919 -2.9850  0.3961
  691MOL0     H93258   8.071   4.017   9.424 -2.2626  2.1699 -0.1178
  691MOL0     H93259   8.252   4.088   9.650  3.1713  1.1400 -0.5266
  691MOL0     H93260   8.183   3.932   9.617 -0.1473  1.7399  1.4529
  691MOL0     H93261   8.402   4.074   9.437 -1.5167  0.2865 -1.8993
  691MOL0     H93262   8.335   3.909   9.408  0.1856 -0.2162 -0.0113
  691MOL0     H93263   8.429   3.870   9.659 -0.3315  1.2966  0.5176
  691MOL0     H93264   8.542   3.883   9.517 -0.5571  2.8019 -2.4456
  691MOL0     H93265   7.518   4.436   9.965 -0.6584 -0.2144 -0.5148
  691MOL0     H93266   7.312   4.376  10.106  2.0224  0.5942  1.9775
  691MOL0     H93267   7.092   3.881  10.390 -0.2118  0.7929  1.0351
  691MOL0     H93268   6.871   3.833  10.451  1.7749  0.0032 -0.6285
  691MOL0     H93269   6.967   4.264   9.830 -0.4896  1.3166 -0.5700
  691MOL0     H93270   7.150   4.404   9.933  0.8073  1.3551  0.1850
  691MOL0     H93271   7.365   4.576  10.147 -0.7441 -4.3912  1.6895
  691MOL0     H93272   7.567   4.618  10.258 -1.5755 -0.1891 -1.6408
  691MOL0     H93273   7.646   4.976  10.440  0.4944 -0.0159 -0.6751
  691MOL0     H93274   7.732   4.886  10.307 -0.0622 -0.6314 -0.3315
  691MOL0     H93275   7.869   4.770  10.456 -0.2884 -0.1380 -0.4567
  691MOL0     H93276   7.849   4.899  10.576 -0.9779  0.3015 -0.2321
  691MOL0     H93277   8.038   4.993  10.484  2.3164 -0.6035 -1.3910
  691MOL0     H93278   7.923   5.056  10.369  1.2356 -0.0170 -0.6948
  691MOL0     H93279   8.088   4.793  10.362 -0.9770 -0.5368 -0.3031
  691MOL0     H93280   7.961   4.815  10.249 -1.5897  0.1635  3.2911
  691MOL0     H93281   8.261   5.059  10.083  1.1094  0.0287 -0.2060
  691MOL0     H93282   7.406   4.865  10.554 -3.5986  0.7399  1.2289
  691MOL0     H93283   7.184   4.894  10.579  0.8167 -1.4769 -0.4659
  691MOL0     H93284   7.126   4.977  10.431 -0.1890  0.4182  0.0480
  691MOL0     H93285   7.053   4.820  10.485 -0.3989  1.9987 -2.7295
  692MOL0     O93286   8.463  10.200   7.726  0.2480 -0.3069 -0.0978
  692MOL0     C93287   8.433  10.153   7.616 -0.4142 -0.1327  0.7403
  692MOL0     O93288   8.518  10.073   7.540  0.9806 -0.2452  0.2211
  692MOL0     C93289   8.650  10.082   7.559 -0.1436 -1.0702  0.5071
  692MOL0     C93290   8.717  10.197   7.507  0.5273  0.0839  0.4878
  692MOL0     C93291   8.853  10.212   7.526 -0.3677  0.3457 -0.5224
  692MOL0     C93292   8.931  10.116   7.601  0.0289  0.7194 -0.2066
  692MOL0     O93293   9.074  10.129   7.624 -0.1512 -0.4138 -0.7225
  692MOL0     C93294   9.147  10.190   7.516  0.6043 -0.3648  0.8499
  692MOL0     C93295   9.292  10.195   7.538 -0.6062  1.1040 -0.3432
  692MOL0     C93296   9.371  10.062   7.543 -0.4740  0.7375  0.2316
  692MOL0     C93297   9.413  10.018   7.686  0.2375 -0.1656 -0.0776
  692MOL0     C93298   9.491   9.875   7.692  1.1706  0.2432 -0.2011
  692MOL0     C93299   9.626   9.881   7.626 -0.0757 -0.8942 -0.4554
  692MOL0     C93300   9.689   9.735   7.605  0.2502  0.0661  0.0737
  692MOL0     C93301   9.731   9.678   7.739 -0.3000 -0.4296 -0.3575
  692MOL0     N93302   9.854   9.740   7.777  0.2445 -0.1237 -0.7453
  692MOL0     C93303   9.865   9.846   7.857 -0.6660  0.7941 -0.0566
  692MOL0     C93304  10.001   9.860   7.873  0.0082 -1.0035 -0.3674
  692MOL0     C93305  10.067   9.950   7.976  0.3521  0.2920  0.3739
  692MOL0     C93306  10.185  10.038   7.922  0.0896  0.7071  0.3259
  692MOL0     C93307  10.268  10.099   8.042  0.4681 -0.2661 -0.9210
  692MOL0     C93308  10.396  10.175   8.001 -0.8602  1.1338  0.2037
  692MOL0     O93309  10.459  10.235   8.116  0.8277 -0.6041  0.2498
  692MOL0     C93310  10.565  10.317   8.088 -0.1418 -0.0856 -0.1955
  692MOL0     C93311  10.686  10.289   8.146  0.2708  0.7789  0.2187
  692MOL0     C93312  10.797  10.375   8.124  0.2879 -0.0534 -1.5362
  692MOL0     C93313  10.788  10.503   8.058  0.7930 -0.2749 -0.5549
  692MOL0     C93314  10.906  10.599   8.054  1.3434 -0.7723  0.3469
  692MOL0     O93315  11.027  10.529   8.075 -0.5346 -0.0565  0.0361
  692MOL0     C93316  11.148  10.587   8.043 -0.4849 -0.6861 -0.1846
  692MOL0     C93317  11.168  10.732   8.018 -1.2543  1.0518 -0.3539
  692MOL0     C93318  11.297  10.784   7.988 -0.0851 -0.5139  0.9924
  692MOL0     C93319  11.406  10.701   7.990  0.4325  0.2773 -0.7261
  692MOL0     O93320  11.529  10.753   7.975 -0.2119  0.7234 -0.6827
  692MOL0     C93321  11.594  10.780   8.102  0.3111 -0.0885 -0.9363
  692MOL0     C93322  11.732  10.830   8.091 -1.0992  0.5727  1.0235
  692MOL0     C93323  11.816  10.752   7.983  0.1083 -0.3102 -0.2428
  692MOL0     C93324  11.962  10.727   8.038 -0.4111  0.1794  0.2576
  692MOL0     C93325  12.055  10.660   7.933 -0.7242  0.0750 -0.2285
  692MOL0     C93326  12.185  10.634   8.008 -0.2993 -0.7764 -0.8572
  692MOL0     C93327  12.292  10.587   7.914  0.3179 -0.5402  1.0106
  692MOL0     C93328  12.406  10.531   8.010 -0.5501  0.0376 -0.1795
  692MOL0    Cl93329  12.369  10.353   8.060  0.1502  0.1215 -0.4683
  692MOL0     C93330  11.384  10.557   8.006  0.4513 -1.3619 -0.4688
  692MOL0     C93331  11.261  10.503   8.031  0.6066 -0.4688 -0.0258
  692MOL0     O93332  10.881  10.716   8.019  0.0923  0.6224 -0.0628
  692MOL0     C93333  10.665  10.528   8.005 -0.1331 -1.3812  0.3282
  692MOL0     C93334  10.553  10.438   8.026  0.8360  0.2553  0.4709
  692MOL0     N93335  10.066   9.778   7.786 -0.8084  0.0053 -0.1611
  692MOL0     N93336   9.979   9.704   7.727  0.0387  0.6385 -0.0545
  692MOL0     C93337   8.859  10.008   7.654  1.2703  1.1218  0.4118
  692MOL0     C93338   8.716   9.990   7.637  0.4221  0.5560  0.6841
  692MOL0     C93339   8.312  10.180   7.539  0.4078 -0.5382 -0.7877
  692MOL0     C93340   8.273  10.108   7.432  0.1550 -0.5928 -0.6268
  692MOL0     C93341   8.152  10.143   7.359  0.8300  0.2393  0.4337
  692MOL0     C93342   8.068  10.241   7.405  0.6627 -0.2219 -0.4002
  692MOL0     O93343   7.946  10.276   7.348  0.1716 -0.3854  0.4378
  692MOL0     C93344   7.877  10.186   7.256  0.1609  0.6231 -0.3160
  692MOL0     C93345   7.734  10.228   7.234  0.7432 -0.2973  0.9120
  692MOL0     C93346   7.664  10.237   7.367 -0.9493  0.4076  0.1208
  692MOL0     C93347   7.511  10.248   7.356  0.3361  0.6897  0.9707
  692MOL0     C93348   7.470  10.368   7.289  0.0744 -1.1505 -0.4371
  692MOL0     C93349   7.444  10.477   7.242 -0.7794  0.5367  0.5223
  692MOL0     C93350   8.117  10.317   7.509  0.3179  0.8929  0.0633
  692MOL0     C93351   8.235  10.296   7.572  0.5961  0.2971 -0.6930
  692MOL0     C93352   8.272  10.390   7.683 -0.6236 -0.4155  0.3043
  692MOL0     H93353   8.663  10.278   7.459  1.6424  0.1687 -0.6844
  692MOL0     H93354   8.913  10.294   7.489  0.4906  0.6104  1.3535
  692MOL0     H93355   9.129  10.140   7.420  1.7822  3.0984 -1.3785
  692MOL0     H93356   9.114  10.292   7.495  0.8684 -0.4864 -0.2211
  692MOL0     H93357   9.314  10.239   7.636  1.3517  2.4681 -1.3325
  692MOL0     H93358   9.347  10.251   7.462 -0.7364  4.9175  2.1233
  692MOL0     H93359   9.467  10.083   7.494  1.3485 -0.2889  3.1320
  692MOL0     H93360   9.331   9.983   7.479  1.1573 -1.9360  2.3069
  692MOL0     H93361   9.474  10.098   7.730  0.5777 -1.0400  1.1032
  692MOL0     H93362   9.319  10.012   7.741  0.8740 -0.7272  0.9928
  692MOL0     H93363   9.506   9.855   7.798 -0.1020  0.1327 -0.0265
  692MOL0     H93364   9.429   9.795   7.651  0.4383  1.7284 -2.1847
  692MOL0     H93365   9.618   9.938   7.532  1.5004 -2.2764 -1.4757
  692MOL0     H93366   9.691   9.943   7.689 -3.4420  3.4905 -0.8095
  692MOL0     H93367   9.780   9.764   7.552  2.0745 -1.4916  2.1415
  692MOL0     H93368   9.631   9.668   7.540 -0.8435  0.3887  0.6825
  692MOL0     H93369   9.652   9.686   7.814 -0.9102 -1.7307 -0.8237
  692MOL0     H93370   9.757   9.572   7.734  1.1253 -0.2786  2.1093
  692MOL0     H93371   9.795   9.878   7.933  0.2123 -2.4885  2.3721
  692MOL0     H93372   9.990  10.020   8.012  0.0398  0.2619 -0.2277
  692MOL0     H93373  10.104   9.890   8.060  2.9562  3.5232  1.7237
  692MOL0     H93374  10.252   9.973   7.864  0.3997  0.2378  1.1729
  692MOL0     H93375  10.135  10.113   7.861 -1.8291 -0.5351  0.3040
  692MOL0     H93376  10.293  10.016   8.109 -1.7294  0.0986  0.4525
  692MOL0     H93377  10.195  10.157   8.100  1.4851  1.4342 -1.2765
  692MOL0     H93378  10.372  10.258   7.934  2.5653 -0.2502 -3.1216
  692MOL0     H93379  10.459  10.110   7.939  1.8467  0.4974  3.3659
  692MOL0     H93380  10.694  10.193   8.197 -2.6784  0.0037 -0.6287
  692MOL0     H93381  10.885  10.344   8.179 -0.5596  0.3157  0.0981
  692MOL0     H93382  11.087  10.804   8.031 -2.7308 -0.6686  0.4720
  692MOL0     H93383  11.330  10.884   7.965 -1.0405  0.2322  2.6263
  692MOL0     H93384  11.534  10.858   8.150  0.6411  1.1694 -2.4882
  692MOL0     H93385  11.601  10.693   8.168  0.2695 -1.2068 -2.3439
  692MOL0     H93386  11.726  10.938   8.074 -1.0868  1.0165  3.5730
  692MOL0     H93387  11.788  10.818   8.184  1.2462 -2.0992 -0.5889
  692MOL0     H93388  11.762  10.665   7.945 -1.1347  1.2931 -2.4033
  692MOL0     H93389  11.805  10.816   7.894 -0.8456 -1.0081 -0.6476
  692MOL0     H93390  11.960  10.661   8.125  0.9262 -1.3615 -0.8113
  692MOL0     H93391  12.005  10.824   8.065  1.6729 -0.3387 -0.9928
  692MOL0     H93392  12.080  10.730   7.853 -1.7455  0.1240 -0.5195
  692MOL0     H93393  12.019  10.563   7.898 -2.9169 -0.0138  2.0427
  692MOL0     H93394  12.213  10.731   8.048  0.7366 -0.9412 -1.1330
  692MOL0     H93395  12.176  10.565   8.093 -3.2931 -0.3725 -0.7411
  692MOL0     H93396  12.342  10.666   7.856  0.5372 -0.6316  1.0755
  692MOL0     H93397  12.249  10.511   7.848  0.6541  0.7285 -0.7642
  692MOL0     H93398  12.507  10.531   7.967 -0.3091 -0.0593  0.3831
  692MOL0     H93399  12.415  10.598   8.095 -0.2627  0.5298 -0.5907
  692MOL0     H93400  11.477  10.504   8.023 -0.5493 -2.9299  0.4288
  692MOL0     H93401  11.241  10.398   8.049  1.0321 -0.4449  0.6515
  692MOL0     H93402  10.640  10.625   7.962 -2.6420 -1.4377  1.4739
  692MOL0     H93403  10.449  10.461   8.005  0.7881 -0.9217 -0.6970
  692MOL0     H93404   8.918   9.936   7.711  0.1557 -0.5610 -0.4673
  692MOL0     H93405   8.661   9.918   7.697 -0.1880 -0.0198 -0.5272
  692MOL0     H93406   8.326  10.020   7.399  2.3031  1.0609 -1.8925
  692MOL0     H93407   8.137  10.070   7.280  0.3835 -0.2210  0.9387
  692MOL0     H93408   7.864  10.096   7.317 -1.0253  0.8577 -0.1915
  692MOL0     H93409   7.940  10.156   7.172  2.1263 -0.0291  1.2914
  692MOL0     H93410   7.671  10.160   7.175  0.4148 -0.0178  0.9387
  692MOL0     H93411   7.732  10.329   7.193 -0.6297 -1.4815 -2.2366
  692MOL0     H93412   7.694  10.334   7.408 -0.4034 -0.9178  3.1531
  692MOL0     H93413   7.688  10.154   7.435  0.3143 -0.5258 -1.3774
  692MOL0     H93414   7.467  10.157   7.314  2.3440 -1.5949  3.4443
  692MOL0     H93415   7.476  10.263   7.458 -3.6887 -1.2168  0.0664
  692MOL0     H93416   7.429  10.570   7.192 -3.4529 -0.9623 -1.7803
  692MOL0     H93417   8.050  10.394   7.546  1.6139  0.7308  3.0122
  692MOL0     H93418   8.233  10.353   7.778  1.4842 -1.7476  0.7247
  692MOL0     H93419   8.379  10.413   7.695 -0.8893  0.1143  1.8564
  692MOL0     H93420   8.221  10.486   7.670 -0.0534  0.1612  2.0474
  693MOL0     O93421   4.255  10.817   2.777  0.0585 -0.3515 -0.3811
  693MOL0     C93422   4.187  10.785   2.680  0.4506 -0.2253 -0.4235
  693MOL0     O93423   4.219  10.686   2.585  0.0445 -0.5569  0.5075
  693MOL0     C93424   4.349  10.641   2.581 -0.0230 -1.3600  0.2757
  693MOL0     C93425   4.365  10.509   2.542  0.5389 -0.0298 -0.4279
  693MOL0     C93426   4.488  10.450   2.522  0.0813 -0.5604 -0.1718
  693MOL0     C93427   4.601  10.523   2.542  0.4673  0.4076 -0.6946
  693MOL0     O93428   4.723  10.475   2.542 -0.5022 -0.3790  0.8556
  693MOL0     C93429   4.737  10.336   2.574 -0.1436  0.6352 -0.6800
  693MOL0     C93430   4.880  10.303   2.581  0.1471  0.1652 -0.3148
  693MOL0     C93431   4.951  10.317   2.451  0.0110 -0.2936  0.0699
  693MOL0     C93432   5.106  10.298   2.484  0.0068 -0.1038  0.2166
  693MOL0     C93433   5.190  10.321   2.366  0.4069  0.0945 -0.2762
  693MOL0     C93434   5.346  10.327   2.400  0.9316 -0.3746 -0.5247
  693MOL0     C93435   5.378  10.435   2.499 -0.1974  0.6228 -0.4627
  693MOL0     C93436   5.513  10.496   2.469  0.3796  0.1397  0.1909
  693MOL0     N93437   5.515  10.635   2.532 -0.0800  1.2920  0.1691
  693MOL0     C93438   5.502  10.658   2.670  1.3372 -0.1599  0.6571
  693MOL0     C93439   5.523  10.794   2.671 -0.0493 -0.4699 -0.8631
  693MOL0     C93440   5.532  10.891   2.794 -1.0493 -0.3362 -0.5406
  693MOL0     C93441   5.664  10.971   2.788  1.0594 -0.2208 -0.8874
  693MOL0     C93442   5.651  11.096   2.874  0.5506 -1.0528  0.5024
  693MOL0     C93443   5.799  11.144   2.885 -0.0753 -0.2697 -0.2509
  693MOL0     O93444   5.809  11.254   2.971 -0.4101 -0.5404 -0.4497
  693MOL0     C93445   5.930  11.291   3.017  0.2126 -0.1327  0.4296
  693MOL0     C93446   5.919  11.384   3.123  0.2502  0.5270 -0.9456
  693MOL0     C93447   6.028  11.437   3.190 -0.5103  1.0468 -0.4926
  693MOL0     C93448   6.157  11.402   3.138  0.1785 -0.2125  0.0968
  693MOL0     C93449   6.273  11.467   3.205  0.8621  0.0401  0.7238
  693MOL0     O93450   6.395  11.453   3.143 -0.9841 -0.9933  0.4094
  693MOL0     C93451   6.499  11.544   3.178 -0.1753  0.5247  0.3859
  693MOL0     C93452   6.541  11.556   3.311 -0.0441  0.2016  1.1096
  693MOL0     C93453   6.655  11.634   3.335 -0.4083 -0.0576 -0.0913
  693MOL0     C93454   6.731  11.700   3.241  0.0476  0.1416  0.1679
  693MOL0     O93455   6.847  11.767   3.277 -0.0940  0.7094 -0.4281
  693MOL0     C93456   6.917  11.840   3.180 -0.0167 -0.0449 -0.5267
  693MOL0     C93457   7.059  11.808   3.216 -0.6455 -0.0202  0.0537
  693MOL0     C93458   7.159  11.895   3.148 -0.1576 -0.2373 -0.0660
  693MOL0     C93459   7.297  11.867   3.205 -0.7573  0.7312 -0.3289
  693MOL0     C93460   7.409  11.927   3.117 -0.2487 -1.2113 -0.1312
  693MOL0     C93461   7.554  11.912   3.173  0.6522  0.4939  0.3708
  693MOL0     C93462   7.647  12.005   3.087 -0.5386  0.1296 -0.0383
  693MOL0     C93463   7.648  11.977   2.940  0.6174  0.1805 -0.2545
  693MOL0    Cl93464   7.701  11.806   2.903  0.1466 -0.2318 -0.2777
  693MOL0     C93465   6.687  11.681   3.101  0.9002  0.1271  0.2334
  693MOL0     C93466   6.566  11.612   3.071  0.5492 -0.1019 -0.0739
  693MOL0     O93467   6.249  11.536   3.308  0.1115  0.2176  0.0416
  693MOL0     C93468   6.170  11.295   3.048 -0.0840 -0.2891  0.5472
  693MOL0     C93469   6.055  11.239   2.978  0.4747 -0.2057 -0.1545
  693MOL0     N93470   5.539  10.842   2.545 -0.7691  0.1429 -0.1978
  693MOL0     N93471   5.535  10.747   2.464 -0.2652  0.0411 -0.4553
  693MOL0     C93472   4.595  10.657   2.583  0.1486 -0.4730 -1.0156
  693MOL0     C93473   4.471  10.719   2.601  0.2142 -0.3807  0.1389
  693MOL0     C93474   4.045  10.831   2.677 -0.2773  0.3633 -0.4511
  693MOL0     C93475   3.952  10.752   2.607  0.6061 -0.7531 -0.0644
  693MOL0     C93476   3.818  10.796   2.591 -0.4969  0.3891  0.3268
  693MOL0     C93477   3.778  10.913   2.649  0.4817 -0.2562 -1.0900
  693MOL0     O93478   3.647  10.946   2.633 -0.2941  0.2851 -0.1495
  693MOL0     C93479   3.634  11.081   2.590  0.3139 -0.1811 -0.8276
  693MOL0     C93480   3.498  11.122   2.534  0.5598  0.1725 -0.5932
  693MOL0     C93481   3.392  11.144   2.643 -0.2248 -0.2235  1.1714
  693MOL0     C93482   3.281  11.217   2.564  0.2599 -0.3692 -0.0434
  693MOL0     C93483   3.165  11.227   2.652  0.3996  0.0237 -0.6959
  693MOL0     C93484   3.065  11.253   2.717 -0.4160  0.1398  0.5260
  693MOL0     C93485   3.871  10.998   2.716  0.3343  0.5528 -0.1537
  693MOL0     C93486   4.002  10.961   2.731 -1.0593  0.0235  0.8450
  693MOL0     C93487   4.098  11.069   2.774  0.3282 -0.4035 -0.4834
  693MOL0     H93488   4.286  10.447   2.501  3.7817 -4.3801 -0.6998
  693MOL0     H93489   4.488  10.345   2.493  0.5581 -1.1136  1.6797
  693MOL0     H93490   4.693  10.319   2.672 -2.7017  0.4087 -1.7837
  693MOL0     H93491   4.685  10.280   2.495 -1.5621  0.6303  0.2151
  693MOL0     H93492   4.882  10.195   2.600 -2.5357 -0.5138 -3.0864
  693MOL0     H93493   4.936  10.357   2.658  2.3461  0.6549 -2.1461
  693MOL0     H93494   4.950  10.420   2.414  0.0274  0.2741  1.5683
  693MOL0     H93495   4.909  10.246   2.380 -1.8863 -0.8007  1.6202
  693MOL0     H93496   5.140  10.366   2.563 -0.6955 -1.1332  1.4352
  693MOL0     H93497   5.127  10.196   2.516  1.2410  0.2438  0.5659
  693MOL0     H93498   5.169  10.241   2.295  1.2192 -0.9821  0.6606
  693MOL0     H93499   5.166  10.413   2.312  0.1461  0.2532  0.1087
  693MOL0     H93500   5.369  10.227   2.440  1.4528  0.0894  0.3750
  693MOL0     H93501   5.408  10.349   2.313  0.8147 -0.8887 -0.7397
  693MOL0     H93502   5.382  10.394   2.601  2.1104 -0.7933 -1.0483
  693MOL0     H93503   5.302  10.512   2.491 -0.2478  0.3703 -3.5854
  693MOL0     H93504   5.595  10.428   2.497  2.3837  1.7506 -1.4303
  693MOL0     H93505   5.524  10.509   2.361 -0.5614 -0.7970 -0.0282
  693MOL0     H93506   5.478  10.587   2.748 -0.1107 -0.7183 -0.2531
  693MOL0     H93507   5.452  10.965   2.793  0.5471  1.5373  1.4319
  693MOL0     H93508   5.521  10.835   2.888 -0.4053 -2.4540 -1.6463
  693MOL0     H93509   5.732  10.894   2.824 -1.0096 -2.0720 -0.6916
  693MOL0     H93510   5.680  11.004   2.685  0.2554 -0.8898 -1.2457
  693MOL0     H93511   5.619  11.063   2.973  2.9601 -0.7087  1.4647
  693MOL0     H93512   5.585  11.169   2.828 -1.4311 -2.5931  0.7539
  693MOL0     H93513   5.836  11.185   2.790  0.0102  0.8178  0.2331
  693MOL0     H93514   5.856  11.057   2.917 -0.7512 -0.8583 -0.6269
  693MOL0     H93515   5.821  11.423   3.146 -0.6394 -1.0410 -1.9075
  693MOL0     H93516   6.001  11.501   3.272 -2.0077  0.5129 -0.5332
  693MOL0     H93517   6.483  11.499   3.384 -2.5479 -1.1126 -1.6706
  693MOL0     H93518   6.680  11.651   3.439  0.3243 -0.3216 -0.2162
  693MOL0     H93519   6.897  11.806   3.078 -1.7823 -1.4432  0.2408
  693MOL0     H93520   6.895  11.947   3.174  3.2247  0.7416 -0.6134
  693MOL0     H93521   7.071  11.818   3.324 -0.4720 -1.6603  0.2202
  693MOL0     H93522   7.076  11.701   3.198  0.4674 -0.0757  1.3176
  693MOL0     H93523   7.166  11.866   3.043  1.1000  1.8393 -0.6045
  693MOL0     H93524   7.127  11.999   3.159  1.0465  0.2609 -1.0895
  693MOL0     H93525   7.300  11.758   3.210 -1.0552  0.5244 -2.9218
  693MOL0     H93526   7.318  11.899   3.307  1.5850 -0.1484 -0.4625
  693MOL0     H93527   7.394  12.035   3.115  1.3481 -0.7838  3.5418
  693MOL0     H93528   7.396  11.877   3.020  1.0980 -2.4146  0.2596
  693MOL0     H93529   7.557  11.944   3.277 -2.9374  1.0534  0.4365
  693MOL0     H93530   7.582  11.807   3.165 -1.7074 -0.1403 -0.5103
  693MOL0     H93531   7.742  11.980   3.134 -0.4580  1.0102  0.2917
  693MOL0     H93532   7.626  12.110   3.109  1.4215  0.0999  2.5022
  693MOL0     H93533   7.547  12.008   2.911  0.9754  0.6560 -1.0109
  693MOL0     H93534   7.719  12.039   2.884 -0.9137 -1.3206 -4.2406
  693MOL0     H93535   6.736  11.714   3.010  0.1859 -1.3484 -0.7341
  693MOL0     H93536   6.525  11.597   2.971  0.7734 -1.6174  0.0394
  693MOL0     H93537   6.268  11.258   3.020 -0.8660 -0.5162 -2.1913
  693MOL0     H93538   6.062  11.164   2.900  1.2597  0.2061 -0.4934
  693MOL0     H93539   4.687  10.714   2.590 -1.2096  2.0752 -2.2093
  693MOL0     H93540   4.469  10.824   2.626 -0.2555 -0.2271 -0.5010
  693MOL0     H93541   3.969  10.657   2.557  1.6302 -0.3202 -0.5536
  693MOL0     H93542   3.734  10.744   2.545 -1.7238  2.0712  0.5862
  693MOL0     H93543   3.699  11.091   2.503 -1.3137 -0.6862 -2.1690
  693MOL0     H93544   3.655  11.151   2.671 -2.1202  2.0339 -1.9825
  693MOL0     H93545   3.459  11.043   2.469 -3.2097 -2.3475  4.1137
  693MOL0     H93546   3.521  11.214   2.480  1.1215 -0.4201 -1.3994
  693MOL0     H93547   3.434  11.195   2.731  0.1856  1.8775 -0.1739
  693MOL0     H93548   3.353  11.045   2.668 -0.4817 -1.5111 -3.4550
  693MOL0     H93549   3.320  11.316   2.540  0.4630 -0.4721 -0.1474
  693MOL0     H93550   3.255  11.158   2.475  2.3823  1.5239 -2.0600
  693MOL0     H93551   2.978  11.275   2.775 -1.6549  1.1828 -1.5997
  693MOL0     H93552   3.842  11.094   2.759  1.2548 -0.4275  2.9270
  693MOL0     H93553   4.073  11.169   2.736  0.8510  0.3103  0.9358
  693MOL0     H93554   4.092  11.076   2.883  3.0051  1.9165 -0.3650
  693MOL0     H93555   4.199  11.047   2.739  0.9002 -0.6734  1.2116
  694MOL0     O93556   2.372   5.166   6.377  0.0002 -0.1718  0.3327
  694MOL0     C93557   2.297   5.088   6.312  0.0706  1.0045 -0.8694
  694MOL0     O93558   2.314   4.949   6.288 -0.5014  0.9512 -0.6322
  694MOL0     C93559   2.395   4.872   6.371  0.0690  0.8255 -0.0821
  694MOL0     C93560   2.437   4.907   6.498 -0.2194  0.4233  1.0931
  694MOL0     C93561   2.510   4.823   6.587 -0.2202  0.2744 -0.6979
  694MOL0     C93562   2.558   4.697   6.535  0.2333 -0.4052 -0.2267
  694MOL0     O93563   2.639   4.612   6.607  0.6621  0.3854  0.3630
  694MOL0     C93564   2.631   4.605   6.748  0.5559 -0.5317  0.6354
  694MOL0     C93565   2.712   4.487   6.805 -0.0236 -0.3000 -0.8325
  694MOL0     C93566   2.864   4.511   6.784 -0.0826  0.8570 -0.3298
  694MOL0     C93567   2.946   4.422   6.887 -0.4716 -0.7437 -0.1925
  694MOL0     C93568   3.090   4.427   6.851 -0.3087 -1.2484 -0.9079
  694MOL0     C93569   3.166   4.305   6.908 -0.8832 -0.3302 -0.0873
  694MOL0     C93570   3.329   4.305   6.907 -0.4849 -0.2989  0.0015
  694MOL0     C93571   3.389   4.305   6.769  0.0262  0.2306  0.1032
  694MOL0     N93572   3.537   4.278   6.772 -0.2800  0.1291 -0.6354
  694MOL0     C93573   3.616   4.210   6.680 -0.0830  0.4827  0.1777
  694MOL0     C93574   3.747   4.209   6.720 -0.0891  0.3678  0.5947
  694MOL0     C93575   3.871   4.174   6.628 -0.1637 -0.4841 -0.1247
  694MOL0     C93576   3.995   4.242   6.680  1.2642  0.0755  0.5691
  694MOL0     C93577   4.117   4.204   6.586  0.5231  0.3682 -0.7574
  694MOL0     C93578   4.250   4.273   6.635  0.7808  0.5921 -0.4340
  694MOL0     O93579   4.314   4.207   6.743 -0.1543  0.1928 -0.0209
  694MOL0     C93580   4.449   4.212   6.762  0.7364 -0.2867  0.3009
  694MOL0     C93581   4.507   4.134   6.864 -0.2707  0.0702  1.1907
  694MOL0     C93582   4.651   4.128   6.878  0.2031  0.9356  0.3547
  694MOL0     C93583   4.725   4.214   6.800 -0.6697 -0.5719 -0.6364
  694MOL0     C93584   4.876   4.215   6.822 -0.2813 -0.4386  0.4226
  694MOL0     O93585   4.928   4.137   6.925 -0.4394 -0.3970  0.3547
  694MOL0     C93586   5.062   4.151   6.959 -0.8827 -0.1526  0.1204
  694MOL0     C93587   5.165   4.127   6.864  0.1475  0.8109 -0.1836
  694MOL0     C93588   5.296   4.137   6.924  0.6980 -0.8277  0.2029
  694MOL0     C93589   5.320   4.164   7.059 -0.5407 -0.0944  0.0645
  694MOL0     O93590   5.446   4.173   7.115 -0.6095  0.3738  0.3289
  694MOL0     C93591   5.553   4.124   7.035  0.4603  0.3006 -0.1620
  694MOL0     C93592   5.679   4.111   7.114 -0.1632  0.2371  0.8070
  694MOL0     C93593   5.707   3.966   7.162  1.2034 -0.4452  0.1508
  694MOL0     C93594   5.778   3.885   7.051  0.1974 -0.9154  0.1832
  694MOL0     C93595   5.860   3.770   7.100 -0.2526 -0.0478  0.0507
  694MOL0     C93596   5.768   3.648   7.132  1.2006 -0.7699 -0.9203
  694MOL0     C93597   5.851   3.524   7.152  0.3555  1.0014  0.1131
  694MOL0     C93598   5.779   3.399   7.186 -0.3632 -0.2153 -0.0475
  694MOL0    Cl93599   5.613   3.410   7.257  0.1613  0.0153  0.1758
  694MOL0     C93600   5.209   4.179   7.135  0.4713  0.0089 -0.5424
  694MOL0     C93601   5.080   4.180   7.094 -0.2997 -0.4375  0.9974
  694MOL0     O93602   4.944   4.302   6.759 -0.1308 -0.0115  0.9041
  694MOL0     C93603   4.673   4.293   6.703 -0.3042 -0.5789  0.2262
  694MOL0     C93604   4.533   4.299   6.691 -0.0251 -0.3298 -0.9875
  694MOL0     N93605   3.744   4.276   6.840 -0.0936  0.3012  1.3686
  694MOL0     N93606   3.619   4.310   6.870 -0.1569 -0.2400  0.1565
  694MOL0     C93607   2.513   4.662   6.409  1.2474 -0.1416 -0.5608
  694MOL0     C93608   2.435   4.742   6.330 -0.0764  0.0301  0.0605
  694MOL0     C93609   2.168   5.149   6.272 -0.0018 -0.9614  1.1375
  694MOL0     C93610   2.074   5.061   6.209 -0.2717  0.4156 -0.7387
  694MOL0     C93611   1.956   5.112   6.148  0.0553  0.2273 -0.3323
  694MOL0     C93612   1.924   5.244   6.162 -0.0168 -0.1456 -0.3297
  694MOL0     O93613   1.800   5.276   6.113 -0.1491 -0.7022 -0.7852
  694MOL0     C93614   1.773   5.413   6.072 -0.1881 -0.2800 -0.8781
  694MOL0     C93615   1.670   5.429   5.961  0.1434 -0.2383 -0.5187
  694MOL0     C93616   1.529   5.422   6.017  0.2867 -0.1464 -1.1836
  694MOL0     C93617   1.418   5.460   5.925  0.4379 -0.0220 -0.6117
  694MOL0     C93618   1.395   5.371   5.812  0.1655 -0.5821 -0.1841
  694MOL0     C93619   1.374   5.287   5.727 -0.3660  0.2592 -0.2564
  694MOL0     C93620   2.019   5.331   6.209  0.5324 -0.4618  0.5899
  694MOL0     C93621   2.130   5.287   6.289 -0.3162 -0.2494  0.1459
  694MOL0     C93622   2.213   5.404   6.336  1.0720 -0.5150 -0.3525
  694MOL0     H93623   2.402   5.003   6.536  0.3927  0.2690  2.0822
  694MOL0     H93624   2.546   4.872   6.676  2.8713 -0.0537 -1.6530
  694MOL0     H93625   2.649   4.702   6.796 -2.2029  0.0055  0.7641
  694MOL0     H93626   2.528   4.581   6.775  0.3321 -0.9267 -0.4938
  694MOL0     H93627   2.688   4.397   6.748 -0.6779  1.5291 -3.6606
  694MOL0     H93628   2.677   4.487   6.909  2.0891  1.4881 -0.0333
  694MOL0     H93629   2.891   4.613   6.815 -4.0736  1.1307  3.2581
  694MOL0     H93630   2.893   4.482   6.683 -1.9837  0.4506 -0.8002
  694MOL0     H93631   2.931   4.462   6.987 -1.7187  1.8484 -1.3060
  694MOL0     H93632   2.923   4.315   6.879  1.3607 -1.1388 -0.5730
  694MOL0     H93633   3.095   4.409   6.743  0.2757 -0.1123 -1.0924
  694MOL0     H93634   3.138   4.523   6.876 -1.2113 -0.4961 -1.9732
  694MOL0     H93635   3.135   4.312   7.013 -1.1463 -0.6713 -0.1404
  694MOL0     H93636   3.125   4.216   6.859 -3.6821  0.8896 -0.1800
  694MOL0     H93637   3.368   4.219   6.963 -1.7711 -0.2053  1.1151
  694MOL0     H93638   3.365   4.393   6.961  0.7706  0.8395 -2.5518
  694MOL0     H93639   3.341   4.223   6.714 -2.0299  0.0289  2.0244
  694MOL0     H93640   3.368   4.402   6.722 -1.3279 -0.0041  0.1794
  694MOL0     H93641   3.580   4.177   6.583 -2.2182  1.8096  0.4683
  694MOL0     H93642   3.892   4.066   6.630 -0.2533 -0.4950  1.3632
  694MOL0     H93643   3.850   4.205   6.526 -2.2147  0.1734  0.4559
  694MOL0     H93644   3.984   4.350   6.665  2.7240  0.0178 -1.3415
  694MOL0     H93645   4.032   4.209   6.777  1.7658 -3.6340 -0.7486
  694MOL0     H93646   4.089   4.242   6.488  0.9892  1.9449 -0.3148
  694MOL0     H93647   4.144   4.098   6.580 -0.9269  0.0128 -1.2627
  694MOL0     H93648   4.240   4.377   6.667 -2.1692  0.6291 -1.1540
  694MOL0     H93649   4.312   4.266   6.545 -0.4513 -2.4668 -1.1618
  694MOL0     H93650   4.444   4.063   6.916  1.1345 -1.8550  0.3879
  694MOL0     H93651   4.690   4.052   6.944  0.3091 -1.9829 -2.8047
  694MOL0     H93652   5.130   4.110   6.763  0.6616  0.1246 -0.2500
  694MOL0     H93653   5.384   4.127   6.862  2.8809 -0.1952  3.0064
  694MOL0     H93654   5.537   4.029   6.985  2.2919  0.5072 -1.2121
  694MOL0     H93655   5.558   4.199   6.955 -1.5896  1.2134  0.4793
  694MOL0     H93656   5.761   4.157   7.059 -1.8254  1.0595 -1.0734
  694MOL0     H93657   5.672   4.164   7.210  0.7935  0.3961  0.7987
  694MOL0     H93658   5.775   3.967   7.247  2.4053 -1.6733 -0.7527
  694MOL0     H93659   5.619   3.913   7.198  1.8897 -1.9068 -0.2390
  694MOL0     H93660   5.841   3.957   6.997 -1.6284  0.8178  0.2297
  694MOL0     H93661   5.696   3.859   6.983 -1.1052 -1.4703  1.8878
  694MOL0     H93662   5.915   3.808   7.187 -2.3100 -0.2840  1.5583
  694MOL0     H93663   5.922   3.745   7.014 -0.5804  1.0528 -0.5249
  694MOL0     H93664   5.708   3.673   7.220  1.2071  0.7310 -1.3158
  694MOL0     H93665   5.697   3.637   7.050 -0.2373  0.7373  0.0559
  694MOL0     H93666   5.917   3.543   7.238  0.2192  0.3940  0.3591
  694MOL0     H93667   5.921   3.503   7.071 -1.2976 -2.6904 -0.5220
  694MOL0     H93668   5.765   3.333   7.100  0.1993 -2.6278  1.6246
  694MOL0     H93669   5.848   3.342   7.249 -0.0990  0.8370  0.6351
  694MOL0     H93670   5.221   4.189   7.243  0.3724  0.3415 -0.5612
  694MOL0     H93671   4.993   4.180   7.159 -0.7022 -0.3948  0.4640
  694MOL0     H93672   4.738   4.353   6.639 -0.2682 -2.9667 -2.1455
  694MOL0     H93673   4.490   4.356   6.610 -1.1803  0.0941 -0.0992
  694MOL0     H93674   2.543   4.560   6.388  2.0119 -1.1412  4.2067
  694MOL0     H93675   2.402   4.718   6.230  4.3266  2.5179 -2.3367
  694MOL0     H93676   2.090   4.954   6.203 -0.5064  0.0839  2.4426
  694MOL0     H93677   1.881   5.058   6.090 -2.1867  2.1968  0.5919
  694MOL0     H93678   1.863   5.461   6.032 -0.6407 -0.1987 -1.8460
  694MOL0     H93679   1.741   5.470   6.159 -0.9546 -3.2501  0.9247
  694MOL0     H93680   1.688   5.348   5.889  0.3940 -1.5132  0.9348
  694MOL0     H93681   1.665   5.532   5.925 -0.8859  0.4389  1.4342
  694MOL0     H93682   1.521   5.482   6.109 -0.3399 -3.8313  1.4035
  694MOL0     H93683   1.515   5.320   6.055 -1.1093  0.3286 -0.3320
  694MOL0     H93684   1.324   5.467   5.980  0.5393  1.1968 -0.5625
  694MOL0     H93685   1.438   5.561   5.888  1.2070  0.3568  0.7812
  694MOL0     H93686   1.354   5.212   5.654  2.4778 -1.1643  0.3198
  694MOL0     H93687   1.991   5.433   6.185 -3.6986 -1.6035 -0.1559
  694MOL0     H93688   2.313   5.385   6.296  1.0154  0.6605 -1.0703
  694MOL0     H93689   2.183   5.502   6.298  4.1533  0.7315  0.1632
  694MOL0     H93690   2.220   5.420   6.444  0.0476  1.4008 -0.5219
  695MOL0     O93691  10.942   0.987   1.283  0.1667  0.3153  0.0173
  695MOL0     C93692  11.035   0.986   1.201 -1.4200  0.5780  0.4800
  695MOL0     O93693  11.104   1.094   1.158 -0.1004 -0.9200 -0.6289
  695MOL0     C93694  11.081   1.215   1.221 -0.5943 -0.5199 -0.7968
  695MOL0     C93695  11.191   1.300   1.245  0.3734  0.4486  0.1224
  695MOL0     C93696  11.177   1.434   1.295  0.4958 -0.0573 -0.2602
  695MOL0     C93697  11.050   1.485   1.313 -0.1592 -0.0556  0.2374
  695MOL0     O93698  11.054   1.619   1.350  0.3477  0.1654 -0.0528
  695MOL0     C93699  10.945   1.704   1.334  0.4717 -0.3464  1.2117
  695MOL0     C93700  10.875   1.739   1.473 -1.0696 -0.1156 -0.1396
  695MOL0     C93701  10.728   1.780   1.462  0.0445 -0.0822 -0.3885
  695MOL0     C93702  10.702   1.886   1.354  0.1548 -0.2174 -0.2653
  695MOL0     C93703  10.553   1.920   1.331  0.2228 -0.7012 -0.5058
  695MOL0     C93704  10.487   1.977   1.461  0.1831 -0.5699 -0.1234
  695MOL0     C93705  10.490   2.141   1.464 -0.1897 -0.2373 -0.4982
  695MOL0     C93706  10.380   2.197   1.556  0.7630 -0.4544 -0.1027
  695MOL0     N93707  10.383   2.341   1.570  0.5084 -0.5473  0.1255
  695MOL0     C93708  10.494   2.421   1.563  1.1049  0.3643  0.2924
  695MOL0     C93709  10.454   2.540   1.603 -0.5361 -0.4582  0.1414
  695MOL0     C93710  10.550   2.643   1.643 -0.0974  0.2007 -0.0227
  695MOL0     C93711  10.672   2.591   1.731  0.4730  0.3939  0.9284
  695MOL0     C93712  10.783   2.690   1.765 -0.5911 -0.3507  0.0697
  695MOL0     C93713  10.923   2.621   1.758  0.8910 -0.5626  0.4278
  695MOL0     O93714  11.025   2.723   1.764 -0.2939  0.4971 -0.2201
  695MOL0     C93715  11.073   2.773   1.884  0.0891  0.6847  0.7606
  695MOL0     C93716  11.166   2.885   1.885  0.6410  0.5261 -0.3416
  695MOL0     C93717  11.215   2.940   2.005  1.6920  0.6887  0.0352
  695MOL0     C93718  11.182   2.878   2.127  0.5369  0.1272 -0.0851
  695MOL0     C93719  11.239   2.939   2.252  1.5273 -0.7346 -0.3508
  695MOL0     O93720  11.216   2.880   2.373  0.1176  0.6780  0.7534
  695MOL0     C93721  11.277   2.940   2.488  0.2185  1.2082 -0.1286
  695MOL0     C93722  11.410   2.979   2.493  1.4134  0.4044 -0.7081
  695MOL0     C93723  11.477   3.042   2.604 -0.4848  0.1583  0.9256
  695MOL0     C93724  11.404   3.058   2.728 -0.9425  0.5668 -0.3094
  695MOL0     O93725  11.483   3.103   2.828  0.1003 -0.4404 -0.1694
  695MOL0     C93726  11.436   3.099   2.959  0.1601  0.1272 -0.4433
  695MOL0     C93727  11.541   3.166   3.044 -0.3185  0.2778  0.4566
  695MOL0     C93728  11.500   3.183   3.188  0.0902  0.6757  0.4381
  695MOL0     C93729  11.474   3.046   3.254  0.1675  0.8032 -0.0131
  695MOL0     C93730  11.424   3.045   3.407  0.5638  0.0297  0.6515
  695MOL0     C93731  11.527   3.117   3.487  0.5820  0.5036  0.3088
  695MOL0     C93732  11.484   3.136   3.631 -0.2067  0.5903  0.5821
  695MOL0     C93733  11.606   3.157   3.716 -0.2554  0.4218  0.6351
  695MOL0    Cl93734  11.689   3.307   3.664 -0.2834  0.2733 -0.3398
  695MOL0     C93735  11.263   3.024   2.724  0.1093 -0.1732 -0.3584
  695MOL0     C93736  11.199   2.958   2.611 -1.0238  0.4765 -0.5180
  695MOL0     O93737  11.299   3.045   2.235 -0.2141 -0.1227 -1.1991
  695MOL0     C93738  11.086   2.775   2.128 -0.9467 -0.4757  0.5749
  695MOL0     C93739  11.027   2.724   2.010 -0.3247 -0.2321  0.2110
  695MOL0     N93740  10.318   2.534   1.615  0.0455  0.6466  0.0996
  695MOL0     N93741  10.276   2.418   1.585 -0.1011  0.0932 -0.2884
  695MOL0     C93742  10.941   1.410   1.285 -0.1544  0.1102  0.1131
  695MOL0     C93743  10.950   1.270   1.256  0.5723 -0.3352 -0.5861
  695MOL0     C93744  11.097   0.861   1.157 -0.1606  0.2302  0.3113
  695MOL0     C93745  11.153   0.856   1.036 -0.1205  0.2924 -0.4631
  695MOL0     C93746  11.204   0.742   0.969 -0.6532 -0.4395 -0.5866
  695MOL0     C93747  11.211   0.624   1.041  0.5120  0.4792 -0.2328
  695MOL0     O93748  11.258   0.501   0.999  0.3536 -0.5394  0.2046
  695MOL0     C93749  11.341   0.499   0.883 -0.2501 -0.6006  0.2827
  695MOL0     C93750  11.259   0.497   0.750  0.6565  0.0131 -0.0913
  695MOL0     C93751  11.167   0.372   0.752 -1.1333  0.4268  0.7140
  695MOL0     C93752  11.086   0.361   0.619 -0.1909  0.2409 -0.2931
  695MOL0     C93753  11.178   0.363   0.501  0.1942  1.0347 -0.8664
  695MOL0     C93754  11.250   0.363   0.405 -0.3837  0.4241 -0.0889
  695MOL0     C93755  11.164   0.621   1.171  0.0913  0.0771  0.5124
  695MOL0     C93756  11.098   0.731   1.225 -0.3589 -0.5031  0.4675
  695MOL0     C93757  11.037   0.719   1.358  1.1015 -0.2205 -0.0229
  695MOL0     H93758  11.289   1.274   1.206  0.3812  0.9602 -0.2004
  695MOL0     H93759  11.270   1.485   1.319  0.6192 -0.8870  1.1394
  695MOL0     H93760  10.985   1.798   1.294 -2.9054  1.7776  2.4308
  695MOL0     H93761  10.862   1.661   1.276 -1.1223  1.4146  2.0797
  695MOL0     H93762  10.918   1.826   1.521 -0.5067 -0.8709  0.7561
  695MOL0     H93763  10.879   1.657   1.545 -1.6743  0.9960  1.1901
  695MOL0     H93764  10.697   1.823   1.558  0.1642 -0.4077 -0.2037
  695MOL0     H93765  10.661   1.694   1.454  2.7665 -2.6859  2.0492
  695MOL0     H93766  10.750   1.980   1.384 -0.5460 -0.0485  0.3847
  695MOL0     H93767  10.741   1.856   1.257  0.2129  0.3484 -0.4186
  695MOL0     H93768  10.543   1.994   1.250  0.4312  0.9621  0.9212
  695MOL0     H93769  10.510   1.830   1.287 -2.8878  0.8293 -0.9063
  695MOL0     H93770  10.386   1.935   1.462 -0.9598  1.9635  2.0071
  695MOL0     H93771  10.545   1.941   1.547 -0.6208  0.5955  0.9366
  695MOL0     H93772  10.483   2.197   1.371 -0.2309 -0.2020 -0.4738
  695MOL0     H93773  10.591   2.164   1.499 -0.8813  2.0672  0.1790
  695MOL0     H93774  10.285   2.175   1.507  0.7150 -2.7688  0.8814
  695MOL0     H93775  10.386   2.144   1.652  0.9098  0.9719  0.7006
  695MOL0     H93776  10.598   2.390   1.552  1.6234  1.4234  1.7756
  695MOL0     H93777  10.587   2.686   1.550  2.1074  1.6141  1.4017
  695MOL0     H93778  10.494   2.713   1.705 -0.2151 -0.0983  0.2096
  695MOL0     H93779  10.632   2.552   1.824 -1.5086 -2.1700 -0.8607
  695MOL0     H93780  10.722   2.504   1.687 -0.0597 -1.5498  3.9376
  695MOL0     H93781  10.762   2.733   1.864 -2.0354  2.2377 -1.2474
  695MOL0     H93782  10.776   2.775   1.696 -0.3242 -1.5173 -1.4312
  695MOL0     H93783  10.920   2.570   1.661 -2.3511 -2.2386  1.2525
  695MOL0     H93784  10.923   2.537   1.828 -5.2829 -1.7513 -0.4251
  695MOL0     H93785  11.194   2.929   1.790 -0.3094  1.4422 -0.2221
  695MOL0     H93786  11.274   3.031   2.010 -1.0994  2.8027 -1.9982
  695MOL0     H93787  11.472   2.962   2.405  1.3725  0.1875 -0.6950
  695MOL0     H93788  11.579   3.080   2.602  0.1689 -1.4033 -2.2624
  695MOL0     H93789  11.337   3.142   2.974 -0.1721  0.2399 -2.6041
  695MOL0     H93790  11.426   2.996   2.995  0.4484  0.2457 -0.0123
  695MOL0     H93791  11.632   3.105   3.045  0.9763  2.1165  2.0472
  695MOL0     H93792  11.559   3.270   3.015 -2.0286 -0.0584 -2.1369
  695MOL0     H93793  11.580   3.238   3.239 -0.0256  3.2325 -1.8754
  695MOL0     H93794  11.407   3.241   3.190 -1.2772 -1.0782 -3.1232
  695MOL0     H93795  11.566   2.986   3.253  0.6352  1.4995  0.5691
  695MOL0     H93796  11.399   2.990   3.197  0.6071  1.5417 -1.3581
  695MOL0     H93797  11.422   2.939   3.435  2.0110 -0.1635  0.0999
  695MOL0     H93798  11.324   3.089   3.403  1.1550  1.3724 -0.2747
  695MOL0     H93799  11.626   3.071   3.475  2.5862  3.5814  3.2207
  695MOL0     H93800  11.524   3.212   3.432  1.1291 -1.1693 -2.8348
  695MOL0     H93801  11.436   3.045   3.669 -0.4844 -0.8824 -2.8648
  695MOL0     H93802  11.425   3.227   3.642 -1.0771  0.2154 -0.6914
  695MOL0     H93803  11.580   3.176   3.820  1.4062  2.3560  0.7661
  695MOL0     H93804  11.674   3.071   3.718 -1.1915 -0.3346  0.4724
  695MOL0     H93805  11.199   3.027   2.811  0.3989  1.4300 -0.1762
  695MOL0     H93806  11.096   2.926   2.618 -0.5891 -1.0515 -0.7373
  695MOL0     H93807  11.075   2.726   2.224  0.1297  0.2936  1.1086
  695MOL0     H93808  10.955   2.643   2.011 -0.6984  0.0986  1.7280
  695MOL0     H93809  10.842   1.448   1.306 -0.6558 -1.7695  1.4655
  695MOL0     H93810  10.855   1.218   1.243  0.5855 -0.3285 -0.7188
  695MOL0     H93811  11.152   0.946   0.975 -0.5683 -1.7394 -3.7254
  695MOL0     H93812  11.244   0.747   0.868  0.4556 -3.1306 -0.3423
  695MOL0     H93813  11.408   0.414   0.879  2.1010  1.1864 -0.4718
  695MOL0     H93814  11.404   0.588   0.880  0.6891 -1.2681 -0.6293
  695MOL0     H93815  11.336   0.483   0.674 -0.1472 -2.6982 -0.5311
  695MOL0     H93816  11.199   0.586   0.727  1.4923  0.4729 -0.5418
  695MOL0     H93817  11.100   0.366   0.838  0.4649 -4.6342  1.9681
  695MOL0     H93818  11.230   0.283   0.762 -1.8852  0.0293  2.0620
  695MOL0     H93819  11.038   0.263   0.622 -0.8125  0.5622  0.8680
  695MOL0     H93820  11.008   0.437   0.605 -0.9203 -0.9683 -4.2296
  695MOL0     H93821  11.327   0.372   0.331  0.9557 -0.5574  1.1275
  695MOL0     H93822  11.178   0.531   1.229  1.8149 -0.8580 -1.2331
  695MOL0     H93823  11.075   0.793   1.429  1.6520  0.7968 -1.3244
  695MOL0     H93824  10.934   0.750   1.335  1.0618  0.4465  1.0150
  695MOL0     H93825  11.042   0.621   1.404 -2.9758 -1.2651 -1.3323
  696MOL0     O93826   9.391   9.433   6.476 -0.0641 -0.3542  0.3742
  696MOL0     C93827   9.325   9.347   6.419  0.0424 -0.3685 -0.1341
  696MOL0     O93828   9.230   9.374   6.331 -0.0558  0.2680  0.6467
  696MOL0     C93829   9.172   9.495   6.302 -0.0583 -0.1552  0.7449
  696MOL0     C93830   9.058   9.477   6.216 -0.8466  0.7357  0.3212
  696MOL0     C93831   9.004   9.591   6.157 -0.1375  0.8200  0.5917
  696MOL0     C93832   9.036   9.713   6.215  0.5753  0.4048  0.5284
  696MOL0     O93833   8.971   9.826   6.178 -0.4632  0.0468  0.5427
  696MOL0     C93834   8.861   9.822   6.089  0.2669  0.6257  0.0059
  696MOL0     C93835   8.912   9.839   5.943 -0.5062 -0.9985 -0.4680
  696MOL0     C93836   8.806   9.901   5.850  0.5146  0.0495  0.1839
  696MOL0     C93837   8.818   9.852   5.709 -0.1259 -0.7152 -0.6123
  696MOL0     C93838   8.717   9.931   5.627 -0.2265 -0.4892 -0.6425
  696MOL0     C93839   8.714   9.904   5.475  0.5435  0.2426 -0.4317
  696MOL0     C93840   8.649  10.024   5.402  0.5238  0.7990 -1.9208
  696MOL0     C93841   8.645  10.009   5.249  0.3706 -0.6687  0.1901
  696MOL0     N93842   8.742  10.084   5.185 -0.8377 -0.3458  0.6714
  696MOL0     C93843   8.711  10.188   5.093  0.4658  0.2811 -0.5495
  696MOL0     C93844   8.831  10.228   5.053  0.0505 -0.3766 -0.8481
  696MOL0     C93845   8.866  10.345   4.967 -0.0135  0.5101 -0.6644
  696MOL0     C93846   8.808  10.292   4.831  0.4721 -0.7122  0.7068
  696MOL0     C93847   8.753  10.409   4.737 -0.2948 -0.4902  0.3808
  696MOL0     C93848   8.854  10.524   4.717 -0.0222  0.0321 -0.4941
  696MOL0     O93849   8.792  10.640   4.678 -0.3472 -0.7906 -0.2845
  696MOL0     C93850   8.780  10.682   4.550  0.6069 -0.5752  0.5009
  696MOL0     C93851   8.687  10.794   4.537 -0.9772  1.6191  0.4095
  696MOL0     C93852   8.655  10.854   4.409  0.1394 -0.0605 -0.8727
  696MOL0     C93853   8.708  10.795   4.293  0.1475 -0.8415 -0.6331
  696MOL0     C93854   8.673  10.862   4.169  0.3440 -0.2717  0.0010
  696MOL0     O93855   8.603  10.982   4.176 -0.3680  0.2874  0.3362
  696MOL0     C93856   8.560  11.038   4.062 -0.8909 -0.6583 -0.1138
  696MOL0     C93857   8.650  11.090   3.964  0.6192  0.1162  0.4828
  696MOL0     C93858   8.593  11.163   3.856 -0.6464 -0.1716  0.2429
  696MOL0     C93859   8.455  11.170   3.839  0.0924  0.3701  0.1460
  696MOL0     O93860   8.392  11.247   3.744  0.4047  1.3556  0.0299
  696MOL0     C93861   8.303  11.357   3.768  0.9668  0.1438  0.2199
  696MOL0     C93862   8.153  11.318   3.736 -0.4661  0.0394 -0.1961
  696MOL0     C93863   8.143  11.314   3.589 -0.6584  0.3599  0.6032
  696MOL0     C93864   8.025  11.233   3.540  0.1809 -0.0792  0.3416
  696MOL0     C93865   7.905  11.264   3.617 -0.2876 -0.4858 -0.4815
  696MOL0     C93866   7.780  11.206   3.550 -0.1049 -0.0978 -0.9181
  696MOL0     C93867   7.655  11.223   3.639  0.7910  0.0302 -1.1310
  696MOL0     C93868   7.538  11.140   3.583 -0.1464 -0.2063 -0.3428
  696MOL0    Cl93869   7.415  11.133   3.709  0.1672  0.0040  0.0324
  696MOL0     C93870   8.370  11.114   3.937  0.4724 -1.3829  0.5289
  696MOL0     C93871   8.421  11.048   4.045 -0.3489  0.0296  0.0578
  696MOL0     O93872   8.723  10.808   4.067  0.0981 -0.5793 -0.4949
  696MOL0     C93873   8.781  10.680   4.307  0.1081 -0.2396 -0.1133
  696MOL0     C93874   8.823  10.623   4.430 -0.3219 -0.2503  0.4922
  696MOL0     N93875   8.931  10.145   5.108  0.0923 -0.0945  0.1989
  696MOL0     N93876   8.872  10.057   5.182 -0.2040  0.9686  0.6840
  696MOL0     C93877   9.126   9.724   6.311  0.3496 -0.4757  0.3603
  696MOL0     C93878   9.202   9.614   6.348 -0.0274 -0.8926  0.2178
  696MOL0     C93879   9.358   9.208   6.455  0.3803 -0.6597  0.1595
  696MOL0     C93880   9.396   9.178   6.588  0.6956 -0.1499 -0.4071
  696MOL0     C93881   9.404   9.044   6.631  0.4708 -1.0281  0.2059
  696MOL0     C93882   9.377   8.945   6.540 -1.0188 -0.0850  0.5849
  696MOL0     O93883   9.392   8.817   6.581  0.3301 -0.0828  0.4499
  696MOL0     C93884   9.313   8.772   6.697 -0.6289  0.8007  1.1354
  696MOL0     C93885   9.165   8.759   6.663  0.6657 -0.0841  0.7040
  696MOL0     C93886   9.131   8.693   6.525 -0.1377 -0.0177 -0.4149
  696MOL0     C93887   8.987   8.669   6.496  0.4559  0.3435 -0.1075
  696MOL0     C93888   8.945   8.563   6.590 -0.5756 -0.5187 -0.4481
  696MOL0     C93889   8.927   8.468   6.664  0.1703 -0.5346  1.3195
  696MOL0     C93890   9.345   8.974   6.407 -0.2348 -0.2159  0.4870
  696MOL0     C93891   9.341   9.104   6.358 -0.3506  0.6471  0.5946
  696MOL0     C93892   9.312   9.119   6.211  0.7210  0.1222 -0.0217
  696MOL0     H93893   9.015   9.381   6.189  0.1501  1.1880 -3.3550
  696MOL0     H93894   8.934   9.590   6.074 -0.8347  2.7152  1.0930
  696MOL0     H93895   8.802   9.731   6.105 -1.0151  1.4202 -0.0864
  696MOL0     H93896   8.799   9.910   6.108  0.3354  0.3821  1.5191
  696MOL0     H93897   8.942   9.741   5.904 -1.5724 -3.5615  4.2606
  696MOL0     H93898   8.997   9.907   5.944 -2.2710  1.3904  1.9496
  696MOL0     H93899   8.813  10.010   5.855  3.0232 -0.0546  0.1915
  696MOL0     H93900   8.705   9.876   5.883 -0.4187  1.7744 -1.2369
  696MOL0     H93901   8.919   9.874   5.674 -0.5993  2.4182 -0.3077
  696MOL0     H93902   8.789   9.746   5.700  2.6294 -1.5279 -0.8696
  696MOL0     H93903   8.615   9.915   5.661 -0.5255 -2.0683 -2.1105
  696MOL0     H93904   8.740  10.037   5.637  0.0102 -0.5616 -0.4051
  696MOL0     H93905   8.815   9.891   5.434  1.9326  1.1771  2.4383
  696MOL0     H93906   8.655   9.813   5.461  0.7349  0.0518 -0.0072
  696MOL0     H93907   8.709  10.107   5.440  3.0860 -2.5785  2.3785
  696MOL0     H93908   8.547  10.033   5.443  0.9138 -2.2440  0.0285
  696MOL0     H93909   8.661   9.903   5.225  2.2806 -0.7913  1.7538
  696MOL0     H93910   8.550  10.034   5.201  0.7368 -1.1003 -0.7928
  696MOL0     H93911   8.614  10.237   5.086 -0.1033  0.0084  3.2693
  696MOL0     H93912   8.819  10.435   5.008 -0.7836  0.7844 -2.1013
  696MOL0     H93913   8.974  10.351   4.958  0.2082 -2.2507 -0.8227
  696MOL0     H93914   8.874  10.231   4.769 -0.5299 -1.0596 -0.0484
  696MOL0     H93915   8.722  10.225   4.848  0.3571 -0.4196  1.3218
  696MOL0     H93916   8.663  10.454   4.779 -0.1532  0.1513  0.0193
  696MOL0     H93917   8.728  10.372   4.637  2.7663  0.3021 -0.8123
  696MOL0     H93918   8.942  10.498   4.658  0.4020  0.4833 -0.0705
  696MOL0     H93919   8.896  10.556   4.813 -0.5998  2.6680 -1.0512
  696MOL0     H93920   8.653  10.834   4.632  0.1902 -0.7121  1.9291
  696MOL0     H93921   8.581  10.933   4.415 -0.6488 -0.8798  0.8806
  696MOL0     H93922   8.757  11.077   3.970  0.8838  2.4087  4.2513
  696MOL0     H93923   8.657  11.216   3.787  0.8920 -0.4928  1.3684
  696MOL0     H93924   8.310  11.396   3.870 -0.7341  0.0196  0.4164
  696MOL0     H93925   8.338  11.440   3.706  0.6630  1.1746  1.3840
  696MOL0     H93926   8.129  11.230   3.796 -1.6168 -0.8544 -1.8891
  696MOL0     H93927   8.089  11.400   3.770 -1.4252 -0.2016 -1.3541
  696MOL0     H93928   8.149  11.419   3.558  3.6782 -0.5242 -2.5464
  696MOL0     H93929   8.235  11.270   3.550  0.4849  2.9360  0.1691
  696MOL0     H93930   8.050  11.127   3.528  1.7861  0.3882 -0.9889
  696MOL0     H93931   8.001  11.287   3.448  1.7809 -0.0912 -0.1294
  696MOL0     H93932   7.898  11.372   3.633  0.8063 -0.4624 -0.1090
  696MOL0     H93933   7.922  11.230   3.719  3.2110  2.4694  0.1336
  696MOL0     H93934   7.768  11.248   3.450 -0.5974 -0.8897 -1.1951
  696MOL0     H93935   7.802  11.100   3.540 -1.1384 -0.6507  1.8493
  696MOL0     H93936   7.612  11.323   3.648 -1.5517 -1.0409  0.3804
  696MOL0     H93937   7.663  11.181   3.740 -0.3958 -0.6419 -1.2990
  696MOL0     H93938   7.488  11.187   3.498  1.6686  0.1525 -1.2458
  696MOL0     H93939   7.566  11.036   3.563  0.0972 -0.4657  1.1812
  696MOL0     H93940   8.263  11.129   3.930  0.7038  2.7963  2.7441
  696MOL0     H93941   8.355  11.003   4.118 -1.6398  0.3232 -0.8984
  696MOL0     H93942   8.803  10.630   4.213 -0.4858  1.4978 -1.2100
  696MOL0     H93943   8.892  10.540   4.440  3.0912  2.3744  0.5414
  696MOL0     H93944   9.151   9.823   6.346 -2.1727  0.2521  0.2646
  696MOL0     H93945   9.273   9.631   6.428  0.4471  0.3793 -0.4540
  696MOL0     H93946   9.424   9.243   6.670 -0.2293  1.0971 -1.0452
  696MOL0     H93947   9.428   9.030   6.736  1.7353 -1.9630 -0.1921
  696MOL0     H93948   9.314   8.844   6.779 -0.9785  1.0261  0.9453
  696MOL0     H93949   9.365   8.684   6.735 -0.7694  0.5122  0.6691
  696MOL0     H93950   9.109   8.851   6.680  0.1774 -0.2977  0.2881
  696MOL0     H93951   9.132   8.688   6.739  2.3518  0.4814  1.9991
  696MOL0     H93952   9.195   8.605   6.514  1.3011  0.9554 -0.2065
  696MOL0     H93953   9.160   8.773   6.456 -0.1970  1.6891  1.4772
  696MOL0     H93954   8.932   8.764   6.507  3.0794  1.8427  1.0100
  696MOL0     H93955   8.980   8.633   6.393  0.3428 -1.4485  0.4875
  696MOL0     H93956   8.928   8.379   6.723 -2.5375 -1.5513  0.0064
  696MOL0     H93957   9.323   8.888   6.345  0.5843  0.9570 -1.5521
  696MOL0     H93958   9.350   9.215   6.175  0.3522  1.1122  2.0803
  696MOL0     H93959   9.359   9.032   6.165  0.7712 -0.3203  0.8365
  696MOL0     H93960   9.204   9.125   6.194  0.5730  2.3086  1.2892
  697MOL0     O93961   9.319  10.823  10.859 -0.3994 -0.3886  0.3413
  697MOL0     C93962   9.195  10.815  10.846 -0.2735  0.0196 -0.4750
  697MOL0     O93963   9.123  10.697  10.824  0.1619 -0.3056 -0.7395
  697MOL0     C93964   9.206  10.582  10.812  0.4713 -0.0974  0.4639
  697MOL0     C93965   9.267  10.565  10.695 -0.3419  0.4721  0.2073
  697MOL0     C93966   9.370  10.478  10.674  0.0436 -0.0515 -0.4879
  697MOL0     C93967   9.430  10.411  10.788 -0.4419  0.6096  0.1683
  697MOL0     O93968   9.531  10.319  10.788 -0.0651 -0.2631 -0.2954
  697MOL0     C93969   9.614  10.309  10.667 -0.1130 -0.3379 -0.2714
  697MOL0     C93970   9.721  10.202  10.681 -0.8885 -0.5517 -0.5540
  697MOL0     C93971   9.824  10.210  10.564 -0.5745  0.6031 -0.1087
  697MOL0     C93972   9.941  10.111  10.597 -0.0795 -0.7199 -0.3834
  697MOL0     C93973  10.070  10.130  10.504  0.4370 -0.4942 -0.3770
  697MOL0     C93974  10.174  10.234  10.557  0.2461  0.0602  0.0236
  697MOL0     C93975  10.253  10.297  10.437  0.0936  0.8099 -0.5146
  697MOL0     C93976  10.186  10.425  10.379 -0.3180 -0.0261  0.2016
  697MOL0     N93977  10.255  10.480  10.260  1.0819  0.2050  0.5420
  697MOL0     C93978  10.354  10.569  10.281  0.6226 -0.1179  0.2965
  697MOL0     C93979  10.400  10.594  10.159  0.4877  0.0013 -0.2044
  697MOL0     C93980  10.515  10.680  10.120  0.3892  0.4568  0.8489
  697MOL0     C93981  10.635  10.590  10.120 -0.9228  0.4293 -0.0324
  697MOL0     C93982  10.753  10.658  10.047 -0.4200  0.4893 -0.7188
  697MOL0     C93983  10.838  10.723  10.160  0.6763  0.3369  0.0779
  697MOL0     O93984  10.909  10.624  10.238  0.4264 -0.4260 -0.5661
  697MOL0     C93985  11.040  10.600  10.213 -0.2019 -0.1277  0.3780
  697MOL0     C93986  11.092  10.633  10.087  0.8388 -0.6362 -0.1993
  697MOL0     C93987  11.224  10.612  10.060 -0.2539 -0.2676  0.3379
  697MOL0     C93988  11.314  10.560  10.160  0.0912  0.3804 -0.4129
  697MOL0     C93989  11.456  10.554  10.121  0.8211 -0.3130  0.6123
  697MOL0     O93990  11.541  10.501  10.214 -0.2624  0.2868  0.1621
  697MOL0     C93991  11.668  10.549  10.195  0.5415  0.0741 -0.0210
  697MOL0     C93992  11.699  10.662  10.259 -0.8946  0.5471 -0.2975
  697MOL0     C93993  11.829  10.714  10.253  0.0123 -0.2131 -0.4570
  697MOL0     C93994  11.929  10.642  10.199 -0.8517 -0.1977  0.8618
  697MOL0     O93995  12.069  10.676  10.206  0.7614  0.2062  0.4419
  697MOL0     C93996  12.110  10.706  10.340  0.2634  0.2548 -0.2948
  697MOL0     C93997  12.256  10.722  10.353 -0.8067  0.1313  0.6493
  697MOL0     C93998  12.336  10.605  10.280  0.4799 -0.1501  0.3751
  697MOL0     C93999  12.488  10.611  10.313 -1.0527 -0.0223 -0.5472
  697MOL0     C94000  12.529  10.541  10.453 -0.1475 -0.0235  0.3390
  697MOL0     C94001  12.670  10.592  10.494 -0.2428 -0.4645 -0.9303
  697MOL0     C94002  12.707  10.535  10.633  0.1041  0.3638 -0.3189
  697MOL0     C94003  12.857  10.551  10.666  0.5927 -0.0737 -0.0468
  697MOL0    Cl94004  12.890  10.507  10.827  0.3807 -0.1799 -0.2693
  697MOL0     C94005  11.890  10.524  10.129 -0.3052 -0.8055 -0.0602
  697MOL0     C94006  11.762  10.486  10.118 -0.3543 -0.2329 -0.7666
  697MOL0     O94007  11.483  10.583  10.003  0.2409 -0.2453 -0.8325
  697MOL0     C94008  11.263  10.515  10.284 -0.5970  0.1201  0.1587
  697MOL0     C94009  11.128  10.541  10.316 -0.1830  0.6668 -0.3834
  697MOL0     N94010  10.323  10.520  10.069  0.5447 -0.4049  0.3796
  697MOL0     N94011  10.241  10.442  10.129 -0.1854 -0.2321 -1.0505
  697MOL0     C94012   9.374  10.429  10.913  0.8059 -0.7855  0.3592
  697MOL0     C94013   9.251  10.511  10.921 -0.8157  0.5748  0.8407
  697MOL0     C94014   9.125  10.949  10.837 -0.2281 -0.1976 -0.6226
  697MOL0     C94015   9.191  11.072  10.865 -0.5955  0.3212 -1.0329
  697MOL0     C94016   9.133  11.190  10.864  0.0945  0.2817 -0.0333
  697MOL0     C94017   9.002  11.217  10.823  0.0224  0.8531  0.3712
  697MOL0     O94018   8.962  11.346  10.822  0.1580 -0.2910 -0.2200
  697MOL0     C94019   8.853  11.390  10.745  0.5456  0.2590 -0.9278
  697MOL0     C94020   8.728  11.430  10.821  0.9896  0.5157 -0.7997
  697MOL0     C94021   8.749  11.524  10.939 -0.4628  1.0555 -0.9009
  697MOL0     C94022   8.625  11.520  11.040 -0.1644  0.3929 -0.8406
  697MOL0     C94023   8.516  11.617  11.013 -0.6693 -0.3594  0.1704
  697MOL0     C94024   8.414  11.677  10.980 -0.5774 -0.2131  0.0196
  697MOL0     C94025   8.935  11.100  10.783 -0.5491 -0.5312 -0.3821
  697MOL0     C94026   8.988  10.973  10.781 -0.1058  0.6857  0.2277
  697MOL0     C94027   8.899  10.865  10.735  0.9465 -0.6517  0.1857
  697MOL0     H94028   9.238  10.623  10.608 -0.9641 -1.6596 -1.0609
  697MOL0     H94029   9.434  10.480  10.587  0.9322  1.5465  0.1846
  697MOL0     H94030   9.554  10.282  10.580  0.3679 -0.6413 -0.5173
  697MOL0     H94031   9.649  10.412  10.655 -1.6001  0.2727  0.4139
  697MOL0     H94032   9.678  10.102  10.680 -0.4426 -0.7772  1.0062
  697MOL0     H94033   9.788  10.216  10.766  0.9502 -1.1224 -1.8466
  697MOL0     H94034   9.858  10.314  10.561 -0.2384  0.4964 -0.0418
  697MOL0     H94035   9.770  10.185  10.473  0.2048  1.3512 -0.7877
  697MOL0     H94036   9.967  10.137  10.700 -0.6057 -0.2409 -0.3669
  697MOL0     H94037   9.894  10.012  10.591 -0.1677 -0.5976 -2.0046
  697MOL0     H94038  10.119  10.032  10.501  2.5448  0.5228 -3.2358
  697MOL0     H94039  10.053  10.151  10.398  3.1718 -1.8984 -1.1982
  697MOL0     H94040  10.130  10.308  10.624  0.1866 -0.8408  1.0018
  697MOL0     H94041  10.238  10.177  10.625 -1.2013 -0.9068  0.6377
  697MOL0     H94042  10.258  10.231  10.350 -3.0445  0.7967 -0.8049
  697MOL0     H94043  10.356  10.324  10.464 -0.1952 -1.1947  3.1962
  697MOL0     H94044  10.086  10.394  10.346 -1.0444  1.1770  1.1899
  697MOL0     H94045  10.169  10.503  10.453  0.5266 -0.5184  0.9313
  697MOL0     H94046  10.376  10.607  10.380 -0.4816 -0.0890  0.5506
  697MOL0     H94047  10.490  10.719  10.021  0.3316  0.6048  0.9197
  697MOL0     H94048  10.535  10.771  10.179  0.0124  0.1699  1.4351
  697MOL0     H94049  10.655  10.562  10.224 -0.6842 -0.7269 -0.3630
  697MOL0     H94050  10.604  10.501  10.064 -0.0271  0.7806 -1.1328
  697MOL0     H94051  10.726  10.742   9.982 -0.2985  2.9117  2.1231
  697MOL0     H94052  10.820  10.585  10.001 -1.0560 -0.9284  0.4907
  697MOL0     H94053  10.770  10.766  10.234  0.7204 -1.5071  1.2703
  697MOL0     H94054  10.906  10.801  10.125  1.3857 -0.5617 -0.5884
  697MOL0     H94055  11.026  10.684  10.018  1.1500  3.0373  1.9509
  697MOL0     H94056  11.263  10.627   9.959  0.1075  0.9886  0.6448
  697MOL0     H94057  11.613  10.710  10.305  0.3678  0.8531  1.8987
  697MOL0     H94058  11.853  10.815  10.284 -1.8846  0.8200 -2.1230
  697MOL0     H94059  12.072  10.802  10.375  2.1727  0.9809 -0.0603
  697MOL0     H94060  12.080  10.627  10.409  1.4106  0.6169  0.6541
  697MOL0     H94061  12.283  10.822  10.317  0.0485  0.7518  2.8112
  697MOL0     H94062  12.292  10.728  10.456  2.9448 -0.4642 -0.4934
  697MOL0     H94063  12.274  10.518  10.302 -4.0449  3.2625  2.7124
  697MOL0     H94064  12.332  10.624  10.173  2.7094  0.0187  0.2711
  697MOL0     H94065  12.522  10.715  10.314 -0.4471 -0.2003 -1.4924
  697MOL0     H94066  12.540  10.556  10.234  3.0952  0.7472  1.3719
  697MOL0     H94067  12.545  10.433  10.444  2.0205  0.0629  2.3088
  697MOL0     H94068  12.466  10.568  10.539 -1.3439 -0.6313 -0.3228
  697MOL0     H94069  12.737  10.558  10.414  3.7044 -1.0149  2.2956
  697MOL0     H94070  12.674  10.701  10.494  1.9459 -0.4942 -0.8377
  697MOL0     H94071  12.681  10.429  10.626 -1.5529  0.5197  2.0596
  697MOL0     H94072  12.647  10.583  10.711  1.6786 -2.2572  2.7249
  697MOL0     H94073  12.920  10.490  10.600 -0.6930 -0.3668 -1.0577
  697MOL0     H94074  12.873  10.658  10.651 -2.7082  0.7691  1.4635
  697MOL0     H94075  11.970  10.491  10.063 -0.1130  1.7060 -1.2320
  697MOL0     H94076  11.731  10.402  10.058 -3.6478 -0.7716  1.4320
  697MOL0     H94077  11.335  10.478  10.356  2.1890  3.0428 -0.8781
  697MOL0     H94078  11.086  10.511  10.411  0.4072  3.8015  0.9893
  697MOL0     H94079   9.426  10.387  10.998  0.9746  1.5525  1.4848
  697MOL0     H94080   9.215  10.519  11.024 -0.4929 -1.3315  1.1370
  697MOL0     H94081   9.292  11.067  10.906 -1.5084  3.3463  2.1547
  697MOL0     H94082   9.194  11.278  10.885 -0.3168  1.1203 -2.1177
  697MOL0     H94083   8.827  11.316  10.668 -1.0766  0.7105 -0.8620
  697MOL0     H94084   8.890  11.479  10.694  1.5216  2.2143  2.8998
  697MOL0     H94085   8.679  11.338  10.854 -0.0541  1.3624  0.1220
  697MOL0     H94086   8.660  11.469  10.744  1.7725  1.8446 -0.8565
  697MOL0     H94087   8.764  11.622  10.894  0.2821  1.4281  0.1131
  697MOL0     H94088   8.844  11.515  10.993 -0.5492  1.0028 -0.7586
  697MOL0     H94089   8.572  11.424  11.046  0.1096  0.0696 -2.9439
  697MOL0     H94090   8.661  11.537  11.142 -1.2878 -0.9450 -0.1803
  697MOL0     H94091   8.334  11.746  10.959  1.8823  3.0368  0.4489
  697MOL0     H94092   8.834  11.115  10.747 -1.2903  0.1356  1.8468
  697MOL0     H94093   8.948  10.796  10.667  1.4399 -0.2172  0.0934
  697MOL0     H94094   8.875  10.804  10.823 -1.4886  0.7196  0.5802
  697MOL0     H94095   8.806  10.897  10.687  0.3425 -1.3987  0.8257
  698MOL0     O94096   1.478   0.440   6.171 -0.3679  0.5275  0.1529
  698MOL0     C94097   1.387   0.455   6.088  0.3326 -0.3140 -0.0144
  698MOL0     O94098   1.393   0.418   5.947 -0.4474  0.1354 -0.0545
  698MOL0     C94099   1.491   0.333   5.910  0.3623  0.4333  0.1292
  698MOL0     C94100   1.483   0.199   5.957 -0.4578 -0.3397 -0.2290
  698MOL0     C94101   1.591   0.113   5.961 -0.0400  0.1807  0.0123
  698MOL0     C94102   1.716   0.162   5.908  0.8677 -0.2512 -0.0370
  698MOL0     O94103   1.837   0.096   5.901  0.1907  0.6078  0.5090
  698MOL0     C94104   1.866  -0.014   5.993 -0.5804 -0.2332  0.2826
  698MOL0     C94105   1.844  -0.146   5.926 -0.0860  0.6544  0.4326
  698MOL0     C94106   1.884  -0.267   6.012 -0.4423 -0.3397  0.9008
  698MOL0     C94107   1.769  -0.316   6.100  0.2474 -0.0847  0.5541
  698MOL0     C94108   1.801  -0.424   6.208  0.1165  0.0441 -0.2140
  698MOL0     C94109   1.679  -0.516   6.221 -0.3716 -0.0758 -0.5608
  698MOL0     C94110   1.686  -0.588   6.359  0.8689 -0.4204  0.3671
  698MOL0     C94111   1.779  -0.710   6.359  0.6338  0.2352 -0.3364
  698MOL0     N94112   1.930  -0.678   6.358  0.0696  0.2903  0.0393
  698MOL0     C94113   2.005  -0.679   6.478 -0.1799  0.6026 -0.1958
  698MOL0     C94114   2.134  -0.696   6.437 -0.2499  0.0485  0.8964
  698MOL0     C94115   2.268  -0.699   6.515 -0.2554  0.6121  0.7974
  698MOL0     C94116   2.278  -0.621   6.644  0.3774  0.3337  0.2760
  698MOL0     C94117   2.408  -0.621   6.714  0.5826  0.1935 -0.0030
  698MOL0     C94118   2.467  -0.749   6.736 -0.0288 -0.5461  0.3998
  698MOL0     O94119   2.558  -0.732   6.847 -0.1775 -0.6000 -0.9905
  698MOL0     C94120   2.687  -0.710   6.831 -0.1344 -0.3930  0.2142
  698MOL0     C94121   2.762  -0.775   6.737  0.1231  0.2222  0.0229
  698MOL0     C94122   2.896  -0.765   6.735 -0.2378  0.1773  0.0196
  698MOL0     C94123   2.965  -0.695   6.833  0.3634  0.3852 -0.1566
  698MOL0     C94124   3.113  -0.711   6.857  0.2278  0.0389  0.0280
  698MOL0     O94125   3.183  -0.786   6.769  0.6072  0.0748  0.5729
  698MOL0     C94126   3.318  -0.774   6.761  0.4782 -0.9390 -0.1237
  698MOL0     C94127   3.399  -0.819   6.858  0.0145  0.3698  0.1925
  698MOL0     C94128   3.531  -0.837   6.854  0.4557 -0.7970  0.7611
  698MOL0     C94129   3.590  -0.791   6.729 -0.3155 -0.2235 -0.5645
  698MOL0     O94130   3.727  -0.809   6.693 -0.5654  0.3272 -0.5903
  698MOL0     C94131   3.816  -0.735   6.786  0.5677 -0.2240 -0.3364
  698MOL0     C94132   3.956  -0.795   6.797  0.2160 -0.4650 -0.8836
  698MOL0     C94133   3.957  -0.932   6.874  0.5970  0.4607 -0.0882
  698MOL0     C94134   3.891  -0.948   7.014  0.4761 -0.1331  0.9427
  698MOL0     C94135   3.965  -1.041   7.109 -0.0550  0.6956 -0.6945
  698MOL0     C94136   4.087  -0.976   7.169  0.2919  0.7722  0.0316
  698MOL0     C94137   4.164  -1.066   7.251  0.1018 -0.2391 -1.5185
  698MOL0     C94138   4.287  -0.991   7.311 -0.5368 -0.0088  0.1515
  698MOL0    Cl94139   4.324  -1.056   7.474 -0.1393 -0.0156  0.2616
  698MOL0     C94140   3.505  -0.750   6.626 -0.2802  0.1477 -0.5236
  698MOL0     C94141   3.371  -0.732   6.637  0.4231 -0.5999 -0.5151
  698MOL0     O94142   3.167  -0.653   6.951  0.6437  0.1842 -0.2965
  698MOL0     C94143   2.888  -0.610   6.918  0.0004 -0.1340 -0.0462
  698MOL0     C94144   2.753  -0.618   6.920 -0.0589 -0.4080 -0.3969
  698MOL0     N94145   2.141  -0.723   6.301  0.3197 -0.1166  0.6582
  698MOL0     N94146   2.018  -0.694   6.257 -0.2139  0.2033  0.5419
  698MOL0     C94147   1.726   0.292   5.870 -0.1921  0.2603 -0.4269
  698MOL0     C94148   1.619   0.378   5.868  0.5648  0.4428 -0.2475
  698MOL0     C94149   1.271   0.525   6.142  0.3004  0.2082 -0.0010
  698MOL0     C94150   1.293   0.637   6.222  0.2150 -0.1198 -0.9144
  698MOL0     C94151   1.192   0.720   6.267  0.9406 -0.4412  0.7532
  698MOL0     C94152   1.062   0.694   6.234 -0.3879 -0.6535  0.6709
  698MOL0     O94153   0.952   0.752   6.299 -0.0507  0.0117 -0.4915
  698MOL0     C94154   0.936   0.892   6.267 -0.0483  0.6615  0.2659
  698MOL0     C94155   0.790   0.932   6.290 -0.1725 -0.5793 -0.7136
  698MOL0     C94156   0.691   0.865   6.208  1.2339  0.2060  1.1606
  698MOL0     C94157   0.538   0.896   6.237 -0.6937 -0.3206  0.1891
  698MOL0     C94158   0.490   0.846   6.373  0.2038 -0.1539 -0.2027
  698MOL0     C94159   0.463   0.811   6.481 -0.3689  0.2602 -0.4276
  698MOL0     C94160   1.028   0.578   6.167 -0.3516  0.4606 -0.8388
  698MOL0     C94161   1.130   0.496   6.103 -0.0956 -0.6386  0.0396
  698MOL0     C94162   1.110   0.379   6.016  0.5136 -0.0627  0.7793
  698MOL0     H94163   1.392   0.173   6.010  0.0084  0.5491  1.0479
  698MOL0     H94164   1.567   0.016   6.005  2.2069  1.2038  3.9421
  698MOL0     H94165   1.972  -0.004   6.018 -0.3659 -0.8620 -0.3269
  698MOL0     H94166   1.808  -0.007   6.086 -5.3412  2.7620 -2.5346
  698MOL0     H94167   1.915  -0.149   5.843 -1.2978  1.3055 -0.6551
  698MOL0     H94168   1.744  -0.158   5.883  0.9629  1.2863 -2.3488
  698MOL0     H94169   1.976  -0.240   6.064  1.0430  0.4382 -1.8878
  698MOL0     H94170   1.908  -0.352   5.948 -0.6115  0.7080 -0.6081
  698MOL0     H94171   1.732  -0.227   6.151 -1.9766  0.2609 -1.5203
  698MOL0     H94172   1.689  -0.335   6.029 -0.2836  1.2694  0.7660
  698MOL0     H94173   1.888  -0.486   6.187  2.2877  2.1576  1.9952
  698MOL0     H94174   1.823  -0.369   6.299 -1.5030  1.4089 -0.5800
  698MOL0     H94175   1.586  -0.458   6.216  0.9093  2.2472  0.5746
  698MOL0     H94176   1.668  -0.589   6.140 -2.0644  0.7193 -1.0853
  698MOL0     H94177   1.585  -0.620   6.384  0.1537  3.3000  3.1334
  698MOL0     H94178   1.711  -0.517   6.438 -3.4989  2.0523 -0.1434
  698MOL0     H94179   1.772  -0.775   6.447  0.9739 -1.1803 -1.3105
  698MOL0     H94180   1.750  -0.785   6.284  0.2097  0.0862 -0.0259
  698MOL0     H94181   1.966  -0.657   6.577 -1.1095  1.0690 -0.6495
  698MOL0     H94182   2.298  -0.804   6.525  0.2413  0.5034 -1.2827
  698MOL0     H94183   2.342  -0.659   6.445 -2.2345  0.0611 -1.7562
  698MOL0     H94184   2.251  -0.516   6.629  1.3593  0.8856  2.0810
  698MOL0     H94185   2.204  -0.666   6.711 -1.3211  1.2029 -0.9489
  698MOL0     H94186   2.399  -0.541   6.789 -0.6993  1.2935 -1.2619
  698MOL0     H94187   2.469  -0.577   6.634 -3.1482  0.2657 -3.0831
  698MOL0     H94188   2.513  -0.781   6.642 -1.5300  2.2795 -1.4053
  698MOL0     H94189   2.389  -0.821   6.765  1.0423 -1.2480  1.6661
  698MOL0     H94190   2.736  -0.858   6.671  0.7487  0.3934 -0.4463
  698MOL0     H94191   2.950  -0.825   6.662 -3.1590 -2.7812  0.0214
  698MOL0     H94192   3.341  -0.843   6.946 -0.2696 -0.7312 -0.2803
  698MOL0     H94193   3.590  -0.867   6.940  0.9605 -0.1336  0.6544
  698MOL0     H94194   3.827  -0.632   6.753 -0.6400  0.2085  0.5537
  698MOL0     H94195   3.766  -0.725   6.883 -1.0162  2.0821 -1.3079
  698MOL0     H94196   4.009  -0.801   6.701  0.7594  0.3301 -0.6527
  698MOL0     H94197   4.018  -0.735   6.864 -0.5656  1.8046 -2.0609
  698MOL0     H94198   3.899  -1.003   6.815 -1.5860  1.3377  0.9077
  698MOL0     H94199   4.059  -0.972   6.877 -0.2692 -1.9081  0.0492
  698MOL0     H94200   3.784  -0.969   7.019  0.3914  0.4885  2.2883
  698MOL0     H94201   3.897  -0.847   7.057 -1.2373  0.6294 -0.4746
  698MOL0     H94202   3.987  -1.133   7.055  1.5757 -0.5969  2.0026
  698MOL0     H94203   3.897  -1.071   7.190 -0.3059  1.4858 -0.5947
  698MOL0     H94204   4.144  -0.934   7.086  0.1802 -2.5572 -1.8956
  698MOL0     H94205   4.051  -0.899   7.239 -0.0132 -0.9295  1.8362
  698MOL0     H94206   4.202  -1.153   7.197  2.4221 -0.9274  0.9902
  698MOL0     H94207   4.103  -1.093   7.337 -1.9640  1.6439 -2.3082
  698MOL0     H94208   4.376  -1.010   7.251  1.1678  0.7431  2.2940
  698MOL0     H94209   4.276  -0.882   7.320  1.1637  0.4040 -2.0238
  698MOL0     H94210   3.556  -0.720   6.535  2.0583  0.1508  0.6891
  698MOL0     H94211   3.318  -0.679   6.558 -0.1783  2.4978  1.7747
  698MOL0     H94212   2.942  -0.571   7.004  1.8892 -2.2605 -0.1687
  698MOL0     H94213   2.694  -0.575   7.000  0.6022 -1.4063  0.6594
  698MOL0     H94214   1.821   0.317   5.826 -0.2996  1.9934  0.2679
  698MOL0     H94215   1.618   0.485   5.850 -1.9554  0.5136  0.0339
  698MOL0     H94216   1.398   0.651   6.242  0.4656 -1.3025 -1.2703
  698MOL0     H94217   1.193   0.797   6.343  0.9685 -0.0509  0.3632
  698MOL0     H94218   0.957   0.921   6.164 -4.8254  1.1062 -0.8402
  698MOL0     H94219   1.003   0.948   6.333  1.6003  0.8306 -1.4580
  698MOL0     H94220   0.788   1.041   6.277 -1.6823 -0.4528  0.3853
  698MOL0     H94221   0.758   0.913   6.393  2.5404 -2.0630 -0.0419
  698MOL0     H94222   0.691   0.756   6.204 -1.2698  0.1660 -0.9614
  698MOL0     H94223   0.697   0.879   6.099 -2.8778 -0.8450  0.6061
  698MOL0     H94224   0.518   1.004   6.235  2.3477  0.3383 -1.2858
  698MOL0     H94225   0.484   0.846   6.156  1.4360 -2.2007 -0.1809
  698MOL0     H94226   0.460   0.780   6.584 -1.0042  1.0473 -0.1986
  698MOL0     H94227   0.924   0.551   6.149  0.1038 -0.7074 -1.9205
  698MOL0     H94228   1.163   0.287   6.042 -3.6966 -2.6598  1.0624
  698MOL0     H94229   1.005   0.351   6.002  0.2229  1.9768 -1.9655
  698MOL0     H94230   1.142   0.401   5.914  1.4917 -0.4592  0.9908
  699MOL0     O94231   0.975   3.060  10.636  0.1024  0.2599  0.3526
  699MOL0     C94232   0.945   2.973  10.708 -0.4911  0.7797  0.0405
  699MOL0     O94233   1.027   2.902  10.784 -0.1636 -0.3328  0.1353
  699MOL0     C94234   1.158   2.948  10.817 -0.2232  0.7242  0.5039
  699MOL0     C94235   1.261   2.861  10.799  0.3851  0.0323  0.3164
  699MOL0     C94236   1.388   2.904  10.823 -0.6934 -0.4961  0.1471
  699MOL0     C94237   1.417   3.036  10.857 -0.2469 -1.1064  0.1060
  699MOL0     O94238   1.551   3.070  10.888 -0.0674  0.2605  0.2924
  699MOL0     C94239   1.577   3.152  10.995  0.4097  0.2536 -0.1964
  699MOL0     C94240   1.673   3.075  11.090  0.6273  0.2020 -0.6405
  699MOL0     C94241   1.632   2.925  11.124 -0.7044 -0.3161 -0.7369
  699MOL0     C94242   1.725   2.881  11.241 -0.5193 -0.8644 -0.3486
  699MOL0     C94243   1.776   2.731  11.227 -0.4273 -0.2535 -0.0453
  699MOL0     C94244   1.655   2.647  11.185  0.2124  0.1751  0.2598
  699MOL0     C94245   1.677   2.493  11.205  0.6494 -0.5525  0.4174
  699MOL0     C94246   1.698   2.443  11.344  0.4016 -0.2476  0.2412
  699MOL0     N94247   1.598   2.489  11.439 -0.3124  0.7617 -0.4393
  699MOL0     C94248   1.458   2.469  11.444 -0.3767  0.3444 -0.3860
  699MOL0     C94249   1.415   2.517  11.556  0.0481 -0.0002 -0.6264
  699MOL0     C94250   1.264   2.522  11.601  0.6150  0.4313  0.6453
  699MOL0     C94251   1.204   2.665  11.606  0.1578  0.3943  0.8171
  699MOL0     C94252   1.267   2.772  11.692  0.4825  0.0765 -0.8492
  699MOL0     C94253   1.177   2.889  11.706 -0.3769  0.6281  0.0315
  699MOL0     O94254   1.116   2.934  11.585 -0.1879 -0.4962  0.7712
  699MOL0     C94255   1.019   3.027  11.609  0.3295 -0.8177  0.2429
  699MOL0     C94256   1.041   3.169  11.595 -0.2235 -0.8036 -0.2621
  699MOL0     C94257   0.935   3.257  11.627  0.3127  0.3764  0.1949
  699MOL0     C94258   0.803   3.214  11.667 -0.4784 -0.5943  1.7008
  699MOL0     C94259   0.693   3.311  11.706  0.1255 -0.0380  0.4939
  699MOL0     O94260   0.728   3.441  11.739 -0.2497  0.2273 -0.1747
  699MOL0     C94261   0.645   3.551  11.774  0.1847 -0.0956 -0.9199
  699MOL0     C94262   0.710   3.665  11.838  0.3319  0.3052 -0.5991
  699MOL0     C94263   0.647   3.777  11.882  0.0544  0.4644 -0.5128
  699MOL0     C94264   0.509   3.781  11.869 -0.7722 -0.1419 -0.2107
  699MOL0     O94265   0.452   3.889  11.923 -0.4745 -1.2323  0.1341
  699MOL0     C94266   0.316   3.894  11.971  0.3664  0.0771 -0.9438
  699MOL0     C94267   0.274   4.028  12.031 -0.9434  0.5576  0.1203
  699MOL0     C94268   0.368   4.074  12.147  0.4555 -0.8901  0.1559
  699MOL0     C94269   0.344   4.226  12.172  0.0829  0.7313 -0.5159
  699MOL0     C94270   0.414   4.270  12.300  0.1441 -0.2788  1.0353
  699MOL0     C94271   0.568   4.245  12.290 -0.2237 -0.7632 -0.4231
  699MOL0     C94272   0.636   4.307  12.422 -0.1962 -0.3131  0.3630
  699MOL0     C94273   0.659   4.209  12.542 -0.1601 -0.0945 -0.5017
  699MOL0    Cl94274   0.711   4.319  12.681 -0.1031 -0.0592 -0.3256
  699MOL0     C94275   0.441   3.674  11.802  0.3766 -0.0070  0.5061
  699MOL0     C94276   0.510   3.569  11.747  0.2901 -0.9387 -0.2213
  699MOL0     O94277   0.581   3.269  11.696  0.4607  0.9420  0.7056
  699MOL0     C94278   0.796   3.071  11.684  0.8366  0.1965 -0.1506
  699MOL0     C94279   0.893   2.979  11.656 -0.6924 -0.3681  0.4880
  699MOL0     N94280   1.524   2.570  11.622 -0.5739 -0.6682 -0.7384
  699MOL0     N94281   1.633   2.552  11.551 -0.1102  0.5813  0.4000
  699MOL0     C94282   1.305   3.125  10.867 -0.2669  0.0981  0.5756
  699MOL0     C94283   1.181   3.084  10.845  0.2319 -1.2470 -0.4455
  699MOL0     C94284   0.802   2.930  10.689  0.2589  1.2323 -0.4592
  699MOL0     C94285   0.705   3.026  10.669  0.8165  0.4821  0.4534
  699MOL0     C94286   0.566   3.002  10.649 -0.5362 -0.0950  0.4577
  699MOL0     C94287   0.526   2.866  10.678  0.0100 -0.3303  0.5198
  699MOL0     O94288   0.398   2.814  10.678  0.8981 -0.0858  0.0859
  699MOL0     C94289   0.307   2.885  10.595  0.1325  0.0140  0.2075
  699MOL0     C94290   0.169   2.823  10.599  0.1714  0.7981  0.7994
  699MOL0     C94291   0.170   2.668  10.568 -0.9847  0.2568  0.2730
  699MOL0     C94292   0.049   2.616  10.486 -0.0904  0.7398 -0.1200
  699MOL0     C94293  -0.075   2.611  10.561  0.9202  0.0336 -0.7080
  699MOL0     C94294  -0.172   2.592  10.640 -0.9115 -0.3990  0.0566
  699MOL0     C94295   0.628   2.766  10.701  0.4053  0.0263  0.0701
  699MOL0     C94296   0.757   2.794  10.704  0.1555 -0.0351 -0.5750
  699MOL0     C94297   0.855   2.681  10.738  0.5540 -0.3997  0.5681
  699MOL0     H94298   1.253   2.755  10.780 -2.7749  0.0222  1.1109
  699MOL0     H94299   1.466   2.831  10.834  1.9696  2.2731  1.1782
  699MOL0     H94300   1.627   3.241  10.957  0.9877 -0.1335 -0.3734
  699MOL0     H94301   1.490   3.181  11.054  1.2499 -0.5149  1.5052
  699MOL0     H94302   1.693   3.133  11.181  2.0326  3.1331 -2.6668
  699MOL0     H94303   1.767   3.064  11.035 -1.2259 -0.2226 -3.9619
  699MOL0     H94304   1.650   2.864  11.035 -1.2123  0.0703 -1.1132
  699MOL0     H94305   1.529   2.905  11.154 -0.4248 -4.6498 -1.9595
  699MOL0     H94306   1.817   2.940  11.237 -0.2544 -1.3137 -1.4095
  699MOL0     H94307   1.676   2.892  11.338 -0.9938  1.1066 -0.7672
  699MOL0     H94308   1.849   2.716  11.146 -2.9483  1.1404 -2.7683
  699MOL0     H94309   1.825   2.708  11.322 -1.8333  0.4950  0.8836
  699MOL0     H94310   1.567   2.685  11.238 -1.0901 -2.7234  0.4095
  699MOL0     H94311   1.629   2.653  11.079 -2.7731 -2.8574  0.6443
  699MOL0     H94312   1.760   2.456  11.145  3.0647  2.5637  1.5466
  699MOL0     H94313   1.584   2.452  11.164  0.3552  0.7850 -0.3281
  699MOL0     H94314   1.699   2.334  11.352  1.5408 -0.1696  1.8224
  699MOL0     H94315   1.798   2.474  11.377 -0.0807 -0.3689  1.9349
  699MOL0     H94316   1.402   2.428  11.360  1.9958  1.0156 -2.4124
  699MOL0     H94317   1.208   2.461  11.529  2.2151 -0.1122 -0.1702
  699MOL0     H94318   1.258   2.470  11.697 -1.3534 -0.5143  0.0684
  699MOL0     H94319   1.198   2.706  11.504  1.1306 -1.2763  0.0606
  699MOL0     H94320   1.096   2.661  11.626  0.0821  2.4872  1.1390
  699MOL0     H94321   1.359   2.805  11.641 -0.8468  1.7416 -2.2885
  699MOL0     H94322   1.294   2.731  11.790  0.6531 -0.9572 -1.3125
  699MOL0     H94323   1.240   2.967  11.749 -1.3147  0.7729  1.1974
  699MOL0     H94324   1.105   2.861  11.784 -2.1033  0.7044 -1.4606
  699MOL0     H94325   1.135   3.207  11.558 -0.5768  0.9856  0.5312
  699MOL0     H94326   0.955   3.362  11.607 -1.6434  1.2669  2.4213
  699MOL0     H94327   0.816   3.659  11.859 -0.0339 -1.2713  0.9776
  699MOL0     H94328   0.707   3.859  11.919 -0.2930  1.6784 -2.4697
  699MOL0     H94329   0.247   3.864  11.893  0.0483  1.5799 -1.2714
  699MOL0     H94330   0.303   3.820  12.051  1.4127  0.8241 -0.0336
  699MOL0     H94331   0.277   4.092  11.942  1.7367  1.4989  0.7787
  699MOL0     H94332   0.174   4.024  12.075 -0.7223 -3.1384  0.6036
  699MOL0     H94333   0.345   4.015  12.237  2.6478  0.7276  1.8829
  699MOL0     H94334   0.474   4.056  12.126 -0.2089 -2.7163 -2.0472
  699MOL0     H94335   0.241   4.263  12.169  1.5422  5.2900 -1.6344
  699MOL0     H94336   0.386   4.291  12.095 -1.8027 -0.3400 -2.5711
  699MOL0     H94337   0.362   4.218  12.382 -1.0209 -0.7849  0.0017
  699MOL0     H94338   0.406   4.379  12.308 -1.8555 -0.1026 -1.9026
  699MOL0     H94339   0.607   4.143  12.288  1.2389 -0.2590  0.6235
  699MOL0     H94340   0.604   4.292  12.198 -0.0337  0.6998  0.3686
  699MOL0     H94341   0.583   4.397  12.456 -1.0376 -0.7539  0.2297
  699MOL0     H94342   0.740   4.336  12.403 -0.8775  2.9418  0.9773
  699MOL0     H94343   0.567   4.153  12.561 -2.2297  2.9561 -0.8668
  699MOL0     H94344   0.733   4.132  12.516 -0.1548  0.2024 -1.4223
  699MOL0     H94345   0.333   3.670  11.803  0.2930  1.1494 -0.9600
  699MOL0     H94346   0.456   3.487  11.701 -0.3763 -1.1025  0.8308
  699MOL0     H94347   0.718   3.044  11.755  0.4856  2.0257  0.2106
  699MOL0     H94348   0.874   2.874  11.674 -2.4772 -0.0874  0.4115
  699MOL0     H94349   1.332   3.230  10.875 -1.1770  0.2273  2.4542
  699MOL0     H94350   1.110   3.164  10.857 -0.0284 -1.4779 -0.4291
  699MOL0     H94351   0.742   3.128  10.678 -0.4442  0.9233  0.8706
  699MOL0     H94352   0.481   3.069  10.652 -0.7669 -0.4175  1.3171
  699MOL0     H94353   0.337   2.885  10.490 -0.9803 -1.8815 -0.1531
  699MOL0     H94354   0.293   2.986  10.635 -1.7056  0.2318 -0.8698
  699MOL0     H94355   0.106   2.876  10.527  1.0543  1.3644  0.4368
  699MOL0     H94356   0.124   2.835  10.699  2.0521  1.0934  1.6551
  699MOL0     H94357   0.174   2.607  10.659 -1.3780 -2.6635 -1.5504
  699MOL0     H94358   0.261   2.652  10.510 -2.2511 -2.8012 -1.1165
  699MOL0     H94359   0.026   2.673  10.396 -0.8068  0.2748 -0.2420
  699MOL0     H94360   0.065   2.512  10.457 -0.9469  0.5739 -0.0382
  699MOL0     H94361  -0.244   2.603  10.719  0.8914  2.4919  1.5070
  699MOL0     H94362   0.598   2.663  10.719  0.7321 -0.7865 -3.3604
  699MOL0     H94363   0.818   2.584  10.704  1.8210 -0.5593 -0.4336
  699MOL0     H94364   0.951   2.708  10.693 -0.2727  3.3199  0.6551
  699MOL0     H94365   0.859   2.684  10.847 -3.7438  2.0556  0.8782
  700MOL0     O94366   2.745   1.127   2.316  0.3659  0.4778  0.1542
  700MOL0     C94367   2.698   1.117   2.430  0.3293  0.5243  0.1413
  700MOL0     O94368   2.728   1.018   2.511  0.7004 -0.9919  0.5372
  700MOL0     C94369   2.834   0.934   2.495 -0.9058 -0.6705  0.3409
  700MOL0     C94370   2.826   0.798   2.540  0.3464 -0.6129 -0.0206
  700MOL0     C94371   2.928   0.713   2.530  0.7418 -0.4107  0.1520
  700MOL0     C94372   3.052   0.757   2.482 -1.8381  0.4317  0.5864
  700MOL0     O94373   3.153   0.668   2.486  0.3331 -0.0623  0.3138
  700MOL0     C94374   3.258   0.678   2.384  1.2640 -0.5214  0.2068
  700MOL0     C94375   3.331   0.553   2.378 -0.3715 -0.5049  0.5151
  700MOL0     C94376   3.445   0.542   2.271  0.2582  0.4520 -0.7380
  700MOL0     C94377   3.594   0.581   2.322  0.3764 -0.1518  0.6743
  700MOL0     C94378   3.674   0.453   2.373  0.7801 -0.8992  0.3387
  700MOL0     C94379   3.817   0.493   2.418  0.0929  0.5763  1.0327
  700MOL0     C94380   3.813   0.592   2.542 -0.1338  0.6436  1.0976
  700MOL0     C94381   3.959   0.606   2.605  0.7869  0.5301  0.4526
  700MOL0     N94382   4.050   0.684   2.517 -0.7090  1.0082  0.1941
  700MOL0     C94383   4.092   0.809   2.551 -0.2794 -0.0142  0.0358
  700MOL0     C94384   4.142   0.856   2.433  0.2067  0.5676  1.0422
  700MOL0     C94385   4.210   0.981   2.388  0.8905  0.1616 -0.4173
  700MOL0     C94386   4.341   0.944   2.304  0.4159  0.4449 -0.3245
  700MOL0     C94387   4.409   1.065   2.239 -0.2613 -0.4662  1.0082
  700MOL0     C94388   4.510   1.123   2.340 -0.4742 -1.1882  0.5503
  700MOL0     O94389   4.634   1.040   2.351  0.1839 -0.5320  0.4023
  700MOL0     C94390   4.736   1.063   2.255  0.6513 -0.3674 -0.9051
  700MOL0     C94391   4.724   1.152   2.150 -0.2807 -1.3701  0.5409
  700MOL0     C94392   4.835   1.174   2.067 -0.4015  0.7416 -0.1691
  700MOL0     C94393   4.956   1.107   2.086 -0.2164 -0.3898 -0.9950
  700MOL0     C94394   5.072   1.128   1.997 -0.0266  0.1898  0.3958
  700MOL0     O94395   5.043   1.206   1.876 -0.1196  0.1318 -0.4259
  700MOL0     C94396   5.145   1.225   1.785  0.5423 -0.0895  0.8777
  700MOL0     C94397   5.236   1.129   1.750  0.8632 -0.4323 -0.2174
  700MOL0     C94398   5.333   1.164   1.660  0.2396 -0.5779  0.3978
  700MOL0     C94399   5.335   1.292   1.596  0.1329  0.1555 -0.0866
  700MOL0     O94400   5.446   1.317   1.518 -0.1979 -0.2098  0.2738
  700MOL0     C94401   5.433   1.423   1.422 -0.6840  0.0959  0.8488
  700MOL0     C94402   5.549   1.411   1.311  0.4128 -0.2010  0.0417
  700MOL0     C94403   5.682   1.364   1.377 -1.3228  0.8194 -0.2675
  700MOL0     C94404   5.757   1.460   1.470 -0.3823 -0.0248  0.4600
  700MOL0     C94405   5.896   1.405   1.499  0.4048  0.6747 -0.2893
  700MOL0     C94406   5.986   1.505   1.561  0.9809 -0.3923  0.1711
  700MOL0     C94407   6.117   1.451   1.606 -0.4612  0.9832  0.3272
  700MOL0     C94408   6.113   1.398   1.750  0.9635  0.1807 -0.8029
  700MOL0    Cl94409   6.278   1.339   1.795  0.1672 -0.3402 -0.5204
  700MOL0     C94410   5.224   1.385   1.624  0.3365  0.5605 -0.6355
  700MOL0     C94411   5.138   1.349   1.721 -0.5521 -1.2097  0.1316
  700MOL0     O94412   5.184   1.082   2.024 -0.0159 -1.1490 -0.1752
  700MOL0     C94413   4.966   1.008   2.188 -0.3523 -1.0507 -0.3483
  700MOL0     C94414   4.858   0.990   2.272  0.0356  0.1766 -0.4098
  700MOL0     N94415   4.133   0.756   2.339  0.1891  0.2626 -0.0027
  700MOL0     N94416   4.075   0.657   2.391 -0.0685 -0.1522  0.1171
  700MOL0     C94417   3.075   0.892   2.449  0.6737 -0.2816  0.3985
  700MOL0     C94418   2.963   0.980   2.454 -0.4165  0.2508  0.3315
  700MOL0     C94419   2.588   1.204   2.475  0.7486 -0.0006  0.0810
  700MOL0     C94420   2.506   1.144   2.569 -0.2233  0.6297  0.0793
  700MOL0     C94421   2.409   1.217   2.626 -0.2284  0.0314 -1.0047
  700MOL0     C94422   2.373   1.348   2.589 -0.6113 -0.9714  0.3139
  700MOL0     O94423   2.267   1.408   2.642 -0.3377 -0.2600 -0.4988
  700MOL0     C94424   2.196   1.510   2.575  0.8960 -1.0690 -0.0875
  700MOL0     C94425   2.134   1.459   2.444 -0.7791 -0.9005  0.8327
  700MOL0     C94426   2.023   1.360   2.463 -0.1974  0.3405  0.6267
  700MOL0     C94427   2.076   1.220   2.471  0.3149  0.0466  0.1682
  700MOL0     C94428   1.959   1.127   2.502 -0.8851 -0.4377 -0.5254
  700MOL0     C94429   1.883   1.034   2.528 -0.1184 -0.9868 -0.5166
  700MOL0     C94430   2.445   1.407   2.486 -0.9652  0.5774 -0.1377
  700MOL0     C94431   2.548   1.338   2.425 -0.4925 -0.1744  0.0846
  700MOL0     C94432   2.625   1.406   2.310 -0.2728  0.0794  0.0811
  700MOL0     H94433   2.733   0.770   2.589  0.9681 -1.7409  0.5680
  700MOL0     H94434   2.920   0.613   2.572  1.6738 -0.5521  0.0283
  700MOL0     H94435   3.212   0.703   2.288 -5.3391 -4.2077  1.7864
  700MOL0     H94436   3.336   0.751   2.407  1.7243  0.0547 -2.7103
  700MOL0     H94437   3.264   0.469   2.359 -1.1272  0.1943  0.0150
  700MOL0     H94438   3.379   0.535   2.474  1.1902 -1.3362 -0.3930
  700MOL0     H94439   3.431   0.615   2.191  3.1974  0.7766 -1.0671
  700MOL0     H94440   3.436   0.444   2.225 -1.7044  0.8103 -1.2188
  700MOL0     H94441   3.643   0.634   2.240 -2.2825  0.9558 -0.3091
  700MOL0     H94442   3.595   0.654   2.402 -1.8497 -0.2065  0.8161
  700MOL0     H94443   3.622   0.410   2.459  2.5170 -0.2421  1.7818
  700MOL0     H94444   3.685   0.377   2.295 -0.3572 -2.0192  1.2255
  700MOL0     H94445   3.862   0.396   2.444  1.2362 -0.2540 -3.2708
  700MOL0     H94446   3.871   0.539   2.335  2.5979 -0.5432  1.9416
  700MOL0     H94447   3.753   0.550   2.623  0.0918 -0.1221  0.8789
  700MOL0     H94448   3.787   0.694   2.514  0.7511  0.9061  1.1878
  700MOL0     H94449   3.954   0.653   2.704  1.6123  1.6539 -0.0211
  700MOL0     H94450   4.008   0.510   2.623 -1.8066 -1.0379 -0.2961
  700MOL0     H94451   4.078   0.862   2.645  1.3576 -2.8906  2.0247
  700MOL0     H94452   4.136   1.022   2.319 -0.3495 -2.8590 -1.0605
  700MOL0     H94453   4.223   1.034   2.483 -1.4047 -0.8207  0.5274
  700MOL0     H94454   4.394   0.887   2.381 -1.6371  0.1120  0.9220
  700MOL0     H94455   4.308   0.872   2.229  0.4645  0.9249 -0.8132
  700MOL0     H94456   4.335   1.139   2.205 -1.4829 -1.3104  1.7293
  700MOL0     H94457   4.469   1.034   2.153  0.2217 -0.6301  1.4001
  700MOL0     H94458   4.459   1.134   2.436 -1.9415 -0.6366 -0.2649
  700MOL0     H94459   4.534   1.229   2.324  2.7441 -0.5330  6.7167
  700MOL0     H94460   4.636   1.213   2.128 -0.4636 -2.2301 -1.3690
  700MOL0     H94461   4.822   1.245   1.986 -1.1185 -0.7786 -1.4408
  700MOL0     H94462   5.229   1.028   1.789  1.4028  0.4524  2.4309
  700MOL0     H94463   5.405   1.087   1.636 -1.7463 -2.0350 -1.2401
  700MOL0     H94464   5.334   1.405   1.378 -1.5999 -1.0948  3.2381
  700MOL0     H94465   5.450   1.523   1.461 -0.2361  1.8875 -3.3735
  700MOL0     H94466   5.518   1.331   1.244  1.3853 -1.4555  1.0422
  700MOL0     H94467   5.547   1.501   1.248 -1.9444  1.2535  1.9749
  700MOL0     H94468   5.661   1.269   1.427 -0.6996  0.2172 -1.1218
  700MOL0     H94469   5.741   1.354   1.285 -0.4909  0.9118  0.2523
  700MOL0     H94470   5.701   1.456   1.564  0.3154 -1.6334  0.8402
  700MOL0     H94471   5.763   1.558   1.422  4.3859 -0.2027  0.3004
  700MOL0     H94472   5.939   1.377   1.403  2.6840 -2.8039  1.5288
  700MOL0     H94473   5.876   1.315   1.557 -1.5946  2.6544  2.3438
  700MOL0     H94474   5.993   1.585   1.488 -0.5432 -1.8750 -1.7097
  700MOL0     H94475   5.931   1.544   1.647 -0.4596 -1.3563 -0.2840
  700MOL0     H94476   6.185   1.536   1.598 -1.4286  1.6723 -1.1586
  700MOL0     H94477   6.150   1.380   1.530 -2.5572  0.2355  0.0280
  700MOL0     H94478   6.094   1.478   1.822  0.2262 -2.1604  1.7702
  700MOL0     H94479   6.037   1.319   1.756  2.5651 -1.4303 -0.7533
  700MOL0     H94480   5.222   1.480   1.571  0.6856  0.4437 -0.8523
  700MOL0     H94481   5.056   1.420   1.728  0.3584 -0.1065 -0.0403
  700MOL0     H94482   5.049   0.938   2.192  0.8000  0.2608 -0.5892
  700MOL0     H94483   4.865   0.917   2.352 -0.7012 -0.6767 -1.1027
  700MOL0     H94484   3.179   0.919   2.435  0.8069  0.1449  2.0364
  700MOL0     H94485   2.971   1.086   2.429 -2.3157  0.9332  2.2672
  700MOL0     H94486   2.535   1.047   2.608 -2.2566 -0.5552 -1.1954
  700MOL0     H94487   2.353   1.168   2.704 -0.8555  2.6567  0.2891
  700MOL0     H94488   2.265   1.593   2.559 -1.1314  1.2056  2.1612
  700MOL0     H94489   2.121   1.563   2.634  0.1796  1.9704 -3.4214
  700MOL0     H94490   2.211   1.438   2.370  0.3409  3.1408  0.5970
  700MOL0     H94491   2.090   1.547   2.396  4.4790  1.5257 -0.1890
  700MOL0     H94492   1.952   1.362   2.380  1.0222 -2.1439 -0.5948
  700MOL0     H94493   1.975   1.400   2.553  0.8888  1.3356  0.7774
  700MOL0     H94494   2.121   1.183   2.378  0.3166 -3.3588  1.3759
  700MOL0     H94495   2.145   1.207   2.555 -0.6688 -2.4821  0.6868
  700MOL0     H94496   1.827   0.944   2.541 -2.6315  0.3094 -1.5987
  700MOL0     H94497   2.430   1.501   2.435 -0.4125  0.6908 -0.1057
  700MOL0     H94498   2.595   1.348   2.221 -3.4252 -2.8259  2.7394
  700MOL0     H94499   2.606   1.513   2.302 -0.1129  0.2117  1.3542
  700MOL0     H94500   2.731   1.393   2.333 -0.7546 -0.0397  2.3900
  701MOL0     O94501   2.724   7.666   1.135  0.0827 -0.0130  0.0396
  701MOL0     C94502   2.746   7.618   1.023  1.0790  1.1590  0.1531
  701MOL0     O94503   2.824   7.670   0.920  0.0883 -0.1793 -0.2433
  701MOL0     C94504   2.921   7.753   0.975 -0.3788 -0.0909  0.1960
  701MOL0     C94505   2.889   7.893   0.983 -0.4569 -0.6537  0.4894
  701MOL0     C94506   2.987   7.978   1.031 -0.7305 -0.7123 -1.3217
  701MOL0     C94507   3.115   7.931   1.068  0.7653 -0.6627 -0.3237
  701MOL0     O94508   3.206   8.023   1.108 -0.1708  0.5915  0.2170
  701MOL0     C94509   3.334   7.984   1.162  1.4972 -0.3354 -0.2165
  701MOL0     C94510   3.432   8.103   1.153 -0.6536  0.3113 -0.3138
  701MOL0     C94511   3.570   8.073   1.220 -0.7227 -0.0059  0.1023
  701MOL0     C94512   3.681   8.175   1.186 -0.2341  0.6174 -0.5723
  701MOL0     C94513   3.811   8.121   1.229 -0.4834 -0.2076  0.0474
  701MOL0     C94514   3.927   8.223   1.222  0.3244  0.2403  0.3277
  701MOL0     C94515   4.052   8.158   1.263  0.3471 -0.2726  0.1238
  701MOL0     C94516   4.173   8.255   1.301 -0.1522 -0.2922 -0.2489
  701MOL0     N94517   4.263   8.193   1.394  0.0684  0.1253 -0.1761
  701MOL0     C94518   4.351   8.096   1.360  0.6088 -0.4869 -0.4119
  701MOL0     C94519   4.430   8.084   1.474 -0.1848 -0.9286 -0.3774
  701MOL0     C94520   4.552   8.001   1.466 -0.0849  0.3796  0.5820
  701MOL0     C94521   4.664   8.029   1.572  0.4836  0.3334 -0.2400
  701MOL0     C94522   4.769   8.124   1.510 -0.3968  0.4820  0.1037
  701MOL0     C94523   4.898   8.100   1.579 -0.5418  0.1539  0.2399
  701MOL0     O94524   4.985   8.193   1.522 -0.3649  0.7508 -0.4892
  701MOL0     C94525   5.120   8.179   1.572 -0.7380  0.5652  0.6872
  701MOL0     C94526   5.169   8.110   1.683 -0.4412  1.0482 -0.1550
  701MOL0     C94527   5.302   8.104   1.707 -0.2587 -0.7192  0.1472
  701MOL0     C94528   5.397   8.174   1.631  0.5675  0.4364  0.1783
  701MOL0     C94529   5.540   8.147   1.632 -0.4302 -0.4005 -0.2557
  701MOL0     O94530   5.612   8.242   1.565 -0.1488 -0.8668  0.3869
  701MOL0     C94531   5.745   8.222   1.526 -0.4515 -0.1381 -0.7480
  701MOL0     C94532   5.787   8.106   1.466  0.5951 -0.3451  0.2030
  701MOL0     C94533   5.924   8.103   1.428 -0.5234 -0.0557  0.5995
  701MOL0     C94534   6.011   8.210   1.440  0.8292 -0.7445 -0.5526
  701MOL0     O94535   6.144   8.217   1.397  0.5408 -0.2787  0.4079
  701MOL0     C94536   6.213   8.091   1.389  0.5093 -1.0071 -1.2801
  701MOL0     C94537   6.349   8.129   1.342  0.6326  0.5407  0.2626
  701MOL0     C94538   6.436   8.202   1.452 -0.5364 -0.5746 -0.0637
  701MOL0     C94539   6.588   8.199   1.427 -0.7250  0.3558  1.0123
  701MOL0     C94540   6.625   8.209   1.282 -0.5114 -0.0517 -0.3954
  701MOL0     C94541   6.757   8.286   1.261  0.8453  0.6330 -0.1798
  701MOL0     C94542   6.791   8.280   1.109 -0.0955 -0.1548 -0.3850
  701MOL0     C94543   6.937   8.338   1.084  0.7768  0.6525 -0.6149
  701MOL0    Cl94544   6.953   8.359   0.899 -0.1432  0.1352 -0.6409
  701MOL0     C94545   5.955   8.329   1.500 -0.0336 -0.2935  0.3555
  701MOL0     C94546   5.827   8.325   1.547  0.5781 -0.1332  0.2971
  701MOL0     O94547   5.578   8.036   1.656 -0.3339  0.0788 -0.0490
  701MOL0     C94548   5.339   8.262   1.539 -0.9672  1.3497 -0.0688
  701MOL0     C94549   5.208   8.253   1.502  0.8373  1.0162  0.1531
  701MOL0     N94550   4.381   8.168   1.573  0.0922  0.3062  0.2034
  701MOL0     N94551   4.273   8.220   1.530  0.4485  0.0291  0.3554
  701MOL0     C94552   3.138   7.793   1.071  0.9258  0.0564  0.2660
  701MOL0     C94553   3.045   7.709   1.021 -0.2734  0.0801  0.4261
  701MOL0     C94554   2.662   7.493   0.989 -0.4342  0.8441  0.6330
  701MOL0     C94555   2.636   7.483   0.850 -0.0964  0.4691  0.0053
  701MOL0     C94556   2.562   7.371   0.807 -0.3065 -0.7902 -0.1138
  701MOL0     C94557   2.496   7.289   0.897 -0.1184 -0.6158 -0.6555
  701MOL0     O94558   2.396   7.200   0.872 -0.6864  0.3361 -0.2313
  701MOL0     C94559   2.394   7.144   0.734  0.1467  0.1378  0.1639
  701MOL0     C94560   2.267   7.073   0.691  0.6342  0.4180  0.1280
  701MOL0     C94561   2.161   7.184   0.666 -0.0979 -0.2947  0.1240
  701MOL0     C94562   2.044   7.123   0.608  1.0535  0.2459  0.1485
  701MOL0     C94563   1.932   7.220   0.594 -0.6629  0.4036  0.2530
  701MOL0     C94564   1.843   7.294   0.554  0.3727  0.0068 -0.1897
  701MOL0     C94565   2.516   7.301   1.041 -0.0199 -0.3802  0.4960
  701MOL0     C94566   2.605   7.401   1.089 -0.2596  0.4042 -1.2045
  701MOL0     C94567   2.617   7.416   1.241  0.0736 -0.1478 -0.4598
  701MOL0     H94568   2.801   7.933   0.934  0.9404 -0.3185 -1.8794
  701MOL0     H94569   2.960   8.083   1.024 -2.3178 -0.8499  1.3285
  701MOL0     H94570   3.309   7.934   1.256 -1.6953 -1.4570 -1.5331
  701MOL0     H94571   3.386   7.902   1.111 -0.0801 -0.0302 -2.4734
  701MOL0     H94572   3.369   8.179   1.201 -2.5374 -2.2607  1.5638
  701MOL0     H94573   3.443   8.116   1.045  1.1717  0.2495 -0.1669
  701MOL0     H94574   3.608   7.972   1.205 -0.2728  0.2470 -0.5438
  701MOL0     H94575   3.559   8.076   1.329  0.9845  1.6756  0.2984
  701MOL0     H94576   3.680   8.198   1.079 -0.6767 -2.8978 -1.4528
  701MOL0     H94577   3.645   8.260   1.245 -3.3226 -1.1615  0.3504
  701MOL0     H94578   3.794   8.082   1.329  0.2393  1.4443  0.8552
  701MOL0     H94579   3.841   8.035   1.168 -0.9130  1.4246 -2.6211
  701MOL0     H94580   3.933   8.236   1.113  0.9776 -1.2124  0.1660
  701MOL0     H94581   3.909   8.316   1.277  1.9999 -0.1100  1.5438
  701MOL0     H94582   4.085   8.089   1.186 -0.0622 -0.3079 -0.0212
  701MOL0     H94583   4.027   8.110   1.359 -0.0466  1.6552  1.0382
  701MOL0     H94584   4.226   8.278   1.208  0.1048  1.9085  0.3744
  701MOL0     H94585   4.132   8.348   1.341  0.3635  0.3355 -1.1434
  701MOL0     H94586   4.375   8.064   1.259  1.8222 -1.5050  0.1792
  701MOL0     H94587   4.523   7.895   1.467  1.3846 -0.0521  0.2065
  701MOL0     H94588   4.588   8.009   1.364  0.1341  1.7474  0.7550
  701MOL0     H94589   4.626   8.063   1.669  0.4306 -0.0367 -0.1290
  701MOL0     H94590   4.717   7.933   1.576  1.5384  0.9396  1.1046
  701MOL0     H94591   4.722   8.222   1.520 -0.1838  0.7712 -1.5095
  701MOL0     H94592   4.792   8.108   1.405  2.8667  0.6066  0.6972
  701MOL0     H94593   4.939   8.001   1.558  1.5048  0.4311  2.4967
  701MOL0     H94594   4.878   8.111   1.686 -5.1285 -2.0936 -0.1439
  701MOL0     H94595   5.115   8.060   1.763  1.9960 -0.9293  0.3990
  701MOL0     H94596   5.343   8.049   1.791 -0.2283  0.4236  0.8946
  701MOL0     H94597   5.719   8.025   1.441 -1.8584  1.9092 -0.9226
  701MOL0     H94598   5.965   8.011   1.387 -0.2671 -0.0271  0.7837
  701MOL0     H94599   6.212   8.064   1.495 -2.2293  0.7457 -0.7545
  701MOL0     H94600   6.168   8.008   1.335 -0.2899 -1.0298 -0.5937
  701MOL0     H94601   6.399   8.037   1.310  1.1399  1.8125 -2.9570
  701MOL0     H94602   6.342   8.197   1.257  0.8430  0.0789 -0.1231
  701MOL0     H94603   6.404   8.307   1.445  0.2780 -0.4320 -2.4857
  701MOL0     H94604   6.433   8.151   1.549  1.1522 -0.0646  0.2877
  701MOL0     H94605   6.632   8.108   1.468 -0.9123 -1.3206 -2.2438
  701MOL0     H94606   6.632   8.280   1.486  0.9687 -2.3030  3.6950
  701MOL0     H94607   6.552   8.274   1.233  0.8124  3.8902  2.3541
  701MOL0     H94608   6.628   8.107   1.245 -1.1954 -1.4748  3.0249
  701MOL0     H94609   6.727   8.383   1.300  3.2754  0.4177  2.5154
  701MOL0     H94610   6.832   8.229   1.317 -0.7031 -1.6383 -0.2471
  701MOL0     H94611   6.728   8.340   1.043  0.1288 -0.4909 -0.9163
  701MOL0     H94612   6.785   8.176   1.075 -1.6187 -0.5576  1.0254
  701MOL0     H94613   6.946   8.427   1.146 -1.0508 -1.3573  2.8458
  701MOL0     H94614   7.003   8.268   1.136 -0.5985 -1.6713 -1.8173
  701MOL0     H94615   6.024   8.412   1.514  2.0520 -1.8834 -0.0277
  701MOL0     H94616   5.789   8.418   1.588  3.0005  0.1338  2.1823
  701MOL0     H94617   5.407   8.330   1.489 -0.8176 -0.4488 -2.4801
  701MOL0     H94618   5.173   8.294   1.407 -0.3575 -3.0890 -1.3773
  701MOL0     H94619   3.233   7.754   1.106  0.8095 -2.4972 -1.9691
  701MOL0     H94620   3.066   7.602   1.020 -1.0252 -0.0831  0.6958
  701MOL0     H94621   2.666   7.550   0.771 -2.2077  0.9784 -0.4136
  701MOL0     H94622   2.565   7.359   0.699  2.7657 -5.8964  0.2035
  701MOL0     H94623   2.481   7.078   0.725 -1.2085 -1.7584  0.2939
  701MOL0     H94624   2.410   7.221   0.658 -1.9872  0.3361 -0.1487
  701MOL0     H94625   2.242   6.992   0.760 -0.9603 -0.8820 -1.8594
  701MOL0     H94626   2.286   7.016   0.600  2.2580  0.8673  0.1534
  701MOL0     H94627   2.196   7.252   0.587 -4.7195  1.9453 -0.3158
  701MOL0     H94628   2.128   7.240   0.753 -2.0452 -0.6102 -0.3538
  701MOL0     H94629   2.052   7.063   0.517 -1.1113  1.5806 -1.0187
  701MOL0     H94630   2.008   7.047   0.678 -2.6467  0.4483 -1.2994
  701MOL0     H94631   1.780   7.365   0.506  3.1634  1.1289 -2.5168
  701MOL0     H94632   2.457   7.253   1.119 -0.1683 -0.1545  0.5235
  701MOL0     H94633   2.599   7.320   1.290  1.2411 -1.1060 -1.8177
  701MOL0     H94634   2.716   7.441   1.280 -0.0543 -1.6697  0.9601
  701MOL0     H94635   2.542   7.489   1.273 -0.9690 -2.5068  3.0972
  702MOL0     O94636  10.270   2.713   9.125  0.0424  0.0996  0.0589
  702MOL0     C94637  10.190   2.797   9.163 -0.1118  1.0574 -0.3850
  702MOL0     O94638  10.209   2.874   9.277 -0.4161  0.6177  0.3624
  702MOL0     C94639  10.342   2.898   9.306  0.1526 -0.1855  0.3658
  702MOL0     C94640  10.401   3.011   9.256  0.3094  0.7588 -0.2342
  702MOL0     C94641  10.533   3.039   9.286 -0.1740  0.7452 -0.2973
  702MOL0     C94642  10.608   2.940   9.351 -0.0392 -0.2380  0.7832
  702MOL0     O94643  10.743   2.958   9.391 -0.0400 -0.4527  0.2869
  702MOL0     C94644  10.799   3.087   9.383 -0.1615 -0.0065  0.7165
  702MOL0     C94645  10.940   3.089   9.434 -0.6135 -0.0479 -0.3129
  702MOL0     C94646  10.994   3.230   9.463  0.4578 -0.2909 -1.0147
  702MOL0     C94647  11.043   3.296   9.335  0.7381  0.8457  0.0748
  702MOL0     C94648  11.045   3.450   9.347 -1.0344  0.0241  0.0674
  702MOL0     C94649  11.177   3.487   9.419 -0.7361 -0.7715 -0.6184
  702MOL0     C94650  11.181   3.637   9.432  0.6312 -0.1082 -0.0414
  702MOL0     C94651  11.099   3.690   9.554 -0.5032  0.1383  0.0037
  702MOL0     N94652  11.182   3.723   9.672 -0.6263  0.4719 -0.1836
  702MOL0     C94653  11.255   3.624   9.744 -0.5266 -1.1409  1.0641
  702MOL0     C94654  11.271   3.683   9.865  0.3236  0.4248  0.0269
  702MOL0     C94655  11.337   3.620   9.974  0.3299  0.6895 -0.4243
  702MOL0     C94656  11.490   3.610   9.950 -0.1068 -0.2633 -0.0549
  702MOL0     C94657  11.542   3.505  10.047  0.3351 -0.0059 -0.4801
  702MOL0     C94658  11.684   3.453  10.002  0.4179  1.0903 -0.3853
  702MOL0     O94659  11.770   3.566  10.020 -0.1611  1.2166  0.2750
  702MOL0     C94660  11.903   3.541  10.043  0.5956 -0.7656 -0.5298
  702MOL0     C94661  11.962   3.413  10.024 -0.6477  0.0966  0.3080
  702MOL0     C94662  12.101   3.390  10.048  0.5989 -0.8868 -1.0639
  702MOL0     C94663  12.182   3.497  10.081  1.2140  0.1602  0.7209
  702MOL0     C94664  12.327   3.479  10.085 -0.5709 -0.8338 -0.2461
  702MOL0     O94665  12.403   3.594  10.123  0.2428  0.7382  0.0929
  702MOL0     C94666  12.537   3.591  10.153  0.3725  0.3859 -0.2842
  702MOL0     C94667  12.633   3.490  10.129 -0.0819 -0.5910  0.2616
  702MOL0     C94668  12.768   3.502  10.163  0.0105  0.7250 -0.5364
  702MOL0     C94669  12.815   3.622  10.219  0.5936  0.0797  0.0459
  702MOL0     O94670  12.951   3.645  10.243 -0.0538 -0.2689  0.3211
  702MOL0     C94671  13.048   3.538  10.252 -0.1091 -0.1333  0.4834
  702MOL0     C94672  13.185   3.590  10.321  0.7018  0.3135  0.2564
  702MOL0     C94673  13.315   3.564  10.239 -1.0202  0.0730 -0.2492
  702MOL0     C94674  13.383   3.426  10.253  0.1688 -0.0268 -0.3793
  702MOL0     C94675  13.529   3.441  10.194  0.0762 -0.3924 -0.3545
  702MOL0     C94676  13.597   3.304  10.182 -0.1023  0.4404  0.6443
  702MOL0     C94677  13.741   3.326  10.163  0.1819  1.0077 -0.4944
  702MOL0     C94678  13.801   3.187  10.193  0.9042  0.0200  1.3537
  702MOL0    Cl94679  13.969   3.173  10.123  0.0607  0.0493 -0.0336
  702MOL0     C94680  12.718   3.723  10.250 -0.2132  0.9108 -0.6182
  702MOL0     C94681  12.585   3.697  10.219 -0.2242  0.3573  0.2611
  702MOL0     O94682  12.377   3.369  10.079  0.1467  0.1945 -0.1135
  702MOL0     C94683  12.121   3.626  10.102  0.2021 -0.0538  0.3584
  702MOL0     C94684  11.983   3.643  10.085 -0.5943 -0.1056  0.5433
  702MOL0     N94685  11.217   3.809   9.869 -0.9299  0.8538  0.4328
  702MOL0     N94686  11.157   3.828   9.764  0.1057 -0.5152  0.4377
  702MOL0     C94687  10.551   2.818   9.386  1.1749  0.5980 -0.1834
  702MOL0     C94688  10.416   2.800   9.371  0.6450  0.4882 -0.1609
  702MOL0     C94689  10.057   2.803   9.086 -0.1565  1.2265  0.6984
  702MOL0     C94690  10.033   2.708   8.988 -0.3959  0.7323  0.4839
  702MOL0     C94691   9.923   2.721   8.895  0.7624  0.4926 -0.3976
  702MOL0     C94692   9.828   2.816   8.917 -1.1007 -0.6896 -0.3926
  702MOL0     O94693   9.722   2.811   8.832 -0.2253  0.7955 -0.5367
  702MOL0     C94694   9.605   2.894   8.837 -0.0701  0.1881  0.0979
  702MOL0     C94695   9.540   2.884   8.699 -0.1143  0.5741 -0.3272
  702MOL0     C94696   9.512   2.741   8.654 -0.7299 -0.3550 -0.4693
  702MOL0     C94697   9.422   2.743   8.529  0.4412 -0.6607 -0.2281
  702MOL0     C94698   9.432   2.611   8.480  0.4029  0.6592  0.4683
  702MOL0     C94699   9.430   2.495   8.449 -0.2764 -0.0652 -0.1497
  702MOL0     C94700   9.848   2.917   9.010 -0.0095 -0.4564 -0.2662
  702MOL0     C94701   9.968   2.919   9.089  0.0848  0.3788  1.0089
  702MOL0     C94702  10.003   3.034   9.174  1.0602 -0.1703  0.2646
  702MOL0     H94703  10.343   3.079   9.193  0.8518  1.4188 -0.0308
  702MOL0     H94704  10.578   3.134   9.257  0.7099  0.6028  0.5412
  702MOL0     H94705  10.807   3.130   9.283  0.8517  0.3835  0.9519
  702MOL0     H94706  10.740   3.158   9.441 -1.5898 -0.6873  0.1457
  702MOL0     H94707  11.005   3.027   9.373 -1.1313 -2.2045  1.1780
  702MOL0     H94708  10.930   3.041   9.532 -0.6949  0.9303  0.1732
  702MOL0     H94709  11.077   3.235   9.535 -1.5490 -0.0540  1.4549
  702MOL0     H94710  10.909   3.293   9.493 -1.4191 -1.4395 -3.5349
  702MOL0     H94711  11.139   3.257   9.298  0.7339  0.6142  0.3075
  702MOL0     H94712  10.975   3.266   9.254  0.1096  2.8095 -0.1705
  702MOL0     H94713  11.049   3.489   9.245  4.3718 -0.8395 -0.3606
  702MOL0     H94714  10.954   3.477   9.402 -1.0512 -3.1042  1.8257
  702MOL0     H94715  11.180   3.449   9.522 -0.0222 -2.8029 -1.3366
  702MOL0     H94716  11.263   3.458   9.358  1.1035 -0.7690  1.8214
  702MOL0     H94717  11.140   3.671   9.336  1.7879  0.9081 -0.1987
  702MOL0     H94718  11.279   3.685   9.438  0.0329  0.9778  1.4428
  702MOL0     H94719  11.038   3.774   9.518 -2.4027 -1.6442 -1.1669
  702MOL0     H94720  11.032   3.610   9.585 -0.1070  0.2622  1.2181
  702MOL0     H94721  11.281   3.524   9.709 -0.2794 -1.0566  1.0035
  702MOL0     H94722  11.319   3.676  10.065 -0.4536 -1.0306  0.5289
  702MOL0     H94723  11.297   3.522  10.003 -0.0604  2.1389  4.8641
  702MOL0     H94724  11.506   3.577   9.847 -0.9312 -1.0942  0.0680
  702MOL0     H94725  11.525   3.711   9.975 -5.4397  1.8805  0.1994
  702MOL0     H94726  11.476   3.418  10.049  0.2837  0.0157 -1.2795
  702MOL0     H94727  11.541   3.553  10.146  2.2799  2.0645 -1.3600
  702MOL0     H94728  11.688   3.419   9.898  2.6862 -3.0041  0.8268
  702MOL0     H94729  11.716   3.373  10.069 -0.6028 -1.3315 -2.6085
  702MOL0     H94730  11.897   3.330   9.997 -0.6750  0.8071 -2.0448
  702MOL0     H94731  12.140   3.289  10.036 -2.2010 -2.1352 -0.6417
  702MOL0     H94732  12.617   3.389  10.093  1.8708 -0.6468 -0.5838
  702MOL0     H94733  12.839   3.426  10.130  1.1146  2.0750 -1.4061
  702MOL0     H94734  13.013   3.461  10.320 -0.7501 -0.1664  0.1232
  702MOL0     H94735  13.074   3.502  10.152  3.0721  0.5121  0.9890
  702MOL0     H94736  13.181   3.699  10.329 -2.9751  0.4634 -1.4408
  702MOL0     H94737  13.202   3.554  10.423 -1.2122 -1.5736 -0.0179
  702MOL0     H94738  13.295   3.588  10.134 -0.1487  0.1918 -0.3982
  702MOL0     H94739  13.390   3.631  10.282  1.1923 -0.9060 -2.3209
  702MOL0     H94740  13.334   3.344  10.200  0.3514  0.6207 -1.6125
  702MOL0     H94741  13.384   3.392  10.356 -2.2804 -0.5335 -0.4485
  702MOL0     H94742  13.593   3.509  10.250 -0.8932 -0.7292  1.2231
  702MOL0     H94743  13.514   3.487  10.095 -1.9444  0.0472  0.1008
  702MOL0     H94744  13.575   3.242  10.269 -0.1715 -0.9287 -0.3152
  702MOL0     H94745  13.554   3.243  10.101  0.2030 -1.3571  1.7858
  702MOL0     H94746  13.779   3.399  10.235 -0.1241 -0.1009  0.8569
  702MOL0     H94747  13.765   3.352  10.060 -3.6440  0.0192 -1.8229
  702MOL0     H94748  13.814   3.158  10.298  0.3233  1.3824  1.8267
  702MOL0     H94749  13.731   3.114  10.152  0.4236 -0.0947  2.3505
  702MOL0     H94750  12.761   3.815  10.290  1.2003  0.4538 -1.0284
  702MOL0     H94751  12.505   3.768  10.240  0.4364  1.0236  0.5835
  702MOL0     H94752  12.174   3.719  10.119 -0.6617  0.4800  0.2398
  702MOL0     H94753  11.926   3.734  10.098 -1.2706 -0.6783  1.7345
  702MOL0     H94754  10.610   2.744   9.438  0.4815 -1.3195 -1.9741
  702MOL0     H94755  10.369   2.707   9.401  0.7981 -0.2667 -2.1066
  702MOL0     H94756  10.093   2.618   8.984 -0.8011  0.3089  2.7192
  702MOL0     H94757   9.911   2.640   8.824 -0.7405  0.7367 -0.4583
  702MOL0     H94758   9.625   3.000   8.855  1.6253 -0.3546  1.6308
  702MOL0     H94759   9.531   2.861   8.910 -2.0547 -0.8884 -2.2333
  702MOL0     H94760   9.594   2.943   8.625 -0.1079  0.3755 -0.4792
  702MOL0     H94761   9.441   2.931   8.704 -0.8110 -0.9245  0.8127
  702MOL0     H94762   9.451   2.693   8.731 -2.5237  1.1473 -0.8784
  702MOL0     H94763   9.604   2.684   8.641 -1.0583 -0.6632 -1.4947
  702MOL0     H94764   9.316   2.767   8.545  0.7450  1.5175 -1.1288
  702MOL0     H94765   9.451   2.824   8.462 -1.8548 -0.9313 -1.6654
  702MOL0     H94766   9.421   2.389   8.437  2.5867 -0.4782  0.5583
  702MOL0     H94767   9.779   3.001   9.008  1.7118  1.1558  1.7069
  702MOL0     H94768  10.008   3.008   9.281  0.6338  0.7546  0.5136
  702MOL0     H94769  10.098   3.074   9.138 -0.2479  1.0517 -2.0290
  702MOL0     H94770   9.928   3.110   9.152  3.4712  1.3375 -3.6959
  703MOL0     O94771  11.129   8.390   3.986 -0.3780  0.5080  0.0244
  703MOL0     C94772  11.100   8.485   3.928  0.1852  0.4154  0.3719
  703MOL0     O94773  11.138   8.610   3.964  0.6948 -0.0425  0.1800
  703MOL0     C94774  11.231   8.631   4.056  0.6806 -0.7244  0.5634
  703MOL0     C94775  11.362   8.596   4.046 -0.1584 -0.4755 -0.3167
  703MOL0     C94776  11.454   8.619   4.153  0.9178  1.0472  0.3718
  703MOL0     C94777  11.409   8.680   4.269  0.6351  0.2527 -1.1196
  703MOL0     O94778  11.496   8.712   4.370  0.6560 -0.6964  0.0345
  703MOL0     C94779  11.451   8.815   4.464  0.0619  0.8973 -0.2350
  703MOL0     C94780  11.567   8.879   4.534 -1.2879  0.0021 -0.0929
  703MOL0     C94781  11.655   8.785   4.625  0.3091  0.0292 -0.1628
  703MOL0     C94782  11.589   8.760   4.765 -0.1885 -0.2418 -0.4441
  703MOL0     C94783  11.601   8.615   4.816  0.5098 -0.0709  1.1280
  703MOL0     C94784  11.459   8.539   4.768 -0.2235  0.3105 -0.3551
  703MOL0     C94785  11.479   8.400   4.741  0.4063  0.0283  0.7860
  703MOL0     C94786  11.543   8.331   4.864  0.6127 -0.7101 -0.4286
  703MOL0     N94787  11.579   8.183   4.823  0.8429 -1.1995 -0.5693
  703MOL0     C94788  11.490   8.100   4.756 -0.9109 -0.5561  0.0318
  703MOL0     C94789  11.576   8.005   4.708 -0.1498  0.7833 -0.4215
  703MOL0     C94790  11.522   7.892   4.615  0.3825  0.1319  0.2143
  703MOL0     C94791  11.617   7.808   4.539  0.1637  0.0589 -1.2505
  703MOL0     C94792  11.553   7.775   4.393  0.0154  0.0948  0.1961
  703MOL0     C94793  11.637   7.676   4.323  0.6105  0.1649  0.5333
  703MOL0     O94794  11.631   7.689   4.182  0.2503 -0.2999 -0.6245
  703MOL0     C94795  11.730   7.641   4.107 -0.3562 -0.0874  0.4383
  703MOL0     C94796  11.774   7.509   4.123 -0.3328 -0.5900  0.5025
  703MOL0     C94797  11.869   7.447   4.041  0.3312  0.2329  0.9648
  703MOL0     C94798  11.921   7.520   3.932  0.4539 -0.0186 -0.0391
  703MOL0     C94799  11.995   7.458   3.820  0.3829  0.3353  0.7704
  703MOL0     O94800  12.042   7.549   3.733 -1.0340 -0.0440 -0.5604
  703MOL0     C94801  12.150   7.518   3.647  0.8600 -0.1287  0.0743
  703MOL0     C94802  12.251   7.428   3.685  0.0871  0.2252  0.9976
  703MOL0     C94803  12.363   7.426   3.600 -0.1907  0.4283  0.1817
  703MOL0     C94804  12.375   7.505   3.484  0.5335  1.1777  0.0669
  703MOL0     O94805  12.488   7.488   3.417  0.9058  0.2989  0.5257
  703MOL0     C94806  12.526   7.566   3.296  0.9367  0.8958 -0.2903
  703MOL0     C94807  12.631   7.504   3.208  0.3117 -1.0802  0.0732
  703MOL0     C94808  12.784   7.488   3.261  0.1619 -0.4226  0.0071
  703MOL0     C94809  12.784   7.402   3.375 -0.2953 -0.1308 -0.5150
  703MOL0     C94810  12.919   7.360   3.423  0.3315  0.2252 -0.9807
  703MOL0     C94811  12.997   7.274   3.329  0.3214 -0.3644 -0.5359
  703MOL0     C94812  13.151   7.265   3.375 -0.3657  0.2068 -0.1676
  703MOL0     C94813  13.248   7.177   3.293  0.7673 -0.1956 -0.4370
  703MOL0    Cl94814  13.410   7.187   3.376 -0.1955 -0.2125 -0.0897
  703MOL0     C94815  12.264   7.588   3.445 -0.0469  0.0433 -0.0513
  703MOL0     C94816  12.156   7.592   3.531  0.0726 -0.0192  0.1656
  703MOL0     O94817  11.994   7.335   3.809  0.3530 -0.3891 -0.6896
  703MOL0     C94818  11.899   7.659   3.928  0.7264  0.6455  0.3554
  703MOL0     C94819  11.805   7.723   4.019 -0.7335  0.7277  0.7692
  703MOL0     N94820  11.705   8.031   4.750  0.0909 -0.1424 -0.1921
  703MOL0     N94821  11.707   8.138   4.811 -0.3462  0.4257 -0.8681
  703MOL0     C94822  11.268   8.704   4.280 -0.0657 -1.1169 -0.6298
  703MOL0     C94823  11.185   8.687   4.169  0.0628 -0.5278 -0.8772
  703MOL0     C94824  11.008   8.463   3.815 -0.2505  0.4085  0.3712
  703MOL0     C94825  11.025   8.543   3.702  0.2377 -0.2052 -0.0108
  703MOL0     C94826  10.944   8.533   3.594  0.3482  0.0373  0.1375
  703MOL0     C94827  10.846   8.426   3.590 -0.4101  0.4173  0.2987
  703MOL0     O94828  10.775   8.416   3.476  0.4404  0.6544 -0.0828
  703MOL0     C94829  10.696   8.295   3.457 -0.8922  0.0445  0.4567
  703MOL0     C94830  10.645   8.308   3.316  0.3339 -0.9645  0.0553
  703MOL0     C94831  10.738   8.333   3.201  0.0499  0.7266 -0.3042
  703MOL0     C94832  10.676   8.380   3.071  0.6947  0.3661  0.4941
  703MOL0     C94833  10.565   8.302   3.034  0.1108  0.6983 -0.5894
  703MOL0     C94834  10.468   8.237   3.015 -0.2991  0.0853  1.4514
  703MOL0     C94835  10.831   8.346   3.698  1.1537 -0.0100 -0.1001
  703MOL0     C94836  10.911   8.359   3.808  0.7907 -0.3375  0.5623
  703MOL0     C94837  10.877   8.262   3.921  0.1823  0.1602 -0.8246
  703MOL0     H94838  11.392   8.540   3.959 -1.1804 -0.2672 -0.8103
  703MOL0     H94839  11.558   8.591   4.141 -0.0250 -2.3197 -1.2154
  703MOL0     H94840  11.403   8.896   4.408  1.3792  1.2839 -0.8629
  703MOL0     H94841  11.382   8.775   4.539  0.2639 -2.2457 -1.5777
  703MOL0     H94842  11.533   8.961   4.598 -0.3026 -1.1524  2.0530
  703MOL0     H94843  11.630   8.936   4.465 -2.8532  0.7455 -0.9426
  703MOL0     H94844  11.753   8.831   4.641 -0.2528  0.9760  0.6592
  703MOL0     H94845  11.681   8.690   4.578 -0.9638 -2.0358  2.9695
  703MOL0     H94846  11.624   8.825   4.846 -0.6896 -1.0027  0.4121
  703MOL0     H94847  11.486   8.797   4.763  0.4617  1.9599  1.7684
  703MOL0     H94848  11.695   8.567   4.788  1.2697  2.7025 -1.6303
  703MOL0     H94849  11.602   8.616   4.925 -0.3755  0.7502  1.1486
  703MOL0     H94850  11.393   8.544   4.856  0.1478 -1.5153  0.0688
  703MOL0     H94851  11.403   8.595   4.692  1.0752 -1.9536 -3.1479
  703MOL0     H94852  11.529   8.383   4.645  0.6836  0.3136  0.8772
  703MOL0     H94853  11.384   8.349   4.723  0.7817  0.1503 -1.9447
  703MOL0     H94854  11.638   8.380   4.889  1.0478 -1.3399 -0.8275
  703MOL0     H94855  11.471   8.331   4.947  0.0764  0.8831 -0.8611
  703MOL0     H94856  11.381   8.102   4.747 -0.8827 -1.0337 -0.5181
  703MOL0     H94857  11.452   7.828   4.669  1.0333 -0.9419 -0.1850
  703MOL0     H94858  11.460   7.943   4.541 -1.0615  0.4606  1.5908
  703MOL0     H94859  11.715   7.856   4.531  1.7224 -2.5429  0.6852
  703MOL0     H94860  11.639   7.717   4.595 -0.8086  1.5309  1.7501
  703MOL0     H94861  11.547   7.868   4.336 -2.1379  0.6982  1.3033
  703MOL0     H94862  11.450   7.739   4.395 -0.0432  0.2788  1.9210
  703MOL0     H94863  11.612   7.572   4.347 -0.4302  0.2127 -0.2488
  703MOL0     H94864  11.742   7.701   4.336  0.1151  3.2168 -0.5887
  703MOL0     H94865  11.718   7.444   4.190  1.0929  0.0995  2.4798
  703MOL0     H94866  11.889   7.341   4.048 -2.1777 -0.2512  1.5133
  703MOL0     H94867  12.257   7.369   3.776  1.3962 -0.1744  0.6730
  703MOL0     H94868  12.445   7.361   3.629 -1.4027 -2.1812 -1.8264
  703MOL0     H94869  12.439   7.573   3.230  1.5924  2.8781 -1.0130
  703MOL0     H94870  12.558   7.668   3.317  0.5852  0.6797  1.4396
  703MOL0     H94871  12.589   7.410   3.171 -1.2922 -0.4675  0.2177
  703MOL0     H94872  12.631   7.568   3.119 -1.0720  0.8412  1.3663
  703MOL0     H94873  12.857   7.453   3.188  1.4706  0.2346  0.9485
  703MOL0     H94874  12.814   7.590   3.290 -0.8056 -0.4345  1.1637
  703MOL0     H94875  12.733   7.307   3.355  0.4224 -0.4627 -0.8163
  703MOL0     H94876  12.726   7.447   3.456  1.0241  1.5748 -0.4716
  703MOL0     H94877  12.915   7.314   3.521  1.1880 -2.4811 -2.1298
  703MOL0     H94878  12.984   7.448   3.430  1.0187 -0.1316 -2.3817
  703MOL0     H94879  12.966   7.170   3.343  1.4785 -0.5058  1.2394
  703MOL0     H94880  12.984   7.311   3.227 -3.4909  1.0740  0.2863
  703MOL0     H94881  13.152   7.227   3.478  1.2551  2.5928  0.7690
  703MOL0     H94882  13.193   7.366   3.373  2.0999 -0.5675  3.0823
  703MOL0     H94883  13.209   7.076   3.277 -0.7783  0.3044  0.0512
  703MOL0     H94884  13.251   7.220   3.192 -0.2950  0.7567 -0.0814
  703MOL0     H94885  12.267   7.655   3.360 -0.9090 -1.4843 -1.3417
  703MOL0     H94886  12.079   7.666   3.513  0.6747  0.5822  0.0234
  703MOL0     H94887  11.920   7.723   3.843 -2.1997 -1.0492 -1.8463
  703MOL0     H94888  11.785   7.830   4.013 -0.0108  0.8123 -0.5332
  703MOL0     H94889  11.217   8.739   4.369  0.6375  0.6802 -0.8899
  703MOL0     H94890  11.088   8.735   4.178 -0.7822 -1.9959 -1.8934
  703MOL0     H94891  11.097   8.624   3.700  1.7710 -1.4966  0.7855
  703MOL0     H94892  10.946   8.589   3.501 -3.3070 -1.0588 -0.7883
  703MOL0     H94893  10.612   8.287   3.526 -1.5256 -0.9858 -0.4142
  703MOL0     H94894  10.758   8.206   3.473 -1.2475 -0.7474 -2.2125
  703MOL0     H94895  10.582   8.396   3.327  1.6462 -0.1551  1.3893
  703MOL0     H94896  10.585   8.219   3.293 -0.5667 -0.9989  2.3741
  703MOL0     H94897  10.792   8.238   3.194 -0.7084  0.1809  0.9839
  703MOL0     H94898  10.813   8.410   3.222  0.2677 -0.2863  3.1817
  703MOL0     H94899  10.647   8.486   3.078  0.1430  0.2485  0.0808
  703MOL0     H94900  10.737   8.385   2.979 -0.9926 -0.3648 -0.7059
  703MOL0     H94901  10.382   8.173   3.009 -2.4443  2.8443  0.7431
  703MOL0     H94902  10.751   8.272   3.703  0.1167  1.1168  0.5930
  703MOL0     H94903  10.777   8.219   3.908  0.0560  0.5883 -1.2882
  703MOL0     H94904  10.953   8.185   3.937  0.6545  0.5716 -1.0690
  703MOL0     H94905  10.871   8.318   4.015  3.7986 -1.3845  0.4968
  704MOL0     O94906   3.946   0.444   5.763 -0.0061  0.5846  0.3896
  704MOL0     C94907   3.950   0.500   5.664 -0.7958 -0.3553  0.6878
  704MOL0     O94908   4.064   0.560   5.613 -0.4581 -0.1782  0.1102
  704MOL0     C94909   4.177   0.552   5.692  0.2049  0.0707 -0.9464
  704MOL0     C94910   4.190   0.642   5.795 -1.1596 -0.3407 -1.0379
  704MOL0     C94911   4.307   0.633   5.864 -0.4043 -0.6075  0.4024
  704MOL0     C94912   4.419   0.549   5.831  0.5752 -0.1081  0.3671
  704MOL0     O94913   4.536   0.584   5.883 -0.6619 -0.6268  0.3537
  704MOL0     C94914   4.602   0.475   5.962 -0.3356 -1.0617  0.0956
  704MOL0     C94915   4.717   0.438   5.864 -0.5444  0.0381 -0.8429
  704MOL0     C94916   4.824   0.547   5.867 -0.6965 -0.8053 -0.8152
  704MOL0     C94917   4.911   0.543   5.997  0.6125 -0.3941  0.0164
  704MOL0     C94918   4.997   0.669   5.994  0.1621 -0.5957  0.5375
  704MOL0     C94919   5.057   0.692   6.140  0.6539 -0.0513  0.5925
  704MOL0     C94920   5.139   0.819   6.134 -0.4406 -0.2926 -0.1296
  704MOL0     C94921   5.280   0.796   6.058  0.7404 -0.2790  0.0497
  704MOL0     N94922   5.360   0.696   6.132 -0.8448 -0.3069  0.7380
  704MOL0     C94923   5.401   0.701   6.259 -0.4025 -0.2634  0.1491
  704MOL0     C94924   5.445   0.577   6.283  0.2727 -0.0887  0.2713
  704MOL0     C94925   5.505   0.519   6.409 -0.4269  0.4857  0.1124
  704MOL0     C94926   5.632   0.593   6.446 -0.7828 -0.0281 -0.4281
  704MOL0     C94927   5.750   0.561   6.348 -0.9813  0.3950  0.5196
  704MOL0     C94928   5.882   0.612   6.405 -0.0071  0.0555 -0.6784
  704MOL0     O94929   5.880   0.747   6.395  0.6925 -0.0491  0.4181
  704MOL0     C94930   5.997   0.823   6.402  0.6759  0.2111  0.3175
  704MOL0     C94931   6.120   0.772   6.449  0.7995  0.5477  0.6485
  704MOL0     C94932   6.229   0.852   6.469 -0.2388 -0.6289 -0.4349
  704MOL0     C94933   6.220   0.987   6.444 -0.2508 -0.6281 -0.0372
  704MOL0     C94934   6.338   1.079   6.468 -0.0570 -0.0817  0.3663
  704MOL0     O94935   6.437   1.016   6.538  0.1831  0.3598 -0.3016
  704MOL0     C94936   6.561   1.075   6.566  0.0191 -0.3847 -0.0337
  704MOL0     C94937   6.624   1.008   6.676  0.0918  0.5960  0.2387
  704MOL0     C94938   6.756   1.034   6.700 -0.8518 -0.3940 -0.0910
  704MOL0     C94939   6.818   1.138   6.630  0.2686 -0.0874  0.1235
  704MOL0     O94940   6.952   1.161   6.638  0.2605  0.6483 -0.6219
  704MOL0     C94941   6.994   1.173   6.774  0.2845 -1.2957 -1.0097
  704MOL0     C94942   7.143   1.200   6.771  0.0478 -0.2293  0.4056
  704MOL0     C94943   7.200   1.200   6.914 -0.2950 -0.4863 -0.2054
  704MOL0     C94944   7.244   1.066   6.956 -0.1403 -0.2359  0.3149
  704MOL0     C94945   7.299   1.074   7.104  0.2089 -0.2840  0.2630
  704MOL0     C94946   7.379   0.954   7.146 -0.1772 -0.8636  0.5270
  704MOL0     C94947   7.509   0.928   7.068  0.2419 -0.4366 -0.4529
  704MOL0     C94948   7.600   0.831   7.144 -0.1821  0.8506 -0.3198
  704MOL0    Cl94949   7.718   0.767   7.024 -0.4380  0.1895 -0.1319
  704MOL0     C94950   6.749   1.218   6.535  0.8991  0.0784 -0.0144
  704MOL0     C94951   6.614   1.189   6.504  0.2635 -0.3657 -0.0063
  704MOL0     O94952   6.343   1.190   6.422  0.0098 -0.4012 -0.0582
  704MOL0     C94953   6.103   1.041   6.385  0.0836  0.0207 -0.6350
  704MOL0     C94954   5.987   0.957   6.368 -0.4056 -0.6846  0.6899
  704MOL0     N94955   5.436   0.497   6.171 -0.2164 -0.5596 -0.6992
  704MOL0     N94956   5.388   0.569   6.078  0.5097 -0.2827  0.2316
  704MOL0     C94957   4.396   0.456   5.730  0.9547 -0.4520 -0.5521
  704MOL0     C94958   4.272   0.453   5.667  0.0993 -0.2218 -0.0569
  704MOL0     C94959   3.832   0.501   5.568 -0.5846  0.2931 -0.5673
  704MOL0     C94960   3.841   0.561   5.441 -0.1546 -0.2207 -0.1642
  704MOL0     C94961   3.726   0.570   5.360 -0.5065  0.5138  0.9959
  704MOL0     C94962   3.596   0.516   5.393  0.0944  0.1332  0.8531
  704MOL0     O94963   3.498   0.525   5.298 -0.0471  0.6721 -0.0103
  704MOL0     C94964   3.366   0.472   5.312 -0.7474  0.0117 -0.7701
  704MOL0     C94965   3.374   0.339   5.237  0.3325  0.7632  0.9118
  704MOL0     C94966   3.239   0.317   5.155 -1.3396  0.3508 -0.4765
  704MOL0     C94967   3.258   0.219   5.036 -0.0445 -0.5435  1.3748
  704MOL0     C94968   3.128   0.156   4.996 -0.7093  0.9874  0.8507
  704MOL0     C94969   3.021   0.097   4.983 -0.0285  0.4655 -0.4881
  704MOL0     C94970   3.591   0.449   5.510 -0.3336  0.2532  0.7071
  704MOL0     C94971   3.706   0.442   5.603  0.0441 -0.2406  0.2514
  704MOL0     C94972   3.679   0.362   5.731 -0.6257  0.3331  0.7150
  704MOL0     H94973   4.116   0.719   5.817 -1.0884 -0.6965  0.5281
  704MOL0     H94974   4.321   0.708   5.942  0.4593  0.1290 -0.4397
  704MOL0     H94975   4.631   0.523   6.056 -3.7065  0.1085  0.6947
  704MOL0     H94976   4.537   0.390   5.985 -0.4018 -0.8070  0.8717
  704MOL0     H94977   4.684   0.414   5.762 -2.7094  1.2046 -0.4837
  704MOL0     H94978   4.774   0.350   5.895  0.5324  1.7890  2.6505
  704MOL0     H94979   4.764   0.639   5.864 -1.6355 -1.4228 -2.3663
  704MOL0     H94980   4.891   0.544   5.780  0.9444  0.5418  0.3238
  704MOL0     H94981   4.845   0.555   6.084  1.5075 -0.8998  0.7914
  704MOL0     H94982   4.980   0.458   6.001  0.0588 -0.9542 -1.7702
  704MOL0     H94983   5.076   0.672   5.918  1.5899 -1.5850  1.9078
  704MOL0     H94984   4.930   0.751   5.968 -0.4184 -1.5243 -1.0974
  704MOL0     H94985   4.982   0.700   6.219 -2.2681  0.9165 -2.0660
  704MOL0     H94986   5.107   0.597   6.162  0.7436 -0.3435 -0.7585
  704MOL0     H94987   5.165   0.835   6.239 -1.6944 -0.3023  0.1958
  704MOL0     H94988   5.085   0.906   6.095  0.6976  1.6248  2.3286
  704MOL0     H94989   5.263   0.762   5.955 -3.1379 -1.7212  1.0063
  704MOL0     H94990   5.332   0.892   6.046  1.7380 -0.9099 -0.8283
  704MOL0     H94991   5.389   0.789   6.321 -1.0939  0.6546 -1.2333
  704MOL0     H94992   5.427   0.532   6.485 -0.4127  0.7789  0.0775
  704MOL0     H94993   5.526   0.412   6.402  1.6183  0.6872  1.7936
  704MOL0     H94994   5.608   0.700   6.444 -1.9206 -0.0601  3.3471
  704MOL0     H94995   5.658   0.578   6.551  0.2064  0.0920 -0.6512
  704MOL0     H94996   5.729   0.601   6.248  3.9016  0.3205 -0.8061
  704MOL0     H94997   5.760   0.452   6.349 -0.1310  0.3933 -1.6149
  704MOL0     H94998   5.965   0.587   6.338  0.4806  2.7591 -1.1908
  704MOL0     H94999   5.900   0.585   6.509  1.0058  0.2099 -0.8060
  704MOL0     H95000   6.133   0.666   6.471  0.4224  0.7479  1.9527
  704MOL0     H95001   6.321   0.807   6.506  0.5898 -0.2925 -2.0061
  704MOL0     H95002   6.560   0.936   6.725 -1.6998  4.0144  3.4524
  704MOL0     H95003   6.812   0.968   6.766  1.1006 -0.3151 -1.5771
  704MOL0     H95004   6.938   1.251   6.828  1.1791 -0.3987 -1.3472
  704MOL0     H95005   6.973   1.080   6.826 -2.9986 -0.8088 -1.2418
  704MOL0     H95006   7.195   1.122   6.715 -1.5281 -1.3762  0.4902
  704MOL0     H95007   7.147   1.302   6.730 -1.4621  1.2707  3.6625
  704MOL0     H95008   7.277   1.277   6.929 -1.7791  1.3252 -1.3632
  704MOL0     H95009   7.116   1.226   6.980  1.6778 -0.9707  2.6884
  704MOL0     H95010   7.315   1.039   6.878 -3.3914 -2.0070 -2.2559
  704MOL0     H95011   7.173   0.984   6.968 -2.3130  1.7265  1.8861
  704MOL0     H95012   7.215   1.071   7.174 -1.5604  1.0785 -1.7012
  704MOL0     H95013   7.348   1.171   7.118 -1.0116  0.2814  0.7774
  704MOL0     H95014   7.396   0.957   7.254 -1.2542 -1.4934  0.7248
  704MOL0     H95015   7.319   0.871   7.109 -0.2914 -0.5852  0.0717
  704MOL0     H95016   7.561   1.022   7.045 -1.1384 -0.0367 -2.1718
  704MOL0     H95017   7.481   0.883   6.973  2.0192  3.0331 -2.8079
  704MOL0     H95018   7.655   0.885   7.223  1.5511  0.1002 -0.9555
  704MOL0     H95019   7.536   0.749   7.178 -1.2119  1.5511 -0.5315
  704MOL0     H95020   6.793   1.292   6.469 -1.1729  0.3445 -1.1863
  704MOL0     H95021   6.557   1.244   6.430  0.2519 -0.7529 -0.2842
  704MOL0     H95022   6.082   1.145   6.363  0.2749  0.6805  1.9688
  704MOL0     H95023   5.889   0.994   6.336 -0.0043 -0.0880  0.1180
  704MOL0     H95024   4.480   0.394   5.700  2.3956  1.0493  0.2434
  704MOL0     H95025   4.247   0.380   5.590 -0.9426 -3.0400  2.7433
  704MOL0     H95026   3.933   0.602   5.402  0.7270  1.4658  3.2876
  704MOL0     H95027   3.739   0.632   5.272 -2.5835  0.2719  0.4795
  704MOL0     H95028   3.303   0.541   5.256 -0.6586 -0.6926 -1.7775
  704MOL0     H95029   3.334   0.452   5.415  3.4400  2.3743  1.2534
  704MOL0     H95030   3.395   0.260   5.309 -0.3353  1.2684  1.6648
  704MOL0     H95031   3.455   0.339   5.163  0.7198 -1.0578  1.2940
  704MOL0     H95032   3.195   0.405   5.107 -1.4123 -0.5590 -2.1389
  704MOL0     H95033   3.172   0.264   5.222  0.0239 -1.6928 -0.6395
  704MOL0     H95034   3.314   0.265   4.954 -0.0870 -4.0728 -0.8720
  704MOL0     H95035   3.318   0.133   5.066  1.9397 -0.0019 -0.7213
  704MOL0     H95036   2.932   0.039   4.978 -0.7601  1.5626 -0.6788
  704MOL0     H95037   3.503   0.394   5.541  2.0984 -3.0802  2.4367
  704MOL0     H95038   3.731   0.420   5.807  0.2595 -0.5344  0.7927
  704MOL0     H95039   3.573   0.348   5.751 -0.6563 -3.8936 -1.3669
  704MOL0     H95040   3.718   0.261   5.715 -1.3049 -0.1852  2.1369
  705MOL0     O95041   8.240   4.340   7.949 -0.2283 -0.0760 -0.3063
  705MOL0     C95042   8.243   4.301   7.829 -0.7731  0.3893 -0.4609
  705MOL0     O95043   8.353   4.282   7.751 -0.5529 -0.2051  0.4015
  705MOL0     C95044   8.481   4.297   7.813  0.0555 -0.0011 -0.9138
  705MOL0     C95045   8.531   4.206   7.909  1.0986 -1.4772  0.9377
  705MOL0     C95046   8.663   4.223   7.946  0.1896  0.0683  0.4799
  705MOL0     C95047   8.743   4.323   7.890 -0.2991  1.0281  0.7095
  705MOL0     O95048   8.875   4.353   7.915 -0.1671  0.4624 -0.0301
  705MOL0     C95049   8.904   4.379   8.048  0.2348  1.2864  0.6364
  705MOL0     C95050   9.052   4.423   8.056 -0.5628  0.2475 -0.0417
  705MOL0     C95051   9.092   4.479   8.198 -0.3353 -0.2803 -0.6761
  705MOL0     C95052   9.245   4.467   8.225 -0.9373 -0.2042 -0.7222
  705MOL0     C95053   9.316   4.585   8.158  0.0876  0.0423 -0.2267
  705MOL0     C95054   9.469   4.572   8.201 -0.4933  0.2441  0.3897
  705MOL0     C95055   9.550   4.697   8.154  0.7016 -0.5425  0.0207
  705MOL0     C95056   9.687   4.686   8.208  0.3734 -0.1363 -0.2728
  705MOL0     N95057   9.772   4.603   8.122  0.1925  0.2684  0.1910
  705MOL0     C95058   9.828   4.636   7.999  0.0070 -0.5281 -0.3282
  705MOL0     C95059   9.873   4.513   7.948  0.3085  0.0971 -0.8814
  705MOL0     C95060   9.946   4.487   7.819 -0.0822 -0.5163 -0.3280
  705MOL0     C95061  10.068   4.577   7.805 -0.1330 -0.1050  0.1960
  705MOL0     C95062  10.151   4.588   7.933  0.1479  0.2079  0.1989
  705MOL0     C95063  10.279   4.670   7.907  0.2348  0.0565  0.1462
  705MOL0     O95064  10.356   4.608   7.792 -0.7019 -0.4872 -0.5657
  705MOL0     C95065  10.480   4.658   7.761  0.7921  0.3134 -0.6777
  705MOL0     C95066  10.522   4.785   7.809  0.6745 -0.1151  0.2430
  705MOL0     C95067  10.656   4.820   7.773 -0.3279  0.1451  0.3217
  705MOL0     C95068  10.740   4.742   7.694 -0.0672  0.1027 -0.6412
  705MOL0     C95069  10.884   4.779   7.688  0.6332  0.0034  0.8807
  705MOL0     O95070  10.933   4.913   7.703 -0.4448  0.7423  0.0271
  705MOL0     C95071  11.059   4.943   7.667 -0.0992 -0.0928  0.4450
  705MOL0     C95072  11.098   4.988   7.543 -0.0601  0.1445  0.2805
  705MOL0     C95073  11.231   5.036   7.519  0.1251 -0.0586 -0.4488
  705MOL0     C95074  11.334   5.020   7.619 -0.0486  0.6355  0.5991
  705MOL0     O95075  11.466   5.057   7.617 -0.5908 -0.1578 -0.3423
  705MOL0     C95076  11.502   5.188   7.580  0.3621 -0.3020 -0.2001
  705MOL0     C95077  11.516   5.215   7.434  0.0675 -0.7629  0.2606
  705MOL0     C95078  11.563   5.361   7.415  0.2938 -0.1848 -0.6033
  705MOL0     C95079  11.698   5.388   7.472  0.0760 -0.3059  0.4306
  705MOL0     C95080  11.751   5.536   7.453  0.2170 -0.1723 -0.4267
  705MOL0     C95081  11.659   5.643   7.519 -0.3596 -0.3726 -0.3478
  705MOL0     C95082  11.632   5.777   7.438 -0.6591 -0.4872 -0.3520
  705MOL0     C95083  11.582   5.728   7.304 -0.3624  0.3665 -0.3763
  705MOL0    Cl95084  11.515   5.869   7.220  0.2188 -0.0427  0.1140
  705MOL0     C95085  11.293   4.966   7.741 -1.0687 -0.5446 -0.4222
  705MOL0     C95086  11.159   4.940   7.766 -0.6251 -0.3616 -0.7436
  705MOL0     O95087  10.958   4.684   7.662 -0.3243 -0.2266 -0.3422
  705MOL0     C95088  10.694   4.612   7.651 -0.6152 -1.0043 -0.1573
  705MOL0     C95089  10.560   4.580   7.679 -0.8539  0.7489 -0.1591
  705MOL0     N95090   9.851   4.422   8.050  0.9571  0.2369  0.7467
  705MOL0     N95091   9.803   4.474   8.156  0.0669  1.0882  0.3675
  705MOL0     C95092   8.694   4.405   7.791 -0.6401 -0.8162  0.2346
  705MOL0     C95093   8.565   4.384   7.746 -0.3942 -0.0366 -0.2114
  705MOL0     C95094   8.109   4.245   7.764 -0.4850  0.8850  0.6239
  705MOL0     C95095   8.116   4.208   7.627  0.9814 -0.6502 -0.2721
  705MOL0     C95096   8.009   4.185   7.550  0.1999  0.7261  0.1134
  705MOL0     C95097   7.880   4.185   7.591  0.1513 -0.8894 -1.1806
  705MOL0     O95098   7.787   4.147   7.498 -0.1250  0.1603 -0.9877
  705MOL0     C95099   7.650   4.159   7.538 -0.7745 -0.8649  0.1863
  705MOL0     C95100   7.602   4.304   7.550  0.3365  0.0448 -1.1062
  705MOL0     C95101   7.616   4.383   7.421  0.2524 -0.2861  0.8115
  705MOL0     C95102   7.565   4.520   7.421 -0.2652  0.3042 -0.0859
  705MOL0     C95103   7.418   4.526   7.463 -0.1006  0.6046  0.7531
  705MOL0     C95104   7.298   4.534   7.492 -0.0516 -0.2706  0.5963
  705MOL0     C95105   7.862   4.216   7.730 -0.3013 -0.0097 -0.0454
  705MOL0     C95106   7.977   4.238   7.820  0.4730 -0.0436 -0.0623
  705MOL0     C95107   7.953   4.278   7.962  0.4909 -0.4455 -0.0042
  705MOL0     H95108   8.475   4.118   7.938  1.1777 -1.2264  1.8772
  705MOL0     H95109   8.704   4.148   8.014 -0.9097 -0.9365  0.0710
  705MOL0     H95110   8.831   4.451   8.087 -2.3520 -1.4429  1.2350
  705MOL0     H95111   8.890   4.288   8.107  0.0563  3.0331  3.5019
  705MOL0     H95112   9.074   4.508   7.991  0.9485 -0.7237 -0.8614
  705MOL0     H95113   9.117   4.341   8.023 -1.7670 -0.6338 -0.2862
  705MOL0     H95114   9.039   4.423   8.275  2.1698 -1.6803  0.1459
  705MOL0     H95115   9.055   4.582   8.203 -2.3726 -0.9681 -0.8542
  705MOL0     H95116   9.256   4.475   8.333 -1.4529  1.5599 -0.7603
  705MOL0     H95117   9.275   4.369   8.187 -2.3268  0.3075 -3.3684
  705MOL0     H95118   9.292   4.595   8.052 -3.8313 -1.5026  0.3622
  705MOL0     H95119   9.281   4.675   8.210  0.7392 -0.5323  1.2547
  705MOL0     H95120   9.487   4.563   8.308  2.0179 -1.2029 -0.0775
  705MOL0     H95121   9.511   4.487   8.147 -0.1189 -0.9420  2.4440
  705MOL0     H95122   9.494   4.783   8.194 -1.0459 -0.5552 -2.1956
  705MOL0     H95123   9.559   4.709   8.046  0.2231 -0.0124  0.0301
  705MOL0     H95124   9.730   4.786   8.221  3.6357 -1.4102 -0.4631
  705MOL0     H95125   9.682   4.636   8.305 -1.5216 -0.8853 -0.7118
  705MOL0     H95126   9.827   4.736   7.957 -1.4218 -0.0609  0.7138
  705MOL0     H95127   9.979   4.383   7.815  0.9370 -0.3347  1.9633
  705MOL0     H95128   9.883   4.497   7.730 -0.1557 -2.2337 -0.4918
  705MOL0     H95129  10.134   4.544   7.724  4.3446 -0.5612  3.6176
  705MOL0     H95130  10.046   4.681   7.780 -1.1627  0.4116  2.9341
  705MOL0     H95131  10.175   4.483   7.954  1.5308  1.0958  3.8283
  705MOL0     H95132  10.100   4.636   8.017 -1.6627 -0.2241 -0.6018
  705MOL0     H95133  10.336   4.686   7.999  0.6908 -1.0703  0.0732
  705MOL0     H95134  10.256   4.772   7.876  3.2688  1.1042  1.0754
  705MOL0     H95135  10.464   4.843   7.881  1.0563  0.7778 -0.1549
  705MOL0     H95136  10.701   4.908   7.816 -2.9947  1.0774  1.4034
  705MOL0     H95137  11.028   4.975   7.462 -2.0216 -1.1546  2.0619
  705MOL0     H95138  11.263   5.083   7.426  0.8158  0.8398  0.2275
  705MOL0     H95139  11.423   5.247   7.628 -0.1307 -0.2843 -1.0039
  705MOL0     H95140  11.595   5.219   7.627  1.5205 -0.5450 -2.1981
  705MOL0     H95141  11.582   5.139   7.389  0.7665  1.3814 -2.5966
  705MOL0     H95142  11.421   5.215   7.381 -0.4489 -1.5793  1.1471
  705MOL0     H95143  11.550   5.394   7.311 -2.2640 -2.6252 -1.1677
  705MOL0     H95144  11.493   5.424   7.470  3.1036  1.5673  1.2642
  705MOL0     H95145  11.767   5.313   7.433  2.3290  0.6084  2.3282
  705MOL0     H95146  11.703   5.377   7.581 -1.5876 -0.9899  0.4600
  705MOL0     H95147  11.759   5.546   7.344 -0.2919 -1.4805 -0.6124
  705MOL0     H95148  11.856   5.549   7.481 -0.3167  0.4931  1.4182
  705MOL0     H95149  11.566   5.605   7.561  0.9359 -1.7519  1.4556
  705MOL0     H95150  11.721   5.666   7.606  3.2289 -1.6435 -2.3544
  705MOL0     H95151  11.727   5.825   7.415  0.1976 -1.8380  0.2375
  705MOL0     H95152  11.562   5.848   7.482  3.3938  3.4824  0.3327
  705MOL0     H95153  11.658   5.693   7.234 -0.9748  1.2613 -1.5207
  705MOL0     H95154  11.500   5.656   7.307 -0.2734  0.2367  3.2268
  705MOL0     H95155  11.362   4.968   7.824 -0.5145  0.2310 -0.8791
  705MOL0     H95156  11.123   4.917   7.866 -0.5431 -0.3598 -0.7131
  705MOL0     H95157  10.757   4.531   7.615 -4.0382 -3.6688 -0.6460
  705MOL0     H95158  10.515   4.491   7.636  0.5822  0.2897 -0.7724
  705MOL0     H95159   8.759   4.484   7.754 -1.4092 -0.0587  0.4462
  705MOL0     H95160   8.526   4.449   7.668  1.6805  0.6020 -0.7953
  705MOL0     H95161   8.212   4.206   7.575  2.0891 -1.9400  1.6679
  705MOL0     H95162   8.049   4.157   7.453 -0.6037 -0.8225  0.1940
  705MOL0     H95163   7.627   4.115   7.636  2.7793 -1.5239  0.8801
  705MOL0     H95164   7.585   4.115   7.462  0.0607  1.4416 -1.9815
  705MOL0     H95165   7.647   4.356   7.636 -0.2583 -0.6537 -0.3509
  705MOL0     H95166   7.495   4.288   7.568  0.4520  2.5044  3.5736
  705MOL0     H95167   7.566   4.328   7.341 -1.2812  3.2222 -0.8685
  705MOL0     H95168   7.723   4.384   7.398  0.2823  1.8593  0.8650
  705MOL0     H95169   7.614   4.587   7.492 -1.9382  0.1339  1.2866
  705MOL0     H95170   7.552   4.552   7.317 -1.7676  0.4330  0.1134
  705MOL0     H95171   7.193   4.550   7.507  0.1083  1.5924  0.0053
  705MOL0     H95172   7.761   4.209   7.770  0.4898 -2.4577  1.7174
  705MOL0     H95173   7.990   4.379   7.984  0.3404 -0.2992 -0.4080
  705MOL0     H95174   7.845   4.283   7.978  0.4478  0.9449 -0.5622
  705MOL0     H95175   8.004   4.206   8.026  0.9941 -0.9804 -0.9857
  706MOL0     O95176   4.867   0.867   6.623 -0.5782 -0.0292 -0.3768
  706MOL0     C95177   4.877   0.808   6.517 -0.7646  0.1945 -0.6174
  706MOL0     O95178   4.995   0.751   6.475  0.2760 -0.1742  0.1868
  706MOL0     C95179   5.118   0.816   6.515 -0.1429 -0.1997  0.1084
  706MOL0     C95180   5.224   0.727   6.537 -0.0743 -0.0479 -0.2448
  706MOL0     C95181   5.346   0.783   6.591 -0.3647  0.0200 -0.3284
  706MOL0     C95182   5.362   0.925   6.613  0.6820  1.0356 -0.0113
  706MOL0     O95183   5.481   0.971   6.661  0.0848 -0.3495 -0.0106
  706MOL0     C95184   5.531   1.076   6.586 -0.2635 -1.4218  0.2236
  706MOL0     C95185   5.681   1.070   6.579 -0.4954  0.7287  0.1511
  706MOL0     C95186   5.762   1.044   6.709  0.5784  0.2392 -0.1342
  706MOL0     C95187   5.914   1.057   6.690 -0.0491  0.3531  0.9283
  706MOL0     C95188   5.973   1.059   6.833  0.9779  0.2487  0.5678
  706MOL0     C95189   6.125   1.079   6.823  0.5779  0.0397 -0.8007
  706MOL0     C95190   6.185   1.084   6.965 -1.0393 -0.5051 -0.5066
  706MOL0     C95191   6.337   1.114   6.968  0.6719 -0.1477 -0.2605
  706MOL0     N95192   6.350   1.257   6.936 -0.2195  0.3745 -0.2940
  706MOL0     C95193   6.362   1.320   6.814  0.0405  0.9220 -0.0163
  706MOL0     C95194   6.354   1.454   6.842  0.8410 -0.2526  0.3222
  706MOL0     C95195   6.356   1.562   6.741  0.3103 -0.0002  0.9229
  706MOL0     C95196   6.235   1.581   6.653  0.1687  0.2435  0.3000
  706MOL0     C95197   6.102   1.562   6.732  0.4412  0.4874  0.3091
  706MOL0     C95198   5.995   1.467   6.670  0.5621 -0.5787  0.5281
  706MOL0     O95199   5.888   1.438   6.763 -0.2579 -0.0533 -0.2941
  706MOL0     C95200   5.760   1.445   6.720  0.0993 -0.1700 -0.0467
  706MOL0     C95201   5.708   1.478   6.593  1.0124  0.4912  0.5280
  706MOL0     C95202   5.571   1.486   6.566  0.0630 -0.3240  0.2824
  706MOL0     C95203   5.475   1.448   6.673  0.1254 -0.3584 -0.2825
  706MOL0     C95204   5.327   1.445   6.633  0.0543 -0.4843 -0.0185
  706MOL0     O95205   5.237   1.381   6.708  0.3584  0.6420 -0.4358
  706MOL0     C95206   5.100   1.401   6.707 -0.3076 -0.8189 -0.5338
  706MOL0     C95207   5.014   1.287   6.723  0.3421  0.3809  0.5093
  706MOL0     C95208   4.874   1.297   6.729 -0.3261  0.4124  0.3252
  706MOL0     C95209   4.817   1.433   6.753 -0.2593  0.3807 -0.4914
  706MOL0     O95210   4.684   1.455   6.774  0.0636  0.0657 -0.2541
  706MOL0     C95211   4.634   1.383   6.883 -0.8444  0.6147 -0.0688
  706MOL0     C95212   4.596   1.474   6.999 -0.4438  0.1767  0.3717
  706MOL0     C95213   4.714   1.554   7.060 -0.3103 -0.0810 -0.0270
  706MOL0     C95214   4.678   1.607   7.196  1.1450  0.4065 -1.2552
  706MOL0     C95215   4.741   1.736   7.241 -0.2230  1.2436 -0.7160
  706MOL0     C95216   4.719   1.856   7.138  0.6512  0.5071  0.4041
  706MOL0     C95217   4.722   1.990   7.206  0.3818 -0.7199  0.7453
  706MOL0     C95218   4.672   2.098   7.100 -0.3754  0.8259 -0.7855
  706MOL0    Cl95219   4.756   2.092   6.946 -0.2988 -0.3400  0.2291
  706MOL0     C95220   4.894   1.540   6.746  0.1485  0.4842 -0.0544
  706MOL0     C95221   5.035   1.526   6.720  0.2174  0.2070  0.4734
  706MOL0     O95222   5.305   1.497   6.524 -0.3255  0.0913 -0.1157
  706MOL0     C95223   5.526   1.415   6.798 -0.3711  0.2519  0.5963
  706MOL0     C95224   5.659   1.424   6.816 -0.3429  0.6919  0.8848
  706MOL0     N95225   6.350   1.469   6.984 -0.1769 -0.6465  0.1070
  706MOL0     N95226   6.356   1.353   7.033  0.2921  0.1016  0.3448
  706MOL0     C95227   5.258   1.013   6.578  0.1697  0.2637  0.5364
  706MOL0     C95228   5.136   0.953   6.531 -1.0778 -0.2083 -0.4462
  706MOL0     C95229   4.753   0.772   6.434 -0.3804 -1.0769 -0.2423
  706MOL0     C95230   4.751   0.650   6.371 -0.0650  0.3426 -0.3080
  706MOL0     C95231   4.630   0.606   6.306  0.1456 -0.7429 -0.4942
  706MOL0     C95232   4.510   0.687   6.315  0.3082  0.6625  0.0772
  706MOL0     O95233   4.395   0.628   6.267 -0.1064  0.5412  0.8011
  706MOL0     C95234   4.276   0.706   6.274 -0.3001 -0.1503 -0.7151
  706MOL0     C95235   4.170   0.641   6.190 -0.4452 -0.2893 -0.1690
  706MOL0     C95236   4.063   0.731   6.131  0.0341 -0.7839  0.4428
  706MOL0     C95237   3.953   0.651   6.052  0.4141 -0.4925 -1.0138
  706MOL0     C95238   3.851   0.752   6.014 -1.2224  1.3502 -0.0067
  706MOL0     C95239   3.768   0.838   5.987  0.1043 -0.7510 -0.9788
  706MOL0     C95240   4.528   0.806   6.388  0.6835  0.3113  0.4084
  706MOL0     C95241   4.636   0.858   6.443 -1.5001 -0.1450 -0.4807
  706MOL0     C95242   4.642   0.998   6.523  0.3265  1.0424  0.5375
  706MOL0     H95243   5.215   0.619   6.529  0.7770 -0.1698  0.3023
  706MOL0     H95244   5.431   0.717   6.607 -2.0358 -3.0437 -2.7159
  706MOL0     H95245   5.504   1.061   6.481 -1.4650 -1.9382  0.5924
  706MOL0     H95246   5.497   1.173   6.626  1.6052  0.4018 -2.3242
  706MOL0     H95247   5.715   1.162   6.530  0.2318 -0.0842 -0.9049
  706MOL0     H95248   5.696   0.985   6.512  0.7866  1.7624 -0.9334
  706MOL0     H95249   5.741   0.944   6.749 -3.2801  1.3182  0.9507
  706MOL0     H95250   5.733   1.112   6.789  1.8063 -2.3832  2.7497
  706MOL0     H95251   5.948   0.975   6.626 -1.8648  2.3806 -2.9127
  706MOL0     H95252   5.935   1.151   6.638 -0.8209  0.2831  0.4797
  706MOL0     H95253   5.919   1.138   6.886 -3.7524 -3.1759  1.4186
  706MOL0     H95254   5.945   0.963   6.877  1.1412 -0.6897 -1.2684
  706MOL0     H95255   6.159   1.002   6.753  1.0485 -0.4354 -0.0580
  706MOL0     H95256   6.131   1.180   6.779 -0.3248  0.8352  0.8164
  706MOL0     H95257   6.176   0.982   7.002  0.8829  0.3544  2.6786
  706MOL0     H95258   6.122   1.147   7.029 -0.7013 -0.1089 -0.5589
  706MOL0     H95259   6.387   1.096   7.063 -1.5205 -3.2360  0.4663
  706MOL0     H95260   6.386   1.046   6.897  1.2933 -0.8466  0.8034
  706MOL0     H95261   6.366   1.272   6.716  0.3445  1.9675 -0.5307
  706MOL0     H95262   6.362   1.658   6.794 -0.7831  0.8415 -0.4082
  706MOL0     H95263   6.441   1.553   6.673 -1.5568  2.5792 -2.0281
  706MOL0     H95264   6.232   1.688   6.632  0.0375  0.3379  0.7933
  706MOL0     H95265   6.253   1.512   6.570 -0.8866 -0.3904  0.5749
  706MOL0     H95266   6.052   1.656   6.755 -1.9474  0.2024 -2.9729
  706MOL0     H95267   6.122   1.517   6.829 -1.2974  1.6990  1.2715
  706MOL0     H95268   6.046   1.376   6.637  0.7632 -0.6285  0.9663
  706MOL0     H95269   5.964   1.524   6.582  4.3640  0.9147 -0.0517
  706MOL0     H95270   5.780   1.489   6.512  0.9369 -0.9914  0.2257
  706MOL0     H95271   5.539   1.498   6.463  1.7149  1.7029 -0.0796
  706MOL0     H95272   5.044   1.183   6.713  0.0544  0.1379  2.0503
  706MOL0     H95273   4.813   1.207   6.731 -0.7834  0.7254  0.6342
  706MOL0     H95274   4.547   1.323   6.854  0.7598 -3.0103  1.9152
  706MOL0     H95275   4.718   1.324   6.920 -1.4258 -1.6018 -2.0300
  706MOL0     H95276   4.507   1.536   6.984 -1.0416 -1.1217 -1.8326
  706MOL0     H95277   4.557   1.414   7.082 -1.9820  1.0748  0.3546
  706MOL0     H95278   4.798   1.485   7.075 -2.3577 -2.4444  1.4162
  706MOL0     H95279   4.748   1.629   6.988 -0.7844 -0.0365 -0.2053
  706MOL0     H95280   4.690   1.535   7.277 -2.1130  0.9127 -0.1969
  706MOL0     H95281   4.571   1.628   7.197  0.8981 -0.8316 -0.0817
  706MOL0     H95282   4.847   1.712   7.250 -1.2664 -4.3166  0.4815
  706MOL0     H95283   4.702   1.767   7.339  1.9706  2.4410 -0.1636
  706MOL0     H95284   4.791   1.843   7.057 -0.6571  1.7301 -1.0096
  706MOL0     H95285   4.622   1.845   7.089  1.9133  0.8428 -2.3407
  706MOL0     H95286   4.823   2.010   7.241  0.0380 -0.2543  1.4854
  706MOL0     H95287   4.657   1.999   7.293 -2.2232  1.7835 -1.2573
  706MOL0     H95288   4.567   2.077   7.075 -0.9146  1.0980  1.0775
  706MOL0     H95289   4.679   2.196   7.148 -1.2869  1.3126 -1.6008
  706MOL0     H95290   4.851   1.635   6.777  0.7921  0.6181  0.4520
  706MOL0     H95291   5.094   1.617   6.718 -1.1306  1.1060 -0.4604
  706MOL0     H95292   5.464   1.380   6.880 -0.1295  0.1708  0.7486
  706MOL0     H95293   5.708   1.406   6.912  0.6372  0.3194  0.3324
  706MOL0     H95294   5.246   1.119   6.597 -1.3635 -0.0404  1.3902
  706MOL0     H95295   5.049   1.016   6.514 -1.9855 -1.1595  0.4639
  706MOL0     H95296   4.837   0.584   6.359 -1.1870 -1.1729 -0.3872
  706MOL0     H95297   4.615   0.506   6.268 -2.8793 -0.2685 -0.7512
  706MOL0     H95298   4.290   0.806   6.232  0.5215 -0.7885 -2.0199
  706MOL0     H95299   4.251   0.712   6.380  2.5422  1.6689 -0.0497
  706MOL0     H95300   4.123   0.563   6.251 -1.1931  0.1448 -0.1765
  706MOL0     H95301   4.222   0.590   6.109  0.7275  0.6248 -0.0135
  706MOL0     H95302   4.119   0.798   6.065 -1.0891  1.3367  1.5473
  706MOL0     H95303   4.017   0.795   6.206  0.9469  0.4256  0.0031
  706MOL0     H95304   3.989   0.602   5.961  1.7320  1.1010 -1.4090
  706MOL0     H95305   3.914   0.563   6.104  1.1180 -1.0336 -1.3814
  706MOL0     H95306   3.711   0.929   5.980 -2.0729 -1.9604 -0.0300
  706MOL0     H95307   4.443   0.874   6.392  1.0138  0.7504 -0.0500
  706MOL0     H95308   4.740   1.039   6.497  0.9934 -1.6430 -1.8222
  706MOL0     H95309   4.562   1.067   6.497 -1.1993 -0.0982  1.9886
  706MOL0     H95310   4.651   0.973   6.629  0.8998  0.0827  0.2767
  707MOL0     O95311   5.435   2.452   3.523  0.2874 -0.3472  0.5137
  707MOL0     C95312   5.371   2.424   3.619 -0.4184 -0.1075  0.4657
  707MOL0     O95313   5.397   2.451   3.748 -0.5553  0.7399  0.6353
  707MOL0     C95314   5.528   2.503   3.764 -0.2363  0.0404  0.4731
  707MOL0     C95315   5.634   2.417   3.766  0.2477  0.5347 -0.9736
  707MOL0     C95316   5.769   2.460   3.785  0.9079 -1.0422 -0.4743
  707MOL0     C95317   5.792   2.596   3.786  0.1541  0.5999 -0.3953
  707MOL0     O95318   5.922   2.643   3.813  0.0661 -0.3181  0.1117
  707MOL0     C95319   5.968   2.738   3.714 -0.3895 -0.1475  0.1395
  707MOL0     C95320   6.063   2.823   3.787 -0.3153 -1.0454 -0.6440
  707MOL0     C95321   6.148   2.914   3.693 -0.1162  0.1149  0.1019
  707MOL0     C95322   6.221   3.040   3.758 -0.0724 -0.0915  0.1887
  707MOL0     C95323   6.320   2.996   3.862  0.1331  0.5929  0.4146
  707MOL0     C95324   6.380   3.111   3.952  0.2690 -0.1779 -0.2381
  707MOL0     C95325   6.501   3.074   4.055  0.4215 -0.4052  0.8036
  707MOL0     C95326   6.632   3.028   3.982  0.2109  0.3945 -0.0560
  707MOL0     N95327   6.719   3.147   3.936  0.4264 -0.2968 -0.0857
  707MOL0     C95328   6.751   3.253   4.014 -0.0665 -0.3717 -0.2479
  707MOL0     C95329   6.830   3.328   3.935  0.2505  1.1897  0.3151
  707MOL0     C95330   6.899   3.453   3.982  0.2464 -0.4078 -0.4978
  707MOL0     C95331   7.054   3.460   3.960  0.2819  0.1639 -0.2045
  707MOL0     C95332   7.092   3.587   3.880 -0.1766  0.6273 -0.5632
  707MOL0     C95333   7.059   3.607   3.735  0.0458 -0.0713  0.5423
  707MOL0     O95334   6.925   3.651   3.724 -0.1412 -1.1169  0.0810
  707MOL0     C95335   6.870   3.674   3.602  0.2470  0.0357  0.1652
  707MOL0     C95336   6.766   3.766   3.603 -0.0951  0.0341 -0.0133
  707MOL0     C95337   6.689   3.793   3.485 -0.5927  0.1274  0.0551
  707MOL0     C95338   6.721   3.724   3.362 -0.4409  0.0152 -0.0882
  707MOL0     C95339   6.650   3.766   3.242 -1.1342 -0.2080  0.7191
  707MOL0     O95340   6.558   3.870   3.237 -1.2726 -0.1061 -0.2904
  707MOL0     C95341   6.472   3.888   3.131  0.0236  0.1618  0.2302
  707MOL0     C95342   6.349   3.947   3.154  0.9132  0.0621  0.5967
  707MOL0     C95343   6.253   3.958   3.057  0.6738  0.0672  0.3623
  707MOL0     C95344   6.282   3.931   2.926  0.1384  0.5143  0.5019
  707MOL0     O95345   6.170   3.949   2.844 -0.5707  0.1124 -0.4278
  707MOL0     C95346   6.194   3.967   2.700 -0.1860 -0.2794  0.4795
  707MOL0     C95347   6.067   3.974   2.626 -1.0230 -0.0474  0.1257
  707MOL0     C95348   5.986   4.099   2.634  0.9233  0.4490  0.0787
  707MOL0     C95349   5.845   4.083   2.588  0.7698  0.2738 -0.0205
  707MOL0     C95350   5.765   4.214   2.575 -0.3113  0.3449  0.0417
  707MOL0     C95351   5.615   4.183   2.573 -0.4996  1.1939  0.4565
  707MOL0     C95352   5.537   4.301   2.565 -0.7937 -1.2039  0.3428
  707MOL0     C95353   5.395   4.272   2.564  0.4055  0.2747 -0.5552
  707MOL0    Cl95354   5.348   4.221   2.405  0.2563  0.3896 -0.4565
  707MOL0     C95355   6.402   3.871   2.891 -0.4994 -0.0622  0.2602
  707MOL0     C95356   6.496   3.858   2.992  0.3544  0.6606 -0.0024
  707MOL0     O95357   6.667   3.688   3.148 -0.4274  0.4051 -0.2372
  707MOL0     C95358   6.824   3.624   3.362  0.3419  0.3432 -0.5704
  707MOL0     C95359   6.899   3.606   3.486 -0.0040 -0.2956 -0.3822
  707MOL0     N95360   6.814   3.288   3.808 -0.0344  0.4991 -0.0806
  707MOL0     N95361   6.756   3.171   3.808 -0.3379 -0.0015 -0.0896
  707MOL0     C95362   5.689   2.684   3.788  0.0612  0.3384  0.7187
  707MOL0     C95363   5.559   2.640   3.778  0.3645  0.4694  0.2299
  707MOL0     C95364   5.244   2.349   3.579  0.2693  0.3827 -1.0529
  707MOL0     C95365   5.270   2.213   3.540 -0.7903  0.9636 -0.6464
  707MOL0     C95366   5.155   2.133   3.515 -0.9796  0.1503 -0.0884
  707MOL0     C95367   5.028   2.176   3.541  0.3279  0.1933 -0.1109
  707MOL0     O95368   4.927   2.081   3.522 -0.6210 -0.0265  0.4905
  707MOL0     C95369   4.790   2.120   3.552  1.3269  0.4018  0.6746
  707MOL0     C95370   4.744   2.055   3.688  0.7851 -0.4013  0.2469
  707MOL0     C95371   4.598   2.006   3.695 -0.0977 -0.8570  0.3772
  707MOL0     C95372   4.545   1.994   3.835  0.2948  0.4245 -0.1370
  707MOL0     C95373   4.448   1.882   3.857  0.5934  0.2562  0.1593
  707MOL0     C95374   4.371   1.789   3.873  0.1278  0.9974 -1.0273
  707MOL0     C95375   5.007   2.300   3.598 -0.3161  0.2028 -0.0391
  707MOL0     C95376   5.116   2.390   3.613 -0.5768 -0.0813  0.4989
  707MOL0     C95377   5.103   2.528   3.673  0.4838  0.3497  1.0488
  707MOL0     H95378   5.609   2.312   3.748 -0.0527  0.5791 -0.8227
  707MOL0     H95379   5.847   2.385   3.788  1.5132 -0.4611 -1.3322
  707MOL0     H95380   6.003   2.686   3.625  0.1419  0.3165  0.0722
  707MOL0     H95381   5.887   2.796   3.668  0.0714 -1.7444 -2.9333
  707MOL0     H95382   6.138   2.765   3.841  1.5993  0.5275 -1.4852
  707MOL0     H95383   6.003   2.881   3.856 -1.6503 -2.1170 -0.8564
  707MOL0     H95384   6.070   2.951   3.626 -1.4027  3.3086  3.0345
  707MOL0     H95385   6.220   2.853   3.638  0.3629  0.3479  0.4713
  707MOL0     H95386   6.276   3.094   3.680 -1.1975  3.6845  1.7890
  707MOL0     H95387   6.141   3.102   3.798 -0.7260 -0.3012 -0.7607
  707MOL0     H95388   6.281   2.918   3.929 -0.4964  1.0496  0.5927
  707MOL0     H95389   6.402   2.955   3.802 -2.0088 -2.1555 -0.8610
  707MOL0     H95390   6.418   3.195   3.891  1.1265 -2.0980 -2.5040
  707MOL0     H95391   6.306   3.155   4.020  3.7695  2.3610  2.2905
  707MOL0     H95392   6.470   2.988   4.115 -0.8906 -1.7877 -1.6559
  707MOL0     H95393   6.513   3.156   4.126  1.9118 -2.0733  2.5835
  707MOL0     H95394   6.685   2.975   4.062  1.7255 -2.4927 -2.7612
  707MOL0     H95395   6.619   2.956   3.901 -2.4655 -0.0589  0.6673
  707MOL0     H95396   6.723   3.263   4.119 -3.7533 -0.9308 -1.0505
  707MOL0     H95397   6.847   3.536   3.933 -2.0773  0.1622  2.6068
  707MOL0     H95398   6.882   3.472   4.088 -1.7663  0.1782 -0.8855
  707MOL0     H95399   7.111   3.459   4.054 -2.0598  2.2730  1.3865
  707MOL0     H95400   7.096   3.369   3.918  0.0674 -1.5668  3.0033
  707MOL0     H95401   7.202   3.593   3.877  0.3397 -3.3365  2.4248
  707MOL0     H95402   7.067   3.680   3.932  1.7301  1.9654 -1.8774
  707MOL0     H95403   7.071   3.514   3.679  0.0689 -1.3824  2.6026
  707MOL0     H95404   7.121   3.684   3.689 -0.2156 -1.1550 -1.7538
  707MOL0     H95405   6.742   3.834   3.685  2.0554  0.8602 -0.0043
  707MOL0     H95406   6.614   3.870   3.476 -1.7497 -0.9120  0.5376
  707MOL0     H95407   6.330   3.986   3.254 -0.0707 -0.1895  0.5101
  707MOL0     H95408   6.159   3.998   3.093  0.9802  3.2867 -2.0001
  707MOL0     H95409   6.254   4.053   2.669 -0.9505  0.1991  0.2829
  707MOL0     H95410   6.246   3.880   2.659 -2.3372 -1.2556 -0.3091
  707MOL0     H95411   6.092   3.953   2.522  0.6747  3.1837 -0.2472
  707MOL0     H95412   6.007   3.891   2.664 -0.5861  0.6121  2.4417
  707MOL0     H95413   5.995   4.137   2.736 -0.5917 -4.5862  2.4157
  707MOL0     H95414   6.036   4.177   2.576  2.3742  0.6591  1.5568
  707MOL0     H95415   5.804   4.025   2.671  0.8938  1.3027  0.7801
  707MOL0     H95416   5.848   4.032   2.491  2.0254  0.4253 -0.0875
  707MOL0     H95417   5.778   4.260   2.477 -2.0990 -1.6308 -1.2060
  707MOL0     H95418   5.796   4.290   2.647 -0.4311  0.4730 -0.0403
  707MOL0     H95419   5.596   4.127   2.482 -2.2429 -2.2494  2.7032
  707MOL0     H95420   5.594   4.119   2.660  2.1511  2.2396  1.9908
  707MOL0     H95421   5.568   4.352   2.473 -1.0760  1.5000  1.6574
  707MOL0     H95422   5.556   4.372   2.646 -2.9625  2.9789 -2.4359
  707MOL0     H95423   5.378   4.197   2.642 -0.3420 -1.0252 -1.9089
  707MOL0     H95424   5.333   4.360   2.586  1.6794  1.2091 -0.6245
  707MOL0     H95425   6.426   3.842   2.790  1.3788 -2.6660  1.3419
  707MOL0     H95426   6.590   3.815   2.959 -0.4188 -0.7420 -0.4653
  707MOL0     H95427   6.852   3.577   3.269 -0.4904 -0.7015 -0.3135
  707MOL0     H95428   6.979   3.533   3.477 -0.6133 -0.8552 -1.5410
  707MOL0     H95429   5.697   2.790   3.811 -0.6658  0.5960 -0.1690
  707MOL0     H95430   5.481   2.714   3.765 -0.6403 -0.6787 -0.5321
  707MOL0     H95431   5.374   2.180   3.546 -1.6608 -2.3704 -1.5488
  707MOL0     H95432   5.172   2.032   3.479  0.1583  0.5463 -0.7365
  707MOL0     H95433   4.729   2.085   3.470 -0.1691  0.6936  1.6271
  707MOL0     H95434   4.773   2.227   3.537  2.3257  0.5287  0.3644
  707MOL0     H95435   4.743   2.135   3.762  1.5286 -0.6442  0.5312
  707MOL0     H95436   4.805   1.971   3.722 -1.1544 -1.4882  1.1651
  707MOL0     H95437   4.593   1.911   3.640  1.4839  0.7033 -2.7415
  707MOL0     H95438   4.536   2.079   3.643 -0.3590 -2.1722 -1.2260
  707MOL0     H95439   4.625   1.978   3.907  1.2096  0.5657 -1.0969
  707MOL0     H95440   4.486   2.082   3.863  0.0661  1.1903 -2.6911
  707MOL0     H95441   4.292   1.722   3.897 -1.0979  2.5183 -0.6066
  707MOL0     H95442   4.912   2.334   3.637  0.7405  0.7965  2.2080
  707MOL0     H95443   5.011   2.575   3.636  1.1803  1.0491  0.1630
  707MOL0     H95444   5.089   2.518   3.781 -0.0279 -0.7302  0.8920
  707MOL0     H95445   5.190   2.592   3.654  1.3454 -1.2850 -0.8970
  708MOL0     O95446   6.971  10.636  10.789  0.7621 -1.0728  0.0134
  708MOL0     C95447   7.020  10.521  10.799  0.1521  0.2924 -0.7082
  708MOL0     O95448   6.951  10.411  10.758 -0.5039  0.1336  0.0490
  708MOL0     C95449   6.823  10.411  10.704 -0.2515  0.1756  0.1135
  708MOL0     C95450   6.780  10.490  10.603 -0.5337 -0.0132 -0.0317
  708MOL0     C95451   6.656  10.495  10.558 -0.2438  0.4501  0.7622
  708MOL0     C95452   6.565  10.386  10.591 -0.0718  0.1664 -0.3770
  708MOL0     O95453   6.439  10.369  10.537  0.9406  0.2635  0.6129
  708MOL0     C95454   6.361  10.484  10.506  0.4585 -0.7995 -0.2971
  708MOL0     C95455   6.329  10.560  10.635  0.5260  0.2563 -1.0895
  708MOL0     C95456   6.241  10.686  10.611 -0.0107 -0.4744  0.9149
  708MOL0     C95457   6.187  10.751  10.733  0.3101 -0.8365 -0.3975
  708MOL0     C95458   6.068  10.854  10.706  0.5240  0.0338  0.0457
  708MOL0     C95459   6.049  10.928  10.836  0.3263 -0.1667 -0.9745
  708MOL0     C95460   5.994  11.064  10.803 -0.0687 -0.6199 -0.5062
  708MOL0     C95461   5.845  11.058  10.746  0.1481 -0.5649  0.0571
  708MOL0     N95462   5.794  11.179  10.686 -0.6678 -0.0832 -0.0335
  708MOL0     C95463   5.701  11.269  10.747 -0.2480  0.7185 -0.5363
  708MOL0     C95464   5.717  11.378  10.669 -0.5490  0.3514  0.5131
  708MOL0     C95465   5.670  11.516  10.706  0.5927  0.2572  0.5154
  708MOL0     C95466   5.753  11.632  10.656  0.1969  1.0469  0.3048
  708MOL0     C95467   5.676  11.765  10.700  1.1158  0.8837 -0.3403
  708MOL0     C95468   5.723  11.899  10.635 -0.5997  0.4805 -0.3066
  708MOL0     O95469   5.846  11.938  10.704 -0.5119  0.4092  0.5782
  708MOL0     C95470   5.910  12.047  10.657 -0.0022 -0.2769 -0.1212
  708MOL0     C95471   6.034  12.077  10.713  0.7670 -0.0327 -0.1909
  708MOL0     C95472   6.106  12.189  10.682  0.2070 -0.6149 -0.4493
  708MOL0     C95473   6.047  12.293  10.606 -0.3182  0.5447  0.0079
  708MOL0     C95474   6.112  12.422  10.603  0.3631  0.6944 -0.7563
  708MOL0     O95475   6.228  12.448  10.676  0.4085 -0.6873  0.1701
  708MOL0     C95476   6.303  12.559  10.676 -0.3037 -0.1850 -0.0055
  708MOL0     C95477   6.290  12.675  10.599 -0.3258 -0.0060 -0.4301
  708MOL0     C95478   6.378  12.781  10.614 -0.2568  0.2989  0.0653
  708MOL0     C95479   6.472  12.778  10.712 -0.9134  0.7290  0.5393
  708MOL0     O95480   6.550  12.886  10.739 -1.2240 -0.0937 -0.0125
  708MOL0     C95481   6.684  12.883  10.798 -0.8069 -0.3838 -0.1307
  708MOL0     C95482   6.756  13.015  10.798 -0.3726  0.9710  0.1492
  708MOL0     C95483   6.898  12.999  10.859 -0.3373 -0.2119  0.1431
  708MOL0     C95484   6.957  13.138  10.891 -0.5727 -0.4330 -0.7397
  708MOL0     C95485   7.062  13.182  10.790  0.2576 -0.0146  0.9300
  708MOL0     C95486   7.115  13.331  10.799  0.4108 -0.2474  0.7292
  708MOL0     C95487   7.166  13.379  10.934  0.5617  0.2962  0.1570
  708MOL0     C95488   7.287  13.305  10.980  0.0023 -0.0202 -0.0405
  708MOL0    Cl95489   7.294  13.349  11.157  0.5802 -0.0681 -0.7236
  708MOL0     C95490   6.489  12.662  10.788 -0.3325 -1.1515 -1.2584
  708MOL0     C95491   6.418  12.547  10.763  0.3414 -0.0746  0.5772
  708MOL0     O95492   6.055  12.500  10.527 -0.6167  0.0423 -0.2022
  708MOL0     C95493   5.931  12.256  10.544 -0.0349  0.0965  0.2110
  708MOL0     C95494   5.858  12.146  10.580 -0.3244 -0.3928  0.0493
  708MOL0     N95495   5.801  11.350  10.555 -0.5821 -0.9073  0.5614
  708MOL0     N95496   5.843  11.230  10.564 -1.1140  0.1297 -0.6804
  708MOL0     C95497   6.618  10.296  10.685 -0.0983 -0.6366 -0.5750
  708MOL0     C95498   6.738  10.308  10.745 -0.7227  0.1951  0.5630
  708MOL0     C95499   7.161  10.516  10.862  0.0019  1.3366  1.0985
  708MOL0     C95500   7.240  10.400  10.829 -0.1074  0.1159 -0.4703
  708MOL0     C95501   7.378  10.409  10.869  0.1249  0.6980  0.0272
  708MOL0     C95502   7.432  10.504  10.953 -0.7691 -0.7530 -0.5053
  708MOL0     O95503   7.562  10.506  11.000 -0.2204  0.3414 -0.2915
  708MOL0     C95504   7.654  10.432  10.922 -0.3145 -0.1215 -0.8670
  708MOL0     C95505   7.791  10.446  10.991 -0.3417 -0.1885 -0.4442
  708MOL0     C95506   7.795  10.341  11.107  0.1899 -0.1352  0.2682
  708MOL0     C95507   7.949  10.345  11.170  0.2874 -0.1632  0.4093
  708MOL0     C95508   8.047  10.271  11.090  0.4080 -0.2434  0.5520
  708MOL0     C95509   8.117  10.199  11.018  0.0663 -0.4449 -0.3574
  708MOL0     C95510   7.341  10.602  10.988 -0.3548 -0.3566 -0.1160
  708MOL0     C95511   7.211  10.611  10.945  1.3868 -0.3279  0.9527
  708MOL0     C95512   7.128  10.728  10.999 -0.7070 -0.0068 -0.7879
  708MOL0     H95513   6.852  10.566  10.575 -1.6020  1.0978  0.1355
  708MOL0     H95514   6.625  10.571  10.487 -0.0094 -1.5345 -1.6109
  708MOL0     H95515   6.400  10.551  10.430 -0.4172 -1.3198 -1.2335
  708MOL0     H95516   6.262  10.453  10.470  0.2236  1.2724 -1.5925
  708MOL0     H95517   6.418  10.594  10.689 -1.1162  1.4657  0.9917
  708MOL0     H95518   6.275  10.498  10.707  1.6684  0.8679  0.3460
  708MOL0     H95519   6.159  10.646  10.550 -0.2131 -1.0313  1.5384
  708MOL0     H95520   6.296  10.765  10.559 -1.9903  0.7806  0.6354
  708MOL0     H95521   6.163  10.673  10.807 -1.1390 -1.8599 -1.8829
  708MOL0     H95522   6.273  10.802  10.777  0.1204  1.2409 -2.2920
  708MOL0     H95523   6.100  10.929  10.634 -0.6593 -0.3028 -0.8658
  708MOL0     H95524   5.978  10.819  10.654  0.1181  2.2345 -0.8580
  708MOL0     H95525   5.974  10.874  10.894 -0.9268  2.3988 -0.0209
  708MOL0     H95526   6.146  10.934  10.887 -1.4391 -0.3622  2.6889
  708MOL0     H95527   6.058  11.118  10.733 -0.3958 -1.1503 -1.2315
  708MOL0     H95528   5.996  11.119  10.898  1.8457 -0.4057 -0.6377
  708MOL0     H95529   5.835  10.974  10.677  1.7463  0.5699 -1.6275
  708MOL0     H95530   5.776  11.042  10.830  0.7272  0.4086  0.7398
  708MOL0     H95531   5.631  11.256  10.829 -0.4832  3.8269 -0.1011
  708MOL0     H95532   5.566  11.532  10.679 -0.1201 -0.6584  2.5440
  708MOL0     H95533   5.667  11.530  10.815 -0.2558  2.9600  0.2012
  708MOL0     H95534   5.847  11.637  10.712  0.3086  0.3945  0.1818
  708MOL0     H95535   5.761  11.626  10.547 -1.2213  1.6605  0.1431
  708MOL0     H95536   5.683  11.785  10.807  0.5404 -1.0777  0.1005
  708MOL0     H95537   5.571  11.755  10.670  0.7353  3.2401 -0.0176
  708MOL0     H95538   5.648  11.976  10.659  0.7431  1.8222 -0.2572
  708MOL0     H95539   5.746  11.889  10.528  0.0889 -3.2685  0.0573
  708MOL0     H95540   6.084  11.999  10.770  1.5776  1.9564  1.9812
  708MOL0     H95541   6.188  12.200  10.752  0.6279 -2.0604 -0.6720
  708MOL0     H95542   6.218  12.686  10.519  0.7803 -1.3373 -1.6560
  708MOL0     H95543   6.376  12.862  10.541 -2.0472  1.9586  1.8267
  708MOL0     H95544   6.664  12.854  10.901 -4.2781 -2.0216 -1.1152
  708MOL0     H95545   6.742  12.805  10.747 -3.1465 -1.2121 -1.7546
  708MOL0     H95546   6.756  13.047  10.694 -0.3026  0.0019 -0.1576
  708MOL0     H95547   6.700  13.089  10.856 -0.2803  1.1057  0.0650
  708MOL0     H95548   6.894  12.939  10.951 -1.0270 -0.5703 -0.1152
  708MOL0     H95549   6.960  12.941  10.790  0.8890  1.2387 -0.0316
  708MOL0     H95550   7.004  13.133  10.990 -1.8645  0.3060 -0.0752
  708MOL0     H95551   6.889  13.222  10.901 -0.0680 -0.0048 -0.8778
  708MOL0     H95552   7.008  13.181  10.695  1.9696  0.8128 -0.0854
  708MOL0     H95553   7.147  13.113  10.787 -0.0265 -0.3284 -0.3344
  708MOL0     H95554   7.197  13.329  10.727 -0.6082 -1.3020 -0.4486
  708MOL0     H95555   7.035  13.397  10.765  1.5538  0.2497 -1.1385
  708MOL0     H95556   7.086  13.354  11.004  1.6334 -3.7142  0.2438
  708MOL0     H95557   7.182  13.487  10.926 -0.4975  0.3220 -2.5488
  708MOL0     H95558   7.293  13.198  10.956 -0.0087  0.5742 -3.0275
  708MOL0     H95559   7.375  13.347  10.930  0.7833 -2.0121 -0.4333
  708MOL0     H95560   6.555  12.654  10.875 -2.5083 -1.7280  0.4321
  708MOL0     H95561   6.437  12.448  10.804  2.6109 -0.5100 -1.3064
  708MOL0     H95562   5.883  12.323  10.473  1.6575  0.6900 -0.4089
  708MOL0     H95563   5.764  12.127  10.529  0.3583  1.1450 -1.9119
  708MOL0     H95564   6.560  10.210  10.719  0.4515 -1.0510 -0.6730
  708MOL0     H95565   6.759  10.241  10.827 -0.1246 -3.2899 -2.1870
  708MOL0     H95566   7.204  10.323  10.762  0.8362  0.9502 -2.0073
  708MOL0     H95567   7.439  10.325  10.838 -0.3497 -0.0613  1.1168
  708MOL0     H95568   7.662  10.468  10.819 -1.8586  1.6470 -0.4207
  708MOL0     H95569   7.624  10.327  10.917 -2.9297  0.5906 -1.3416
  708MOL0     H95570   7.814  10.547  11.026 -0.2060 -0.5046  0.3870
  708MOL0     H95571   7.867  10.418  10.918  1.2631 -2.6641  1.9910
  708MOL0     H95572   7.773  10.236  11.085  4.5611 -1.7574  2.4233
  708MOL0     H95573   7.729  10.373  11.188 -0.9580 -2.0061  0.1359
  708MOL0     H95574   7.974  10.450  11.185 -1.8336  0.0806  2.9364
  708MOL0     H95575   7.946  10.323  11.277 -1.4022  1.8056  0.8133
  708MOL0     H95576   8.183  10.141  10.958  0.0392  0.1496 -0.9771
  708MOL0     H95577   7.375  10.673  11.061 -3.3399  1.9171 -0.7295
  708MOL0     H95578   7.190  10.777  11.074 -1.2886  0.4221 -0.5867
  708MOL0     H95579   7.119  10.797  10.915 -1.3584  0.0580 -0.6687
  708MOL0     H95580   7.033  10.688  11.033 -0.7894 -1.7309 -2.8080
  709MOL0     O95581   1.106   5.710   3.808 -0.3401  0.1313 -0.3700
  709MOL0     C95582   1.166   5.812   3.787  0.2416  0.1219 -0.4574
  709MOL0     O95583   1.099   5.922   3.752  0.0750  0.3281  0.7352
  709MOL0     C95584   0.967   5.952   3.769 -0.6665  1.4454  0.8953
  709MOL0     C95585   0.865   5.865   3.724 -0.1532 -0.2669 -0.4604
  709MOL0     C95586   0.729   5.902   3.731 -0.3911 -0.1837  0.0580
  709MOL0     C95587   0.701   6.025   3.780 -0.0852 -0.2522 -0.7887
  709MOL0     O95588   0.566   6.056   3.780 -0.1254  0.6176  0.2589
  709MOL0     C95589   0.526   6.195   3.773  0.2389  0.0712 -0.2687
  709MOL0     C95590   0.386   6.194   3.714 -0.1467  0.0004  0.3205
  709MOL0     C95591   0.395   6.168   3.560  0.1747 -0.6037 -0.0062
  709MOL0     C95592   0.250   6.151   3.503 -0.4879 -0.4385  0.8989
  709MOL0     C95593   0.253   6.146   3.344  0.5123 -0.1828 -0.7809
  709MOL0     C95594   0.345   6.043   3.280  0.1418 -0.0118 -0.7007
  709MOL0     C95595   0.305   6.010   3.136  0.4199 -1.0423  0.1103
  709MOL0     C95596   0.370   5.884   3.089  1.0524  0.8784 -0.3561
  709MOL0     N95597   0.511   5.897   3.073  1.2259 -0.2287 -0.1322
  709MOL0     C95598   0.604   5.823   3.136  0.1728  0.6309  0.3944
  709MOL0     C95599   0.717   5.839   3.059 -0.8298 -0.6261 -0.4623
  709MOL0     C95600   0.864   5.802   3.093 -0.3645 -0.0755  0.5105
  709MOL0     C95601   0.928   5.886   3.195 -0.2159  0.1189  0.0763
  709MOL0     C95602   0.951   5.807   3.326 -0.7802  0.2724  0.6003
  709MOL0     C95603   1.028   5.903   3.421 -0.3060  0.1478  0.7830
  709MOL0     O95604   1.154   5.955   3.353  0.4102  0.2598  0.0187
  709MOL0     C95605   1.266   5.872   3.367 -0.9879  0.6552  0.3748
  709MOL0     C95606   1.389   5.946   3.350  0.3033 -0.2033 -0.1914
  709MOL0     C95607   1.515   5.879   3.362 -0.7144 -0.6760  0.3463
  709MOL0     C95608   1.516   5.751   3.415 -0.2023  0.2927 -0.3419
  709MOL0     C95609   1.647   5.691   3.443  0.1051 -0.4180  0.2115
  709MOL0     O95610   1.759   5.759   3.403  0.6075 -0.3682 -0.3721
  709MOL0     C95611   1.884   5.705   3.419 -0.1562 -0.0999 -0.4697
  709MOL0     C95612   1.921   5.572   3.432  0.7596 -0.4630 -0.1469
  709MOL0     C95613   2.048   5.527   3.466 -0.1235 -0.5105 -0.4341
  709MOL0     C95614   2.156   5.621   3.463 -0.2045 -0.1758  0.8028
  709MOL0     O95615   2.279   5.563   3.453  0.6435  0.9046  0.0059
  709MOL0     C95616   2.395   5.636   3.429  0.0285  0.1128 -0.6048
  709MOL0     C95617   2.512   5.552   3.389 -0.4139 -0.2068 -0.1114
  709MOL0     C95618   2.487   5.449   3.288  0.1054 -1.3488  0.3741
  709MOL0     C95619   2.604   5.361   3.259  0.8241 -0.0515 -0.2993
  709MOL0     C95620   2.585   5.255   3.148 -0.4712 -0.2773  0.1569
  709MOL0     C95621   2.592   5.305   3.006  0.0592 -0.1455  0.2737
  709MOL0     C95622   2.738   5.344   2.973 -0.0116 -0.3897  0.0198
  709MOL0     C95623   2.784   5.268   2.842  0.9184 -0.9502 -0.3295
  709MOL0    Cl95624   2.794   5.091   2.877 -0.1116  0.1954  0.4992
  709MOL0     C95625   2.121   5.755   3.445 -0.2805  0.8486 -0.0746
  709MOL0     C95626   1.992   5.791   3.422 -0.3770 -0.3923  0.2451
  709MOL0     O95627   1.648   5.596   3.521 -0.0025  0.6649 -0.2490
  709MOL0     C95628   1.400   5.682   3.448  0.2484 -0.1420  0.1576
  709MOL0     C95629   1.277   5.741   3.415  0.1830  0.2792  0.7111
  709MOL0     N95630   0.681   5.916   2.947 -0.3212  0.2465 -0.8959
  709MOL0     N95631   0.559   5.944   2.957  0.3357  0.0210  0.0127
  709MOL0     C95632   0.805   6.119   3.820  0.5396 -0.7846  0.3597
  709MOL0     C95633   0.934   6.085   3.811 -0.5374  0.0708  0.5603
  709MOL0     C95634   1.313   5.822   3.805 -0.0715  0.8183  0.2535
  709MOL0     C95635   1.378   5.931   3.753  0.1854 -0.4230  0.0538
  709MOL0     C95636   1.516   5.938   3.749 -0.4478 -0.3635 -0.2506
  709MOL0     C95637   1.593   5.847   3.815 -0.7394 -0.6812 -0.1764
  709MOL0     O95638   1.720   5.898   3.834 -0.4988  0.0035  0.0972
  709MOL0     C95639   1.815   5.850   3.730 -0.3909 -0.4708  0.3102
  709MOL0     C95640   1.960   5.882   3.779 -0.3634  0.4672 -0.0604
  709MOL0     C95641   1.983   6.012   3.861  0.2625 -0.9360 -0.9814
  709MOL0     C95642   1.978   6.125   3.767 -0.8309  0.1293 -0.4586
  709MOL0     C95643   2.059   6.117   3.647 -0.6754  0.4155  0.3876
  709MOL0     C95644   2.109   6.118   3.535  0.1172  0.1527 -0.2766
  709MOL0     C95645   1.540   5.731   3.877 -0.6098  0.0394 -0.0168
  709MOL0     C95646   1.400   5.719   3.868 -0.4489 -0.3025  0.3792
  709MOL0     C95647   1.352   5.586   3.930  0.5221  0.2486  0.2324
  709MOL0     H95648   0.898   5.770   3.684  2.3576  0.1796  0.3485
  709MOL0     H95649   0.656   5.837   3.683 -1.9740  1.6629 -0.1537
  709MOL0     H95650   0.512   6.232   3.875 -1.2235 -1.1867  0.0316
  709MOL0     H95651   0.588   6.269   3.721 -0.4232  2.7646  2.4137
  709MOL0     H95652   0.326   6.281   3.740 -0.4227  0.0674 -0.5030
  709MOL0     H95653   0.337   6.118   3.776  1.4575  0.8837  2.7996
  709MOL0     H95654   0.462   6.085   3.534 -1.2312 -1.4031 -1.2204
  709MOL0     H95655   0.440   6.257   3.517  1.1375 -1.0152  0.1216
  709MOL0     H95656   0.195   6.069   3.549 -1.7938 -0.2036 -0.1840
  709MOL0     H95657   0.190   6.234   3.542  2.2761  1.4429  1.4421
  709MOL0     H95658   0.150   6.124   3.317 -1.1090  3.2673  1.7798
  709MOL0     H95659   0.270   6.253   3.325 -0.5369  0.6423  2.3375
  709MOL0     H95660   0.449   6.077   3.281 -0.5744  2.5406 -2.2483
  709MOL0     H95661   0.334   5.960   3.350 -6.0548  1.9384  1.2734
  709MOL0     H95662   0.326   6.100   3.076  1.7513  1.0318  3.4149
  709MOL0     H95663   0.196   5.996   3.128 -0.4287  3.6428  0.3533
  709MOL0     H95664   0.357   5.794   3.149  2.8583  0.1713 -0.9522
  709MOL0     H95665   0.322   5.862   2.993  0.0798 -0.2332  0.3637
  709MOL0     H95666   0.594   5.772   3.231 -0.1281  0.3976  0.2419
  709MOL0     H95667   0.867   5.707   3.146 -0.9885 -0.2438  0.2545
  709MOL0     H95668   0.915   5.803   2.996 -2.9281 -0.1077 -0.9391
  709MOL0     H95669   1.019   5.929   3.153 -0.0501  3.3818  3.2557
  709MOL0     H95670   0.858   5.967   3.220 -2.3876 -2.2122  2.1086
  709MOL0     H95671   1.005   5.716   3.299 -1.7871 -0.3298  0.5840
  709MOL0     H95672   0.857   5.776   3.372 -0.2214 -1.1250  0.8456
  709MOL0     H95673   1.038   5.856   3.519 -2.5266 -1.6645  0.2455
  709MOL0     H95674   0.958   5.987   3.428 -0.8079  0.1623 -2.6106
  709MOL0     H95675   1.385   6.052   3.331 -0.1673 -0.8589 -5.0403
  709MOL0     H95676   1.599   5.938   3.327 -1.8571  0.9361  0.1996
  709MOL0     H95677   1.844   5.499   3.413  0.1990 -0.9553  3.2928
  709MOL0     H95678   2.089   5.427   3.475  1.5572  0.2587  1.2246
  709MOL0     H95679   2.377   5.697   3.340  0.9373  2.0804  0.4690
  709MOL0     H95680   2.420   5.711   3.505  0.0343 -0.2555 -0.2375
  709MOL0     H95681   2.592   5.616   3.351 -2.0448  0.3818 -2.8043
  709MOL0     H95682   2.557   5.504   3.477 -0.9172  0.2684  0.4102
  709MOL0     H95683   2.405   5.386   3.323 -1.0932  0.4249  0.8739
  709MOL0     H95684   2.455   5.494   3.194 -1.8370 -1.1914  1.0747
  709MOL0     H95685   2.631   5.310   3.352 -1.6613  0.0730  0.5736
  709MOL0     H95686   2.687   5.428   3.233  3.1761 -1.8314  2.0852
  709MOL0     H95687   2.491   5.202   3.162 -0.0445 -1.2327 -0.4666
  709MOL0     H95688   2.667   5.182   3.155  0.4925  0.8246  0.7002
  709MOL0     H95689   2.557   5.222   2.944  0.5460 -0.4991  0.4639
  709MOL0     H95690   2.523   5.390   3.001  0.2759  0.0271  0.1723
  709MOL0     H95691   2.807   5.323   3.055  0.1277 -1.0692 -0.2643
  709MOL0     H95692   2.757   5.452   2.962 -3.0844  0.0744 -2.2739
  709MOL0     H95693   2.718   5.285   2.757 -2.1909  0.5037  2.1523
  709MOL0     H95694   2.884   5.303   2.816  0.9429 -0.2678  0.6282
  709MOL0     H95695   2.198   5.832   3.444 -0.8203  1.3999 -1.1346
  709MOL0     H95696   1.961   5.895   3.415  0.6795 -0.0522  0.4524
  709MOL0     H95697   1.397   5.581   3.489 -0.5143 -0.5755 -0.9529
  709MOL0     H95698   1.188   5.683   3.440  1.0518 -1.9546 -1.0561
  709MOL0     H95699   0.776   6.217   3.857  1.2648  0.0616 -1.2309
  709MOL0     H95700   1.006   6.162   3.840 -3.4905  3.3724 -0.1993
  709MOL0     H95701   1.329   6.012   3.700  3.4349  0.2950 -2.1550
  709MOL0     H95702   1.562   6.020   3.696  1.4620 -1.2308 -0.0156
  709MOL0     H95703   1.803   5.915   3.643 -2.2305  1.5553  1.9451
  709MOL0     H95704   1.798   5.745   3.702 -0.8867 -0.3326  0.0718
  709MOL0     H95705   2.040   5.872   3.704  0.8793  0.6167  1.2027
  709MOL0     H95706   1.993   5.799   3.843  3.2085  1.5659 -0.2274
  709MOL0     H95707   2.073   6.009   3.923 -1.0913 -3.8176  1.0488
  709MOL0     H95708   1.899   6.020   3.931  1.0929  2.7818 -0.1597
  709MOL0     H95709   1.874   6.138   3.736 -0.0181  2.6173 -2.4984
  709MOL0     H95710   2.027   6.212   3.812  2.3531 -1.7809  0.0284
  709MOL0     H95711   2.170   6.107   3.447  1.1919 -0.6697  0.5390
  709MOL0     H95712   1.604   5.669   3.938 -2.3058 -0.3668  1.4289
  709MOL0     H95713   1.429   5.522   3.973  2.0973  2.6210  1.1956
  709MOL0     H95714   1.286   5.611   4.014 -2.4647 -1.4927 -1.4502
  709MOL0     H95715   1.281   5.530   3.869  1.0341 -2.7272  2.1717
  710MOL0     O95716   8.751   8.267   2.812 -0.1634  0.2103  0.2581
  710MOL0     C95717   8.670   8.236   2.720 -0.0363  0.1560 -0.3551
  710MOL0     O95718   8.694   8.151   2.618 -0.0709 -0.1804 -0.7113
  710MOL0     C95719   8.810   8.082   2.610 -0.7340  0.7224 -0.2853
  710MOL0     C95720   8.887   8.087   2.496  0.1973  0.3465  0.5699
  710MOL0     C95721   9.010   8.038   2.490 -0.0983  0.5476  0.8746
  710MOL0     C95722   9.067   7.953   2.590  0.0986 -0.0045 -0.2534
  710MOL0     O95723   9.191   7.892   2.585 -0.2115 -0.6902  0.2563
  710MOL0     C95724   9.257   7.879   2.456 -0.2605 -0.5974 -0.4843
  710MOL0     C95725   9.377   7.780   2.460  0.5054  0.0665  0.0158
  710MOL0     C95726   9.481   7.827   2.556 -1.0518  0.0752 -0.6891
  710MOL0     C95727   9.598   7.911   2.503  0.3404 -0.3263 -0.5630
  710MOL0     C95728   9.577   8.058   2.459 -0.7934 -0.3787  0.6817
  710MOL0     C95729   9.523   8.160   2.557 -1.0972  1.0259 -0.2220
  710MOL0     C95730   9.556   8.299   2.514 -0.6794  0.0273 -0.2439
  710MOL0     C95731   9.517   8.351   2.375 -0.2992  0.5641  1.0619
  710MOL0     N95732   9.371   8.381   2.358  0.4548  0.3950 -1.0493
  710MOL0     C95733   9.287   8.454   2.445 -0.2735 -0.2703  1.2297
  710MOL0     C95734   9.168   8.438   2.386  0.6012  0.4793 -0.1287
  710MOL0     C95735   9.049   8.516   2.432 -0.5540 -0.3593  0.1048
  710MOL0     C95736   9.033   8.525   2.589 -0.0894  0.1432  0.6763
  710MOL0     C95737   9.010   8.387   2.644 -0.3876 -0.2654 -0.6952
  710MOL0     C95738   9.046   8.391   2.795  0.2954 -0.5347  0.2354
  710MOL0     O95739   9.191   8.411   2.801 -0.0908  0.2194 -1.1332
  710MOL0     C95740   9.280   8.311   2.837 -0.6708 -0.5720 -0.7891
  710MOL0     C95741   9.248   8.179   2.814 -0.4594 -0.0017  1.1527
  710MOL0     C95742   9.330   8.082   2.849 -0.7873 -0.3235 -1.2576
  710MOL0     C95743   9.444   8.109   2.930  0.2535  0.1246  0.4600
  710MOL0     C95744   9.519   7.997   2.966  0.0461  0.9335  0.0234
  710MOL0     O95745   9.453   7.877   2.961 -0.8622  0.4591 -0.6013
  710MOL0     C95746   9.519   7.758   2.993 -0.3248 -0.7331  0.0465
  710MOL0     C95747   9.626   7.712   2.923  0.2066 -0.2001  0.3449
  710MOL0     C95748   9.697   7.607   2.971 -0.1229  0.0668 -0.0807
  710MOL0     C95749   9.652   7.544   3.088 -0.3737 -0.8140  0.0219
  710MOL0     O95750   9.732   7.449   3.146 -0.3070  0.4961 -0.0140
  710MOL0     C95751   9.673   7.326   3.201  0.7627  0.0615 -0.8792
  710MOL0     C95752   9.782   7.230   3.259 -0.0125  0.7889  0.3250
  710MOL0     C95753   9.878   7.304   3.362 -0.1260 -0.9232 -0.2255
  710MOL0     C95754   9.815   7.317   3.504  0.2807 -0.1224 -0.0799
  710MOL0     C95755   9.824   7.458   3.566 -0.0132  0.1831 -0.3598
  710MOL0     C95756   9.759   7.445   3.705 -0.3339 -0.3052  0.4959
  710MOL0     C95757   9.760   7.583   3.779 -0.0186 -0.2744  0.7006
  710MOL0     C95758   9.638   7.601   3.875 -0.6516 -0.7373 -0.0505
  710MOL0    Cl95759   9.634   7.468   3.993  0.2003  0.1455  0.3307
  710MOL0     C95760   9.538   7.585   3.149 -0.1168  0.5795 -0.5396
  710MOL0     C95761   9.466   7.684   3.100 -0.8997  0.2396 -0.4019
  710MOL0     O95762   9.635   8.010   2.995 -0.1996  0.4728  0.1220
  710MOL0     C95763   9.474   8.240   2.969 -0.3091 -0.2184  0.5051
  710MOL0     C95764   9.397   8.346   2.911 -0.0368 -0.1388  0.4716
  710MOL0     N95765   9.178   8.359   2.279  0.9458 -0.3948 -0.5422
  710MOL0     N95766   9.293   8.326   2.265 -1.0293  0.5698 -0.2321
  710MOL0     C95767   8.988   7.946   2.711 -0.4152  0.1667  0.7462
  710MOL0     C95768   8.861   8.003   2.721 -0.1354 -0.0273  0.8730
  710MOL0     C95769   8.543   8.307   2.713  0.2917 -0.9824 -0.0596
  710MOL0     C95770   8.514   8.377   2.595  0.2851 -0.8225  0.0701
  710MOL0     C95771   8.398   8.457   2.596 -0.2088 -0.0700  0.4560
  710MOL0     C95772   8.328   8.484   2.712 -0.3405  0.0196  0.0252
  710MOL0     O95773   8.235   8.583   2.711 -0.1446 -0.0842  0.6384
  710MOL0     C95774   8.197   8.633   2.834  0.1525 -0.7625  0.0587
  710MOL0     C95775   8.123   8.771   2.807 -0.3343  0.5264 -0.8583
  710MOL0     C95776   7.978   8.729   2.750  0.4433 -0.2950 -0.6835
  710MOL0     C95777   7.919   8.851   2.674  0.3574  0.1228  0.0447
  710MOL0     C95778   7.771   8.852   2.670 -0.7389 -0.1561 -0.3527
  710MOL0     C95779   7.648   8.824   2.657 -1.3188 -0.2417  0.5280
  710MOL0     C95780   8.367   8.426   2.833 -0.3539 -0.3873 -0.4034
  710MOL0     C95781   8.470   8.335   2.833 -0.0048  1.1314 -0.0870
  710MOL0     C95782   8.499   8.276   2.971  0.4934 -0.3033 -0.0689
  710MOL0     H95783   8.854   8.141   2.408 -0.6435 -1.3357 -0.1883
  710MOL0     H95784   9.058   8.059   2.395 -1.6524  0.9610  0.1512
  710MOL0     H95785   9.187   7.826   2.391 -1.0748  0.0141 -0.1232
  710MOL0     H95786   9.274   7.979   2.414 -1.9468  0.7685  1.8103
  710MOL0     H95787   9.436   7.777   2.368  0.9173  0.8327  0.2464
  710MOL0     H95788   9.350   7.674   2.468  1.5959 -0.5096 -2.7012
  710MOL0     H95789   9.532   7.739   2.596  1.7802  2.8492  2.4369
  710MOL0     H95790   9.435   7.872   2.644 -0.3487  0.7939 -0.6865
  710MOL0     H95791   9.666   7.912   2.589  1.0564 -0.0660 -1.1175
  710MOL0     H95792   9.647   7.858   2.421  3.6778  0.5520  0.7009
  710MOL0     H95793   9.670   8.091   2.412 -0.8496 -2.0432 -0.7219
  710MOL0     H95794   9.509   8.051   2.374  0.8118  2.6203 -1.0104
  710MOL0     H95795   9.416   8.148   2.576 -1.3421  1.5321 -1.2307
  710MOL0     H95796   9.568   8.133   2.653 -1.5633 -1.0134 -0.5231
  710MOL0     H95797   9.663   8.321   2.516 -0.6995  0.0778  0.8954
  710MOL0     H95798   9.514   8.363   2.592  2.7799  2.9664 -0.5294
  710MOL0     H95799   9.579   8.439   2.354  0.8526 -0.4337  0.1234
  710MOL0     H95800   9.543   8.274   2.301 -0.2797  0.5704  1.0616
  710MOL0     H95801   9.311   8.522   2.526  1.8527 -0.1329  0.5439
  710MOL0     H95802   9.062   8.614   2.386 -1.1259 -0.8077 -1.0444
  710MOL0     H95803   8.957   8.481   2.384 -2.3580  0.5129  2.6589
  710MOL0     H95804   9.122   8.570   2.632  1.9754  3.1228 -5.5625
  710MOL0     H95805   8.954   8.599   2.604  1.6712  1.9812  1.2842
  710MOL0     H95806   9.061   8.314   2.582 -0.0629 -0.3594 -0.3182
  710MOL0     H95807   8.903   8.366   2.641  0.4707 -6.1085 -2.3549
  710MOL0     H95808   9.005   8.303   2.846  2.1852  0.2771  3.3869
  710MOL0     H95809   9.000   8.475   2.849  3.6329  2.8393 -1.6568
  710MOL0     H95810   9.157   8.149   2.762  1.0912 -1.7980 -0.7440
  710MOL0     H95811   9.295   7.983   2.821 -0.7902 -0.8847  0.5703
  710MOL0     H95812   9.661   7.773   2.840 -1.5686  1.0783  0.4785
  710MOL0     H95813   9.789   7.579   2.921 -0.5147 -0.2915 -0.6072
  710MOL0     H95814   9.610   7.358   3.284  2.6528  4.2422 -0.7971
  710MOL0     H95815   9.616   7.293   3.115 -0.6408  1.0571 -0.3629
  710MOL0     H95816   9.747   7.133   3.297 -0.5808  2.1533  3.6754
  710MOL0     H95817   9.843   7.186   3.180  0.7411  0.2772  1.1689
  710MOL0     H95818   9.980   7.265   3.357 -0.5271 -1.9110 -1.2477
  710MOL0     H95819   9.885   7.407   3.327  1.4612 -0.3020  1.7336
  710MOL0     H95820   9.864   7.240   3.566  0.1393 -1.2403 -1.3048
  710MOL0     H95821   9.711   7.283   3.503  0.9770 -2.4966 -2.5822
  710MOL0     H95822   9.768   7.531   3.507 -0.1024  1.0485  0.7530
  710MOL0     H95823   9.923   7.502   3.578  0.6035 -1.5449  1.4412
  710MOL0     H95824   9.659   7.402   3.696 -1.4203  2.2953 -0.9971
  710MOL0     H95825   9.825   7.375   3.757  1.9053  2.0719  1.0702
  710MOL0     H95826   9.759   7.659   3.700 -2.1131  0.6457  1.5445
  710MOL0     H95827   9.849   7.593   3.842 -1.4911  2.2946  2.6044
  710MOL0     H95828   9.657   7.696   3.926  2.8302 -1.3475  0.0418
  710MOL0     H95829   9.548   7.591   3.813  0.8995 -2.2018 -2.1724
  710MOL0     H95830   9.518   7.550   3.250 -2.9985  0.1595 -1.1645
  710MOL0     H95831   9.382   7.713   3.161 -0.6297 -2.9285  1.6766
  710MOL0     H95832   9.564   8.266   3.025 -1.8253  2.5298  1.8851
  710MOL0     H95833   9.419   8.449   2.936  1.7884 -0.2002 -0.7369
  710MOL0     H95834   9.021   7.883   2.794  1.4042  1.9442  1.4516
  710MOL0     H95835   8.798   7.979   2.806 -0.8777 -0.1751  0.2875
  710MOL0     H95836   8.562   8.361   2.499 -0.6224 -0.0607 -0.5411
  710MOL0     H95837   8.370   8.510   2.505  3.0774 -0.4711 -0.9515
  710MOL0     H95838   8.274   8.641   2.911  1.4144 -1.0249 -1.1420
  710MOL0     H95839   8.117   8.571   2.877 -0.2740 -0.7113 -0.6395
  710MOL0     H95840   8.183   8.821   2.730 -1.8399  0.0051 -2.4232
  710MOL0     H95841   8.113   8.839   2.892  0.0966  1.6743 -1.7045
  710MOL0     H95842   7.913   8.693   2.831  0.6835  1.0662  0.1465
  710MOL0     H95843   7.983   8.649   2.676  0.0035 -0.5223 -0.4729
  710MOL0     H95844   7.959   8.933   2.734 -0.8983 -0.2890  1.4884
  710MOL0     H95845   7.953   8.856   2.569 -0.4131  0.7196 -0.1869
  710MOL0     H95846   7.553   8.778   2.639 -1.6860  1.3204 -1.9061
  710MOL0     H95847   8.319   8.448   2.929  2.6748  2.8057  0.6059
  710MOL0     H95848   8.574   8.196   2.974  1.5049  0.4992 -1.8999
  710MOL0     H95849   8.537   8.354   3.037  0.5936 -0.0819 -0.3866
  710MOL0     H95850   8.407   8.242   3.018  0.5790  1.6851  1.6846
  711MOL0     O95851   5.499   4.115   5.037  0.0529  0.2785  0.3334
  711MOL0     C95852   5.499   4.205   5.122 -0.1408 -0.5521  0.2909
  711MOL0     O95853   5.600   4.238   5.208  0.1501  0.3555 -0.0851
  711MOL0     C95854   5.705   4.158   5.190  0.5352 -0.5789 -0.4184
  711MOL0     C95855   5.811   4.208   5.114  0.0952  0.2951 -0.1086
  711MOL0     C95856   5.929   4.145   5.100  0.2986  0.1419  0.1827
  711MOL0     C95857   5.942   4.015   5.146  0.0341 -0.4713 -0.5807
  711MOL0     O95858   6.051   3.942   5.110 -0.1941 -0.2241 -0.3953
  711MOL0     C95859   6.125   3.901   5.228  0.6184 -0.5364  0.5368
  711MOL0     C95860   6.280   3.887   5.195  0.2637  0.2932 -0.4300
  711MOL0     C95861   6.302   3.745   5.142  1.0496 -0.1216  0.9498
  711MOL0     C95862   6.437   3.702   5.173  0.0028  0.1815  0.3098
  711MOL0     C95863   6.463   3.551   5.127 -0.6364 -0.8717  0.5141
  711MOL0     C95864   6.610   3.516   5.103  0.8522  0.1106  0.1099
  711MOL0     C95865   6.670   3.444   5.222 -0.4271 -0.5522 -0.3900
  711MOL0     C95866   6.688   3.537   5.343  0.5420 -0.6204 -0.3248
  711MOL0     N95867   6.822   3.527   5.401  0.6133 -0.2846  0.6007
  711MOL0     C95868   6.913   3.620   5.419 -0.9848  0.2105  0.0041
  711MOL0     C95869   7.025   3.561   5.473 -0.1622 -1.1466 -0.0110
  711MOL0     C95870   7.158   3.639   5.482  0.8449 -0.0143  0.7495
  711MOL0     C95871   7.197   3.660   5.629 -0.7347 -0.6110 -0.3107
  711MOL0     C95872   7.347   3.663   5.666 -0.2543 -0.2285  0.7132
  711MOL0     C95873   7.442   3.740   5.573 -0.3285  0.4540 -0.8861
  711MOL0     O95874   7.399   3.875   5.558  0.1199  0.0794 -0.3577
  711MOL0     C95875   7.443   3.968   5.648 -0.1180  1.3941 -0.0749
  711MOL0     C95876   7.358   4.077   5.664  0.0209  0.2376  0.0830
  711MOL0     C95877   7.405   4.183   5.742  0.4009  0.2493 -0.2508
  711MOL0     C95878   7.530   4.186   5.807 -0.1050  0.3779  0.0587
  711MOL0     C95879   7.573   4.311   5.886 -0.3573 -0.4683  0.5101
  711MOL0     O95880   7.504   4.424   5.882  0.4014  0.1968  0.0633
  711MOL0     C95881   7.570   4.539   5.916  0.5705 -0.1927 -0.5539
  711MOL0     C95882   7.521   4.606   6.035 -0.3319  0.3362  0.1588
  711MOL0     C95883   7.577   4.733   6.065 -0.2115  0.0908  0.1817
  711MOL0     C95884   7.672   4.794   5.983 -0.2952  0.6748 -0.3369
  711MOL0     O95885   7.722   4.908   6.032  0.7018 -0.2063  0.5216
  711MOL0     C95886   7.844   4.960   5.985 -0.0026 -0.1495 -0.8639
  711MOL0     C95887   7.878   5.057   6.099 -0.5926  0.9575  0.4022
  711MOL0     C95888   7.996   5.148   6.062  0.3235  0.1097  0.3620
  711MOL0     C95889   8.119   5.062   6.045 -0.8011 -0.7104 -0.3474
  711MOL0     C95890   8.238   5.147   6.009  0.4426 -0.7052 -0.4167
  711MOL0     C95891   8.364   5.075   5.945  0.5149 -0.4069  0.2098
  711MOL0     C95892   8.442   5.003   6.056 -0.7177 -0.0374 -0.3042
  711MOL0     C95893   8.549   4.917   6.002  0.5981 -0.2420 -1.1489
  711MOL0    Cl95894   8.480   4.760   5.953 -0.2426 -0.0064  0.9366
  711MOL0     C95895   7.705   4.722   5.865 -0.3567 -0.3509  0.4158
  711MOL0     C95896   7.659   4.593   5.836  0.2942  0.9445  0.3005
  711MOL0     O95897   7.680   4.295   5.941 -0.6916  0.2725  0.8970
  711MOL0     C95898   7.616   4.079   5.786  0.7118 -0.1188  0.6788
  711MOL0     C95899   7.575   3.981   5.704 -0.4057  0.3529 -0.0708
  711MOL0     N95900   7.001   3.419   5.478  0.0762  0.2391 -0.3312
  711MOL0     N95901   6.869   3.405   5.444 -0.0315  0.9461  0.1617
  711MOL0     C95902   5.844   3.970   5.241  0.3510 -0.7182  0.4065
  711MOL0     C95903   5.724   4.044   5.262  0.4353 -0.0723  0.0216
  711MOL0     C95904   5.380   4.294   5.131  1.5023 -0.7227  0.0477
  711MOL0     C95905   5.397   4.427   5.187 -0.5889 -0.5605  0.8984
  711MOL0     C95906   5.294   4.520   5.199  0.9649  0.3143  0.1711
  711MOL0     C95907   5.163   4.472   5.170  0.0407  0.5417 -1.3725
  711MOL0     O95908   5.050   4.528   5.212 -0.0646  0.8010  0.6565
  711MOL0     C95909   5.048   4.620   5.317 -0.2111 -0.0450 -0.3973
  711MOL0     C95910   4.918   4.600   5.393 -0.4779  0.6910 -0.1688
  711MOL0     C95911   4.895   4.725   5.482  0.6551 -0.5339  0.8708
  711MOL0     C95912   4.792   4.695   5.596 -0.7289 -0.4373 -0.2407
  711MOL0     C95913   4.751   4.817   5.658  0.2781  0.2613  0.1397
  711MOL0     C95914   4.711   4.926   5.693 -0.4597  0.7668 -0.3467
  711MOL0     C95915   5.143   4.340   5.126 -0.2675 -0.6189 -0.2366
  711MOL0     C95916   5.248   4.254   5.096  0.6837  0.1950 -0.1192
  711MOL0     C95917   5.216   4.125   5.029  0.0383  1.3147 -0.6637
  711MOL0     H95918   5.796   4.312   5.086 -2.5226  0.5211  1.7692
  711MOL0     H95919   6.015   4.189   5.051 -1.0677  2.1016 -0.6046
  711MOL0     H95920   6.110   3.979   5.303 -1.8583  1.1771 -1.5900
  711MOL0     H95921   6.094   3.805   5.270 -3.9949  1.4868  2.3572
  711MOL0     H95922   6.336   3.895   5.288  0.9191 -1.1437 -0.6772
  711MOL0     H95923   6.305   3.967   5.125 -0.2811 -0.0558 -1.0393
  711MOL0     H95924   6.287   3.744   5.033 -2.8517 -5.6732  1.1595
  711MOL0     H95925   6.231   3.671   5.178 -0.2612 -0.1528 -1.4826
  711MOL0     H95926   6.512   3.759   5.118  1.3661 -2.0935 -0.3553
  711MOL0     H95927   6.456   3.721   5.279 -0.9118  1.1682  0.3112
  711MOL0     H95928   6.423   3.484   5.203  0.3676 -0.5914  1.3135
  711MOL0     H95929   6.413   3.553   5.030  3.0770 -0.4049 -1.5788
  711MOL0     H95930   6.611   3.438   5.026 -0.3685 -2.0077  2.1072
  711MOL0     H95931   6.660   3.605   5.064 -0.6206  0.4096 -1.2419
  711MOL0     H95932   6.769   3.413   5.188 -0.3641 -1.5185  0.6033
  711MOL0     H95933   6.616   3.351   5.241  0.7110 -1.2911 -0.7027
  711MOL0     H95934   6.653   3.638   5.320  2.8809 -0.1164 -2.0133
  711MOL0     H95935   6.624   3.492   5.420  1.6863 -2.1060 -0.2019
  711MOL0     H95936   6.914   3.726   5.397  0.7196  0.2605  0.1653
  711MOL0     H95937   7.236   3.576   5.438  1.6085  0.8208  0.8811
  711MOL0     H95938   7.148   3.731   5.424 -2.3764 -1.3288 -1.0682
  711MOL0     H95939   7.157   3.758   5.656 -1.1634 -0.9955  0.4711
  711MOL0     H95940   7.140   3.587   5.687 -1.7511 -0.0873 -0.6352
  711MOL0     H95941   7.386   3.561   5.658  1.0942  0.4129 -2.4999
  711MOL0     H95942   7.355   3.704   5.767  1.8277 -0.1011  0.5440
  711MOL0     H95943   7.446   3.695   5.473  0.7884  1.8070 -1.4867
  711MOL0     H95944   7.546   3.724   5.602  0.9823  5.9799 -1.3362
  711MOL0     H95945   7.260   4.069   5.619  0.3613 -2.7652 -0.3160
  711MOL0     H95946   7.341   4.267   5.765  1.5337  0.0113  4.9944
  711MOL0     H95947   7.453   4.556   6.103  2.1371  0.4714  2.9173
  711MOL0     H95948   7.540   4.791   6.148 -1.4785  1.3153 -1.1860
  711MOL0     H95949   7.913   4.876   5.971  1.0416  0.8868 -2.2322
  711MOL0     H95950   7.827   5.001   5.886 -0.2285 -1.3735 -1.3508
  711MOL0     H95951   7.790   5.118   6.121 -1.9198 -0.5667 -0.5047
  711MOL0     H95952   7.893   5.005   6.194 -2.6712  0.5091  0.5308
  711MOL0     H95953   7.970   5.206   5.973 -0.4180  0.0556  0.5338
  711MOL0     H95954   8.017   5.218   6.143  2.1223 -0.9625  0.8799
  711MOL0     H95955   8.102   4.994   5.961 -2.5134  1.0572 -1.4996
  711MOL0     H95956   8.142   5.002   6.134  1.3700 -1.0194 -1.0567
  711MOL0     H95957   8.273   5.184   6.105 -0.1433  0.5666 -0.6710
  711MOL0     H95958   8.205   5.236   5.954  0.4671 -0.4493 -0.0184
  711MOL0     H95959   8.323   5.010   5.867 -0.7707 -1.2903  1.5769
  711MOL0     H95960   8.421   5.152   5.891  2.7636 -2.9854 -1.3736
  711MOL0     H95961   8.378   4.931   6.109 -1.4979 -1.2624 -2.7786
  711MOL0     H95962   8.488   5.076   6.123  0.5102 -0.4474 -0.6854
  711MOL0     H95963   8.609   4.956   5.920  2.6875  1.0896  0.8753
  711MOL0     H95964   8.617   4.903   6.087  2.2677 -0.7747 -2.5293
  711MOL0     H95965   7.771   4.761   5.789 -2.0963 -1.1022 -1.5811
  711MOL0     H95966   7.688   4.534   5.749  1.7243  2.4027 -0.2651
  711MOL0     H95967   7.708   4.083   5.843 -0.4006  2.0806  2.4839
  711MOL0     H95968   7.643   3.899   5.686 -0.8565  0.5362 -3.1530
  711MOL0     H95969   5.874   3.877   5.287  3.5152  0.5240  1.1681
  711MOL0     H95970   5.652   4.018   5.339  0.6209 -0.9325 -0.0838
  711MOL0     H95971   5.499   4.467   5.185 -1.0240  0.6994 -1.7048
  711MOL0     H95972   5.309   4.625   5.224  0.8797 -0.6046  5.0557
  711MOL0     H95973   5.066   4.713   5.264 -1.1030 -1.1704 -2.8444
  711MOL0     H95974   5.129   4.598   5.386 -1.2321 -2.8388  0.0769
  711MOL0     H95975   4.940   4.513   5.456  2.6103  1.9353  0.6298
  711MOL0     H95976   4.830   4.575   5.333 -1.2469  0.1898  1.1052
  711MOL0     H95977   4.857   4.808   5.421  4.8517  1.4535  0.5991
  711MOL0     H95978   4.991   4.764   5.518 -0.1974  0.2795  2.3008
  711MOL0     H95979   4.706   4.642   5.554  0.6347 -3.8915  0.9272
  711MOL0     H95980   4.834   4.620   5.664  0.4076 -2.1042 -2.6435
  711MOL0     H95981   4.668   5.007   5.747  1.4245  2.0401 -0.6520
  711MOL0     H95982   5.042   4.307   5.104 -0.1348 -3.5416  2.6751
  711MOL0     H95983   5.277   4.113   4.939  0.3735  0.0023 -0.2969
  711MOL0     H95984   5.239   4.039   5.093 -2.9616 -1.8435 -3.4150
  711MOL0     H95985   5.115   4.118   4.990 -0.1263  4.4119 -1.0399
  712MOL0     O95986   3.897   3.773   6.844  0.0681  0.6154  0.0065
  712MOL0     C95987   3.840   3.864   6.905  0.7751  0.5696 -0.5170
  712MOL0     O95988   3.898   3.937   6.998 -0.2370 -0.5238  0.2512
  712MOL0     C95989   4.032   3.917   7.044 -0.4401 -0.4121  0.9892
  712MOL0     C95990   4.057   3.929   7.183  0.1329  0.0148  0.0977
  712MOL0     C95991   4.182   3.893   7.231  0.0855  0.1289 -1.7306
  712MOL0     C95992   4.288   3.854   7.139 -0.1360 -0.1007 -0.2739
  712MOL0     O95993   4.408   3.815   7.199  0.8675 -0.5606 -0.2540
  712MOL0     C95994   4.435   3.681   7.193  0.0277  0.3993 -0.1722
  712MOL0     C95995   4.597   3.677   7.213 -0.0267  0.0218  0.4430
  712MOL0     C95996   4.639   3.671   7.359 -0.7306 -0.0997  0.0083
  712MOL0     C95997   4.604   3.545   7.433  0.3379 -0.4689 -0.2367
  712MOL0     C95998   4.632   3.547   7.585 -0.1180 -0.3280 -0.5465
  712MOL0     C95999   4.619   3.418   7.656  0.2288 -0.3331 -0.9466
  712MOL0     C96000   4.638   3.430   7.811  0.1363  0.0003 -0.9097
  712MOL0     C96001   4.626   3.291   7.887  1.0623 -0.2226 -0.7624
  712MOL0     N96002   4.489   3.233   7.878  0.0760  0.1389  0.8710
  712MOL0     C96003   4.445   3.141   7.779  0.1212  0.4694 -0.5785
  712MOL0     C96004   4.313   3.159   7.782  0.1511 -1.1458 -0.0877
  712MOL0     C96005   4.221   3.090   7.681 -0.0970  0.0516 -0.7611
  712MOL0     C96006   4.226   3.171   7.545  0.5247 -0.5943 -0.5100
  712MOL0     C96007   4.168   3.112   7.421  0.8079 -0.8013 -0.0890
  712MOL0     C96008   4.016   3.086   7.433 -0.4444 -0.2995 -0.0254
  712MOL0     O96009   3.932   3.198   7.487 -0.3777  0.2286 -0.1421
  712MOL0     C96010   3.799   3.188   7.466  0.0666 -0.4497 -0.7428
  712MOL0     C96011   3.715   3.301   7.482  0.2141 -0.4181 -0.3806
  712MOL0     C96012   3.577   3.288   7.456  1.7099 -0.0704 -0.0328
  712MOL0     C96013   3.514   3.163   7.430  0.6281  0.1893 -1.1539
  712MOL0     C96014   3.365   3.154   7.412 -0.9869  0.1192  1.0605
  712MOL0     O96015   3.302   3.270   7.390  0.3218  0.5431 -0.4146
  712MOL0     C96016   3.172   3.258   7.346 -0.7124  0.1479  0.7710
  712MOL0     C96017   3.140   3.218   7.214  0.0430 -0.0086 -0.7914
  712MOL0     C96018   3.011   3.215   7.179  0.6864  0.7352  1.0242
  712MOL0     C96019   2.908   3.250   7.258  0.1067 -1.0667 -0.3470
  712MOL0     O96020   2.774   3.244   7.225  0.2328  0.4731  0.7322
  712MOL0     C96021   2.736   3.198   7.089  0.2864  0.2235  0.1826
  712MOL0     C96022   2.585   3.207   7.074 -0.0333 -0.2394  0.4470
  712MOL0     C96023   2.511   3.088   7.142 -0.8015 -0.2405 -0.4420
  712MOL0     C96024   2.354   3.109   7.145 -0.1755 -0.2455 -0.0793
  712MOL0     C96025   2.287   3.092   7.009  1.1139 -0.0573 -0.5359
  712MOL0     C96026   2.135   3.104   7.028  0.7233  0.5958 -0.2258
  712MOL0     C96027   2.060   3.061   6.897 -0.6709 -0.7509 -0.1499
  712MOL0     C96028   1.914   3.022   6.921 -0.0335 -0.0486  0.3668
  712MOL0    Cl96029   1.822   3.147   6.999 -0.5111  0.2178 -0.4934
  712MOL0     C96030   2.937   3.284   7.390  0.1976 -0.4638  0.8173
  712MOL0     C96031   3.070   3.280   7.436 -0.4148  0.2614 -0.3431
  712MOL0     O96032   3.310   3.042   7.412 -0.4590 -0.4595 -0.4747
  712MOL0     C96033   3.596   3.056   7.404  0.0933  0.1075 -0.7815
  712MOL0     C96034   3.735   3.065   7.431 -0.0148 -0.2551  0.3780
  712MOL0     N96035   4.274   3.236   7.895  0.2859  0.3338 -0.0631
  712MOL0     N96036   4.381   3.291   7.948 -0.3816 -0.2250 -0.1504
  712MOL0     C96037   4.264   3.862   6.998  0.5347  0.8858  0.2733
  712MOL0     C96038   4.134   3.884   6.955 -0.7723  0.6691  0.0354
  712MOL0     C96039   3.701   3.889   6.870  0.6954  0.6391  0.7540
  712MOL0     C96040   3.663   3.852   6.740 -0.4458 -0.0421  1.3683
  712MOL0     C96041   3.542   3.872   6.684  0.6792  1.0399  0.0152
  712MOL0     C96042   3.437   3.927   6.760 -0.0863 -0.0650  0.8510
  712MOL0     O96043   3.312   3.926   6.707 -0.0080  0.2472 -0.6611
  712MOL0     C96044   3.194   3.910   6.794 -0.3570 -0.2874  0.6093
  712MOL0     C96045   3.068   3.849   6.727 -0.2967  0.3619 -0.4171
  712MOL0     C96046   3.014   3.931   6.615 -0.7713  0.2688 -0.4031
  712MOL0     C96047   2.932   4.062   6.640  0.6490 -0.8793 -0.5547
  712MOL0     C96048   2.799   4.062   6.700  0.4492 -0.4344 -0.1652
  712MOL0     C96049   2.704   4.097   6.765  0.6635  1.0904  0.0212
  712MOL0     C96050   3.473   3.959   6.886  0.1158 -0.4517  0.0124
  712MOL0     C96051   3.591   3.932   6.955 -0.6090  0.4354  0.6518
  712MOL0     C96052   3.598   3.957   7.105 -0.0917  0.2627 -0.1810
  712MOL0     H96053   3.992   3.962   7.263  1.7308 -0.9847  1.8902
  712MOL0     H96054   4.190   3.884   7.339  0.4066 -0.2380 -1.7843
  712MOL0     H96055   4.385   3.624   7.271  0.5985  1.0124  0.6622
  712MOL0     H96056   4.401   3.642   7.096  1.3681 -4.3521  0.9906
  712MOL0     H96057   4.637   3.764   7.160 -1.9366 -0.8494 -2.7257
  712MOL0     H96058   4.642   3.595   7.157  3.5223  2.3325 -0.4371
  712MOL0     H96059   4.600   3.751   7.422  2.6653  0.3465  1.7311
  712MOL0     H96060   4.746   3.676   7.380 -0.7001 -1.6205  0.3481
  712MOL0     H96061   4.496   3.530   7.421 -0.2144  1.9598  1.1193
  712MOL0     H96062   4.653   3.464   7.378  0.0821 -1.0354  0.3456
  712MOL0     H96063   4.730   3.584   7.617  1.3104 -5.2787  1.8890
  712MOL0     H96064   4.562   3.619   7.627 -2.3459 -2.7309  0.1420
  712MOL0     H96065   4.517   3.380   7.648  0.8109 -2.4746  0.6987
  712MOL0     H96066   4.686   3.338   7.623  2.2531 -1.1024  4.0239
  712MOL0     H96067   4.554   3.481   7.858  1.3579 -1.2575  3.0072
  712MOL0     H96068   4.734   3.473   7.842 -0.9234  0.2599  2.3464
  712MOL0     H96069   4.705   3.222   7.857  4.0235  1.3723  2.5839
  712MOL0     H96070   4.651   3.312   7.991  1.9707 -2.0100 -0.5810
  712MOL0     H96071   4.513   3.089   7.713  2.1245 -0.7302  2.2104
  712MOL0     H96072   4.264   2.990   7.674 -2.4821 -1.5320  3.7476
  712MOL0     H96073   4.118   3.071   7.711  1.0165 -3.0202  1.5652
  712MOL0     H96074   4.181   3.270   7.551  0.0722 -0.5707 -3.0185
  712MOL0     H96075   4.332   3.190   7.523  0.4860  0.1961 -0.0588
  712MOL0     H96076   4.230   3.025   7.395  2.7453  0.5839 -0.2891
  712MOL0     H96077   4.174   3.187   7.342  0.1187  0.3218  0.8855
  712MOL0     H96078   3.997   3.004   7.503  0.9338  0.0946  0.8500
  712MOL0     H96079   3.986   3.063   7.330  0.5469 -2.5028  0.1064
  712MOL0     H96080   3.752   3.394   7.525 -2.1029 -0.3091  1.6264
  712MOL0     H96081   3.515   3.373   7.482 -0.9521 -2.4384  2.0388
  712MOL0     H96082   3.217   3.190   7.144 -0.4419 -1.9461 -0.6145
  712MOL0     H96083   2.996   3.163   7.086  1.9359 -0.6042  1.5350
  712MOL0     H96084   2.784   3.256   7.010 -1.3239  1.8751  0.3593
  712MOL0     H96085   2.764   3.093   7.078 -2.7686 -0.8187  1.3310
  712MOL0     H96086   2.559   3.295   7.134  2.6400 -0.2832  1.7706
  712MOL0     H96087   2.557   3.231   6.971 -0.1380 -2.0752  0.0160
  712MOL0     H96088   2.534   2.990   7.098 -2.2722 -2.6125  3.5232
  712MOL0     H96089   2.547   3.075   7.245  2.9102  2.6440 -1.1585
  712MOL0     H96090   2.334   3.204   7.194 -0.9064 -0.4911  0.1098
  712MOL0     H96091   2.317   3.028   7.209  0.5059 -1.4780 -1.1826
  712MOL0     H96092   2.312   2.994   6.969 -0.8233 -1.0563  0.5536
  712MOL0     H96093   2.324   3.171   6.944  1.9292 -0.1653 -0.2209
  712MOL0     H96094   2.099   3.038   7.107 -0.9298 -0.4900 -1.8160
  712MOL0     H96095   2.093   3.203   7.050  0.5020  0.7772 -1.3919
  712MOL0     H96096   2.105   2.968   6.861  2.3082 -0.4800  2.4484
  712MOL0     H96097   2.071   3.138   6.820  1.0526  1.0402  1.7889
  712MOL0     H96098   1.863   2.990   6.830 -2.1347  0.8439  1.1685
  712MOL0     H96099   1.922   2.941   6.994  3.3603  0.6777  0.9772
  712MOL0     H96100   2.857   3.313   7.458  1.1775  3.2717  0.6222
  712MOL0     H96101   3.086   3.301   7.541  0.3316  1.9008 -0.7591
  712MOL0     H96102   3.556   2.960   7.374 -2.3494  0.4976  0.9242
  712MOL0     H96103   3.792   2.979   7.399  0.5950 -0.0727  0.9467
  712MOL0     H96104   4.336   3.843   6.918 -0.3675  1.3179 -0.6668
  712MOL0     H96105   4.111   3.868   6.850  0.0591 -1.1178  0.0937
  712MOL0     H96106   3.726   3.804   6.665 -2.7587  0.1684 -0.8665
  712MOL0     H96107   3.539   3.851   6.577  4.3005 -1.1361  0.1778
  712MOL0     H96108   3.167   4.012   6.822 -0.1788  0.3765 -1.4567
  712MOL0     H96109   3.222   3.845   6.877  0.1946 -1.5390 -0.5278
  712MOL0     H96110   2.979   3.841   6.791  1.5928  2.5757  2.7459
  712MOL0     H96111   3.103   3.751   6.692  0.9121  0.9978 -1.0184
  712MOL0     H96112   2.954   3.855   6.564  1.7371 -2.4352  0.4409
  712MOL0     H96113   3.100   3.958   6.554  0.5453  0.2831  1.4000
  712MOL0     H96114   2.994   4.135   6.692 -1.4157 -0.1405  1.0224
  712MOL0     H96115   2.918   4.111   6.543  0.7875  3.8641  1.5053
  712MOL0     H96116   2.617   4.125   6.821  1.0395  2.0592  0.1395
  712MOL0     H96117   3.390   4.000   6.942  0.8089 -0.3822  1.0150
  712MOL0     H96118   3.697   3.932   7.144  0.9579  1.1679 -2.1048
  712MOL0     H96119   3.587   4.062   7.135  0.0670 -0.0825  1.1506
  712MOL0     H96120   3.530   3.883   7.147  1.3253 -1.3554 -0.6209
  713MOL0     O96121   8.299   0.296   3.492 -0.1099 -0.4298 -0.2393
  713MOL0     C96122   8.357   0.384   3.432  0.1728 -0.3827 -0.2486
  713MOL0     O96123   8.312   0.507   3.410 -0.0596  0.8181  0.2231
  713MOL0     C96124   8.189   0.542   3.456  0.3591 -0.2006  0.1528
  713MOL0     C96125   8.097   0.586   3.352 -0.2936 -0.0474  1.0703
  713MOL0     C96126   7.968   0.622   3.406 -0.6205  0.7077 -0.9431
  713MOL0     C96127   7.926   0.616   3.544  1.1440 -0.1383 -0.1208
  713MOL0     O96128   7.802   0.654   3.583  0.4243  0.4096 -0.1178
  713MOL0     C96129   7.786   0.750   3.683  0.1242 -0.2351 -0.4536
  713MOL0     C96130   7.645   0.808   3.699  0.2744  0.6891 -0.1101
  713MOL0     C96131   7.592   0.890   3.586  0.6497 -0.6378 -0.4928
  713MOL0     C96132   7.541   0.813   3.470 -0.8071 -0.2962  0.2113
  713MOL0     C96133   7.476   0.911   3.367  0.4343 -0.0541 -0.1528
  713MOL0     C96134   7.333   0.867   3.359 -0.2409 -0.4542 -0.3904
  713MOL0     C96135   7.244   0.974   3.288 -0.4480  0.0393  0.0624
  713MOL0     C96136   7.111   0.909   3.234 -1.0500 -0.2816 -0.2345
  713MOL0     N96137   7.010   0.861   3.341 -0.0994 -0.7625 -0.2298
  713MOL0     C96138   7.021   0.739   3.404  0.6245 -0.2959 -0.6896
  713MOL0     C96139   6.904   0.748   3.474  0.8429  0.7306 -0.4944
  713MOL0     C96140   6.836   0.641   3.552 -0.3841 -0.8603  0.2091
  713MOL0     C96141   6.936   0.585   3.658 -0.6047  1.1386  0.4126
  713MOL0     C96142   6.933   0.428   3.639 -0.4038  0.0885 -0.5270
  713MOL0     C96143   7.056   0.354   3.718  0.3985  0.1797 -0.6828
  713MOL0     O96144   7.175   0.421   3.682 -0.7837  0.0491  0.0255
  713MOL0     C96145   7.291   0.355   3.711 -0.5720  0.3648 -0.1007
  713MOL0     C96146   7.413   0.420   3.682 -0.2616  0.0900  0.2358
  713MOL0     C96147   7.545   0.367   3.721  0.3264 -0.1169  0.2310
  713MOL0     C96148   7.550   0.236   3.772  0.2284 -1.5777 -1.3387
  713MOL0     C96149   7.684   0.180   3.804 -0.0333 -1.4693 -0.6966
  713MOL0     O96150   7.790   0.260   3.770  0.5494  0.2711  0.7084
  713MOL0     C96151   7.909   0.236   3.831  0.1303  0.7137  0.7259
  713MOL0     C96152   8.029   0.268   3.753  0.4181  0.5080  0.0773
  713MOL0     C96153   8.155   0.236   3.816 -0.2290 -0.1249 -0.0496
  713MOL0     C96154   8.166   0.188   3.949 -0.3871 -0.9147 -0.4610
  713MOL0     O96155   8.291   0.174   4.013 -0.2779  0.1081  0.0300
  713MOL0     C96156   8.310   0.100   4.135  0.2166 -0.4909  0.6630
  713MOL0     C96157   8.455   0.111   4.179 -0.0394  1.1730 -1.0724
  713MOL0     C96158   8.526  -0.018   4.207 -0.1570  0.7557 -0.2615
  713MOL0     C96159   8.663  -0.002   4.273 -0.3335 -0.1982  0.0204
  713MOL0     C96160   8.693  -0.115   4.377 -0.0177  0.2854 -0.1265
  713MOL0     C96161   8.820  -0.099   4.462 -0.1928  0.1908  0.2083
  713MOL0     C96162   8.853  -0.216   4.552  0.9875 -0.7997 -0.4615
  713MOL0     C96163   8.938  -0.180   4.666  0.4618  0.1723  0.0525
  713MOL0    Cl96164   9.120  -0.219   4.638  0.2545 -0.2153  0.0131
  713MOL0     C96165   8.053   0.189   4.025 -0.2051  0.2204  0.3817
  713MOL0     C96166   7.927   0.206   3.968 -1.0543 -0.2075 -0.5898
  713MOL0     O96167   7.687   0.078   3.864 -0.1638 -0.4154 -0.4408
  713MOL0     C96168   7.431   0.171   3.797  0.6207 -0.7778  0.1091
  713MOL0     C96169   7.306   0.228   3.773  0.4493 -0.0461  0.2221
  713MOL0     N96170   6.831   0.865   3.451  0.4882 -0.2178 -0.2110
  713MOL0     N96171   6.900   0.939   3.376  0.1454  0.7334 -0.3558
  713MOL0     C96172   8.019   0.576   3.635  0.4138 -0.2203 -0.5227
  713MOL0     C96173   8.156   0.555   3.601 -0.4753  0.0427  0.1129
  713MOL0     C96174   8.490   0.365   3.399  0.7886 -0.2995  0.5943
  713MOL0     C96175   8.561   0.479   3.365  0.5416 -0.9456 -0.2738
  713MOL0     C96176   8.696   0.488   3.340 -0.5983 -0.2661 -0.2961
  713MOL0     C96177   8.769   0.367   3.350  0.7825 -0.0606  0.4425
  713MOL0     O96178   8.905   0.376   3.334  0.4846 -0.0621  0.0284
  713MOL0     C96179   8.952   0.273   3.245  0.1068  0.3579  0.3325
  713MOL0     C96180   9.074   0.211   3.306  0.3405 -0.1607  0.2525
  713MOL0     C96181   9.056   0.152   3.449  0.1956  0.2654  0.9136
  713MOL0     C96182   9.184   0.090   3.498  0.1625  0.2998 -0.2220
  713MOL0     C96183   9.236  -0.019   3.415  0.2338  0.3724  0.2677
  713MOL0     C96184   9.260  -0.110   3.340 -0.9383  0.0384 -0.3572
  713MOL0     C96185   8.702   0.248   3.379  0.0490 -0.4940 -0.6468
  713MOL0     C96186   8.563   0.248   3.402  0.7215 -0.0274  0.9441
  713MOL0     C96187   8.504   0.111   3.437  0.0983  0.5431 -0.2791
  713MOL0     H96188   8.108   0.568   3.245 -1.5968 -1.3680  1.1236
  713MOL0     H96189   7.895   0.659   3.334 -1.1816  2.7654  0.6125
  713MOL0     H96190   7.825   0.698   3.771 -1.7085 -0.8872  0.0208
  713MOL0     H96191   7.842   0.840   3.655 -1.6412  1.8527  2.1622
  713MOL0     H96192   7.639   0.870   3.789  1.1276  0.9207 -0.2129
  713MOL0     H96193   7.569   0.735   3.728 -1.0323  1.9061 -0.3467
  713MOL0     H96194   7.670   0.960   3.557 -1.1957  1.6990 -0.1126
  713MOL0     H96195   7.518   0.962   3.623  3.5590  1.4096  1.7990
  713MOL0     H96196   7.628   0.758   3.433 -1.4531 -0.5076 -1.0702
  713MOL0     H96197   7.476   0.730   3.499  2.0566 -2.2237  1.5876
  713MOL0     H96198   7.488   1.015   3.401  0.1219 -0.8826  2.6935
  713MOL0     H96199   7.519   0.902   3.267  1.2847  1.1691  0.0680
  713MOL0     H96200   7.323   0.773   3.304 -1.8756 -1.5167  1.5961
  713MOL0     H96201   7.291   0.846   3.458 -0.2825 -1.7009 -0.6590
  713MOL0     H96202   7.303   1.001   3.199 -1.4910  0.8504 -0.4110
  713MOL0     H96203   7.221   1.063   3.348 -2.1255  0.4040 -1.0390
  713MOL0     H96204   7.051   0.983   3.181 -0.1087  0.1923 -0.6528
  713MOL0     H96205   7.132   0.824   3.168 -0.1753  0.2381 -0.6388
  713MOL0     H96206   7.091   0.657   3.409 -2.9911 -3.6304  1.1739
  713MOL0     H96207   6.752   0.685   3.605 -1.4159 -1.4555 -0.8717
  713MOL0     H96208   6.798   0.572   3.476 -2.7211 -0.0067  0.5287
  713MOL0     H96209   7.040   0.618   3.653  0.4902 -1.8907  0.8676
  713MOL0     H96210   6.898   0.610   3.757  0.0773  1.4749  0.5982
  713MOL0     H96211   6.940   0.394   3.536 -3.3235 -1.0954 -0.4355
  713MOL0     H96212   6.839   0.388   3.677 -1.5189  3.6760  0.9106
  713MOL0     H96213   7.055   0.250   3.684 -0.9771 -0.5982  1.5166
  713MOL0     H96214   7.037   0.356   3.826 -1.0475  0.2475 -0.9105
  713MOL0     H96215   7.409   0.519   3.639  0.2929  0.2360  0.5057
  713MOL0     H96216   7.628   0.436   3.713  0.2151  0.6035  3.7907
  713MOL0     H96217   8.038   0.318   3.657  1.8956  3.7237  1.7493
  713MOL0     H96218   8.245   0.239   3.755 -1.7925 -0.2718 -2.5154
  713MOL0     H96219   8.254   0.141   4.220  1.9953  0.1866  1.5558
  713MOL0     H96220   8.274  -0.001   4.113 -0.3986  0.0654 -0.9851
  713MOL0     H96221   8.508   0.167   4.102  3.1398  0.3169  0.3220
  713MOL0     H96222   8.445   0.158   4.277 -3.0719 -1.8852  0.3036
  713MOL0     H96223   8.457  -0.076   4.270 -1.2742  0.2541 -1.8659
  713MOL0     H96224   8.528  -0.058   4.106 -1.1138 -2.9221  0.9980
  713MOL0     H96225   8.657   0.093   4.327  0.6233 -1.6341  2.8384
  713MOL0     H96226   8.739  -0.003   4.194 -0.0769  0.6543  0.2424
  713MOL0     H96227   8.679  -0.209   4.323 -1.9768  1.1860 -1.3103
  713MOL0     H96228   8.610  -0.116   4.449  0.4234  2.7842  0.5246
  713MOL0     H96229   8.904  -0.086   4.393  2.3008 -0.1367  3.0031
  713MOL0     H96230   8.797   0.000   4.503  0.0277  1.0268 -1.5863
  713MOL0     H96231   8.892  -0.305   4.500 -1.4089 -4.1243  2.8608
  713MOL0     H96232   8.754  -0.247   4.587 -1.5532  3.8383 -2.6596
  713MOL0     H96233   8.927  -0.072   4.675 -2.6790 -0.1225  1.0282
  713MOL0     H96234   8.918  -0.238   4.757 -3.1040  1.5672  0.3025
  713MOL0     H96235   8.050   0.167   4.132 -0.6285 -0.1656  0.2930
  713MOL0     H96236   7.843   0.196   4.036 -0.4485  0.6872  0.3194
  713MOL0     H96237   7.430   0.081   3.857 -1.9614 -0.3133  0.8842
  713MOL0     H96238   7.217   0.180   3.810 -2.1013  0.6434 -4.2408
  713MOL0     H96239   7.990   0.573   3.739 -0.6736 -1.1096 -0.8223
  713MOL0     H96240   8.233   0.536   3.675  0.5750  0.3799 -0.8400
  713MOL0     H96241   8.508   0.572   3.344 -1.3964 -2.1387 -0.9139
  713MOL0     H96242   8.736   0.586   3.317 -0.3196 -0.1979  0.4468
  713MOL0     H96243   8.986   0.315   3.150  1.7378  1.8204  1.4700
  713MOL0     H96244   8.882   0.192   3.224 -1.1211  1.3827  0.3490
  713MOL0     H96245   9.160   0.278   3.304  2.5001 -2.7141  1.3485
  713MOL0     H96246   9.103   0.131   3.236  0.8786  0.4569 -0.2405
  713MOL0     H96247   8.974   0.079   3.449  1.5743 -1.3361  0.3349
  713MOL0     H96248   9.036   0.233   3.521  0.5164  1.0064  0.1856
  713MOL0     H96249   9.257   0.171   3.501 -2.3370  2.7270 -0.1471
  713MOL0     H96250   9.171   0.058   3.602 -0.3051 -1.1552 -0.7000
  713MOL0     H96251   9.281  -0.182   3.263  2.8735  0.5537 -0.0072
  713MOL0     H96252   8.758   0.155   3.388  0.3005 -0.2280  0.6071
  713MOL0     H96253   8.583   0.042   3.468 -2.0303 -1.2557  1.6232
  713MOL0     H96254   8.454   0.121   3.534 -0.3275 -0.9795 -0.3074
  713MOL0     H96255   8.441   0.062   3.362 -0.7421  0.9477  0.1483
  714MOL0     O96256   9.045   7.110   2.145 -0.4457 -0.5146  0.8571
  714MOL0     C96257   8.955   7.027   2.170  1.1057  0.1922  0.2190
  714MOL0     O96258   8.967   6.932   2.263 -0.2650  0.0021 -0.2941
  714MOL0     C96259   9.070   6.937   2.355 -0.4289  0.2503  0.4098
  714MOL0     C96260   9.083   7.043   2.445 -0.6758 -0.0186  0.4808
  714MOL0     C96261   9.182   7.042   2.546 -0.6098 -0.3900 -0.3162
  714MOL0     C96262   9.260   6.924   2.568 -0.1933  0.3456 -0.0590
  714MOL0     O96263   9.347   6.890   2.660 -0.5717  0.2955 -0.0796
  714MOL0     C96264   9.343   6.970   2.777 -0.6312  0.7076 -0.0451
  714MOL0     C96265   9.436   6.920   2.889 -0.5873 -0.0513 -1.3150
  714MOL0     C96266   9.581   6.889   2.853  0.9350 -0.5532  0.5547
  714MOL0     C96267   9.655   6.825   2.973  0.5234 -1.1740  0.0595
  714MOL0     C96268   9.794   6.786   2.929  0.0775 -0.0032  0.3687
  714MOL0     C96269   9.871   6.683   3.015  0.9514 -0.0230  0.4286
  714MOL0     C96270  10.017   6.648   2.964  0.4711 -0.5275  0.2881
  714MOL0     C96271  10.023   6.618   2.806  0.3189 -0.3110  0.0128
  714MOL0     N96272  10.145   6.555   2.771 -0.1627 -0.0951 -0.1417
  714MOL0     C96273  10.255   6.619   2.729  0.0528  0.3007  0.2715
  714MOL0     C96274  10.354   6.531   2.711 -0.6115 -0.6194  0.5605
  714MOL0     C96275  10.498   6.557   2.664  1.1986 -0.0958  0.3719
  714MOL0     C96276  10.514   6.522   2.517 -0.7288  1.0488 -0.0323
  714MOL0     C96277  10.445   6.622   2.433 -0.5442 -0.2006  0.4164
  714MOL0     C96278  10.465   6.578   2.292 -0.1045  0.2707  0.4968
  714MOL0     O96279  10.418   6.447   2.272 -0.0679  0.2284 -0.5212
  714MOL0     C96280  10.382   6.419   2.139 -0.3105 -0.4109  0.4217
  714MOL0     C96281  10.248   6.440   2.099 -0.0304  0.7077  0.4910
  714MOL0     C96282  10.205   6.411   1.966 -1.0603  0.1521 -0.3544
  714MOL0     C96283  10.300   6.375   1.876 -0.4467 -0.0604 -0.3234
  714MOL0     C96284  10.268   6.368   1.727  0.3050 -0.1146  0.7072
  714MOL0     O96285  10.127   6.362   1.693  0.3095  0.1323 -0.2154
  714MOL0     C96286  10.105   6.324   1.562  0.3165 -0.0386 -0.8405
  714MOL0     C96287  10.098   6.421   1.462  0.1991  0.1663  0.2979
  714MOL0     C96288  10.096   6.388   1.329 -0.0245  0.6696  0.3145
  714MOL0     C96289  10.090   6.258   1.288  0.7810 -0.9239  0.0664
  714MOL0     O96290  10.090   6.204   1.164  0.3810  0.4015  0.3729
  714MOL0     C96291  10.038   6.272   1.043 -0.0616 -0.1089  0.2556
  714MOL0     C96292  10.121   6.260   0.912  0.4799 -0.1658  0.8254
  714MOL0     C96293  10.244   6.351   0.921  1.2897  0.0982 -0.3014
  714MOL0     C96294  10.340   6.337   0.799  0.3608 -0.0876 -0.7283
  714MOL0     C96295  10.453   6.443   0.833  0.1143  0.1494 -0.6541
  714MOL0     C96296  10.542   6.452   0.710  0.2969  1.4207  0.6280
  714MOL0     C96297  10.671   6.525   0.726 -0.3021  0.1262 -0.1157
  714MOL0     C96298  10.744   6.546   0.595 -0.6909  0.0355 -0.3604
  714MOL0    Cl96299  10.912   6.621   0.609  0.5189  0.1817 -0.3943
  714MOL0     C96300  10.097   6.153   1.383  0.5816 -0.6367  0.6073
  714MOL0     C96301  10.097   6.186   1.522 -0.1061 -0.6307 -0.9900
  714MOL0     O96302  10.352   6.335   1.646 -0.2471 -0.5113 -0.4136
  714MOL0     C96303  10.438   6.355   1.915  0.0783  0.1287 -0.4349
  714MOL0     C96304  10.477   6.375   2.043 -0.3787  0.1193 -0.3139
  714MOL0     N96305  10.305   6.412   2.751 -0.6903  0.4798  0.0801
  714MOL0     N96306  10.185   6.431   2.800  0.9212  0.2090  0.6827
  714MOL0     C96307   9.236   6.818   2.474  0.3226 -0.3108 -0.1709
  714MOL0     C96308   9.144   6.826   2.372 -0.3191  0.2688 -0.0893
  714MOL0     C96309   8.821   7.040   2.105  0.3412  0.5117 -0.2414
  714MOL0     C96310   8.735   6.930   2.081 -0.4886  0.7754  0.0988
  714MOL0     C96311   8.603   6.945   2.036 -0.2797  0.3725  0.5385
  714MOL0     C96312   8.554   7.066   2.017  0.3186 -1.3028 -0.0699
  714MOL0     O96313   8.425   7.099   1.987 -0.3941 -0.1765  0.7393
  714MOL0     C96314   8.313   7.015   2.026  0.3676  0.7977  0.7984
  714MOL0     C96315   8.200   7.021   1.923  0.8062 -0.1608  1.1478
  714MOL0     C96316   8.057   7.015   1.971 -0.4985  0.1852 -0.0039
  714MOL0     C96317   7.935   7.050   1.877 -0.3185 -0.4237 -1.0446
  714MOL0     C96318   7.811   7.030   1.947  0.4859 -0.3860  0.5770
  714MOL0     C96319   7.717   7.027   2.020 -0.1741 -0.2699 -0.3204
  714MOL0     C96320   8.632   7.176   2.031 -0.2868 -0.0800 -1.0595
  714MOL0     C96321   8.761   7.165   2.089  0.4016 -0.0463  0.0647
  714MOL0     C96322   8.818   7.298   2.125  0.6726  0.2904 -0.1996
  714MOL0     H96323   9.019   7.130   2.447 -1.0160 -0.2862  2.1605
  714MOL0     H96324   9.186   7.132   2.607  0.9910  0.2354 -1.2808
  714MOL0     H96325   9.383   7.071   2.763  0.6189  0.7766  3.1633
  714MOL0     H96326   9.240   6.984   2.809  0.3015  3.5154  2.2257
  714MOL0     H96327   9.373   6.843   2.933  0.0828 -0.4344 -1.0086
  714MOL0     H96328   9.444   6.984   2.978  4.8487 -1.7764 -0.1697
  714MOL0     H96329   9.629   6.982   2.820  0.9529  0.3533  2.9338
  714MOL0     H96330   9.574   6.812   2.775 -1.6759 -0.3155  0.4568
  714MOL0     H96331   9.659   6.898   3.054  1.0341 -1.2233  0.0837
  714MOL0     H96332   9.600   6.732   2.994  1.9267 -3.0379 -3.6144
  714MOL0     H96333   9.787   6.743   2.829  0.2295 -0.1777  0.4324
  714MOL0     H96334   9.849   6.881   2.932 -0.8912  0.6971 -2.0035
  714MOL0     H96335   9.865   6.719   3.118 -0.7282  1.6825 -0.1975
  714MOL0     H96336   9.807   6.595   3.027  2.5090 -0.9972  2.1683
  714MOL0     H96337  10.060   6.576   3.034  0.6406  2.2679  3.3632
  714MOL0     H96338  10.077   6.739   2.978  0.1183 -0.4529  1.4142
  714MOL0     H96339   9.952   6.538   2.781  2.7962 -2.9056  0.6451
  714MOL0     H96340  10.006   6.708   2.747 -1.0116  0.1543  1.0390
  714MOL0     H96341  10.264   6.725   2.704 -0.8736 -0.2290 -2.7135
  714MOL0     H96342  10.520   6.659   2.696  2.5550 -0.9410  2.2623
  714MOL0     H96343  10.571   6.500   2.722 -0.0614 -0.1388  1.9794
  714MOL0     H96344  10.623   6.530   2.511 -0.7493  0.9363 -0.5807
  714MOL0     H96345  10.480   6.420   2.497 -0.4465  0.8170  0.6470
  714MOL0     H96346  10.494   6.717   2.453 -0.6028 -0.5282  2.3281
  714MOL0     H96347  10.337   6.615   2.451 -0.8980 -2.0431 -1.8788
  714MOL0     H96348  10.569   6.587   2.261 -0.2355  3.2405  0.7077
  714MOL0     H96349  10.409   6.649   2.231  0.6800  1.5427  1.2219
  714MOL0     H96350  10.167   6.464   2.166 -1.9868 -4.5759  0.5092
  714MOL0     H96351  10.101   6.421   1.940 -2.8240  0.4475  5.4104
  714MOL0     H96352  10.116   6.525   1.486  0.0833 -0.0190  1.2469
  714MOL0     H96353  10.106   6.473   1.263 -1.9475  1.6505  1.1982
  714MOL0     H96354   9.941   6.227   1.020  0.3448 -0.0853 -1.7165
  714MOL0     H96355  10.015   6.375   1.069  1.8285 -0.6365  5.0559
  714MOL0     H96356  10.162   6.161   0.889 -0.3690 -0.1647 -0.8226
  714MOL0     H96357  10.056   6.300   0.834 -2.7439 -0.0438  3.3834
  714MOL0     H96358  10.215   6.456   0.930 -0.0535 -0.3267  0.7610
  714MOL0     H96359  10.292   6.322   1.014 -1.2003  0.2895  1.1500
  714MOL0     H96360  10.296   6.363   0.703  0.3497 -0.2456 -0.7659
  714MOL0     H96361  10.382   6.236   0.798  0.2030 -0.2034  0.8923
  714MOL0     H96362  10.502   6.417   0.927  0.2143 -0.4694 -0.8684
  714MOL0     H96363  10.408   6.542   0.846 -3.8408 -1.6533  1.2658
  714MOL0     H96364  10.569   6.351   0.676 -1.8917  1.5460 -1.7606
  714MOL0     H96365  10.485   6.505   0.634 -1.7831 -0.5182  0.7236
  714MOL0     H96366  10.729   6.459   0.791 -0.9459  0.2621  0.6178
  714MOL0     H96367  10.653   6.619   0.778 -2.4681 -0.3288  0.0860
  714MOL0     H96368  10.763   6.450   0.546 -1.4303 -0.6443  0.6332
  714MOL0     H96369  10.674   6.607   0.537 -0.1363  2.4292  1.3337
  714MOL0     H96370  10.077   6.049   1.359 -3.5263  0.1749 -0.2199
  714MOL0     H96371  10.083   6.104   1.591 -2.1472  0.0654 -0.5207
  714MOL0     H96372  10.506   6.311   1.843 -0.4305 -3.2099  0.9350
  714MOL0     H96373  10.579   6.347   2.068 -0.4071  0.5961  0.3736
  714MOL0     H96374   9.290   6.724   2.486 -0.3203 -0.4665  1.7902
  714MOL0     H96375   9.127   6.740   2.309  3.5592 -1.4609  0.9421
  714MOL0     H96376   8.771   6.832   2.110  0.4377  1.7162  2.3462
  714MOL0     H96377   8.547   6.854   2.016  2.7666 -1.7674  0.9820
  714MOL0     H96378   8.276   7.063   2.117  1.4190  2.1626  0.5372
  714MOL0     H96379   8.335   6.911   2.050  2.1620  0.7702 -0.7198
  714MOL0     H96380   8.214   6.940   1.850  2.1039 -0.1119  1.3190
  714MOL0     H96381   8.219   7.116   1.873  2.7534  0.3714  2.7826
  714MOL0     H96382   8.062   7.084   2.056  1.2053  0.4710 -0.2973
  714MOL0     H96383   8.037   6.915   2.010 -2.3660  0.3019 -0.5398
  714MOL0     H96384   7.943   7.151   1.837 -2.5802 -0.9416 -3.0830
  714MOL0     H96385   7.944   6.985   1.789  0.4998  0.1634 -1.4117
  714MOL0     H96386   7.639   7.028   2.093  0.2791  1.9997  0.1812
  714MOL0     H96387   8.580   7.270   2.015  1.5413  1.3043  0.6956
  714MOL0     H96388   8.865   7.345   2.038  0.1377 -0.8091 -1.1065
  714MOL0     H96389   8.732   7.359   2.153 -1.7413 -2.7727 -0.4658
  714MOL0     H96390   8.892   7.299   2.206  0.4070  1.0947  0.0506
  715MOL0     O96391   0.798   0.082  10.234  0.4455 -0.0570 -0.1795
  715MOL0     C96392   0.762   0.154  10.140 -0.1174 -0.0603  0.1188
  715MOL0     O96393   0.650   0.233  10.144 -0.4356  0.1361 -0.9585
  715MOL0     C96394   0.577   0.234  10.263 -0.9678 -0.8154 -0.3569
  715MOL0     C96395   0.498   0.136  10.315  0.0553  0.3905 -0.9431
  715MOL0     C96396   0.415   0.162  10.429  0.1910 -0.2108  0.8094
  715MOL0     C96397   0.435   0.279  10.506  0.2039 -0.6311 -0.4581
  715MOL0     O96398   0.376   0.274  10.633 -0.3547 -0.1155  0.9784
  715MOL0     C96399   0.436   0.365  10.736  0.0177  0.4872 -0.2765
  715MOL0     C96400   0.363   0.339  10.866 -0.2477  0.9227 -0.4383
  715MOL0     C96401   0.396   0.206  10.938 -0.8295 -0.5395 -0.7763
  715MOL0     C96402   0.331   0.188  11.079 -0.2442  0.3633 -1.6019
  715MOL0     C96403   0.383   0.055  11.139  0.1142 -1.1335 -0.1937
  715MOL0     C96404   0.346   0.042  11.291 -0.0467 -0.0694 -1.1979
  715MOL0     C96405   0.391  -0.093  11.348  0.5546  0.4849  0.8508
  715MOL0     C96406   0.536  -0.091  11.393  0.0301 -0.1721  1.0129
  715MOL0     N96407   0.547  -0.040  11.529  0.1297 -0.7419 -0.2479
  715MOL0     C96408   0.571  -0.110  11.643  0.1717 -0.2274  0.7586
  715MOL0     C96409   0.587  -0.015  11.743  0.7431  0.5171 -0.4875
  715MOL0     C96410   0.605  -0.056  11.888  0.6092 -0.3899  0.2010
  715MOL0     C96411   0.640  -0.206  11.924 -0.1842  0.0984 -0.0053
  715MOL0     C96412   0.513  -0.298  11.915  0.7307 -0.0498 -0.0523
  715MOL0     C96413   0.559  -0.440  11.941  0.3885 -0.0413  0.2620
  715MOL0     O96414   0.607  -0.499  11.823 -0.1844  1.2342  0.0529
  715MOL0     C96415   0.725  -0.560  11.841 -0.4132 -0.0192  0.6936
  715MOL0     C96416   0.735  -0.678  11.912  0.4568 -1.0512 -0.1915
  715MOL0     C96417   0.860  -0.739  11.921 -0.3633 -0.6599 -0.6407
  715MOL0     C96418   0.971  -0.692  11.862 -0.4130 -0.3505 -0.3922
  715MOL0     C96419   1.102  -0.776  11.858  0.0728 -0.7492 -0.1232
  715MOL0     O96420   1.188  -0.727  11.765 -0.7531  0.1787  0.3307
  715MOL0     C96421   1.311  -0.774  11.746  1.0331  0.0504 -0.0828
  715MOL0     C96422   1.325  -0.873  11.652  0.8075 -0.4710  0.3987
  715MOL0     C96423   1.451  -0.937  11.620 -0.1879 -0.1339 -0.1003
  715MOL0     C96424   1.565  -0.887  11.688  0.1564 -1.0720  0.8180
  715MOL0     O96425   1.680  -0.960  11.663 -0.0429 -0.2737  0.1090
  715MOL0     C96426   1.812  -0.901  11.694 -0.0165 -0.4309  0.1406
  715MOL0     C96427   1.925  -0.979  11.614  0.3068  0.4499  0.7617
  715MOL0     C96428   2.049  -0.884  11.636  1.2316  0.7062 -0.0308
  715MOL0     C96429   2.180  -0.937  11.583  0.1229 -0.0428  0.2133
  715MOL0     C96430   2.214  -1.074  11.665  0.4494  0.1517 -0.0755
  715MOL0     C96431   2.365  -1.118  11.657 -0.5059 -0.1744  0.3319
  715MOL0     C96432   2.392  -1.206  11.533  0.4782 -1.1085  0.2061
  715MOL0     C96433   2.487  -1.323  11.571 -0.6906 -0.7208  0.8727
  715MOL0    Cl96434   2.657  -1.272  11.545 -0.3981  0.3116 -0.4385
  715MOL0     C96435   1.556  -0.779  11.788  1.0165  0.6036  0.5020
  715MOL0     C96436   1.427  -0.727  11.818 -0.4221  0.4609  0.0911
  715MOL0     O96437   1.123  -0.872  11.926  0.2472 -0.3665 -0.1160
  715MOL0     C96438   0.970  -0.568  11.792 -0.0413  0.7450  0.7941
  715MOL0     C96439   0.842  -0.507  11.783  0.0114  0.3001  0.6356
  715MOL0     N96440   0.582   0.110  11.685 -0.1055  0.2659 -0.5156
  715MOL0     N96441   0.544   0.094  11.563  0.4884  0.0703 -0.8650
  715MOL0     C96442   0.521   0.377  10.455  0.7968  0.8629  0.4246
  715MOL0     C96443   0.583   0.365  10.332 -0.9724  0.2484  0.1440
  715MOL0     C96444   0.840   0.170  10.017 -0.2233  0.7499 -0.0541
  715MOL0     C96445   0.794   0.251   9.914  0.2156  0.0340  0.3002
  715MOL0     C96446   0.854   0.268   9.787 -1.3553  0.1093 -0.3786
  715MOL0     C96447   0.968   0.203   9.760 -0.2534 -0.1668 -0.2432
  715MOL0     O96448   1.022   0.213   9.634  0.4652 -0.0027  0.0880
  715MOL0     C96449   1.170   0.244   9.628  0.4600  0.6295 -0.1670
  715MOL0     C96450   1.209   0.289   9.498 -0.7503 -0.3055  1.1505
  715MOL0     C96451   1.180   0.172   9.402  0.0453 -0.0566  0.2358
  715MOL0     C96452   1.233   0.179   9.259  0.5444 -0.8411  0.5665
  715MOL0     C96453   1.166   0.281   9.173 -0.6610 -0.6430  0.7091
  715MOL0     C96454   1.101   0.341   9.083  0.1805 -0.0564  0.1382
  715MOL0     C96455   1.024   0.124   9.859  0.7183 -0.9468 -1.6511
  715MOL0     C96456   0.961   0.106   9.984 -0.4098 -0.5352 -1.0244
  715MOL0     C96457   1.041   0.031  10.088  0.1477  1.2849  0.0113
  715MOL0     H96458   0.495   0.052  10.246  0.9809  3.9316 -5.8502
  715MOL0     H96459   0.341   0.088  10.457 -0.5640 -0.8090 -2.3910
  715MOL0     H96460   0.542   0.339  10.739 -0.3602 -1.5889 -2.2612
  715MOL0     H96461   0.431   0.472  10.716 -0.9859  0.8049  1.4360
  715MOL0     H96462   0.255   0.332  10.846 -0.2486 -1.3247  0.0787
  715MOL0     H96463   0.378   0.426  10.931 -0.8644  0.3603  0.4765
  715MOL0     H96464   0.505   0.201  10.950 -0.2647 -1.2446 -4.6876
  715MOL0     H96465   0.374   0.121  10.873  0.8408 -0.9945 -0.7799
  715MOL0     H96466   0.350   0.269  11.150 -1.7374 -1.8466  1.5661
  715MOL0     H96467   0.223   0.193  11.063 -0.5940  2.0984  0.8537
  715MOL0     H96468   0.334  -0.024  11.082  1.4949 -1.6929 -0.6439
  715MOL0     H96469   0.491   0.051  11.122  0.0855  3.3570 -3.3057
  715MOL0     H96470   0.372   0.126  11.357  1.3070  1.3234 -3.3695
  715MOL0     H96471   0.239   0.033  11.310  0.4686 -2.2104  1.2538
  715MOL0     H96472   0.387  -0.160  11.261  0.7782  3.0578 -1.2867
  715MOL0     H96473   0.326  -0.127  11.429  1.1471  0.7389  1.4478
  715MOL0     H96474   0.591  -0.186  11.390  2.1261  1.0045 -1.2364
  715MOL0     H96475   0.592  -0.024  11.327 -0.2185 -1.0395 -0.1271
  715MOL0     H96476   0.562  -0.219  11.638 -0.6219 -0.1192 -1.0559
  715MOL0     H96477   0.686   0.002  11.932 -0.0093  0.3612  0.3755
  715MOL0     H96478   0.508  -0.034  11.935  0.9100 -1.5773  1.4323
  715MOL0     H96479   0.716  -0.241  11.854  0.9900 -3.7620  2.8482
  715MOL0     H96480   0.680  -0.217  12.025  2.4885  1.7797 -0.7795
  715MOL0     H96481   0.469  -0.302  11.815 -0.5176 -0.4526  0.5028
  715MOL0     H96482   0.448  -0.267  11.997 -0.7807 -0.4550 -1.0693
  715MOL0     H96483   0.472  -0.496  11.977 -0.3639  0.5039 -0.6608
  715MOL0     H96484   0.635  -0.446  12.019  3.0632 -1.7632 -2.2731
  715MOL0     H96485   0.637  -0.716  11.939 -1.8556  3.2021 -1.6171
  715MOL0     H96486   0.869  -0.834  11.971 -0.5090 -0.6663 -0.6256
  715MOL0     H96487   1.235  -0.901  11.598  0.7414  0.3334  0.0879
  715MOL0     H96488   1.453  -1.014  11.544  3.6932 -1.3304  0.9689
  715MOL0     H96489   1.811  -0.794  11.669  1.3238 -0.4173  0.0985
  715MOL0     H96490   1.833  -0.914  11.801  0.6268 -1.5255 -0.1064
  715MOL0     H96491   1.945  -1.081  11.648  1.2442  1.0954  2.2790
  715MOL0     H96492   1.905  -0.981  11.506  0.0168  0.3073  0.8197
  715MOL0     H96493   2.017  -0.794  11.583 -3.7523 -0.8600 -0.1529
  715MOL0     H96494   2.056  -0.858  11.742  3.5228  0.4285 -0.0515
  715MOL0     H96495   2.266  -0.873  11.604  0.2301  0.6592 -2.0880
  715MOL0     H96496   2.182  -0.956  11.475  0.2981 -2.5177  0.5990
  715MOL0     H96497   2.166  -1.165  11.629 -0.3362 -0.1438  1.5920
  715MOL0     H96498   2.183  -1.056  11.769 -1.3679 -1.2304 -0.3291
  715MOL0     H96499   2.433  -1.033  11.657 -1.8144  1.0262 -3.0406
  715MOL0     H96500   2.394  -1.179  11.743  0.6791  0.5584  0.4852
  715MOL0     H96501   2.406  -1.160  11.434 -2.8545  0.5558  0.3566
  715MOL0     H96502   2.302  -1.264  11.510 -0.4023  0.0607  0.6130
  715MOL0     H96503   2.480  -1.356  11.675 -0.3001  0.4771  1.3037
  715MOL0     H96504   2.466  -1.405  11.503 -3.4180  1.2581 -0.8851
  715MOL0     H96505   1.634  -0.741  11.853  1.0059  1.1261  0.2128
  715MOL0     H96506   1.439  -0.660  11.902  1.0270  1.0460 -0.5539
  715MOL0     H96507   1.064  -0.526  11.755 -0.8880  0.7245 -1.5462
  715MOL0     H96508   0.835  -0.408  11.740  0.2904  0.7989  1.6933
  715MOL0     H96509   0.547   0.462  10.518  1.6946 -1.1278  2.9031
  715MOL0     H96510   0.642   0.441  10.280  1.0482 -1.7070 -0.5875
  715MOL0     H96511   0.702   0.308   9.922 -0.5790 -1.3264  1.1739
  715MOL0     H96512   0.815   0.342   9.718 -2.4263 -0.5864 -0.5368
  715MOL0     H96513   1.245   0.166   9.646  0.0215  0.4206  0.8097
  715MOL0     H96514   1.194   0.324   9.699  0.9014  1.5650 -1.3194
  715MOL0     H96515   1.315   0.314   9.506 -0.9515  0.3059  2.2091
  715MOL0     H96516   1.168   0.388   9.473  2.8217  1.7584  2.6334
  715MOL0     H96517   1.073   0.154   9.389  0.1601 -0.1607 -0.6085
  715MOL0     H96518   1.211   0.079   9.451 -1.9661 -0.5523  0.6915
  715MOL0     H96519   1.338   0.205   9.274 -0.5011  4.3181  0.8730
  715MOL0     H96520   1.219   0.079   9.216 -1.9277 -1.0135  1.6271
  715MOL0     H96521   1.050   0.386   9.000 -0.0783  0.6307  0.6630
  715MOL0     H96522   1.121   0.076   9.859  2.1071  1.3954  2.1535
  715MOL0     H96523   0.990  -0.059  10.124  1.0345  0.2715 -1.1958
  715MOL0     H96524   1.137  -0.007  10.052 -0.5304  0.4762 -1.0121
  715MOL0     H96525   1.055   0.097  10.174  2.1347 -2.3778  2.8118
  716MOL0     O96526   3.776   1.326  10.743  0.1596  0.9628 -0.1276
  716MOL0     C96527   3.760   1.444  10.726  0.4022  0.1121 -0.3115
  716MOL0     O96528   3.837   1.520  10.643  0.0786  0.1302 -0.5953
  716MOL0     C96529   3.953   1.472  10.595  0.0989 -1.2291  0.4959
  716MOL0     C96530   3.980   1.482  10.462 -0.1964  0.2244  0.5270
  716MOL0     C96531   4.099   1.451  10.401  0.2099 -0.2474  0.5374
  716MOL0     C96532   4.202   1.403  10.488  0.4675  0.2466  0.2700
  716MOL0     O96533   4.329   1.370  10.452  0.0708  0.5619 -0.0896
  716MOL0     C96534   4.374   1.382  10.314 -0.1150  1.2553  0.7674
  716MOL0     C96535   4.502   1.293  10.282  0.5270  0.4002  0.6990
  716MOL0     C96536   4.615   1.352  10.372  0.0748  0.4867 -0.6176
  716MOL0     C96537   4.760   1.320  10.314  0.1256 -0.1038 -0.1822
  716MOL0     C96538   4.793   1.175  10.323  0.3196 -0.6054  0.4099
  716MOL0     C96539   4.935   1.165  10.255 -0.3543 -0.4750 -0.6690
  716MOL0     C96540   4.977   1.016  10.235  0.2878  0.3515 -1.0207
  716MOL0     C96541   5.105   0.969  10.181  0.0018  0.0802  0.7598
  716MOL0     N96542   5.221   0.947  10.278 -0.5993 -0.0283  0.7692
  716MOL0     C96543   5.331   1.037  10.277  0.1081 -0.2552 -0.8379
  716MOL0     C96544   5.392   1.016  10.400  0.9538  0.4844 -0.3237
  716MOL0     C96545   5.524   1.076  10.433  0.0389  0.8209  0.0829
  716MOL0     C96546   5.605   1.130  10.312  0.9275  0.5066  0.0724
  716MOL0     C96547   5.739   1.173  10.354  0.6006 -0.6452 -0.3013
  716MOL0     C96548   5.798   1.299  10.272  0.2468  0.0051 -1.0428
  716MOL0     O96549   5.837   1.251  10.141 -0.0863 -0.1849 -0.6738
  716MOL0     C96550   5.846   1.332  10.037  0.5000 -0.5072 -0.1446
  716MOL0     C96551   5.817   1.470  10.043 -0.0643  0.8776 -0.2166
  716MOL0     C96552   5.830   1.549   9.924 -0.7948 -0.2971  0.5845
  716MOL0     C96553   5.857   1.490   9.798  0.0572  0.0314 -0.2104
  716MOL0     C96554   5.839   1.568   9.673  0.1503  0.7676  0.0816
  716MOL0     O96555   5.805   1.692   9.679  0.1991 -0.9139 -0.3253
  716MOL0     C96556   5.765   1.759   9.562 -0.9758  0.3021  0.3036
  716MOL0     C96557   5.635   1.754   9.518 -0.2606  0.4614 -0.3196
  716MOL0     C96558   5.599   1.817   9.402 -0.9958 -0.2521 -0.2437
  716MOL0     C96559   5.695   1.893   9.332 -0.4429  0.0691 -1.3150
  716MOL0     O96560   5.644   1.971   9.227 -0.3557  0.4435  0.7614
  716MOL0     C96561   5.711   2.086   9.178  0.2850  1.1735  0.5092
  716MOL0     C96562   5.802   2.063   9.057  0.1235 -0.0317  0.4090
  716MOL0     C96563   5.725   2.011   8.937 -0.1783  0.3587  0.0723
  716MOL0     C96564   5.820   1.977   8.829 -0.5169 -0.2616 -0.4098
  716MOL0     C96565   5.762   1.906   8.712 -0.3789  0.1357 -1.0856
  716MOL0     C96566   5.844   1.896   8.587 -0.3008  0.1946 -0.4777
  716MOL0     C96567   5.775   1.846   8.458 -0.7479  0.1354 -0.1883
  716MOL0     C96568   5.726   1.701   8.470 -0.5133  0.0728 -0.2306
  716MOL0    Cl96569   5.855   1.582   8.434  0.0585 -0.2302 -0.0571
  716MOL0     C96570   5.829   1.894   9.376 -0.0915 -0.6946  0.3274
  716MOL0     C96571   5.858   1.827   9.495 -0.1135  0.6673 -0.8189
  716MOL0     O96572   5.846   1.501   9.570 -0.6791 -0.1004  0.4240
  716MOL0     C96573   5.886   1.354   9.802  0.6481 -0.2443  0.4602
  716MOL0     C96574   5.876   1.279   9.913 -0.3229  0.6557 -0.7847
  716MOL0     N96575   5.314   0.937  10.475  0.7327  0.8303  0.0389
  716MOL0     N96576   5.216   0.878  10.400 -0.5487 -0.4976  0.0547
  716MOL0     C96577   4.179   1.395  10.625 -1.1444  0.1082  0.0087
  716MOL0     C96578   4.059   1.428  10.681 -0.2265 -0.3205 -0.2128
  716MOL0     C96579   3.659   1.509  10.799  0.0469 -0.7951 -0.0995
  716MOL0     C96580   3.538   1.439  10.830 -0.3159  0.2532 -0.0639
  716MOL0     C96581   3.427   1.502  10.889 -0.0588  0.0802 -1.0309
  716MOL0     C96582   3.441   1.635  10.949 -0.0048 -0.0821 -0.7206
  716MOL0     O96583   3.341   1.703  11.011  0.1934  0.0065 -0.1332
  716MOL0     C96584   3.234   1.625  11.069 -0.6782 -0.8295  0.1693
  716MOL0     C96585   3.123   1.618  10.977  0.7079 -0.2626  0.0310
  716MOL0     C96586   3.035   1.489  10.989 -1.0293 -0.0631 -0.6157
  716MOL0     C96587   2.922   1.485  10.889  0.2500 -0.1061 -0.4259
  716MOL0     C96588   2.967   1.487  10.745 -0.2299  0.0148  0.9002
  716MOL0     C96589   3.004   1.499  10.626  0.3582 -0.2940  0.6983
  716MOL0     C96590   3.556   1.705  10.915 -0.2624  0.3391 -0.8657
  716MOL0     C96591   3.668   1.643  10.851  0.7629 -0.1853 -0.6892
  716MOL0     C96592   3.786   1.735  10.836  0.6161  0.2724 -0.3518
  716MOL0     H96593   3.902   1.504  10.390 -1.4577  5.9812  3.1312
  716MOL0     H96594   4.108   1.454  10.293  0.4766  2.8641  0.5537
  716MOL0     H96595   4.299   1.345  10.244  1.3255 -3.5201  1.4016
  716MOL0     H96596   4.411   1.481  10.284 -1.6433  1.1616 -1.7136
  716MOL0     H96597   4.537   1.296  10.178  1.0142  1.3490  0.8822
  716MOL0     H96598   4.492   1.190  10.318  0.7434 -0.0477 -0.4612
  716MOL0     H96599   4.601   1.308  10.472  1.4210  3.7196  1.1539
  716MOL0     H96600   4.613   1.460  10.387  1.3719  0.3333  0.9542
  716MOL0     H96601   4.769   1.359  10.212  2.6297  3.1630  1.1201
  716MOL0     H96602   4.831   1.386  10.363 -0.4035 -0.4833  1.1319
  716MOL0     H96603   4.784   1.147  10.429 -3.2954  2.7544  1.2256
  716MOL0     H96604   4.723   1.102  10.282  0.0198 -1.4584  2.2913
  716MOL0     H96605   4.948   1.212  10.157  0.5342 -0.0182 -0.3439
  716MOL0     H96606   5.005   1.214  10.324 -1.9687 -2.1101  2.3103
  716MOL0     H96607   4.892   0.973  10.180  1.3678  0.4264 -2.8330
  716MOL0     H96608   4.973   0.976  10.337 -0.0278 -0.5246 -1.3628
  716MOL0     H96609   5.102   0.877  10.122 -1.8723  1.1132 -0.9144
  716MOL0     H96610   5.121   1.051  10.110 -4.2651  1.8775  1.5400
  716MOL0     H96611   5.356   1.105  10.196 -2.7030 -0.9092 -2.4037
  716MOL0     H96612   5.506   1.160  10.500  3.2943 -0.6625  3.0999
  716MOL0     H96613   5.559   0.989  10.488 -1.4640 -0.1165 -0.3854
  716MOL0     H96614   5.621   1.061  10.229  0.0235  1.3479 -0.8270
  716MOL0     H96615   5.534   1.196  10.261 -1.6941 -0.9732  1.6413
  716MOL0     H96616   5.806   1.087  10.348  0.6198 -0.8976  2.5418
  716MOL0     H96617   5.734   1.198  10.460  1.3265  1.0978 -0.6272
  716MOL0     H96618   5.876   1.354  10.324 -1.5805  1.7644 -0.0077
  716MOL0     H96619   5.706   1.356  10.257 -3.0593 -4.3415  0.5212
  716MOL0     H96620   5.797   1.518  10.138  1.5081 -2.3079  1.9205
  716MOL0     H96621   5.798   1.653   9.919 -1.9967 -0.7122 -1.4868
  716MOL0     H96622   5.550   1.702   9.559  0.0567  0.0440 -0.1880
  716MOL0     H96623   5.496   1.811   9.370 -0.8599  0.1133 -0.7755
  716MOL0     H96624   5.645   2.170   9.155 -1.1872 -0.1991 -0.4721
  716MOL0     H96625   5.775   2.132   9.254  1.0520  0.5934  0.2263
  716MOL0     H96626   5.846   2.157   9.026  1.1771 -0.4932  0.4716
  716MOL0     H96627   5.879   1.991   9.087 -1.0418 -0.9631  1.2761
  716MOL0     H96628   5.678   1.920   8.977  0.6454 -0.2310 -0.2562
  716MOL0     H96629   5.653   2.088   8.909 -1.8195 -0.3550  2.0894
  716MOL0     H96630   5.903   1.919   8.871 -0.7540  0.0197  0.4643
  716MOL0     H96631   5.867   2.064   8.782 -0.6607  1.1039  1.8382
  716MOL0     H96632   5.669   1.958   8.687 -1.5221 -1.3670 -0.0698
  716MOL0     H96633   5.724   1.806   8.735 -1.3707  0.8949  0.7948
  716MOL0     H96634   5.884   1.996   8.564  1.3998  0.0760  1.6407
  716MOL0     H96635   5.933   1.837   8.609 -0.6779 -1.4517 -2.9744
  716MOL0     H96636   5.852   1.845   8.381  0.3478  0.4143  0.8888
  716MOL0     H96637   5.693   1.914   8.432 -1.1483 -0.5083 -0.6364
  716MOL0     H96638   5.690   1.673   8.569 -1.2024  2.2577  0.1990
  716MOL0     H96639   5.647   1.701   8.394 -2.0744  2.1568  1.2736
  716MOL0     H96640   5.903   1.941   9.313  0.8346 -0.0340  1.8695
  716MOL0     H96641   5.960   1.833   9.532 -0.4815  1.2600  0.1179
  716MOL0     H96642   5.907   1.305   9.708  0.4988 -1.4508  1.0319
  716MOL0     H96643   5.885   1.171   9.910  0.7539  0.6791  0.5127
  716MOL0     H96644   4.260   1.363  10.690 -1.2921 -0.4637 -0.0825
  716MOL0     H96645   4.051   1.424  10.789 -0.9443  3.5269  0.0232
  716MOL0     H96646   3.524   1.337  10.794  2.8669 -0.1349 -0.4605
  716MOL0     H96647   3.342   1.437  10.906  0.7715 -0.7240  0.2588
  716MOL0     H96648   3.194   1.684  11.152  3.4648  1.3620  0.8762
  716MOL0     H96649   3.256   1.523  11.102 -2.3473 -2.4262 -3.1773
  716MOL0     H96650   3.149   1.631  10.872 -3.9468  2.8366 -1.0395
  716MOL0     H96651   3.054   1.702  10.990 -0.6161 -1.4824  1.3769
  716MOL0     H96652   2.994   1.460  11.086 -2.6453 -0.7341 -1.4585
  716MOL0     H96653   3.102   1.408  10.959 -3.0733 -1.7395 -0.8918
  716MOL0     H96654   2.853   1.400  10.902 -0.5256  0.7681  1.5872
  716MOL0     H96655   2.868   1.579  10.905  1.2450  0.2756  0.9061
  716MOL0     H96656   3.048   1.538  10.537 -2.3459  0.8046 -0.2864
  716MOL0     H96657   3.570   1.809  10.945  1.0398  0.0309 -0.3154
  716MOL0     H96658   3.773   1.829  10.891 -0.7848 -0.1915  0.1362
  716MOL0     H96659   3.877   1.683  10.867 -1.3606 -2.7738  0.8368
  716MOL0     H96660   3.796   1.770  10.733  0.5377  0.9038 -0.1503
  717MOL0     O96661  10.894   7.126   2.795 -0.5935 -0.1154 -0.6220
  717MOL0     C96662  10.964   7.150   2.887 -0.4721 -0.2169  0.3542
  717MOL0     O96663  10.932   7.224   2.994  0.2756 -0.4992  0.2905
  717MOL0     C96664  10.815   7.305   3.000 -0.5010  0.9765 -0.6086
  717MOL0     C96665  10.702   7.243   3.046  0.8005 -0.0971 -0.5913
  717MOL0     C96666  10.583   7.317   3.069  0.0357  0.5875  0.1289
  717MOL0     C96667  10.580   7.454   3.043  0.8271  1.1035 -0.7387
  717MOL0     O96668  10.460   7.516   3.066  0.2275  0.2083 -0.4546
  717MOL0     C96669  10.443   7.649   3.011 -0.0925  0.3669 -0.2445
  717MOL0     C96670  10.306   7.694   3.062 -0.2306  0.0287  0.5559
  717MOL0     C96671  10.243   7.815   2.990 -0.2011  0.0393  0.1895
  717MOL0     C96672  10.108   7.855   3.049 -0.5347 -0.5874  0.1205
  717MOL0     C96673  10.049   7.979   2.981  0.1799 -0.1697 -0.3478
  717MOL0     C96674  10.012   7.969   2.836 -0.2211  0.7230 -0.3439
  717MOL0     C96675  10.096   8.043   2.740 -0.3175 -0.5287  0.0504
  717MOL0     C96676  10.070   8.200   2.748  0.3954  0.0392  0.7403
  717MOL0     N96677  10.171   8.265   2.662 -0.5306  0.4207 -0.0727
  717MOL0     C96678  10.156   8.348   2.550  0.0530  0.1496 -0.5124
  717MOL0     C96679  10.284   8.383   2.507 -0.6816  0.0402  0.0506
  717MOL0     C96680  10.303   8.488   2.399 -0.2147 -0.6504  0.6484
  717MOL0     C96681  10.451   8.527   2.389  0.3955  0.0935  0.6604
  717MOL0     C96682  10.533   8.424   2.313 -0.8203 -0.5302 -0.1123
  717MOL0     C96683  10.688   8.457   2.315 -0.2948 -0.4135 -0.1308
  717MOL0     O96684  10.770   8.340   2.307 -0.2209  0.4559 -0.4271
  717MOL0     C96685  10.908   8.354   2.304  0.3940 -0.5265 -0.4803
  717MOL0     C96686  10.975   8.472   2.258  0.7692  0.3035 -0.3479
  717MOL0     C96687  11.109   8.475   2.241  0.6793 -0.1087  0.4595
  717MOL0     C96688  11.184   8.358   2.259  0.4664  0.6349  0.0331
  717MOL0     C96689  11.330   8.350   2.239 -0.8745 -0.2949  0.0455
  717MOL0     O96690  11.385   8.475   2.228 -0.8906  0.6401  0.8045
  717MOL0     C96691  11.524   8.493   2.187  1.0702 -0.1117 -0.2480
  717MOL0     C96692  11.582   8.617   2.225  0.1535 -0.5131  0.7276
  717MOL0     C96693  11.716   8.648   2.192 -0.4601 -0.4421  0.0819
  717MOL0     C96694  11.788   8.554   2.115 -0.9405  0.3617 -0.4547
  717MOL0     O96695  11.918   8.577   2.085  0.5729 -0.4899  0.4011
  717MOL0     C96696  12.015   8.484   2.020 -0.2747  0.0545 -0.4146
  717MOL0     C96697  11.977   8.457   1.868 -0.0156 -0.3542 -0.6130
  717MOL0     C96698  12.069   8.525   1.765 -0.7447  0.3733  0.9674
  717MOL0     C96699  12.215   8.468   1.770  0.3913  0.4558  0.0987
  717MOL0     C96700  12.292   8.518   1.643  0.3021  0.1139 -0.3588
  717MOL0     C96701  12.439   8.455   1.656 -0.4912 -0.0615  0.7902
  717MOL0     C96702  12.539   8.531   1.567  0.5314  0.3020 -1.4034
  717MOL0     C96703  12.685   8.512   1.598 -0.3911  0.7342 -0.9133
  717MOL0    Cl96704  12.731   8.348   1.564 -0.1589 -0.2351  1.0008
  717MOL0     C96705  11.725   8.430   2.086 -0.5766  1.1475 -0.6227
  717MOL0     C96706  11.603   8.394   2.122  0.7195  0.8232 -0.1095
  717MOL0     O96707  11.390   8.241   2.240 -0.9635 -1.0928  0.7060
  717MOL0     C96708  11.112   8.238   2.294  0.1565 -0.4002 -0.6316
  717MOL0     C96709  10.974   8.241   2.324 -1.0399  0.8758  0.0962
  717MOL0     N96710  10.368   8.329   2.598  0.6799  0.4793  0.5249
  717MOL0     N96711  10.306   8.260   2.691  1.1483  0.7545 -0.2455
  717MOL0     C96712  10.698   7.523   3.005  0.0889  0.3703 -0.0206
  717MOL0     C96713  10.817   7.444   2.976  1.1972 -0.0698 -0.4361
  717MOL0     C96714  11.090   7.075   2.891  0.1067  0.3559  0.8347
  717MOL0     C96715  11.088   6.942   2.859 -0.5648  0.0175  0.8447
  717MOL0     C96716  11.201   6.851   2.883  0.0769  0.3106 -0.1557
  717MOL0     C96717  11.318   6.911   2.933  0.1953  0.5114 -0.8061
  717MOL0     O96718  11.432   6.834   2.948  0.6798  0.5541  0.0683
  717MOL0     C96719  11.524   6.825   2.835 -0.4918 -0.8976  0.1880
  717MOL0     C96720  11.624   6.941   2.863 -0.6643  0.2415 -0.7232
  717MOL0     C96721  11.723   6.940   2.753 -0.3296 -0.2693  0.1330
  717MOL0     C96722  11.801   7.076   2.745  0.3674 -0.1302  0.1467
  717MOL0     C96723  11.937   7.070   2.809  0.7088 -0.2496 -0.5262
  717MOL0     C96724  12.053   7.063   2.832 -1.4362 -0.2872  0.0158
  717MOL0     C96725  11.321   7.044   2.966  1.3434 -0.7052 -0.0242
  717MOL0     C96726  11.213   7.120   2.938 -0.5608  0.5614  0.3035
  717MOL0     C96727  11.239   7.272   2.942  0.8838 -0.5154  0.7221
  717MOL0     H96728  10.709   7.136   3.061  1.5013  0.1365  1.0041
  717MOL0     H96729  10.484   7.275   3.079  0.1525 -0.5747 -2.7055
  717MOL0     H96730  10.523   7.718   3.041 -0.6075  0.9967 -0.3118
  717MOL0     H96731  10.435   7.647   2.902 -0.3240 -1.4085 -0.2156
  717MOL0     H96732  10.319   7.711   3.170 -0.8657  0.2248  0.6048
  717MOL0     H96733  10.235   7.612   3.048  0.5708 -0.8985  1.7596
  717MOL0     H96734  10.235   7.795   2.883  1.5769  1.4741 -0.2624
  717MOL0     H96735  10.302   7.906   3.004 -0.9042  0.6640 -0.7699
  717MOL0     H96736  10.036   7.773   3.041  0.1686 -1.2953  0.9528
  717MOL0     H96737  10.120   7.865   3.157 -1.6030 -1.2447  0.3212
  717MOL0     H96738   9.959   8.009   3.034  0.5225 -0.4809  0.4200
  717MOL0     H96739  10.131   8.048   3.005  2.1514 -2.1577 -0.9323
  717MOL0     H96740  10.008   7.864   2.806  2.2168  0.1847  0.9334
  717MOL0     H96741   9.911   8.010   2.827 -0.0813  1.2657  0.3867
  717MOL0     H96742  10.082   8.010   2.636 -1.8601  0.3812 -0.0623
  717MOL0     H96743  10.202   8.021   2.757 -0.1277 -2.2581 -2.6868
  717MOL0     H96744   9.968   8.214   2.710 -0.0362 -1.8183  1.1078
  717MOL0     H96745  10.071   8.231   2.853 -1.0250  0.2713  0.7023
  717MOL0     H96746  10.063   8.387   2.509 -1.2228 -1.3913  0.7808
  717MOL0     H96747  10.268   8.443   2.306 -2.4268 -0.2313  1.2150
  717MOL0     H96748  10.243   8.578   2.415  1.3017  0.2197  1.7689
  717MOL0     H96749  10.480   8.623   2.347  1.5417 -1.0941 -1.4204
  717MOL0     H96750  10.498   8.513   2.487  0.2437 -5.9432  0.2723
  717MOL0     H96751  10.492   8.400   2.214 -0.6353 -1.8380  0.1111
  717MOL0     H96752  10.528   8.330   2.368  2.2275 -0.8049 -0.1271
  717MOL0     H96753  10.703   8.495   2.417 -2.8311 -3.0328  1.3374
  717MOL0     H96754  10.727   8.523   2.237  1.7063 -0.5711  0.6687
  717MOL0     H96755  10.932   8.568   2.231 -1.4811 -0.4127  0.4087
  717MOL0     H96756  11.164   8.565   2.213  1.2765 -0.7708 -0.5627
  717MOL0     H96757  11.517   8.687   2.278 -1.2634 -1.3999  0.2248
  717MOL0     H96758  11.755   8.740   2.234 -1.5761  1.4287 -2.7207
  717MOL0     H96759  12.114   8.531   2.020 -0.9563  1.6136  1.1231
  717MOL0     H96760  12.015   8.390   2.076 -1.7775 -0.6178 -1.4962
  717MOL0     H96761  11.971   8.348   1.865 -2.0261 -0.4623  2.8532
  717MOL0     H96762  11.877   8.492   1.841  0.4992  0.8163 -1.1174
  717MOL0     H96763  12.037   8.494   1.665  0.7037 -0.2446  0.6813
  717MOL0     H96764  12.072   8.632   1.788  1.8020  0.6056 -0.1617
  717MOL0     H96765  12.210   8.359   1.764 -1.5951  0.5137 -0.1119
  717MOL0     H96766  12.261   8.495   1.865 -0.4544 -2.2439  1.3520
  717MOL0     H96767  12.302   8.627   1.637 -1.3870  0.3404  0.3515
  717MOL0     H96768  12.249   8.482   1.549  0.3191 -0.2691 -0.2212
  717MOL0     H96769  12.463   8.473   1.761  2.5791 -2.1610  0.6086
  717MOL0     H96770  12.445   8.346   1.649 -3.2542 -0.3342  1.6584
  717MOL0     H96771  12.514   8.636   1.551 -1.2609 -0.4994 -4.6901
  717MOL0     H96772  12.524   8.498   1.464 -0.0385 -0.6588 -1.0295
  717MOL0     H96773  12.731   8.579   1.525 -1.4105  0.4040 -1.8907
  717MOL0     H96774  12.704   8.533   1.704 -1.3443 -0.9569 -0.3605
  717MOL0     H96775  11.764   8.358   2.015 -0.6289  1.9586 -1.4973
  717MOL0     H96776  11.550   8.306   2.087  3.0471  0.6297 -3.7206
  717MOL0     H96777  11.177   8.152   2.309  0.8517  0.1848 -0.2162
  717MOL0     H96778  10.926   8.148   2.354 -0.6724  0.2323 -1.2320
  717MOL0     H96779  10.708   7.627   2.977  1.0733 -0.5742 -3.7323
  717MOL0     H96780  10.909   7.479   2.931  1.6526 -1.6881 -0.8122
  717MOL0     H96781  10.993   6.899   2.831  0.2157 -4.0676  3.5634
  717MOL0     H96782  11.201   6.745   2.860  2.1490  0.2767 -0.1872
  717MOL0     H96783  11.462   6.846   2.747 -4.0678 -0.0989  2.6752
  717MOL0     H96784  11.574   6.728   2.834 -0.4887 -0.9522 -2.6195
  717MOL0     H96785  11.673   6.935   2.960  1.0771 -1.1698 -1.6383
  717MOL0     H96786  11.567   7.035   2.864 -0.5947  0.3085  1.4453
  717MOL0     H96787  11.677   6.917   2.657  1.4872 -1.1163 -0.5602
  717MOL0     H96788  11.799   6.864   2.771  1.6819  1.3704 -0.9718
  717MOL0     H96789  11.803   7.111   2.641 -2.3898 -2.1874 -0.7185
  717MOL0     H96790  11.743   7.155   2.793 -1.7951 -1.1889 -0.5866
  717MOL0     H96791  12.158   7.066   2.853 -1.6416  0.7174  0.9964
  717MOL0     H96792  11.402   7.094   3.017 -0.5639  1.7107  0.8203
  717MOL0     H96793  11.190   7.317   2.856  0.0583  0.4894  1.6784
  717MOL0     H96794  11.207   7.322   3.034  2.9761  2.2684  0.0823
  717MOL0     H96795  11.345   7.290   2.925  0.8114 -0.3286  0.4703
  718MOL0     O96796   8.195   8.209   6.508  0.4918 -1.0565  0.2318
  718MOL0     C96797   8.257   8.294   6.435  0.1647  0.1936  0.1547
  718MOL0     O96798   8.197   8.401   6.373  0.3828  0.0955 -0.6158
  718MOL0     C96799   8.058   8.408   6.364 -0.4694  0.4127 -0.5088
  718MOL0     C96800   7.986   8.322   6.273 -0.2814  0.8680  0.5697
  718MOL0     C96801   7.854   8.335   6.262 -0.2398 -0.1421  0.7441
  718MOL0     C96802   7.782   8.418   6.349  0.2357  1.0753  0.4626
  718MOL0     O96803   7.642   8.400   6.341  0.9602  0.2613 -0.1238
  718MOL0     C96804   7.552   8.491   6.392  0.0104 -0.9800  0.4727
  718MOL0     C96805   7.405   8.471   6.340 -0.4239 -0.0306  1.2106
  718MOL0     C96806   7.322   8.591   6.367  0.6431 -0.4055  0.8462
  718MOL0     C96807   7.181   8.570   6.308 -0.4259 -0.2299 -0.8254
  718MOL0     C96808   7.078   8.673   6.356 -0.5484 -0.2553 -0.2983
  718MOL0     C96809   7.050   8.649   6.500  1.1649 -0.2534 -0.4923
  718MOL0     C96810   6.977   8.765   6.578  0.1659 -0.6076  0.1744
  718MOL0     C96811   6.930   8.752   6.723 -0.6550  1.0430  0.6426
  718MOL0     N96812   6.850   8.638   6.746 -0.0928 -0.4088  0.5890
  718MOL0     C96813   6.883   8.525   6.814  1.2641  0.2621  0.0599
  718MOL0     C96814   6.762   8.476   6.864  1.1021 -1.1367  0.1890
  718MOL0     C96815   6.748   8.338   6.930  0.1855  0.0674 -0.1666
  718MOL0     C96816   6.837   8.311   7.053  0.2173 -0.0872 -0.4289
  718MOL0     C96817   6.984   8.270   7.020  0.8955  0.0940  0.4959
  718MOL0     C96818   7.068   8.224   7.149 -0.2482  0.1497 -0.1862
  718MOL0     O96819   7.104   8.333   7.240  0.0104  1.1463 -0.5306
  718MOL0     C96820   7.234   8.387   7.231 -0.0068  0.3576  0.9413
  718MOL0     C96821   7.311   8.379   7.111 -0.0448 -0.4115 -0.4883
  718MOL0     C96822   7.442   8.420   7.106  0.1748 -0.2803  0.2339
  718MOL0     C96823   7.501   8.488   7.219  0.3251 -0.2133  1.0663
  718MOL0     C96824   7.646   8.516   7.226  0.7283 -0.0805 -0.9005
  718MOL0     O96825   7.715   8.514   7.103 -0.3703 -0.0276 -0.7170
  718MOL0     C96826   7.856   8.525   7.094  0.0040  0.9306 -1.3590
  718MOL0     C96827   7.950   8.507   7.200 -1.0481  0.3110 -0.1797
  718MOL0     C96828   8.090   8.513   7.189 -0.8618  0.2255  1.1132
  718MOL0     C96829   8.138   8.548   7.060 -0.3848  1.0262 -0.4023
  718MOL0     O96830   8.267   8.576   7.035 -0.4357 -0.3122  0.2392
  718MOL0     C96831   8.356   8.468   7.019 -0.4547 -0.4789 -0.2069
  718MOL0     C96832   8.476   8.478   6.931  0.2596 -0.7597  0.5680
  718MOL0     C96833   8.444   8.561   6.802  1.1032  0.0900 -0.9265
  718MOL0     C96834   8.556   8.561   6.701  0.0089 -0.6406 -0.0924
  718MOL0     C96835   8.505   8.642   6.573  1.2733  0.2392 -0.3808
  718MOL0     C96836   8.619   8.647   6.473  0.3640 -0.6634 -0.8028
  718MOL0     C96837   8.580   8.736   6.358 -0.4913 -0.5681  0.3652
  718MOL0     C96838   8.501   8.668   6.246  0.2691 -0.1870 -0.2286
  718MOL0    Cl96839   8.506   8.757   6.106 -0.0059 -0.6920  0.0982
  718MOL0     C96840   8.050   8.556   6.952  0.3417  0.3943  0.8688
  718MOL0     C96841   7.910   8.547   6.966  0.7530  0.2524 -0.4013
  718MOL0     O96842   7.693   8.556   7.329 -0.3065 -0.4145 -0.5072
  718MOL0     C96843   7.415   8.504   7.329  0.3454 -0.0267 -0.4857
  718MOL0     C96844   7.286   8.462   7.341 -0.6679  0.0804 -0.2280
  718MOL0     N96845   6.662   8.565   6.823 -0.0005  0.7280  0.5458
  718MOL0     N96846   6.718   8.664   6.759 -0.3201 -0.2389 -0.3935
  718MOL0     C96847   7.849   8.497   6.445 -0.5330  1.0571 -0.7946
  718MOL0     C96848   7.990   8.487   6.456 -0.9777 -0.4735 -0.0864
  718MOL0     C96849   8.407   8.283   6.419  0.0877  1.0019 -0.3670
  718MOL0     C96850   8.468   8.323   6.302 -0.0231 -1.5173  0.7639
  718MOL0     C96851   8.609   8.323   6.268  1.3184  0.2384 -0.1980
  718MOL0     C96852   8.699   8.263   6.360 -0.1583  0.3237 -0.8290
  718MOL0     O96853   8.839   8.257   6.360  0.2171  0.6344  0.0370
  718MOL0     C96854   8.896   8.340   6.254 -0.0925 -0.6880 -0.1781
  718MOL0     C96855   9.050   8.360   6.254 -0.1249  0.2026  0.5667
  718MOL0     C96856   9.112   8.214   6.251  0.6483 -0.7044  0.1978
  718MOL0     C96857   9.263   8.201   6.254 -1.1027 -0.6293  0.3448
  718MOL0     C96858   9.327   8.293   6.164 -0.3466 -0.2470 -0.3521
  718MOL0     C96859   9.364   8.362   6.076  0.2451  1.1789 -0.3346
  718MOL0     C96860   8.642   8.204   6.477  0.0081 -0.0510  0.6809
  718MOL0     C96861   8.505   8.211   6.503  0.4753 -0.6396  0.4273
  718MOL0     C96862   8.446   8.159   6.633 -0.4163  0.8654 -0.4198
  718MOL0     H96863   8.048   8.258   6.212  0.4070 -0.3643  2.4774
  718MOL0     H96864   7.793   8.273   6.197 -0.5953 -0.8473  1.7348
  718MOL0     H96865   7.546   8.501   6.501  0.7489  3.4540  0.3234
  718MOL0     H96866   7.588   8.589   6.357  0.9986 -1.1291  1.0397
  718MOL0     H96867   7.362   8.384   6.391 -2.1113  1.4453  2.4111
  718MOL0     H96868   7.397   8.444   6.234  0.2845  4.5881 -0.2590
  718MOL0     H96869   7.369   8.668   6.305 -0.5600 -1.2822 -1.2675
  718MOL0     H96870   7.329   8.613   6.474  0.0267 -1.7092  1.1802
  718MOL0     H96871   7.176   8.577   6.199  1.0399  2.1659 -0.8124
  718MOL0     H96872   7.141   8.473   6.339 -1.9158  1.0548  1.5847
  718MOL0     H96873   7.121   8.772   6.337  0.7565 -1.0201 -1.5088
  718MOL0     H96874   6.983   8.675   6.303 -0.3997  0.0028 -0.5563
  718MOL0     H96875   6.981   8.564   6.497 -1.2329  1.5560  0.3038
  718MOL0     H96876   7.136   8.636   6.567  1.0301  2.0188  0.2273
  718MOL0     H96877   6.893   8.785   6.510 -0.1930 -0.2589  0.7174
  718MOL0     H96878   7.047   8.849   6.576  0.4071 -0.8210 -0.6419
  718MOL0     H96879   7.020   8.732   6.783  0.1791 -0.3757 -1.0117
  718MOL0     H96880   6.881   8.842   6.761 -1.1509  0.8064  0.5695
  718MOL0     H96881   6.975   8.468   6.820 -0.0776 -2.0718 -0.0206
  718MOL0     H96882   6.642   8.331   6.958  1.0561  2.2428  4.5632
  718MOL0     H96883   6.763   8.255   6.860  1.4041  1.4274 -1.5739
  718MOL0     H96884   6.832   8.405   7.108 -1.2155  0.5683 -1.5920
  718MOL0     H96885   6.789   8.224   7.099 -0.1423 -0.1449 -0.9008
  718MOL0     H96886   7.030   8.361   6.981  0.4251 -0.5497 -1.7247
  718MOL0     H96887   6.986   8.182   6.955  2.4382  0.4970 -0.0350
  718MOL0     H96888   7.155   8.171   7.108  0.0957 -0.6935  1.5435
  718MOL0     H96889   7.014   8.147   7.205 -0.7845  0.9601  0.4331
  718MOL0     H96890   7.277   8.324   7.023  2.6538 -0.6065 -1.4857
  718MOL0     H96891   7.485   8.379   7.016  0.0422 -0.8898  0.4417
  718MOL0     H96892   7.920   8.483   7.302 -0.0848 -3.7367 -0.6573
  718MOL0     H96893   8.154   8.497   7.275  0.3793  2.7909  0.7544
  718MOL0     H96894   8.398   8.445   7.118  0.0212 -1.7921 -0.6955
  718MOL0     H96895   8.303   8.382   6.978 -1.3026 -0.2522  0.3887
  718MOL0     H96896   8.554   8.529   6.988 -0.3305 -0.2763  0.9588
  718MOL0     H96897   8.515   8.379   6.907  2.7389  0.4906 -1.0035
  718MOL0     H96898   8.353   8.521   6.756 -0.2422 -0.2292  1.8137
  718MOL0     H96899   8.419   8.666   6.818  1.1577  0.2402 -1.8134
  718MOL0     H96900   8.595   8.468   6.660  1.9020  0.9726 -2.2407
  718MOL0     H96901   8.638   8.613   6.751  0.0475 -0.3889 -0.4116
  718MOL0     H96902   8.468   8.740   6.604 -0.2265 -1.1630  2.7156
  718MOL0     H96903   8.428   8.582   6.524  0.9472 -0.9717  1.4740
  718MOL0     H96904   8.708   8.697   6.513 -1.1829  2.5823 -1.0178
  718MOL0     H96905   8.642   8.544   6.447 -0.1584 -1.0288  0.1255
  718MOL0     H96906   8.673   8.786   6.328  0.3640 -1.8173  0.8343
  718MOL0     H96907   8.524   8.823   6.392  0.6896  0.6177 -0.6026
  718MOL0     H96908   8.556   8.575   6.229 -0.3502 -0.6555  0.3081
  718MOL0     H96909   8.398   8.645   6.274  0.4183 -1.1223 -0.4197
  718MOL0     H96910   8.100   8.581   6.859 -0.8065  0.0612  0.1416
  718MOL0     H96911   7.840   8.570   6.886  1.7753  2.8851 -0.6523
  718MOL0     H96912   7.456   8.560   7.412 -0.3673 -0.2772  0.0501
  718MOL0     H96913   7.245   8.464   7.441  2.2205 -0.9829  1.0679
  718MOL0     H96914   7.793   8.572   6.500 -1.1218 -0.0759  0.2013
  718MOL0     H96915   8.046   8.540   6.533 -2.3978 -4.8262  4.3750
  718MOL0     H96916   8.406   8.361   6.222 -2.0909 -2.5123  1.8291
  718MOL0     H96917   8.634   8.362   6.170  2.4368  2.2038  0.8024
  718MOL0     H96918   8.853   8.440   6.265  1.5383  0.0927 -0.6895
  718MOL0     H96919   8.851   8.318   6.157 -2.8834  3.3777 -0.0798
  718MOL0     H96920   9.089   8.418   6.338 -0.3823  0.2109  0.6822
  718MOL0     H96921   9.076   8.415   6.163  2.9898  2.7951  2.7813
  718MOL0     H96922   9.079   8.163   6.161 -0.7549  0.7484 -0.1659
  718MOL0     H96923   9.078   8.152   6.334  0.7659  1.0370  1.6294
  718MOL0     H96924   9.294   8.214   6.358 -2.9868  0.1531  0.8617
  718MOL0     H96925   9.292   8.100   6.225 -1.3193 -0.5031 -0.3261
  718MOL0     H96926   9.406   8.422   5.997 -3.4577  1.6161 -2.1663
  718MOL0     H96927   8.703   8.160   6.556 -0.6495 -1.3444  0.4839
  718MOL0     H96928   8.400   8.060   6.625  4.5678 -2.0374  2.3410
  718MOL0     H96929   8.530   8.141   6.700 -0.4592 -0.7649 -0.7617
  718MOL0     H96930   8.383   8.229   6.689 -0.5742  0.8668 -0.5955
  719MOL0     O96931   8.015   5.539   2.784  0.1735  0.0308 -0.6986
  719MOL0     C96932   7.976   5.543   2.897  1.4791 -0.6316  0.2747
  719MOL0     O96933   8.046   5.500   3.003 -0.4066 -0.7474 -0.3912
  719MOL0     C96934   8.165   5.438   2.981 -0.3644  0.6510 -0.7660
  719MOL0     C96935   8.175   5.298   2.955  0.2351 -0.4475 -0.1523
  719MOL0     C96936   8.290   5.234   2.937 -0.1155  0.2276  0.8465
  719MOL0     C96937   8.411   5.300   2.936 -0.2532  0.2647  0.1767
  719MOL0     O96938   8.515   5.226   2.888 -0.4241  0.0743 -0.0597
  719MOL0     C96939   8.645   5.267   2.929  0.1197  0.3542  0.1485
  719MOL0     C96940   8.672   5.248   3.085  0.0395 -0.1018 -0.2297
  719MOL0     C96941   8.814   5.218   3.124 -0.3128  0.4568  0.7385
  719MOL0     C96942   8.807   5.158   3.260 -0.7048 -0.3781  0.3357
  719MOL0     C96943   8.949   5.120   3.316  0.9644 -0.2973  0.0910
  719MOL0     C96944   8.932   5.024   3.441  0.0166 -0.9670  1.6961
  719MOL0     C96945   8.854   5.094   3.557 -0.5935 -0.1453 -0.5544
  719MOL0     C96946   8.852   5.027   3.694 -0.7114  0.3278 -0.5786
  719MOL0     N96947   8.728   5.048   3.765  0.1490 -0.3893  0.0545
  719MOL0     C96948   8.706   5.144   3.857  0.4821 -0.1738 -0.6590
  719MOL0     C96949   8.580   5.122   3.901 -0.0217 -0.3146  0.5682
  719MOL0     C96950   8.510   5.216   3.993  0.4524 -0.3809 -0.3830
  719MOL0     C96951   8.376   5.259   3.930  0.0607  0.2231  0.3071
  719MOL0     C96952   8.297   5.351   4.014 -0.3188 -0.1322 -0.1070
  719MOL0     C96953   8.159   5.390   3.958  0.2989  0.7660 -0.8888
  719MOL0     O96954   8.165   5.455   3.834 -0.3840  0.0342 -0.1421
  719MOL0     C96955   8.047   5.464   3.762 -0.0738 -0.0160  0.4574
  719MOL0     C96956   7.924   5.497   3.816 -0.0230 -0.1387  0.4881
  719MOL0     C96957   7.815   5.520   3.735 -0.1079  0.1763  0.2624
  719MOL0     C96958   7.829   5.542   3.595 -0.2080 -0.3939 -0.4728
  719MOL0     C96959   7.717   5.596   3.520  0.5413  0.1491 -0.3192
  719MOL0     O96960   7.605   5.623   3.603 -0.5546  0.0325  0.5028
  719MOL0     C96961   7.512   5.716   3.571 -0.3950 -0.6709 -0.1786
  719MOL0     C96962   7.540   5.825   3.493  0.6333  1.3003  0.2775
  719MOL0     C96963   7.438   5.920   3.471 -0.0427 -0.6172 -0.1846
  719MOL0     C96964   7.302   5.891   3.515 -0.7161  1.0224 -0.5836
  719MOL0     O96965   7.197   5.969   3.480  0.0340 -1.0569 -0.2740
  719MOL0     C96966   7.142   6.046   3.585 -0.0987 -0.6472 -0.3588
  719MOL0     C96967   7.040   6.135   3.514  0.1717 -0.3437  0.1542
  719MOL0     C96968   7.102   6.235   3.423 -0.2043  0.2201  0.3163
  719MOL0     C96969   6.996   6.335   3.372 -0.4162 -0.5053 -0.1477
  719MOL0     C96970   7.061   6.438   3.280  0.0233 -0.0656  0.3237
  719MOL0     C96971   6.949   6.525   3.222  0.7527 -0.0992 -0.9185
  719MOL0     C96972   6.965   6.668   3.262 -0.0606  0.1058 -0.3893
  719MOL0     C96973   6.861   6.756   3.199  0.3633  0.2961  0.1912
  719MOL0    Cl96974   6.710   6.732   3.272  0.4840  0.4612  0.2000
  719MOL0     C96975   7.281   5.776   3.598  0.7722  0.9111 -0.0882
  719MOL0     C96976   7.391   5.695   3.629 -0.6151  0.9853  0.1987
  719MOL0     O96977   7.739   5.645   3.403  0.7542  0.1319 -1.2552
  719MOL0     C96978   7.950   5.514   3.539 -0.5211 -0.0927 -0.2527
  719MOL0     C96979   8.057   5.467   3.620 -0.0705  0.1369 -0.2200
  719MOL0     N96980   8.533   5.009   3.838 -0.3765  0.3823  0.1962
  719MOL0     N96981   8.619   4.966   3.759 -0.7103 -0.3865  0.4424
  719MOL0     C96982   8.411   5.439   2.971  0.3435 -0.2222  0.9544
  719MOL0     C96983   8.286   5.505   2.995 -0.4096  0.5875 -0.1356
  719MOL0     C96984   7.841   5.598   2.923  0.6752 -0.0837  0.4115
  719MOL0     C96985   7.798   5.620   3.057 -0.0389  0.2106 -0.5598
  719MOL0     C96986   7.663   5.655   3.094  0.4364  0.1522 -0.1281
  719MOL0     C96987   7.572   5.673   2.989 -1.0751  0.0836  0.0798
  719MOL0     O96988   7.445   5.721   3.007  0.3093 -0.3375 -0.5004
  719MOL0     C96989   7.373   5.696   3.132 -0.3913  0.1850  0.6399
  719MOL0     C96990   7.228   5.727   3.115  0.2632  0.0676 -0.8542
  719MOL0     C96991   7.210   5.877   3.099 -0.3719 -1.0087 -0.0901
  719MOL0     C96992   7.078   5.894   3.026 -0.0736  0.4354 -0.4021
  719MOL0     C96993   7.016   6.031   3.027 -0.8808 -1.2301  0.4175
  719MOL0     C96994   6.971   6.145   3.036  1.1813 -0.0352  0.8027
  719MOL0     C96995   7.610   5.663   2.857 -0.0851 -0.1627  0.8312
  719MOL0     C96996   7.737   5.625   2.822  0.6866 -0.6411  0.3672
  719MOL0     C96997   7.762   5.601   2.676  0.0807  0.6261  0.3137
  719MOL0     H96998   8.086   5.236   2.963 -0.0694 -0.4978 -2.9759
  719MOL0     H96999   8.291   5.127   2.918 -0.7271  0.3928 -0.1760
  719MOL0     H97000   8.717   5.205   2.875 -1.5279 -0.1829 -1.5341
  719MOL0     H97001   8.664   5.372   2.904  1.2086 -0.1812 -1.4390
  719MOL0     H97002   8.602   5.168   3.111 -0.9683  0.7338 -0.2946
  719MOL0     H97003   8.627   5.330   3.142 -1.3233  0.1569 -1.6024
  719MOL0     H97004   8.882   5.303   3.116  0.2771 -0.0088  0.6825
  719MOL0     H97005   8.854   5.145   3.053  0.8811  0.5466  1.2806
  719MOL0     H97006   8.766   5.235   3.325  4.1983  1.5515  1.5599
  719MOL0     H97007   8.743   5.069   3.258 -1.0635 -0.1085 -0.2086
  719MOL0     H97008   9.024   5.081   3.247  3.7585 -1.0997  3.2849
  719MOL0     H97009   8.987   5.219   3.346 -4.0810  2.2609 -0.8483
  719MOL0     H97010   8.878   4.929   3.434 -0.2766 -0.7034 -0.3153
  719MOL0     H97011   9.035   5.006   3.471  0.6609 -0.0229  0.1690
  719MOL0     H97012   8.750   5.113   3.528 -1.3379  1.3138  2.6250
  719MOL0     H97013   8.898   5.193   3.572 -0.8205 -0.3190  1.5045
  719MOL0     H97014   8.851   4.918   3.679  0.1295  0.2235  0.0066
  719MOL0     H97015   8.938   5.054   3.756 -0.2005 -0.8922 -0.7060
  719MOL0     H97016   8.766   5.225   3.897  0.7344 -1.3286  1.4946
  719MOL0     H97017   8.496   5.171   4.092  0.9387 -1.3994 -0.7548
  719MOL0     H97018   8.574   5.303   4.007  2.0215 -1.7948  2.0276
  719MOL0     H97019   8.416   5.311   3.843 -1.3414 -1.0205 -1.1379
  719MOL0     H97020   8.322   5.172   3.892  1.6026 -0.3613 -0.6614
  719MOL0     H97021   8.350   5.447   4.020 -2.9012  1.7324 -3.5930
  719MOL0     H97022   8.283   5.311   4.115 -0.4710 -0.7232 -0.3612
  719MOL0     H97023   8.122   5.459   4.034  2.7026 -0.7662  1.8555
  719MOL0     H97024   8.094   5.301   3.956 -0.3437  1.1742  0.6191
  719MOL0     H97025   7.922   5.498   3.924  0.6843 -1.1834  0.5250
  719MOL0     H97026   7.720   5.523   3.787 -0.5460 -2.2370 -0.2696
  719MOL0     H97027   7.635   5.857   3.452 -0.3195  0.0804 -3.2376
  719MOL0     H97028   7.460   6.005   3.408 -0.1599 -0.0568  0.5154
  719MOL0     H97029   7.084   5.980   3.650 -0.2111 -1.0896 -0.8927
  719MOL0     H97030   7.217   6.099   3.643 -1.0817 -3.1113  3.5846
  719MOL0     H97031   6.970   6.074   3.456 -0.3987 -1.3875  1.8672
  719MOL0     H97032   6.987   6.182   3.598 -1.1190 -1.6455  0.1167
  719MOL0     H97033   7.195   6.277   3.463  0.5157 -0.3641 -0.6839
  719MOL0     H97034   7.126   6.181   3.330  0.3637 -0.8621  1.0711
  719MOL0     H97035   6.950   6.376   3.462 -0.0181  0.0192 -0.1774
  719MOL0     H97036   6.921   6.274   3.319 -0.6985  1.4744 -2.1903
  719MOL0     H97037   7.128   6.399   3.203  3.0641  2.3871  1.5051
  719MOL0     H97038   7.131   6.498   3.339 -1.7620  1.1015  1.3263
  719MOL0     H97039   6.958   6.512   3.114  0.9374  0.0397 -0.9205
  719MOL0     H97040   6.853   6.485   3.256  1.2506 -1.1216 -0.6735
  719MOL0     H97041   7.062   6.695   3.219  1.4666 -1.6858  1.7184
  719MOL0     H97042   6.962   6.687   3.370 -4.0039 -0.7417 -0.2006
  719MOL0     H97043   6.865   6.864   3.218  1.1826  0.4429 -0.6966
  719MOL0     H97044   6.864   6.734   3.092  3.3906  1.5095 -0.0859
  719MOL0     H97045   7.184   5.758   3.643 -1.2788  5.9901 -1.7321
  719MOL0     H97046   7.372   5.602   3.682  2.5221  1.4557  2.3985
  719MOL0     H97047   7.962   5.529   3.432 -1.2934  0.9379 -0.2082
  719MOL0     H97048   8.148   5.442   3.567  0.2444 -1.0212  0.8266
  719MOL0     H97049   8.504   5.493   2.967  0.6549 -0.7911 -2.4840
  719MOL0     H97050   8.287   5.612   3.009  1.3408  0.6649 -0.6545
  719MOL0     H97051   7.873   5.605   3.133  0.6164  2.4257 -0.7007
  719MOL0     H97052   7.625   5.665   3.195 -2.1931  0.0720 -1.0165
  719MOL0     H97053   7.418   5.753   3.213 -1.6658  0.4946  1.1418
  719MOL0     H97054   7.382   5.588   3.150  0.4159  0.0870 -0.2802
  719MOL0     H97055   7.164   5.695   3.198 -0.0345 -1.0827 -1.5068
  719MOL0     H97056   7.201   5.676   3.022  2.4689 -0.9628 -0.9999
  719MOL0     H97057   7.297   5.917   3.046 -1.5492  0.3744 -1.0445
  719MOL0     H97058   7.221   5.933   3.192 -0.4290 -1.8220  0.4152
  719MOL0     H97059   7.102   5.870   2.922 -0.7347  1.6805 -0.8694
  719MOL0     H97060   7.011   5.818   3.068  2.4490 -1.7953 -0.1413
  719MOL0     H97061   6.926   6.242   3.027  2.6958  0.7100  0.8127
  719MOL0     H97062   7.536   5.695   2.785  0.1830  1.3938  1.2236
  719MOL0     H97063   7.678   5.610   2.606  1.6740  0.0851 -1.7693
  719MOL0     H97064   7.839   5.670   2.640 -1.4562  0.6582 -3.3826
  719MOL0     H97065   7.793   5.498   2.659  0.0393  0.4974  0.9977
  720MOL0     O97066   1.587   2.295   5.738 -0.1006 -0.4454 -0.2073
  720MOL0     C97067   1.533   2.364   5.647  0.2669  1.0159 -0.2573
  720MOL0     O97068   1.588   2.381   5.527  0.0901  0.5211  0.4513
  720MOL0     C97069   1.669   2.283   5.465  0.1202  0.7212  0.1612
  720MOL0     C97070   1.648   2.245   5.332 -0.4606  0.7166 -0.1388
  720MOL0     C97071   1.729   2.148   5.281 -0.2469 -0.0860 -0.0399
  720MOL0     C97072   1.857   2.113   5.333  0.0751  0.3367  0.6850
  720MOL0     O97073   1.953   2.063   5.253 -0.3517  0.2068  0.7381
  720MOL0     C97074   2.085   2.043   5.298  0.0760 -0.3833  0.1188
  720MOL0     C97075   2.180   1.970   5.195 -0.3264 -1.2164 -0.0072
  720MOL0     C97076   2.133   1.833   5.139 -0.7793 -0.7632 -0.0001
  720MOL0     C97077   2.242   1.763   5.074  0.2603 -0.1967 -0.6195
  720MOL0     C97078   2.197   1.634   5.012  0.6562 -0.2872 -0.5267
  720MOL0     C97079   2.320   1.555   4.966  0.1406  0.6064  0.7886
  720MOL0     C97080   2.287   1.424   4.901  0.8564 -0.6703  0.1727
  720MOL0     C97081   2.397   1.389   4.804 -0.4165  0.8016 -0.1695
  720MOL0     N97082   2.528   1.373   4.869  0.2856 -0.1531 -0.4016
  720MOL0     C97083   2.584   1.255   4.900  0.1433  0.2772  0.0877
  720MOL0     C97084   2.715   1.279   4.903 -0.0589 -0.3651  1.4026
  720MOL0     C97085   2.825   1.182   4.947 -0.0578 -0.6671  0.8264
  720MOL0     C97086   2.876   1.116   4.812 -0.3849  0.1790  0.5150
  720MOL0     C97087   2.967   0.991   4.841  0.3368 -0.6230  0.8162
  720MOL0     C97088   3.045   0.926   4.731 -0.6409 -0.4422 -0.3810
  720MOL0     O97089   3.009   0.953   4.596  0.0928 -0.2574  0.6970
  720MOL0     C97090   3.042   1.068   4.529  0.0867 -0.0903 -0.6500
  720MOL0     C97091   3.003   1.085   4.394  0.1256  0.3542 -0.0376
  720MOL0     C97092   3.046   1.190   4.323  0.9473 -0.2323  0.4338
  720MOL0     C97093   3.116   1.298   4.388  0.4392  0.9464  0.2236
  720MOL0     C97094   3.144   1.425   4.311 -0.1654  0.4037 -0.1073
  720MOL0     O97095   3.228   1.508   4.379  0.0486  0.1059 -0.3241
  720MOL0     C97096   3.265   1.632   4.330 -0.3582  0.3054 -0.2377
  720MOL0     C97097   3.289   1.720   4.429  0.4936 -0.5194 -0.6978
  720MOL0     C97098   3.334   1.853   4.414 -0.1852 -0.5229  0.4787
  720MOL0     C97099   3.345   1.899   4.284  0.5392 -0.0190 -0.2627
  720MOL0     O97100   3.389   2.032   4.269 -0.6742  0.6257 -0.4794
  720MOL0     C97101   3.514   2.045   4.215 -0.0339  0.6540  0.3655
  720MOL0     C97102   3.544   2.196   4.205 -0.6941 -0.0208  0.1150
  720MOL0     C97103   3.695   2.223   4.179  0.0552  0.0297 -0.1719
  720MOL0     C97104   3.730   2.369   4.174 -0.5113  0.1040 -0.4808
  720MOL0     C97105   3.871   2.379   4.111  0.2508  1.2824  0.7489
  720MOL0     C97106   3.999   2.382   4.201 -0.7548  0.7154  0.5312
  720MOL0     C97107   4.013   2.493   4.305 -0.5347 -0.3341  0.6333
  720MOL0     C97108   4.061   2.619   4.247 -0.9507  0.5256  0.2466
  720MOL0    Cl97109   4.233   2.606   4.168  0.1926 -0.2249 -0.2358
  720MOL0     C97110   3.316   1.816   4.177  0.5109  0.3360 -0.3988
  720MOL0     C97111   3.273   1.682   4.196  0.4537 -0.1533  0.5954
  720MOL0     O97112   3.103   1.442   4.199  0.4436  0.3195  0.2501
  720MOL0     C97113   3.164   1.272   4.522  1.0230 -0.2527 -0.4921
  720MOL0     C97114   3.137   1.157   4.584  1.0107 -0.0077  0.0307
  720MOL0     N97115   2.740   1.408   4.875  0.1576 -0.2392  1.0064
  720MOL0     N97116   2.623   1.467   4.854 -0.8251  0.3012  0.3184
  720MOL0     C97117   1.875   2.155   5.466  0.0512  0.6638  0.1867
  720MOL0     C97118   1.789   2.240   5.531  1.1554 -0.4806 -0.5027
  720MOL0     C97119   1.410   2.447   5.676 -0.5739 -0.6981  0.2611
  720MOL0     C97120   1.374   2.467   5.815  0.0286 -0.9357  1.0457
  720MOL0     C97121   1.263   2.532   5.853  0.0634  0.2232 -0.3286
  720MOL0     C97122   1.171   2.556   5.753  0.8625  0.6353  0.3789
  720MOL0     O97123   1.059   2.616   5.806  0.2003 -0.5922  0.1940
  720MOL0     C97124   0.947   2.657   5.735 -0.3619 -0.3100  0.5569
  720MOL0     C97125   0.870   2.733   5.835 -0.4776  0.3140 -0.4766
  720MOL0     C97126   0.750   2.806   5.794 -0.5702 -0.5852  0.8933
  720MOL0     C97127   0.781   2.897   5.674 -0.0090 -0.0776  0.6192
  720MOL0     C97128   0.668   2.980   5.647 -0.7686 -0.5147  0.0740
  720MOL0     C97129   0.568   3.047   5.635 -0.1459 -0.7670 -0.1973
  720MOL0     C97130   1.197   2.537   5.620  0.1646  0.3816  0.2642
  720MOL0     C97131   1.316   2.477   5.574  0.0586 -0.2433  0.0479
  720MOL0     C97132   1.331   2.448   5.429  0.2172  0.0744 -0.1943
  720MOL0     H97133   1.561   2.278   5.275 -0.6808  1.3882  0.5768
  720MOL0     H97134   1.707   2.117   5.179 -3.9670  3.7339 -0.6693
  720MOL0     H97135   2.124   2.140   5.331  2.4360 -1.2720  0.1382
  720MOL0     H97136   2.085   1.980   5.387  0.5861  0.5995  0.8382
  720MOL0     H97137   2.277   1.956   5.244 -0.6910 -3.4646  0.1944
  720MOL0     H97138   2.196   2.029   5.104 -0.0418  0.1202  0.8837
  720MOL0     H97139   2.062   1.863   5.062 -1.1979 -0.7766  0.3741
  720MOL0     H97140   2.086   1.775   5.219 -1.5467 -4.3829 -2.7646
  720MOL0     H97141   2.282   1.840   5.007 -0.3918  1.2623  0.5901
  720MOL0     H97142   2.328   1.744   5.139 -2.6942 -2.8005  2.9026
  720MOL0     H97143   2.139   1.577   5.086  0.4153  2.0003  1.1634
  720MOL0     H97144   2.121   1.648   4.936 -0.4595 -1.8492  0.2424
  720MOL0     H97145   2.364   1.632   4.902  0.4334  0.6646  1.0575
  720MOL0     H97146   2.382   1.529   5.052 -0.9776 -1.2544  1.0823
  720MOL0     H97147   2.194   1.437   4.844 -0.5560  0.1456  2.5262
  720MOL0     H97148   2.285   1.349   4.980 -1.7350  0.2266  1.0833
  720MOL0     H97149   2.358   1.298   4.758 -0.0005  1.0254 -0.9681
  720MOL0     H97150   2.411   1.455   4.718  1.5410 -0.5855 -0.9890
  720MOL0     H97151   2.538   1.160   4.927  1.2147  0.1453  1.5535
  720MOL0     H97152   2.908   1.242   4.987 -0.0813 -1.8565  2.7558
  720MOL0     H97153   2.799   1.103   5.017 -2.5403 -1.1799 -0.5778
  720MOL0     H97154   2.790   1.072   4.761 -1.9496  0.7836  2.5088
  720MOL0     H97155   2.937   1.189   4.757  0.4278 -0.8997 -0.0581
  720MOL0     H97156   2.908   0.911   4.885  0.4141  0.4017  2.9417
  720MOL0     H97157   3.052   1.020   4.904 -0.8042  2.8434  0.9854
  720MOL0     H97158   3.039   0.817   4.734 -0.4892 -0.4822 -1.3645
  720MOL0     H97159   3.151   0.943   4.753 -1.3596  2.7976  1.2456
  720MOL0     H97160   2.945   1.004   4.351  0.5152  0.4262 -0.7200
  720MOL0     H97161   3.027   1.186   4.217 -1.3678 -1.8263  0.8433
  720MOL0     H97162   3.257   1.680   4.525  1.2833 -2.9714 -1.3956
  720MOL0     H97163   3.348   1.925   4.494 -0.8297 -0.0953  0.2134
  720MOL0     H97164   3.588   1.996   4.279 -2.9574 -0.8950  2.8563
  720MOL0     H97165   3.509   2.004   4.113  1.4117 -0.4132  0.6972
  720MOL0     H97166   3.476   2.250   4.139 -2.0145 -1.1234  0.5328
  720MOL0     H97167   3.529   2.245   4.302 -0.7964 -0.1553  0.1677
  720MOL0     H97168   3.749   2.181   4.265 -1.3567  0.0768  0.7668
  720MOL0     H97169   3.726   2.170   4.089 -1.4222 -2.2641  0.5801
  720MOL0     H97170   3.734   2.402   4.278  0.1766  0.0040 -0.4718
  720MOL0     H97171   3.669   2.437   4.113 -1.2727 -1.0369 -1.0258
  720MOL0     H97172   3.858   2.474   4.058 -2.6288 -0.0431 -1.2137
  720MOL0     H97173   3.890   2.302   4.035  0.0066  0.0420  1.9123
  720MOL0     H97174   4.006   2.283   4.247 -0.7225  0.2539 -0.4352
  720MOL0     H97175   4.088   2.374   4.136 -0.7501 -1.3418  0.7518
  720MOL0     H97176   4.096   2.475   4.374  0.5346  1.1896 -0.1960
  720MOL0     H97177   3.919   2.512   4.357 -0.5270  0.6918  0.2931
  720MOL0     H97178   3.995   2.678   4.184  1.5044  2.2128 -0.9129
  720MOL0     H97179   4.077   2.683   4.334 -0.2915 -0.5632  0.9548
  720MOL0     H97180   3.327   1.869   4.082  0.4884  1.0340 -0.0180
  720MOL0     H97181   3.264   1.614   4.112  0.4270  0.9557 -0.3196
  720MOL0     H97182   3.226   1.350   4.566  1.0323 -0.6818  0.2627
  720MOL0     H97183   3.173   1.144   4.686 -1.1338  1.3344  1.0543
  720MOL0     H97184   1.970   2.145   5.518  2.1307  2.8776 -2.7879
  720MOL0     H97185   1.817   2.267   5.633  1.5128 -2.0499 -0.1551
  720MOL0     H97186   1.440   2.424   5.890 -0.1305 -0.4650  1.4580
  720MOL0     H97187   1.237   2.551   5.957 -1.8042  6.5169 -1.5083
  720MOL0     H97188   0.899   2.562   5.712  2.6674 -1.2539 -2.7904
  720MOL0     H97189   0.964   2.715   5.644 -0.0283 -0.2110  0.6817
  720MOL0     H97190   0.941   2.801   5.884 -1.9758  1.8526 -0.3523
  720MOL0     H97191   0.836   2.678   5.923 -1.6307  0.6657 -0.6913
  720MOL0     H97192   0.712   2.864   5.879  1.9025  1.2242  0.9014
  720MOL0     H97193   0.669   2.739   5.767 -2.2196  0.7531  2.2906
  720MOL0     H97194   0.863   2.968   5.691 -0.5827  0.5117  0.9998
  720MOL0     H97195   0.803   2.826   5.594  0.8766 -0.0410  0.8214
  720MOL0     H97196   0.474   3.097   5.643  0.7031  0.6851  1.2217
  720MOL0     H97197   1.114   2.562   5.555  1.6510 -1.9421 -2.7816
  720MOL0     H97198   1.327   2.338   5.428 -2.8473  0.0919 -2.4253
  720MOL0     H97199   1.240   2.484   5.380 -0.0986 -1.1794 -0.5777
  720MOL0     H97200   1.427   2.469   5.381 -0.0996  1.3971 -0.2690
  721MOL0     O97201   4.827   0.978   0.541  0.3404 -0.5809  0.1317
  721MOL0     C97202   4.911   0.895   0.521  0.8181  0.6628 -0.3227
  721MOL0     O97203   4.884   0.777   0.451  1.0018 -0.1114  0.6463
  721MOL0     C97204   4.754   0.738   0.422  0.0755 -0.4920  0.2235
  721MOL0     C97205   4.706   0.749   0.294  0.3656 -0.0319  0.0987
  721MOL0     C97206   4.577   0.702   0.259 -0.2246  1.1918 -0.7808
  721MOL0     C97207   4.495   0.639   0.364  0.2139 -0.2520 -1.4258
  721MOL0     O97208   4.374   0.591   0.331 -0.0795  0.6591  0.4801
  721MOL0     C97209   4.263   0.589   0.425 -0.8359  0.0175  0.2772
  721MOL0     C97210   4.138   0.639   0.365  0.3015 -0.1619  0.2462
  721MOL0     C97211   4.063   0.539   0.272 -0.2542 -0.2278  0.1497
  721MOL0     C97212   3.974   0.579   0.161  0.2199 -0.3114  0.1866
  721MOL0     C97213   3.854   0.666   0.199  0.1189  0.0734 -0.8706
  721MOL0     C97214   3.774   0.710   0.081 -0.8465  0.1842 -0.0729
  721MOL0     C97215   3.667   0.806   0.118 -0.1400  0.3965 -0.2572
  721MOL0     C97216   3.616   0.917   0.017 -0.6241 -0.1538  0.2019
  721MOL0     N97217   3.709   1.032  -0.001  1.3173  0.3373  0.2052
  721MOL0     C97218   3.816   1.040  -0.083  0.1940  0.1269 -0.2376
  721MOL0     C97219   3.852   1.171  -0.086 -0.0202  0.1986 -0.4925
  721MOL0     C97220   3.967   1.232  -0.170  0.0683 -0.2802  0.2096
  721MOL0     C97221   3.899   1.310  -0.287 -1.0966 -0.3074 -0.6519
  721MOL0     C97222   3.870   1.460  -0.235 -0.5931  0.1309  0.2339
  721MOL0     C97223   3.997   1.545  -0.227 -0.5025  0.2126  0.6081
  721MOL0     O97224   4.036   1.577  -0.360 -0.1427  0.8901  1.3045
  721MOL0     C97225   4.132   1.679  -0.393  0.2428  0.4594  0.4163
  721MOL0     C97226   4.208   1.755  -0.302  0.7803 -0.7649 -0.1232
  721MOL0     C97227   4.314   1.827  -0.345  0.1837  0.0617  0.5486
  721MOL0     C97228   4.358   1.829  -0.480  0.6206 -0.2448 -0.0739
  721MOL0     C97229   4.479   1.895  -0.520  1.3675 -0.0180  0.3558
  721MOL0     O97230   4.548   1.946  -0.415 -0.0710  0.4474 -0.1655
  721MOL0     C97231   4.679   1.982  -0.424  0.4001  0.0068  0.0108
  721MOL0     C97232   4.776   1.925  -0.346 -0.2528  0.4745 -0.9435
  721MOL0     C97233   4.904   1.980  -0.354 -0.0352 -0.6052 -0.4490
  721MOL0     C97234   4.943   2.079  -0.439 -0.7547 -0.9224  0.1143
  721MOL0     O97235   5.074   2.125  -0.444 -0.2505 -0.4730  0.1187
  721MOL0     C97236   5.175   2.041  -0.387 -0.2147 -0.4949 -0.5171
  721MOL0     C97237   5.316   2.108  -0.426 -1.0114 -0.2073 -0.4072
  721MOL0     C97238   5.345   2.086  -0.571  0.5790 -0.1188  0.1042
  721MOL0     C97239   5.478   2.136  -0.619 -0.8080 -0.0948  0.2559
  721MOL0     C97240   5.493   2.134  -0.774  0.2353  0.4527 -0.2083
  721MOL0     C97241   5.491   1.984  -0.824 -0.7712  0.1948 -0.3563
  721MOL0     C97242   5.512   1.966  -0.974  0.2314 -0.1681  0.5479
  721MOL0     C97243   5.479   1.823  -1.029 -0.0170  0.4333 -0.2823
  721MOL0    Cl97244   5.607   1.710  -0.978  0.2165  0.1520  0.9996
  721MOL0     C97245   4.841   2.141  -0.516 -0.0197  0.6711  0.4664
  721MOL0     C97246   4.708   2.097  -0.506 -0.5316  0.0051 -0.6100
  721MOL0     O97247   4.516   1.886  -0.632 -1.2410 -0.5987 -0.5916
  721MOL0     C97248   4.282   1.765  -0.570 -0.0738 -0.5726  0.3353
  721MOL0     C97249   4.176   1.689  -0.529  0.1612 -0.0373  0.2936
  721MOL0     N97250   3.761   1.237  -0.006 -0.0564 -0.2696 -0.0374
  721MOL0     N97251   3.669   1.159   0.030 -0.9399  0.5477  0.2749
  721MOL0     C97252   4.552   0.629   0.492 -0.2598  0.2390  0.1100
  721MOL0     C97253   4.683   0.667   0.519 -0.5795  0.2724 -0.2682
  721MOL0     C97254   5.054   0.928   0.553  0.1084  0.5280 -0.4105
  721MOL0     C97255   5.153   0.884   0.465 -0.5079 -0.3007  0.2127
  721MOL0     C97256   5.292   0.913   0.494  0.4417 -1.3150 -0.8830
  721MOL0     C97257   5.332   0.996   0.607  0.1202 -0.6134 -0.9955
  721MOL0     O97258   5.456   1.046   0.634  0.0141  0.3310 -0.6189
  721MOL0     C97259   5.557   0.987   0.556 -0.8092  0.5215 -0.7216
  721MOL0     C97260   5.690   1.029   0.624 -0.0960  0.5364  0.5368
  721MOL0     C97261   5.803   0.955   0.550 -0.5156 -0.5670  0.3464
  721MOL0     C97262   5.947   1.005   0.572 -0.0995  0.0713 -0.1651
  721MOL0     C97263   5.976   1.132   0.504  0.5113  0.0247 -0.5761
  721MOL0     C97264   5.993   1.235   0.446 -0.1699 -0.7739 -0.1468
  721MOL0     C97265   5.228   1.027   0.692 -0.8135 -0.2358 -0.4321
  721MOL0     C97266   5.093   0.996   0.671 -1.1117 -0.1208 -0.3105
  721MOL0     C97267   5.002   1.034   0.774  0.7222  0.3976 -0.2865
  721MOL0     H97268   4.764   0.807   0.223 -0.3113  0.1012 -0.3581
  721MOL0     H97269   4.526   0.713   0.164  1.2981 -1.1384 -1.9995
  721MOL0     H97270   4.256   0.486   0.460 -0.1871 -0.2124 -0.2635
  721MOL0     H97271   4.294   0.657   0.505  0.4649 -2.1469  1.7235
  721MOL0     H97272   4.166   0.733   0.318 -0.2769 -0.3023 -0.3957
  721MOL0     H97273   4.066   0.660   0.444 -0.3254 -0.0980 -0.3286
  721MOL0     H97274   3.997   0.478   0.335 -2.1144 -0.8724 -2.2650
  721MOL0     H97275   4.137   0.470   0.229 -1.9214 -0.3867 -2.7206
  721MOL0     H97276   4.041   0.638   0.097 -1.2452 -1.5581 -2.7064
  721MOL0     H97277   3.939   0.492   0.105 -2.3330  0.5904  0.2399
  721MOL0     H97278   3.793   0.612   0.272  0.7012  1.7131  0.9105
  721MOL0     H97279   3.889   0.757   0.248 -1.4762  0.1808  0.1534
  721MOL0     H97280   3.846   0.761   0.016  1.3810 -0.3005  1.8699
  721MOL0     H97281   3.727   0.621   0.039  0.5489 -1.6021  1.9052
  721MOL0     H97282   3.691   0.864   0.208 -1.0421 -0.1976  0.3969
  721MOL0     H97283   3.577   0.745   0.132  1.0264 -0.7484  3.2912
  721MOL0     H97284   3.606   0.878  -0.085  2.9451  3.1576 -1.6760
  721MOL0     H97285   3.522   0.952   0.059 -0.3754  0.2653  0.4190
  721MOL0     H97286   3.857   0.958  -0.140  0.1881  0.4662 -0.7419
  721MOL0     H97287   4.040   1.295  -0.119 -0.2084  1.0796 -0.9989
  721MOL0     H97288   4.028   1.146  -0.198  1.9929  1.3238 -0.7424
  721MOL0     H97289   3.961   1.296  -0.376 -2.5950 -3.4531 -1.3477
  721MOL0     H97290   3.804   1.266  -0.320 -2.5935  2.9588 -1.1624
  721MOL0     H97291   3.820   1.460  -0.138  0.5032 -0.4389  0.8102
  721MOL0     H97292   3.806   1.512  -0.307 -1.2423 -0.3658  0.4422
  721MOL0     H97293   4.084   1.493  -0.187 -0.4135  1.2196  1.7446
  721MOL0     H97294   3.983   1.636  -0.168  2.1745  0.8464  0.3791
  721MOL0     H97295   4.177   1.753  -0.198  1.8992  2.7367  0.4250
  721MOL0     H97296   4.364   1.873  -0.260  1.1603 -0.1314  0.1001
  721MOL0     H97297   4.763   1.845  -0.273 -2.5232  3.4508  2.2420
  721MOL0     H97298   4.966   1.929  -0.281 -0.0023  0.8432  0.5848
  721MOL0     H97299   5.151   2.035  -0.281 -0.5037 -1.1982 -0.6147
  721MOL0     H97300   5.181   1.940  -0.429 -0.2580  0.1578 -2.1588
  721MOL0     H97301   5.309   2.215  -0.404  0.5253 -0.2575  0.4924
  721MOL0     H97302   5.393   2.059  -0.366 -2.2753 -1.4782  0.2366
  721MOL0     H97303   5.340   1.977  -0.578 -0.7214 -0.0998  0.4696
  721MOL0     H97304   5.272   2.135  -0.635  2.0791 -1.0504 -2.4461
  721MOL0     H97305   5.564   2.083  -0.578  0.3089  1.6032  0.2404
  721MOL0     H97306   5.502   2.231  -0.571 -1.8645  0.4224 -0.2135
  721MOL0     H97307   5.586   2.181  -0.807  0.2611 -0.7748 -2.0908
  721MOL0     H97308   5.412   2.191  -0.821  2.0064  2.3159 -1.1399
  721MOL0     H97309   5.574   1.938  -0.769 -1.3455 -1.2053 -0.6201
  721MOL0     H97310   5.391   1.946  -0.799 -0.8884  0.8752  0.2325
  721MOL0     H97311   5.616   1.991  -0.996 -0.4185  0.5194 -2.1702
  721MOL0     H97312   5.440   2.031  -1.026 -2.0480 -2.6422  0.3840
  721MOL0     H97313   5.381   1.795  -0.988  0.5565 -0.0695  0.7755
  721MOL0     H97314   5.470   1.806  -1.136 -1.3861 -2.4621  0.1915
  721MOL0     H97315   4.870   2.207  -0.598 -1.5534 -0.2835 -0.9148
  721MOL0     H97316   4.634   2.142  -0.572 -0.3568 -1.6858 -2.0305
  721MOL0     H97317   4.310   1.762  -0.675  0.3581  0.8190  0.3837
  721MOL0     H97318   4.123   1.630  -0.604 -1.6991  1.2787  0.5124
  721MOL0     H97319   4.494   0.564   0.557 -0.8511  0.0936 -0.5608
  721MOL0     H97320   4.728   0.675   0.617 -1.6277  4.0357  0.0400
  721MOL0     H97321   5.129   0.822   0.379  1.2722 -0.1824 -0.3980
  721MOL0     H97322   5.357   0.894   0.410  0.7246  2.1501 -1.6140
  721MOL0     H97323   5.548   1.039   0.460  2.0679 -0.1006 -1.4353
  721MOL0     H97324   5.550   0.879   0.545  4.1956  0.0628 -1.8212
  721MOL0     H97325   5.686   0.991   0.727  0.0186 -2.8010 -0.5622
  721MOL0     H97326   5.705   1.137   0.628  1.7186  0.2898  1.1249
  721MOL0     H97327   5.786   0.957   0.442 -2.8621 -1.8666  0.6287
  721MOL0     H97328   5.799   0.851   0.586  0.4179 -1.2333 -1.3350
  721MOL0     H97329   5.970   1.019   0.678  0.2961  1.3034 -0.3970
  721MOL0     H97330   6.019   0.935   0.530  0.1214  0.2187 -0.0341
  721MOL0     H97331   5.999   1.334   0.405 -1.1925 -0.3786  0.6301
  721MOL0     H97332   5.265   1.082   0.779  2.0762 -0.4616 -1.4218
  721MOL0     H97333   5.064   1.072   0.856 -0.1139  0.1105  0.4975
  721MOL0     H97334   4.928   1.112   0.753 -0.9955 -0.8937  0.7159
  721MOL0     H97335   4.945   0.953   0.820  0.9895 -0.6766 -1.7646
  722MOL0     O97336   3.659   3.368   3.893  0.1746 -0.0969  0.2304
  722MOL0     C97337   3.681   3.399   4.010  0.3643 -0.5591 -0.5763
  722MOL0     O97338   3.592   3.367   4.112  0.2183  0.5868  0.1918
  722MOL0     C97339   3.500   3.270   4.094 -0.9908  0.2094 -0.5807
  722MOL0     C97340   3.506   3.154   4.020  0.1228  0.0841  0.7753
  722MOL0     C97341   3.397   3.066   4.020  0.1382 -0.5740  0.0633
  722MOL0     C97342   3.293   3.084   4.099  0.0662 -0.5044 -0.7694
  722MOL0     O97343   3.197   2.986   4.118  0.7884 -0.7985  0.2527
  722MOL0     C97344   3.164   2.902   4.000 -0.0334 -0.5806 -1.3299
  722MOL0     C97345   3.022   2.850   4.001 -0.9114  0.7252 -0.1195
  722MOL0     C97346   2.976   2.795   4.140  0.2795  0.0033  0.8195
  722MOL0     C97347   2.821   2.784   4.145  0.0898 -0.7059  0.7831
  722MOL0     C97348   2.778   2.702   4.261 -0.3322 -0.1313  0.6891
  722MOL0     C97349   2.628   2.694   4.273 -0.1830 -0.3576 -0.1359
  722MOL0     C97350   2.587   2.597   4.389 -0.1359 -0.1571 -0.0508
  722MOL0     C97351   2.611   2.649   4.525 -0.0804 -0.4670 -0.3930
  722MOL0     N97352   2.514   2.586   4.613  0.5397 -0.5554 -0.4574
  722MOL0     C97353   2.456   2.471   4.592  0.2969  0.3462 -0.1860
  722MOL0     C97354   2.371   2.460   4.698 -0.4269 -0.3497 -0.0915
  722MOL0     C97355   2.285   2.341   4.703 -0.3079  0.2628 -0.5543
  722MOL0     C97356   2.175   2.345   4.814 -0.3870 -0.6869  0.4492
  722MOL0     C97357   2.132   2.207   4.850  0.1625 -0.6347 -0.0421
  722MOL0     C97358   2.019   2.223   4.957 -0.2309  0.3956  0.2127
  722MOL0     O97359   1.947   2.099   4.942 -0.3515 -0.6858 -0.9928
  722MOL0     C97360   1.842   2.083   4.858 -0.5926  0.1468  0.5037
  722MOL0     C97361   1.785   2.187   4.769 -0.1139 -0.2452 -0.0618
  722MOL0     C97362   1.666   2.161   4.699  0.3847 -0.7053  0.2047
  722MOL0     C97363   1.602   2.033   4.719  1.0103  0.6429  0.0658
  722MOL0     C97364   1.475   1.998   4.646 -0.7318 -0.8705 -0.0116
  722MOL0     O97365   1.414   1.877   4.673 -0.6499 -0.2325 -0.2840
  722MOL0     C97366   1.287   1.844   4.628  0.1587 -0.3906 -0.0190
  722MOL0     C97367   1.238   1.710   4.665 -0.2816 -0.6559 -0.1654
  722MOL0     C97368   1.119   1.656   4.613 -0.8820  0.0277  0.2013
  722MOL0     C97369   1.046   1.728   4.522 -0.4610  0.7059  0.4498
  722MOL0     O97370   0.950   1.658   4.445  0.5713  0.6942  0.8249
  722MOL0     C97371   0.946   1.512   4.430  0.2427  0.5364 -0.2209
  722MOL0     C97372   1.047   1.456   4.323  0.4486  0.7171  0.1341
  722MOL0     C97373   0.997   1.320   4.265  0.0541 -0.3897  0.4689
  722MOL0     C97374   0.980   1.217   4.371 -0.1490  0.1000 -0.3425
  722MOL0     C97375   0.957   1.086   4.292  0.3378  0.9953 -0.5979
  722MOL0     C97376   0.929   0.962   4.376  0.4248 -0.4797  0.0521
  722MOL0     C97377   0.928   0.834   4.291  0.8827  0.0704 -0.1088
  722MOL0     C97378   0.812   0.841   4.184  0.4381  0.0226 -0.0299
  722MOL0    Cl97379   0.658   0.877   4.272  0.1612  0.2133  0.2282
  722MOL0     C97380   1.092   1.855   4.503  0.8354  0.3011 -0.2188
  722MOL0     C97381   1.207   1.916   4.540  0.2307 -0.6352 -1.0585
  722MOL0     O97382   1.451   2.069   4.555  0.5671 -0.1813 -1.0650
  722MOL0     C97383   1.670   1.930   4.789  0.5033  0.3210 -0.5215
  722MOL0     C97384   1.787   1.953   4.862 -0.2382  0.5422  0.0181
  722MOL0     N97385   2.373   2.573   4.782  0.1974  0.8591 -0.1341
  722MOL0     N97386   2.461   2.641   4.728 -0.0991 -0.2859  0.3934
  722MOL0     C97387   3.289   3.194   4.185 -0.0046  0.1634 -0.5944
  722MOL0     C97388   3.392   3.291   4.186 -0.6053  0.4433  0.7330
  722MOL0     C97389   3.797   3.482   4.049  0.4744  0.2746  0.0443
  722MOL0     C97390   3.783   3.559   4.164 -0.3995 -0.3761 -0.4388
  722MOL0     C97391   3.885   3.645   4.201 -0.5547  0.0235  0.4066
  722MOL0     C97392   4.014   3.638   4.140  0.1036 -1.4381  0.0790
  722MOL0     O97393   4.102   3.733   4.175  0.5125  0.5466 -0.1120
  722MOL0     C97394   4.221   3.738   4.101  0.5616  0.4422  0.7982
  722MOL0     C97395   4.327   3.626   4.127 -0.9381 -0.0129 -0.7804
  722MOL0     C97396   4.437   3.603   4.023  0.5150 -0.6034  0.2964
  722MOL0     C97397   4.540   3.504   4.075  0.2647 -0.3366 -0.2145
  722MOL0     C97398   4.638   3.457   3.979  0.0248  0.8890 -0.2313
  722MOL0     C97399   4.717   3.392   3.916  0.2997 -0.0842 -0.3347
  722MOL0     C97400   4.028   3.559   4.032 -0.3129  0.6084 -0.2451
  722MOL0     C97401   3.921   3.482   3.976  0.2628 -0.4142 -0.3044
  722MOL0     C97402   3.962   3.403   3.855 -0.6171  0.5326  0.1034
  722MOL0     H97403   3.597   3.124   3.968  0.1650  0.3618  0.6906
  722MOL0     H97404   3.410   2.983   3.951 -2.1544 -0.4631 -0.5812
  722MOL0     H97405   3.174   2.970   3.915 -0.3383  3.1808  1.4222
  722MOL0     H97406   3.224   2.811   3.991 -1.0634 -1.2300 -1.8044
  722MOL0     H97407   3.007   2.772   3.926  1.0741  0.2560 -0.0836
  722MOL0     H97408   2.962   2.934   3.962  2.8423  2.4499 -2.8003
  722MOL0     H97409   3.023   2.845   4.225  1.7338  0.6465 -0.3125
  722MOL0     H97410   3.011   2.692   4.148 -0.7905 -0.2592  2.4443
  722MOL0     H97411   2.776   2.882   4.160  1.3361 -0.0777  0.5938
  722MOL0     H97412   2.790   2.757   4.044  2.7151  1.7396 -0.8477
  722MOL0     H97413   2.824   2.603   4.252 -0.6866 -0.3424  1.1929
  722MOL0     H97414   2.804   2.734   4.362  4.5018  1.7716 -0.8586
  722MOL0     H97415   2.591   2.795   4.289  0.2880 -0.2968  0.5961
  722MOL0     H97416   2.585   2.652   4.181  0.3651 -0.1769 -0.4842
  722MOL0     H97417   2.640   2.503   4.372  1.3995  0.8724 -1.1967
  722MOL0     H97418   2.479   2.593   4.370 -0.1567 -2.1005  0.2612
  722MOL0     H97419   2.710   2.635   4.569  0.3926  0.6813 -1.0551
  722MOL0     H97420   2.598   2.757   4.515  3.7849  0.0412 -1.4325
  722MOL0     H97421   2.469   2.406   4.507 -3.7160 -3.3465  1.6246
  722MOL0     H97422   2.239   2.320   4.606 -2.8220  2.2346  0.1087
  722MOL0     H97423   2.351   2.255   4.718 -4.5418 -3.1087  0.9028
  722MOL0     H97424   2.224   2.384   4.903  1.5726 -1.9132 -0.0221
  722MOL0     H97425   2.089   2.406   4.787 -0.7405 -1.3657  0.0015
  722MOL0     H97426   2.211   2.142   4.888  3.1365  2.0176 -1.2547
  722MOL0     H97427   2.081   2.173   4.759 -0.9836 -1.1213  0.7643
  722MOL0     H97428   1.953   2.310   4.945 -2.6788 -1.5347 -1.5164
  722MOL0     H97429   2.068   2.229   5.054  1.4837 -0.9779 -0.5192
  722MOL0     H97430   1.833   2.282   4.749  0.1308 -0.7395 -1.9545
  722MOL0     H97431   1.626   2.242   4.638 -3.6670 -1.1711  1.8828
  722MOL0     H97432   1.296   1.657   4.739  1.0359  4.0053  2.5461
  722MOL0     H97433   1.100   1.555   4.648 -0.4864 -0.6097 -1.3637
  722MOL0     H97434   0.969   1.463   4.525 -0.4380 -0.9858 -0.8220
  722MOL0     H97435   0.847   1.482   4.394  0.8281 -2.8933  0.6943
  722MOL0     H97436   1.060   1.526   4.240  1.6046  0.4127  0.0372
  722MOL0     H97437   1.137   1.445   4.384  1.0712  1.3527 -0.6432
  722MOL0     H97438   0.906   1.333   4.207  1.0993  4.2911 -0.5789
  722MOL0     H97439   1.072   1.286   4.193  0.0156 -0.8582  0.6460
  722MOL0     H97440   0.895   1.223   4.440 -3.3423 -1.3546 -3.7703
  722MOL0     H97441   1.077   1.206   4.419  0.1944  1.7611 -0.6163
  722MOL0     H97442   1.055   1.079   4.244 -0.5303  1.2577 -2.4941
  722MOL0     H97443   0.873   1.107   4.224 -0.5178  1.5607  0.5925
  722MOL0     H97444   1.010   0.940   4.446  1.1412  0.8210 -0.3192
  722MOL0     H97445   0.844   0.994   4.436  1.8778  4.2748  0.0391
  722MOL0     H97446   0.918   0.749   4.360 -1.6465 -0.2073 -0.6909
  722MOL0     H97447   1.020   0.822   4.235  1.6061  1.6571  0.6771
  722MOL0     H97448   0.825   0.920   4.109  0.9319 -1.3014 -1.4031
  722MOL0     H97449   0.821   0.744   4.134  3.5689 -0.8734  1.9484
  722MOL0     H97450   1.028   1.918   4.441  0.6558 -0.2989 -0.6450
  722MOL0     H97451   1.218   2.020   4.514 -1.6491 -0.4167 -1.1521
  722MOL0     H97452   1.629   1.830   4.789 -3.3099  1.6800 -2.2271
  722MOL0     H97453   1.831   1.874   4.922 -2.6633 -3.0747 -2.5312
  722MOL0     H97454   3.211   3.197   4.261  0.3119 -0.5371 -0.2327
  722MOL0     H97455   3.391   3.375   4.254 -0.9914  0.1513  1.0894
  722MOL0     H97456   3.690   3.573   4.219 -1.2566 -0.3412 -1.8473
  722MOL0     H97457   3.884   3.717   4.282  3.6167  1.0249 -0.2054
  722MOL0     H97458   4.260   3.838   4.119  2.6337  0.2965 -2.0920
  722MOL0     H97459   4.206   3.742   3.992  0.6333  0.3944  0.7867
  722MOL0     H97460   4.265   3.538   4.147 -3.2934  1.5977 -0.5554
  722MOL0     H97461   4.378   3.657   4.219 -1.2148  1.8253 -1.2061
  722MOL0     H97462   4.481   3.700   4.000 -0.8159 -0.6966 -3.3879
  722MOL0     H97463   4.389   3.564   3.932  2.3628 -1.1133 -0.5190
  722MOL0     H97464   4.586   3.567   4.151  0.2401  0.4778 -0.8524
  722MOL0     H97465   4.488   3.423   4.126  1.0014  0.7151  2.3230
  722MOL0     H97466   4.799   3.346   3.866  2.1734  0.1174  2.3482
  722MOL0     H97467   4.123   3.550   3.981 -0.5003 -0.9580 -0.3711
  722MOL0     H97468   3.961   3.295   3.868  0.9573  0.2251 -1.8740
  722MOL0     H97469   3.903   3.418   3.764 -2.1308 -1.4807  0.6745
  722MOL0     H97470   4.067   3.429   3.838 -1.0031  2.2974  0.1649
  723MOL0     O97471   0.813   6.813   7.102 -0.6771  0.4182  0.5150
  723MOL0     C97472   0.738   6.840   7.197 -0.0509  0.8904 -0.0176
  723MOL0     O97473   0.734   6.965   7.254 -0.2770 -0.1498 -0.2345
  723MOL0     C97474   0.832   7.058   7.250  0.4689  0.3400  0.6754
  723MOL0     C97475   0.804   7.190   7.266  0.4231  0.0805  0.4924
  723MOL0     C97476   0.905   7.288   7.288 -0.1156  0.0366  0.1492
  723MOL0     C97477   1.037   7.250   7.292 -0.0432 -0.2210 -0.4311
  723MOL0     O97478   1.137   7.348   7.311 -0.4843 -0.8253  0.3240
  723MOL0     C97479   1.260   7.346   7.233 -0.5157 -0.9602 -0.4369
  723MOL0     C97480   1.320   7.483   7.234 -1.1825 -0.2627 -0.3276
  723MOL0     C97481   1.373   7.529   7.368  0.5550  0.3930  0.6156
  723MOL0     C97482   1.480   7.437   7.420  0.4544  0.1783  0.3319
  723MOL0     C97483   1.516   7.494   7.561  0.4665 -0.1482 -0.6489
  723MOL0     C97484   1.601   7.388   7.650 -0.7390  0.3883 -0.0507
  723MOL0     C97485   1.641   7.437   7.793  0.3498 -0.0766  0.4865
  723MOL0     C97486   1.753   7.542   7.782 -0.9289  0.4070  0.0633
  723MOL0     N97487   1.806   7.565   7.915 -0.0164 -0.1199 -0.1391
  723MOL0     C97488   1.738   7.604   8.028 -0.1026  0.1134 -0.6658
  723MOL0     C97489   1.830   7.617   8.126 -0.1888  0.0995  0.2465
  723MOL0     C97490   1.800   7.642   8.273 -0.8330 -0.4423  0.7507
  723MOL0     C97491   1.913   7.717   8.329  0.3527  0.2551 -0.6987
  723MOL0     C97492   1.864   7.720   8.481  0.2740 -0.3812 -0.3194
  723MOL0     C97493   1.946   7.822   8.566 -0.1516  0.4448 -0.1462
  723MOL0     O97494   1.930   7.966   8.534 -0.0682  0.2331  0.3772
  723MOL0     C97495   1.937   8.064   8.627  0.4520  0.1285 -0.3646
  723MOL0     C97496   2.014   8.049   8.748 -0.0838 -0.8560  0.1889
  723MOL0     C97497   2.031   8.166   8.832  0.3998  0.1264  0.6120
  723MOL0     C97498   1.955   8.284   8.793 -0.6859 -0.5721 -0.7550
  723MOL0     C97499   1.968   8.402   8.876  0.9221  0.5396  0.1290
  723MOL0     O97500   1.940   8.523   8.827  0.0045 -0.7076 -0.1373
  723MOL0     C97501   1.952   8.626   8.913 -0.7092  0.2555 -0.0834
  723MOL0     C97502   1.861   8.643   9.014 -0.1002  0.8257 -0.7066
  723MOL0     C97503   1.858   8.755   9.093 -0.8003  0.3369 -0.5256
  723MOL0     C97504   1.958   8.849   9.082 -0.4833 -0.4243  0.2014
  723MOL0     O97505   1.981   8.955   9.170 -0.7437  0.3570 -0.9438
  723MOL0     C97506   1.871   9.016   9.237  0.1956 -0.4994 -0.5031
  723MOL0     C97507   1.921   9.126   9.337  0.2523  0.5954  0.5070
  723MOL0     C97508   1.807   9.183   9.429 -1.1490 -0.3972  1.1667
  723MOL0     C97509   1.872   9.283   9.526  0.2134 -0.0842 -0.0608
  723MOL0     C97510   1.760   9.334   9.608  0.2693  0.4825  0.3092
  723MOL0     C97511   1.799   9.434   9.722  0.2951 -0.7021 -0.4015
  723MOL0     C97512   1.695   9.445   9.834  0.9184  0.1916 -0.1755
  723MOL0     C97513   1.706   9.574   9.903 -0.0549 -0.6068  1.0399
  723MOL0    Cl97514   1.621   9.575  10.057  0.0416 -0.3283 -0.3323
  723MOL0     C97515   2.063   8.828   8.987  0.0900 -0.2675  0.1067
  723MOL0     C97516   2.053   8.713   8.898  0.0619 -0.4105 -0.1928
  723MOL0     O97517   2.022   8.386   8.982  0.5067 -0.2440  0.0172
  723MOL0     C97518   1.897   8.298   8.670  0.7984  0.5169  0.0692
  723MOL0     C97519   1.887   8.187   8.591 -0.1999 -0.5611  0.0510
  723MOL0     N97520   1.953   7.585   8.070 -0.2755  0.6271 -0.7531
  723MOL0     N97521   1.938   7.563   7.941 -0.6012  0.4733 -0.7507
  723MOL0     C97522   1.064   7.112   7.276  0.1892 -0.5641  0.2297
  723MOL0     C97523   0.966   7.018   7.250  0.6252  0.1228 -0.0785
  723MOL0     C97524   0.640   6.734   7.222 -0.2422  0.0967 -0.7925
  723MOL0     C97525   0.662   6.645   7.330 -0.1605 -0.1705 -1.1305
  723MOL0     C97526   0.579   6.544   7.360 -0.0899 -0.1939  0.6861
  723MOL0     C97527   0.464   6.511   7.284  0.0043 -0.4221  0.3391
  723MOL0     O97528   0.373   6.409   7.304 -0.2967 -0.4801  0.0932
  723MOL0     C97529   0.381   6.320   7.417  0.1387 -0.3340  0.3823
  723MOL0     C97530   0.466   6.191   7.377 -0.0386  0.0030 -0.5588
  723MOL0     C97531   0.449   6.081   7.474  0.1685  0.1673 -0.1193
  723MOL0     C97532   0.556   5.972   7.438  0.0372 -0.0060  0.0425
  723MOL0     C97533   0.570   5.870   7.552 -0.3403 -0.2697 -0.6133
  723MOL0     C97534   0.556   5.791   7.643  0.1329 -0.9862 -0.2549
  723MOL0     C97535   0.447   6.594   7.181 -0.3746 -0.4433  0.3251
  723MOL0     C97536   0.522   6.704   7.141 -0.3070  0.1688  0.8585
  723MOL0     C97537   0.485   6.783   7.022 -0.3379  0.2650  0.0285
  723MOL0     H97538   0.705   7.235   7.263  0.8374  1.0409  0.8046
  723MOL0     H97539   0.885   7.394   7.293 -2.1904 -0.2146 -1.3391
  723MOL0     H97540   1.342   7.279   7.261  0.7737  0.7341  0.0501
  723MOL0     H97541   1.229   7.320   7.131 -0.3800  3.1727 -1.7316
  723MOL0     H97542   1.246   7.557   7.201 -1.0800  0.2214  0.4952
  723MOL0     H97543   1.407   7.474   7.168 -1.1813  0.3911 -0.4295
  723MOL0     H97544   1.283   7.514   7.429 -0.5347 -0.7181 -1.1394
  723MOL0     H97545   1.412   7.631   7.367 -0.8265  0.9427 -0.2263
  723MOL0     H97546   1.443   7.334   7.427  3.0281 -0.7707  1.3132
  723MOL0     H97547   1.570   7.433   7.357  1.3861  0.7019  1.5770
  723MOL0     H97548   1.563   7.592   7.548 -2.6143  1.2500 -2.3738
  723MOL0     H97549   1.423   7.505   7.618  0.3291  2.1859 -1.2394
  723MOL0     H97550   1.550   7.292   7.660  2.6299 -1.5679 -0.2212
  723MOL0     H97551   1.692   7.357   7.598 -0.3508  0.8821  0.3211
  723MOL0     H97552   1.691   7.363   7.855  0.8280  1.4602  2.0056
  723MOL0     H97553   1.560   7.467   7.859  1.7227  2.3488  1.1998
  723MOL0     H97554   1.829   7.508   7.710 -0.1687 -2.4227  2.0309
  723MOL0     H97555   1.708   7.636   7.750 -3.2287  0.2035  2.3753
  723MOL0     H97556   1.631   7.600   8.040 -0.0077 -3.6546  0.3145
  723MOL0     H97557   1.700   7.686   8.269 -1.3303 -1.5271  0.9271
  723MOL0     H97558   1.786   7.543   8.317 -0.6082 -0.8643 -0.1038
  723MOL0     H97559   2.011   7.672   8.307 -0.5833 -0.7756 -3.0722
  723MOL0     H97560   1.917   7.817   8.285  2.1096 -0.3361 -1.9766
  723MOL0     H97561   1.887   7.624   8.527 -0.4664 -0.0242  0.8380
  723MOL0     H97562   1.758   7.743   8.493  0.8498  2.4810  0.2355
  723MOL0     H97563   2.051   7.792   8.568 -0.8236 -2.0805  0.9924
  723MOL0     H97564   1.912   7.816   8.670 -1.1932  1.2546 -0.4195
  723MOL0     H97565   2.066   7.958   8.776  1.7071  0.0600  0.0015
  723MOL0     H97566   2.096   8.150   8.917  2.0550 -2.7738 -1.0667
  723MOL0     H97567   1.789   8.566   9.037  0.5446  0.1603 -0.8599
  723MOL0     H97568   1.793   8.762   9.180  1.0296  1.3353  0.8230
  723MOL0     H97569   1.802   9.052   9.159 -1.1905 -3.2967 -0.6885
  723MOL0     H97570   1.828   8.940   9.302  2.1866 -1.0590  0.2183
  723MOL0     H97571   1.998   9.086   9.403 -1.0108 -0.7248  1.2411
  723MOL0     H97572   1.961   9.201   9.269 -0.5091 -1.4480 -2.3813
  723MOL0     H97573   1.746   9.239   9.358 -1.3687 -0.8889  0.9641
  723MOL0     H97574   1.743   9.106   9.472 -1.4731 -1.3679 -0.9307
  723MOL0     H97575   1.924   9.371   9.488  0.3752 -1.3741 -3.1327
  723MOL0     H97576   1.941   9.234   9.594 -1.7421 -1.1422  1.2664
  723MOL0     H97577   1.714   9.248   9.657 -1.5621  0.8249 -0.7120
  723MOL0     H97578   1.684   9.384   9.548  0.0387 -1.8834 -1.5130
  723MOL0     H97579   1.890   9.399   9.771 -0.9393 -0.1252  2.4821
  723MOL0     H97580   1.828   9.527   9.673  2.8321 -0.7762  0.8169
  723MOL0     H97581   1.726   9.363   9.899  3.1780  0.5660 -0.6908
  723MOL0     H97582   1.593   9.415   9.810 -0.9011  0.1095  6.0194
  723MOL0     H97583   1.808   9.605   9.927 -0.3647  2.0793 -0.6329
  723MOL0     H97584   1.667   9.652   9.837  0.6730 -0.3133  0.9397
  723MOL0     H97585   2.149   8.894   8.982  0.2649 -0.5876 -2.2678
  723MOL0     H97586   2.131   8.695   8.824 -0.4321 -3.5544 -0.0702
  723MOL0     H97587   1.854   8.388   8.627  0.8554 -1.0782 -3.7160
  723MOL0     H97588   1.852   8.197   8.489 -0.0938  2.8088  0.2425
  723MOL0     H97589   1.167   7.079   7.281 -0.4237 -3.8625 -3.6007
  723MOL0     H97590   0.995   6.916   7.227  1.6206  0.4869 -0.4957
  723MOL0     H97591   0.745   6.659   7.398 -2.6875  1.6090  1.8506
  723MOL0     H97592   0.587   6.470   7.439 -1.4086 -1.9598 -0.7428
  723MOL0     H97593   0.283   6.298   7.461 -0.3789 -1.9110 -1.4369
  723MOL0     H97594   0.428   6.378   7.498 -1.7728  2.9220 -0.6761
  723MOL0     H97595   0.574   6.211   7.377 -0.4660  3.6812  3.2660
  723MOL0     H97596   0.431   6.159   7.279 -2.0799 -2.1610  0.7622
  723MOL0     H97597   0.353   6.034   7.452  0.8220 -1.3014  0.0173
  723MOL0     H97598   0.457   6.111   7.579 -0.2049 -1.1010  0.2924
  723MOL0     H97599   0.531   5.922   7.345 -2.2758  4.2627 -1.9416
  723MOL0     H97600   0.652   6.020   7.421 -0.8862  2.0752  0.3396
  723MOL0     H97601   0.556   5.718   7.721  0.3253 -0.7454 -0.0296
  723MOL0     H97602   0.355   6.578   7.127 -0.2366 -0.8547  0.2114
  723MOL0     H97603   0.542   6.876   7.014  1.5577 -0.9144 -0.5792
  723MOL0     H97604   0.526   6.728   6.937  0.0249 -1.2208  1.1350
  723MOL0     H97605   0.377   6.801   7.016 -0.1705  1.8545  1.0998
  724MOL0     O97606   9.412   8.816   7.598  0.4811  0.3503 -0.2507
  724MOL0     C97607   9.478   8.737   7.533  0.0499  0.2321 -0.7356
  724MOL0     O97608   9.450   8.688   7.415  0.0782 -0.2805 -0.2396
  724MOL0     C97609   9.370   8.747   7.321 -0.7373 -0.9899  0.9920
  724MOL0     C97610   9.251   8.819   7.345 -0.8275  1.4195 -0.1498
  724MOL0     C97611   9.186   8.876   7.236 -0.3731  0.0070 -0.0631
  724MOL0     C97612   9.234   8.872   7.110 -0.2997 -0.5348  1.2439
  724MOL0     O97613   9.158   8.935   7.009  0.0809  0.0113  0.5247
  724MOL0     C97614   9.091   9.061   7.024  0.2441  0.0324 -1.2217
  724MOL0     C97615   9.104   9.134   6.895  0.4053  0.2798 -0.1743
  724MOL0     C97616   9.013   9.258   6.909  0.1951  0.0728 -0.4561
  724MOL0     C97617   9.012   9.354   6.794 -0.2440 -0.3864 -1.2499
  724MOL0     C97618   8.993   9.297   6.656 -0.1115 -0.0490  0.6429
  724MOL0     C97619   8.850   9.251   6.633  0.7698 -0.1597  2.0466
  724MOL0     C97620   8.831   9.213   6.473 -0.2127 -0.2042 -0.3843
  724MOL0     C97621   8.868   9.065   6.453  0.1568  0.6222  0.4086
  724MOL0     N97622   8.871   9.027   6.306  0.0538 -0.1443 -0.4277
  724MOL0     C97623   8.970   8.951   6.235  0.4391 -0.3515 -0.9118
  724MOL0     C97624   8.914   8.928   6.110 -0.2613  0.2079 -0.7070
  724MOL0     C97625   8.973   8.865   5.993 -0.0300  0.2428  0.0285
  724MOL0     C97626   9.095   8.938   5.937 -0.0369 -0.1384 -0.8623
  724MOL0     C97627   9.139   8.870   5.806 -0.1128 -0.4031  0.1785
  724MOL0     C97628   9.256   8.955   5.746  0.9585  0.4475 -0.8297
  724MOL0     O97629   9.377   8.901   5.806 -0.2858 -0.4183 -0.0968
  724MOL0     C97630   9.500   8.951   5.791 -0.1146 -1.5590  0.5377
  724MOL0     C97631   9.521   9.064   5.710  0.6720  0.0399 -0.1637
  724MOL0     C97632   9.655   9.122   5.699  1.0429  1.2835  0.7471
  724MOL0     C97633   9.765   9.058   5.762  0.3230 -1.0883  0.4202
  724MOL0     C97634   9.896   9.104   5.735 -0.3422 -0.1228 -0.2084
  724MOL0     O97635   9.923   9.160   5.618  0.0725  0.0875  0.0874
  724MOL0     C97636  10.042   9.227   5.613  0.1294  0.2672  0.5980
  724MOL0     C97637  10.042   9.365   5.625  0.3264  0.7900 -0.2710
  724MOL0     C97638  10.162   9.431   5.609 -0.4520 -0.0266 -0.2058
  724MOL0     C97639  10.289   9.360   5.589 -0.2235  0.0316  1.3768
  724MOL0     O97640  10.407   9.414   5.546 -0.6128 -0.4948  0.7711
  724MOL0     C97641  10.424   9.552   5.557 -0.2648 -0.1774  0.5482
  724MOL0     C97642  10.557   9.610   5.515  0.3889 -0.4041 -0.9654
  724MOL0     C97643  10.553   9.759   5.478 -0.5823 -0.8808  0.3004
  724MOL0     C97644  10.671   9.844   5.534 -0.4641  0.1036  0.0500
  724MOL0     C97645  10.720   9.943   5.425  0.5393 -0.2784 -0.2188
  724MOL0     C97646  10.610  10.039   5.383 -0.7349 -1.2083 -0.2636
  724MOL0     C97647  10.643  10.131   5.267 -0.0709 -0.7899 -0.2105
  724MOL0     C97648  10.766  10.221   5.296 -0.1570 -1.0696  0.2859
  724MOL0    Cl97649  10.809  10.318   5.150 -0.0311  0.2527  0.1945
  724MOL0     C97650  10.278   9.220   5.565 -0.4039 -0.6464  0.7371
  724MOL0     C97651  10.155   9.154   5.581 -0.3149  0.9551 -0.6401
  724MOL0     O97652   9.983   9.085   5.825  0.1140 -0.4449 -0.7343
  724MOL0     C97653   9.743   8.946   5.847  0.3373 -0.6348 -0.4314
  724MOL0     C97654   9.613   8.901   5.866  0.0266  0.8933 -0.1908
  724MOL0     N97655   8.782   8.962   6.111 -0.4679 -0.0613 -0.4679
  724MOL0     N97656   8.762   9.032   6.224 -0.2557  0.1496  0.3479
  724MOL0     C97657   9.346   8.797   7.078 -0.0074  0.0174 -0.3442
  724MOL0     C97658   9.412   8.734   7.184 -0.2957  0.4437 -0.0732
  724MOL0     C97659   9.596   8.668   7.597  0.4857 -1.0521 -0.1290
  724MOL0     C97660   9.680   8.596   7.511 -0.5509 -0.9552 -0.0608
  724MOL0     C97661   9.792   8.532   7.555 -0.4209 -0.3323 -0.1242
  724MOL0     C97662   9.835   8.542   7.692  1.3648 -0.6291 -0.1551
  724MOL0     O97663   9.952   8.485   7.728  0.5863  0.2995 -0.6897
  724MOL0     C97664   9.989   8.476   7.868  0.0126 -0.6909  1.7319
  724MOL0     C97665  10.108   8.383   7.876 -0.1879  0.6405 -0.2500
  724MOL0     C97666  10.059   8.239   7.918 -1.1915 -0.0312  0.6080
  724MOL0     C97667  10.178   8.144   7.901 -0.1977  0.1248  0.5107
  724MOL0     C97668  10.264   8.166   8.017  0.0573  0.2340 -0.0337
  724MOL0     C97669  10.329   8.178   8.110  0.0405  0.9722  0.3877
  724MOL0     C97670   9.745   8.606   7.774 -0.3393 -0.6779  0.7800
  724MOL0     C97671   9.630   8.673   7.732 -0.2471  0.5847 -0.6226
  724MOL0     C97672   9.552   8.738   7.833 -0.1474 -0.8895 -0.2570
  724MOL0     H97673   9.198   8.825   7.440  1.2662 -1.6211  1.3920
  724MOL0     H97674   9.104   8.946   7.245  0.4189  1.2880 -2.0852
  724MOL0     H97675   8.988   9.053   7.059  1.2265  0.8331  2.2834
  724MOL0     H97676   9.156   9.117   7.092  0.8848 -0.5819 -1.3118
  724MOL0     H97677   9.066   9.069   6.815 -0.1549  2.3575 -1.6757
  724MOL0     H97678   9.207   9.166   6.880 -0.4327  2.7665 -1.0636
  724MOL0     H97679   9.026   9.310   7.004 -2.5086 -0.5801  0.3850
  724MOL0     H97680   8.907   9.230   6.916 -0.1315  1.4327  0.5239
  724MOL0     H97681   8.936   9.431   6.807  0.9007  0.4308  1.1836
  724MOL0     H97682   9.107   9.409   6.798  0.7357 -2.0846  0.7037
  724MOL0     H97683   8.997   9.380   6.584  0.0486  1.9004  2.8107
  724MOL0     H97684   9.063   9.217   6.630 -0.3871 -0.5729  1.4762
  724MOL0     H97685   8.842   9.158   6.691  3.5606 -1.8088  0.0688
  724MOL0     H97686   8.771   9.323   6.655 -1.3049 -0.6417 -2.5830
  724MOL0     H97687   8.904   9.274   6.417  0.6330  2.5685  3.3599
  724MOL0     H97688   8.727   9.233   6.445 -0.7533 -1.3673  0.7141
  724MOL0     H97689   8.968   9.045   6.493 -0.7842 -4.0740  1.0558
  724MOL0     H97690   8.804   8.987   6.495 -0.3483  0.4025 -0.7264
  724MOL0     H97691   9.069   8.935   6.277  0.0543  2.9065  1.6168
  724MOL0     H97692   8.977   8.757   6.008 -3.6905  0.3464  3.2241
  724MOL0     H97693   8.899   8.886   5.916  1.5558  0.2740 -1.5625
  724MOL0     H97694   9.048   9.036   5.923 -0.3087 -0.1688 -0.1924
  724MOL0     H97695   9.173   8.927   6.012 -1.5504 -2.3305  0.5074
  724MOL0     H97696   9.056   8.872   5.735  1.0835  1.9112 -1.2657
  724MOL0     H97697   9.171   8.766   5.822  0.4686 -0.1128  0.9736
  724MOL0     H97698   9.256   9.064   5.751  0.0884  0.4057  0.5350
  724MOL0     H97699   9.260   8.925   5.641  2.5867  0.6632 -0.8617
  724MOL0     H97700   9.432   9.093   5.654 -1.7716 -1.9705  2.4265
  724MOL0     H97701   9.663   9.205   5.629 -0.4337 -0.6036 -1.8471
  724MOL0     H97702   9.954   9.424   5.645  0.1917  1.1010 -1.7007
  724MOL0     H97703  10.153   9.538   5.591 -0.0959  0.1605  0.6670
  724MOL0     H97704  10.347   9.610   5.506 -0.1064  0.2567  0.7943
  724MOL0     H97705  10.391   9.571   5.659 -1.4924 -1.8939  0.5166
  724MOL0     H97706  10.624   9.589   5.600 -1.5303  0.2235  0.7816
  724MOL0     H97707  10.592   9.547   5.433 -1.1538 -1.0791 -1.1335
  724MOL0     H97708  10.544   9.774   5.370 -1.0793  2.5059  0.7175
  724MOL0     H97709  10.458   9.804   5.509 -1.0288  0.3877 -2.6221
  724MOL0     H97710  10.753   9.776   5.558  1.2065  1.0432 -2.4661
  724MOL0     H97711  10.642   9.895   5.625  1.8623  0.6705  0.5355
  724MOL0     H97712  10.769   9.888   5.345 -0.1690 -0.2862 -0.6617
  724MOL0     H97713  10.797  10.005   5.471 -0.6040  1.2277 -0.2295
  724MOL0     H97714  10.525   9.984   5.341 -1.4072 -0.1586 -0.2989
  724MOL0     H97715  10.581  10.090   5.475 -0.4753 -4.7215  1.9776
  724MOL0     H97716  10.556  10.190   5.236  0.8243  0.1353 -1.0316
  724MOL0     H97717  10.669  10.071   5.180 -2.8790 -1.0661 -0.9611
  724MOL0     H97718  10.748  10.289   5.379 -0.8877  0.0188 -0.7397
  724MOL0     H97719  10.847  10.155   5.328 -0.5299 -0.8342  1.7801
  724MOL0     H97720  10.367   9.163   5.540  0.1505  0.7312 -0.5439
  724MOL0     H97721  10.151   9.045   5.575  0.8236  0.8514  0.0698
  724MOL0     H97722   9.820   8.891   5.900 -0.8482  0.7178  2.9151
  724MOL0     H97723   9.573   8.812   5.915  2.1191  1.1276  2.1482
  724MOL0     H97724   9.380   8.801   6.975 -0.9399  0.3529 -0.6460
  724MOL0     H97725   9.507   8.686   7.164  0.1831  1.6947 -0.9705
  724MOL0     H97726   9.658   8.577   7.407  2.7234  1.1476 -1.2783
  724MOL0     H97727   9.860   8.483   7.486 -0.1870 -0.3865  0.1438
  724MOL0     H97728   9.904   8.441   7.927 -0.3591 -0.9966  1.0213
  724MOL0     H97729  10.027   8.572   7.904  0.0445  0.8043 -1.9233
  724MOL0     H97730  10.184   8.425   7.944 -0.0017  1.2879 -0.8525
  724MOL0     H97731  10.163   8.382   7.782 -0.5420 -0.2927 -0.4550
  724MOL0     H97732   9.979   8.208   7.850  1.5708 -2.3854 -1.8829
  724MOL0     H97733  10.023   8.240   8.021  1.2559  0.8024  1.5159
  724MOL0     H97734  10.149   8.042   7.873  0.1130  0.0477  0.4752
  724MOL0     H97735  10.230   8.162   7.807  1.5603 -0.6440  1.2829
  724MOL0     H97736  10.389   8.188   8.199 -0.6256 -3.1843  1.5525
  724MOL0     H97737   9.765   8.622   7.879 -0.4414 -0.8432  0.8236
  724MOL0     H97738   9.564   8.846   7.824 -1.6361 -0.4897  1.9104
  724MOL0     H97739   9.447   8.709   7.832  0.2959 -2.6468 -0.1165
  724MOL0     H97740   9.583   8.706   7.933 -1.1053 -1.5257 -0.1551
  725MOL0     O97741   6.730   6.058  11.355 -0.2096 -0.2756 -0.5989
  725MOL0     C97742   6.639   6.095  11.283  0.0995 -0.8283  0.8938
  725MOL0     O97743   6.660   6.145  11.153  0.0438 -0.9017 -0.2025
  725MOL0     C97744   6.782   6.138  11.100  0.1138 -0.2677 -0.4179
  725MOL0     C97745   6.833   6.020  11.059 -0.3737  0.4475 -0.0060
  725MOL0     C97746   6.960   6.012  11.001 -0.1342 -0.3531 -0.1256
  725MOL0     C97747   7.046   6.124  10.998 -0.8998  0.0793  0.6743
  725MOL0     O97748   7.170   6.093  10.942 -0.7375  0.1569  0.2656
  725MOL0     C97749   7.231   6.206  10.869  0.9070  0.4977  0.0359
  725MOL0     C97750   7.365   6.156  10.812 -0.0200 -0.0655 -0.1679
  725MOL0     C97751   7.444   6.259  10.728  0.6283 -0.4560 -0.6292
  725MOL0     C97752   7.373   6.392  10.661  0.5624  0.8603  0.1478
  725MOL0     C97753   7.487   6.491  10.618 -0.2510  0.7143  0.3532
  725MOL0     C97754   7.577   6.452  10.497  0.6163  0.4269  0.4113
  725MOL0     C97755   7.708   6.538  10.484 -0.8153  0.1185 -0.3996
  725MOL0     C97756   7.672   6.659  10.409 -0.3476 -0.0226 -0.1127
  725MOL0     N97757   7.790   6.743  10.374 -0.9641  0.2322 -0.0830
  725MOL0     C97758   7.918   6.707  10.327 -0.4359  0.6446  0.2105
  725MOL0     C97759   7.992   6.826  10.333 -0.5697 -0.1445  0.7025
  725MOL0     C97760   8.135   6.861  10.296  0.0067 -0.7922 -0.0413
  725MOL0     C97761   8.172   6.865  10.137 -0.1503  0.3847 -0.8154
  725MOL0     C97762   8.290   6.960  10.105 -0.4169 -0.1636  0.3128
  725MOL0     C97763   8.413   6.920  10.190 -0.7327  0.0964  0.4745
  725MOL0     O97764   8.455   6.795  10.146  0.1270  0.0729 -0.2195
  725MOL0     C97765   8.586   6.766  10.177 -0.0530  0.5412  0.0340
  725MOL0     C97766   8.648   6.660  10.106 -0.8799  0.0453  0.1048
  725MOL0     C97767   8.777   6.627  10.132 -0.1538  0.1789  0.5311
  725MOL0     C97768   8.858   6.707  10.209  0.4104 -0.2619  0.3743
  725MOL0     C97769   9.005   6.688  10.209  0.7304 -0.0639 -1.0039
  725MOL0     O97770   9.081   6.773  10.275  0.1627  0.1287 -0.4475
  725MOL0     C97771   9.214   6.736  10.290 -0.1430  0.6654  0.2361
  725MOL0     C97772   9.309   6.793  10.210  0.4877 -0.1010 -0.8133
  725MOL0     C97773   9.445   6.767  10.233 -0.8543 -0.5090  0.7107
  725MOL0     C97774   9.483   6.674  10.327  0.0941  0.5935 -0.3402
  725MOL0     O97775   9.613   6.630  10.338  1.0648  0.4158  0.8709
  725MOL0     C97776   9.728   6.687  10.269  0.2487  0.2461  0.7062
  725MOL0     C97777   9.781   6.796  10.356  0.8010 -0.5224 -0.9309
  725MOL0     C97778   9.900   6.876  10.292  1.0569 -0.3087 -0.3621
  725MOL0     C97779   9.930   6.993  10.392  0.5117  0.1511 -0.0954
  725MOL0     C97780  10.078   7.054  10.384  1.0465 -0.2592 -0.4473
  725MOL0     C97781  10.092   7.180  10.298 -1.1369 -0.8762 -0.2557
  725MOL0     C97782  10.087   7.160  10.150 -0.1995 -0.2196  0.0701
  725MOL0     C97783  10.222   7.087  10.103  0.0876  0.1061 -0.6703
  725MOL0    Cl97784  10.274   7.114   9.936 -0.0662 -0.2154 -0.2639
  725MOL0     C97785   9.382   6.624  10.412 -0.0838  0.3789 -0.4240
  725MOL0     C97786   9.256   6.657  10.399  0.7290 -0.8015  0.1154
  725MOL0     O97787   9.047   6.598  10.133 -0.2472 -0.1955  0.2643
  725MOL0     C97788   8.808   6.807  10.286 -0.0530 -0.3321 -0.1881
  725MOL0     C97789   8.666   6.834  10.269  0.2400 -0.3267 -0.3787
  725MOL0     N97790   7.908   6.920  10.382 -0.4388 -0.7045 -0.1871
  725MOL0     N97791   7.800   6.866  10.415  0.3973  0.9781  0.6460
  725MOL0     C97792   7.004   6.247  11.048  0.7268  0.2750 -0.3592
  725MOL0     C97793   6.866   6.253  11.096 -0.5538 -0.8189 -0.8277
  725MOL0     C97794   6.519   6.113  11.370  0.1304 -0.0259  0.3885
  725MOL0     C97795   6.517   6.084  11.505 -0.3962  0.0543 -1.1424
  725MOL0     C97796   6.405   6.101  11.588  0.0407 -0.3229  0.3796
  725MOL0     C97797   6.296   6.163  11.529  0.6660  0.2094 -0.1734
  725MOL0     O97798   6.175   6.181  11.599 -0.4205  0.0078 -0.0998
  725MOL0     C97799   6.158   6.138  11.732 -0.2379 -0.0574  0.0896
  725MOL0     C97800   6.212   6.242  11.821 -0.8252 -1.1135  1.4185
  725MOL0     C97801   6.237   6.198  11.961  0.6625  0.0448 -0.1002
  725MOL0     C97802   6.272   6.312  12.051 -0.2987 -0.2952  0.4807
  725MOL0     C97803   6.302   6.264  12.180 -0.0212  0.2161  0.0623
  725MOL0     C97804   6.322   6.203  12.285  0.7421 -0.0642 -0.5447
  725MOL0     C97805   6.306   6.191  11.396  1.1925  0.8533 -0.2677
  725MOL0     C97806   6.400   6.166  11.309 -0.3348 -0.4914  0.1518
  725MOL0     C97807   6.360   6.188  11.168 -0.3587 -0.6365 -0.0942
  725MOL0     H97808   6.775   5.931  11.079 -0.7518  0.5458 -0.6401
  725MOL0     H97809   6.994   5.917  10.961 -1.2823  0.0637 -2.2383
  725MOL0     H97810   7.160   6.244  10.795  0.7005  4.6560  2.1264
  725MOL0     H97811   7.254   6.281  10.945 -0.5875  0.7250  0.2943
  725MOL0     H97812   7.342   6.069  10.750  0.4680 -0.8050  0.6585
  725MOL0     H97813   7.434   6.119  10.888 -2.5737 -0.0456  2.3215
  725MOL0     H97814   7.486   6.202  10.645 -0.1968 -0.7149 -0.8826
  725MOL0     H97815   7.526   6.293  10.792 -1.6364  2.5584  0.9517
  725MOL0     H97816   7.305   6.362  10.580 -2.7342  2.0456  2.2767
  725MOL0     H97817   7.308   6.443  10.733 -0.7368 -1.0709  0.3996
  725MOL0     H97818   7.434   6.584  10.594  1.0734  1.5372  0.5569
  725MOL0     H97819   7.546   6.514  10.707 -0.6832  3.0086  0.1126
  725MOL0     H97820   7.607   6.349  10.517 -1.8731 -0.0045  2.5822
  725MOL0     H97821   7.516   6.445  10.406  2.2935  0.8448 -0.7894
  725MOL0     H97822   7.788   6.483  10.435  0.6658  2.4321 -0.7277
  725MOL0     H97823   7.747   6.565  10.582  0.9397 -2.0493 -0.4356
  725MOL0     H97824   7.627   6.631  10.313  1.4750 -2.0354 -0.4503
  725MOL0     H97825   7.605   6.722  10.467  1.0314  0.6894  0.7651
  725MOL0     H97826   7.952   6.610  10.292  1.9186  0.7275  2.0144
  725MOL0     H97827   8.155   6.963  10.329  1.9689 -1.1667  0.0340
  725MOL0     H97828   8.190   6.787  10.354  0.8268  0.0077  0.2190
  725MOL0     H97829   8.218   6.772  10.103  2.5976  2.6551 -3.9230
  725MOL0     H97830   8.084   6.880  10.074 -1.0248  2.9343  0.8686
  725MOL0     H97831   8.266   7.062  10.136  0.7138 -0.0466  0.8651
  725MOL0     H97832   8.320   6.977  10.001 -0.4685  1.3023  0.5164
  725MOL0     H97833   8.387   6.920  10.296 -1.2685 -1.9936  0.3850
  725MOL0     H97834   8.496   6.987  10.163 -0.5811 -0.6883 -1.0956
  725MOL0     H97835   8.600   6.615  10.019  3.1484 -2.1736 -1.2346
  725MOL0     H97836   8.817   6.545  10.072 -1.4046  0.4160 -0.6749
  725MOL0     H97837   9.286   6.857  10.125 -3.4531 -1.3606 -0.9106
  725MOL0     H97838   9.518   6.811  10.166  0.0334 -0.1803  1.8558
  725MOL0     H97839   9.809   6.616  10.248 -0.1049 -0.3399  1.2754
  725MOL0     H97840   9.697   6.719  10.170 -0.9521 -1.8901  0.3311
  725MOL0     H97841   9.702   6.866  10.383  2.8065  1.3991  0.3348
  725MOL0     H97842   9.816   6.751  10.449  0.1258 -1.2159 -1.0080
  725MOL0     H97843   9.991   6.817  10.278 -0.2174 -1.9627 -2.1875
  725MOL0     H97844   9.863   6.921  10.199  0.9383 -0.5352 -0.4237
  725MOL0     H97845   9.921   6.967  10.498  4.1617  1.9194  0.7968
  725MOL0     H97846   9.854   7.066  10.365 -0.9416 -0.6122  1.6854
  725MOL0     H97847  10.150   6.976  10.358 -1.7396 -2.7455 -1.2184
  725MOL0     H97848  10.106   7.091  10.484 -1.7675  2.7492 -0.6074
  725MOL0     H97849  10.007   7.241  10.328 -2.1562 -0.8466 -2.8640
  725MOL0     H97850  10.181   7.234  10.330 -1.7664  0.3489 -0.4998
  725MOL0     H97851  10.083   7.258  10.101  2.4440  0.6983  1.5297
  725MOL0     H97852   9.997   7.103  10.125 -0.7981  0.9679 -0.5912
  725MOL0     H97853  10.306   7.110  10.168 -1.2435 -1.2238  1.6692
  725MOL0     H97854  10.211   6.979  10.120  0.2664  0.4182  1.7749
  725MOL0     H97855   9.408   6.556  10.493  0.4765  1.7341  0.5728
  725MOL0     H97856   9.178   6.616  10.463  0.1438 -0.2848 -0.2472
  725MOL0     H97857   8.870   6.863  10.355  0.3133 -1.8067  0.7258
  725MOL0     H97858   8.621   6.913  10.329 -0.7888  0.0825 -1.6494
  725MOL0     H97859   7.065   6.336  11.051 -1.3324  1.9760 -3.3114
  725MOL0     H97860   6.829   6.352  11.123 -0.0319 -0.3469 -1.7772
  725MOL0     H97861   6.596   6.027  11.552 -0.9574 -0.1656 -0.4413
  725MOL0     H97862   6.413   6.070  11.692 -4.0243  1.1728  1.2990
  725MOL0     H97863   6.207   6.041  11.741  2.4047  1.2788  0.9206
  725MOL0     H97864   6.050   6.123  11.747 -0.3236 -3.5314 -2.6384
  725MOL0     H97865   6.139   6.324  11.824 -0.1744 -0.5393  1.9169
  725MOL0     H97866   6.304   6.287  11.784 -1.4115 -0.5401  0.6244
  725MOL0     H97867   6.324   6.132  11.959  2.4564  2.2553  0.7471
  725MOL0     H97868   6.167   6.135  12.017  1.9553 -2.8959 -1.5545
  725MOL0     H97869   6.356   6.364  12.003 -1.4253 -0.3672 -1.7301
  725MOL0     H97870   6.196   6.389  12.063  0.9532  0.7592  1.9697
  725MOL0     H97871   6.332   6.167  12.385  0.3086  0.4143 -0.3265
  725MOL0     H97872   6.207   6.228  11.371 -0.3630 -3.4248 -1.4908
  725MOL0     H97873   6.381   6.094  11.116  0.1624 -0.2263 -0.6342
  725MOL0     H97874   6.254   6.205  11.147 -0.5239 -2.9517 -1.5452
  725MOL0     H97875   6.418   6.268  11.122  1.4297 -0.7969  1.7660
  726MOL0     O97876   3.940   3.482   1.060  0.3998  1.1249 -0.4449
  726MOL0     C97877   3.915   3.386   0.990  0.0305 -0.0795 -0.8446
  726MOL0     O97878   4.004   3.281   0.960 -0.6550 -0.2742  0.5604
  726MOL0     C97879   4.128   3.274   1.009 -0.9196  0.7499 -0.7215
  726MOL0     C97880   4.217   3.380   1.024 -0.3565  1.0310  0.5558
  726MOL0     C97881   4.345   3.353   1.079 -0.1788 -0.3080  0.7595
  726MOL0     C97882   4.387   3.228   1.108 -0.3717 -0.0860 -0.1201
  726MOL0     O97883   4.518   3.216   1.161 -0.9730  0.2972 -0.0766
  726MOL0     C97884   4.590   3.088   1.186  1.0132  0.1609  0.2093
  726MOL0     C97885   4.660   3.041   1.065  0.4054 -0.5214  0.5978
  726MOL0     C97886   4.807   3.095   1.063 -0.1357  0.6488 -0.2261
  726MOL0     C97887   4.893   3.030   0.957 -0.4533  0.5392 -0.4915
  726MOL0     C97888   5.035   3.076   0.968  0.5154  0.8347 -0.2291
  726MOL0     C97889   5.141   3.012   0.870 -0.2159  0.1614 -0.2522
  726MOL0     C97890   5.124   2.859   0.878 -0.1604 -0.0215  0.7033
  726MOL0     C97891   5.238   2.803   0.786 -0.1868  0.3062 -0.5045
  726MOL0     N97892   5.371   2.843   0.833 -0.5645 -0.5621 -0.3651
  726MOL0     C97893   5.447   2.766   0.927  0.0878  0.3200 -0.3482
  726MOL0     C97894   5.562   2.845   0.950 -0.3253 -0.7313 -0.3974
  726MOL0     C97895   5.668   2.828   1.057  0.1565  0.7445 -0.3323
  726MOL0     C97896   5.800   2.770   0.998 -0.7022 -0.0917 -0.2408
  726MOL0     C97897   5.920   2.788   1.095 -0.3089 -0.5427  0.6726
  726MOL0     C97898   6.057   2.797   1.024 -0.3787  0.7739 -0.2771
  726MOL0     O97899   6.081   2.672   0.964 -0.5121  0.8172 -0.8984
  726MOL0     C97900   6.207   2.642   0.921 -0.5948  0.2465 -0.3173
  726MOL0     C97901   6.217   2.533   0.837 -0.1131  0.1395  0.0612
  726MOL0     C97902   6.333   2.494   0.773 -0.2275 -0.5845  0.5644
  726MOL0     C97903   6.456   2.567   0.803  0.3905  1.0166  0.0140
  726MOL0     C97904   6.585   2.536   0.741  0.2658 -0.2275  0.3620
  726MOL0     O97905   6.681   2.612   0.794 -0.1944  0.1530  0.1180
  726MOL0     C97906   6.803   2.612   0.736  0.6007  0.3307 -0.1437
  726MOL0     C97907   6.848   2.703   0.640  0.8392  0.5868  0.3489
  726MOL0     C97908   6.975   2.697   0.594 -1.1490  0.2661  0.8746
  726MOL0     C97909   7.060   2.586   0.629 -0.8713  0.1571 -0.1293
  726MOL0     O97910   7.187   2.559   0.574  0.2126  0.4245 -0.0168
  726MOL0     C97911   7.268   2.672   0.549  0.0871 -0.0697 -0.2494
  726MOL0     C97912   7.405   2.650   0.616 -0.0688  0.3752 -0.1588
  726MOL0     C97913   7.390   2.620   0.758 -0.1036  0.8271 -1.4137
  726MOL0     C97914   7.522   2.630   0.826 -0.3627 -0.3217 -0.7716
  726MOL0     C97915   7.505   2.587   0.966  0.1660  0.9292 -0.2387
  726MOL0     C97916   7.630   2.591   1.053 -0.1469  0.3964  0.4768
  726MOL0     C97917   7.666   2.731   1.107 -0.1188 -0.8664 -0.0398
  726MOL0     C97918   7.801   2.713   1.166 -0.0901  0.3659 -0.6690
  726MOL0    Cl97919   7.916   2.784   1.064  0.0119 -0.6256  0.3270
  726MOL0     C97920   7.018   2.492   0.726  1.0552 -0.3262  0.5909
  726MOL0     C97921   6.894   2.509   0.779 -0.3631  0.4993  0.0629
  726MOL0     O97922   6.603   2.459   0.651  0.4009  0.7524  0.1573
  726MOL0     C97923   6.442   2.684   0.883  0.1394  0.4156 -1.0420
  726MOL0     C97924   6.322   2.707   0.953  0.8347  0.7694  0.2568
  726MOL0     N97925   5.551   2.956   0.862 -0.5004  0.4579 -0.1174
  726MOL0     N97926   5.442   2.952   0.801  0.2067 -0.3091  0.3230
  726MOL0     C97927   4.298   3.120   1.083  0.3349 -0.3065  0.7242
  726MOL0     C97928   4.172   3.147   1.028 -0.2355 -1.2117  0.3323
  726MOL0     C97929   3.792   3.391   0.918 -0.2309 -0.8545 -0.4885
  726MOL0     C97930   3.668   3.414   0.979  1.0662  0.4054 -0.1512
  726MOL0     C97931   3.556   3.445   0.903 -0.4618  0.1780  0.3682
  726MOL0     C97932   3.565   3.459   0.766  0.5774 -0.1023 -0.1640
  726MOL0     O97933   3.444   3.506   0.711  0.2418 -0.0914  0.0106
  726MOL0     C97934   3.417   3.489   0.578  0.6478 -0.2129  0.2795
  726MOL0     C97935   3.271   3.511   0.543  0.0220  0.0157 -0.2432
  726MOL0     C97936   3.182   3.394   0.573  0.7847 -0.3289  0.2911
  726MOL0     C97937   3.037   3.446   0.545 -0.6156  1.0461  0.3053
  726MOL0     C97938   2.935   3.355   0.608 -0.7793  1.0475  0.0494
  726MOL0     C97939   2.860   3.279   0.667 -0.7578  0.7109  0.0024
  726MOL0     C97940   3.679   3.432   0.699  0.7379 -0.0793  0.1662
  726MOL0     C97941   3.797   3.401   0.777  0.1972 -0.3275  0.7437
  726MOL0     C97942   3.928   3.401   0.696  0.4036  0.3993 -0.8090
  726MOL0     H97943   4.181   3.479   0.998  1.3643  1.1723 -1.6427
  726MOL0     H97944   4.399   3.445   1.099  1.1151 -0.0825 -2.9067
  726MOL0     H97945   4.660   3.110   1.267 -1.0786  0.8623  1.9191
  726MOL0     H97946   4.521   3.012   1.224 -0.6152  1.1824 -0.6395
  726MOL0     H97947   4.607   3.059   0.971 -1.7694 -0.5538  1.7375
  726MOL0     H97948   4.670   2.932   1.069  0.1353 -0.5377  0.8554
  726MOL0     H97949   4.849   3.093   1.164  2.2694  1.5899 -1.1160
  726MOL0     H97950   4.803   3.201   1.037  0.3265  0.5924 -0.5527
  726MOL0     H97951   4.887   2.921   0.964  1.1133  0.5502  2.0664
  726MOL0     H97952   4.865   3.073   0.860 -0.6910  1.0474 -0.2058
  726MOL0     H97953   5.038   3.184   0.955 -2.0610  0.8483 -1.2865
  726MOL0     H97954   5.070   3.065   1.071 -0.1107  2.3985  0.1718
  726MOL0     H97955   5.114   3.049   0.771  1.9219  3.2207  0.1542
  726MOL0     H97956   5.239   3.037   0.913  0.5737 -2.3271 -0.4449
  726MOL0     H97957   5.027   2.835   0.833  0.9869 -1.0640 -1.3585
  726MOL0     H97958   5.137   2.827   0.982 -1.3245  0.4741  1.0120
  726MOL0     H97959   5.233   2.694   0.789 -0.0478  0.2814 -1.1268
  726MOL0     H97960   5.216   2.847   0.689  1.0615 -0.1066 -0.9883
  726MOL0     H97961   5.423   2.675   0.982  2.0750  0.4331  0.8232
  726MOL0     H97962   5.684   2.918   1.117 -1.2533  0.6622  0.2188
  726MOL0     H97963   5.630   2.765   1.137 -0.0658 -2.3739 -2.7176
  726MOL0     H97964   5.780   2.667   0.964 -1.6478  0.1750 -0.5343
  726MOL0     H97965   5.823   2.827   0.908 -1.2595 -2.1065 -1.7271
  726MOL0     H97966   5.938   2.705   1.165  4.5881  0.3944  0.8837
  726MOL0     H97967   5.901   2.881   1.148 -1.0978 -1.4025  1.9645
  726MOL0     H97968   6.135   2.809   1.100  1.5300 -3.9700 -1.1868
  726MOL0     H97969   6.057   2.874   0.946 -5.9182 -0.1352 -1.6572
  726MOL0     H97970   6.129   2.473   0.817  1.4722 -1.6408 -2.0774
  726MOL0     H97971   6.321   2.410   0.705 -0.4679  0.3785 -0.6187
  726MOL0     H97972   6.792   2.788   0.603 -1.1487 -1.7946 -2.6137
  726MOL0     H97973   7.013   2.768   0.522  0.7730 -2.0152 -0.5273
  726MOL0     H97974   7.276   2.683   0.440 -0.4154  1.1671 -0.1783
  726MOL0     H97975   7.215   2.766   0.569 -2.6003 -1.9021  1.8365
  726MOL0     H97976   7.466   2.571   0.571  0.4728  0.9479 -0.4461
  726MOL0     H97977   7.463   2.742   0.604  0.0615  0.2108 -0.8127
  726MOL0     H97978   7.322   2.697   0.796  1.4883  0.8405  1.6429
  726MOL0     H97979   7.343   2.523   0.777  2.3913  0.0651  1.4264
  726MOL0     H97980   7.559   2.733   0.827 -1.1961 -0.0050 -1.1830
  726MOL0     H97981   7.601   2.578   0.773  1.7594  1.3250  0.6117
  726MOL0     H97982   7.489   2.481   0.947  0.9071  0.8717 -0.5645
  726MOL0     H97983   7.422   2.632   1.023 -0.5046 -1.5408  0.8616
  726MOL0     H97984   7.637   2.519   1.136  0.7425  0.2525  0.2900
  726MOL0     H97985   7.710   2.561   0.984 -0.8818  4.5670 -2.5035
  726MOL0     H97986   7.604   2.784   1.179  1.3378  0.7716  0.0932
  726MOL0     H97987   7.679   2.806   1.028 -2.1391  1.3193  1.5688
  726MOL0     H97988   7.809   2.771   1.259 -1.6237  1.1328 -0.9818
  726MOL0     H97989   7.838   2.611   1.179 -2.3175 -0.9362 -3.4628
  726MOL0     H97990   7.073   2.406   0.764 -0.6710 -1.2109  1.2300
  726MOL0     H97991   6.859   2.436   0.851 -2.5469 -1.1766 -2.5314
  726MOL0     H97992   6.520   2.754   0.908  0.8453  0.0721 -2.1979
  726MOL0     H97993   6.319   2.784   1.029  1.0172 -1.8936  3.1338
  726MOL0     H97994   4.329   3.020   1.112  1.7800  0.0507  0.4675
  726MOL0     H97995   4.107   3.060   1.025  1.6284 -2.6639 -0.2367
  726MOL0     H97996   3.662   3.396   1.086 -0.1621 -0.7348 -0.3874
  726MOL0     H97997   3.458   3.467   0.945  0.1266  1.9415  0.8587
  726MOL0     H97998   3.439   3.384   0.553  0.5170  0.2616 -2.0336
  726MOL0     H97999   3.485   3.551   0.519  0.3633  2.0798  2.2233
  726MOL0     H98000   3.258   3.514   0.434 -4.1714  1.3154  0.1176
  726MOL0     H98001   3.228   3.602   0.585  1.2864  0.7792 -0.5622
  726MOL0     H98002   3.172   3.379   0.681  0.0010  1.2462  0.4622
  726MOL0     H98003   3.193   3.301   0.517  0.9647  0.4754 -1.0481
  726MOL0     H98004   3.028   3.551   0.574 -0.2141  0.2175  3.9498
  726MOL0     H98005   3.011   3.449   0.438 -1.2082 -1.1121  0.3406
  726MOL0     H98006   2.795   3.201   0.701  0.6124 -0.7149 -0.5278
  726MOL0     H98007   3.689   3.439   0.591 -1.3551 -0.9441 -0.1382
  726MOL0     H98008   3.994   3.325   0.739 -1.4154 -0.5710  0.3991
  726MOL0     H98009   3.902   3.376   0.592 -3.3499 -0.3402  0.1751
  726MOL0     H98010   3.978   3.498   0.693 -0.8020  1.0572  0.0472
  727MOL0     O98011   1.266   5.106   5.413 -0.3761  0.0045  0.0409
  727MOL0     C98012   1.238   4.989   5.427 -1.3329 -0.4201  0.6753
  727MOL0     O98013   1.324   4.894   5.477 -0.6254 -0.1266 -0.3797
  727MOL0     C98014   1.463   4.910   5.495 -0.6334 -0.3600 -0.1139
  727MOL0     C98015   1.518   4.805   5.570  0.3393  0.2434  0.0483
  727MOL0     C98016   1.652   4.783   5.589 -0.1639 -0.7875 -0.2917
  727MOL0     C98017   1.735   4.886   5.531  0.4848 -0.0628 -0.7004
  727MOL0     O98018   1.868   4.891   5.556 -0.7659  0.3764  0.3890
  727MOL0     C98019   1.926   4.799   5.653  0.6823  0.3002 -0.0701
  727MOL0     C98020   2.071   4.831   5.679  0.1789 -1.4498  0.2033
  727MOL0     C98021   2.081   4.963   5.758  0.3662  1.0217 -0.3150
  727MOL0     C98022   2.233   4.996   5.760 -0.9229  0.0666 -0.0854
  727MOL0     C98023   2.258   5.114   5.855  0.1654 -0.5174  0.3337
  727MOL0     C98024   2.384   5.105   5.947  0.2352  0.0524 -0.5289
  727MOL0     C98025   2.430   5.237   5.998 -0.2967 -0.0103  0.0242
  727MOL0     C98026   2.512   5.309   5.896  0.1689 -1.2626  0.2845
  727MOL0     N98027   2.631   5.248   5.836 -0.0635 -0.2821  0.1511
  727MOL0     C98028   2.743   5.208   5.907 -0.2238  0.9092  0.4841
  727MOL0     C98029   2.836   5.184   5.815  0.4150  1.4026 -0.5023
  727MOL0     C98030   2.969   5.134   5.858 -0.9734 -0.4918  0.5239
  727MOL0     C98031   2.958   4.988   5.893  0.2900 -0.7525  0.5073
  727MOL0     C98032   2.960   4.898   5.770 -0.2755 -0.1692  0.4216
  727MOL0     C98033   2.976   4.753   5.812  0.3713  0.5350 -0.0475
  727MOL0     O98034   2.981   4.656   5.701 -0.3041  0.5550  0.1324
  727MOL0     C98035   3.108   4.625   5.645 -0.3424  0.0254  0.1629
  727MOL0     C98036   3.123   4.514   5.567  0.4002  0.3212 -0.4224
  727MOL0     C98037   3.234   4.483   5.488  0.0402 -0.1651  0.1364
  727MOL0     C98038   3.343   4.575   5.493 -0.0802 -0.0913 -0.1502
  727MOL0     C98039   3.470   4.537   5.412  0.0046  0.5179 -0.3197
  727MOL0     O98040   3.470   4.412   5.358  0.1761 -0.5708 -0.3405
  727MOL0     C98041   3.592   4.354   5.325 -0.0558 -0.5758  0.4688
  727MOL0     C98042   3.709   4.362   5.402 -0.5770 -0.1009 -0.9467
  727MOL0     C98043   3.828   4.308   5.350  1.0967 -0.2166 -0.5157
  727MOL0     C98044   3.829   4.232   5.233 -0.6039 -0.0895  0.4630
  727MOL0     O98045   3.954   4.192   5.191  0.3297 -0.1029  0.2460
  727MOL0     C98046   3.970   4.111   5.073 -0.6566  0.7174 -0.0120
  727MOL0     C98047   3.968   4.180   4.934 -0.0607  1.3851  0.3365
  727MOL0     C98048   4.079   4.289   4.915 -0.2003  0.7021 -0.4318
  727MOL0     C98049   4.041   4.340   4.776  0.8499 -0.0028 -0.2677
  727MOL0     C98050   4.118   4.474   4.759  0.4037  0.2218  0.0531
  727MOL0     C98051   4.267   4.466   4.788  0.6427 -0.7706  0.0320
  727MOL0     C98052   4.339   4.580   4.722  0.8409 -0.2359 -0.0827
  727MOL0     C98053   4.488   4.590   4.768 -0.8102  0.5502  1.0014
  727MOL0    Cl98054   4.581   4.447   4.699 -0.3291  0.1382  0.2814
  727MOL0     C98055   3.709   4.213   5.163 -0.0542  0.3040 -0.4673
  727MOL0     C98056   3.598   4.279   5.210  0.4546  0.5823  0.5896
  727MOL0     O98057   3.557   4.620   5.392 -0.4487  0.2059 -0.5013
  727MOL0     C98058   3.332   4.695   5.574  0.0219  0.1434  0.2285
  727MOL0     C98059   3.218   4.713   5.646  0.5863  0.1338  0.2076
  727MOL0     N98060   2.777   5.207   5.687 -0.4790 -0.6614  0.2197
  727MOL0     N98061   2.660   5.250   5.701 -0.0774 -0.0524 -0.2494
  727MOL0     C98062   1.681   5.001   5.474  0.1040  0.9740 -0.1502
  727MOL0     C98063   1.544   5.008   5.460  0.3641 -0.2690  0.2403
  727MOL0     C98064   1.098   4.941   5.410  0.6890 -0.4717 -0.4513
  727MOL0     C98065   1.069   4.810   5.454  0.1090  0.3671  0.9344
  727MOL0     C98066   0.934   4.760   5.469 -0.5650 -0.0191  0.1482
  727MOL0     C98067   0.824   4.837   5.425 -0.4094 -0.2291 -0.4261
  727MOL0     O98068   0.702   4.786   5.445 -0.7196  0.0743  0.0904
  727MOL0     C98069   0.584   4.869   5.442  0.5967  0.2447  0.1960
  727MOL0     C98070   0.459   4.794   5.493  0.5942 -0.4170 -0.9883
  727MOL0     C98071   0.458   4.639   5.475  0.0338 -0.5475  0.0862
  727MOL0     C98072   0.368   4.564   5.579 -0.2677 -0.2508 -0.6564
  727MOL0     C98073   0.349   4.423   5.556 -0.5272 -0.0926  0.8395
  727MOL0     C98074   0.321   4.308   5.550  0.5517 -0.0574 -0.0977
  727MOL0     C98075   0.852   4.965   5.373 -0.0177  0.2267 -0.4886
  727MOL0     C98076   0.986   5.013   5.358  0.2292  0.1692  0.8986
  727MOL0     C98077   1.003   5.149   5.291  0.7524 -0.0152  0.6243
  727MOL0     H98078   1.443   4.727   5.582  0.9911 -0.2459  1.0498
  727MOL0     H98079   1.697   4.690   5.623  1.8484  0.2772  0.1117
  727MOL0     H98080   1.855   4.796   5.735  1.1395  1.0711  0.3705
  727MOL0     H98081   1.930   4.703   5.600  0.6665  1.1634 -1.7188
  727MOL0     H98082   2.121   4.840   5.583 -0.4034 -1.3209 -0.0915
  727MOL0     H98083   2.117   4.756   5.745 -0.1373 -0.2986  1.8140
  727MOL0     H98084   2.041   4.957   5.860 -2.4899 -0.9029 -1.4303
  727MOL0     H98085   2.030   5.048   5.712  0.6266  2.2001  1.4543
  727MOL0     H98086   2.300   4.914   5.790 -0.5042  0.7040  0.7745
  727MOL0     H98087   2.264   5.025   5.659 -3.8548 -1.3022 -1.4897
  727MOL0     H98088   2.264   5.206   5.797  1.2494 -1.9448 -1.9794
  727MOL0     H98089   2.177   5.130   5.926  2.8982 -1.2566  3.9781
  727MOL0     H98090   2.362   5.041   6.033 -0.6165 -2.1776 -2.2967
  727MOL0     H98091   2.468   5.051   5.902  2.2564  2.4898  0.0857
  727MOL0     H98092   2.486   5.229   6.092 -0.4020  3.7164  0.5625
  727MOL0     H98093   2.346   5.302   6.027  1.9155  1.7776  2.9984
  727MOL0     H98094   2.450   5.343   5.812  0.3555  0.2297  0.7272
  727MOL0     H98095   2.546   5.406   5.932 -0.0585 -0.5572 -1.3154
  727MOL0     H98096   2.752   5.205   6.015 -2.8301 -0.1544  0.7456
  727MOL0     H98097   3.037   5.149   5.774 -1.5675 -1.5503 -0.1743
  727MOL0     H98098   3.000   5.195   5.943  2.4290 -0.5392 -0.5430
  727MOL0     H98099   3.045   4.937   5.937  0.3312 -1.3729 -0.2733
  727MOL0     H98100   2.865   4.974   5.949 -1.4785  1.9196 -1.5415
  727MOL0     H98101   3.038   4.932   5.701 -1.2641  1.6020  0.1011
  727MOL0     H98102   2.870   4.898   5.708 -1.1946 -0.1668  1.7142
  727MOL0     H98103   2.884   4.723   5.864  0.1456 -0.7470 -1.1384
  727MOL0     H98104   3.060   4.733   5.878  0.1608  0.0416  0.0740
  727MOL0     H98105   3.049   4.434   5.569 -1.2799  1.5584 -3.8199
  727MOL0     H98106   3.238   4.394   5.425 -0.6217 -1.5158  1.9418
  727MOL0     H98107   3.708   4.409   5.500  2.2607 -0.5732 -0.6276
  727MOL0     H98108   3.915   4.302   5.415  1.6062  1.1437 -1.0412
  727MOL0     H98109   4.064   4.056   5.081 -1.8257 -1.1829  2.5648
  727MOL0     H98110   3.900   4.028   5.087  0.8619 -0.5050  0.6630
  727MOL0     H98111   3.983   4.099   4.863  0.3316 -0.9643  2.9282
  727MOL0     H98112   3.872   4.231   4.923  0.5962  2.5570 -0.1454
  727MOL0     H98113   4.071   4.360   4.997 -1.4081 -0.9073  0.9093
  727MOL0     H98114   4.175   4.235   4.917 -2.0052 -2.7981 -0.4532
  727MOL0     H98115   3.938   4.378   4.773  0.3165 -1.1357  1.7947
  727MOL0     H98116   4.050   4.270   4.693  0.3448  0.1782 -0.4820
  727MOL0     H98117   4.079   4.561   4.812  0.1731  1.3439 -1.8792
  727MOL0     H98118   4.102   4.498   4.654  1.4142  0.7668  0.0063
  727MOL0     H98119   4.285   4.464   4.896 -0.1915 -1.8229  0.1774
  727MOL0     H98120   4.312   4.375   4.748  2.4308 -0.8527  2.0817
  727MOL0     H98121   4.291   4.674   4.751  2.0247 -0.1225  1.6202
  727MOL0     H98122   4.331   4.564   4.614 -1.2966 -1.7668  0.2357
  727MOL0     H98123   4.538   4.686   4.752  0.0327  0.1424  1.1176
  727MOL0     H98124   4.503   4.577   4.876 -0.2155 -1.7366  0.7007
  727MOL0     H98125   3.689   4.148   5.078 -2.2904 -1.4104  1.2798
  727MOL0     H98126   3.500   4.275   5.163  1.5920  3.5622 -2.3665
  727MOL0     H98127   3.412   4.767   5.585  0.9557 -1.1077  2.1632
  727MOL0     H98128   3.222   4.796   5.716 -0.0162 -0.6976  1.2589
  727MOL0     H98129   1.755   5.078   5.454  1.1702 -0.5799 -2.5473
  727MOL0     H98130   1.496   5.092   5.411  0.3641  0.3344  1.2515
  727MOL0     H98131   1.155   4.749   5.479 -0.5371 -0.6194  0.8168
  727MOL0     H98132   0.921   4.655   5.495  2.4128 -0.5685 -0.1576
  727MOL0     H98133   0.547   4.902   5.344 -1.3513 -2.8905 -0.2380
  727MOL0     H98134   0.606   4.955   5.506 -0.3367 -0.2143  1.1489
  727MOL0     H98135   0.371   4.835   5.441 -0.1524  0.2886  0.7487
  727MOL0     H98136   0.444   4.825   5.597 -1.3942 -1.7515 -0.8282
  727MOL0     H98137   0.555   4.588   5.480  0.6455 -0.7560 -6.1750
  727MOL0     H98138   0.423   4.632   5.372 -0.9038 -2.3597  0.4738
  727MOL0     H98139   0.405   4.573   5.682  0.2418 -1.3484 -0.7339
  727MOL0     H98140   0.265   4.598   5.592  0.0620  0.3660  0.6357
  727MOL0     H98141   0.303   4.203   5.561  1.7699 -0.3371 -0.5368
  727MOL0     H98142   0.770   5.029   5.343 -0.1876 -0.5167 -1.6598
  727MOL0     H98143   0.906   5.187   5.258  1.9513  3.3662  0.6807
  727MOL0     H98144   1.037   5.228   5.358  2.2337  0.6209 -0.8230
  727MOL0     H98145   1.058   5.141   5.197 -1.7676 -1.8629 -0.8420
  728MOL0     O98146   2.199   7.829   6.279  1.2286  0.4713  0.7123
  728MOL0     C98147   2.275   7.887   6.200  0.9876  0.8536  0.5200
  728MOL0     O98148   2.394   7.835   6.155  0.1042  0.5411 -0.2768
  728MOL0     C98149   2.414   7.707   6.184  0.2374  1.3745 -0.9268
  728MOL0     C98150   2.507   7.684   6.285  0.3064  0.1448 -0.1870
  728MOL0     C98151   2.553   7.557   6.308 -0.3586  0.0005 -0.4479
  728MOL0     C98152   2.492   7.449   6.246  0.8460 -0.4708  0.4062
  728MOL0     O98153   2.526   7.320   6.266  1.0529  0.2564 -0.0382
  728MOL0     C98154   2.621   7.285   6.369  0.0870 -0.0164  0.5496
  728MOL0     C98155   2.589   7.134   6.384  0.6435  0.0092  0.9061
  728MOL0     C98156   2.697   7.068   6.474  0.3683 -0.4418 -1.6242
  728MOL0     C98157   2.675   6.918   6.495 -0.5164  0.9025  0.6780
  728MOL0     C98158   2.774   6.863   6.608 -0.8127 -0.1495  0.4902
  728MOL0     C98159   2.741   6.719   6.618  0.4069  0.0014 -0.2214
  728MOL0     C98160   2.847   6.648   6.700 -0.0465  0.6097  0.7090
  728MOL0     C98161   2.846   6.698   6.842 -0.4759 -0.4251 -0.0657
  728MOL0     N98162   2.930   6.601   6.924 -0.2592  0.2477 -0.4934
  728MOL0     C98163   3.025   6.640   7.026 -0.1667 -1.4139  0.7487
  728MOL0     C98164   3.054   6.520   7.089 -0.0691 -0.6379  0.4773
  728MOL0     C98165   3.146   6.469   7.203  0.2955  0.0529 -0.7716
  728MOL0     C98166   3.294   6.460   7.186 -0.0418 -0.1318 -0.5454
  728MOL0     C98167   3.347   6.597   7.138  0.5483  0.4262 -0.2831
  728MOL0     C98168   3.497   6.634   7.165  0.1637  0.3143 -0.5698
  728MOL0     O98169   3.507   6.728   7.271  0.3182 -0.2368  0.9596
  728MOL0     C98170   3.619   6.752   7.339 -0.0476 -0.6370 -0.7708
  728MOL0     C98171   3.610   6.831   7.457 -0.4040  1.0317  0.1550
  728MOL0     C98172   3.726   6.851   7.538  0.0949 -0.8583 -0.5925
  728MOL0     C98173   3.852   6.802   7.498 -0.0317 -0.4300 -0.1265
  728MOL0     C98174   3.980   6.816   7.575  0.1987  0.3919 -0.3065
  728MOL0     O98175   3.974   6.878   7.700  0.1163 -0.3225 -0.0333
  728MOL0     C98176   4.084   6.875   7.775 -0.7669 -0.0426  0.6047
  728MOL0     C98177   4.174   6.772   7.799  0.5389 -0.0526  0.5229
  728MOL0     C98178   4.295   6.778   7.874 -0.0713  0.0528  1.0882
  728MOL0     C98179   4.322   6.906   7.925  0.0462  0.6331  1.2268
  728MOL0     O98180   4.446   6.919   7.977  0.4426  0.9043  0.3162
  728MOL0     C98181   4.539   6.980   7.897 -0.0438 -0.8415 -0.0089
  728MOL0     C98182   4.681   6.972   7.951 -0.4665  0.2761 -0.6781
  728MOL0     C98183   4.783   7.000   7.839 -0.0794  0.0455  0.3360
  728MOL0     C98184   4.767   7.133   7.766 -0.1648  0.0042 -0.3732
  728MOL0     C98185   4.896   7.201   7.756  0.0730 -0.8511  0.7074
  728MOL0     C98186   4.894   7.304   7.637 -0.5441 -0.0236  0.2483
  728MOL0     C98187   4.881   7.236   7.503 -0.2284 -0.3618  0.5254
  728MOL0     C98188   4.894   7.344   7.393 -1.3333  0.1468 -0.1454
  728MOL0    Cl98189   5.063   7.385   7.348 -0.1199  0.2479  0.0169
  728MOL0     C98190   4.240   7.011   7.908  0.4201  0.1630 -0.3172
  728MOL0     C98191   4.111   7.004   7.846 -0.3482  0.2960  0.7295
  728MOL0     O98192   4.082   6.768   7.527 -0.6394  0.3048 -0.9928
  728MOL0     C98193   3.852   6.723   7.385 -0.5540  0.3058 -0.1115
  728MOL0     C98194   3.741   6.696   7.306 -0.3634 -0.6174 -0.1553
  728MOL0     N98195   2.979   6.418   7.031  0.3480 -0.0291 -0.0749
  728MOL0     N98196   2.911   6.463   6.921 -0.4329  0.1689 -0.7208
  728MOL0     C98197   2.388   7.473   6.148 -0.0862  0.6155 -0.5333
  728MOL0     C98198   2.354   7.598   6.120 -0.5164 -0.4263 -0.2845
  728MOL0     C98199   2.243   8.020   6.152 -0.4049 -1.2553 -0.1477
  728MOL0     C98200   2.353   8.096   6.113 -0.5249 -0.1689  0.5196
  728MOL0     C98201   2.335   8.229   6.064 -0.5155 -0.4916  0.1270
  728MOL0     C98202   2.208   8.287   6.041 -0.3074 -0.0081 -0.4667
  728MOL0     O98203   2.189   8.413   5.994  0.5926  0.4897  0.3105
  728MOL0     C98204   2.102   8.410   5.872 -0.9213  0.6273 -0.1089
  728MOL0     C98205   2.047   8.556   5.860 -0.3705  1.5779 -0.2575
  728MOL0     C98206   1.895   8.563   5.809  0.0256 -0.0950 -0.1756
  728MOL0     C98207   1.855   8.712   5.789 -0.9020 -0.0587  0.6443
  728MOL0     C98208   1.719   8.748   5.762  0.2855  0.5003  0.0810
  728MOL0     C98209   1.599   8.764   5.760  0.3351  0.1649  0.5041
  728MOL0     C98210   2.100   8.217   6.094  0.5980 -0.8712  0.1863
  728MOL0     C98211   2.116   8.085   6.148 -0.0845 -0.2340 -0.8183
  728MOL0     C98212   1.995   8.010   6.205  0.5292  0.2787 -0.5815
  728MOL0     H98213   2.558   7.767   6.333  0.2962  0.1405 -0.1686
  728MOL0     H98214   2.627   7.553   6.388  0.7348 -2.6177 -1.4836
  728MOL0     H98215   2.721   7.306   6.329 -0.1747 -0.7922 -0.5502
  728MOL0     H98216   2.593   7.332   6.464  2.3073  1.0052  0.7655
  728MOL0     H98217   2.582   7.087   6.285  0.3475  2.3732 -0.2729
  728MOL0     H98218   2.487   7.126   6.424  0.2812  2.4268  0.6573
  728MOL0     H98219   2.690   7.129   6.565 -2.5448  0.3485 -2.2620
  728MOL0     H98220   2.792   7.071   6.421  0.5878 -0.7144 -1.2545
  728MOL0     H98221   2.570   6.897   6.520  0.3939 -1.8894  2.6753
  728MOL0     H98222   2.693   6.866   6.401 -3.8709  0.3320  0.2296
  728MOL0     H98223   2.873   6.874   6.562  0.0004 -1.7061  1.7906
  728MOL0     H98224   2.766   6.920   6.701  0.4376  0.4976  0.2270
  728MOL0     H98225   2.639   6.711   6.659 -0.4450  2.6333 -1.5999
  728MOL0     H98226   2.742   6.676   6.517  1.2958  0.9244 -0.6246
  728MOL0     H98227   2.947   6.666   6.660  0.0498 -1.7954 -0.3065
  728MOL0     H98228   2.827   6.541   6.688  0.5170  0.3091  2.2562
  728MOL0     H98229   2.882   6.799   6.862  0.4454 -0.6762 -0.4266
  728MOL0     H98230   2.742   6.696   6.875 -0.6347  2.7970 -0.1160
  728MOL0     H98231   3.055   6.740   7.054  0.6867 -0.6626 -2.4366
  728MOL0     H98232   3.134   6.542   7.284  3.0266 -0.7792  0.4955
  728MOL0     H98233   3.113   6.374   7.246 -2.5211  1.3145  0.1161
  728MOL0     H98234   3.345   6.430   7.278  0.9568  1.8248 -0.3997
  728MOL0     H98235   3.321   6.393   7.104  1.5498  0.9931 -0.9938
  728MOL0     H98236   3.290   6.674   7.190  0.5751  0.5734 -0.4708
  728MOL0     H98237   3.340   6.601   7.029  0.8564  0.0225 -0.3226
  728MOL0     H98238   3.526   6.685   7.073  1.5334  0.8637  0.1334
  728MOL0     H98239   3.552   6.542   7.183  1.9808  1.8468  2.6452
  728MOL0     H98240   3.505   6.853   7.475 -1.2391 -1.3605 -1.2617
  728MOL0     H98241   3.716   6.893   7.638 -1.2832 -0.0346 -1.0475
  728MOL0     H98242   4.161   6.678   7.746 -2.4881  1.3870 -1.6270
  728MOL0     H98243   4.360   6.693   7.891  2.6039  1.4429 -1.2403
  728MOL0     H98244   4.550   6.925   7.803  4.3761  1.6837 -1.2473
  728MOL0     H98245   4.506   7.079   7.865 -2.6360 -1.4928  0.4075
  728MOL0     H98246   4.689   7.047   8.030  0.2823 -2.7700  2.3835
  728MOL0     H98247   4.688   6.872   7.994  2.0079  0.8857  0.4929
  728MOL0     H98248   4.887   6.998   7.874  0.6572 -0.2825 -1.7273
  728MOL0     H98249   4.791   6.927   7.758  2.9021 -1.6479  1.9504
  728MOL0     H98250   4.695   7.200   7.813  1.0612  0.2082  1.2882
  728MOL0     H98251   4.714   7.118   7.671  0.3497  4.3116 -1.5426
  728MOL0     H98252   4.976   7.131   7.734  2.8333  1.9779  0.9660
  728MOL0     H98253   4.918   7.250   7.851  3.7327  0.4578 -0.6213
  728MOL0     H98254   4.804   7.365   7.647 -0.3590  0.1133  1.1787
  728MOL0     H98255   4.988   7.359   7.646 -0.7543  0.3551  0.1338
  728MOL0     H98256   4.778   7.200   7.490 -0.1356 -1.4328  2.3660
  728MOL0     H98257   4.954   7.159   7.477 -0.2655 -0.0070 -0.6948
  728MOL0     H98258   4.848   7.298   7.305  0.2668 -1.6086 -0.1104
  728MOL0     H98259   4.833   7.432   7.417 -1.7122  0.0044 -0.5885
  728MOL0     H98260   4.279   7.099   7.959 -0.3169  0.3034  0.0082
  728MOL0     H98261   4.054   7.094   7.826  3.5382  2.8979  0.2337
  728MOL0     H98262   3.945   6.684   7.346 -2.1423  1.2076 -5.6480
  728MOL0     H98263   3.742   6.630   7.220 -3.6440 -0.0427 -0.7499
  728MOL0     H98264   2.339   7.383   6.112 -3.0038  1.1134  1.7774
  728MOL0     H98265   2.287   7.615   6.036 -2.4281 -1.3824  0.9533
  728MOL0     H98266   2.457   8.066   6.127  0.2008  2.4024  1.4190
  728MOL0     H98267   2.426   8.285   6.046 -0.5829 -0.4450 -0.0672
  728MOL0     H98268   2.015   8.344   5.880 -0.0740 -1.0800 -3.2882
  728MOL0     H98269   2.157   8.376   5.785  1.2362  1.9562  0.6428
  728MOL0     H98270   2.124   8.601   5.796  1.2557  0.6388  0.9630
  728MOL0     H98271   2.054   8.608   5.955  1.1261  1.7516 -0.4429
  728MOL0     H98272   1.827   8.531   5.888 -0.6419  1.4984 -0.0707
  728MOL0     H98273   1.872   8.504   5.720 -3.2911  0.9647 -0.1766
  728MOL0     H98274   1.897   8.760   5.878 -1.9748  1.7435  0.2421
  728MOL0     H98275   1.917   8.751   5.707  0.5546  0.4567  1.9374
  728MOL0     H98276   1.493   8.782   5.763  0.1592 -0.9411  1.8130
  728MOL0     H98277   2.018   8.288   6.102  2.6914  1.5320  2.0821
  728MOL0     H98278   1.902   8.054   6.169 -0.1474 -1.8394 -1.5867
  728MOL0     H98279   1.992   7.908   6.166 -0.3231 -0.2747  0.8375
  728MOL0     H98280   1.998   8.011   6.315  3.7250 -1.4010 -0.5400
  729MOL0     O98281   7.999   6.569   6.950 -0.9250  0.1804  0.2300
  729MOL0     C98282   7.949   6.559   6.836  0.9180 -0.5692 -0.0681
  729MOL0     O98283   8.001   6.495   6.731 -0.1814  0.4929  0.3233
  729MOL0     C98284   8.069   6.376   6.755  0.4840  0.1324 -0.1456
  729MOL0     C98285   8.036   6.286   6.857 -0.4948 -0.0619 -0.7197
  729MOL0     C98286   8.124   6.185   6.894  0.4333 -0.1556 -0.8191
  729MOL0     C98287   8.250   6.182   6.833 -0.1381  0.6062 -0.5438
  729MOL0     O98288   8.336   6.087   6.879  0.1269  1.0348  0.5556
  729MOL0     C98289   8.347   5.983   6.783 -0.4781 -0.4335 -0.0726
  729MOL0     C98290   8.433   5.876   6.842 -0.1355  0.3837 -0.0377
  729MOL0     C98291   8.589   5.908   6.878  0.5591  0.3783  0.5471
  729MOL0     C98292   8.637   5.794   6.965  0.0036 -0.4989 -0.3266
  729MOL0     C98293   8.788   5.804   6.993 -0.8149 -0.5564  0.8846
  729MOL0     C98294   8.830   5.691   7.084  0.4886 -0.1855 -0.1301
  729MOL0     C98295   8.981   5.675   7.097  0.1592  0.3015 -0.4608
  729MOL0     C98296   9.056   5.797   7.138  0.0115  0.4431 -0.3797
  729MOL0     N98297   9.197   5.765   7.168  0.2327  0.3046 -0.6837
  729MOL0     C98298   9.289   5.717   7.074  0.2648 -0.1912 -0.4247
  729MOL0     C98299   9.407   5.692   7.135  0.1181 -0.0732 -0.4781
  729MOL0     C98300   9.534   5.641   7.075  0.1616 -0.5180  0.2779
  729MOL0     C98301   9.624   5.596   7.194  0.1790  0.7267 -0.4494
  729MOL0     C98302   9.767   5.601   7.154 -0.9504  0.4936 -1.0233
  729MOL0     C98303   9.807   5.494   7.060 -0.3351 -0.0109  0.3356
  729MOL0     O98304   9.948   5.496   7.048 -0.2099 -0.1582  0.4954
  729MOL0     C98305   9.995   5.550   6.931  0.8802  0.4076  0.9048
  729MOL0     C98306  10.084   5.471   6.857 -0.3582  0.6377 -0.0428
  729MOL0     C98307  10.142   5.499   6.738  0.2178  0.3110  0.7288
  729MOL0     C98308  10.104   5.624   6.673 -0.7514  0.0909 -1.9727
  729MOL0     C98309  10.170   5.656   6.542  0.6936 -0.3397 -0.8334
  729MOL0     O98310  10.262   5.575   6.490 -1.0801 -0.3731 -0.2526
  729MOL0     C98311  10.316   5.618   6.378  0.6810  0.5575  0.4564
  729MOL0     C98312  10.271   5.555   6.260  0.2604 -0.7528  0.3979
  729MOL0     C98313  10.307   5.615   6.134 -0.3899  0.5086 -0.1099
  729MOL0     C98314  10.391   5.720   6.134 -0.6511 -0.5729  0.9962
  729MOL0     O98315  10.424   5.786   6.016 -0.4964 -0.0072 -0.1862
  729MOL0     C98316  10.341   5.780   5.899 -1.0067  0.3816  0.2961
  729MOL0     C98317  10.358   5.910   5.818  0.8198 -0.8827  0.4330
  729MOL0     C98318  10.260   5.907   5.694  0.6097  0.4641 -0.2231
  729MOL0     C98319  10.114   5.924   5.731  0.6291 -0.2690 -0.1733
  729MOL0     C98320  10.028   5.927   5.603 -0.2349 -1.0319 -0.2603
  729MOL0     C98321   9.883   5.948   5.645  0.1977 -0.4342 -0.0516
  729MOL0     C98322   9.778   5.935   5.541 -0.0455 -0.0883  0.7321
  729MOL0     C98323   9.631   5.918   5.596  0.8778 -0.1433 -0.8277
  729MOL0    Cl98324   9.520   5.841   5.471 -0.2753  0.0377 -0.3991
  729MOL0     C98325  10.452   5.767   6.254 -0.2275 -0.6799 -0.0191
  729MOL0     C98326  10.416   5.711   6.378  0.5097 -0.7073  0.4098
  729MOL0     O98327  10.123   5.750   6.490 -0.1634  0.0541 -0.8998
  729MOL0     C98328  10.014   5.707   6.744  0.2320 -0.4808 -0.1140
  729MOL0     C98329   9.965   5.678   6.873  0.3025  0.1334 -0.3858
  729MOL0     N98330   9.380   5.721   7.272  1.1049  0.4823 -0.1559
  729MOL0     N98331   9.258   5.755   7.293 -0.9040  0.2215 -0.1410
  729MOL0     C98332   8.282   6.262   6.722 -0.3916  0.6006  0.4061
  729MOL0     C98333   8.195   6.367   6.688  0.8505 -0.7133 -0.0436
  729MOL0     C98334   7.820   6.635   6.808 -1.3333  0.2908  0.3205
  729MOL0     C98335   7.747   6.598   6.691  0.2183  0.6263  0.1292
  729MOL0     C98336   7.624   6.660   6.655  0.5556 -0.5962 -0.3060
  729MOL0     C98337   7.573   6.759   6.738  0.7599  0.3306  0.2275
  729MOL0     O98338   7.449   6.816   6.701 -0.2857 -0.0565  0.3204
  729MOL0     C98339   7.428   6.956   6.724  0.0787 -0.8754  0.1356
  729MOL0     C98340   7.535   7.042   6.664 -0.0316 -0.1261  0.6369
  729MOL0     C98341   7.487   7.190   6.660  0.2157 -0.8158  0.2965
  729MOL0     C98342   7.549   7.274   6.549  0.0508 -0.5576 -0.4569
  729MOL0     C98343   7.483   7.404   6.535  0.6055  0.5643  0.3986
  729MOL0     C98344   7.449   7.519   6.530  0.3616  0.7298  0.4719
  729MOL0     C98345   7.647   6.801   6.850  0.4737 -0.2817 -0.2584
  729MOL0     C98346   7.766   6.741   6.886 -0.4448  0.3512  0.0720
  729MOL0     C98347   7.827   6.785   7.013 -0.2992  0.4515 -0.1026
  729MOL0     H98348   7.937   6.297   6.901 -0.1134  0.5130  0.0288
  729MOL0     H98349   8.101   6.114   6.973 -4.3234  3.6256  1.7746
  729MOL0     H98350   8.250   5.945   6.752 -0.2875 -1.8304  0.9349
  729MOL0     H98351   8.397   6.009   6.689 -2.0149 -0.2480 -0.8649
  729MOL0     H98352   8.436   5.784   6.783 -0.1087 -0.5165  1.3301
  729MOL0     H98353   8.388   5.848   6.937  1.0522  1.8249  0.9869
  729MOL0     H98354   8.598   6.006   6.926 -1.6029  0.2149  1.3998
  729MOL0     H98355   8.635   5.897   6.780 -2.2591 -1.3083 -0.7192
  729MOL0     H98356   8.596   5.804   7.066 -0.0299 -1.5070 -0.2248
  729MOL0     H98357   8.618   5.696   6.919  0.9891 -1.1957  0.6778
  729MOL0     H98358   8.847   5.807   6.901  0.6969  0.2110  1.8386
  729MOL0     H98359   8.803   5.904   7.035 -1.5836  0.7287 -1.6622
  729MOL0     H98360   8.795   5.714   7.185 -0.0608  3.1460 -0.9863
  729MOL0     H98361   8.799   5.592   7.049  3.4871 -1.3233  0.1168
  729MOL0     H98362   9.034   5.656   7.003  2.7388  1.4941  0.6440
  729MOL0     H98363   9.010   5.603   7.173 -0.2931  0.2237 -0.3649
  729MOL0     H98364   9.055   5.876   7.063  1.2146  1.9923  1.1496
  729MOL0     H98365   9.018   5.833   7.235 -1.2056 -1.3648 -0.1242
  729MOL0     H98366   9.267   5.699   6.969  2.6927 -0.5054 -0.9360
  729MOL0     H98367   9.513   5.565   6.999 -0.3330  1.2749 -1.4617
  729MOL0     H98368   9.578   5.727   7.023  1.7654 -0.9508  0.8630
  729MOL0     H98369   9.624   5.666   7.278  1.3626  1.3534 -0.9325
  729MOL0     H98370   9.599   5.494   7.221 -0.5804  1.7657  3.2614
  729MOL0     H98371   9.832   5.605   7.242 -2.2236  0.6777 -0.0682
  729MOL0     H98372   9.784   5.695   7.100  3.3592  0.5473  0.0543
  729MOL0     H98373   9.757   5.509   6.964  1.2679  0.8561 -0.4044
  729MOL0     H98374   9.773   5.397   7.097  0.2170 -0.3048  0.0863
  729MOL0     H98375  10.110   5.372   6.896 -1.8439 -0.2552 -1.2291
  729MOL0     H98376  10.205   5.426   6.689  0.5083 -0.2945  1.9772
  729MOL0     H98377  10.197   5.476   6.261  0.2280 -0.7495  2.3120
  729MOL0     H98378  10.278   5.580   6.036  3.0039 -0.6235 -0.8562
  729MOL0     H98379  10.385   5.701   5.837  0.1090  2.3694 -1.6076
  729MOL0     H98380  10.236   5.754   5.915 -0.5803 -2.1255 -0.5221
  729MOL0     H98381  10.315   5.983   5.887  2.5455  1.4953 -0.8361
  729MOL0     H98382  10.459   5.940   5.787  0.8629  0.5022  1.8255
  729MOL0     H98383  10.284   5.980   5.616 -2.2182  1.6659 -0.0997
  729MOL0     H98384  10.269   5.808   5.650 -3.4750  0.9219 -2.6236
  729MOL0     H98385  10.107   6.019   5.785 -0.7112  0.6914 -1.9307
  729MOL0     H98386  10.090   5.843   5.801  0.3446  1.8966  2.4052
  729MOL0     H98387  10.041   5.842   5.534 -1.2075 -1.1346 -0.3370
  729MOL0     H98388  10.054   6.006   5.532 -0.3706 -1.9442 -1.3618
  729MOL0     H98389   9.861   5.883   5.730  0.7753 -0.2118  0.2715
  729MOL0     H98390   9.877   6.051   5.682  0.0071  0.4545 -2.3772
  729MOL0     H98391   9.807   5.854   5.474 -1.9981  0.4542 -0.8720
  729MOL0     H98392   9.764   6.032   5.492  2.3361  0.5200  1.1168
  729MOL0     H98393   9.642   5.856   5.685 -0.6013  1.7601  0.7647
  729MOL0     H98394   9.595   6.014   5.635 -4.3185 -0.7238 -3.3830
  729MOL0     H98395  10.532   5.839   6.247 -0.4709 -0.4850 -0.9890
  729MOL0     H98396  10.453   5.755   6.470 -1.9245 -0.3631  1.3014
  729MOL0     H98397   9.992   5.804   6.700 -0.1589 -1.6688 -2.7759
  729MOL0     H98398   9.904   5.750   6.927  2.3300  2.1925 -0.6885
  729MOL0     H98399   8.374   6.248   6.666  0.3154  1.8730  1.1839
  729MOL0     H98400   8.218   6.447   6.618 -0.0516  1.4649  1.9888
  729MOL0     H98401   7.789   6.528   6.620  0.3565 -0.5255  1.2932
  729MOL0     H98402   7.585   6.639   6.556 -2.4878  2.0605  0.1883
  729MOL0     H98403   7.416   6.973   6.831  1.3569 -0.1661  0.1888
  729MOL0     H98404   7.329   6.988   6.690  1.0911  1.4641 -0.8288
  729MOL0     H98405   7.558   7.001   6.565 -1.8845 -2.5311  1.1237
  729MOL0     H98406   7.635   7.043   6.709  0.3390  2.0830 -0.0953
  729MOL0     H98407   7.515   7.243   6.752  1.0902 -4.5650  2.3848
  729MOL0     H98408   7.378   7.190   6.656  0.1753 -3.3976 -0.1175
  729MOL0     H98409   7.655   7.289   6.572  0.4856 -0.2319 -2.5117
  729MOL0     H98410   7.546   7.228   6.450  3.2638 -0.9855 -0.4504
  729MOL0     H98411   7.431   7.624   6.541 -0.6032  0.7815 -1.3460
  729MOL0     H98412   7.604   6.876   6.915 -3.9273 -0.1085 -2.9868
  729MOL0     H98413   7.807   6.710   7.090 -0.3740  0.0836 -0.4728
  729MOL0     H98414   7.934   6.800   6.995 -0.7747  1.3725 -2.6224
  729MOL0     H98415   7.772   6.874   7.043 -0.9019 -0.4192  1.5334
  730MOL0     O98416   9.680   6.334  10.767 -0.4260  0.1651 -0.2017
  730MOL0     C98417   9.787   6.279  10.783  0.6890  0.0324 -0.3487
  730MOL0     O98418   9.871   6.236  10.689 -0.3612 -0.0627 -0.0334
  730MOL0     C98419   9.853   6.265  10.559 -0.8257  0.1330  0.5791
  730MOL0     C98420   9.739   6.251  10.484 -0.3128 -0.0922 -0.1917
  730MOL0     C98421   9.741   6.278  10.340  0.4400  0.1823 -1.2282
  730MOL0     C98422   9.861   6.310  10.275 -0.6906 -0.4740  0.0976
  730MOL0     O98423   9.861   6.321  10.134  0.9948  0.2793  0.1865
  730MOL0     C98424   9.980   6.284  10.078 -0.5601  0.1034  0.0105
  730MOL0     C98425   9.961   6.324   9.935  0.0435  0.3186 -0.1388
  730MOL0     C98426  10.097   6.302   9.853 -0.2336 -0.6596 -0.0636
  730MOL0     C98427  10.076   6.349   9.709  0.0132  0.3193 -0.4225
  730MOL0     C98428  10.111   6.498   9.690  0.2559 -0.0354  0.1992
  730MOL0     C98429  10.195   6.534   9.564 -0.0104 -0.0596  0.1642
  730MOL0     C98430  10.118   6.472   9.433 -1.0080 -0.2226  0.4140
  730MOL0     C98431   9.971   6.510   9.426 -0.1723  0.0824 -0.4439
  730MOL0     N98432   9.927   6.649   9.392 -0.3137  0.0663 -0.5707
  730MOL0     C98433   9.857   6.745   9.464 -0.0280 -0.5654  0.2349
  730MOL0     C98434   9.859   6.858   9.391  0.3024  0.1086 -1.2224
  730MOL0     C98435   9.790   6.984   9.428 -0.1143  0.7656  0.7788
  730MOL0     C98436   9.673   7.018   9.343 -0.3544 -0.4613 -0.0233
  730MOL0     C98437   9.599   7.144   9.378  0.1121  1.2071 -0.6966
  730MOL0     C98438   9.617   7.252   9.276  0.0421  0.4341 -0.3919
  730MOL0     O98439   9.751   7.307   9.264  0.3922  0.5085 -0.0577
  730MOL0     C98440   9.799   7.367   9.375  1.6649 -0.7752 -0.2849
  730MOL0     C98441   9.938   7.364   9.392  0.1260 -0.2140 -0.3784
  730MOL0     C98442   9.998   7.414   9.502 -0.7718  0.4546  0.6463
  730MOL0     C98443   9.913   7.465   9.604  0.2619 -0.4777 -0.4849
  730MOL0     C98444   9.976   7.523   9.723  0.2380  0.9955  0.2876
  730MOL0     O98445   9.898   7.596   9.804 -1.1927 -0.2384 -0.3626
  730MOL0     C98446   9.965   7.664   9.900 -0.5878  0.5843  0.1642
  730MOL0     C98447   9.938   7.798   9.910  0.6529 -0.0643  0.1640
  730MOL0     C98448   9.992   7.874  10.015  0.2847 -0.6064 -0.0261
  730MOL0     C98449  10.090   7.827  10.106 -0.0842  0.1200 -1.5923
  730MOL0     O98450  10.143   7.913  10.206 -0.1843 -1.1909 -0.2547
  730MOL0     C98451  10.171   7.870  10.343  0.5703 -0.6375  0.2128
  730MOL0     C98452  10.280   7.962  10.401 -1.6070  0.4535 -0.3935
  730MOL0     C98453  10.404   7.954  10.310 -0.2763  0.7340 -0.1771
  730MOL0     C98454  10.530   7.984  10.397  0.3162  0.1555  0.2856
  730MOL0     C98455  10.667   7.980  10.322  0.0152 -0.2858 -0.5536
  730MOL0     C98456  10.773   8.007  10.429 -0.7016 -0.3196  0.0891
  730MOL0     C98457  10.771   8.153  10.461  0.9018 -0.8872 -0.3023
  730MOL0     C98458  10.830   8.175  10.602  0.3100  1.3151  0.2077
  730MOL0    Cl98459  11.005   8.114  10.619  0.0370 -0.0602 -0.3698
  730MOL0     C98460  10.114   7.691  10.101  0.4096 -0.8933 -0.6507
  730MOL0     C98461  10.058   7.608  10.006  0.2789 -1.4037 -0.8707
  730MOL0     O98462  10.095   7.493   9.739  0.1047  0.0871 -0.1166
  730MOL0     C98463   9.781   7.478   9.586  0.3674  0.1025  0.3400
  730MOL0     C98464   9.717   7.427   9.472 -0.1633  0.3702 -0.1534
  730MOL0     N98465   9.927   6.831   9.272  0.9863  0.2748  0.4792
  730MOL0     N98466   9.969   6.714   9.281 -0.5450  0.2905  0.2598
  730MOL0     C98467   9.977   6.349  10.357  0.8636  0.6696 -0.0130
  730MOL0     C98468   9.967   6.321  10.495  0.5718 -1.3184  0.2108
  730MOL0     C98469   9.822   6.262  10.924 -0.7234  0.4777  0.6606
  730MOL0     C98470   9.943   6.200  10.948 -0.4030 -0.6545  0.1098
  730MOL0     C98471   9.983   6.172  11.078 -0.3818 -0.0493  1.4568
  730MOL0     C98472   9.906   6.197  11.193 -0.3981 -0.3609  0.5490
  730MOL0     O98473   9.956   6.162  11.319 -0.4974  0.4918  0.0229
  730MOL0     C98474  10.095   6.115  11.344  0.4159  0.4625  0.0977
  730MOL0     C98475  10.115   6.076  11.486 -0.6298  0.3789  0.4793
  730MOL0     C98476  10.269   6.070  11.513 -0.7816 -0.0366  0.3300
  730MOL0     C98477  10.297   5.929  11.574  0.1181 -0.2250  0.2552
  730MOL0     C98478  10.438   5.917  11.612 -0.3510 -0.2061 -0.7223
  730MOL0     C98479  10.549   5.896  11.669  0.4812 -0.1578  0.3162
  730MOL0     C98480   9.785   6.271  11.165 -0.1541  0.4344 -0.2731
  730MOL0     C98481   9.745   6.295  11.036 -0.5320  0.3112 -0.9989
  730MOL0     C98482   9.607   6.362  11.030  0.5352  0.3435 -0.1001
  730MOL0     H98483   9.647   6.205  10.519  0.1919 -1.3492 -0.4558
  730MOL0     H98484   9.644   6.261  10.294  1.2638 -0.3361 -2.8769
  730MOL0     H98485  10.063   6.337  10.126 -1.1371  0.5737  0.5163
  730MOL0     H98486   9.989   6.176  10.093  2.4220  0.5406  2.6335
  730MOL0     H98487   9.917   6.422   9.919 -3.8376 -1.4974 -2.1414
  730MOL0     H98488   9.893   6.251   9.889 -2.2819  1.5998  1.1205
  730MOL0     H98489  10.112   6.194   9.851 -0.1234 -0.6742 -3.7090
  730MOL0     H98490  10.180   6.360   9.894 -1.4346  1.4592 -0.4502
  730MOL0     H98491  10.135   6.286   9.641  0.0068  1.3170 -1.3723
  730MOL0     H98492   9.973   6.337   9.675  0.3946  0.2348 -1.5726
  730MOL0     H98493  10.020   6.557   9.700  1.1677  1.5615 -0.4898
  730MOL0     H98494  10.181   6.533   9.767 -0.2810  0.3874  0.5012
  730MOL0     H98495  10.209   6.642   9.559  0.1021 -0.1169 -1.0148
  730MOL0     H98496  10.298   6.497   9.565  0.8068  1.9071 -1.7325
  730MOL0     H98497  10.133   6.364   9.427  1.6363 -0.0419  2.3562
  730MOL0     H98498  10.166   6.516   9.345  1.5827 -3.0192  0.2585
  730MOL0     H98499   9.922   6.448   9.350  0.5603 -3.2797  1.6086
  730MOL0     H98500   9.913   6.470   9.510  0.3890 -0.8687 -0.4921
  730MOL0     H98501   9.801   6.727   9.556  3.2100 -0.8503  2.3074
  730MOL0     H98502   9.755   6.985   9.532 -3.3841  2.4843 -0.1842
  730MOL0     H98503   9.857   7.071   9.428  0.9108  0.0856  3.5130
  730MOL0     H98504   9.704   7.030   9.239 -0.2447  2.1148  0.2333
  730MOL0     H98505   9.599   6.939   9.357 -0.3691 -0.4292  0.0801
  730MOL0     H98506   9.629   7.175   9.478 -0.3490  0.0232 -0.1743
  730MOL0     H98507   9.490   7.135   9.378 -0.0888  2.7542  1.4547
  730MOL0     H98508   9.539   7.326   9.294 -0.4812  0.8999 -3.7977
  730MOL0     H98509   9.593   7.210   9.178  0.3159 -0.1484 -0.2133
  730MOL0     H98510  10.005   7.337   9.311  1.8036  1.9533  0.1829
  730MOL0     H98511  10.105   7.407   9.520 -0.0010  2.5466 -2.3216
  730MOL0     H98512   9.877   7.856   9.842  1.0817  0.0663 -0.1111
  730MOL0     H98513   9.957   7.974  10.039  1.1910  0.0800 -1.4123
  730MOL0     H98514  10.088   7.880  10.414  0.8709 -1.3890  0.6807
  730MOL0     H98515  10.206   7.767  10.353  3.1456  0.0136 -1.4123
  730MOL0     H98516  10.245   8.066  10.410 -2.7449 -0.0467  1.5220
  730MOL0     H98517  10.300   7.928  10.503 -3.1833 -1.7976 -0.7482
  730MOL0     H98518  10.407   7.858  10.258 -2.7534  0.6296 -0.2714
  730MOL0     H98519  10.391   8.031  10.233 -1.7450 -3.7473 -4.9577
  730MOL0     H98520  10.527   7.904  10.471  2.2923 -1.6216 -1.4276
  730MOL0     H98521  10.520   8.074  10.459  0.3132  1.1700 -1.1311
  730MOL0     H98522  10.665   8.069  10.258  1.4149  0.6355  0.6156
  730MOL0     H98523  10.681   7.886  10.268 -4.5067 -1.4616 -0.1488
  730MOL0     H98524  10.756   7.940  10.514 -1.7999  0.7945  0.7722
  730MOL0     H98525  10.876   7.980  10.404 -0.4981 -1.2772  1.8156
  730MOL0     H98526  10.675   8.205  10.454  0.3416 -1.5035  1.9606
  730MOL0     H98527  10.837   8.200  10.387  1.4761  0.0672  0.7924
  730MOL0     H98528  10.827   8.282  10.626  2.1301  2.4542 -3.7822
  730MOL0     H98529  10.763   8.120  10.669  2.8724 -0.3165  1.5881
  730MOL0     H98530  10.179   7.653  10.179 -2.2572 -1.3072  1.5307
  730MOL0     H98531  10.077   7.502   9.994  0.4335 -1.2847 -1.7914
  730MOL0     H98532   9.715   7.542   9.643 -0.7554 -1.2323  0.5875
  730MOL0     H98533   9.611   7.445   9.455 -1.0323 -2.3056  1.7947
  730MOL0     H98534  10.068   6.400  10.327 -0.7852  2.7136 -1.8979
  730MOL0     H98535  10.048   6.336  10.567 -1.6832  1.4063  2.4315
  730MOL0     H98536  10.006   6.170  10.865 -1.6143  0.7902 -1.3996
  730MOL0     H98537  10.080   6.132  11.103 -1.5621 -0.8632  5.3356
  730MOL0     H98538  10.176   6.187  11.325  0.9703 -0.8763 -3.2829
  730MOL0     H98539  10.119   6.023  11.290  1.7970  1.0240 -0.3018
  730MOL0     H98540  10.070   5.978  11.505 -1.3446 -0.2474 -3.5091
  730MOL0     H98541  10.080   6.151  11.558  3.0138  1.0517  1.7391
  730MOL0     H98542  10.312   6.135  11.589 -0.7473  1.7028 -1.1271
  730MOL0     H98543  10.329   6.076  11.423  0.0736 -4.8012  0.3236
  730MOL0     H98544  10.238   5.903  11.662  1.1694 -0.2076  0.9792
  730MOL0     H98545  10.281   5.862  11.489 -2.7097 -0.6158  0.9947
  730MOL0     H98546  10.643   5.882  11.718  0.2681  0.6442  0.9737
  730MOL0     H98547   9.719   6.303  11.245  0.3006  0.0986  0.2475
  730MOL0     H98548   9.546   6.318  10.951 -1.7666 -0.6604  2.1214
  730MOL0     H98549   9.542   6.343  11.115  1.6088  1.1043  0.9288
  730MOL0     H98550   9.605   6.463  10.988 -4.0663 -0.5503 -2.6150
  731MOL0     O98551   4.372   1.238   5.957  0.1271  0.8701 -0.0304
  731MOL0     C98552   4.405   1.135   6.007 -0.1319 -0.5165  0.4353
  731MOL0     O98553   4.322   1.030   6.013 -0.4067  0.0714 -0.7365
  731MOL0     C98554   4.195   1.052   5.953  0.3774  1.0012 -0.9353
  731MOL0     C98555   4.175   1.028   5.818 -0.3566 -0.7669 -0.7813
  731MOL0     C98556   4.051   1.070   5.761  0.1085 -0.1414 -0.1425
  731MOL0     C98557   3.943   1.117   5.841 -0.5360 -0.5436 -0.3792
  731MOL0     O98558   3.833   1.174   5.795  0.3207  0.9652 -0.1420
  731MOL0     C98559   3.848   1.228   5.662  0.0447 -0.0264  0.1242
  731MOL0     C98560   3.738   1.331   5.631  0.1812  0.9400 -0.2714
  731MOL0     C98561   3.600   1.258   5.645 -0.3028 -0.6936  0.2883
  731MOL0     C98562   3.483   1.358   5.632  0.6516 -0.4730  0.7160
  731MOL0     C98563   3.351   1.285   5.620  0.1110 -0.4529  0.0722
  731MOL0     C98564   3.231   1.384   5.602  0.3865  0.2338 -0.6830
  731MOL0     C98565   3.089   1.332   5.614 -0.0985  0.1130  1.2029
  731MOL0     C98566   3.057   1.285   5.761 -0.3153 -0.8757 -0.2570
  731MOL0     N98567   2.914   1.257   5.765 -0.4688 -0.2940 -0.3739
  731MOL0     C98568   2.813   1.350   5.735 -0.4469 -0.7362  0.5497
  731MOL0     C98569   2.698   1.307   5.793 -0.7273 -0.2588  0.1586
  731MOL0     C98570   2.564   1.374   5.805  0.3367  0.4040  0.2916
  731MOL0     C98571   2.445   1.294   5.740 -0.5437 -0.1460  0.8206
  731MOL0     C98572   2.299   1.337   5.785 -0.0255  0.3590  0.8012
  731MOL0     C98573   2.246   1.300   5.929 -0.2257  0.4672 -0.2381
  731MOL0     O98574   2.131   1.378   5.955 -0.1777  0.6804 -0.0375
  731MOL0     C98575   2.133   1.510   5.991 -0.0454 -0.1479 -0.0610
  731MOL0     C98576   2.009   1.582   6.011 -0.5880  0.0504 -0.3553
  731MOL0     C98577   2.005   1.725   6.045  0.2137 -0.4057 -0.4154
  731MOL0     C98578   2.125   1.783   6.071 -0.0491  0.3884  0.0708
  731MOL0     C98579   2.121   1.929   6.117  0.1075  0.0014 -0.7100
  731MOL0     O98580   2.014   1.969   6.178  0.6674 -0.1052  0.3875
  731MOL0     C98581   2.008   2.096   6.238  0.0225 -0.0339 -1.0770
  731MOL0     C98582   1.958   2.106   6.376 -1.0074 -0.0795  0.2243
  731MOL0     C98583   1.945   2.228   6.449 -0.3933  0.1354  0.9643
  731MOL0     C98584   1.999   2.349   6.404  0.3156 -0.2284 -0.0744
  731MOL0     O98585   1.988   2.466   6.478  0.3330 -0.4786 -0.6589
  731MOL0     C98586   2.036   2.593   6.422  0.3680  0.4442 -0.7587
  731MOL0     C98587   2.045   2.701   6.527 -0.1484 -0.1173  0.5963
  731MOL0     C98588   1.917   2.765   6.579 -0.5762  0.0911 -0.6017
  731MOL0     C98589   1.837   2.824   6.463 -0.8836 -0.3804 -1.1995
  731MOL0     C98590   1.701   2.891   6.517 -0.1123 -0.5769  0.7519
  731MOL0     C98591   1.625   2.977   6.411  0.7378 -0.5687  0.5110
  731MOL0     C98592   1.619   2.913   6.279  0.7245 -0.2553  0.4240
  731MOL0     C98593   1.523   2.982   6.182  0.0149  0.0057  1.1084
  731MOL0    Cl98594   1.449   2.856   6.074  0.1094 -0.5740  0.2687
  731MOL0     C98595   2.064   2.339   6.273  0.1351  0.2946 -0.2056
  731MOL0     C98596   2.068   2.218   6.202  1.4276 -0.6920  0.3460
  731MOL0     O98597   2.234   1.988   6.117 -0.6808  0.3298 -0.5043
  731MOL0     C98598   2.242   1.713   6.052 -0.1303 -0.0413 -0.6726
  731MOL0     C98599   2.250   1.586   6.010  0.9392 -0.5806 -0.1994
  731MOL0     N98600   2.728   1.181   5.832  0.3786  0.0575  0.0285
  731MOL0     N98601   2.855   1.151   5.822  0.0158  0.4710  0.2688
  731MOL0     C98602   3.958   1.123   5.983 -0.1107 -0.1877  0.4747
  731MOL0     C98603   4.090   1.104   6.038  0.5346 -0.1172 -0.3096
  731MOL0     C98604   4.538   1.134   6.074 -0.6199  0.9435  1.1098
  731MOL0     C98605   4.589   1.251   6.126  0.1602 -0.3949  1.3709
  731MOL0     C98606   4.712   1.265   6.191  0.1626 -0.9042 -0.2762
  731MOL0     C98607   4.797   1.157   6.209  0.9155  0.5926  1.2014
  731MOL0     O98608   4.915   1.156   6.280  1.1754  0.1757 -0.5207
  731MOL0     C98609   5.005   1.271   6.293  0.3235  1.5427  0.8310
  731MOL0     C98610   5.147   1.225   6.299 -0.0240  0.5279 -0.0272
  731MOL0     C98611   5.248   1.319   6.230 -0.5528 -0.1899 -0.4493
  731MOL0     C98612   5.385   1.274   6.260  0.4512 -0.1701  0.1671
  731MOL0     C98613   5.488   1.359   6.195 -0.0473 -0.2086  0.1804
  731MOL0     C98614   5.565   1.426   6.124 -0.2685 -1.0733  0.7214
  731MOL0     C98615   4.740   1.041   6.159  0.2789  0.7234  0.1102
  731MOL0     C98616   4.620   1.026   6.096 -0.2555 -0.1963  0.2218
  731MOL0     C98617   4.583   0.889   6.048  0.2426  0.3316  0.0994
  731MOL0     H98618   4.265   0.991   5.771 -0.5251 -0.7399 -1.1338
  731MOL0     H98619   4.042   1.070   5.653  2.7088 -0.9981 -0.4138
  731MOL0     H98620   3.939   1.288   5.648  0.4225 -0.5511  0.3038
  731MOL0     H98621   3.853   1.151   5.584  2.2434  0.8403 -0.6963
  731MOL0     H98622   3.735   1.377   5.532 -0.4041  0.8323 -0.3020
  731MOL0     H98623   3.740   1.414   5.701 -1.8701 -1.0308  2.3264
  731MOL0     H98624   3.589   1.217   5.745 -2.9313 -1.3716 -0.1803
  731MOL0     H98625   3.590   1.174   5.575  2.7198 -1.7972  1.0378
  731MOL0     H98626   3.473   1.422   5.721 -0.4330  1.3635 -0.6472
  731MOL0     H98627   3.503   1.433   5.555 -1.6081  1.5182  1.9092
  731MOL0     H98628   3.344   1.220   5.532 -0.1510 -0.1974 -0.1002
  731MOL0     H98629   3.336   1.243   5.719  0.2771  1.5963  1.0296
  731MOL0     H98630   3.249   1.466   5.672  0.3868  0.6731 -1.1876
  731MOL0     H98631   3.240   1.435   5.505 -4.7931  1.5404 -0.7598
  731MOL0     H98632   3.070   1.250   5.543  1.7006  1.3770 -0.8774
  731MOL0     H98633   3.030   1.418   5.581 -1.1363 -0.7837  0.6539
  731MOL0     H98634   3.114   1.196   5.790 -2.6711 -2.4003 -0.0426
  731MOL0     H98635   3.086   1.363   5.831  0.7181 -0.5201 -1.0501
  731MOL0     H98636   2.830   1.454   5.710  3.3430 -1.5781 -1.0599
  731MOL0     H98637   2.535   1.388   5.909 -0.7980 -1.5713  0.2897
  731MOL0     H98638   2.567   1.474   5.760  0.8973  1.0694  1.7698
  731MOL0     H98639   2.451   1.301   5.631 -1.2306  0.3616  0.8140
  731MOL0     H98640   2.465   1.188   5.761  0.2705  0.3773  2.9712
  731MOL0     H98641   2.236   1.285   5.711  2.6121  0.4275 -1.6625
  731MOL0     H98642   2.291   1.445   5.769  0.5234 -0.0320 -2.9770
  731MOL0     H98643   2.322   1.308   6.008  1.4122 -0.8433 -1.5942
  731MOL0     H98644   2.238   1.191   5.933  1.0358  0.0957 -4.0068
  731MOL0     H98645   1.915   1.532   5.991 -1.9887  2.0645  0.8436
  731MOL0     H98646   1.904   1.763   6.036  0.1488 -0.0901  1.2271
  731MOL0     H98647   1.920   2.022   6.433  1.1125  1.4325  4.3061
  731MOL0     H98648   1.883   2.222   6.537 -0.2222 -0.8157  1.0246
  731MOL0     H98649   2.143   2.583   6.398  0.5542  1.1889 -0.2687
  731MOL0     H98650   1.982   2.622   6.331  1.9809 -0.6395 -2.1390
  731MOL0     H98651   2.097   2.643   6.604  0.0794  0.5607  0.9542
  731MOL0     H98652   2.108   2.779   6.484 -2.5109  1.2898 -0.5301
  731MOL0     H98653   1.858   2.687   6.628 -1.9398  0.5168 -1.5113
  731MOL0     H98654   1.921   2.843   6.656 -0.3998  0.0846 -0.6042
  731MOL0     H98655   1.809   2.752   6.386 -0.2341 -0.8904 -0.9644
  731MOL0     H98656   1.908   2.897   6.422  1.0544 -2.1979 -1.2288
  731MOL0     H98657   1.724   2.944   6.609  0.4668 -0.1021  0.3425
  731MOL0     H98658   1.638   2.803   6.532 -1.0572 -1.0256 -4.2289
  731MOL0     H98659   1.521   2.991   6.440  0.1049  0.7649 -2.0542
  731MOL0     H98660   1.673   3.075   6.401 -2.0958  0.7244 -1.6785
  731MOL0     H98661   1.574   2.814   6.295  0.6457 -1.1036 -3.8462
  731MOL0     H98662   1.716   2.911   6.229  0.6697  1.9964  0.1438
  731MOL0     H98663   1.434   3.021   6.233 -1.4999 -1.0105 -0.6463
  731MOL0     H98664   1.562   3.063   6.120  2.0497 -0.4677  1.7013
  731MOL0     H98665   2.099   2.427   6.221 -0.3797  0.7164  0.1456
  731MOL0     H98666   2.110   2.207   6.102  2.7692 -1.1388  0.9481
  731MOL0     H98667   2.337   1.762   6.071 -2.4128  3.9480  1.9038
  731MOL0     H98668   2.351   1.544   6.009  0.6814 -1.8278  4.6321
  731MOL0     H98669   3.873   1.162   6.036  0.1305 -0.0139  0.7342
  731MOL0     H98670   4.119   1.125   6.141  1.4318 -0.1499 -0.5507
  731MOL0     H98671   4.521   1.335   6.115 -0.0120 -0.8038 -1.5213
  731MOL0     H98672   4.730   1.369   6.219  1.9057 -1.7757  2.2619
  731MOL0     H98673   4.970   1.348   6.363  0.6089  0.5587  2.0883
  731MOL0     H98674   5.007   1.315   6.192  1.0588  1.6533  0.8935
  731MOL0     H98675   5.143   1.128   6.249 -6.2707 -0.2636  1.2137
  731MOL0     H98676   5.179   1.218   6.403  0.6145  1.6923 -0.1263
  731MOL0     H98677   5.242   1.418   6.277  2.5931 -1.0037  2.0641
  731MOL0     H98678   5.230   1.313   6.123 -0.4354 -3.0092 -0.3823
  731MOL0     H98679   5.389   1.291   6.368  2.0156  2.2781 -0.1858
  731MOL0     H98680   5.390   1.171   6.224  2.9327  0.0123 -0.2229
  731MOL0     H98681   5.644   1.473   6.070 -0.2890 -0.9834  0.7707
  731MOL0     H98682   4.794   0.949   6.178  1.1544  0.7916 -1.8191
  731MOL0     H98683   4.666   0.817   6.057  1.3575  1.0115 -3.2485
  731MOL0     H98684   4.494   0.842   6.091  0.0128  0.2908 -0.4079
  731MOL0     H98685   4.572   0.872   5.940 -0.0127  1.3948 -0.0458
  732MOL0     O98686   7.615   1.646   2.971  0.7749  0.3940 -0.3623
  732MOL0     C98687   7.631   1.749   2.904 -1.0197 -0.3230 -0.3248
  732MOL0     O98688   7.719   1.850   2.926 -0.0603 -0.8098 -0.4858
  732MOL0     C98689   7.827   1.836   3.003 -0.0368  0.6585  0.2012
  732MOL0     C98690   7.910   1.734   2.977  1.2871 -0.2519  0.1785
  732MOL0     C98691   8.037   1.722   3.028 -0.6446 -0.1043 -0.1910
  732MOL0     C98692   8.088   1.821   3.119  0.6030  0.1132  0.0648
  732MOL0     O98693   8.215   1.798   3.171  0.1716 -0.3025 -0.3580
  732MOL0     C98694   8.260   1.892   3.271 -0.0646  0.3831 -0.4893
  732MOL0     C98695   8.394   1.853   3.330  0.3309 -0.2530 -0.4974
  732MOL0     C98696   8.497   1.832   3.223 -1.3679 -0.0330  0.8062
  732MOL0     C98697   8.563   1.694   3.242  0.0033  0.7174 -0.4667
  732MOL0     C98698   8.666   1.661   3.132  0.2349  0.2326 -0.3486
  732MOL0     C98699   8.794   1.737   3.149 -0.6380  0.6978  0.3521
  732MOL0     C98700   8.898   1.682   3.045 -0.6445 -0.1525 -0.4048
  732MOL0     C98701   9.044   1.744   3.086  0.2423  0.1433  0.0506
  732MOL0     N98702   9.100   1.669   3.196  0.5873 -0.2431 -0.4785
  732MOL0     C98703   9.195   1.569   3.197 -0.5825  0.3916 -0.0829
  732MOL0     C98704   9.224   1.548   3.327  0.3630 -0.3493  0.5678
  732MOL0     C98705   9.323   1.457   3.385  0.0189  0.5693 -0.2513
  732MOL0     C98706   9.464   1.500   3.361  0.1902 -0.4211 -0.4792
  732MOL0     C98707   9.571   1.433   3.451  0.4049 -0.8984  0.4343
  732MOL0     C98708   9.576   1.479   3.600  0.0199 -0.3380  0.4568
  732MOL0     O98709   9.713   1.479   3.654 -0.0900  0.1806  0.0133
  732MOL0     C98710   9.755   1.377   3.740 -0.4141  0.4184  0.6146
  732MOL0     C98711   9.875   1.399   3.801 -0.3321 -0.7552  0.1388
  732MOL0     C98712   9.939   1.312   3.881 -0.6779 -0.8355  0.9288
  732MOL0     C98713   9.880   1.190   3.905 -0.1415  0.6394  0.5690
  732MOL0     C98714   9.941   1.098   3.991 -0.7935  1.8412 -0.7938
  732MOL0     O98715   9.884   0.971   4.009  0.0444  0.6133  0.4918
  732MOL0     C98716   9.933   0.869   4.082 -0.3062  0.6823  0.8146
  732MOL0     C98717   9.985   0.755   4.020  0.4470  0.4567 -0.5863
  732MOL0     C98718  10.052   0.656   4.086  0.3355  0.7991  0.6771
  732MOL0     C98719  10.061   0.653   4.221  0.3506  0.4633  0.2123
  732MOL0     O98720  10.114   0.543   4.284  0.1076  0.2786  0.3092
  732MOL0     C98721  10.180   0.560   4.405 -0.2979  0.4661  0.0471
  732MOL0     C98722  10.289   0.451   4.423 -0.2355 -0.8968  0.4769
  732MOL0     C98723  10.434   0.474   4.383 -0.3563  0.1328  0.6466
  732MOL0     C98724  10.460   0.436   4.233  0.0568 -0.3009 -0.5693
  732MOL0     C98725  10.595   0.468   4.169 -0.5155 -0.3786  0.1416
  732MOL0     C98726  10.711   0.381   4.225  0.3059 -0.4585  1.1500
  732MOL0     C98727  10.845   0.400   4.151 -0.6314  0.0997  0.2102
  732MOL0     C98728  10.915   0.538   4.174 -0.7211  0.8881  0.2343
  732MOL0    Cl98729  10.861   0.671   4.081 -0.1803 -0.2971  0.0524
  732MOL0     C98730  10.018   0.773   4.289 -0.1184 -0.0239  0.4565
  732MOL0     C98731   9.964   0.883   4.219  0.7314 -0.0296  0.0731
  732MOL0     O98732  10.054   1.124   4.035 -0.2129 -0.6205  1.3560
  732MOL0     C98733   9.761   1.154   3.831 -0.1989 -0.6954 -0.6045
  732MOL0     C98734   9.693   1.252   3.753 -0.0899  0.1412  1.0641
  732MOL0     N98735   9.147   1.632   3.404  0.1841 -0.0800 -0.4151
  732MOL0     N98736   9.075   1.700   3.320 -0.6290  0.3761  0.3352
  732MOL0     C98737   8.000   1.923   3.151  0.5809  0.8764  0.2955
  732MOL0     C98738   7.876   1.927   3.091  0.2496 -0.8162  0.7246
  732MOL0     C98739   7.540   1.773   2.791 -0.2251 -0.7555 -0.4766
  732MOL0     C98740   7.568   1.884   2.714  0.2714  0.6913 -0.7289
  732MOL0     C98741   7.501   1.906   2.602  0.5969  0.7845  0.0006
  732MOL0     C98742   7.393   1.823   2.549 -0.9952  0.0138 -1.2846
  732MOL0     O98743   7.322   1.841   2.434 -0.1991 -0.4040  0.4923
  732MOL0     C98744   7.316   1.972   2.377  0.3309 -0.2725 -0.3602
  732MOL0     C98745   7.228   2.059   2.469  0.5363  0.4665 -1.3596
  732MOL0     C98746   7.095   1.998   2.515 -0.1515 -0.2841  0.3450
  732MOL0     C98747   7.006   2.102   2.600  0.3087 -0.1562  0.4264
  732MOL0     C98748   6.947   2.193   2.497 -1.0348  0.0344  0.7884
  732MOL0     C98749   6.899   2.255   2.402 -0.4387  0.3178  0.0787
  732MOL0     C98750   7.370   1.715   2.627 -0.5884 -0.1970  0.3756
  732MOL0     C98751   7.449   1.680   2.741 -0.2243 -0.7105 -0.2753
  732MOL0     C98752   7.410   1.555   2.812  0.0384  0.0515 -0.1981
  732MOL0     H98753   7.877   1.666   2.899 -1.8771  0.2856  0.9385
  732MOL0     H98754   8.104   1.651   2.979 -1.0610  1.2441 -2.9116
  732MOL0     H98755   8.262   1.992   3.226 -4.4776  0.7579 -0.3427
  732MOL0     H98756   8.180   1.900   3.345  0.7667  0.4236  0.4267
  732MOL0     H98757   8.383   1.760   3.386  0.6412  0.7936  1.3851
  732MOL0     H98758   8.435   1.922   3.405  1.6223 -0.0737 -1.3431
  732MOL0     H98759   8.572   1.910   3.238 -1.4030  0.1063  0.2508
  732MOL0     H98760   8.464   1.834   3.119 -0.6134  0.4332  0.5707
  732MOL0     H98761   8.597   1.686   3.346 -2.6402 -1.1887  0.3634
  732MOL0     H98762   8.475   1.630   3.232  0.6402 -0.4970  1.2374
  732MOL0     H98763   8.679   1.553   3.138 -3.5738 -0.6955 -4.1328
  732MOL0     H98764   8.619   1.673   3.034  0.7759 -2.0629 -0.9507
  732MOL0     H98765   8.769   1.843   3.142 -4.7398 -0.1784 -1.2950
  732MOL0     H98766   8.830   1.728   3.252  1.0416  1.9661 -0.0815
  732MOL0     H98767   8.870   1.726   2.948 -1.8229  0.6303  0.2653
  732MOL0     H98768   8.914   1.574   3.034  0.9657  0.0452 -0.1975
  732MOL0     H98769   9.120   1.730   3.009 -0.2014 -2.1010 -0.0236
  732MOL0     H98770   9.027   1.850   3.111 -0.5317 -0.0040  0.1686
  732MOL0     H98771   9.231   1.522   3.107  0.2432 -0.0662  0.4733
  732MOL0     H98772   9.303   1.458   3.493  0.3015  0.2981 -0.1934
  732MOL0     H98773   9.298   1.360   3.343 -1.0902  0.9269 -0.4428
  732MOL0     H98774   9.494   1.481   3.258 -2.4810 -0.4675 -1.3005
  732MOL0     H98775   9.477   1.605   3.390 -2.6594 -0.2149  0.3441
  732MOL0     H98776   9.669   1.448   3.404  0.3013 -2.1987 -0.2504
  732MOL0     H98777   9.564   1.324   3.460  1.7825 -1.1138 -0.7180
  732MOL0     H98778   9.512   1.423   3.669 -0.1738 -0.1940  0.3946
  732MOL0     H98779   9.535   1.580   3.610  0.4706 -0.3904  3.8609
  732MOL0     H98780   9.924   1.494   3.782 -0.1769 -0.3545  2.2836
  732MOL0     H98781  10.043   1.324   3.910 -0.0413  2.0522 -1.8980
  732MOL0     H98782   9.981   0.743   3.912  0.5181  0.7071 -0.6191
  732MOL0     H98783  10.089   0.571   4.030 -1.1917  1.7027 -1.8469
  732MOL0     H98784  10.227   0.658   4.412  1.1491 -0.2458  1.0963
  732MOL0     H98785  10.108   0.569   4.486 -0.1936  0.0379  0.1944
  732MOL0     H98786  10.290   0.426   4.529  0.2954  0.9174  0.9455
  732MOL0     H98787  10.248   0.360   4.380 -2.5650 -0.7444  2.1873
  732MOL0     H98788  10.458   0.580   4.385  0.9869 -0.1542  0.3106
  732MOL0     H98789  10.499   0.429   4.459 -1.0863  2.6118  2.9048
  732MOL0     H98790  10.379   0.473   4.170  0.5311 -1.1967 -1.7573
  732MOL0     H98791  10.442   0.328   4.224  0.0555 -0.1642 -2.5654
  732MOL0     H98792  10.617   0.575   4.178 -1.5346  0.1703 -2.8027
  732MOL0     H98793  10.582   0.455   4.061  0.7735 -1.3531  0.0777
  732MOL0     H98794  10.716   0.409   4.330  1.1830  3.9877  0.1319
  732MOL0     H98795  10.685   0.275   4.217  0.2479 -0.5652  2.5429
  732MOL0     H98796  10.824   0.395   4.044  1.2161 -2.2100 -0.1239
  732MOL0     H98797  10.908   0.315   4.179 -2.5946 -1.3904  0.3535
  732MOL0     H98798  10.912   0.570   4.279  1.0818 -1.7157  1.2086
  732MOL0     H98799  11.019   0.519   4.147 -1.3243  0.2520 -1.7876
  732MOL0     H98800  10.013   0.782   4.397  0.7419 -1.1062  0.5953
  732MOL0     H98801   9.939   0.966   4.284 -0.3442 -1.1517  1.1704
  732MOL0     H98802   9.711   1.058   3.840 -2.1721  0.1748 -1.5602
  732MOL0     H98803   9.600   1.213   3.713  1.3863 -3.8531  1.0760
  732MOL0     H98804   8.018   1.993   3.232 -0.4425  0.6585  0.7192
  732MOL0     H98805   7.827   2.020   3.119  0.0258 -1.6593  3.4328
  732MOL0     H98806   7.645   1.957   2.737  0.8818 -0.3149  0.5674
  732MOL0     H98807   7.507   1.994   2.539 -5.7288  1.0096 -0.9199
  732MOL0     H98808   7.263   1.971   2.282  3.2396 -1.2866 -2.0840
  732MOL0     H98809   7.415   2.013   2.356  0.4048 -1.2044 -1.9480
  732MOL0     H98810   7.207   2.154   2.420 -2.7251 -0.5132 -2.1273
  732MOL0     H98811   7.291   2.071   2.558  0.8862  1.1247 -1.6916
  732MOL0     H98812   7.128   1.907   2.566 -0.2513 -1.0417 -0.9059
  732MOL0     H98813   7.031   1.973   2.430  0.8767  2.7014 -1.4394
  732MOL0     H98814   6.929   2.039   2.647  0.7869 -1.5858 -0.6148
  732MOL0     H98815   7.066   2.168   2.662  0.1429  0.3917  0.0058
  732MOL0     H98816   6.850   2.308   2.323 -2.4008  0.9865  1.6731
  732MOL0     H98817   7.292   1.644   2.600 -1.6014  1.4663 -1.2439
  732MOL0     H98818   7.330   1.495   2.766 -0.8670 -1.3757  2.9750
  732MOL0     H98819   7.489   1.482   2.830 -1.4075 -1.4148  0.5039
  732MOL0     H98820   7.373   1.585   2.911 -1.4939 -0.3669 -0.6076
  733MOL0     O98821   3.757   7.990   3.977  1.0513  0.2873 -0.1434
  733MOL0     C98822   3.684   8.070   4.042 -0.5651 -0.8090  0.4442
  733MOL0     O98823   3.621   8.044   4.164  1.1336 -0.0572  1.0016
  733MOL0     C98824   3.638   7.912   4.198  0.4229 -0.9886 -0.1507
  733MOL0     C98825   3.528   7.825   4.215  0.8143  0.1929  0.7768
  733MOL0     C98826   3.530   7.691   4.264  0.8801 -0.3281  0.4148
  733MOL0     C98827   3.657   7.640   4.282  0.0059 -1.3467 -0.0756
  733MOL0     O98828   3.688   7.513   4.301  0.0727  0.1220 -0.0766
  733MOL0     C98829   3.627   7.446   4.414 -0.2370 -0.4102 -0.4775
  733MOL0     C98830   3.728   7.356   4.473 -0.3327  0.9584 -0.0664
  733MOL0     C98831   3.785   7.249   4.373  0.1960 -0.2475  1.0488
  733MOL0     C98832   3.841   7.124   4.432 -0.6885 -0.7205 -0.1272
  733MOL0     C98833   3.862   7.005   4.333  0.9938 -0.1342 -0.8752
  733MOL0     C98834   3.898   6.877   4.416  0.6622 -0.3500  0.3905
  733MOL0     C98835   3.933   6.761   4.310 -0.3826 -0.2129 -0.7774
  733MOL0     C98836   4.004   6.649   4.382  0.4309  0.5338 -0.9679
  733MOL0     N98837   4.124   6.683   4.448 -0.2218 -0.2836  0.1337
  733MOL0     C98838   4.169   6.604   4.543 -0.4245  0.3828 -0.4789
  733MOL0     C98839   4.305   6.636   4.540  0.5030  0.5546 -0.1908
  733MOL0     C98840   4.407   6.584   4.638  0.3500 -0.9266 -0.3899
  733MOL0     C98841   4.513   6.489   4.574  0.3108 -0.4786  0.0884
  733MOL0     C98842   4.616   6.447   4.670 -0.2483 -0.1418 -0.3818
  733MOL0     C98843   4.725   6.355   4.611  0.0036  0.0661 -1.0727
  733MOL0     O98844   4.826   6.435   4.565  0.5438 -1.1128  0.1292
  733MOL0     C98845   4.958   6.403   4.588 -1.0271 -0.5785  0.4137
  733MOL0     C98846   5.061   6.497   4.575 -0.2361 -0.1373  0.2190
  733MOL0     C98847   5.198   6.460   4.548  0.6960  0.0418 -0.8658
  733MOL0     C98848   5.221   6.325   4.545 -0.5871  0.7532  0.1841
  733MOL0     C98849   5.363   6.277   4.524  0.3493  1.1709  0.5705
  733MOL0     O98850   5.457   6.365   4.505 -0.4801 -0.1339  0.4351
  733MOL0     C98851   5.584   6.324   4.466  0.0644 -0.4849 -1.0974
  733MOL0     C98852   5.684   6.285   4.556 -0.1480 -0.4243 -0.6200
  733MOL0     C98853   5.813   6.261   4.514  0.2967 -0.7819 -0.3492
  733MOL0     C98854   5.846   6.286   4.378 -0.6486  0.0838  0.1870
  733MOL0     O98855   5.976   6.283   4.333  0.0702 -1.0933 -0.1281
  733MOL0     C98856   6.076   6.201   4.390 -0.9646  0.3514 -0.3614
  733MOL0     C98857   6.220   6.254   4.364 -0.1701 -0.2298 -0.4818
  733MOL0     C98858   6.246   6.394   4.429 -0.1310  0.4606  0.1638
  733MOL0     C98859   6.396   6.425   4.465  1.3359  0.0604 -0.5054
  733MOL0     C98860   6.398   6.561   4.540 -0.6117  0.2799  0.2166
  733MOL0     C98861   6.546   6.623   4.537 -0.5686  0.1998  0.0719
  733MOL0     C98862   6.576   6.731   4.644 -0.1341  0.1639  0.5285
  733MOL0     C98863   6.701   6.823   4.609  0.5954 -0.0999  0.2742
  733MOL0    Cl98864   6.823   6.736   4.521 -0.0160  0.5774 -0.1500
  733MOL0     C98865   5.746   6.329   4.293  0.8942 -0.0811 -0.2189
  733MOL0     C98866   5.614   6.343   4.333 -0.1697  0.2208 -0.1479
  733MOL0     O98867   5.377   6.156   4.519 -0.4308  0.0886  0.2678
  733MOL0     C98868   5.117   6.230   4.567 -0.7520  0.6487 -0.1045
  733MOL0     C98869   4.992   6.271   4.598 -0.0458 -0.2210 -0.5850
  733MOL0     N98870   4.338   6.716   4.432 -1.0185  0.7328 -0.2337
  733MOL0     N98871   4.225   6.746   4.382 -0.5070 -0.9254  0.5478
  733MOL0     C98872   3.771   7.726   4.260  0.8003 -0.1602 -0.1343
  733MOL0     C98873   3.758   7.864   4.238 -0.7473 -0.6155 -0.3756
  733MOL0     C98874   3.656   8.202   3.986  0.2215 -0.5296 -0.2421
  733MOL0     C98875   3.579   8.296   4.073 -1.2497 -0.3476  0.5719
  733MOL0     C98876   3.544   8.420   4.033  0.6975  0.4113  0.1899
  733MOL0     C98877   3.583   8.458   3.904  1.0448 -0.0130  0.3385
  733MOL0     O98878   3.539   8.586   3.859  0.7854 -0.3432  0.2969
  733MOL0     C98879   3.414   8.586   3.776 -0.1790  1.1550  0.3541
  733MOL0     C98880   3.374   8.731   3.751  0.7070 -0.9176 -0.0962
  733MOL0     C98881   3.249   8.737   3.665 -0.0290  0.4308 -0.0769
  733MOL0     C98882   3.216   8.890   3.643  0.0587 -0.3322 -0.0423
  733MOL0     C98883   3.076   8.891   3.603  0.2016  0.4163  0.2537
  733MOL0     C98884   2.962   8.895   3.558  0.7134 -0.2889 -0.1505
  733MOL0     C98885   3.648   8.373   3.817  0.0447  0.7134  0.0960
  733MOL0     C98886   3.683   8.241   3.856 -0.7578  0.2682  0.5908
  733MOL0     C98887   3.775   8.171   3.761  0.3294  1.1979  0.0800
  733MOL0     H98888   3.437   7.876   4.184  1.8740  1.1366 -0.9932
  733MOL0     H98889   3.444   7.625   4.267 -1.0591  1.8910 -1.7664
  733MOL0     H98890   3.607   7.526   4.485  2.8094  0.4320 -0.4570
  733MOL0     H98891   3.539   7.383   4.396 -0.4492 -0.6711  1.2788
  733MOL0     H98892   3.667   7.314   4.554 -0.2756  0.8791 -0.0638
  733MOL0     H98893   3.811   7.411   4.517 -1.2035  0.6442  2.1402
  733MOL0     H98894   3.855   7.288   4.299 -2.3913 -1.6687 -2.3656
  733MOL0     H98895   3.691   7.224   4.325 -1.3190  2.6853  2.2103
  733MOL0     H98896   3.942   7.144   4.471  1.3609 -3.2718 -3.5603
  733MOL0     H98897   3.779   7.095   4.517 -0.9722  1.3511  0.4427
  733MOL0     H98898   3.774   6.989   4.270  1.3223  2.3702 -2.0672
  733MOL0     H98899   3.952   7.030   4.276  1.8388 -1.0096  0.0324
  733MOL0     H98900   3.978   6.912   4.482  1.0904  4.9155 -2.3248
  733MOL0     H98901   3.804   6.850   4.465  0.1291  1.4531  0.4445
  733MOL0     H98902   3.994   6.800   4.229  0.2207  1.4480  0.4101
  733MOL0     H98903   3.844   6.711   4.272 -0.4834  0.2128 -1.1005
  733MOL0     H98904   3.931   6.610   4.453 -0.3935  2.6345 -0.5943
  733MOL0     H98905   4.033   6.570   4.313  0.6237 -3.7908  3.5262
  733MOL0     H98906   4.121   6.531   4.607  1.9000 -0.0232  0.9537
  733MOL0     H98907   4.459   6.666   4.689 -1.4154  1.2663 -1.9252
  733MOL0     H98908   4.367   6.520   4.717 -1.9498 -0.1599 -0.8736
  733MOL0     H98909   4.463   6.399   4.538  2.3842 -0.6255 -2.8685
  733MOL0     H98910   4.555   6.542   4.488 -0.2421  0.4889  0.4018
  733MOL0     H98911   4.570   6.386   4.748  2.1181 -0.9172  0.5132
  733MOL0     H98912   4.662   6.532   4.721  1.1269 -1.8602  1.4144
  733MOL0     H98913   4.683   6.288   4.535 -1.9639 -1.0900  0.9112
  733MOL0     H98914   4.758   6.284   4.687  0.5913 -1.6816 -2.8547
  733MOL0     H98915   5.038   6.601   4.559 -1.3716 -0.5174 -0.7581
  733MOL0     H98916   5.270   6.537   4.525  2.2025 -1.4655 -1.4364
  733MOL0     H98917   5.667   6.277   4.663  5.1833  2.7740  0.8841
  733MOL0     H98918   5.898   6.239   4.578 -0.3672  0.3045  0.9517
  733MOL0     H98919   6.063   6.168   4.494 -1.8326 -3.9028 -1.5953
  733MOL0     H98920   6.075   6.107   4.333 -0.3667  0.4116 -0.4766
  733MOL0     H98921   6.290   6.183   4.410 -0.6222  0.0087  0.6063
  733MOL0     H98922   6.234   6.262   4.256 -1.2396 -0.8281 -0.6873
  733MOL0     H98923   6.196   6.467   4.364  1.0000 -1.8230 -3.6044
  733MOL0     H98924   6.196   6.391   4.526 -0.5575  1.3801 -0.0085
  733MOL0     H98925   6.451   6.425   4.371  1.1113  1.7111 -0.6544
  733MOL0     H98926   6.430   6.339   4.523  0.3090 -2.4651 -3.3593
  733MOL0     H98927   6.352   6.550   4.638 -1.3388 -2.1603 -0.3487
  733MOL0     H98928   6.344   6.630   4.474  0.0832 -1.5500 -2.4082
  733MOL0     H98929   6.623   6.546   4.552  1.2891  1.8420 -0.5559
  733MOL0     H98930   6.574   6.648   4.435  0.2745 -2.7784 -0.5211
  733MOL0     H98931   6.582   6.676   4.739 -0.9614 -1.4006 -0.2871
  733MOL0     H98932   6.491   6.798   4.661 -1.2154 -1.0266  0.0119
  733MOL0     H98933   6.658   6.908   4.555 -1.4034 -0.6298  0.9353
  733MOL0     H98934   6.752   6.874   4.692 -0.5627 -2.2924  2.4571
  733MOL0     H98935   5.770   6.354   4.190 -0.4154 -0.5817 -0.6708
  733MOL0     H98936   5.537   6.387   4.269 -2.2562  0.7481  2.5375
  733MOL0     H98937   5.138   6.124   4.573 -0.0017  0.9000  2.8925
  733MOL0     H98938   4.914   6.197   4.610  0.4980 -1.3590 -3.2493
  733MOL0     H98939   3.869   7.680   4.261  1.7694  1.1406 -5.2637
  733MOL0     H98940   3.848   7.923   4.237  0.0336 -1.7033  0.9909
  733MOL0     H98941   3.550   8.264   4.173  0.5335 -0.0360  1.2283
  733MOL0     H98942   3.482   8.472   4.105  0.2753 -0.0531  0.1689
  733MOL0     H98943   3.340   8.531   3.835  0.8931  1.9977  2.5930
  733MOL0     H98944   3.439   8.542   3.679  0.2619  0.0416  0.9603
  733MOL0     H98945   3.462   8.780   3.708  1.3461 -2.8323 -1.1087
  733MOL0     H98946   3.354   8.769   3.852  3.8178  1.4293 -0.2049
  733MOL0     H98947   3.163   8.695   3.719 -2.7326  0.7615 -3.6894
  733MOL0     H98948   3.264   8.679   3.573 -0.3387 -3.9277  2.3149
  733MOL0     H98949   3.241   8.957   3.726  1.0251  0.5006 -0.9839
  733MOL0     H98950   3.284   8.926   3.565  3.0372 -1.1496  1.9930
  733MOL0     H98951   2.865   8.885   3.514  0.8255 -0.1868 -0.4262
  733MOL0     H98952   3.682   8.404   3.719  0.9058  1.2685  0.5516
  733MOL0     H98953   3.809   8.233   3.678  0.8954 -2.3023 -2.5166
  733MOL0     H98954   3.865   8.139   3.815 -0.3471 -0.8452  0.0743
  733MOL0     H98955   3.711   8.088   3.732  2.3348 -0.1327 -0.7372
  734MOL0     O98956   7.219   7.666   2.720 -0.1857 -0.8672 -0.0615
  734MOL0     C98957   7.168   7.566   2.664 -0.0229 -0.2283  0.8536
  734MOL0     O98958   7.230   7.447   2.636  0.8130  0.3796 -0.5672
  734MOL0     C98959   7.361   7.420   2.670  0.2680 -0.2854  0.0374
  734MOL0     C98960   7.391   7.311   2.739 -0.1247  0.6591  0.0693
  734MOL0     C98961   7.513   7.276   2.772 -0.5991 -0.5201 -0.2481
  734MOL0     C98962   7.618   7.354   2.754  0.8907 -0.6222  0.4635
  734MOL0     O98963   7.742   7.312   2.798  0.4525  0.3813 -0.0960
  734MOL0     C98964   7.855   7.343   2.722  0.6367 -0.9393 -0.6409
  734MOL0     C98965   7.982   7.274   2.757 -0.4447  0.1635 -0.1385
  734MOL0     C98966   7.967   7.116   2.781  0.3146 -0.7728  0.6633
  734MOL0     C98967   8.109   7.075   2.803  0.5114 -0.4658  0.1281
  734MOL0     C98968   8.117   6.938   2.871  0.5066 -0.0033  0.0369
  734MOL0     C98969   8.069   6.824   2.774 -0.8007 -0.5655 -0.0720
  734MOL0     C98970   8.171   6.709   2.770  0.4444 -0.4426  0.8688
  734MOL0     C98971   8.095   6.590   2.704 -0.1065 -0.5312 -0.0703
  734MOL0     N98972   8.192   6.490   2.647 -0.6878 -0.0206  0.6915
  734MOL0     C98973   8.315   6.517   2.592  0.5395  0.6439 -1.1341
  734MOL0     C98974   8.378   6.400   2.553 -1.1192 -0.1252 -0.4813
  734MOL0     C98975   8.522   6.381   2.504 -0.6762 -0.3414 -0.7635
  734MOL0     C98976   8.620   6.418   2.624  0.5758 -0.2206  0.5148
  734MOL0     C98977   8.754   6.357   2.581  0.0914 -0.1054 -1.1107
  734MOL0     C98978   8.867   6.388   2.678 -0.5546 -0.2432 -0.4376
  734MOL0     O98979   8.982   6.340   2.612  0.1260  0.6715  0.1685
  734MOL0     C98980   9.098   6.354   2.684 -0.5382 -0.7352 -0.5473
  734MOL0     C98981   9.172   6.468   2.677 -0.0134 -0.7491  0.0043
  734MOL0     C98982   9.295   6.490   2.739  0.0182  0.4488 -0.5376
  734MOL0     C98983   9.353   6.379   2.804  0.2388 -0.1050 -0.1890
  734MOL0     C98984   9.488   6.391   2.864  0.8636  0.5426 -1.0569
  734MOL0     O98985   9.537   6.265   2.919 -0.1210  0.1978  0.1042
  734MOL0     C98986   9.657   6.260   2.986 -0.5705  0.2101  0.7912
  734MOL0     C98987   9.655   6.220   3.122 -0.1361  0.2544 -0.2871
  734MOL0     C98988   9.775   6.216   3.192 -0.6281 -0.3938 -0.4054
  734MOL0     C98989   9.883   6.267   3.137  0.2796  0.4884  0.4782
  734MOL0     O98990   9.995   6.263   3.213  0.1079 -0.8387 -0.8112
  734MOL0     C98991  10.121   6.327   3.183 -0.2686  0.1895 -0.3216
  734MOL0     C98992  10.231   6.235   3.239  0.8668  0.1074  0.4730
  734MOL0     C98993  10.249   6.242   3.385 -0.6801  0.5997 -0.0624
  734MOL0     C98994  10.381   6.162   3.408  0.8753 -0.5438 -0.8950
  734MOL0     C98995  10.400   6.113   3.556  0.1631  0.1736  0.1773
  734MOL0     C98996  10.395   6.232   3.650 -0.5824  0.9867  0.0573
  734MOL0     C98997  10.510   6.332   3.650 -0.6672  0.3388 -0.2671
  734MOL0     C98998  10.497   6.447   3.754 -0.4021  0.1338 -0.1258
  734MOL0    Cl98999  10.360   6.555   3.708  0.3124 -0.2469  0.3085
  734MOL0     C99000   9.889   6.304   3.002 -0.0110  0.7634 -0.2100
  734MOL0     C99001   9.775   6.291   2.927 -0.8133  0.2194  1.1373
  734MOL0     O99002   9.542   6.493   2.875 -1.0156 -0.7433 -0.2378
  734MOL0     C99003   9.282   6.255   2.806 -0.1655  0.1758 -1.0674
  734MOL0     C99004   9.160   6.247   2.745  0.2468 -0.1906  0.2648
  734MOL0     N99005   8.293   6.295   2.582  0.0910 -0.6318 -0.3889
  734MOL0     N99006   8.178   6.350   2.633 -0.6184  0.2928  0.4015
  734MOL0     C99007   7.601   7.475   2.688 -0.6153  1.3155  0.4436
  734MOL0     C99008   7.473   7.507   2.634  0.1624 -0.1234 -0.1791
  734MOL0     C99009   7.030   7.582   2.619  0.4691  0.5495 -0.6743
  734MOL0     C99010   6.948   7.466   2.610 -0.0454  0.2290  0.6890
  734MOL0     C99011   6.813   7.471   2.602  0.4904  0.0327  0.2093
  734MOL0     C99012   6.756   7.593   2.563  0.2214 -0.2310 -0.3817
  734MOL0     O99013   6.625   7.617   2.546  0.7574 -0.4901  0.0392
  734MOL0     C99014   6.533   7.509   2.532 -0.2704  0.2232  0.2597
  734MOL0     C99015   6.550   7.426   2.398 -0.0336  0.3661  0.2287
  734MOL0     C99016   6.426   7.440   2.307  0.0089  0.2189  0.2180
  734MOL0     C99017   6.414   7.579   2.245 -0.0778 -0.0271 -0.3058
  734MOL0     C99018   6.276   7.615   2.219 -0.2345 -0.4321  0.1118
  734MOL0     C99019   6.154   7.617   2.212 -0.3131 -0.1750 -0.2983
  734MOL0     C99020   6.843   7.705   2.552  0.4891 -0.6058 -0.0076
  734MOL0     C99021   6.974   7.707   2.577  0.1857 -0.2259 -0.3935
  734MOL0     C99022   7.053   7.837   2.551 -0.9131  0.3140 -0.5341
  734MOL0     H99023   7.320   7.232   2.763  0.0560  0.9477  1.6821
  734MOL0     H99024   7.521   7.175   2.812  0.0227  0.5318  2.5388
  734MOL0     H99025   7.826   7.319   2.619 -2.0186  1.4087 -0.5544
  734MOL0     H99026   7.861   7.452   2.726  0.0371 -0.8750 -1.3058
  734MOL0     H99027   8.021   7.333   2.841 -0.9516 -0.3687  0.4827
  734MOL0     H99028   8.037   7.295   2.665 -1.1659  0.9314 -0.4031
  734MOL0     H99029   7.932   7.072   2.687  1.8654 -0.1745 -0.2349
  734MOL0     H99030   7.907   7.088   2.868  0.4834  0.4189  1.1747
  734MOL0     H99031   8.151   7.066   2.702  1.2117  1.4102  0.2048
  734MOL0     H99032   8.173   7.142   2.862  0.3179 -0.7340  0.6439
  734MOL0     H99033   8.219   6.931   2.909  0.1917  0.8749  1.0768
  734MOL0     H99034   8.040   6.935   2.948 -0.7307 -0.4694 -1.1804
  734MOL0     H99035   7.967   6.801   2.807  0.1844 -2.1024  2.1963
  734MOL0     H99036   8.053   6.857   2.671  0.0378  0.0056 -0.0285
  734MOL0     H99037   8.197   6.687   2.874 -1.4795 -0.8039  1.3139
  734MOL0     H99038   8.251   6.747   2.707 -2.0344  0.7632 -1.7530
  734MOL0     H99039   8.024   6.546   2.775 -0.1021 -2.0821 -0.9672
  734MOL0     H99040   8.040   6.634   2.620  3.4351  2.1328 -1.2392
  734MOL0     H99041   8.362   6.615   2.591  2.3700 -0.1209  1.0960
  734MOL0     H99042   8.531   6.274   2.486 -1.0379 -0.3485 -0.9176
  734MOL0     H99043   8.527   6.443   2.414  0.3702  3.0040  1.4297
  734MOL0     H99044   8.624   6.526   2.636 -3.4109  0.0521  0.7564
  734MOL0     H99045   8.596   6.369   2.719 -0.1937  0.0069  0.4435
  734MOL0     H99046   8.775   6.403   2.484  0.4071  0.6638 -0.6904
  734MOL0     H99047   8.754   6.249   2.561 -1.1833 -0.1412 -0.9710
  734MOL0     H99048   8.856   6.323   2.765  2.1800  1.2530  1.1769
  734MOL0     H99049   8.876   6.488   2.721  4.8203 -0.9772  0.8194
  734MOL0     H99050   9.120   6.537   2.611  1.3817 -1.1172 -1.5386
  734MOL0     H99051   9.345   6.586   2.730  1.0809  0.1077  1.2432
  734MOL0     H99052   9.565   6.187   3.171 -0.4849 -1.0108 -1.6952
  734MOL0     H99053   9.786   6.185   3.295  4.3336 -0.7343 -0.8052
  734MOL0     H99054  10.133   6.357   3.079  0.7731 -1.1243 -0.5974
  734MOL0     H99055  10.119   6.425   3.232  0.1708 -0.0501  0.1795
  734MOL0     H99056  10.203   6.133   3.210  3.7099 -1.0001  1.2873
  734MOL0     H99057  10.323   6.256   3.184 -1.8339  1.3790 -4.1251
  734MOL0     H99058  10.266   6.346   3.415  2.4786  0.3610 -0.7435
  734MOL0     H99059  10.164   6.197   3.437 -0.0296  3.4561  3.9418
  734MOL0     H99060  10.468   6.227   3.391  0.2907  1.1974  2.0649
  734MOL0     H99061  10.388   6.082   3.334 -0.1551  0.7850 -2.4882
  734MOL0     H99062  10.487   6.046   3.565  0.4176  0.6857  1.9332
  734MOL0     H99063  10.315   6.047   3.575 -0.2343  0.0586 -1.7328
  734MOL0     H99064  10.306   6.292   3.632 -0.0402  2.0385  0.7868
  734MOL0     H99065  10.373   6.189   3.748 -1.9907 -3.5430 -1.9791
  734MOL0     H99066  10.523   6.383   3.554 -1.2284  1.3450  0.1863
  734MOL0     H99067  10.601   6.274   3.670 -0.9880  0.8424  3.3115
  734MOL0     H99068  10.476   6.409   3.855 -1.5555 -2.0083 -1.1126
  734MOL0     H99069  10.591   6.503   3.755 -2.2012  3.4042  0.4326
  734MOL0     H99070   9.982   6.342   2.960  1.0970 -0.1630  1.3002
  734MOL0     H99071   9.773   6.315   2.821  1.1149  2.4122  1.5162
  734MOL0     H99072   9.325   6.170   2.858  2.0514  1.2664 -1.0189
  734MOL0     H99073   9.120   6.147   2.755 -0.7834  0.3736  2.7841
  734MOL0     H99074   7.673   7.556   2.677 -2.1573  2.5306 -1.2698
  734MOL0     H99075   7.454   7.605   2.592 -0.2889  0.0413  0.3779
  734MOL0     H99076   6.991   7.370   2.639 -3.2623 -1.1121  1.4806
  734MOL0     H99077   6.752   7.384   2.623  0.5951 -0.0614  0.1196
  734MOL0     H99078   6.430   7.544   2.545 -1.5018 -3.3401  1.3005
  734MOL0     H99079   6.549   7.431   2.608 -0.9151  0.0623  0.2351
  734MOL0     H99080   6.562   7.318   2.411  1.1054  0.0425 -2.5795
  734MOL0     H99081   6.642   7.453   2.345 -0.7071  0.6272 -0.8351
  734MOL0     H99082   6.344   7.411   2.374  2.1020 -1.6484  2.1282
  734MOL0     H99083   6.432   7.364   2.228  3.9493  2.1981 -1.6322
  734MOL0     H99084   6.471   7.659   2.292 -2.6261  0.8757  1.4749
  734MOL0     H99085   6.463   7.577   2.147  0.5011  0.0927 -0.0184
  734MOL0     H99086   6.048   7.615   2.205 -0.3663 -1.6976  0.5618
  734MOL0     H99087   6.780   7.791   2.532  1.2201  0.0083  0.2565
  734MOL0     H99088   7.059   7.908   2.634  0.7997 -0.8363  0.3840
  734MOL0     H99089   7.156   7.808   2.527 -0.2942 -0.0499  2.2288
  734MOL0     H99090   7.011   7.883   2.461 -1.3967 -0.2253 -0.5853
  735MOL0     O99091   0.239   3.052   8.406 -0.0651  0.4353  0.0877
  735MOL0     C99092   0.226   3.175   8.406 -0.0230  0.6015  0.3935
  735MOL0     O99093   0.115   3.238   8.394  0.1836 -0.1912  0.0404
  735MOL0     C99094   0.012   3.166   8.333  0.3039  0.0292 -0.0668
  735MOL0     C99095  -0.076   3.084   8.414  0.4351  0.0486  0.3940
  735MOL0     C99096  -0.159   3.004   8.357 -0.4088 -0.3600  0.6317
  735MOL0     C99097  -0.195   3.024   8.218 -0.4716 -0.1792  0.0689
  735MOL0     O99098  -0.297   2.959   8.159  0.5822 -0.3572 -0.0949
  735MOL0     C99099  -0.381   3.048   8.078 -0.2734 -0.2916 -0.3066
  735MOL0     C99100  -0.505   2.980   8.022 -0.9828  0.5288 -0.5424
  735MOL0     C99101  -0.459   2.857   7.940 -0.4426 -0.2225 -0.2261
  735MOL0     C99102  -0.568   2.803   7.850 -0.6396 -0.7805 -0.2225
  735MOL0     C99103  -0.537   2.667   7.790 -0.9442  1.0313 -0.3706
  735MOL0     C99104  -0.504   2.543   7.878 -1.0031  0.3546 -0.0461
  735MOL0     C99105  -0.619   2.516   7.997 -1.3538 -0.9443 -0.2233
  735MOL0     C99106  -0.543   2.444   8.110 -0.9323 -0.5009 -0.3815
  735MOL0     N99107  -0.637   2.419   8.222  0.4370  1.2677 -0.6057
  735MOL0     C99108  -0.759   2.370   8.205 -1.3700  0.2568 -0.9450
  735MOL0     C99109  -0.801   2.384   8.335  0.0614 -0.2875  0.5775
  735MOL0     C99110  -0.934   2.332   8.380 -0.6764 -0.0653  0.7070
  735MOL0     C99111  -0.922   2.201   8.454  0.3265  0.2441 -0.7416
  735MOL0     C99112  -1.054   2.201   8.532  0.1172  0.5936  0.3594
  735MOL0     C99113  -1.050   2.063   8.604  0.2014  0.0225 -0.0013
  735MOL0     O99114  -1.168   2.053   8.686 -0.7781 -0.1228  0.0076
  735MOL0     C99115  -1.258   1.967   8.633  0.4941 -0.1805 -0.5329
  735MOL0     C99116  -1.351   2.015   8.537  0.2692 -0.5771  0.1247
  735MOL0     C99117  -1.452   1.946   8.474  0.6601 -0.9277  0.1523
  735MOL0     C99118  -1.467   1.814   8.517 -0.2483  0.2878  0.6699
  735MOL0     C99119  -1.575   1.726   8.455  0.0031  0.4091  0.5914
  735MOL0     O99120  -1.664   1.787   8.384  1.0770  0.7480 -0.7193
  735MOL0     C99121  -1.781   1.725   8.343  0.0516  0.3244 -0.7547
  735MOL0     C99122  -1.888   1.715   8.436 -0.3848 -0.2174 -0.3595
  735MOL0     C99123  -2.003   1.643   8.408 -0.6253 -0.0320  0.0492
  735MOL0     C99124  -2.018   1.584   8.285 -0.3622  0.0545  0.3044
  735MOL0     O99125  -2.132   1.513   8.254 -0.5529 -0.1142 -0.1197
  735MOL0     C99126  -2.225   1.471   8.363 -0.4108  0.9638 -0.2282
  735MOL0     C99127  -2.335   1.396   8.299 -0.3684 -0.4964  0.3322
  735MOL0     C99128  -2.427   1.488   8.210  0.1161  0.3809  0.1950
  735MOL0     C99129  -2.561   1.427   8.175  0.3327 -0.5927 -0.1299
  735MOL0     C99130  -2.633   1.504   8.062  0.9115  0.6088 -0.5845
  735MOL0     C99131  -2.769   1.444   8.042  0.1402 -0.4623  0.3329
  735MOL0     C99132  -2.857   1.517   7.934  0.0286  0.6689 -0.0493
  735MOL0     C99133  -2.980   1.426   7.910 -0.5832 -0.6023  0.0394
  735MOL0    Cl99134  -3.082   1.408   8.066  0.0905  0.4627 -0.5443
  735MOL0     C99135  -1.912   1.589   8.192 -1.7044 -0.0870  0.6748
  735MOL0     C99136  -1.790   1.656   8.223  0.5453  0.5666  0.1454
  735MOL0     O99137  -1.584   1.612   8.489 -0.6065  0.0752  0.0382
  735MOL0     C99138  -1.375   1.757   8.603  0.1154  0.3640  0.6390
  735MOL0     C99139  -1.272   1.829   8.660  0.2414  0.8120 -0.5967
  735MOL0     N99140  -0.707   2.438   8.421 -0.1484 -0.2839 -0.0334
  735MOL0     N99141  -0.606   2.467   8.346  0.3718  0.5625  0.2711
  735MOL0     C99142  -0.106   3.108   8.140  0.2534  1.0805 -0.5491
  735MOL0     C99143  -0.002   3.165   8.193  0.7005 -0.4958  0.0759
  735MOL0     C99144   0.350   3.250   8.414  0.0205 -0.7132  0.5234
  735MOL0     C99145   0.359   3.360   8.325 -0.3117  0.2302 -0.0898
  735MOL0     C99146   0.470   3.445   8.330 -0.1594 -0.5967 -0.5648
  735MOL0     C99147   0.574   3.424   8.416  0.0006 -0.4075  1.1937
  735MOL0     O99148   0.683   3.504   8.403 -0.1500 -0.8337  0.2894
  735MOL0     C99149   0.794   3.495   8.499 -0.0767  0.7847 -0.2942
  735MOL0     C99150   0.921   3.566   8.460  0.3009 -1.1693  0.6672
  735MOL0     C99151   1.031   3.482   8.522 -0.5223  0.1759 -0.0479
  735MOL0     C99152   1.174   3.539   8.538  1.5753 -0.7722 -0.3266
  735MOL0     C99153   1.177   3.660   8.625 -0.3403  0.4583  0.0088
  735MOL0     C99154   1.176   3.756   8.697 -0.3358 -0.2963 -0.1730
  735MOL0     C99155   0.559   3.322   8.520 -0.3863  0.2105 -0.1587
  735MOL0     C99156   0.444   3.235   8.509  0.6806  0.0304 -0.3333
  735MOL0     C99157   0.421   3.140   8.624 -0.0097  1.0835  0.2489
  735MOL0     H99158  -0.059   3.066   8.519  0.1313 -1.4172  0.2089
  735MOL0     H99159  -0.217   2.935   8.417 -0.1442 -2.7110 -1.6650
  735MOL0     H99160  -0.413   3.127   8.146 -0.0118 -0.5022  0.0655
  735MOL0     H99161  -0.328   3.089   7.991 -1.9396 -1.5464 -1.9887
  735MOL0     H99162  -0.548   3.049   7.949  1.9738  1.2872 -1.7272
  735MOL0     H99163  -0.573   2.951   8.103  1.3007  0.0606  1.3135
  735MOL0     H99164  -0.424   2.780   8.010 -3.4130 -0.0177  1.6998
  735MOL0     H99165  -0.374   2.886   7.877 -0.5397 -2.0484 -1.2665
  735MOL0     H99166  -0.660   2.794   7.909  0.1249 -0.8555  0.9914
  735MOL0     H99167  -0.585   2.887   7.782 -3.8994  0.8171  2.2752
  735MOL0     H99168  -0.618   2.637   7.723 -1.4576  1.4971  0.0337
  735MOL0     H99169  -0.441   2.677   7.738 -0.2012 -0.0178  0.7401
  735MOL0     H99170  -0.494   2.445   7.829 -0.0062 -0.6554  2.0464
  735MOL0     H99171  -0.413   2.564   7.935  1.3358 -0.0971 -3.3613
  735MOL0     H99172  -0.685   2.443   7.949 -0.3320 -0.9147 -1.7703
  735MOL0     H99173  -0.670   2.605   8.035 -1.2690 -1.0158  0.0543
  735MOL0     H99174  -0.500   2.351   8.071  2.0183  1.2461 -1.6227
  735MOL0     H99175  -0.463   2.515   8.134 -2.5125  0.5461  2.2817
  735MOL0     H99176  -0.808   2.316   8.124  1.0519  1.1767 -3.1758
  735MOL0     H99177  -0.974   2.406   8.450 -4.4844 -4.1745  3.4292
  735MOL0     H99178  -1.002   2.312   8.296 -1.0147 -4.9148  1.8143
  735MOL0     H99179  -0.904   2.115   8.390  3.2124  0.5512 -0.4935
  735MOL0     H99180  -0.839   2.204   8.526 -1.0260 -0.7687  0.9239
  735MOL0     H99181  -1.141   2.210   8.466  0.5872 -2.2145 -0.7912
  735MOL0     H99182  -1.059   2.273   8.614 -1.3534  0.4728  0.3989
  735MOL0     H99183  -0.961   2.064   8.668 -2.0624 -1.0028  3.4016
  735MOL0     H99184  -1.048   1.986   8.526 -0.7948  0.8658 -0.8911
  735MOL0     H99185  -1.341   2.116   8.498  1.8468 -1.8798 -3.1706
  735MOL0     H99186  -1.517   1.992   8.399  1.3063  0.0398  0.1627
  735MOL0     H99187  -1.874   1.770   8.529  1.9600 -0.4196 -0.5167
  735MOL0     H99188  -2.065   1.628   8.495  3.3925 -0.1584  3.1533
  735MOL0     H99189  -2.170   1.398   8.424 -0.5856 -1.3425 -2.6445
  735MOL0     H99190  -2.258   1.556   8.423 -0.5499  0.7408  0.0157
  735MOL0     H99191  -2.294   1.315   8.237 -0.4539 -0.0777 -0.2863
  735MOL0     H99192  -2.397   1.365   8.383 -0.9043  0.5612  0.3469
  735MOL0     H99193  -2.434   1.590   8.249 -0.8023  0.5704 -0.4344
  735MOL0     H99194  -2.377   1.502   8.113 -1.7409 -0.4359 -0.9433
  735MOL0     H99195  -2.630   1.436   8.259 -0.3191 -0.9565 -0.6138
  735MOL0     H99196  -2.555   1.319   8.156 -2.2074 -0.6828 -0.8849
  735MOL0     H99197  -2.575   1.490   7.971 -0.5065  0.7545 -1.5511
  735MOL0     H99198  -2.645   1.610   8.084 -0.0545  0.1933  1.0845
  735MOL0     H99199  -2.761   1.335   8.031  0.0248 -0.4596  0.2203
  735MOL0     H99200  -2.823   1.459   8.136 -0.3212 -1.2710  0.2079
  735MOL0     H99201  -2.805   1.528   7.838  1.3922  0.4668  0.6393
  735MOL0     H99202  -2.876   1.620   7.964  1.0993  1.0576 -0.6564
  735MOL0     H99203  -3.037   1.479   7.834 -3.4755 -1.0054  1.8043
  735MOL0     H99204  -2.951   1.329   7.868 -0.7993 -0.9339  0.6522
  735MOL0     H99205  -1.922   1.541   8.095 -2.6512  1.6692 -0.1420
  735MOL0     H99206  -1.696   1.651   8.169  0.6003 -0.7824  0.3184
  735MOL0     H99207  -1.379   1.650   8.622  1.9964 -0.6205 -3.4009
  735MOL0     H99208  -1.212   1.781   8.736 -1.5741  4.1480  3.3531
  735MOL0     H99209  -0.110   3.104   8.031 -0.0446  0.1550 -0.5142
  735MOL0     H99210   0.069   3.216   8.128  4.0535 -3.8693  0.7883
  735MOL0     H99211   0.287   3.368   8.244 -1.4254 -1.7247  0.6249
  735MOL0     H99212   0.465   3.517   8.248 -3.9402 -2.4328 -2.2175
  735MOL0     H99213   0.819   3.389   8.503 -0.1407  0.8007  1.1616
  735MOL0     H99214   0.748   3.512   8.597 -1.1861 -1.9719 -0.2266
  735MOL0     H99215   0.927   3.668   8.499 -2.8505 -1.2488  1.6709
  735MOL0     H99216   0.932   3.561   8.352 -0.7008 -0.3544  0.5184
  735MOL0     H99217   1.033   3.382   8.476 -1.2779  0.6703 -1.2132
  735MOL0     H99218   0.996   3.464   8.624 -0.7094 -2.1504 -0.4755
  735MOL0     H99219   1.226   3.460   8.593  0.8225 -0.6891  0.5128
  735MOL0     H99220   1.228   3.559   8.445  3.4907 -2.4054  0.3536
  735MOL0     H99221   1.161   3.835   8.768  0.3278  0.6483 -1.0519
  735MOL0     H99222   0.632   3.318   8.600 -0.0002 -1.1450 -0.5535
  735MOL0     H99223   0.405   3.038   8.587 -2.4824  2.6038 -3.4158
  735MOL0     H99224   0.509   3.131   8.688  1.3995 -0.4985 -1.7763
  735MOL0     H99225   0.326   3.159   8.674 -0.0396 -1.0181  1.1019
  736MOL0     O99226   0.425   4.363   2.908 -0.5108 -0.3047  0.1072
  736MOL0     C99227   0.397   4.369   3.030 -0.0431 -0.0173  0.3658
  736MOL0     O99228   0.278   4.324   3.086 -0.5548 -0.7545 -0.2822
  736MOL0     C99229   0.175   4.288   3.006  0.4725  0.9407 -0.2789
  736MOL0     C99230   0.059   4.361   3.002  0.1927 -0.8594  0.0636
  736MOL0     C99231  -0.042   4.296   2.930  0.5070  0.2426  0.8324
  736MOL0     C99232  -0.025   4.202   2.825 -0.6162  0.5990  0.5605
  736MOL0     O99233  -0.132   4.155   2.750 -0.0255  0.1872  0.3391
  736MOL0     C99234  -0.117   4.114   2.622 -1.0094 -0.2497  0.0938
  736MOL0     C99235  -0.198   4.189   2.522  0.1770  0.5227 -0.4973
  736MOL0     C99236  -0.341   4.172   2.528  1.0066  0.0487 -0.4786
  736MOL0     C99237  -0.384   4.021   2.562 -0.5884  0.8670  0.0509
  736MOL0     C99238  -0.519   3.983   2.510 -0.1311 -0.2402  0.2831
  736MOL0     C99239  -0.562   3.845   2.550 -0.8789 -0.0935  0.9671
  736MOL0     C99240  -0.715   3.838   2.543  0.5123 -0.8509  0.3553
  736MOL0     C99241  -0.760   3.684   2.546 -0.2234  0.8666 -0.1613
  736MOL0     N99242  -0.904   3.685   2.500  1.0364  0.6660  0.4670
  736MOL0     C99243  -1.028   3.683   2.569 -0.6489 -0.1095 -0.2736
  736MOL0     C99244  -1.120   3.703   2.471  0.3481 -0.9058 -0.9913
  736MOL0     C99245  -1.269   3.734   2.479  0.1204  0.4995  0.0555
  736MOL0     C99246  -1.323   3.729   2.625  0.0873 -0.6019  0.1871
  736MOL0     C99247  -1.332   3.587   2.682 -0.6994 -0.3296 -1.0836
  736MOL0     C99248  -1.398   3.587   2.832 -0.8162  0.0503 -0.7071
  736MOL0     O99249  -1.315   3.666   2.915  0.0557 -0.2790 -0.1902
  736MOL0     C99250  -1.191   3.621   2.953 -0.0448 -0.3553 -0.1854
  736MOL0     C99251  -1.159   3.491   2.993  0.2123  0.0055 -0.2200
  736MOL0     C99252  -1.035   3.459   3.044 -0.2186  0.2720  0.4193
  736MOL0     C99253  -0.947   3.562   3.082 -0.2571  0.7103 -0.2316
  736MOL0     C99254  -0.806   3.538   3.134 -0.2969 -0.8276 -0.1595
  736MOL0     O99255  -0.732   3.650   3.174  0.3508 -0.6460  0.6625
  736MOL0     C99256  -0.600   3.637   3.202  0.4208  0.3980  0.1344
  736MOL0     C99257  -0.564   3.683   3.328  0.4713  0.9949  0.3978
  736MOL0     C99258  -0.431   3.676   3.370  0.4943 -0.6479  0.1823
  736MOL0     C99259  -0.326   3.636   3.275  0.0297 -0.7952  0.6441
  736MOL0     O99260  -0.193   3.636   3.312  0.2429 -0.3354  0.3174
  736MOL0     C99261  -0.083   3.628   3.222  0.3965  0.2302 -0.3448
  736MOL0     C99262   0.053   3.671   3.281 -1.2629 -0.1059 -0.1811
  736MOL0     C99263   0.118   3.563   3.373  0.0654 -0.5020  0.5214
  736MOL0     C99264   0.252   3.604   3.432 -0.0114 -0.3646  0.2421
  736MOL0     C99265   0.241   3.665   3.568  0.7047 -0.8600 -0.1273
  736MOL0     C99266   0.382   3.667   3.626  0.1911 -0.1202  0.4608
  736MOL0     C99267   0.383   3.776   3.736 -0.9673  0.3111  0.3244
  736MOL0     C99268   0.503   3.763   3.827  0.3262  0.2023 -0.2703
  736MOL0    Cl99269   0.484   3.886   3.959  0.0837 -0.4227  0.3043
  736MOL0     C99270  -0.365   3.595   3.141  0.6271 -0.0022 -0.0094
  736MOL0     C99271  -0.498   3.596   3.110  0.8283 -0.1023  0.2311
  736MOL0     O99272  -0.764   3.426   3.141  0.2972  0.1655  0.1434
  736MOL0     C99273  -0.983   3.703   3.056  1.0560  0.3226  0.3399
  736MOL0     C99274  -1.096   3.721   2.978  0.4083  0.0407  0.0291
  736MOL0     N99275  -1.056   3.717   2.348  0.1325 -0.4142  0.0988
  736MOL0     N99276  -0.931   3.716   2.366 -0.6689  0.4615  0.4805
  736MOL0     C99277   0.102   4.143   2.824 -0.6800  0.0784  0.1873
  736MOL0     C99278   0.196   4.180   2.920  0.1588  0.2487  0.0283
  736MOL0     C99279   0.483   4.443   3.123 -0.4380 -0.1617  0.2553
  736MOL0     C99280   0.427   4.484   3.245  0.6088 -0.3298  0.2365
  736MOL0     C99281   0.499   4.565   3.334  0.1700 -1.1020 -1.0515
  736MOL0     C99282   0.624   4.605   3.294 -0.2336 -0.1461 -0.7916
  736MOL0     O99283   0.716   4.656   3.383 -0.0306  0.9293 -0.5566
  736MOL0     C99284   0.683   4.767   3.467  0.0668  0.7377 -0.1259
  736MOL0     C99285   0.694   4.890   3.375 -0.3663 -0.4191  0.2501
  736MOL0     C99286   0.836   4.942   3.363  0.2094 -0.4884 -0.9631
  736MOL0     C99287   0.943   4.837   3.315  0.3640 -0.9549  0.0168
  736MOL0     C99288   1.061   4.913   3.284 -0.8091 -0.1646  0.5548
  736MOL0     C99289   1.157   4.985   3.244  0.7022 -0.4478  0.2843
  736MOL0     C99290   0.682   4.556   3.182  0.2257 -0.5209 -0.0650
  736MOL0     C99291   0.613   4.477   3.091  0.2688 -1.0448 -1.0938
  736MOL0     C99292   0.694   4.434   2.979  0.4154 -0.4692 -0.9874
  736MOL0     H99293   0.058   4.459   3.049 -0.3455  0.0869 -1.8063
  736MOL0     H99294  -0.144   4.332   2.931 -0.4937 -2.1908 -1.7702
  736MOL0     H99295  -0.015   4.125   2.584 -1.9407 -1.6920 -3.1861
  736MOL0     H99296  -0.138   4.007   2.608 -2.2108  0.3572 -3.7688
  736MOL0     H99297  -0.168   4.149   2.424 -2.0109 -0.4869 -0.8181
  736MOL0     H99298  -0.173   4.293   2.542 -0.0238  1.0644 -2.7597
  736MOL0     H99299  -0.388   4.191   2.431 -1.7436  1.8361  1.0576
  736MOL0     H99300  -0.388   4.237   2.603 -0.2588  0.8415 -1.9018
  736MOL0     H99301  -0.310   3.952   2.521  1.1796  2.6182  0.1217
  736MOL0     H99302  -0.391   4.004   2.670 -2.8380 -0.8706 -0.3111
  736MOL0     H99303  -0.593   4.052   2.552 -0.9953 -2.4946  2.8434
  736MOL0     H99304  -0.520   3.981   2.401  1.7182 -2.3058  0.2313
  736MOL0     H99305  -0.510   3.774   2.486  0.4316  0.7565  1.0421
  736MOL0     H99306  -0.542   3.822   2.655 -2.2086  0.3736  1.3503
  736MOL0     H99307  -0.755   3.898   2.461 -1.1879  1.2658  2.5924
  736MOL0     H99308  -0.760   3.884   2.631 -2.5805 -0.8010 -1.1230
  736MOL0     H99309  -0.694   3.625   2.481  0.5819  3.5910 -1.9862
  736MOL0     H99310  -0.747   3.643   2.647 -0.4371  1.8779  0.2934
  736MOL0     H99311  -1.043   3.680   2.677  1.8038  1.2812  0.1888
  736MOL0     H99312  -1.291   3.834   2.442 -1.5584  0.0814 -0.1716
  736MOL0     H99313  -1.323   3.665   2.414  1.9217 -0.0645 -0.9164
  736MOL0     H99314  -1.274   3.796   2.695  1.8242 -0.6396 -0.9290
  736MOL0     H99315  -1.421   3.775   2.611 -0.4924 -1.9978 -0.5386
  736MOL0     H99316  -1.234   3.539   2.694  0.0800  1.3192 -0.5188
  736MOL0     H99317  -1.397   3.529   2.616 -0.7625 -0.7746 -0.6317
  736MOL0     H99318  -1.406   3.486   2.874 -1.5168  0.7254  0.8833
  736MOL0     H99319  -1.500   3.627   2.828 -0.9587  0.9236  4.5030
  736MOL0     H99320  -1.232   3.412   2.976 -1.8765  1.9635 -0.8971
  736MOL0     H99321  -1.013   3.356   3.070 -0.1183  0.1919  0.0174
  736MOL0     H99322  -0.647   3.702   3.394 -0.4516  1.8891 -0.9668
  736MOL0     H99323  -0.413   3.684   3.476  1.2753 -1.0219  0.0868
  736MOL0     H99324  -0.083   3.525   3.187  0.1835 -0.4152  1.4931
  736MOL0     H99325  -0.109   3.698   3.141  1.0240 -0.1721 -0.9026
  736MOL0     H99326   0.118   3.686   3.194 -3.4727  0.3570 -1.8272
  736MOL0     H99327   0.049   3.759   3.346 -2.8244 -0.6492  0.4900
  736MOL0     H99328   0.053   3.522   3.451  0.0120  0.4562  0.9971
  736MOL0     H99329   0.142   3.478   3.309 -1.0822 -1.8350  1.7783
  736MOL0     H99330   0.298   3.667   3.357 -4.0601  1.0404 -1.3575
  736MOL0     H99331   0.316   3.517   3.448 -2.5653 -2.1279  1.6840
  736MOL0     H99332   0.174   3.603   3.628 -3.3275  0.5669 -2.6865
  736MOL0     H99333   0.186   3.760   3.575 -1.4473 -2.0816  0.4568
  736MOL0     H99334   0.414   3.566   3.656  0.9808  1.5776  6.8709
  736MOL0     H99335   0.461   3.695   3.555  1.0843 -4.0592 -0.3875
  736MOL0     H99336   0.292   3.776   3.797 -0.3852  0.6694  1.2200
  736MOL0     H99337   0.378   3.874   3.688 -3.5426 -0.1244 -0.4009
  736MOL0     H99338   0.506   3.668   3.880 -1.0639  0.9892  1.3305
  736MOL0     H99339   0.598   3.787   3.778  2.3699  0.4345  3.4780
  736MOL0     H99340  -0.303   3.549   3.065 -0.7730 -1.6328 -0.2178
  736MOL0     H99341  -0.540   3.587   3.011 -1.8436  0.8830  1.1828
  736MOL0     H99342  -0.920   3.788   3.081 -2.4606  2.2998  3.4752
  736MOL0     H99343  -1.120   3.824   2.953  1.3468 -0.2130 -2.1055
  736MOL0     H99344   0.142   4.063   2.763  2.8919  1.7919  0.0268
  736MOL0     H99345   0.287   4.122   2.932 -2.9781 -5.2520  0.8760
  736MOL0     H99346   0.324   4.469   3.274  1.3317 -1.1846  2.5438
  736MOL0     H99347   0.461   4.583   3.434  0.4165  1.4094 -1.3467
  736MOL0     H99348   0.763   4.761   3.541 -1.9720 -3.6240  2.0992
  736MOL0     H99349   0.583   4.763   3.511 -0.0143 -2.3869 -0.3221
  736MOL0     H99350   0.633   4.977   3.403  1.2606  0.7627  0.2572
  736MOL0     H99351   0.645   4.860   3.282  1.0556  2.6932 -1.6343
  736MOL0     H99352   0.858   4.965   3.468 -0.8852 -0.4414 -0.7406
  736MOL0     H99353   0.847   5.036   3.307  2.6741  0.1819  0.4936
  736MOL0     H99354   0.972   4.756   3.382  2.2461  0.1101  0.5792
  736MOL0     H99355   0.914   4.784   3.224  0.2937 -1.5994  0.4096
  736MOL0     H99356   1.243   5.040   3.213  0.9385  1.0602  3.2154
  736MOL0     H99357   0.783   4.593   3.166  0.1438 -0.7205 -1.0837
  736MOL0     H99358   0.655   4.488   2.892 -2.8929  1.5098  1.4600
  736MOL0     H99359   0.802   4.452   2.981  0.4418 -0.6469 -0.6945
  736MOL0     H99360   0.685   4.327   2.962  2.9365 -0.8284 -0.3725
  737MOL0     O99361   2.685   5.288   6.980 -0.3669  0.3347  0.3254
  737MOL0     C99362   2.723   5.402   6.965  0.5544 -0.4128 -0.8545
  737MOL0     O99363   2.642   5.493   6.900 -0.4175  0.1175  0.6057
  737MOL0     C99364   2.512   5.469   6.859 -0.3884 -0.0723 -0.1304
  737MOL0     C99365   2.439   5.579   6.818 -0.0261  0.1851 -0.2816
  737MOL0     C99366   2.321   5.566   6.747  1.1974 -1.1757 -0.7883
  737MOL0     C99367   2.263   5.438   6.744 -0.1294 -0.3242 -0.9285
  737MOL0     O99368   2.137   5.413   6.695 -0.0853 -0.0110  0.0504
  737MOL0     C99369   2.055   5.525   6.644  1.1723  0.3449 -0.9727
  737MOL0     C99370   1.992   5.616   6.753  0.2722  0.0818  0.3459
  737MOL0     C99371   1.872   5.546   6.823 -0.7173  0.1897  0.3677
  737MOL0     C99372   1.826   5.624   6.955 -0.9888 -0.1006  0.6820
  737MOL0     C99373   1.687   5.587   7.031 -0.4399 -1.0353  0.2108
  737MOL0     C99374   1.662   5.681   7.153  0.3738  0.2390  0.2915
  737MOL0     C99375   1.524   5.659   7.225 -0.0997 -0.4868  0.6943
  737MOL0     C99376   1.499   5.755   7.341 -0.7427 -0.5078  0.1233
  737MOL0     N99377   1.617   5.779   7.435  0.4938  0.6384 -0.7560
  737MOL0     C99378   1.691   5.895   7.427  0.5144  0.3646 -1.1657
  737MOL0     C99379   1.747   5.901   7.550 -0.4252  0.1303  0.0130
  737MOL0     C99380   1.836   6.004   7.615  0.7273 -0.3311 -0.4191
  737MOL0     C99381   1.988   5.979   7.615 -0.2329 -1.0277  0.0737
  737MOL0     C99382   2.064   6.075   7.700  0.0502 -0.3703 -1.1076
  737MOL0     C99383   2.204   6.023   7.728 -0.6501  0.3160  0.6294
  737MOL0     O99384   2.252   6.068   7.856  0.1844  0.7919 -0.6860
  737MOL0     C99385   2.380   6.039   7.884 -0.1676  0.4034 -0.2313
  737MOL0     C99386   2.427   5.901   7.885  0.1067 -0.6623  0.4352
  737MOL0     C99387   2.558   5.881   7.917 -0.0583 -0.4009 -0.4294
  737MOL0     C99388   2.649   5.992   7.932  0.0944  0.6786 -1.0192
  737MOL0     C99389   2.791   5.956   7.956 -0.3779 -0.0290  1.6798
  737MOL0     O99390   2.827   5.820   7.957 -0.3954  0.2298 -0.0757
  737MOL0     C99391   2.962   5.783   7.941  0.5017 -0.9581  0.0314
  737MOL0     C99392   3.068   5.858   7.884 -0.1692 -1.0626  0.5258
  737MOL0     C99393   3.194   5.792   7.858  0.8300 -0.9171  0.0681
  737MOL0     C99394   3.226   5.663   7.899 -0.2193  0.8210 -0.5683
  737MOL0     O99395   3.353   5.618   7.880 -0.1695 -0.8420  0.9508
  737MOL0     C99396   3.397   5.484   7.929 -0.5507  0.4559 -0.2548
  737MOL0     C99397   3.554   5.471   7.924  0.2412  0.3309 -0.0194
  737MOL0     C99398   3.605   5.333   7.935 -0.3788 -0.9071 -0.6037
  737MOL0     C99399   3.764   5.327   7.942  0.3441  0.1454  0.0032
  737MOL0     C99400   3.823   5.181   7.956 -0.1223  1.0897  0.0986
  737MOL0     C99401   3.802   5.098   7.824  0.8272 -1.0544  0.1167
  737MOL0     C99402   3.855   4.959   7.845  0.4124  0.1825  0.1891
  737MOL0     C99403   3.846   4.876   7.711 -0.3142  0.9355 -0.5098
  737MOL0    Cl99404   3.920   4.711   7.726 -0.3214 -0.1871 -0.0458
  737MOL0     C99405   3.113   5.591   7.957 -0.4447 -0.6221  0.4702
  737MOL0     C99406   2.985   5.648   7.971 -0.4445  1.4234 -0.0502
  737MOL0     O99407   2.864   6.050   7.981 -0.4208 -0.2488 -0.7793
  737MOL0     C99408   2.597   6.123   7.929  0.4818  1.5285 -0.3505
  737MOL0     C99409   2.462   6.148   7.917  0.6771  0.2163  0.1352
  737MOL0     N99410   1.717   5.786   7.621  1.0107  0.1192  0.8114
  737MOL0     N99411   1.638   5.710   7.550  0.2330 -1.1660  0.6362
  737MOL0     C99412   2.332   5.329   6.781  0.2086  0.1749 -0.2720
  737MOL0     C99413   2.461   5.346   6.824  1.0168  0.6072 -0.1861
  737MOL0     C99414   2.859   5.438   6.992 -1.1052  0.5361 -0.7331
  737MOL0     C99415   2.916   5.551   6.943  0.1655  0.2784 -0.5740
  737MOL0     C99416   3.046   5.594   6.969  0.4292 -0.4379  0.1714
  737MOL0     C99417   3.132   5.517   7.057  0.3686  0.7801 -0.7155
  737MOL0     O99418   3.265   5.546   7.094  0.4028 -0.6381 -0.5087
  737MOL0     C99419   3.332   5.658   7.031 -0.5517  0.3520 -0.0258
  737MOL0     C99420   3.480   5.622   7.024 -0.2481  0.2465 -0.1769
  737MOL0     C99421   3.529   5.704   6.908 -0.7343 -0.5593  0.4010
  737MOL0     C99422   3.671   5.650   6.865  0.2170  0.4970 -0.4529
  737MOL0     C99423   3.792   5.721   6.916  0.3679 -0.6829 -0.4196
  737MOL0     C99424   3.901   5.780   6.943  1.0442  0.8972 -0.3172
  737MOL0     C99425   3.080   5.396   7.109 -0.2752  0.1796  0.4603
  737MOL0     C99426   2.946   5.357   7.079 -0.1271 -0.6651  0.3969
  737MOL0     C99427   2.893   5.233   7.163  0.9370 -0.4515 -0.2433
  737MOL0     H99428   2.495   5.671   6.829  3.0200 -1.2455 -2.3541
  737MOL0     H99429   2.268   5.655   6.715  0.9323 -1.1462 -0.2762
  737MOL0     H99430   2.113   5.594   6.583 -1.2984  3.7884  0.2379
  737MOL0     H99431   1.977   5.486   6.578 -0.2071  0.2200  0.6541
  737MOL0     H99432   1.964   5.709   6.702  0.7709 -0.3003 -0.6567
  737MOL0     H99433   2.055   5.637   6.840 -0.1473  0.8768  0.4698
  737MOL0     H99434   1.898   5.445   6.855 -1.7355 -0.1891  0.0311
  737MOL0     H99435   1.791   5.551   6.749 -2.0719  1.9469  1.8613
  737MOL0     H99436   1.906   5.627   7.029 -0.9604  1.1598  0.6144
  737MOL0     H99437   1.817   5.730   6.931  0.5906  0.0312  0.5659
  737MOL0     H99438   1.603   5.591   6.960  0.5611  0.6068 -0.9340
  737MOL0     H99439   1.699   5.488   7.076  0.1138 -2.2494 -2.4042
  737MOL0     H99440   1.746   5.676   7.223  2.1978 -0.4079 -1.8333
  737MOL0     H99441   1.664   5.784   7.116  2.4756  1.1181  2.5713
  737MOL0     H99442   1.511   5.554   7.254 -3.7448 -0.9420 -1.9674
  737MOL0     H99443   1.446   5.677   7.151  1.1219 -4.0238 -1.7136
  737MOL0     H99444   1.480   5.853   7.295  2.6533  0.1473 -0.1035
  737MOL0     H99445   1.418   5.715   7.403 -2.1730 -0.7960 -1.8283
  737MOL0     H99446   1.692   5.960   7.339  1.4803  1.0928 -0.6337
  737MOL0     H99447   1.817   6.104   7.574 -2.0455 -1.0603 -1.1530
  737MOL0     H99448   1.809   6.012   7.720 -1.0540  0.6014 -0.9172
  737MOL0     H99449   1.999   5.875   7.646 -2.3561 -1.5391 -0.7137
  737MOL0     H99450   2.023   5.974   7.511 -2.5755 -0.6499 -0.8111
  737MOL0     H99451   2.014   6.089   7.796  2.6630 -0.5794  0.3675
  737MOL0     H99452   2.079   6.172   7.652  2.2002  0.2581  0.6635
  737MOL0     H99453   2.287   6.056   7.665  1.2857  2.9773  4.1516
  737MOL0     H99454   2.201   5.914   7.733  0.0715  0.3042  1.0272
  737MOL0     H99455   2.349   5.827   7.867  1.8196 -2.6788  0.9849
  737MOL0     H99456   2.598   5.780   7.918  0.4375 -0.2106  0.3441
  737MOL0     H99457   3.052   5.960   7.851 -0.8762 -1.3118  0.0783
  737MOL0     H99458   3.274   5.858   7.827 -2.4238  3.6811  0.4439
  737MOL0     H99459   3.374   5.475   8.036  0.6237  1.5894  0.1227
  737MOL0     H99460   3.352   5.407   7.865 -0.5678 -0.3776  0.7346
  737MOL0     H99461   3.595   5.501   7.828  2.0066 -3.1776 -0.5042
  737MOL0     H99462   3.598   5.540   7.997 -2.0154  1.4126  0.4290
  737MOL0     H99463   3.573   5.287   8.029 -0.4971  1.7186  0.7220
  737MOL0     H99464   3.579   5.280   7.843 -0.4455 -0.0567 -1.0789
  737MOL0     H99465   3.786   5.380   8.035 -0.9932  0.4774  0.1571
  737MOL0     H99466   3.811   5.378   7.857  2.5211 -2.2733 -0.3511
  737MOL0     H99467   3.764   5.135   8.035 -3.8271  0.7538 -2.5872
  737MOL0     H99468   3.931   5.186   7.975 -0.0846  3.1098 -0.4169
  737MOL0     H99469   3.694   5.095   7.807  0.2276 -0.5112  3.2716
  737MOL0     H99470   3.858   5.152   7.747  1.7023 -3.4155 -1.0132
  737MOL0     H99471   3.807   4.923   7.936 -1.4768 -0.1783 -0.9004
  737MOL0     H99472   3.963   4.962   7.859  0.4275 -0.4932  0.2429
  737MOL0     H99473   3.745   4.869   7.668 -0.0478 -2.0425 -0.8796
  737MOL0     H99474   3.908   4.938   7.646  1.5978  0.9325  1.2421
  737MOL0     H99475   3.134   5.494   8.001 -0.6870 -1.1899 -0.6483
  737MOL0     H99476   2.908   5.583   8.011  0.4040  1.5687  1.8858
  737MOL0     H99477   2.670   6.202   7.939  0.3599  1.4375  1.7104
  737MOL0     H99478   2.418   6.248   7.921 -0.6737 -0.3865  2.1322
  737MOL0     H99479   2.292   5.229   6.783 -1.4495  0.8205  0.4566
  737MOL0     H99480   2.519   5.255   6.825  2.5172  1.4001 -3.2780
  737MOL0     H99481   2.862   5.622   6.881  4.0439  4.0477 -0.1915
  737MOL0     H99482   3.082   5.693   6.941  0.1285  0.5541  2.9105
  737MOL0     H99483   3.329   5.738   7.106  2.1953 -0.3109  0.9051
  737MOL0     H99484   3.295   5.691   6.933  3.8097  0.8578 -1.7156
  737MOL0     H99485   3.495   5.514   7.018  1.7019  0.5703 -2.3777
  737MOL0     H99486   3.525   5.650   7.120  0.0288 -0.5252 -0.0766
  737MOL0     H99487   3.529   5.805   6.950  0.0599 -0.2782 -0.2357
  737MOL0     H99488   3.463   5.692   6.822 -2.5528  0.5632  1.5786
  737MOL0     H99489   3.681   5.547   6.901  0.6460  0.5962 -0.2898
  737MOL0     H99490   3.668   5.653   6.755 -0.7786 -0.6116 -0.4829
  737MOL0     H99491   4.001   5.812   6.964  1.0082 -0.2231  1.7053
  737MOL0     H99492   3.148   5.334   7.166  0.3283  0.4912  0.0907
  737MOL0     H99493   2.789   5.248   7.195  0.1810 -0.0137 -2.7288
  737MOL0     H99494   2.886   5.142   7.104 -1.3428  0.0826 -0.8915
  737MOL0     H99495   2.947   5.220   7.257 -0.6393 -1.7067  0.5556
  738MOL0     O99496   7.692   5.873   5.412  0.2142  0.0505 -0.2186
  738MOL0     C99497   7.587   5.830   5.453  0.9536 -0.1649  0.7727
  738MOL0     O99498   7.547   5.702   5.450 -0.0564 -0.1045  0.4156
  738MOL0     C99499   7.623   5.620   5.371  0.6080  0.6459  0.7054
  738MOL0     C99500   7.744   5.581   5.416 -0.1459 -0.1390 -0.7481
  738MOL0     C99501   7.829   5.511   5.335 -1.1842  0.1821 -0.5502
  738MOL0     C99502   7.787   5.487   5.198  0.5042 -0.2290 -1.0076
  738MOL0     O99503   7.871   5.444   5.100  0.2312  0.0562  0.0989
  738MOL0     C99504   8.012   5.435   5.131 -0.0907 -0.1870 -0.0195
  738MOL0     C99505   8.066   5.369   5.005  0.3993  0.0217  0.6243
  738MOL0     C99506   8.212   5.362   5.002  0.1363  0.7659 -0.2622
  738MOL0     C99507   8.276   5.436   4.887  1.2113 -0.6099  0.2472
  738MOL0     C99508   8.436   5.406   4.872  0.2312 -0.0694 -0.5349
  738MOL0     C99509   8.511   5.462   5.004 -0.0143 -0.1269 -0.2368
  738MOL0     C99510   8.661   5.448   4.990  0.0585 -0.0041  0.0885
  738MOL0     C99511   8.724   5.509   5.116  0.8845  0.1394  0.0530
  738MOL0     N99512   8.871   5.503   5.120 -0.6773 -0.2068 -0.9233
  738MOL0     C99513   8.941   5.401   5.168 -0.7096  0.1501 -0.2820
  738MOL0     C99514   9.075   5.446   5.152 -0.3985  0.8384  1.3055
  738MOL0     C99515   9.196   5.362   5.204  0.5772 -0.4258  0.3490
  738MOL0     C99516   9.333   5.395   5.145  0.2482  0.1486 -1.0166
  738MOL0     C99517   9.334   5.351   5.000 -0.0133 -1.4134  0.0734
  738MOL0     C99518   9.421   5.240   4.974  0.2382 -0.0477 -0.2903
  738MOL0     O99519   9.415   5.192   4.839 -0.3553 -0.0694  0.4703
  738MOL0     C99520   9.346   5.074   4.809 -0.3737  0.2071 -0.0326
  738MOL0     C99521   9.237   5.030   4.880 -0.3463 -0.4637 -0.1336
  738MOL0     C99522   9.176   4.911   4.855  0.3788  0.6427 -0.4225
  738MOL0     C99523   9.224   4.823   4.751 -0.7928 -0.0273 -0.8987
  738MOL0     C99524   9.155   4.698   4.714 -0.4943  0.6752 -0.0446
  738MOL0     O99525   9.201   4.628   4.605 -0.1182 -0.5081  0.2150
  738MOL0     C99526   9.141   4.502   4.577 -0.4374  0.4558  0.3432
  738MOL0     C99527   9.239   4.401   4.538  0.5329 -0.5223 -0.7476
  738MOL0     C99528   9.200   4.276   4.498  0.8482  1.0875  0.6800
  738MOL0     C99529   9.064   4.229   4.498 -0.1306 -0.6508  0.9564
  738MOL0     O99530   9.037   4.100   4.472  0.9941 -0.0108  0.2138
  738MOL0     C99531   8.994   4.025   4.577 -0.9487  0.1160  0.1380
  738MOL0     C99532   8.967   3.883   4.539  0.2115 -1.2041 -1.0882
  738MOL0     C99533   8.840   3.869   4.448 -0.6395 -0.0132 -0.9159
  738MOL0     C99534   8.835   3.727   4.387  0.6035 -0.0113 -0.6400
  738MOL0     C99535   8.737   3.728   4.271 -0.1920  0.2681 -0.6895
  738MOL0     C99536   8.586   3.691   4.316 -0.1501 -0.2834  0.1775
  738MOL0     C99537   8.501   3.672   4.192  0.1666  0.3421  0.1479
  738MOL0     C99538   8.353   3.670   4.215  0.1386  0.4296  0.1722
  738MOL0    Cl99539   8.319   3.569   4.354 -0.5092 -0.0698  0.3277
  738MOL0     C99540   8.964   4.331   4.531 -0.4134  0.3165  0.6127
  738MOL0     C99541   9.002   4.464   4.576 -0.4239  0.0796  0.2728
  738MOL0     O99542   9.066   4.661   4.797  0.9467 -0.1182  1.2037
  738MOL0     C99543   9.338   4.863   4.678  0.8885 -0.6510  0.1694
  738MOL0     C99544   9.394   4.984   4.707  0.2092  0.1153 -0.8720
  738MOL0     N99545   9.074   5.565   5.088  0.2503  0.1940 -0.5323
  738MOL0     N99546   8.954   5.606   5.073 -0.2308 -0.2304 -0.0690
  738MOL0     C99547   7.657   5.519   5.161 -0.1846 -0.7946  0.1788
  738MOL0     C99548   7.569   5.588   5.246  0.3034 -0.0404 -0.2114
  738MOL0     C99549   7.498   5.925   5.522 -0.2662 -0.3856  0.0977
  738MOL0     C99550   7.375   5.873   5.571  0.4778  0.5966  1.0898
  738MOL0     C99551   7.285   5.957   5.633 -0.4266  0.4197 -0.5537
  738MOL0     C99552   7.316   6.090   5.657  0.4311 -0.8139  0.4000
  738MOL0     O99553   7.225   6.166   5.726  0.7960  0.0667 -0.0756
  738MOL0     C99554   7.232   6.309   5.689  0.0993 -0.6480 -0.2109
  738MOL0     C99555   7.093   6.366   5.717 -0.8266  0.0836  0.5159
  738MOL0     C99556   6.987   6.263   5.744  1.0919  0.0956 -0.0157
  738MOL0     C99557   6.852   6.336   5.761  0.2870  0.0442  0.0634
  738MOL0     C99558   6.735   6.244   5.759 -0.7463  0.0237 -0.5224
  738MOL0     C99559   6.645   6.168   5.746  0.9004 -0.1149  0.3973
  738MOL0     C99560   7.442   6.138   5.621  0.6381 -0.4277  0.0306
  738MOL0     C99561   7.537   6.059   5.550  1.0652 -0.2729 -0.4773
  738MOL0     C99562   7.669   6.121   5.513  0.1711  0.1817 -0.1554
  738MOL0     H99563   7.768   5.598   5.521 -2.1936 -3.5933  0.4486
  738MOL0     H99564   7.926   5.474   5.365 -0.6638  2.6848  1.1644
  738MOL0     H99565   8.044   5.537   5.150  0.8759 -0.1487 -1.6255
  738MOL0     H99566   8.027   5.377   5.222  0.7900 -1.8678 -1.1673
  738MOL0     H99567   8.030   5.434   4.925 -3.6036 -0.9733  1.4375
  738MOL0     H99568   8.022   5.270   4.995 -1.1331  0.4789  2.4167
  738MOL0     H99569   8.234   5.255   5.002 -1.2978  0.4484 -0.0345
  738MOL0     H99570   8.261   5.400   5.092  0.8062  1.5705 -0.9504
  738MOL0     H99571   8.216   5.403   4.802 -1.1519 -1.4104  2.1201
  738MOL0     H99572   8.261   5.544   4.882 -3.0853 -1.1167 -3.0044
  738MOL0     H99573   8.454   5.298   4.868  1.7632  0.1813 -1.4262
  738MOL0     H99574   8.472   5.452   4.779 -0.4116  2.0028  0.1907
  738MOL0     H99575   8.478   5.566   5.010 -1.0376 -0.4915  1.1201
  738MOL0     H99576   8.493   5.408   5.097  1.7116 -0.6999 -0.2066
  738MOL0     H99577   8.686   5.512   4.905 -3.0180  1.7050  0.3278
  738MOL0     H99578   8.688   5.343   4.983 -1.3757 -0.3078 -2.2629
  738MOL0     H99579   8.693   5.613   5.135  2.0923  0.3165  1.2710
  738MOL0     H99580   8.685   5.448   5.197 -0.7713  0.3400 -0.5539
  738MOL0     H99581   8.892   5.311   5.205 -0.8006  0.9540  1.6418
  738MOL0     H99582   9.193   5.386   5.310  3.0219 -0.6855  0.5275
  738MOL0     H99583   9.163   5.259   5.184  1.0399 -0.1318 -2.3459
  738MOL0     H99584   9.344   5.503   5.160 -3.2184  0.3174  1.5127
  738MOL0     H99585   9.401   5.334   5.206 -1.3961  0.2958  1.0872
  738MOL0     H99586   9.371   5.437   4.943  1.5439 -1.1724  1.3958
  738MOL0     H99587   9.234   5.331   4.959 -1.0095 -1.4287  2.3716
  738MOL0     H99588   9.397   5.157   5.042  2.0280  1.0825  1.8406
  738MOL0     H99589   9.528   5.253   4.990  0.7857 -2.6655 -1.2770
  738MOL0     H99590   9.204   5.094   4.961 -1.7580  0.8436 -1.6608
  738MOL0     H99591   9.083   4.890   4.906 -1.2739  2.6496 -2.3864
  738MOL0     H99592   9.345   4.423   4.545  0.7170 -1.5020 -0.3629
  738MOL0     H99593   9.274   4.206   4.461  0.9103  1.6556 -0.3255
  738MOL0     H99594   9.074   4.024   4.652  0.6232 -0.1774 -1.4765
  738MOL0     H99595   8.908   4.073   4.626 -1.3106 -2.4519  2.2671
  738MOL0     H99596   9.060   3.837   4.503  0.6736 -0.4514 -0.8832
  738MOL0     H99597   8.933   3.826   4.626 -0.5308 -2.5033 -2.1974
  738MOL0     H99598   8.752   3.892   4.510 -0.0608  1.0865 -0.4663
  738MOL0     H99599   8.846   3.942   4.368  1.8713  1.2549  0.3062
  738MOL0     H99600   8.789   3.653   4.453 -1.4966 -0.6761 -2.7000
  738MOL0     H99601   8.930   3.685   4.353  0.6274 -0.4129 -0.0848
  738MOL0     H99602   8.777   3.654   4.201 -1.1029 -1.2693  0.3558
  738MOL0     H99603   8.737   3.823   4.216  2.5489  0.5144 -0.4119
  738MOL0     H99604   8.590   3.592   4.362  2.6004 -0.4444 -0.2114
  738MOL0     H99605   8.550   3.768   4.386  1.9616  0.0815  0.9487
  738MOL0     H99606   8.533   3.574   4.154 -1.4943 -0.5910  1.0356
  738MOL0     H99607   8.526   3.748   4.117  0.4429  2.9161  2.6619
  738MOL0     H99608   8.313   3.767   4.245  1.0436  0.3422  1.7375
  738MOL0     H99609   8.294   3.634   4.130  1.0928 -1.8559  0.4024
  738MOL0     H99610   8.856   4.321   4.529 -0.5678  1.5279  1.4539
  738MOL0     H99611   8.927   4.534   4.612 -0.2001  1.0499 -1.0725
  738MOL0     H99612   9.379   4.803   4.597 -1.8256  0.1021 -1.9420
  738MOL0     H99613   9.471   5.036   4.650  0.1914  0.5446 -0.5072
  738MOL0     H99614   7.623   5.512   5.058  1.2494  0.6173 -0.4259
  738MOL0     H99615   7.467   5.621   5.231  0.5308  0.5153 -0.5711
  738MOL0     H99616   7.338   5.773   5.551  1.1770  0.8143 -1.5978
  738MOL0     H99617   7.186   5.922   5.660 -0.9446  1.4091 -1.1073
  738MOL0     H99618   7.265   6.318   5.585  1.7820  1.1639  0.4224
  738MOL0     H99619   7.304   6.364   5.750 -0.2861  0.2912 -0.5814
  738MOL0     H99620   7.067   6.430   5.633 -0.6440 -3.1352 -2.2306
  738MOL0     H99621   7.103   6.429   5.806 -0.7466 -0.1481  0.6746
  738MOL0     H99622   7.023   6.215   5.835  0.6293  0.3821  0.3158
  738MOL0     H99623   6.979   6.199   5.655 -0.5243 -0.1435  0.2739
  738MOL0     H99624   6.853   6.385   5.859 -1.1397  2.8765 -1.2068
  738MOL0     H99625   6.845   6.411   5.682  0.5602 -2.7732 -2.8291
  738MOL0     H99626   6.566   6.100   5.720  0.6844  0.5796 -0.7972
  738MOL0     H99627   7.464   6.242   5.643 -3.0999  0.8920 -1.6927
  738MOL0     H99628   7.685   6.222   5.549 -1.1813  0.5224 -0.4551
  738MOL0     H99629   7.758   6.069   5.550 -0.4296 -2.7314 -2.3546
  738MOL0     H99630   7.699   6.109   5.408  4.2402  3.4106  0.3934
  739MOL0     O99631   2.559   3.459   6.793 -0.7687 -0.5821  0.6803
  739MOL0     C99632   2.560   3.583   6.807 -0.3386 -0.0709  0.2858
  739MOL0     O99633   2.663   3.651   6.857  0.5966 -0.5059 -0.5830
  739MOL0     C99634   2.784   3.591   6.864 -0.5708 -0.9915 -0.0619
  739MOL0     C99635   2.841   3.602   6.988 -0.4716 -0.0634 -0.6152
  739MOL0     C99636   2.968   3.566   7.022 -0.6243 -0.3437  0.0095
  739MOL0     C99637   3.042   3.506   6.917 -0.0561  0.2711 -0.2223
  739MOL0     O99638   3.170   3.463   6.930 -0.3488  0.2173 -0.2617
  739MOL0     C99639   3.250   3.518   7.038 -0.3019  0.0957 -0.4277
  739MOL0     C99640   3.384   3.438   7.051  0.2024 -0.0406 -0.5226
  739MOL0     C99641   3.471   3.522   7.152 -0.8848  0.3517  0.2083
  739MOL0     C99642   3.617   3.470   7.122  0.1417 -0.2884 -0.5106
  739MOL0     C99643   3.718   3.531   7.224  0.1443  0.4061 -0.3705
  739MOL0     C99644   3.857   3.479   7.199  0.0580  0.6047 -0.4251
  739MOL0     C99645   3.941   3.555   7.306 -0.6130 -0.4482  0.6646
  739MOL0     C99646   4.092   3.508   7.315 -0.8866  0.0825  0.3846
  739MOL0     N99647   4.151   3.467   7.185 -0.4277 -0.2265 -0.1389
  739MOL0     C99648   4.140   3.545   7.063  0.4948 -0.2978 -0.1141
  739MOL0     C99649   4.214   3.479   6.969 -0.4090  0.0392 -0.3097
  739MOL0     C99650   4.232   3.529   6.824  0.0251  0.3609 -0.6487
  739MOL0     C99651   4.140   3.463   6.728  0.0472  0.5395 -0.4614
  739MOL0     C99652   4.182   3.333   6.663  0.5149  0.2473  0.1233
  739MOL0     C99653   4.071   3.235   6.621 -0.5111  0.0607 -0.3659
  739MOL0     O99654   4.118   3.148   6.520 -0.2550 -0.0939 -0.0471
  739MOL0     C99655   4.210   3.052   6.567 -0.7860  0.0986 -0.1302
  739MOL0     C99656   4.311   3.001   6.480 -0.0647  0.3524 -0.2550
  739MOL0     C99657   4.403   2.908   6.513  0.1328 -0.0536 -0.6413
  739MOL0     C99658   4.384   2.847   6.640  1.0873 -0.1120  0.7684
  739MOL0     C99659   4.475   2.742   6.686  0.2456  0.5427 -0.8660
  739MOL0     O99660   4.565   2.699   6.602  0.6606 -0.7038  0.8075
  739MOL0     C99661   4.648   2.584   6.603 -1.2685 -0.5650  0.8873
  739MOL0     C99662   4.665   2.502   6.715 -0.2847  0.1415  0.3072
  739MOL0     C99663   4.746   2.393   6.711  0.5577 -0.1280  0.1387
  739MOL0     C99664   4.820   2.362   6.592 -0.2509  0.0017 -0.3464
  739MOL0     O99665   4.908   2.255   6.567 -0.3465  0.1550 -0.5008
  739MOL0     C99666   4.923   2.166   6.683  0.5088  0.3651 -0.5167
  739MOL0     C99667   5.035   2.068   6.640 -0.0584 -0.6346  0.0224
  739MOL0     C99668   5.060   1.944   6.720  0.6318  0.3120 -0.2267
  739MOL0     C99669   5.126   1.984   6.857 -0.0132  0.3723  0.3300
  739MOL0     C99670   5.145   1.860   6.946  0.7746  0.6747 -0.0959
  739MOL0     C99671   5.278   1.781   6.926 -0.4225 -0.3830 -0.2637
  739MOL0     C99672   5.282   1.651   6.996  1.0709  0.2969 -0.6556
  739MOL0     C99673   5.277   1.664   7.148 -0.2600  0.7723 -0.1125
  739MOL0    Cl99674   5.271   1.499   7.216  0.2620 -0.0544  0.1737
  739MOL0     C99675   4.805   2.448   6.483 -0.3418  0.0107 -0.7315
  739MOL0     C99676   4.724   2.559   6.487  0.8586 -0.2517  0.4243
  739MOL0     O99677   4.448   2.697   6.798 -0.1984  0.2771  0.5362
  739MOL0     C99678   4.284   2.891   6.728 -0.3825 -0.0458 -1.1934
  739MOL0     C99679   4.206   2.995   6.694 -0.0404  0.7096  0.4529
  739MOL0     N99680   4.268   3.368   7.035  0.3047 -0.5234 -0.2546
  739MOL0     N99681   4.237   3.370   7.156  0.0678 -0.3186 -0.5688
  739MOL0     C99682   2.984   3.476   6.796 -0.3445 -0.4074 -0.7946
  739MOL0     C99683   2.856   3.527   6.764  0.2878 -0.2951 -0.1531
  739MOL0     C99684   2.442   3.659   6.791  0.5728 -0.3724  0.3776
  739MOL0     C99685   2.453   3.796   6.808  0.4553 -0.3855  1.1483
  739MOL0     C99686   2.337   3.871   6.823 -0.1294  0.6311  0.6973
  739MOL0     C99687   2.210   3.820   6.815 -0.5181  0.1668  0.8129
  739MOL0     O99688   2.109   3.908   6.843 -0.1281  0.4813 -0.6061
  739MOL0     C99689   1.976   3.882   6.788  0.6467 -0.5472 -0.8896
  739MOL0     C99690   1.886   3.988   6.839  0.6294  0.1344 -0.4214
  739MOL0     C99691   1.894   4.131   6.786 -0.2302 -0.3813 -0.1552
  739MOL0     C99692   1.773   4.231   6.835 -1.1624 -0.7281  0.1919
  739MOL0     C99693   1.639   4.182   6.804  0.8399 -1.2012 -0.8911
  739MOL0     C99694   1.528   4.142   6.796  0.7262  0.1249  0.1713
  739MOL0     C99695   2.199   3.687   6.777 -0.4142  0.0107  0.2703
  739MOL0     C99696   2.318   3.608   6.760  0.2141  0.5691 -0.0079
  739MOL0     C99697   2.285   3.465   6.731  0.0789  0.9253  0.1617
  739MOL0     H99698   2.782   3.654   7.063 -0.3483  1.7623 -1.7173
  739MOL0     H99699   3.005   3.588   7.121 -3.8899 -2.4627  1.8770
  739MOL0     H99700   3.271   3.621   7.005 -2.6704  0.6632 -0.3434
  739MOL0     H99701   3.195   3.505   7.131  2.0814  1.2141  1.2445
  739MOL0     H99702   3.416   3.436   6.946 -1.5122  2.5120 -1.1952
  739MOL0     H99703   3.366   3.343   7.103  0.7028  1.8432  3.4769
  739MOL0     H99704   3.449   3.511   7.258 -0.3822  2.4693  0.5673
  739MOL0     H99705   3.473   3.628   7.125  1.8164 -0.4219 -3.5143
  739MOL0     H99706   3.617   3.361   7.125  0.3045 -0.4088 -3.0365
  739MOL0     H99707   3.649   3.510   7.025 -1.6940 -0.8918 -1.4099
  739MOL0     H99708   3.716   3.640   7.228  0.6855  0.3906  0.6694
  739MOL0     H99709   3.696   3.511   7.329  1.9020  2.6001  0.4964
  739MOL0     H99710   3.863   3.372   7.222  4.8654  0.5853 -0.7906
  739MOL0     H99711   3.868   3.523   7.099  0.5086  3.5849  0.8446
  739MOL0     H99712   3.896   3.541   7.405 -0.4823  2.2988  1.2092
  739MOL0     H99713   3.929   3.662   7.284  2.0964  0.0542  1.2570
  739MOL0     H99714   4.161   3.574   7.369 -1.8901  3.2546 -1.9190
  739MOL0     H99715   4.088   3.411   7.366  1.9166 -0.0268  0.5131
  739MOL0     H99716   4.085   3.637   7.045  0.4501 -0.2333  0.3285
  739MOL0     H99717   4.222   3.637   6.832 -1.2968  0.1256  3.5305
  739MOL0     H99718   4.336   3.517   6.793 -0.1130 -0.6532 -0.7545
  739MOL0     H99719   4.040   3.450   6.771  0.5145 -0.5759  0.3302
  739MOL0     H99720   4.120   3.534   6.647  1.0404  0.2216 -0.9944
  739MOL0     H99721   4.246   3.273   6.728  1.5053 -1.6672 -2.4240
  739MOL0     H99722   4.244   3.359   6.576 -0.0263 -1.2061 -0.7314
  739MOL0     H99723   3.999   3.295   6.566  1.1185 -0.1349 -2.8827
  739MOL0     H99724   4.024   3.181   6.703 -1.0577 -0.6338 -1.1166
  739MOL0     H99725   4.319   3.052   6.385  1.3154 -3.9587 -2.6882
  739MOL0     H99726   4.478   2.870   6.443  0.0556 -0.1319 -0.6818
  739MOL0     H99727   4.625   2.517   6.815 -1.3677 -0.3189 -0.0422
  739MOL0     H99728   4.757   2.321   6.792  0.1862 -0.1639  0.1586
  739MOL0     H99729   4.943   2.218   6.776 -1.8862  0.3429  0.0678
  739MOL0     H99730   4.837   2.098   6.695  1.8641 -1.4608 -0.6428
  739MOL0     H99731   5.023   2.041   6.535  1.9511  1.8714 -0.9642
  739MOL0     H99732   5.127   2.129   6.643 -1.1124  1.2300 -2.2689
  739MOL0     H99733   4.963   1.896   6.736  0.4815  0.8125  0.3818
  739MOL0     H99734   5.127   1.879   6.662 -1.4947 -0.4803 -1.9449
  739MOL0     H99735   5.059   2.057   6.902 -0.8535  0.2275 -0.6503
  739MOL0     H99736   5.226   2.029   6.850  0.4613 -0.6454  0.3701
  739MOL0     H99737   5.058   1.794   6.944  0.0374  1.2978  3.8979
  739MOL0     H99738   5.143   1.880   7.053  0.0214 -1.0724  0.2537
  739MOL0     H99739   5.300   1.768   6.819  0.0040  0.4734 -0.2880
  739MOL0     H99740   5.358   1.839   6.972 -2.8310 -0.4767  4.6979
  739MOL0     H99741   5.381   1.608   6.975  2.0466  2.0398  0.1195
  739MOL0     H99742   5.203   1.586   6.957  1.2355  0.0538 -0.5920
  739MOL0     H99743   5.370   1.712   7.179 -0.3288  1.1416 -0.4746
  739MOL0     H99744   5.197   1.733   7.178  2.4062  4.8320 -1.4474
  739MOL0     H99745   4.856   2.420   6.391  1.8823 -2.8658  1.1984
  739MOL0     H99746   4.724   2.620   6.397 -1.4405 -0.5736  0.1339
  739MOL0     H99747   4.273   2.842   6.824  1.1816 -0.2917 -1.1011
  739MOL0     H99748   4.131   3.030   6.764 -3.0772 -0.9327 -1.7279
  739MOL0     H99749   3.039   3.422   6.720 -1.9736 -1.4929 -1.2444
  739MOL0     H99750   2.808   3.536   6.668 -1.0799 -1.2870  0.4099
  739MOL0     H99751   2.542   3.851   6.835  0.5519 -2.2342  5.4662
  739MOL0     H99752   2.351   3.975   6.854 -0.2446  0.0875  2.7690
  739MOL0     H99753   1.937   3.782   6.811  0.0490 -0.0440  0.3795
  739MOL0     H99754   1.973   3.891   6.679 -0.7473  0.7511 -0.7909
  739MOL0     H99755   1.889   3.980   6.948 -0.5776 -2.4423 -0.4878
  739MOL0     H99756   1.785   3.955   6.812  1.1659 -0.6640 -1.5772
  739MOL0     H99757   1.903   4.138   6.677  1.0993  1.0739  0.0001
  739MOL0     H99758   1.987   4.175   6.826  0.4864 -3.9286  2.5471
  739MOL0     H99759   1.792   4.254   6.941  1.6861  2.3266 -0.8180
  739MOL0     H99760   1.786   4.329   6.788 -0.2609  0.4518  2.7067
  739MOL0     H99761   1.427   4.114   6.773  1.1285  0.0030 -1.5837
  739MOL0     H99762   2.103   3.648   6.746  0.9045 -1.8853 -1.6541
  739MOL0     H99763   2.363   3.414   6.673  0.7976  1.0679  0.9796
  739MOL0     H99764   2.267   3.411   6.825 -1.6909  1.1895  0.0036
  739MOL0     H99765   2.202   3.455   6.661  0.2435  0.8924 -0.0298
  740MOL0     O99766   1.829   5.861   9.134  0.3873  0.4008  0.0920
  740MOL0     C99767   1.746   5.937   9.190  0.4253  0.3045  0.2112
  740MOL0     O99768   1.779   6.044   9.270  0.4122 -0.0965  0.2196
  740MOL0     C99769   1.906   6.088   9.282 -0.3948  1.0964 -0.6042
  740MOL0     C99770   2.003   5.999   9.332 -0.4961  0.1113 -0.0059
  740MOL0     C99771   2.123   6.058   9.374 -0.0208 -0.6622 -0.4242
  740MOL0     C99772   2.158   6.191   9.336  0.1746 -0.4401  0.0494
  740MOL0     O99773   2.283   6.229   9.365 -0.4828  0.0394  0.3163
  740MOL0     C99774   2.328   6.354   9.325 -0.1375  0.2269  0.4019
  740MOL0     C99775   2.469   6.364   9.379 -0.1320  0.9440  0.9427
  740MOL0     C99776   2.543   6.495   9.341  0.6072 -0.6874  1.0828
  740MOL0     C99777   2.620   6.487   9.206 -0.3549 -0.7153  0.2952
  740MOL0     C99778   2.751   6.394   9.215  1.0943  0.0283  0.0565
  740MOL0     C99779   2.832   6.386   9.092  0.1357 -0.3358  0.2968
  740MOL0     C99780   2.748   6.360   8.957  0.0385  0.2901 -0.2124
  740MOL0     C99781   2.840   6.314   8.850 -1.3379  0.8260  0.1087
  740MOL0     N99782   2.916   6.184   8.847 -0.3455 -0.2164  0.7915
  740MOL0     C99783   2.873   6.068   8.801 -0.3214  0.8351  0.8767
  740MOL0     C99784   2.981   5.990   8.820  0.2425 -0.3023  0.3953
  740MOL0     C99785   2.999   5.842   8.794  0.9360 -0.5760  0.7203
  740MOL0     C99786   3.090   5.800   8.673  0.1377 -1.1932  0.2270
  740MOL0     C99787   3.025   5.834   8.542  0.5821 -0.1332  0.9567
  740MOL0     C99788   3.124   5.828   8.418  0.3407 -0.6759 -0.2029
  740MOL0     O99789   3.238   5.911   8.434  0.1307  0.3389 -0.0333
  740MOL0     C99790   3.358   5.865   8.381 -0.1934  0.3716  0.3094
  740MOL0     C99791   3.368   5.796   8.258  0.6165 -0.5255 -0.2331
  740MOL0     C99792   3.486   5.737   8.218  0.1127  0.0336 -0.4776
  740MOL0     C99793   3.606   5.765   8.291 -0.0644 -0.4116 -0.4809
  740MOL0     C99794   3.741   5.727   8.241  0.2306 -0.1945 -0.3996
  740MOL0     O99795   3.833   5.718   8.342  0.2809  0.6640 -0.3634
  740MOL0     C99796   3.969   5.682   8.308 -0.8054  0.2849  0.2540
  740MOL0     C99797   4.008   5.585   8.215  0.3554  0.0805 -0.2757
  740MOL0     C99798   4.143   5.540   8.213 -0.1011 -0.3630 -0.0278
  740MOL0     C99799   4.238   5.605   8.289  0.4952  0.1567 -0.4366
  740MOL0     O99800   4.362   5.559   8.283 -1.3678  0.1282 -0.1256
  740MOL0     C99801   4.409   5.483   8.170 -0.1510 -0.7035 -0.0163
  740MOL0     C99802   4.555   5.483   8.179  0.3005  0.4971  0.3065
  740MOL0     C99803   4.612   5.406   8.302 -0.4553  0.5658 -0.2922
  740MOL0     C99804   4.761   5.423   8.294 -0.2043  0.1651  0.1608
  740MOL0     C99805   4.839   5.344   8.396 -1.3003  0.8303 -0.7672
  740MOL0     C99806   4.790   5.202   8.405  0.0848  0.9108  0.6893
  740MOL0     C99807   4.902   5.113   8.468  0.2628 -0.3168  0.6873
  740MOL0     C99808   4.858   4.976   8.517 -0.0608 -0.0593  0.8129
  740MOL0    Cl99809   4.771   4.888   8.392  0.4090 -0.2789 -0.5532
  740MOL0     C99810   4.201   5.708   8.381  0.1610  0.3828  0.8047
  740MOL0     C99811   4.069   5.746   8.393 -0.2632  0.2037  0.7136
  740MOL0     O99812   3.744   5.689   8.127 -0.1489 -0.3567 -0.8177
  740MOL0     C99813   3.586   5.842   8.404 -1.2042  0.8350  0.0051
  740MOL0     C99814   3.472   5.893   8.451  0.2750 -0.3351  0.1187
  740MOL0     N99815   3.088   6.062   8.871  0.5277 -0.2775 -0.5178
  740MOL0     N99816   3.047   6.182   8.888  0.3551 -0.1447  0.5434
  740MOL0     C99817   2.062   6.262   9.267  0.1143 -0.7379  0.0894
  740MOL0     C99818   1.936   6.220   9.241 -0.1611  0.3791 -0.6986
  740MOL0     C99819   1.595   5.898   9.179  0.2381 -0.7277 -0.3169
  740MOL0     C99820   1.503   5.987   9.235  0.5601 -0.0815  0.0221
  740MOL0     C99821   1.366   5.981   9.211  0.1478 -0.3069 -0.2338
  740MOL0     C99822   1.315   5.863   9.143 -0.2824  0.2455 -0.0668
  740MOL0     O99823   1.186   5.828   9.123 -0.1340  0.1767 -0.1440
  740MOL0     C99824   1.084   5.916   9.178 -0.4526 -0.4005  0.7397
  740MOL0     C99825   0.940   5.878   9.140 -0.5168 -0.0953  0.1395
  740MOL0     C99826   0.927   5.864   8.992 -1.2934  0.5917 -0.4377
  740MOL0     C99827   0.781   5.868   8.949  0.0340 -0.0550  0.3391
  740MOL0     C99828   0.784   5.865   8.806 -0.2846 -0.3716  0.4000
  740MOL0     C99829   0.768   5.858   8.684  0.6848 -0.3771 -0.0785
  740MOL0     C99830   1.410   5.769   9.091  0.0378 -0.6174  0.4212
  740MOL0     C99831   1.545   5.787   9.105  0.0357  0.0854  0.2108
  740MOL0     C99832   1.618   5.675   9.042  0.4613  0.5898  0.3183
  740MOL0     H99833   1.981   5.897   9.360 -1.6971  0.3604  0.0110
  740MOL0     H99834   2.192   6.011   9.444 -1.1080  1.8945  2.6175
  740MOL0     H99835   2.329   6.377   9.218  4.8084 -2.4159 -0.3847
  740MOL0     H99836   2.264   6.430   9.371 -0.6524 -1.1765  2.1084
  740MOL0     H99837   2.524   6.281   9.335 -0.4536 -0.3642  2.8742
  740MOL0     H99838   2.477   6.358   9.488  0.9145  1.7276  0.9185
  740MOL0     H99839   2.611   6.519   9.424 -0.1105 -0.1539  1.5279
  740MOL0     H99840   2.463   6.569   9.328 -0.6710 -1.8962  1.7320
  740MOL0     H99841   2.549   6.444   9.135  1.2527 -1.9413 -0.6305
  740MOL0     H99842   2.637   6.585   9.161 -1.2181  0.2956  2.0316
  740MOL0     H99843   2.810   6.427   9.301 -1.2457 -0.9324  2.1434
  740MOL0     H99844   2.718   6.293   9.242  1.6071 -0.2011 -0.1602
  740MOL0     H99845   2.880   6.484   9.088 -0.0942 -0.1841  1.1583
  740MOL0     H99846   2.917   6.318   9.104  0.4283  0.2531  1.7817
  740MOL0     H99847   2.698   6.454   8.934 -1.6097 -0.5421 -0.1594
  740MOL0     H99848   2.672   6.286   8.986 -2.2543  3.0711  1.4121
  740MOL0     H99849   2.791   6.321   8.753  0.0947  1.8452 -0.5838
  740MOL0     H99850   2.921   6.387   8.840  0.2395 -1.0877 -1.8795
  740MOL0     H99851   2.782   6.018   8.770  0.3867 -0.9844  1.5435
  740MOL0     H99852   3.049   5.809   8.885  0.8826  1.2621  1.4625
  740MOL0     H99853   2.899   5.798   8.797  0.3268  0.6000 -0.9424
  740MOL0     H99854   3.184   5.853   8.690 -1.2731  2.2335 -1.6834
  740MOL0     H99855   3.105   5.692   8.683  2.1098 -0.8976  0.7839
  740MOL0     H99856   2.976   5.932   8.542  1.5901  0.4330 -0.9627
  740MOL0     H99857   2.941   5.765   8.532 -1.2112  2.1695 -0.8589
  740MOL0     H99858   3.060   5.866   8.337  1.7607  0.9970 -0.6188
  740MOL0     H99859   3.142   5.726   8.383 -2.3274 -0.6484 -1.9857
  740MOL0     H99860   3.286   5.785   8.188  0.2810 -1.1530  0.2533
  740MOL0     H99861   3.497   5.685   8.124 -1.1849  1.4376 -1.4580
  740MOL0     H99862   3.926   5.538   8.160  1.5806  0.2192 -2.3325
  740MOL0     H99863   4.157   5.454   8.149  2.1671  1.6083 -2.4457
  740MOL0     H99864   4.384   5.376   8.172  4.0840 -1.9427  3.5083
  740MOL0     H99865   4.382   5.532   8.077  0.1117 -1.0360 -0.2713
  740MOL0     H99866   4.603   5.444   8.089 -0.0435 -1.5263  0.9566
  740MOL0     H99867   4.581   5.589   8.179 -1.8423  1.0697  0.3672
  740MOL0     H99868   4.564   5.435   8.396 -1.1488 -0.4546 -0.3111
  740MOL0     H99869   4.582   5.300   8.305  0.8754  0.1563 -0.9193
  740MOL0     H99870   4.794   5.528   8.294  0.1420  0.0586 -0.0659
  740MOL0     H99871   4.796   5.370   8.205 -1.1492 -1.2437  0.6045
  740MOL0     H99872   4.831   5.389   8.496  2.1642  2.2790 -1.0110
  740MOL0     H99873   4.944   5.348   8.366 -1.2299 -2.1537 -1.2340
  740MOL0     H99874   4.699   5.198   8.466 -1.0735  0.9735 -0.9571
  740MOL0     H99875   4.774   5.166   8.303 -0.2691  0.5655  0.8627
  740MOL0     H99876   4.948   5.180   8.541  0.0032  2.0890 -1.2442
  740MOL0     H99877   4.977   5.085   8.393  0.3284 -3.2870  1.7165
  740MOL0     H99878   4.943   4.932   8.570 -0.3831  1.0361  2.2948
  740MOL0     H99879   4.782   5.006   8.589 -3.5308 -1.1860 -2.1096
  740MOL0     H99880   4.276   5.740   8.453  1.8491  2.5522 -1.7383
  740MOL0     H99881   4.030   5.807   8.474 -0.5151  0.3922  0.4542
  740MOL0     H99882   3.683   5.865   8.447  0.0378 -1.5137 -1.3135
  740MOL0     H99883   3.457   5.939   8.548 -1.2668 -0.7187  0.0899
  740MOL0     H99884   2.081   6.361   9.226 -0.0955 -1.6495 -2.3406
  740MOL0     H99885   1.857   6.285   9.204 -1.0362 -0.1572  0.1803
  740MOL0     H99886   1.537   6.064   9.303  1.4845  0.6537 -1.2296
  740MOL0     H99887   1.303   6.061   9.250 -1.0170 -0.6259 -1.3874
  740MOL0     H99888   1.088   6.019   9.142 -0.3512 -1.3614 -2.2561
  740MOL0     H99889   1.092   5.909   9.287  2.9207 -0.9840  0.5731
  740MOL0     H99890   0.862   5.940   9.185  0.8268  0.6891  1.4708
  740MOL0     H99891   0.930   5.777   9.181 -2.1488 -1.4854 -3.2971
  740MOL0     H99892   0.973   5.767   8.975 -0.8031  0.1182  2.8581
  740MOL0     H99893   0.988   5.941   8.943 -0.3501  0.4046  0.4034
  740MOL0     H99894   0.716   5.785   8.978 -0.0432  0.9524  3.3432
  740MOL0     H99895   0.731   5.961   8.976 -2.5142 -1.0051 -0.7979
  740MOL0     H99896   0.742   5.854   8.580 -1.7964 -0.2787  0.4679
  740MOL0     H99897   1.370   5.684   9.037  0.2753 -0.9612  0.7782
  740MOL0     H99898   1.680   5.617   9.110 -1.5508 -2.2205 -0.0800
  740MOL0     H99899   1.552   5.600   8.997  0.3408  0.5389  0.5773
  740MOL0     H99900   1.682   5.719   8.965 -0.8036 -1.7755 -2.2563
  741MOL0     O99901   2.469   5.972   7.076 -0.4033  0.1084 -0.0974
  741MOL0     C99902   2.398   6.076   7.087  0.1203  0.0530 -0.6324
  741MOL0     O99903   2.403   6.162   7.189  0.2726  0.4669 -0.4533
  741MOL0     C99904   2.517   6.174   7.267 -0.3656 -0.1155 -0.2067
  741MOL0     C99905   2.498   6.240   7.390 -0.3583  0.4989 -0.4009
  741MOL0     C99906   2.608   6.246   7.481 -0.2116 -1.0898  0.1205
  741MOL0     C99907   2.736   6.200   7.447 -0.3158 -0.1270  0.0905
  741MOL0     O99908   2.832   6.197   7.547 -0.8977 -0.5290  0.7793
  741MOL0     C99909   2.973   6.178   7.503 -0.7894 -0.2858  0.4145
  741MOL0     C99910   3.066   6.287   7.567  0.8941  0.3575  0.0466
  741MOL0     C99911   3.041   6.277   7.721 -0.1692 -1.3324 -0.5995
  741MOL0     C99912   3.146   6.361   7.802  0.0636 -0.5676 -0.8888
  741MOL0     C99913   3.176   6.284   7.935  0.5007 -0.6898 -0.6685
  741MOL0     C99914   3.314   6.323   7.997  0.0104 -0.0023 -0.6142
  741MOL0     C99915   3.341   6.213   8.100  0.0000  0.0167 -0.0823
  741MOL0     C99916   3.458   6.242   8.197 -0.2243 -0.0858 -0.8614
  741MOL0     N99917   3.587   6.227   8.131  0.0936  0.0360 -0.1186
  741MOL0     C99918   3.666   6.114   8.146 -1.0611 -0.8217 -0.4655
  741MOL0     C99919   3.758   6.137   8.046 -0.3030  0.0632 -0.2626
  741MOL0     C99920   3.870   6.047   7.987 -0.5135  0.0501 -0.9686
  741MOL0     C99921   3.982   6.033   8.099 -0.7841 -0.7308  0.3680
  741MOL0     C99922   4.077   5.923   8.066 -0.2229 -0.1173 -0.0764
  741MOL0     C99923   4.139   5.927   7.928 -0.8918  0.4832 -0.0301
  741MOL0     O99924   4.260   5.846   7.923  0.0123 -0.2504  0.6425
  741MOL0     C99925   4.387   5.887   7.967  0.1775 -0.1619 -0.1673
  741MOL0     C99926   4.413   5.993   8.053  0.4081 -0.5091 -0.7158
  741MOL0     C99927   4.539   6.026   8.101 -0.3083 -0.0907 -0.8287
  741MOL0     C99928   4.642   5.936   8.080  0.0839 -0.6125  0.1489
  741MOL0     C99929   4.778   5.961   8.148  0.9305  0.2588  0.8016
  741MOL0     O99930   4.788   6.050   8.244 -0.5313 -0.2461 -0.0072
  741MOL0     C99931   4.909   6.120   8.268  0.1312 -0.0930 -0.5745
  741MOL0     C99932   5.039   6.068   8.299 -0.0867 -0.0263 -0.1365
  741MOL0     C99933   5.137   6.163   8.348 -0.9397  0.1978 -0.1646
  741MOL0     C99934   5.110   6.302   8.356 -0.1547  0.3351  0.2978
  741MOL0     O99935   5.205   6.393   8.395 -0.5603  0.0179  0.1038
  741MOL0     C99936   5.236   6.508   8.309  0.1708  0.6722  0.7231
  741MOL0     C99937   5.338   6.474   8.207  0.1329 -0.2426  1.0241
  741MOL0     C99938   5.378   6.601   8.121  0.0526  0.5176  0.3960
  741MOL0     C99939   5.451   6.562   7.995 -0.7765 -0.6526  0.5050
  741MOL0     C99940   5.469   6.678   7.898 -0.1006 -0.6962  0.2409
  741MOL0     C99941   5.540   6.798   7.957 -0.9007 -0.4304 -0.5974
  741MOL0     C99942   5.690   6.790   7.968  0.0608 -0.8933  0.3966
  741MOL0     C99943   5.745   6.790   8.104 -0.3141  0.2530 -0.7924
  741MOL0    Cl99944   5.704   6.936   8.196  0.2105 -0.1161 -0.2787
  741MOL0     C99945   4.984   6.351   8.319  0.2347  0.2519  0.3846
  741MOL0     C99946   4.884   6.261   8.274  0.0471  0.1603  0.5507
  741MOL0     O99947   4.869   5.902   8.098  0.8759 -0.0759 -0.0478
  741MOL0     C99948   4.605   5.828   8.003 -0.4172  0.3339  0.6454
  741MOL0     C99949   4.481   5.796   7.957 -0.4705 -0.4113 -0.0358
  741MOL0     N99950   3.736   6.263   7.991 -0.3070  0.7429 -0.1318
  741MOL0     N99951   3.632   6.318   8.035  0.0851 -0.7733 -0.8119
  741MOL0     C99952   2.751   6.139   7.322 -0.4839 -0.3805  0.6149
  741MOL0     C99953   2.645   6.130   7.237  0.1799  0.6916 -0.2528
  741MOL0     C99954   2.298   6.121   6.983 -1.0632 -0.0018 -0.0597
  741MOL0     C99955   2.257   6.022   6.888  0.2840  0.1182 -1.0795
  741MOL0     C99956   2.172   6.054   6.787 -0.0260  0.2981  0.6842
  741MOL0     C99957   2.108   6.178   6.783  0.4498  0.1067 -0.0706
  741MOL0     O99958   2.012   6.187   6.685 -0.1978 -0.0813 -0.3120
  741MOL0     C99959   1.910   6.287   6.704  0.5482  0.2763 -0.0613
  741MOL0     C99960   1.947   6.400   6.607 -0.1988  0.2187 -0.6061
  741MOL0     C99961   1.945   6.375   6.460 -0.1720  0.2142 -0.2757
  741MOL0     C99962   1.942   6.505   6.386  0.0698 -0.2905  1.3925
  741MOL0     C99963   2.065   6.585   6.400  0.1594 -0.0444  0.3905
  741MOL0     C99964   2.164   6.649   6.422 -0.4535  0.0707  0.2117
  741MOL0     C99965   2.159   6.278   6.869  1.3820  0.7541  0.5692
  741MOL0     C99966   2.245   6.247   6.975  0.7821 -0.3469 -1.0576
  741MOL0     C99967   2.276   6.367   7.063 -0.3324  0.5523 -0.0210
  741MOL0     H99968   2.399   6.272   7.421 -0.1857  0.4812  0.1879
  741MOL0     H99969   2.589   6.291   7.578  2.4497 -0.4096  0.3988
  741MOL0     H99970   3.015   6.085   7.542 -0.4145  0.0943  0.9484
  741MOL0     H99971   2.982   6.189   7.395 -0.5187  5.2927  0.6895
  741MOL0     H99972   3.039   6.388   7.536  2.3795 -0.4296 -4.7974
  741MOL0     H99973   3.169   6.263   7.537  0.8555  0.0445  0.1587
  741MOL0     H99974   3.042   6.173   7.754 -2.1252 -1.3705 -0.5537
  741MOL0     H99975   2.935   6.304   7.733  0.1427  0.7543 -1.9604
  741MOL0     H99976   3.239   6.384   7.748  0.3180  2.3900  0.6211
  741MOL0     H99977   3.102   6.460   7.818  1.2914  0.1364 -1.6625
  741MOL0     H99978   3.093   6.309   8.002  0.0763 -1.3531 -0.9358
  741MOL0     H99979   3.185   6.177   7.914 -2.5159 -0.8992 -1.3302
  741MOL0     H99980   3.391   6.315   7.920  1.6302 -1.9750  1.0873
  741MOL0     H99981   3.311   6.419   8.048 -3.1043 -1.6570  2.7888
  741MOL0     H99982   3.352   6.115   8.053  0.5710 -0.7268  1.5386
  741MOL0     H99983   3.250   6.209   8.159 -1.1663  3.1864 -1.4183
  741MOL0     H99984   3.452   6.346   8.230 -0.7213 -0.5402  0.5637
  741MOL0     H99985   3.450   6.175   8.283 -0.6848  1.5242  0.3965
  741MOL0     H99986   3.660   6.027   8.210 -2.2769 -1.8789 -1.9316
  741MOL0     H99987   3.835   5.944   7.976  2.9151 -1.5642  1.3791
  741MOL0     H99988   3.898   6.082   7.888 -0.8971  1.0564 -0.7377
  741MOL0     H99989   4.034   6.129   8.097 -1.3627 -0.3707  1.6225
  741MOL0     H99990   3.938   6.023   8.198  1.0059  0.4388  1.3242
  741MOL0     H99991   4.026   5.827   8.074 -2.4919  1.0181 -0.1886
  741MOL0     H99992   4.158   5.931   8.139  0.5162  1.4158 -0.9987
  741MOL0     H99993   4.158   6.030   7.895 -1.0336  0.4339 -0.2630
  741MOL0     H99994   4.073   5.875   7.858  0.8278 -0.7462 -0.7975
  741MOL0     H99995   4.336   6.064   8.081  1.3687  1.3575 -2.5220
  741MOL0     H99996   4.553   6.120   8.153  2.1996 -1.4776  1.3330
  741MOL0     H99997   5.071   5.968   8.271 -1.4465 -1.7208  3.6742
  741MOL0     H99998   5.239   6.138   8.375 -0.8895  0.7421  0.1710
  741MOL0     H99999   5.143   6.547   8.265  0.5309 -0.7953 -1.5038
  741MOL0     H    0   5.276   6.592   8.367  1.3254  0.3390  0.4433
  741MOL0     H    1   5.421   6.413   8.244 -3.5840 -6.1667  0.8825
  741MOL0     H    2   5.288   6.399   8.144  1.1914 -1.4775  1.6110
  741MOL0     H    3   5.280   6.640   8.091 -1.7445 -3.7365  0.0924
  741MOL0     H    4   5.444   6.656   8.189 -0.3219  2.6453 -0.8769
  741MOL0     H    5   5.414   6.478   7.934  1.0353  0.6761 -2.7113
  741MOL0     H    6   5.554   6.533   8.020 -0.1092 -2.2220 -3.3198
  741MOL0     H    7   5.369   6.709   7.865 -1.2837 -3.7519  0.5807
  741MOL0     H    8   5.514   6.644   7.805  2.3219 -3.0690  2.1121
  741MOL0     H    9   5.513   6.886   7.897 -2.1781 -0.9725 -0.8343
  741MOL0     H   10   5.500   6.826   8.055 -2.2916 -1.8587 -0.7380
  741MOL0     H   11   5.731   6.864   7.898 -0.9869  1.4483  2.1079
  741MOL0     H   12   5.721   6.694   7.925  3.5745  0.0367  0.5003
  741MOL0     H   13   5.733   6.697   8.161 -0.3272  0.7693  0.0614
  741MOL0     H   14   5.854   6.786   8.096 -0.4566 -1.1018 -2.5868
  741MOL0     H   15   4.963   6.457   8.326 -0.4515  0.1815 -0.3828
  741MOL0     H   16   4.787   6.292   8.237 -0.4698 -0.7840  1.0622
  741MOL0     H   17   4.683   5.756   7.977  0.1754  1.7823 -1.8814
  741MOL0     H   18   4.454   5.702   7.910  0.9342 -0.0465 -1.6717
  741MOL0     H   19   2.844   6.092   7.289  2.2089  3.5313  1.9211
  741MOL0     H   20   2.673   6.072   7.149  1.3346  0.2361  0.3994
  741MOL0     H   21   2.312   5.929   6.887  1.2279  0.5901  1.0001
  741MOL0     H   22   2.144   5.982   6.710  1.7142  2.1025 -1.8194
  741MOL0     H   23   1.916   6.330   6.804  1.7093  3.4497 -1.3655
  741MOL0     H   24   1.808   6.250   6.698  0.2104  0.7171  2.1920
  741MOL0     H   25   2.047   6.437   6.629  0.0116 -0.3386 -0.6133
  741MOL0     H   26   1.876   6.477   6.638  0.4766  0.1368  1.2788
  741MOL0     H   27   1.854   6.319   6.436  0.8559 -0.7655 -2.0713
  741MOL0     H   28   2.022   6.312   6.415  0.3403  2.0078 -2.0997
  741MOL0     H   29   1.929   6.474   6.282 -1.3693 -0.1304  1.5010
  741MOL0     H   30   1.855   6.566   6.411 -0.1556  0.0894 -0.1984
  741MOL0     H   31   2.247   6.706   6.458  2.1100 -2.2570 -1.6751
  741MOL0     H   32   2.118   6.376   6.846 -1.3167 -0.4652 -0.1890
  741MOL0     H   33   2.382   6.377   7.086  0.0757  0.0751 -1.6029
  741MOL0     H   34   2.256   6.463   7.014  0.9913  0.8684  0.0432
  741MOL0     H   35   2.223   6.371   7.159 -2.6053  2.0205 -1.2330
  742MOL0     O   36   3.664   8.233  10.239  0.5914  0.0212 -0.2254
  742MOL0     C   37   3.671   8.157  10.139  0.2936  0.4210 -0.2380
  742MOL0     O   38   3.675   8.198  10.011  0.6359  0.2904 -0.0566
  742MOL0     C   39   3.684   8.331   9.985  0.1294  0.0314  0.1024
  742MOL0     C   40   3.802   8.382   9.922  0.5053  0.5329  0.0364
  742MOL0     C   41   3.808   8.515   9.888  0.2169 -0.1199  0.3694
  742MOL0     C   42   3.699   8.599   9.899 -0.1096 -0.4921 -0.1542
  742MOL0     O   43   3.705   8.731   9.847 -0.6553 -0.8396  0.0582
  742MOL0     C   44   3.590   8.807   9.804  0.7630  0.3899  0.1944
  742MOL0     C   45   3.597   8.872   9.670  1.5411 -0.1151  0.3694
  742MOL0     C   46   3.538   8.788   9.558 -0.4963  0.0516  0.1013
  742MOL0     C   47   3.483   8.897   9.458 -0.0405  0.3703 -0.1120
  742MOL0     C   48   3.412   8.812   9.343 -0.8370  0.3049  0.6613
  742MOL0     C   49   3.369   8.922   9.235  0.8435 -0.7986  0.5065
  742MOL0     C   50   3.266   8.864   9.136  0.4169  0.2001 -0.2688
  742MOL0     C   51   3.190   8.965   9.057 -1.1120  0.2577  0.2950
  742MOL0     N   52   3.294   9.032   8.968  0.7995 -0.6528 -0.1252
  742MOL0     C   53   3.324   8.984   8.847  0.0087  0.0128 -0.1684
  742MOL0     C   54   3.421   9.059   8.810  0.5049  0.1290  1.3995
  742MOL0     C   55   3.485   9.059   8.677 -0.3739  0.5501  0.0275
  742MOL0     C   56   3.491   8.924   8.615  0.3911  0.5341  0.1676
  742MOL0     C   57   3.584   8.908   8.494 -0.7174 -0.1776 -1.2484
  742MOL0     C   58   3.735   8.927   8.533  0.0804 -0.1540  0.0046
  742MOL0     O   59   3.777   8.819   8.625  0.9633 -0.0814  0.0084
  742MOL0     C   60   3.897   8.857   8.682  0.3963  1.1658 -0.0387
  742MOL0     C   61   4.007   8.878   8.598  0.0655 -0.4560  0.4693
  742MOL0     C   62   4.121   8.934   8.658  0.2654 -0.0066 -0.0539
  742MOL0     C   63   4.120   8.949   8.800 -1.6205  0.6625 -0.5302
  742MOL0     C   64   4.244   9.013   8.859 -0.2760  0.3611  0.0589
  742MOL0     O   65   4.351   9.028   8.781  0.0407  0.1253 -0.3986
  742MOL0     C   66   4.464   9.087   8.825 -0.3504  0.2540  0.0981
  742MOL0     C   67   4.540   9.018   8.918 -0.7011 -0.6957  0.4932
  742MOL0     C   68   4.667   9.066   8.954  1.0097  0.0896  0.0141
  742MOL0     C   69   4.715   9.183   8.883  0.6036  0.4874  0.2864
  742MOL0     O   70   4.833   9.243   8.905  0.5562  0.1192 -0.1642
  742MOL0     C   71   4.878   9.220   9.045  0.7773  0.1332  0.6204
  742MOL0     C   72   5.006   9.294   9.072 -0.3608  0.1459  0.3226
  742MOL0     C   73   5.060   9.259   9.213  0.6183  1.2162  0.0140
  742MOL0     C   74   5.169   9.344   9.268  0.1202 -0.8517  0.0113
  742MOL0     C   75   5.314   9.308   9.220  0.3582 -1.1571 -0.7833
  742MOL0     C   76   5.393   9.431   9.210 -0.2983  0.3576  0.5932
  742MOL0     C   77   5.529   9.425   9.156 -0.2514 -0.8970  0.1384
  742MOL0     C   78   5.536   9.487   9.019  0.0164  0.1094 -0.7207
  742MOL0    Cl   79   5.704   9.479   8.971  0.1222 -0.0827 -0.2180
  742MOL0     C   80   4.635   9.255   8.794 -0.0104 -0.4430 -0.2335
  742MOL0     C   81   4.505   9.211   8.766 -0.4272  0.5099  0.5128
  742MOL0     O   82   4.243   9.026   8.982 -0.4591 -0.9405  0.8736
  742MOL0     C   83   4.007   8.911   8.884 -0.5019  1.7343 -0.6525
  742MOL0     C   84   3.898   8.863   8.818  0.8018 -0.0381 -0.8475
  742MOL0     N   85   3.464   9.149   8.907  0.3220  0.2645  0.0577
  742MOL0     N   86   3.368   9.136   8.995  0.5900 -0.2636  0.3910
  742MOL0     C   87   3.591   8.554   9.977  0.5824  0.1005  0.4437
  742MOL0     C   88   3.580   8.420  10.025 -1.2713  0.6129 -0.2615
  742MOL0     C   89   3.664   8.009  10.163  0.2860  0.9434  0.2963
  742MOL0     C   90   3.602   7.973  10.275  0.3988  0.3033 -0.4806
  742MOL0     C   91   3.599   7.840  10.321  0.3446 -0.1604 -0.3203
  742MOL0     C   92   3.637   7.723  10.240  0.7738 -0.6357 -0.5087
  742MOL0     O   93   3.614   7.601  10.280  0.6193  0.1316 -0.0783
  742MOL0     C   94   3.699   7.499  10.255  0.1687  0.7540 -0.3467
  742MOL0     C   95   3.625   7.390  10.179 -0.5282  0.9133 -0.0531
  742MOL0     C   96   3.719   7.274  10.151  0.1190  0.2694  0.0493
  742MOL0     C   97   3.846   7.312  10.082 -0.1436 -0.4945 -0.4469
  742MOL0     C   98   3.835   7.419   9.981 -0.5928  0.6892 -0.0943
  742MOL0     C   99   3.830   7.488   9.887 -0.1965 -0.5284 -0.7574
  742MOL0     C  100   3.681   7.764  10.113  0.3303 -0.4505  0.0689
  742MOL0     C  101   3.700   7.903  10.075  0.1841 -0.2020  0.3934
  742MOL0     C  102   3.732   7.924   9.920  1.0654  0.0821 -0.6955
  742MOL0     H  103   3.888   8.316   9.912  2.1950  2.4948  0.7999
  742MOL0     H  104   3.902   8.553   9.848 -0.0262  0.1893  0.0879
  742MOL0     H  105   3.507   8.737   9.815  2.3748 -1.2766  2.7931
  742MOL0     H  106   3.565   8.885   9.876  1.7947 -2.2635  3.6864
  742MOL0     H  107   3.705   8.879   9.657  1.6482 -2.4693 -0.7703
  742MOL0     H  108   3.548   8.968   9.683 -1.3470 -1.6243  1.5335
  742MOL0     H  109   3.453   8.726   9.589 -0.3080 -0.8842 -1.2099
  742MOL0     H  110   3.609   8.720   9.510 -3.0236 -2.4710 -0.3684
  742MOL0     H  111   3.402   8.954   9.504  0.7078 -0.8391  2.9350
  742MOL0     H  112   3.567   8.958   9.425  1.4281 -1.1551  0.6558
  742MOL0     H  113   3.475   8.735   9.297 -1.0970  0.6671 -0.3312
  742MOL0     H  114   3.314   8.786   9.384 -1.0529 -0.8500 -0.5112
  742MOL0     H  115   3.323   8.996   9.302 -0.2226 -1.0766  0.1019
  742MOL0     H  116   3.460   8.969   9.196  0.3367 -1.8237 -2.1278
  742MOL0     H  117   3.189   8.812   9.193 -0.6930  0.6163 -1.3407
  742MOL0     H  118   3.316   8.783   9.082  0.5265 -1.0513  1.6058
  742MOL0     H  119   3.108   8.923   8.998 -0.9048 -0.4312  0.4902
  742MOL0     H  120   3.146   9.039   9.124  0.0532 -0.6665  2.1855
  742MOL0     H  121   3.279   8.900   8.795  1.2883 -0.6028 -0.3143
  742MOL0     H  122   3.438   9.132   8.610 -1.8573 -2.4864 -2.5111
  742MOL0     H  123   3.585   9.096   8.703 -0.0599 -0.0330 -0.3237
  742MOL0     H  124   3.518   8.850   8.691  1.8190  0.5064 -0.3316
  742MOL0     H  125   3.389   8.893   8.591 -0.2111  0.4606  2.5498
  742MOL0     H  126   3.557   8.961   8.403 -2.0799 -3.9681 -3.2787
  742MOL0     H  127   3.572   8.803   8.465 -0.4689 -0.2822 -0.9853
  742MOL0     H  128   3.746   9.030   8.566 -4.3827  2.0007 -4.0501
  742MOL0     H  129   3.793   8.919   8.441  0.4329 -0.8452  0.2728
  742MOL0     H  130   4.006   8.886   8.490 -1.3476 -0.9934  0.4116
  742MOL0     H  131   4.190   8.975   8.585 -2.1532  0.1284 -2.3962
  742MOL0     H  132   4.500   8.925   8.957 -0.7010 -0.5235  0.9112
  742MOL0     H  133   4.735   9.004   9.013  0.9664 -0.1650 -0.2027
  742MOL0     H  134   4.796   9.268   9.099 -3.1328  1.7537 -5.6863
  742MOL0     H  135   4.891   9.117   9.077 -0.4268 -0.0490  0.5944
  742MOL0     H  136   5.078   9.283   8.990 -0.8740 -1.5168  0.0422
  742MOL0     H  137   4.988   9.401   9.079  2.0803  0.5366  1.2377
  742MOL0     H  138   4.968   9.272   9.271  0.3426  1.3878 -0.4572
  742MOL0     H  139   5.091   9.154   9.218  0.4404  1.1653  0.0603
  742MOL0     H  140   5.164   9.335   9.377  0.3951  0.0908  0.1053
  742MOL0     H  141   5.142   9.447   9.244 -2.4813 -1.3986  0.2296
  742MOL0     H  142   5.310   9.265   9.119  1.7594 -0.4804 -1.1439
  742MOL0     H  143   5.349   9.237   9.295  0.5541  0.3500  0.6168
  742MOL0     H  144   5.335   9.500   9.148  1.8822  2.5243  0.8163
  742MOL0     H  145   5.402   9.473   9.310 -1.4802  0.5036  0.6536
  742MOL0     H  146   5.569   9.323   9.158  1.4370 -0.2730  2.1183
  742MOL0     H  147   5.600   9.468   9.227 -0.1069 -2.2222  0.8291
  742MOL0     H  148   5.470   9.428   8.954 -4.8762  0.6442  3.1260
  742MOL0     H  149   5.495   9.588   9.026 -0.4130 -0.1331  0.6359
  742MOL0     H  150   4.679   9.339   8.742 -1.0573  0.2490 -0.0402
  742MOL0     H  151   4.430   9.271   8.716 -0.5221  0.2795  0.3805
  742MOL0     H  152   4.003   8.926   8.991  1.6466 -0.1842 -0.2134
  742MOL0     H  153   3.803   8.837   8.864 -0.9038  0.2156 -3.9618
  742MOL0     H  154   3.503   8.614  10.001  0.1509  0.8296 -2.5858
  742MOL0     H  155   3.505   8.382  10.094 -1.0106 -0.5690 -0.5980
  742MOL0     H  156   3.559   8.044  10.345 -0.2768 -0.2868 -0.2831
  742MOL0     H  157   3.559   7.825  10.421 -0.2516  2.2076 -0.1492
  742MOL0     H  158   3.746   7.461  10.346  2.2850  2.0373 -0.8292
  742MOL0     H  159   3.785   7.535  10.198  1.2323 -2.7255 -1.1383
  742MOL0     H  160   3.590   7.425  10.081 -0.3718 -0.4958 -0.6323
  742MOL0     H  161   3.538   7.355  10.234 -0.1814 -1.8706 -1.1122
  742MOL0     H  162   3.660   7.219  10.076 -0.3773  0.0852  0.5665
  742MOL0     H  163   3.739   7.211  10.238  0.2591  0.8031  0.4060
  742MOL0     H  164   3.917   7.331  10.164 -1.0409 -1.9459  0.7056
  742MOL0     H  165   3.878   7.223  10.026 -1.4542 -1.5169  0.3919
  742MOL0     H  166   3.821   7.554   9.803 -0.6673 -0.9134 -1.0134
  742MOL0     H  167   3.705   7.694  10.034  3.1777  1.1628 -0.6268
  742MOL0     H  168   3.784   7.835   9.881 -2.5175 -2.8728  0.6207
  742MOL0     H  169   3.638   7.935   9.866 -0.5302 -2.7341  1.2517
  742MOL0     H  170   3.809   8.001   9.904  2.7802 -1.7123 -1.6413
  743MOL0     O  171   8.232   4.529   2.692 -0.3151 -0.2153  0.3255
  743MOL0     C  172   8.264   4.651   2.701 -0.0778 -0.3293  0.7039
  743MOL0     O  173   8.385   4.704   2.671 -0.1086 -0.6869  0.3285
  743MOL0     C  174   8.499   4.626   2.672  0.1391 -0.1774 -0.9058
  743MOL0     C  175   8.610   4.692   2.617 -0.0825 -0.0305 -0.2185
  743MOL0     C  176   8.742   4.633   2.624  0.9824 -0.1979 -0.1735
  743MOL0     C  177   8.751   4.502   2.674  0.4864  0.1286 -0.1928
  743MOL0     O  178   8.875   4.443   2.657 -0.0053  0.2271  0.1673
  743MOL0     C  179   8.889   4.339   2.562  0.2996  0.2395  0.9155
  743MOL0     C  180   9.037   4.327   2.535  0.2390 -0.4030  0.0359
  743MOL0     C  181   9.089   4.190   2.473  0.3308  0.5663  0.3729
  743MOL0     C  182   9.241   4.179   2.430 -1.1807 -0.3629 -0.3750
  743MOL0     C  183   9.347   4.233   2.527  0.4301 -0.3973  0.5146
  743MOL0     C  184   9.360   4.149   2.658 -0.6227  0.7011  0.2215
  743MOL0     C  185   9.496   4.068   2.660  0.3079  1.0574  0.7307
  743MOL0     C  186   9.509   3.976   2.780 -0.4781  0.1852 -0.7004
  743MOL0     N  187   9.646   3.958   2.817  0.3179  0.5618 -0.9105
  743MOL0     C  188   9.721   4.000   2.923 -0.0239 -0.3696  1.0034
  743MOL0     C  189   9.844   3.945   2.912 -0.4041 -0.0968  0.0019
  743MOL0     C  190   9.974   3.956   2.990  1.1289  0.1011  0.6653
  743MOL0     C  191  10.023   4.100   2.995  0.7258 -0.2870 -0.6910
  743MOL0     C  192  10.173   4.114   3.036  0.4881  0.2156 -0.4186
  743MOL0     C  193  10.217   4.023   3.160  0.1117 -0.2902 -0.3721
  743MOL0     O  194  10.363   4.029   3.160  0.3358  0.0440 -0.3543
  743MOL0     C  195  10.409   3.998   3.287 -0.6493  0.5375  0.6067
  743MOL0     C  196  10.537   4.034   3.310 -0.7602  0.4612 -0.1901
  743MOL0     C  197  10.600   4.013   3.436  0.5663  0.7585 -0.2267
  743MOL0     C  198  10.531   3.945   3.542 -0.7436  0.1926  0.1263
  743MOL0     C  199  10.604   3.916   3.665 -0.2806 -0.6746  1.1012
  743MOL0     O  200  10.726   3.976   3.685 -0.2130  0.3888 -0.1350
  743MOL0     C  201  10.792   3.940   3.806  0.0799  0.3671  0.1953
  743MOL0     C  202  10.911   3.869   3.800  0.0207 -0.4373 -0.2007
  743MOL0     C  203  10.986   3.837   3.907 -0.3744  0.2105 -0.6334
  743MOL0     C  204  10.960   3.883   4.029  0.7112 -0.3333  1.0019
  743MOL0     O  205  11.050   3.871   4.130  0.4508  0.1886 -0.8899
  743MOL0     C  206  11.181   3.820   4.105  0.3079 -0.5427  0.9462
  743MOL0     C  207  11.272   3.814   4.226  0.7238 -0.6126 -0.4289
  743MOL0     C  208  11.264   3.958   4.287  0.6186  0.2405 -0.9401
  743MOL0     C  209  11.399   4.015   4.335  0.4340 -0.1329 -0.0769
  743MOL0     C  210  11.459   3.969   4.460 -0.3020 -1.1031  0.0505
  743MOL0     C  211  11.590   4.051   4.498 -0.3000 -0.6099  0.7763
  743MOL0     C  212  11.657   3.987   4.617  0.9701 -0.0357 -0.4162
  743MOL0     C  213  11.729   3.859   4.589 -0.9360  0.1110  0.6382
  743MOL0    Cl  214  11.853   3.866   4.447  0.0806  0.0078 -0.0724
  743MOL0     C  215  10.843   3.962   4.045 -0.4333 -0.0845  0.2753
  743MOL0     C  216  10.757   3.982   3.937 -0.3306 -0.1438  0.0762
  743MOL0     O  217  10.540   3.852   3.746 -0.2640  0.0820 -0.2653
  743MOL0     C  218  10.400   3.909   3.520  0.8087 -0.3116  0.3541
  743MOL0     C  219  10.338   3.930   3.393  0.6331 -0.5211  1.0628
  743MOL0     N  220   9.840   3.873   2.794 -0.5323 -0.7071 -1.5186
  743MOL0     N  221   9.720   3.870   2.742 -0.8770 -0.4573  0.0299
  743MOL0     C  222   8.639   4.434   2.726 -0.4504  0.8280 -0.5976
  743MOL0     C  223   8.512   4.498   2.737  0.3710 -0.3605 -0.0305
  743MOL0     C  224   8.147   4.743   2.716 -0.2271  0.3323 -0.7912
  743MOL0     C  225   8.025   4.680   2.751 -0.4533 -0.2029 -0.4444
  743MOL0     C  226   7.906   4.756   2.760  0.5016  0.3052 -0.9073
  743MOL0     C  227   7.916   4.898   2.754  0.6725 -0.6225  0.2170
  743MOL0     O  228   7.800   4.975   2.793 -0.6854  0.2315  0.2614
  743MOL0     C  229   7.817   5.118   2.810  0.0472 -0.0369 -0.0902
  743MOL0     C  230   7.691   5.194   2.868 -0.8169  0.0233  0.5989
  743MOL0     C  231   7.576   5.179   2.773  0.2929  0.7377  0.1146
  743MOL0     C  232   7.452   5.269   2.805  0.5917 -0.2172  0.3933
  743MOL0     C  233   7.361   5.273   2.691 -0.2424  0.2189  0.6601
  743MOL0     C  234   7.270   5.268   2.608 -0.1396  1.2451 -0.3887
  743MOL0     C  235   8.037   4.956   2.729  0.0316 -0.0329  0.4842
  743MOL0     C  236   8.156   4.890   2.723 -0.1527 -0.4459  0.4889
  743MOL0     C  237   8.282   4.969   2.670 -0.3705  0.0249 -0.4600
  743MOL0     H  238   8.589   4.795   2.591 -3.0708 -0.8224 -1.3743
  743MOL0     H  239   8.837   4.675   2.590 -1.5233  4.0162 -2.9366
  743MOL0     H  240   8.855   4.239   2.590  1.2413 -0.5998 -0.8106
  743MOL0     H  241   8.839   4.364   2.468  1.9881  1.1007  0.2040
  743MOL0     H  242   9.085   4.352   2.631  0.0555  1.2065 -0.2728
  743MOL0     H  243   9.056   4.404   2.460  0.9516 -0.2076  0.4089
  743MOL0     H  244   9.018   4.153   2.398 -2.1037  3.8167  0.8313
  743MOL0     H  245   9.078   4.118   2.554 -0.4043  0.5047  0.2269
  743MOL0     H  246   9.260   4.074   2.407  1.9125 -0.0868  0.4028
  743MOL0     H  247   9.242   4.239   2.338 -3.5834  2.0996  1.0315
  743MOL0     H  248   9.444   4.241   2.477  0.2482 -0.7574  0.0969
  743MOL0     H  249   9.313   4.336   2.541 -1.3056 -0.3484 -2.9576
  743MOL0     H  250   9.383   4.213   2.744  2.4135 -1.1299  0.9175
  743MOL0     H  251   9.274   4.083   2.666  0.1619 -0.2279  1.2819
  743MOL0     H  252   9.581   4.137   2.657  2.8133 -1.8022 -1.2350
  743MOL0     H  253   9.477   4.003   2.574 -1.5383  3.4030 -0.7178
  743MOL0     H  254   9.457   4.004   2.872  1.4393  0.8035  0.2389
  743MOL0     H  255   9.468   3.878   2.751 -1.2747 -0.2152  1.5975
  743MOL0     H  256   9.701   4.060   3.012  0.1167 -2.9541  2.9077
  743MOL0     H  257   9.950   3.913   3.088  2.3798  0.7093  1.2623
  743MOL0     H  258  10.051   3.894   2.943 -0.7453  0.0311 -2.6402
  743MOL0     H  259   9.992   4.151   2.903 -0.6301  1.1215  0.4974
  743MOL0     H  260   9.961   4.153   3.067 -1.0818 -0.3839 -2.1163
  743MOL0     H  261  10.170   4.221   3.062 -2.1996 -0.7386  4.1716
  743MOL0     H  262  10.242   4.091   2.954  3.3661  2.6684  1.1229
  743MOL0     H  263  10.185   3.919   3.158  2.1018 -0.9576 -2.7698
  743MOL0     H  264  10.182   4.075   3.250  0.2023 -0.8751  0.0049
  743MOL0     H  265  10.599   4.071   3.229  0.1640 -2.9742 -1.2643
  743MOL0     H  266  10.705   4.039   3.444  1.1526  0.2160 -4.2693
  743MOL0     H  267  10.948   3.834   3.704  2.6068 -0.0216  0.5589
  743MOL0     H  268  11.070   3.771   3.885  0.5846  1.2557 -0.2186
  743MOL0     H  269  11.173   3.715   4.073  0.7605 -0.2249 -0.2717
  743MOL0     H  270  11.236   3.871   4.025 -1.1235 -1.9083 -1.0106
  743MOL0     H  271  11.239   3.742   4.301  0.5396  0.7750  0.8749
  743MOL0     H  272  11.377   3.794   4.203  1.0088  0.0381  0.2589
  743MOL0     H  273  11.224   4.029   4.213  0.6673  0.7545 -0.4804
  743MOL0     H  274  11.200   3.960   4.375  2.5141 -0.5507  0.5445
  743MOL0     H  275  11.397   4.125   4.333 -0.5279 -0.1101  1.0457
  743MOL0     H  276  11.473   3.997   4.256  1.6413  1.8272  0.5416
  743MOL0     H  277  11.490   3.869   4.430  3.1322 -0.4523  1.0054
  743MOL0     H  278  11.385   3.968   4.542 -0.4993  2.3842  0.0447
  743MOL0     H  279  11.656   4.047   4.411  2.0189 -2.3188  2.5000
  743MOL0     H  280  11.569   4.159   4.494  0.7827 -0.3835 -2.5392
  743MOL0     H  281  11.584   3.965   4.695  0.4451  0.5326 -0.7371
  743MOL0     H  282  11.726   4.065   4.652 -1.8458  3.4719 -2.0270
  743MOL0     H  283  11.782   3.831   4.681  0.1841  2.7900  0.8760
  743MOL0     H  284  11.660   3.775   4.574  1.3458 -1.5908 -0.9682
  743MOL0     H  285  10.821   4.010   4.140 -1.7373 -0.4264  0.1615
  743MOL0     H  286  10.670   4.046   3.942  0.4387  0.9211  0.4055
  743MOL0     H  287  10.337   3.868   3.599  1.5118  0.5655  1.3963
  743MOL0     H  288  10.237   3.891   3.391  0.2748  0.3461  1.4473
  743MOL0     H  289   8.644   4.331   2.757  1.0397  0.3709 -2.1954
  743MOL0     H  290   8.430   4.450   2.789  0.7838  0.0641  1.0464
  743MOL0     H  291   8.012   4.573   2.760 -1.5996 -0.0508 -0.0783
  743MOL0     H  292   7.815   4.699   2.778  1.5461 -1.1499 -0.0329
  743MOL0     H  293   7.839   5.169   2.715 -0.6761  0.4638  0.0002
  743MOL0     H  294   7.897   5.133   2.883  0.9580  2.8308 -1.4955
  743MOL0     H  295   7.721   5.298   2.886 -1.6995  0.5941 -0.9447
  743MOL0     H  296   7.665   5.139   2.958  1.2846 -2.5754 -0.2667
  743MOL0     H  297   7.535   5.078   2.781  0.4609  0.7506  1.2675
  743MOL0     H  298   7.605   5.190   2.668 -1.1398 -4.9402 -1.2266
  743MOL0     H  299   7.402   5.239   2.897 -1.1372  1.4371  0.0619
  743MOL0     H  300   7.495   5.366   2.829  0.3235 -0.5335  2.3246
  743MOL0     H  301   7.191   5.255   2.537 -0.9784 -0.0428  0.7239
  743MOL0     H  302   8.041   5.065   2.733 -2.9053  0.1202  3.4713
  743MOL0     H  303   8.367   4.962   2.739  0.1352  1.1330 -0.9525
  743MOL0     H  304   8.311   4.933   2.570 -0.9198  1.6386 -1.2391
  743MOL0     H  305   8.259   5.075   2.664 -1.3755 -0.1327  0.4660
  744MOL0     O  306   6.159   4.443   8.183  0.2145 -0.4056  0.0997
  744MOL0     C  307   6.212   4.417   8.075  0.6875 -0.5551  0.4952
  744MOL0     O  308   6.229   4.296   8.028  0.2005 -0.1580  0.2153
  744MOL0     C  309   6.167   4.193   8.093  0.0441  0.8815 -0.7318
  744MOL0     C  310   6.238   4.082   8.143 -0.1030 -0.4951 -0.2594
  744MOL0     C  311   6.176   3.978   8.217  0.0093 -0.1135  0.2224
  744MOL0     C  312   6.036   3.968   8.231 -0.1466 -0.0289  0.0799
  744MOL0     O  313   5.968   3.861   8.287 -0.3825  0.0651  0.0511
  744MOL0     C  314   6.044   3.820   8.399  0.3082  0.1516 -0.8281
  744MOL0     C  315   5.955   3.737   8.484 -0.2173  0.5399 -0.6088
  744MOL0     C  316   6.015   3.681   8.615  0.2214  0.6386  0.1798
  744MOL0     C  317   6.070   3.796   8.692  1.1148  0.1304 -0.3198
  744MOL0     C  318   6.218   3.789   8.704 -0.2083 -0.4633 -0.6613
  744MOL0     C  319   6.271   3.916   8.763  0.5841  0.1081 -0.0280
  744MOL0     C  320   6.257   4.055   8.699  0.5647  0.4607  0.0637
  744MOL0     C  321   6.334   4.062   8.567  0.0723  0.8262  0.2927
  744MOL0     N  322   6.364   4.199   8.537 -0.3028 -0.8152  0.2606
  744MOL0     C  323   6.264   4.298   8.517 -0.1118 -0.4315  0.1476
  744MOL0     C  324   6.336   4.413   8.522  0.4089 -0.2757 -0.2297
  744MOL0     C  325   6.284   4.547   8.477  0.5126 -0.6141 -0.4587
  744MOL0     C  326   6.273   4.645   8.604 -0.1106  0.9155  0.1759
  744MOL0     C  327   6.413   4.667   8.687  0.3768  0.5714  0.1427
  744MOL0     C  328   6.531   4.730   8.617  0.6273 -0.2574 -0.0992
  744MOL0     O  329   6.625   4.778   8.710 -0.3151  0.0926 -0.7623
  744MOL0     C  330   6.695   4.683   8.785  0.8284 -0.2358  0.0316
  744MOL0     C  331   6.696   4.694   8.925  0.0280 -0.6093 -1.4045
  744MOL0     C  332   6.761   4.597   9.007  1.1088 -0.2085  0.1502
  744MOL0     C  333   6.828   4.482   8.944  0.2719  0.1402  0.2042
  744MOL0     C  334   6.886   4.378   9.031 -0.4006 -0.0404 -0.8874
  744MOL0     O  335   6.978   4.304   8.979 -0.4386  0.1994  0.4305
  744MOL0     C  336   7.019   4.186   9.049 -0.0909 -0.6789  0.2675
  744MOL0     C  337   7.149   4.159   9.082  0.3724  0.4386  1.0009
  744MOL0     C  338   7.191   4.035   9.139 -0.0100  0.1906  0.1946
  744MOL0     C  339   7.095   3.929   9.154  0.9687 -0.9601  1.4197
  744MOL0     O  340   7.143   3.807   9.187 -0.3973 -0.0091 -0.5577
  744MOL0     C  341   7.085   3.719   9.282 -0.2084 -0.4761 -0.7494
  744MOL0     C  342   7.170   3.586   9.278 -0.0093  0.3846 -0.4200
  744MOL0     C  343   7.161   3.530   9.427 -0.0490  0.1650  0.4180
  744MOL0     C  344   7.225   3.393   9.457  0.9798 -0.6468  0.7636
  744MOL0     C  345   7.354   3.371   9.374  0.6205 -0.3325 -1.3674
  744MOL0     C  346   7.464   3.472   9.395 -0.2467 -0.7029  0.5457
  744MOL0     C  347   7.606   3.412   9.384 -0.2955  0.1445  0.1322
  744MOL0     C  348   7.646   3.340   9.514  0.0234 -0.0245  0.1458
  744MOL0    Cl  349   7.801   3.258   9.462  0.0133 -0.1822 -0.0377
  744MOL0     C  350   6.964   3.956   9.117 -0.4208  0.1232  0.2114
  744MOL0     C  351   6.926   4.080   9.061 -0.3197 -0.5863 -0.1107
  744MOL0     O  352   6.871   4.389   9.151  0.1264  0.3195  0.3525
  744MOL0     C  353   6.821   4.477   8.804  0.2669 -0.4135  0.2033
  744MOL0     C  354   6.764   4.581   8.729 -0.2520 -0.4639 -0.1485
  744MOL0     N  355   6.470   4.383   8.553 -0.5036 -0.9307  0.1138
  744MOL0     N  356   6.485   4.257   8.557 -0.2759 -0.5028 -0.4841
  744MOL0     C  357   5.963   4.075   8.181 -1.0535  0.2516  0.5369
  744MOL0     C  358   6.030   4.179   8.118  0.1198 -0.7452 -0.3759
  744MOL0     C  359   6.252   4.528   7.983  1.8008 -0.5456  0.3061
  744MOL0     C  360   6.298   4.649   8.041  0.3345  0.1291 -0.7096
  744MOL0     C  361   6.320   4.764   7.963 -0.0478  0.3289  0.0342
  744MOL0     C  362   6.294   4.767   7.829  0.6294  0.3925  0.7734
  744MOL0     O  363   6.308   4.881   7.755  0.3211  0.0269 -0.8415
  744MOL0     C  364   6.246   4.880   7.623 -0.2136 -0.7394  0.1820
  744MOL0     C  365   6.085   4.857   7.625  0.1150  0.0470 -0.0701
  744MOL0     C  366   6.018   4.952   7.719 -0.0991 -0.5612  0.3137
  744MOL0     C  367   5.979   5.080   7.654  0.6868  0.3116  0.0874
  744MOL0     C  368   5.891   5.169   7.736 -0.4894  1.6561 -0.0165
  744MOL0     C  369   5.833   5.227   7.828  0.3451 -0.2580 -0.2998
  744MOL0     C  370   6.276   4.642   7.766 -0.3896 -0.2575  0.2220
  744MOL0     C  371   6.249   4.521   7.839 -0.1977 -0.5841  0.5012
  744MOL0     C  372   6.226   4.396   7.763 -0.0910 -0.4027 -0.8953
  744MOL0     H  373   6.344   4.075   8.118 -0.1436 -1.5181 -0.2038
  744MOL0     H  374   6.238   3.896   8.252  0.3871  0.7812  1.7343
  744MOL0     H  375   6.133   3.761   8.375 -0.7271 -2.5589  1.4850
  744MOL0     H  376   6.070   3.910   8.456 -0.9384 -0.4845  0.8110
  744MOL0     H  377   5.924   3.641   8.441  1.2017 -0.9434  1.4817
  744MOL0     H  378   5.865   3.799   8.493  0.0082  0.9198 -0.9555
  744MOL0     H  379   6.088   3.603   8.593 -0.2976  0.2576 -0.2474
  744MOL0     H  380   5.929   3.639   8.668  0.3509 -0.6032 -0.5584
  744MOL0     H  381   6.039   3.894   8.655 -0.3175  0.1006  0.6980
  744MOL0     H  382   6.029   3.787   8.794  1.2631  0.2949 -0.2465
  744MOL0     H  383   6.251   3.709   8.770  0.5358 -0.8443 -1.4711
  744MOL0     H  384   6.269   3.774   8.608  3.5862 -1.8115  1.3475
  744MOL0     H  385   6.215   3.926   8.856 -0.4145 -0.5764 -0.5393
  744MOL0     H  386   6.378   3.896   8.780  0.5011 -0.5527 -0.2374
  744MOL0     H  387   6.279   4.135   8.771 -0.2832 -0.0590  0.9195
  744MOL0     H  388   6.150   4.072   8.686  0.5521 -0.3030 -0.9135
  744MOL0     H  389   6.432   4.016   8.579  0.6386  1.3898 -1.6607
  744MOL0     H  390   6.275   4.016   8.487  2.5740 -2.4032  0.0934
  744MOL0     H  391   6.160   4.285   8.489 -0.4241  0.5805  0.7904
  744MOL0     H  392   6.344   4.586   8.395  1.3330 -0.2887  0.2863
  744MOL0     H  393   6.185   4.531   8.432  0.9163 -3.1865 -0.6171
  744MOL0     H  394   6.233   4.740   8.568  0.4019  1.4820  1.0692
  744MOL0     H  395   6.209   4.587   8.672 -0.8869  1.8704  0.2896
  744MOL0     H  396   6.447   4.573   8.733 -0.7529 -1.1479 -2.3064
  744MOL0     H  397   6.379   4.729   8.771 -3.5859 -1.3443  0.2205
  744MOL0     H  398   6.498   4.814   8.556 -2.6637 -1.1648  0.2430
  744MOL0     H  399   6.576   4.669   8.538  0.8740  0.4308 -0.5010
  744MOL0     H  400   6.656   4.784   8.971  3.0172  0.3800 -0.4737
  744MOL0     H  401   6.750   4.605   9.115 -0.8196 -0.2679 -0.0111
  744MOL0     H  402   7.223   4.233   9.052 -0.5608  2.0869  2.6057
  744MOL0     H  403   7.296   4.018   9.161  0.9630  0.4061 -3.5427
  744MOL0     H  404   7.092   3.767   9.381  1.3585 -1.8443 -0.1517
  744MOL0     H  405   6.982   3.694   9.255 -0.1015 -1.5862 -0.1771
  744MOL0     H  406   7.132   3.513   9.207  0.9626  1.0926 -1.7270
  744MOL0     H  407   7.272   3.614   9.250  0.0251  0.3279 -0.3504
  744MOL0     H  408   7.209   3.598   9.499  1.1288 -0.1134 -0.0893
  744MOL0     H  409   7.058   3.525   9.464 -0.0106 -4.2961  0.4710
  744MOL0     H  410   7.161   3.307   9.436 -0.6029  0.8810 -0.9701
  744MOL0     H  411   7.241   3.388   9.565 -0.3626 -2.1662  0.9347
  744MOL0     H  412   7.331   3.361   9.268 -0.2225  0.3953 -1.2635
  744MOL0     H  413   7.396   3.273   9.401 -2.2067 -1.0412  1.0194
  744MOL0     H  414   7.467   3.557   9.325  0.6721 -0.6657  0.6114
  744MOL0     H  415   7.459   3.525   9.490 -1.7585  2.6620 -1.2135
  744MOL0     H  416   7.677   3.483   9.340 -0.4238 -0.5332 -1.2239
  744MOL0     H  417   7.601   3.329   9.313  1.8652  1.5486 -1.7998
  744MOL0     H  418   7.660   3.404   9.603  1.7533 -0.4632  0.2275
  744MOL0     H  419   7.578   3.260   9.543  0.0390  0.1801  0.7780
  744MOL0     H  420   6.895   3.871   9.116  1.7599 -2.2241 -6.3726
  744MOL0     H  421   6.821   4.079   9.033 -0.7715  0.1411  1.4724
  744MOL0     H  422   6.863   4.398   8.742  3.1474  1.8451 -0.9373
  744MOL0     H  423   6.763   4.580   8.621 -1.8592  0.2891 -0.1688
  744MOL0     H  424   5.856   4.060   8.181 -0.6665 -3.6068  0.1207
  744MOL0     H  425   5.966   4.257   8.076 -0.4237 -0.5954  0.6816
  744MOL0     H  426   6.306   4.652   8.149  0.5788 -1.3038 -0.6728
  744MOL0     H  427   6.341   4.860   8.010  0.0785 -0.5112  1.7716
  744MOL0     H  428   6.302   4.810   7.562  2.0281 -0.6284  1.9896
  744MOL0     H  429   6.268   4.977   7.577 -2.1908  0.5635  1.7461
  744MOL0     H  430   6.064   4.758   7.668  1.2430  0.7604  2.3212
  744MOL0     H  431   6.041   4.881   7.528  3.0337  1.1575 -1.2346
  744MOL0     H  432   6.092   4.979   7.795 -0.3538  1.5097 -0.1191
  744MOL0     H  433   5.940   4.898   7.773 -0.4011  2.2768  3.0369
  744MOL0     H  434   6.069   5.135   7.622  1.7775 -2.0921 -1.3447
  744MOL0     H  435   5.925   5.058   7.561 -0.3761 -0.5039  0.8730
  744MOL0     H  436   5.768   5.278   7.896 -3.4474  0.3160 -3.9077
  744MOL0     H  437   6.307   4.636   7.662 -0.7100 -1.0080  0.1632
  744MOL0     H  438   6.239   4.421   7.658  1.4500  0.3788 -0.5678
  744MOL0     H  439   6.301   4.321   7.792 -0.3438 -0.0031  0.9629
  744MOL0     H  440   6.125   4.361   7.783 -0.0616 -0.1388 -0.2455
  745MOL0     O  441   2.758   0.900   4.020 -0.8868 -0.0731 -0.0986
  745MOL0     C  442   2.732   0.928   3.905  0.7426  0.3236  0.4578
  745MOL0     O  443   2.813   0.954   3.801  0.0946 -0.6319  0.2087
  745MOL0     C  444   2.935   1.015   3.821  0.8934 -0.0530  0.2717
  745MOL0     C  445   3.047   0.986   3.731  1.0919  0.1137 -0.3412
  745MOL0     C  446   3.169   1.053   3.754  0.3725  1.3141 -0.6990
  745MOL0     C  447   3.189   1.139   3.861 -0.5684  0.4263 -0.1651
  745MOL0     O  448   3.317   1.194   3.873 -0.3166 -0.5638  0.4461
  745MOL0     C  449   3.343   1.276   3.986 -0.7950  0.5275  1.0861
  745MOL0     C  450   3.477   1.345   3.956 -0.7572  0.9244 -0.1281
  745MOL0     C  451   3.536   1.419   4.075  0.1318  1.0655  0.2413
  745MOL0     C  452   3.633   1.537   4.044 -0.8406 -0.0386  0.2844
  745MOL0     C  453   3.718   1.593   4.160  0.0916  0.0080 -0.8894
  745MOL0     C  454   3.650   1.707   4.247 -0.5147 -0.0083 -0.4621
  745MOL0     C  455   3.717   1.752   4.377  0.3703  0.4580  0.0050
  745MOL0     C  456   3.702   1.656   4.490 -0.1822 -0.6336 -0.4947
  745MOL0     N  457   3.769   1.710   4.618 -0.0551  0.4736  0.2042
  745MOL0     C  458   3.905   1.716   4.642 -0.9364  1.0202  0.7766
  745MOL0     C  459   3.928   1.814   4.733  0.1134 -0.6719 -0.4968
  745MOL0     C  460   4.058   1.853   4.800 -0.5606 -0.2913 -0.4275
  745MOL0     C  461   4.188   1.814   4.710  0.2604 -0.0163  0.0940
  745MOL0     C  462   4.314   1.879   4.765  0.1988 -0.3680  0.1326
  745MOL0     C  463   4.413   1.932   4.652 -0.0216 -0.5437 -0.0202
  745MOL0     O  464   4.460   1.818   4.585  0.2027 -1.0868 -0.3749
  745MOL0     C  465   4.555   1.839   4.482  0.2323  0.0724 -0.3406
  745MOL0     C  466   4.624   1.969   4.457  0.8697  0.2623 -0.9295
  745MOL0     C  467   4.684   1.999   4.342  0.4241 -0.7088 -0.3940
  745MOL0     C  468   4.706   1.906   4.246  0.7452  0.5320  0.5832
  745MOL0     C  469   4.800   1.925   4.125  0.1604 -0.4537 -0.6147
  745MOL0     O  470   4.912   1.997   4.149  0.1530 -0.2099  0.9793
  745MOL0     C  471   5.018   2.005   4.063  0.2918  0.2414 -0.1585
  745MOL0     C  472   5.139   2.049   4.123 -0.8715 -0.2904  0.7217
  745MOL0     C  473   5.264   2.055   4.054 -0.5491 -0.6363 -0.2456
  745MOL0     C  474   5.270   2.026   3.916 -0.0103 -0.1707 -0.7293
  745MOL0     O  475   5.376   2.069   3.843  0.1176 -0.0522  0.6794
  745MOL0     C  476   5.451   1.965   3.787 -0.0658 -0.1246  0.3879
  745MOL0     C  477   5.602   1.992   3.801  0.1003 -0.4079  1.0575
  745MOL0     C  478   5.658   2.050   3.935 -0.0732 -0.2729  0.4833
  745MOL0     C  479   5.805   2.085   3.913 -0.3649 -0.4580  0.2479
  745MOL0     C  480   5.855   2.178   4.025 -1.0111 -0.4405  0.8341
  745MOL0     C  481   6.009   2.217   4.004 -0.0901  0.1075  0.8823
  745MOL0     C  482   6.051   2.290   4.128  0.6668 -0.4226 -0.6183
  745MOL0     C  483   6.200   2.320   4.124  0.0138 -0.3669  0.6430
  745MOL0    Cl  484   6.277   2.343   4.274 -0.3423 -0.2014  0.4368
  745MOL0     C  485   5.158   1.990   3.854 -0.1746 -0.7137  0.8657
  745MOL0     C  486   5.036   1.969   3.920  0.2407  0.3301 -0.5070
  745MOL0     O  487   4.770   1.856   4.027  0.0122  0.0678 -0.3887
  745MOL0     C  488   4.640   1.778   4.256  0.2773 -1.0407  0.5246
  745MOL0     C  489   4.575   1.743   4.379 -1.0428 -0.7681 -0.3072
  745MOL0     N  490   3.802   1.871   4.765  0.5352  0.3783  1.0757
  745MOL0     N  491   3.713   1.811   4.689 -0.1584  0.9322 -0.1255
  745MOL0     C  492   3.083   1.173   3.943 -1.0277 -0.1412 -0.1856
  745MOL0     C  493   2.960   1.107   3.928 -1.0075 -0.1216  0.1154
  745MOL0     C  494   2.588   0.911   3.868 -0.3346  0.0054 -1.1027
  745MOL0     C  495   2.558   0.816   3.766  1.3248  0.5190 -0.9539
  745MOL0     C  496   2.417   0.786   3.735  0.1271 -0.1009  0.7869
  745MOL0     C  497   2.324   0.866   3.798  0.3676 -0.2272  0.4791
  745MOL0     O  498   2.190   0.854   3.784 -0.8123  0.8114  0.9546
  745MOL0     C  499   2.140   0.747   3.697 -0.5096 -0.9711  0.9989
  745MOL0     C  500   1.990   0.715   3.738 -0.1679  0.1608 -0.7022
  745MOL0     C  501   1.902   0.823   3.687 -0.0878 -0.3571 -0.0621
  745MOL0     C  502   1.758   0.799   3.738  0.2372  0.6699  0.2431
  745MOL0     C  503   1.749   0.871   3.864  0.2999  0.9065  0.4749
  745MOL0     C  504   1.735   0.904   3.979 -0.1821 -0.7568  0.7445
  745MOL0     C  505   2.362   0.965   3.891 -0.3301 -0.0573  0.3614
  745MOL0     C  506   2.494   0.990   3.933  0.0348  0.0216  1.1708
  745MOL0     C  507   2.538   1.079   4.049  0.2183  0.0136  0.4078
  745MOL0     H  508   3.030   0.923   3.644  1.5367  2.4809 -2.2397
  745MOL0     H  509   3.252   1.022   3.691  0.9423  2.3024 -0.4528
  745MOL0     H  510   3.268   1.355   4.000 -0.0857  1.4676 -0.2455
  745MOL0     H  511   3.349   1.213   4.075  1.4061  0.7024  1.1245
  745MOL0     H  512   3.454   1.408   3.869 -3.0311 -0.1391 -0.3957
  745MOL0     H  513   3.548   1.264   3.939 -3.4399 -1.8859  1.1309
  745MOL0     H  514   3.582   1.343   4.138  0.4701  0.5475 -0.6159
  745MOL0     H  515   3.460   1.458   4.143 -0.8260  1.3238 -0.9444
  745MOL0     H  516   3.704   1.498   3.971  0.7668 -2.1721  2.8273
  745MOL0     H  517   3.583   1.624   3.999  1.0369  1.6174  1.2142
  745MOL0     H  518   3.738   1.514   4.233  3.5442  0.3252 -1.2974
  745MOL0     H  519   3.818   1.629   4.132 -0.4585  1.1301 -1.4807
  745MOL0     H  520   3.647   1.790   4.175 -1.8966  1.2184  0.9224
  745MOL0     H  521   3.546   1.679   4.268 -1.2041  1.6144 -1.5168
  745MOL0     H  522   3.684   1.851   4.409 -0.5823 -0.9506  4.0160
  745MOL0     H  523   3.820   1.782   4.355  0.3100  1.1859  0.6876
  745MOL0     H  524   3.596   1.630   4.503 -0.1660 -0.1558  0.7731
  745MOL0     H  525   3.749   1.561   4.464 -0.6349 -0.9909 -0.0274
  745MOL0     H  526   3.982   1.655   4.595  0.8533  1.6614  2.7347
  745MOL0     H  527   4.055   1.962   4.816 -2.1910 -0.5498  1.3214
  745MOL0     H  528   4.062   1.800   4.895  4.6177 -2.0163 -1.2588
  745MOL0     H  529   4.208   1.706   4.713 -1.5286 -0.4495 -1.6596
  745MOL0     H  530   4.158   1.843   4.609 -2.1475 -0.0689  0.7334
  745MOL0     H  531   4.370   1.799   4.814 -0.6997 -0.7473  0.5470
  745MOL0     H  532   4.291   1.964   4.830  0.8037 -0.1096  0.0153
  745MOL0     H  533   4.503   1.979   4.695  0.5031 -1.3259 -0.2466
  745MOL0     H  534   4.366   2.006   4.586  2.7178  1.2668 -0.1294
  745MOL0     H  535   4.622   2.051   4.529 -0.8080  0.5146 -1.2200
  745MOL0     H  536   4.728   2.097   4.334  2.5752 -1.6058 -0.2054
  745MOL0     H  537   5.141   2.074   4.229 -1.4331 -3.8352  1.7016
  745MOL0     H  538   5.351   2.066   4.118  0.0426 -1.4215 -0.8849
  745MOL0     H  539   5.441   1.870   3.840 -1.3147 -1.4731 -2.0847
  745MOL0     H  540   5.417   1.936   3.688 -2.0677  1.0533  0.6817
  745MOL0     H  541   5.657   1.899   3.783  0.7760  0.0595  0.6194
  745MOL0     H  542   5.618   2.064   3.720 -0.7949 -0.3348  0.9373
  745MOL0     H  543   5.601   2.139   3.963 -1.5584 -0.7932 -0.7007
  745MOL0     H  544   5.658   1.986   4.023 -0.2103  0.8269  1.3007
  745MOL0     H  545   5.830   2.128   3.816  0.4464 -0.7509  0.3151
  745MOL0     H  546   5.867   1.996   3.906 -0.7125 -0.8413  1.7364
  745MOL0     H  547   5.839   2.131   4.123 -0.0570  1.2191  1.8446
  745MOL0     H  548   5.804   2.275   4.029  2.6822  1.8150 -1.5866
  745MOL0     H  549   6.068   2.126   3.989 -0.1624 -0.1139  1.8656
  745MOL0     H  550   6.017   2.278   3.914 -5.5874 -1.2902 -0.9569
  745MOL0     H  551   6.016   2.233   4.214 -0.3577 -0.4935 -1.0634
  745MOL0     H  552   5.994   2.384   4.128 -0.3975 -1.0513 -0.7428
  745MOL0     H  553   6.253   2.241   4.071 -0.7480 -0.7134  0.3759
  745MOL0     H  554   6.218   2.408   4.062 -3.3644 -0.3968 -0.6203
  745MOL0     H  555   5.147   1.983   3.746  0.4065  1.3298  0.6271
  745MOL0     H  556   4.945   1.932   3.873 -0.5813  0.3134  1.0451
  745MOL0     H  557   4.652   1.700   4.182  1.5575 -0.1655 -0.2355
  745MOL0     H  558   4.538   1.645   4.409 -0.2670 -0.8287  0.4679
  745MOL0     H  559   3.103   1.236   4.029  1.3734  0.3024 -0.9857
  745MOL0     H  560   2.875   1.120   3.993 -0.6639  1.7546  0.2386
  745MOL0     H  561   2.641   0.768   3.715  1.1721  1.7740 -2.4575
  745MOL0     H  562   2.398   0.709   3.660  0.5301 -0.0935  0.6730
  745MOL0     H  563   2.202   0.658   3.711  2.3627  0.6270 -0.7234
  745MOL0     H  564   2.146   0.776   3.591  0.1256 -2.0253  0.7360
  745MOL0     H  565   1.991   0.704   3.847  0.9127 -0.5120 -0.7589
  745MOL0     H  566   1.958   0.621   3.692  1.0344  0.1079 -1.4803
  745MOL0     H  567   1.893   0.820   3.578  1.2287 -1.3152 -0.1682
  745MOL0     H  568   1.933   0.924   3.716 -1.0985 -0.1021  0.1676
  745MOL0     H  569   1.680   0.832   3.669  1.5689  3.2412 -0.1461
  745MOL0     H  570   1.744   0.692   3.755 -2.0904  0.9264  0.2369
  745MOL0     H  571   1.717   0.936   4.080  1.0019  0.3999  0.6263
  745MOL0     H  572   2.291   1.031   3.941  0.5315  0.8259  0.4588
  745MOL0     H  573   2.456   1.146   4.078  1.2403  1.2360  0.5786
  745MOL0     H  574   2.564   1.017   4.136  1.0958  2.2480  1.8423
  745MOL0     H  575   2.627   1.141   4.035  0.5595 -0.7217 -0.7508
  746MOL0     O  576   2.955   2.144  11.346  0.1953  1.1905 -0.5057
  746MOL0     C  577   3.048   2.138  11.260  0.3564  0.4740 -0.3342
  746MOL0     O  578   3.122   2.031  11.217 -0.7102  1.7179  0.2009
  746MOL0     C  579   3.091   1.912  11.276  0.6611 -0.1574 -0.4117
  746MOL0     C  580   3.170   1.868  11.383 -0.0713  0.0968 -0.3881
  746MOL0     C  581   3.149   1.736  11.437  0.7683 -0.2893  0.8042
  746MOL0     C  582   3.033   1.664  11.406 -0.7265 -0.1775 -0.4003
  746MOL0     O  583   3.008   1.539  11.463  0.1786 -0.0429  0.3112
  746MOL0     C  584   2.871   1.484  11.457  0.0466 -1.2291 -0.0633
  746MOL0     C  585   2.862   1.356  11.533  0.0732 -0.2842  0.2996
  746MOL0     C  586   2.721   1.331  11.596  0.0762  0.5988 -0.2319
  746MOL0     C  587   2.702   1.188  11.655  0.4107  0.7447 -0.5858
  746MOL0     C  588   2.680   1.069  11.559 -0.0018 -1.0837  0.4417
  746MOL0     C  589   2.705   0.924  11.620 -0.7801 -0.2522 -0.8697
  746MOL0     C  590   2.851   0.905  11.657  0.0540  0.1905  0.2735
  746MOL0     C  591   2.953   0.897  11.540  0.5784  0.1378 -0.3550
  746MOL0     N  592   3.086   0.910  11.590 -0.5010 -0.6800  0.2594
  746MOL0     C  593   3.133   1.024  11.653 -0.3438  0.8264 -0.9206
  746MOL0     C  594   3.264   0.997  11.661  0.1408  0.2206 -0.4557
  746MOL0     C  595   3.374   1.089  11.707 -0.5883 -0.2533  0.2459
  746MOL0     C  596   3.348   1.171  11.830 -0.6559  0.3082 -0.5136
  746MOL0     C  597   3.463   1.263  11.878  0.3227  0.5627 -0.9989
  746MOL0     C  598   3.525   1.356  11.764  0.4324 -0.2232 -0.9469
  746MOL0     O  599   3.602   1.461  11.833  0.9667 -0.5750  0.2546
  746MOL0     C  600   3.707   1.524  11.781 -1.1955  0.7950  0.8391
  746MOL0     C  601   3.746   1.511  11.648 -0.1768  0.0555  0.3305
  746MOL0     C  602   3.848   1.582  11.593  0.0056 -0.4368  0.3392
  746MOL0     C  603   3.922   1.667  11.670  0.5431 -0.0775 -0.5758
  746MOL0     C  604   4.038   1.738  11.614  0.4134 -0.6396  0.0984
  746MOL0     O  605   4.111   1.806  11.703 -0.6592 -0.2072  0.1998
  746MOL0     C  606   4.232   1.867  11.672 -0.5380  0.1497  0.2746
  746MOL0     C  607   4.262   1.935  11.555 -1.1102 -0.0183  0.5719
  746MOL0     C  608   4.386   1.989  11.526  0.1570  0.3954  0.0723
  746MOL0     C  609   4.483   1.984  11.632  0.3150 -0.4422 -0.4016
  746MOL0     O  610   4.603   2.043  11.612 -0.1210  0.5066  0.1371
  746MOL0     C  611   4.679   1.953  11.532 -0.0626  0.2409 -0.4491
  746MOL0     C  612   4.815   2.010  11.496  0.1691 -0.0852  0.2232
  746MOL0     C  613   4.901   1.896  11.461  0.9339  0.2258  0.9007
  746MOL0     C  614   5.040   1.942  11.422 -0.1805 -0.4782 -0.2794
  746MOL0     C  615   5.126   1.828  11.367  1.3027  0.2506 -0.0896
  746MOL0     C  616   5.268   1.843  11.377  0.2936  0.8652  0.2890
  746MOL0     C  617   5.328   1.723  11.303  0.3430  0.3125  0.1951
  746MOL0     C  618   5.469   1.678  11.350 -0.3300 -0.3025 -0.0994
  746MOL0    Cl  619   5.583   1.806  11.356  0.4015  0.2501  0.0162
  746MOL0     C  620   4.457   1.913  11.752  0.0231 -0.1470  0.6054
  746MOL0     C  621   4.334   1.862  11.769  0.0546  0.4161  0.1013
  746MOL0     O  622   4.062   1.736  11.490  0.4911  0.5423 -0.3356
  746MOL0     C  623   3.886   1.689  11.807 -0.7930  0.8423  0.4586
  746MOL0     C  624   3.777   1.613  11.857  0.1748 -0.2252  0.8355
  746MOL0     N  625   3.291   0.868  11.613  0.5443 -0.3298 -0.2899
  746MOL0     N  626   3.179   0.821  11.576 -0.4364  0.0739  0.0968
  746MOL0     C  627   2.947   1.719  11.314 -1.0558 -0.3827  0.7285
  746MOL0     C  628   2.987   1.837  11.245  0.1038  0.0182  0.0502
  746MOL0     C  629   3.090   2.260  11.185  0.0005  0.6390 -0.2651
  746MOL0     C  630   3.222   2.269  11.133  0.1635 -0.6269 -0.9989
  746MOL0     C  631   3.267   2.379  11.065  0.4055  0.7178 -0.9190
  746MOL0     C  632   3.181   2.486  11.037 -0.3641 -1.0364  0.1984
  746MOL0     O  633   3.222   2.597  10.965  0.0548 -0.6829 -1.1245
  746MOL0     C  634   3.357   2.621  10.925  0.7514 -0.0635  0.5169
  746MOL0     C  635   3.362   2.773  10.904 -0.4414 -0.7354  1.0494
  746MOL0     C  636   3.493   2.831  10.836 -0.8586 -0.1828 -0.8409
  746MOL0     C  637   3.498   2.987  10.842 -0.5434  0.5022  0.0335
  746MOL0     C  638   3.386   3.042  10.764 -0.5170 -0.3242 -0.4873
  746MOL0     C  639   3.314   3.101  10.695  0.7885  0.3516  0.6808
  746MOL0     C  640   3.056   2.484  11.092  0.0336  0.0222 -0.4725
  746MOL0     C  641   3.009   2.376  11.160 -0.0264  0.0259  0.4210
  746MOL0     C  642   2.865   2.380  11.215  0.2784  0.7758  0.0359
  746MOL0     H  643   3.259   1.921  11.414 -0.5193  0.4321  0.3388
  746MOL0     H  644   3.220   1.691  11.506 -0.6976 -2.7064  0.8451
  746MOL0     H  645   2.802   1.555  11.504 -0.5870 -1.3789 -0.7559
  746MOL0     H  646   2.840   1.478  11.353 -0.1028  1.2647 -0.2163
  746MOL0     H  647   2.922   1.363  11.624 -0.4568 -1.3648  0.7502
  746MOL0     H  648   2.899   1.279  11.464  2.0671  0.5826  0.3412
  746MOL0     H  649   2.642   1.337  11.520 -0.7607 -3.9542  0.0272
  746MOL0     H  650   2.722   1.394  11.686  1.4599 -2.6572  2.2195
  746MOL0     H  651   2.793   1.167  11.711  0.9082 -3.5701 -2.6055
  746MOL0     H  652   2.632   1.191  11.739  1.1885 -2.0857  0.2721
  746MOL0     H  653   2.575   1.068  11.530 -0.1247 -2.3829  0.9083
  746MOL0     H  654   2.741   1.076  11.468  0.3315  2.0807  0.7895
  746MOL0     H  655   2.648   0.914  11.713  0.3607  0.1373 -0.1130
  746MOL0     H  656   2.661   0.841  11.563  1.7598 -0.8685 -2.0467
  746MOL0     H  657   2.862   0.812  11.713 -0.5561 -1.1483 -1.7228
  746MOL0     H  658   2.867   0.988  11.726  0.1540  0.1594  0.2879
  746MOL0     H  659   2.932   0.800  11.493 -1.8687  0.3526  0.1845
  746MOL0     H  660   2.943   0.983  11.474  1.7479  0.2187 -0.4532
  746MOL0     H  661   3.083   1.116  11.683 -0.3949  0.3796  0.4233
  746MOL0     H  662   3.471   1.039  11.713  0.8317  2.3947  0.8407
  746MOL0     H  663   3.384   1.160  11.624  2.8762 -2.1351 -1.1882
  746MOL0     H  664   3.256   1.231  11.822 -1.7806 -1.4653 -1.4169
  746MOL0     H  665   3.320   1.101  11.908  0.1690  0.9352  0.3773
  746MOL0     H  666   3.545   1.198  11.909 -1.0094 -0.0975  1.3902
  746MOL0     H  667   3.440   1.323  11.967  1.0334 -0.5832 -0.0124
  746MOL0     H  668   3.449   1.406  11.704  0.7982  1.3911 -0.1263
  746MOL0     H  669   3.581   1.292  11.696 -1.1773 -2.4611 -0.3055
  746MOL0     H  670   3.686   1.443  11.589  0.9790 -0.7029  0.0048
  746MOL0     H  671   3.880   1.560  11.492  0.0504 -1.6913  0.6054
  746MOL0     H  672   4.188   1.953  11.478 -2.1429 -0.5880  1.4082
  746MOL0     H  673   4.404   2.040  11.432 -1.9360  1.1358  0.0370
  746MOL0     H  674   4.703   1.861  11.587  0.8854  0.6711 -0.1152
  746MOL0     H  675   4.630   1.929  11.437  0.8127 -0.4966 -0.7341
  746MOL0     H  676   4.801   2.077  11.411 -0.0968  1.0987  1.1776
  746MOL0     H  677   4.844   2.069  11.583  2.3457  1.8741 -1.6961
  746MOL0     H  678   4.907   1.820  11.540  0.1172 -1.9994 -1.0473
  746MOL0     H  679   4.860   1.843  11.374  0.3469 -0.0027  1.3100
  746MOL0     H  680   5.095   1.980  11.508  0.3752 -1.5155 -0.1505
  746MOL0     H  681   5.030   2.015  11.342  1.3870 -1.4005 -1.3661
  746MOL0     H  682   5.090   1.799  11.267 -3.1380 -0.8338  1.5792
  746MOL0     H  683   5.115   1.738  11.428 -1.0588  1.4018  1.2943
  746MOL0     H  684   5.305   1.934  11.328  0.0077  0.7423 -0.1683
  746MOL0     H  685   5.296   1.844  11.483  1.0069  2.4020  0.1106
  746MOL0     H  686   5.325   1.766  11.202 -1.8152  0.2585  0.1823
  746MOL0     H  687   5.269   1.631  11.310 -2.0227  1.8448  1.8319
  746MOL0     H  688   5.462   1.637  11.451 -0.5966  1.4296  0.6198
  746MOL0     H  689   5.512   1.603  11.283  0.3323 -2.3434  2.4399
  746MOL0     H  690   4.542   1.922  11.819  0.2400  1.7066  0.1388
  746MOL0     H  691   4.310   1.791  11.849  2.2275  1.1717  1.5167
  746MOL0     H  692   3.956   1.743  11.869  1.0335  0.8008 -1.4535
  746MOL0     H  693   3.736   1.627  11.957  0.6434  3.8707  0.6152
  746MOL0     H  694   2.861   1.659  11.287  0.1137 -1.3506 -1.0675
  746MOL0     H  695   2.925   1.874  11.164 -1.4720 -1.9333  0.2999
  746MOL0     H  696   3.294   2.189  11.149  1.4259  0.8458  1.2382
  746MOL0     H  697   3.368   2.378  11.024  0.2860  0.3313 -1.2083
  746MOL0     H  698   3.382   2.562  10.836  0.3091 -1.3456  1.2155
  746MOL0     H  699   3.414   2.582  11.010  0.0389 -0.2693  0.9082
  746MOL0     H  700   3.344   2.816  11.003 -1.8354 -1.5929  1.2021
  746MOL0     H  701   3.279   2.796  10.836 -1.0220 -2.0035  1.2976
  746MOL0     H  702   3.514   2.786  10.739  1.8820 -1.7538  0.3877
  746MOL0     H  703   3.585   2.801  10.887  1.1436 -0.0965 -4.1353
  746MOL0     H  704   3.499   3.023  10.945  0.4887  2.2525 -0.5422
  746MOL0     H  705   3.592   3.025  10.801  0.5116 -1.0173  0.9029
  746MOL0     H  706   3.242   3.156  10.638 -0.7731 -0.9265  1.3312
  746MOL0     H  707   3.008   2.581  11.077 -2.2105 -1.3514 -3.0846
  746MOL0     H  708   2.861   2.394  11.323 -4.6095  0.5384  0.1040
  746MOL0     H  709   2.808   2.458  11.164  0.7177 -0.4687 -2.5168
  746MOL0     H  710   2.813   2.286  11.196  0.1174  0.8211  0.2453
  747MOL0     O  711   9.350   6.050   3.331 -0.0322  0.5279  0.0560
  747MOL0     C  712   9.308   6.156   3.370  0.2006 -0.1522 -0.2943
  747MOL0     O  713   9.355   6.220   3.472 -0.6612  0.7768  0.3500
  747MOL0     C  714   9.454   6.155   3.551  0.3498  0.4385 -0.3164
  747MOL0     C  715   9.573   6.125   3.501  1.0968  0.6324 -0.7095
  747MOL0     C  716   9.677   6.072   3.590  0.3512 -0.0899  1.2845
  747MOL0     C  717   9.662   6.061   3.727 -0.1339 -0.1305 -0.8102
  747MOL0     O  718   9.759   6.014   3.813 -0.0966  0.3615  0.0748
  747MOL0     C  719   9.887   5.988   3.760  0.1971 -0.3238  0.0774
  747MOL0     C  720   9.984   5.917   3.854 -0.4393  0.1612  0.2804
  747MOL0     C  721  10.110   6.007   3.860  0.5514  0.0273 -0.1197
  747MOL0     C  722  10.201   5.944   3.965 -0.2291 -0.4018  0.7689
  747MOL0     C  723  10.344   6.012   3.941 -0.0981  0.3490  0.0121
  747MOL0     C  724  10.432   5.969   4.063  0.4086  0.4621 -0.6792
  747MOL0     C  725  10.579   5.944   4.017  0.3760  0.1778 -0.3172
  747MOL0     C  726  10.632   6.075   3.976 -0.0087  0.5572  1.2489
  747MOL0     N  727  10.736   6.053   3.881  1.1411  0.3650 -0.1762
  747MOL0     C  728  10.867   6.057   3.920 -1.0134  0.6706 -0.1925
  747MOL0     C  729  10.940   6.059   3.806 -0.3628  1.0692 -1.1762
  747MOL0     C  730  11.086   6.078   3.792  0.3347  0.9554 -0.2907
  747MOL0     C  731  11.154   5.950   3.814  0.2062 -0.1434 -0.5196
  747MOL0     C  732  11.293   5.959   3.776 -0.6468 -0.7544  0.5618
  747MOL0     C  733  11.366   5.834   3.817 -0.0985  1.7356 -0.7515
  747MOL0     O  734  11.502   5.849   3.791  0.2495  0.2837  0.3751
  747MOL0     C  735  11.592   5.772   3.855 -0.3222  0.0184  1.1013
  747MOL0     C  736  11.573   5.665   3.944  0.4582  0.1671  0.1337
  747MOL0     C  737  11.675   5.594   4.007 -0.8247 -0.1371 -0.5270
  747MOL0     C  738  11.807   5.616   3.967 -0.7498  0.0938 -0.1129
  747MOL0     C  739  11.916   5.541   4.024  1.0895 -0.1420  0.2274
  747MOL0     O  740  12.032   5.530   3.957  0.9215 -0.8535 -0.0069
  747MOL0     C  741  12.130   5.444   3.984  0.2090 -0.6103  0.0190
  747MOL0     C  742  12.261   5.487   3.946 -0.0690 -0.5038 -0.1788
  747MOL0     C  743  12.382   5.416   3.969  0.0169 -0.1211 -0.5291
  747MOL0     C  744  12.379   5.303   4.051  0.4546 -0.2613 -0.0636
  747MOL0     O  745  12.500   5.258   4.102 -0.1821 -0.4196 -0.4488
  747MOL0     C  746  12.485   5.163   4.209  0.1186  0.1390 -0.6126
  747MOL0     C  747  12.634   5.125   4.249 -0.1796  0.0925 -0.3346
  747MOL0     C  748  12.636   5.049   4.379  0.1582  0.1111 -0.7692
  747MOL0     C  749  12.765   5.063   4.457 -0.4513  0.4745  0.4720
  747MOL0     C  750  12.827   5.206   4.478  0.0781 -0.1494  0.3228
  747MOL0     C  751  12.937   5.201   4.578 -0.4837  0.9438 -0.1622
  747MOL0     C  752  13.015   5.334   4.594  0.3748 -0.5495  0.7716
  747MOL0     C  753  13.119   5.326   4.704  0.4111 -0.3945  0.5040
  747MOL0    Cl  754  13.207   5.469   4.775 -0.0713  0.6319  0.2437
  747MOL0     C  755  12.248   5.250   4.090  0.0552  0.0942 -0.0338
  747MOL0     C  756  12.128   5.318   4.053 -0.2196  0.7885  0.0298
  747MOL0     O  757  11.902   5.495   4.132 -0.2782 -0.1455 -0.2587
  747MOL0     C  758  11.827   5.721   3.869  0.6620  0.2411  0.3481
  747MOL0     C  759  11.718   5.798   3.816  0.4564  0.1196  0.6238
  747MOL0     N  760  10.837   6.043   3.706  0.4624 -0.5102  0.4930
  747MOL0     N  761  10.717   6.030   3.753 -0.3224 -0.6521  0.2167
  747MOL0     C  762   9.536   6.102   3.777  0.0944 -0.1096 -0.0653
  747MOL0     C  763   9.436   6.151   3.691  0.1373  1.2478  0.3121
  747MOL0     C  764   9.187   6.212   3.303 -0.5682 -0.1246  0.9575
  747MOL0     C  765   9.142   6.160   3.180  0.7808  0.2960 -1.0824
  747MOL0     C  766   9.043   6.213   3.098 -0.4505  0.5205  0.9541
  747MOL0     C  767   8.965   6.316   3.143 -0.4485 -0.3238  0.0108
  747MOL0     O  768   8.860   6.359   3.064  1.2074 -0.1778 -0.1469
  747MOL0     C  769   8.793   6.487   3.087 -0.1284  1.0255  0.4683
  747MOL0     C  770   8.669   6.495   2.988 -0.2734 -0.0490  0.5715
  747MOL0     C  771   8.566   6.572   3.055 -0.4722  0.3849 -0.5387
  747MOL0     C  772   8.446   6.617   2.967 -0.9194 -0.3243  0.1162
  747MOL0     C  773   8.488   6.712   2.863 -0.1062  0.2775 -0.0092
  747MOL0     C  774   8.495   6.789   2.768  0.8113  0.2031 -0.7107
  747MOL0     C  775   9.015   6.379   3.257 -0.9024 -0.0055 -0.3116
  747MOL0     C  776   9.118   6.330   3.347 -0.8453  0.8836  0.1043
  747MOL0     C  777   9.134   6.398   3.483  0.3631  0.3395  0.2442
  747MOL0     H  778   9.601   6.115   3.397  0.7595 -0.3815 -0.7100
  747MOL0     H  779   9.765   6.035   3.540 -1.3866 -0.8992 -1.4024
  747MOL0     H  780   9.876   5.928   3.669  1.5222  1.9949 -1.7178
  747MOL0     H  781   9.927   6.081   3.718  0.5412  0.3785  1.8691
  747MOL0     H  782  10.001   5.820   3.805  0.1429  0.3792  0.0327
  747MOL0     H  783   9.955   5.893   3.956  1.3126 -4.2143 -0.0465
  747MOL0     H  784  10.087   6.112   3.883  1.9433  0.2128  0.5261
  747MOL0     H  785  10.165   6.013   3.765 -1.1178 -0.3749 -1.1489
  747MOL0     H  786  10.159   5.958   4.065 -1.1368  1.3724  0.1774
  747MOL0     H  787  10.202   5.836   3.945  1.1582 -0.0444 -1.4704
  747MOL0     H  788  10.406   5.983   3.856  1.4024  2.3593  0.3482
  747MOL0     H  789  10.323   6.119   3.944 -1.6185  0.0672  0.4072
  747MOL0     H  790  10.419   6.041   4.144  0.8023 -1.2752  0.9836
  747MOL0     H  791  10.394   5.873   4.099 -1.2561  1.1764 -0.4644
  747MOL0     H  792  10.579   5.867   3.940 -1.1751 -0.8030  0.6192
  747MOL0     H  793  10.637   5.905   4.101 -1.5728 -2.7200 -0.1802
  747MOL0     H  794  10.560   6.132   3.916  1.5471  0.2533 -1.0281
  747MOL0     H  795  10.664   6.140   4.058 -1.4953  2.0647  0.6832
  747MOL0     H  796  10.899   6.064   4.023  2.6455  1.0146 -1.1922
  747MOL0     H  797  11.122   6.128   3.702 -1.2313  0.1855 -1.3766
  747MOL0     H  798  11.110   6.146   3.875 -2.3515  0.7311  0.7644
  747MOL0     H  799  11.129   5.906   3.911 -2.7218  2.8828  0.3250
  747MOL0     H  800  11.113   5.874   3.746 -1.1130  1.4754 -1.6294
  747MOL0     H  801  11.334   6.040   3.835  2.0826 -2.1252  0.7148
  747MOL0     H  802  11.308   5.973   3.668  0.6648 -0.7770  0.7189
  747MOL0     H  803  11.335   5.750   3.753  1.1674  0.3900  0.3295
  747MOL0     H  804  11.337   5.801   3.917 -1.5857 -0.2523 -1.7670
  747MOL0     H  805  11.471   5.641   3.973 -0.4367  0.5082 -2.4492
  747MOL0     H  806  11.665   5.522   4.087  1.0250 -1.9533 -1.8080
  747MOL0     H  807  12.286   5.585   3.906  1.3623 -0.2439  1.2707
  747MOL0     H  808  12.476   5.465   3.951 -1.8558  2.4269 -5.2268
  747MOL0     H  809  12.445   5.213   4.297 -0.6156  0.2293 -0.9943
  747MOL0     H  810  12.426   5.079   4.171 -1.7921 -0.5821  3.4237
  747MOL0     H  811  12.673   5.063   4.168 -1.9338 -1.3018 -0.1738
  747MOL0     H  812  12.701   5.211   4.257  0.4110 -0.4691  1.1465
  747MOL0     H  813  12.558   5.078   4.451 -0.0091 -2.1942  0.0715
  747MOL0     H  814  12.614   4.942   4.364 -2.1125  0.0389  2.1406
  747MOL0     H  815  12.836   4.994   4.411 -1.7543  0.0260 -0.9580
  747MOL0     H  816  12.750   5.045   4.564  0.6877  1.2635  0.7707
  747MOL0     H  817  12.749   5.278   4.507 -1.2360 -1.8618  1.2231
  747MOL0     H  818  12.878   5.237   4.387  3.7375  0.1025  2.2583
  747MOL0     H  819  12.898   5.168   4.675 -2.0725 -1.0196 -1.4006
  747MOL0     H  820  13.007   5.127   4.538 -1.4826 -0.6688  0.9434
  747MOL0     H  821  12.940   5.406   4.630  0.1115  0.0226 -0.8593
  747MOL0     H  822  13.060   5.360   4.498  3.2445 -1.7365  1.6772
  747MOL0     H  823  13.067   5.284   4.791 -3.7722  4.5663  0.8328
  747MOL0     H  824  13.189   5.249   4.669 -3.3565 -3.1821 -1.5513
  747MOL0     H  825  12.242   5.167   4.159  2.9675  0.3353  0.6508
  747MOL0     H  826  12.035   5.274   4.088 -1.3487 -0.2278 -3.7730
  747MOL0     H  827  11.927   5.752   3.840 -0.0028  2.3535  0.1329
  747MOL0     H  828  11.735   5.882   3.749  0.5432 -0.0971  0.3735
  747MOL0     H  829   9.508   6.091   3.882 -0.5155  0.3008 -0.1796
  747MOL0     H  830   9.345   6.185   3.740  1.5420  1.5813  2.8377
  747MOL0     H  831   9.190   6.076   3.131 -0.5335  0.1881 -2.2496
  747MOL0     H  832   9.020   6.166   3.003  0.4845  2.1046 -0.1132
  747MOL0     H  833   8.861   6.562   3.045 -1.2649  1.8251  0.0232
  747MOL0     H  834   8.774   6.513   3.192  5.4256  1.3800  1.7510
  747MOL0     H  835   8.633   6.392   2.977 -0.5001  0.0944 -0.0433
  747MOL0     H  836   8.692   6.530   2.887  0.3656 -4.2893 -0.9502
  747MOL0     H  837   8.611   6.666   3.088 -0.4018  0.0244  0.4229
  747MOL0     H  838   8.529   6.510   3.137 -0.6636  0.2153 -0.7511
  747MOL0     H  839   8.403   6.529   2.918 -0.9043 -1.8449  2.6399
  747MOL0     H  840   8.377   6.669   3.035  0.3957  0.8057  0.6279
  747MOL0     H  841   8.484   6.868   2.697 -3.5044  0.0373 -0.5249
  747MOL0     H  842   8.966   6.470   3.290  2.3798  2.2915 -1.2564
  747MOL0     H  843   9.042   6.452   3.505  1.6827  3.4134 -1.2154
  747MOL0     H  844   9.148   6.324   3.563  1.5452 -0.3485 -0.5504
  747MOL0     H  845   9.209   6.478   3.485  1.2540 -0.4490 -0.4260
  748MOL0     O  846   6.277  11.284   5.974 -0.0798  0.1013 -1.0339
  748MOL0     C  847   6.169  11.293   5.909 -0.8776  0.1623 -0.1788
  748MOL0     O  848   6.134  11.395   5.834  0.1064  0.0811  0.9560
  748MOL0     C  849   6.194  11.513   5.861  0.3796 -0.2993  1.4460
  748MOL0     C  850   6.229  11.610   5.762  0.3790  0.4570  0.1262
  748MOL0     C  851   6.298  11.728   5.783  0.2930 -0.7170  0.2872
  748MOL0     C  852   6.348  11.749   5.912 -0.0934 -0.3352 -0.6491
  748MOL0     O  853   6.423  11.861   5.930  0.0706 -0.3119  0.4013
  748MOL0     C  854   6.511  11.870   6.048  0.4475  0.8853 -0.4578
  748MOL0     C  855   6.633  11.958   6.031  0.2527  0.5496  0.7026
  748MOL0     C  856   6.705  11.918   5.902 -0.7386 -0.8062  0.2479
  748MOL0     C  857   6.807  12.030   5.859  0.1366  0.4953  0.0380
  748MOL0     C  858   6.904  11.973   5.750  0.1432 -0.0974  0.0634
  748MOL0     C  859   7.033  12.046   5.747 -0.2121 -0.2549 -0.0939
  748MOL0     C  860   7.010  12.178   5.671  0.4162 -0.1606  0.6216
  748MOL0     C  861   7.063  12.300   5.745  0.5831  0.1361 -0.5598
  748MOL0     N  862   7.205  12.317   5.750 -0.2061  0.2517  0.3755
  748MOL0     C  863   7.292  12.391   5.672  0.4490  0.7822  0.9083
  748MOL0     C  864   7.413  12.343   5.707 -0.0342 -0.5116  0.3510
  748MOL0     C  865   7.546  12.393   5.664  0.8630  0.7330 -0.4989
  748MOL0     C  866   7.610  12.484   5.763  0.4960  0.1598  0.6563
  748MOL0     C  867   7.755  12.510   5.717  0.0712 -0.2107 -1.2028
  748MOL0     C  868   7.787  12.636   5.805 -1.3336 -0.2078 -0.5527
  748MOL0     O  869   7.912  12.683   5.744 -0.1874 -0.4059 -1.0356
  748MOL0     C  870   7.994  12.765   5.808 -0.1278 -0.1938  0.6409
  748MOL0     C  871   8.110  12.809   5.745  0.2882  0.0694 -0.1096
  748MOL0     C  872   8.191  12.907   5.789 -0.7722 -0.4471 -0.0080
  748MOL0     C  873   8.172  12.965   5.913  0.3205  0.3856  0.6166
  748MOL0     C  874   8.266  13.056   5.964 -0.5093 -0.3354 -0.0515
  748MOL0     O  875   8.380  13.097   5.887 -0.1331  0.4299  0.5409
  748MOL0     C  876   8.479  13.178   5.951  0.9056 -0.3750  0.4013
  748MOL0     C  877   8.607  13.163   5.909 -0.3781  0.4709 -0.3887
  748MOL0     C  878   8.719  13.230   5.950 -0.2692 -0.7704 -1.4301
  748MOL0     C  879   8.705  13.319   6.060  0.2707  0.7092  1.0306
  748MOL0     O  880   8.813  13.369   6.122 -0.0982 -0.1103  0.3888
  748MOL0     C  881   8.824  13.331   6.257  0.2221  0.1684  0.4723
  748MOL0     C  882   8.954  13.266   6.273  0.7110  0.0737  0.2919
  748MOL0     C  883   9.075  13.347   6.241 -0.3997  1.1856  0.5686
  748MOL0     C  884   9.075  13.482   6.317 -0.3626  0.1326 -0.2219
  748MOL0     C  885   9.192  13.566   6.265 -0.8660  0.0394 -0.4722
  748MOL0     C  886   9.329  13.511   6.315 -0.3817 -0.2129 -0.1164
  748MOL0     C  887   9.445  13.608   6.275 -0.0628 -0.1181 -0.7009
  748MOL0     C  888   9.438  13.743   6.337 -0.3183 -0.4054  0.2775
  748MOL0    Cl  889   9.584  13.815   6.273 -0.2453 -0.2239  0.4685
  748MOL0     C  890   8.576  13.348   6.103  0.2579  0.6732  0.6830
  748MOL0     C  891   8.463  13.281   6.047 -0.1186 -0.1354  0.6381
  748MOL0     O  892   8.238  13.101   6.077  0.7745  0.1461 -0.4116
  748MOL0     C  893   8.070  12.907   5.994  0.3204 -0.2216  0.3246
  748MOL0     C  894   7.977  12.810   5.934 -0.4267 -0.5303 -0.3258
  748MOL0     N  895   7.400  12.250   5.805  0.1512  0.5087  0.3863
  748MOL0     N  896   7.280  12.236   5.830  0.2379  0.4213 -0.4180
  748MOL0     C  897   6.307  11.668   6.015 -0.3465  0.5377 -0.3763
  748MOL0     C  898   6.228  11.553   5.993  0.8236 -0.6712  0.6746
  748MOL0     C  899   6.075  11.187   5.890  0.1964  0.9343 -0.8753
  748MOL0     C  900   5.942  11.215   5.864 -0.0333 -0.0611 -0.4701
  748MOL0     C  901   5.849  11.121   5.844 -0.1886 -0.1232  0.2856
  748MOL0     C  902   5.879  10.983   5.851 -0.5555 -0.4414 -0.7725
  748MOL0     O  903   5.795  10.875   5.847  0.0415  0.0761 -0.1961
  748MOL0     C  904   5.653  10.890   5.825  0.0439 -0.1154  0.0445
  748MOL0     C  905   5.584  10.944   5.949  0.0695 -0.1728  0.4553
  748MOL0     C  906   5.428  10.966   5.956  0.2474  0.0449 -0.3485
  748MOL0     C  907   5.353  10.843   5.912 -0.4823 -0.0878  0.6962
  748MOL0     C  908   5.330  10.848   5.771  0.0901  0.0176 -0.6755
  748MOL0     C  909   5.306  10.878   5.653 -0.0443 -0.2667  0.0886
  748MOL0     C  910   6.012  10.952   5.874  0.1220 -0.6049  0.0979
  748MOL0     C  911   6.112  11.048   5.895 -1.0764  0.1235  0.7635
  748MOL0     C  912   6.249  11.001   5.937  0.5965  0.2920 -0.0200
  748MOL0     H  913   6.198  11.593   5.659 -2.4913  0.2650  0.9444
  748MOL0     H  914   6.303  11.812   5.715 -1.3100  0.1698  1.1855
  748MOL0     H  915   6.459  11.900   6.140  2.7981 -2.1265  2.1346
  748MOL0     H  916   6.543  11.766   6.063 -2.4781 -0.1283 -0.6564
  748MOL0     H  917   6.687  11.952   6.126 -1.2051  2.7090  1.7591
  748MOL0     H  918   6.585  12.057   6.028  1.6744  1.2934  1.2699
  748MOL0     H  919   6.640  11.896   5.817 -0.6138  0.1382 -0.0950
  748MOL0     H  920   6.750  11.818   5.910 -1.3920 -1.1859 -0.6078
  748MOL0     H  921   6.750  12.115   5.820 -1.2833  0.7834  2.5157
  748MOL0     H  922   6.847  12.076   5.950  0.7819  5.0862 -2.2712
  748MOL0     H  923   6.926  11.867   5.767 -0.9307 -0.3987 -0.3519
  748MOL0     H  924   6.866  11.976   5.647  3.2277 -1.0426 -1.2444
  748MOL0     H  925   7.068  12.055   5.850  1.5205 -0.3282 -0.6391
  748MOL0     H  926   7.105  11.980   5.697 -1.0144 -0.8458 -0.5073
  748MOL0     H  927   6.905  12.189   5.643  0.3172 -1.1966  0.5521
  748MOL0     H  928   7.073  12.182   5.581 -0.9302  2.4399 -0.3028
  748MOL0     H  929   7.023  12.389   5.696  1.5731 -0.6484 -2.9167
  748MOL0     H  930   7.012  12.294   5.842  2.3471 -0.8003  0.3644
  748MOL0     H  931   7.266  12.465   5.596  3.8812  0.8695 -0.3664
  748MOL0     H  932   7.602  12.301   5.647 -1.1002 -0.6025 -0.0469
  748MOL0     H  933   7.547  12.445   5.567 -0.4386 -1.8352 -1.9753
  748MOL0     H  934   7.549  12.574   5.768  1.3836  0.7247  1.6282
  748MOL0     H  935   7.615  12.446   5.865  2.9774  1.6782  1.1653
  748MOL0     H  936   7.751  12.535   5.611  0.1260  1.5278 -0.8283
  748MOL0     H  937   7.823  12.427   5.738  0.7065  1.0059  2.3764
  748MOL0     H  938   7.796  12.606   5.909 -1.9345  0.7274 -0.2163
  748MOL0     H  939   7.714  12.718   5.806  1.4020  2.4085  0.5629
  748MOL0     H  940   8.133  12.759   5.651 -4.2829 -4.4560  0.7668
  748MOL0     H  941   8.279  12.929   5.729 -1.2499  1.2595 -0.1600
  748MOL0     H  942   8.610  13.072   5.850 -1.0526  0.0638  0.1902
  748MOL0     H  943   8.818  13.217   5.909 -0.0919  0.2029 -1.3337
  748MOL0     H  944   8.829  13.421   6.318  2.5549  0.6458 -0.3272
  748MOL0     H  945   8.737  13.270   6.281 -1.7618  1.7080 -2.2429
  748MOL0     H  946   8.962  13.235   6.378  2.2423 -1.8035 -0.3184
  748MOL0     H  947   8.955  13.183   6.202 -0.3889  0.7060 -0.4938
  748MOL0     H  948   9.153  13.279   6.276 -0.7083 -0.6994 -2.0881
  748MOL0     H  949   9.087  13.349   6.132 -1.1474 -1.5958  0.3608
  748MOL0     H  950   9.087  13.468   6.425 -0.6852 -1.0824 -0.3264
  748MOL0     H  951   8.981  13.537   6.305  0.7650  2.3875  0.5955
  748MOL0     H  952   9.175  13.669   6.300 -2.7104  1.0463 -3.8380
  748MOL0     H  953   9.189  13.569   6.156  0.7082 -1.4835 -0.5910
  748MOL0     H  954   9.325  13.498   6.424  2.2990  0.4204  0.1419
  748MOL0     H  955   9.342  13.412   6.271  1.1242 -1.9076  3.6437
  748MOL0     H  956   9.463  13.609   6.167  2.6941 -1.7806 -0.3754
  748MOL0     H  957   9.543  13.571   6.306  0.2896  0.4619 -1.1096
  748MOL0     H  958   9.355  13.809   6.310  0.2735 -0.3538 -1.5270
  748MOL0     H  959   9.427  13.737   6.445 -0.3578 -0.2508  0.2816
  748MOL0     H  960   8.554  13.416   6.185  0.0739  1.6896 -0.1792
  748MOL0     H  961   8.361  13.313   6.066  0.1327  1.0362  0.1172
  748MOL0     H  962   8.054  12.935   6.098 -2.7466 -1.4189  0.2645
  748MOL0     H  963   7.887  12.791   5.991 -0.9616 -0.2316 -1.0505
  748MOL0     H  964   6.329  11.693   6.119  3.2591  2.5923 -1.4890
  748MOL0     H  965   6.205  11.495   6.082 -0.9137  1.2170  1.5373
  748MOL0     H  966   5.913  11.320   5.857 -0.8861 -0.1473  1.2007
  748MOL0     H  967   5.746  11.155   5.837 -0.0936  0.5478  1.7489
  748MOL0     H  968   5.605  10.796   5.797  2.7902 -2.1140  1.5848
  748MOL0     H  969   5.638  10.942   5.730  2.7023  2.0336  0.6696
  748MOL0     H  970   5.627  11.041   5.975 -3.6866  1.9481 -0.5524
  748MOL0     H  971   5.609  10.869   6.025 -2.9523  0.8564  2.6751
  748MOL0     H  972   5.395  11.050   5.893 -1.5448  0.3004  0.8490
  748MOL0     H  973   5.402  10.971   6.062 -0.6045  0.0353 -0.5473
  748MOL0     H  974   5.406  10.749   5.935 -0.5512 -1.0787 -2.6858
  748MOL0     H  975   5.259  10.841   5.967 -0.5222  2.1214  0.8076
  748MOL0     H  976   5.302  10.923   5.555 -3.8111  0.5409  0.4954
  748MOL0     H  977   6.035  10.847   5.889  0.9941 -0.6600 -1.4221
  748MOL0     H  978   6.279  11.041   6.034  1.0358 -1.1787  0.4761
  748MOL0     H  979   6.252  10.893   5.949 -1.4391  0.0898 -0.9030
  748MOL0     H  980   6.327  11.038   5.869 -0.3189 -0.0467 -1.2861
  749MOL0     O  981   9.226   6.027   6.729  0.0156  0.3469 -0.2721
  749MOL0     C  982   9.183   6.033   6.845 -0.2487 -0.1147 -0.2320
  749MOL0     O  983   9.259   6.011   6.954 -0.3770 -0.6343  0.6664
  749MOL0     C  984   9.399   6.020   6.938 -0.3321 -0.0224 -0.1318
  749MOL0     C  985   9.473   6.107   7.011 -0.5702  0.4415  0.2075
  749MOL0     C  986   9.614   6.112   6.992 -0.1087  0.4247 -0.0149
  749MOL0     C  987   9.683   6.024   6.908  0.8747 -0.1465  0.5108
  749MOL0     O  988   9.820   6.027   6.890  0.6446 -0.2418 -0.1070
  749MOL0     C  989   9.903   6.111   6.974 -0.6640  0.3526  0.1942
  749MOL0     C  990  10.038   6.053   6.994  0.1772  0.3671 -0.4202
  749MOL0     C  991  10.121   6.109   7.111  0.4607 -0.5309  0.6786
  749MOL0     C  992  10.220   6.217   7.084 -1.0869  0.0156 -0.0985
  749MOL0     C  993  10.347   6.192   7.174  1.7755  0.3670  0.4534
  749MOL0     C  994  10.324   6.208   7.322  0.6447  0.2623  0.1653
  749MOL0     C  995  10.365   6.354   7.354  0.3335  0.5636  0.2633
  749MOL0     C  996  10.328   6.400   7.494 -0.3855  0.4306  0.8849
  749MOL0     N  997  10.379   6.537   7.517  0.2404  0.5461 -0.5671
  749MOL0     C  998  10.342   6.642   7.444  0.6332 -0.4821  1.0113
  749MOL0     C  999  10.422   6.745   7.485  0.0740 -0.0012  0.0872
  749MOL0     C 1000  10.407   6.878   7.416  1.0201 -0.0311  0.5250
  749MOL0     C 1001  10.378   6.986   7.523 -0.0302 -0.0609  0.1497
  749MOL0     C 1002  10.235   6.989   7.573  0.0058  0.7431 -0.2273
  749MOL0     C 1003  10.216   7.097   7.685  0.4812  0.1175  0.3027
  749MOL0     O 1004  10.275   7.214   7.653  0.3048  0.1219 -0.4298
  749MOL0     C 1005  10.360   7.273   7.744  0.9524 -0.7702  0.5790
  749MOL0     C 1006  10.490   7.305   7.722  0.9183 -0.3408 -0.4530
  749MOL0     C 1007  10.555   7.384   7.822 -0.6244 -0.4070 -0.2547
  749MOL0     C 1008  10.487   7.417   7.942  0.0321  0.6067  0.3177
  749MOL0     C 1009  10.554   7.498   8.040 -0.1149  0.0562 -0.8644
  749MOL0     O 1010  10.689   7.491   8.060  0.2443 -0.4001  0.5868
  749MOL0     C 1011  10.748   7.575   8.150 -0.2889  0.7377  0.4346
  749MOL0     C 1012  10.716   7.713   8.173  0.4634  0.1633  1.0033
  749MOL0     C 1013  10.783   7.787   8.269 -0.0252 -0.6958  0.4071
  749MOL0     C 1014  10.878   7.728   8.351 -0.1570  0.0892  0.6862
  749MOL0     O 1015  10.967   7.797   8.435  0.5750 -0.4465 -0.4596
  749MOL0     C 1016  10.966   7.935   8.465  0.8412  0.0929 -0.6006
  749MOL0     C 1017  11.035   8.002   8.356 -0.3079  0.6941  0.4242
  749MOL0     C 1018  11.009   8.154   8.354 -0.3208 -0.4628  0.8471
  749MOL0     C 1019  10.867   8.205   8.307 -0.0316  0.9965 -0.3305
  749MOL0     C 1020  10.825   8.335   8.376  0.6232 -0.7280 -0.2400
  749MOL0     C 1021  10.681   8.367   8.334  0.5121  0.4660  0.9623
  749MOL0     C 1022  10.610   8.496   8.390 -0.5094  0.6644 -0.9267
  749MOL0     C 1023  10.466   8.505   8.347 -0.5732 -0.1757 -0.5968
  749MOL0    Cl 1024  10.380   8.647   8.423 -0.4018 -0.4371  0.5049
  749MOL0     C 1025  10.908   7.587   8.344  0.8265  0.6489 -0.8171
  749MOL0     C 1026  10.850   7.515   8.238  0.8570 -0.1820 -0.7954
  749MOL0     O 1027  10.476   7.564   8.109 -0.9493  0.0786  0.2055
  749MOL0     C 1028  10.354   7.385   7.955  0.7956 -0.2334 -0.5055
  749MOL0     C 1029  10.289   7.315   7.858 -0.5202  0.0244  0.1495
  749MOL0     N 1030  10.513   6.695   7.580 -0.2235  0.5425 -0.4862
  749MOL0     N 1031  10.486   6.573   7.600 -0.3736  0.3517 -0.0201
  749MOL0     C 1032   9.609   5.929   6.838 -0.6883 -0.0172  0.5260
  749MOL0     C 1033   9.468   5.930   6.851  0.6717 -0.1798 -0.1976
  749MOL0     C 1034   9.048   6.079   6.881  0.0536  0.2334 -0.1071
  749MOL0     C 1035   9.029   6.159   6.998  0.3489  0.0764  0.3666
  749MOL0     C 1036   8.902   6.210   7.026  0.2206  0.9020  0.8450
  749MOL0     C 1037   8.801   6.201   6.927  0.0119 -0.1461 -0.8389
  749MOL0     O 1038   8.678   6.247   6.963  0.6018  0.2950  0.6033
  749MOL0     C 1039   8.606   6.335   6.880 -0.3848  0.3202 -0.4509
  749MOL0     C 1040   8.669   6.467   6.869  0.3518  0.7593  0.6439
  749MOL0     C 1041   8.693   6.549   6.994  0.4540 -0.1105  0.0250
  749MOL0     C 1042   8.569   6.562   7.075 -0.3353 -0.8949 -0.1868
  749MOL0     C 1043   8.461   6.614   6.992  0.5834 -0.0789  0.1009
  749MOL0     C 1044   8.363   6.617   6.917 -0.7702 -0.2205 -0.3021
  749MOL0     C 1045   8.818   6.124   6.808  0.2070 -0.3028 -1.0081
  749MOL0     C 1046   8.938   6.059   6.789 -0.2748  1.0902  0.0940
  749MOL0     C 1047   8.954   5.979   6.659  0.5489 -0.3939  0.4950
  749MOL0     H 1048   9.420   6.168   7.084 -0.3177  2.3680 -1.1358
  749MOL0     H 1049   9.678   6.176   7.051  0.1371  0.6667 -0.5347
  749MOL0     H 1050   9.917   6.200   6.913  2.4281 -0.5925 -0.6855
  749MOL0     H 1051   9.863   6.137   7.073  1.2633  2.9983  0.3708
  749MOL0     H 1052  10.101   6.060   6.905  2.9393 -0.3214  1.3555
  749MOL0     H 1053  10.014   5.947   7.012  1.5605 -0.2535 -1.9858
  749MOL0     H 1054  10.178   6.027   7.158 -3.5618 -2.9042  1.9675
  749MOL0     H 1055  10.054   6.143   7.190  1.8674 -1.0599  2.1534
  749MOL0     H 1056  10.250   6.204   6.980 -1.5554 -0.8852 -0.1277
  749MOL0     H 1057  10.176   6.317   7.094 -0.1685  0.2668  2.0283
  749MOL0     H 1058  10.383   6.090   7.159  2.0280  0.4014  0.7968
  749MOL0     H 1059  10.430   6.258   7.144  1.6733  0.4457  0.3441
  749MOL0     H 1060  10.218   6.189   7.340  0.8572 -0.2566  0.9084
  749MOL0     H 1061  10.392   6.136   7.366  1.5304  0.7013 -0.4556
  749MOL0     H 1062  10.324   6.422   7.279 -1.7433  1.2999  1.9341
  749MOL0     H 1063  10.473   6.358   7.345  0.2452 -0.8795 -2.4904
  749MOL0     H 1064  10.220   6.418   7.499 -0.9245 -0.9986 -2.8247
  749MOL0     H 1065  10.357   6.330   7.573  0.6293 -0.6658 -0.4016
  749MOL0     H 1066  10.261   6.649   7.372  2.4763 -2.9451 -1.5041
  749MOL0     H 1067  10.503   6.892   7.365  0.4511  0.1297 -0.5400
  749MOL0     H 1068  10.335   6.881   7.333 -0.0586 -1.1038  1.3854
  749MOL0     H 1069  10.436   6.972   7.615 -1.9413 -0.1132  1.4100
  749MOL0     H 1070  10.408   7.084   7.487  0.1358  1.0299  2.9627
  749MOL0     H 1071  10.204   6.893   7.615  0.3325  0.9320  0.4544
  749MOL0     H 1072  10.164   7.022   7.496 -2.7758  3.4532  3.1727
  749MOL0     H 1073  10.267   7.049   7.769 -1.8213 -1.9360  0.6403
  749MOL0     H 1074  10.109   7.113   7.703  0.4588  1.6556 -1.0424
  749MOL0     H 1075  10.519   7.264   7.626 -2.1684 -2.7808 -0.4969
  749MOL0     H 1076  10.659   7.413   7.823 -0.6704 -0.2087  1.3946
  749MOL0     H 1077  10.642   7.758   8.108  0.6877 -1.9110 -0.7731
  749MOL0     H 1078  10.774   7.895   8.273 -1.5913 -0.7927  0.0131
  749MOL0     H 1079  10.863   7.971   8.474  0.4905 -0.8736 -0.6687
  749MOL0     H 1080  11.017   7.947   8.561  1.3716  1.3470 -1.0083
  749MOL0     H 1081  11.142   7.985   8.342 -0.8384 -1.4446 -1.8348
  749MOL0     H 1082  10.996   7.967   8.260 -1.0030  1.3643  0.4541
  749MOL0     H 1083  11.029   8.202   8.450 -2.4815  1.5458  0.3887
  749MOL0     H 1084  11.085   8.195   8.287  0.0864 -1.1602  0.8669
  749MOL0     H 1085  10.801   8.121   8.327  0.8963  0.2065 -0.5272
  749MOL0     H 1086  10.877   8.213   8.199  1.4057  0.6015 -0.2528
  749MOL0     H 1087  10.898   8.408   8.341  2.6026 -2.5939 -0.2027
  749MOL0     H 1088  10.831   8.337   8.485 -0.8106  0.3424 -0.1476
  749MOL0     H 1089  10.669   8.370   8.226 -1.5147  1.2466  1.1472
  749MOL0     H 1090  10.625   8.277   8.361 -0.2829  0.3520 -0.9665
  749MOL0     H 1091  10.666   8.575   8.339 -0.7444 -0.4188 -2.9611
  749MOL0     H 1092  10.623   8.509   8.497  4.4312  1.6555 -1.4060
  749MOL0     H 1093  10.468   8.510   8.238  1.3508  0.1698 -0.5782
  749MOL0     H 1094  10.410   8.416   8.377 -0.0936  0.6340  3.2656
  749MOL0     H 1095  10.975   7.540   8.416  0.4119 -0.2779 -1.0218
  749MOL0     H 1096  10.858   7.407   8.243 -0.2189 -0.2078  2.1171
  749MOL0     H 1097  10.312   7.415   8.050  2.6146  2.6234 -0.4723
  749MOL0     H 1098  10.183   7.295   7.869 -0.7066 -0.7349 -2.3633
  749MOL0     H 1099   9.656   5.865   6.763 -1.7475 -1.2775  0.8866
  749MOL0     H 1100   9.413   5.865   6.784  1.7876 -0.7030 -0.6277
  749MOL0     H 1101   9.110   6.183   7.065  1.0718  0.5974 -0.6588
  749MOL0     H 1102   8.891   6.267   7.118  2.5226  0.7834  1.2610
  749MOL0     H 1103   8.507   6.361   6.921 -0.6113 -0.0184 -0.7733
  749MOL0     H 1104   8.582   6.282   6.787 -0.2417  0.5447 -0.6187
  749MOL0     H 1105   8.601   6.519   6.802 -0.9046 -1.0293  0.4482
  749MOL0     H 1106   8.760   6.451   6.810 -0.5761 -3.1649  0.0014
  749MOL0     H 1107   8.732   6.646   6.963 -3.5956  2.0308  0.8697
  749MOL0     H 1108   8.773   6.493   7.043 -1.3915 -4.5975 -1.5534
  749MOL0     H 1109   8.530   6.464   7.104  0.4738 -1.3630 -0.6293
  749MOL0     H 1110   8.580   6.629   7.160  0.4518 -0.6016 -0.5028
  749MOL0     H 1111   8.279   6.631   6.851 -1.6664  1.8482  1.1690
  749MOL0     H 1112   8.738   6.099   6.739  1.7659 -1.6477 -2.3948
  749MOL0     H 1113   8.864   5.954   6.603  1.9793 -2.3829 -1.0409
  749MOL0     H 1114   9.015   6.030   6.584  1.8447  0.1737  1.8737
  749MOL0     H 1115   9.001   5.882   6.680  1.4423 -0.4264 -1.4727
  750MOL0     O 1116   3.231   4.064   3.462 -0.6887  0.1860 -0.2877
  750MOL0     C 1117   3.169   3.958   3.454  0.2281 -0.5175  0.0670
  750MOL0     O 1118   3.169   3.877   3.343 -0.4638 -0.2109 -0.2075
  750MOL0     C 1119   3.253   3.905   3.242 -0.7403  0.1100 -0.5180
  750MOL0     C 1120   3.207   3.958   3.128 -0.5153 -0.0096  0.2884
  750MOL0     C 1121   3.287   3.984   3.015  0.3689 -0.1793  0.0395
  750MOL0     C 1122   3.419   3.931   3.020  0.2893 -1.1290  0.1843
  750MOL0     O 1123   3.506   3.961   2.915 -0.4012  0.1045  0.1106
  750MOL0     C 1124   3.566   4.085   2.907 -0.2710  0.5053  0.1068
  750MOL0     C 1125   3.484   4.178   2.814 -0.6342  0.2362  0.4197
  750MOL0     C 1126   3.577   4.300   2.783  1.2177  0.7842 -0.1788
  750MOL0     C 1127   3.537   4.384   2.664 -0.8452 -1.0314  0.0918
  750MOL0     C 1128   3.569   4.534   2.669 -0.0731  0.3474 -0.0673
  750MOL0     C 1129   3.720   4.553   2.665 -0.0694  0.4788  0.2177
  750MOL0     C 1130   3.758   4.697   2.634 -0.2356 -0.5711 -0.0389
  750MOL0     C 1131   3.727   4.750   2.489 -0.3226 -0.1265  0.3817
  750MOL0     N 1132   3.794   4.669   2.382  0.9923 -0.3233 -0.5613
  750MOL0     C 1133   3.909   4.703   2.309 -0.2613 -0.0398  0.2706
  750MOL0     C 1134   3.928   4.603   2.224  0.2979  0.4323  0.3141
  750MOL0     C 1135   4.048   4.593   2.142 -0.0192 -0.3060 -0.0878
  750MOL0     C 1136   4.150   4.501   2.214  0.3103  0.0075 -0.4458
  750MOL0     C 1137   4.275   4.495   2.131  0.1524  0.2879 -0.0016
  750MOL0     C 1138   4.257   4.468   1.980 -0.0570 -0.5516 -0.6591
  750MOL0     O 1139   4.374   4.417   1.926 -0.3416  0.8694  0.2104
  750MOL0     C 1140   4.496   4.481   1.904 -0.6817  0.1954 -0.0851
  750MOL0     C 1141   4.602   4.414   1.835 -0.1701  0.1419  1.1200
  750MOL0     C 1142   4.719   4.482   1.804 -0.3907 -0.0691 -0.5353
  750MOL0     C 1143   4.734   4.623   1.827 -0.4954  1.4102 -0.0612
  750MOL0     C 1144   4.848   4.701   1.790  0.1799 -0.2361  0.0749
  750MOL0     O 1145   4.967   4.638   1.792  0.2513  0.5063 -0.1287
  750MOL0     C 1146   5.084   4.704   1.795 -0.1127  0.8548  1.3596
  750MOL0     C 1147   5.184   4.683   1.702 -0.2424  0.7973  0.6462
  750MOL0     C 1148   5.302   4.750   1.712 -0.7450 -0.1765  0.4049
  750MOL0     C 1149   5.324   4.844   1.818  0.3345 -0.0888  0.0502
  750MOL0     O 1150   5.437   4.916   1.821  0.2902 -0.5505  0.6039
  750MOL0     C 1151   5.469   4.971   1.947  0.6715  0.0414  0.7681
  750MOL0     C 1152   5.594   5.042   1.918  0.7861  0.5991 -0.4419
  750MOL0     C 1153   5.647   5.160   2.001  0.7455  0.1717  0.3481
  750MOL0     C 1154   5.755   5.112   2.103 -0.2715 -0.2354 -0.0685
  750MOL0     C 1155   5.765   5.219   2.217 -0.3952 -0.1501  0.7978
  750MOL0     C 1156   5.845   5.169   2.335 -0.5558 -0.0484 -1.0447
  750MOL0     C 1157   5.754   5.087   2.429  0.3801  0.5439  0.5245
  750MOL0     C 1158   5.844   5.013   2.525  0.7778  0.3149  0.7430
  750MOL0    Cl 1159   5.758   4.874   2.593 -0.1393  0.2291  0.3670
  750MOL0     C 1160   5.223   4.862   1.914 -0.7468 -0.4904  0.1761
  750MOL0     C 1161   5.103   4.795   1.900 -0.5747  0.4790 -0.3826
  750MOL0     O 1162   4.826   4.823   1.767 -0.5340 -0.0067 -0.1496
  750MOL0     C 1163   4.620   4.690   1.890 -0.0406  0.3395  0.0884
  750MOL0     C 1164   4.510   4.619   1.928  0.5218 -0.0261  0.2758
  750MOL0     N 1165   3.815   4.518   2.236  0.2451 -0.1263 -0.3772
  750MOL0     N 1166   3.737   4.556   2.332 -0.6115  0.4219 -0.7068
  750MOL0     C 1167   3.464   3.864   3.135  0.4092 -0.4752  0.4088
  750MOL0     C 1168   3.382   3.856   3.249 -0.9856 -0.4231  0.5409
  750MOL0     C 1169   3.071   3.926   3.566 -1.3531 -0.2710 -0.0788
  750MOL0     C 1170   2.950   3.861   3.544  0.2668  0.6621 -0.5420
  750MOL0     C 1171   2.863   3.831   3.643 -0.1141  0.2078 -0.8209
  750MOL0     C 1172   2.888   3.877   3.772  0.2253 -0.3348  0.4228
  750MOL0     O 1173   2.805   3.857   3.879 -0.3548 -0.1143 -0.3333
  750MOL0     C 1174   2.689   3.768   3.863  0.9639  0.7090  0.3019
  750MOL0     C 1175   2.601   3.790   3.987 -0.1451 -0.2696 -0.3653
  750MOL0     C 1176   2.490   3.689   4.009 -0.0247  0.1248 -0.0050
  750MOL0     C 1177   2.389   3.668   3.898 -0.0775  0.3890 -0.9069
  750MOL0     C 1178   2.456   3.616   3.779  0.3884 -0.2083  0.1474
  750MOL0     C 1179   2.498   3.582   3.675 -0.4088  1.0377 -0.0536
  750MOL0     C 1180   3.008   3.938   3.797  0.1168  1.8470 -0.4015
  750MOL0     C 1181   3.103   3.965   3.697 -0.3828 -0.3415 -0.2471
  750MOL0     C 1182   3.220   4.041   3.744 -0.4483 -0.0126 -1.2257
  750MOL0     H 1183   3.101   3.981   3.126 -0.8284 -1.3550 -0.0085
  750MOL0     H 1184   3.246   4.031   2.926 -0.5502 -2.0558 -0.6035
  750MOL0     H 1185   3.568   4.143   3.000  0.5318  0.5661  0.0616
  750MOL0     H 1186   3.671   4.060   2.888 -0.5424 -2.0575  1.5430
  750MOL0     H 1187   3.396   4.211   2.870 -1.6103  1.6129 -1.8208
  750MOL0     H 1188   3.439   4.129   2.727 -0.1075 -1.0645  0.8506
  750MOL0     H 1189   3.685   4.281   2.772  0.6502 -1.3991 -3.1830
  750MOL0     H 1190   3.566   4.361   2.872 -0.4300 -0.7353  0.7208
  750MOL0     H 1191   3.568   4.351   2.565 -1.1353  1.4049 -0.8648
  750MOL0     H 1192   3.429   4.378   2.648 -0.5059 -1.3435 -2.4572
  750MOL0     H 1193   3.518   4.582   2.585 -0.5596 -1.8425 -1.0855
  750MOL0     H 1194   3.515   4.572   2.757 -0.7319 -1.4672  0.3473
  750MOL0     H 1195   3.757   4.529   2.765  1.5614  0.2715 -0.3989
  750MOL0     H 1196   3.760   4.477   2.598  2.4122  0.1024  2.0097
  750MOL0     H 1197   3.865   4.711   2.647  0.0287  1.2339 -3.1402
  750MOL0     H 1198   3.711   4.765   2.706  1.0637 -0.3745  0.6505
  750MOL0     H 1199   3.624   4.728   2.463 -0.2824  0.3462 -0.2117
  750MOL0     H 1200   3.757   4.854   2.471  0.1602 -0.3527 -0.1506
  750MOL0     H 1201   3.977   4.783   2.337 -1.7974  0.5885  2.5666
  750MOL0     H 1202   4.013   4.550   2.048 -2.9047 -1.6657  1.4706
  750MOL0     H 1203   4.101   4.687   2.125 -1.8276  1.3080  2.5015
  750MOL0     H 1204   4.179   4.541   2.311  2.5022  0.8495 -1.4025
  750MOL0     H 1205   4.100   4.406   2.235 -0.2937 -0.0388 -1.9403
  750MOL0     H 1206   4.342   4.418   2.170 -0.7668 -0.0810  0.8753
  750MOL0     H 1207   4.320   4.595   2.140  1.9605 -0.6155  1.8919
  750MOL0     H 1208   4.235   4.563   1.930  0.7365  0.6598  1.1854
  750MOL0     H 1209   4.182   4.392   1.958 -0.7786  0.4023 -1.5404
  750MOL0     H 1210   4.574   4.316   1.798  1.9707  0.3470 -1.2514
  750MOL0     H 1211   4.798   4.426   1.755 -0.7447 -0.3316 -0.8068
  750MOL0     H 1212   5.171   4.625   1.612  0.0379 -1.4877  2.0143
  750MOL0     H 1213   5.380   4.747   1.636  0.8002 -0.7063  1.9472
  750MOL0     H 1214   5.388   5.041   1.971  0.7324  0.5202 -0.3434
  750MOL0     H 1215   5.486   4.898   2.026  0.6195  2.1887  2.8970
  750MOL0     H 1216   5.674   4.968   1.907 -0.5737 -0.8920 -0.6003
  750MOL0     H 1217   5.579   5.106   1.830 -0.0823  3.8546  1.9022
  750MOL0     H 1218   5.691   5.239   1.939  0.2987 -0.0986 -0.3387
  750MOL0     H 1219   5.557   5.202   2.047  0.7391  1.3923 -0.6966
  750MOL0     H 1220   5.854   5.105   2.057 -1.3254 -1.2888 -2.3096
  750MOL0     H 1221   5.724   5.014   2.140 -0.8152  0.2531  0.8079
  750MOL0     H 1222   5.666   5.259   2.242 -0.5274  1.5552 -1.9431
  750MOL0     H 1223   5.815   5.307   2.176  0.8709 -0.6798  1.1600
  750MOL0     H 1224   5.940   5.123   2.306  0.3852  1.9319 -1.2060
  750MOL0     H 1225   5.868   5.250   2.405  1.3605 -1.5812  0.2054
  750MOL0     H 1226   5.693   5.023   2.365  0.1489  1.0835  0.1968
  750MOL0     H 1227   5.685   5.160   2.474  0.7608  0.9324  0.4891
  750MOL0     H 1228   5.934   4.972   2.478  0.3846 -0.7592  0.8907
  750MOL0     H 1229   5.877   5.067   2.615  3.6313  1.0698 -0.6575
  750MOL0     H 1230   5.221   4.938   1.992  0.8086  0.0948 -0.3181
  750MOL0     H 1231   5.023   4.812   1.971 -1.4485 -2.5209 -0.5160
  750MOL0     H 1232   4.609   4.797   1.899 -1.5265  0.2980 -0.9997
  750MOL0     H 1233   4.420   4.665   1.967 -0.9341 -2.6319  0.2071
  750MOL0     H 1234   3.561   3.816   3.137  0.1560 -1.0767 -0.9417
  750MOL0     H 1235   3.430   3.805   3.332 -0.1791  1.5756  1.3707
  750MOL0     H 1236   2.923   3.833   3.443  0.5600 -3.2324  0.2968
  750MOL0     H 1237   2.778   3.772   3.609 -1.5284  0.4630  1.9602
  750MOL0     H 1238   2.722   3.664   3.856 -3.6235 -0.9847  0.0627
  750MOL0     H 1239   2.637   3.809   3.776  2.2233 -0.7650 -1.2136
  750MOL0     H 1240   2.562   3.892   3.981  2.0739  0.6303 -0.4922
  750MOL0     H 1241   2.667   3.784   4.075 -0.9362 -0.5916  0.2199
  750MOL0     H 1242   2.445   3.732   4.098 -0.1461 -1.8641  0.9480
  750MOL0     H 1243   2.528   3.589   4.033 -1.4603 -0.2623  0.7403
  750MOL0     H 1244   2.305   3.602   3.918 -0.1284  0.6404 -0.2472
  750MOL0     H 1245   2.351   3.766   3.868 -0.6793 -0.2189 -2.1782
  750MOL0     H 1246   2.533   3.555   3.578 -2.4770 -4.8393  0.4645
  750MOL0     H 1247   3.025   3.964   3.901 -2.0093 -1.4651  0.9279
  750MOL0     H 1248   3.229   4.146   3.713  2.8109 -0.1929 -1.3090
  750MOL0     H 1249   3.238   4.057   3.851  2.3697  2.3972 -1.8922
  750MOL0     H 1250   3.308   3.988   3.706  1.5069  0.1192  2.6455
  751MOL0     O 1251   5.125   8.355   6.579  0.4251 -0.2548 -0.0357
  751MOL0     C 1252   5.109   8.438   6.664  0.4998  0.2881 -0.4132
  751MOL0     O 1253   5.198   8.532   6.710 -0.5193  0.5378  0.0889
  751MOL0     C 1254   5.323   8.536   6.650 -0.5469 -0.4697  0.2671
  751MOL0     C 1255   5.437   8.452   6.684  0.3444  0.0217  0.7048
  751MOL0     C 1256   5.561   8.488   6.618 -0.5145  0.6271  0.5010
  751MOL0     C 1257   5.570   8.589   6.520 -0.4461 -0.0248  0.1888
  751MOL0     O 1258   5.688   8.619   6.474  0.4254  0.4660  0.6207
  751MOL0     C 1259   5.728   8.755   6.449  0.1592 -0.1631  1.1677
  751MOL0     C 1260   5.881   8.766   6.449  0.1139 -0.4714  0.0036
  751MOL0     C 1261   5.963   8.683   6.556 -0.1864 -0.2726  0.8776
  751MOL0     C 1262   6.108   8.723   6.576  0.0785 -0.1906  0.2034
  751MOL0     C 1263   6.197   8.650   6.475 -0.4501  0.9665  0.4881
  751MOL0     C 1264   6.355   8.666   6.491  0.7495  0.1462 -0.2796
  751MOL0     C 1265   6.417   8.567   6.396  0.5042 -0.4844 -0.2688
  751MOL0     C 1266   6.572   8.582   6.403  0.5272  0.4293  0.1156
  751MOL0     N 1267   6.642   8.511   6.299 -1.2051  0.5175 -0.6810
  751MOL0     C 1268   6.640   8.376   6.263 -0.1890  0.4281 -0.1035
  751MOL0     C 1269   6.690   8.372   6.139  0.4028  0.1452  0.7042
  751MOL0     C 1270   6.694   8.252   6.044  0.5354 -1.3063  0.2141
  751MOL0     C 1271   6.810   8.172   6.076 -0.3947  0.5705  0.2000
  751MOL0     C 1272   6.950   8.237   6.069  0.2651  0.3908 -0.0210
  751MOL0     C 1273   7.041   8.126   6.129 -0.5784 -0.0241 -0.1958
  751MOL0     O 1274   7.175   8.179   6.136 -0.6650 -0.3490  0.1583
  751MOL0     C 1275   7.283   8.115   6.200 -0.1653 -1.2152  0.1086
  751MOL0     C 1276   7.411   8.148   6.171 -0.7180  0.1336  0.8097
  751MOL0     C 1277   7.524   8.096   6.245  1.0962  0.8178  0.6530
  751MOL0     C 1278   7.494   8.005   6.347 -0.8863  0.4956 -0.3543
  751MOL0     C 1279   7.603   7.925   6.413 -0.5618  0.1166  1.1944
  751MOL0     O 1280   7.725   7.930   6.356  0.0875  0.5263 -0.3532
  751MOL0     C 1281   7.837   7.865   6.403 -1.4934  0.3104 -0.1264
  751MOL0     C 1282   7.965   7.926   6.396 -0.7582  0.7236 -0.8485
  751MOL0     C 1283   8.080   7.881   6.468  0.2057 -0.6645  0.0674
  751MOL0     C 1284   8.075   7.766   6.537 -0.4400 -0.2810 -0.5651
  751MOL0     O 1285   8.170   7.712   6.616  0.1617 -0.0359 -0.3775
  751MOL0     C 1286   8.297   7.715   6.540 -0.3798 -0.6809 -0.4219
  751MOL0     C 1287   8.409   7.691   6.640  0.2735  0.6248  0.4026
  751MOL0     C 1288   8.542   7.750   6.592  0.5334  0.0044 -0.9102
  751MOL0     C 1289   8.614   7.646   6.501 -0.3982 -0.5560  0.2105
  751MOL0     C 1290   8.704   7.545   6.584  0.9437 -0.3475 -0.4775
  751MOL0     C 1291   8.764   7.437   6.495 -0.5496  0.3290 -0.5083
  751MOL0     C 1292   8.864   7.511   6.403 -0.5607 -0.2851 -0.1169
  751MOL0     C 1293   8.937   7.408   6.316  0.2358  0.0694 -0.2586
  751MOL0    Cl 1294   9.078   7.338   6.420  0.3360  0.5682  0.3220
  751MOL0     C 1295   7.954   7.692   6.523  0.3897  0.7841  0.5702
  751MOL0     C 1296   7.840   7.739   6.461 -0.2827  0.0663 -0.2100
  751MOL0     O 1297   7.570   7.846   6.505  0.2989  0.4470  0.8233
  751MOL0     C 1298   7.359   7.973   6.374  0.1854 -0.6979  0.7307
  751MOL0     C 1299   7.258   8.019   6.299 -0.1692 -0.6014  0.4346
  751MOL0     N 1300   6.737   8.494   6.108 -0.3598 -0.1208  0.3957
  751MOL0     N 1301   6.711   8.579   6.202  0.3984 -0.7322 -0.2346
  751MOL0     C 1302   5.458   8.659   6.496  0.1456  0.5297  0.7710
  751MOL0     C 1303   5.329   8.638   6.556  0.0769  0.2261 -0.4252
  751MOL0     C 1304   4.968   8.460   6.719 -0.2750 -0.1227 -0.6727
  751MOL0     C 1305   4.863   8.387   6.655  0.8277 -0.6305  0.2170
  751MOL0     C 1306   4.729   8.403   6.705  0.9908 -0.0425 -0.3759
  751MOL0     C 1307   4.700   8.489   6.804 -0.6045 -0.3158 -0.6858
  751MOL0     O 1308   4.566   8.514   6.826  0.1867 -0.5924  0.6741
  751MOL0     C 1309   4.517   8.600   6.925 -0.3490  0.7469 -0.0617
  751MOL0     C 1310   4.375   8.573   6.960 -0.2659  1.2730  0.5737
  751MOL0     C 1311   4.311   8.669   7.054  0.0966  0.4145 -0.1142
  751MOL0     C 1312   4.173   8.615   7.109 -0.2785 -0.6216  0.1578
  751MOL0     C 1313   4.072   8.617   7.000 -0.4316  0.2081 -0.1324
  751MOL0     C 1314   4.016   8.615   6.890 -0.6369 -0.9180  0.2387
  751MOL0     C 1315   4.807   8.545   6.881 -0.4053  0.3810  0.2632
  751MOL0     C 1316   4.940   8.537   6.839 -0.0004  1.0938  0.9227
  751MOL0     C 1317   5.043   8.617   6.915  0.5255  0.8457 -0.2260
  751MOL0     H 1318   5.428   8.364   6.746 -0.0836  0.2611  0.9875
  751MOL0     H 1319   5.644   8.419   6.622 -0.8300 -0.0542 -2.3361
  751MOL0     H 1320   5.692   8.782   6.349  2.0059  0.9536  0.7698
  751MOL0     H 1321   5.680   8.820   6.523 -2.1805 -0.8240  0.3335
  751MOL0     H 1322   5.900   8.873   6.460  1.0131 -0.7150  0.9356
  751MOL0     H 1323   5.918   8.733   6.351 -0.2111 -0.2184 -0.2058
  751MOL0     H 1324   5.954   8.577   6.531 -0.4497 -0.2127  0.7112
  751MOL0     H 1325   5.913   8.711   6.649 -0.6775  5.0920 -0.6336
  751MOL0     H 1326   6.119   8.831   6.581 -0.9138  0.0516 -1.9976
  751MOL0     H 1327   6.145   8.684   6.672 -0.6614  0.7369  0.8819
  751MOL0     H 1328   6.182   8.543   6.493 -0.4958  1.0690  1.0872
  751MOL0     H 1329   6.168   8.668   6.371  1.9384 -3.3123 -1.1974
  751MOL0     H 1330   6.372   8.763   6.445 -1.6977 -0.0730 -1.8444
  751MOL0     H 1331   6.392   8.656   6.594 -1.5446 -2.5255  0.4104
  751MOL0     H 1332   6.378   8.589   6.297  1.7420  0.7327 -0.5219
  751MOL0     H 1333   6.395   8.467   6.434  0.7361 -0.0870  0.9768
  751MOL0     H 1334   6.590   8.689   6.396  1.6269  0.1349 -3.5164
  751MOL0     H 1335   6.602   8.531   6.495 -0.7014 -1.0416 -0.2588
  751MOL0     H 1336   6.586   8.297   6.314  0.0671  1.7581  2.3708
  751MOL0     H 1337   6.604   8.190   6.050  1.2177 -2.5932 -1.7244
  751MOL0     H 1338   6.702   8.282   5.939  2.7164 -0.3410  0.5932
  751MOL0     H 1339   6.785   8.128   6.173 -1.4798  0.9339  0.1029
  751MOL0     H 1340   6.816   8.091   6.003 -1.3000  2.2896 -1.8926
  751MOL0     H 1341   6.950   8.323   6.136 -2.2327 -1.8391  3.1060
  751MOL0     H 1342   6.982   8.248   5.965 -0.2460  1.4898 -0.0698
  751MOL0     H 1343   7.051   8.034   6.069 -1.0907 -0.7316  0.7815
  751MOL0     H 1344   6.993   8.095   6.222 -2.8093  0.3359 -1.1654
  751MOL0     H 1345   7.411   8.237   6.108 -1.1299  0.4930  1.3043
  751MOL0     H 1346   7.623   8.115   6.205  0.8447  0.8070  0.0132
  751MOL0     H 1347   7.977   8.022   6.347  0.3577  1.2164  0.3300
  751MOL0     H 1348   8.168   7.945   6.463 -0.3548  0.1177 -4.5750
  751MOL0     H 1349   8.289   7.635   6.466 -3.7106 -1.0088  0.1417
  751MOL0     H 1350   8.317   7.810   6.489  0.8480 -0.1464  0.9674
  751MOL0     H 1351   8.383   7.740   6.735  1.6291  0.8879  0.6619
  751MOL0     H 1352   8.427   7.585   6.658 -2.6337 -0.5307 -2.4312
  751MOL0     H 1353   8.529   7.848   6.545 -0.5228  0.3507  0.0558
  751MOL0     H 1354   8.601   7.766   6.682 -0.6772 -0.2683 -0.0494
  751MOL0     H 1355   8.679   7.698   6.430 -0.8244 -0.2173  0.0608
  751MOL0     H 1356   8.541   7.601   6.433 -1.1259 -0.3501  0.8473
  751MOL0     H 1357   8.634   7.510   6.660 -1.5590 -0.6091 -2.7378
  751MOL0     H 1358   8.785   7.581   6.647  1.2412  0.7043 -1.4256
  751MOL0     H 1359   8.807   7.364   6.564 -3.7882 -0.4048  0.8900
  751MOL0     H 1360   8.693   7.387   6.429  1.5490  0.0594 -2.7304
  751MOL0     H 1361   8.948   7.557   6.455  2.8697 -0.9291 -4.4519
  751MOL0     H 1362   8.827   7.587   6.334 -0.4927 -0.3303 -0.2044
  751MOL0     H 1363   8.868   7.337   6.269  0.0004  2.4191 -3.8223
  751MOL0     H 1364   8.980   7.458   6.229  0.9603 -1.2920 -0.7186
  751MOL0     H 1365   7.956   7.599   6.578 -3.1606  1.2683  1.7414
  751MOL0     H 1366   7.757   7.669   6.460 -0.4863  0.2619  1.1094
  751MOL0     H 1367   7.340   7.902   6.454  0.7342 -1.4385  0.2186
  751MOL0     H 1368   7.157   7.990   6.328 -0.4508  1.5012  1.8082
  751MOL0     H 1369   5.470   8.734   6.418 -0.7682 -2.5099 -2.6002
  751MOL0     H 1370   5.245   8.704   6.536 -0.6552 -0.5934 -0.1242
  751MOL0     H 1371   4.876   8.315   6.576 -0.3856 -0.8441  0.1803
  751MOL0     H 1372   4.653   8.341   6.658 -1.3000 -1.4232  4.5049
  751MOL0     H 1373   4.536   8.701   6.887  0.9020  1.0160  1.1820
  751MOL0     H 1374   4.580   8.599   7.015  0.1934 -0.0351 -0.4425
  751MOL0     H 1375   4.362   8.476   7.008  1.1287  1.8859  2.3489
  751MOL0     H 1376   4.311   8.576   6.872  1.3498  0.4423 -0.6896
  751MOL0     H 1377   4.290   8.767   7.011 -1.7951  0.1842  0.1921
  751MOL0     H 1378   4.379   8.678   7.140  0.8825  0.6251 -0.7516
  751MOL0     H 1379   4.181   8.515   7.151 -0.7711  0.5115  3.2201
  751MOL0     H 1380   4.131   8.678   7.188 -0.4198  1.3596 -1.4069
  751MOL0     H 1381   3.962   8.605   6.798  0.3013 -0.2600 -0.3995
  751MOL0     H 1382   4.794   8.608   6.968  0.3984  1.4579 -0.3723
  751MOL0     H 1383   5.096   8.696   6.861  4.7129 -2.0267 -0.7468
  751MOL0     H 1384   4.994   8.665   7.000 -2.2134 -1.7878 -0.1611
  751MOL0     H 1385   5.119   8.547   6.951 -0.0008  1.6111  2.5776
  752MOL0     O 1386   6.233   8.316   5.555 -0.2649  0.1793  0.4127
  752MOL0     C 1387   6.305   8.242   5.488  0.4054  0.1404 -0.7310
  752MOL0     O 1388   6.260   8.151   5.397  1.1090 -0.4216 -0.3269
  752MOL0     C 1389   6.119   8.147   5.371 -0.4500 -0.5552  0.3519
  752MOL0     C 1390   6.046   8.028   5.414  0.4825 -0.8356  0.1420
  752MOL0     C 1391   5.905   8.027   5.399 -0.1778 -0.0643  0.6134
  752MOL0     C 1392   5.842   8.134   5.324  0.3023  0.3343 -0.4170
  752MOL0     O 1393   5.709   8.125   5.302  0.7045 -0.0528  0.0342
  752MOL0     C 1394   5.633   8.079   5.411 -0.3233 -0.5515 -0.2446
  752MOL0     C 1395   5.483   8.119   5.400 -0.0020 -0.1163 -0.6688
  752MOL0     C 1396   5.461   8.250   5.330  0.2734  0.0543 -0.0236
  752MOL0     C 1397   5.309   8.296   5.341  0.2106 -0.0916  0.2405
  752MOL0     C 1398   5.289   8.440   5.283 -0.6200  0.2021  0.4212
  752MOL0     C 1399   5.139   8.488   5.307  0.0156 -0.2674 -0.5594
  752MOL0     C 1400   5.112   8.640   5.275 -1.0178  0.1851 -0.1913
  752MOL0     C 1401   5.120   8.661   5.122 -0.7993 -0.5447  0.1152
  752MOL0     N 1402   5.065   8.793   5.093  0.4033 -0.0014 -0.2526
  752MOL0     C 1403   4.933   8.831   5.089  0.2124 -0.2487  0.7393
  752MOL0     C 1404   4.931   8.966   5.069 -0.0388  0.4370 -0.1717
  752MOL0     C 1405   4.807   9.047   5.059 -0.2374  0.3016  0.8377
  752MOL0     C 1406   4.802   9.159   5.168 -0.5201 -0.1749  0.3906
  752MOL0     C 1407   4.698   9.275   5.125  0.2056  0.1846 -0.4842
  752MOL0     C 1408   4.700   9.395   5.216 -0.8606  0.6446 -0.3121
  752MOL0     O 1409   4.617   9.485   5.153  0.4703  0.6580  0.0688
  752MOL0     C 1410   4.676   9.603   5.099 -0.4473  0.3195 -0.9435
  752MOL0     C 1411   4.621   9.652   4.988  0.5714 -0.3588  0.2323
  752MOL0     C 1412   4.663   9.779   4.933  0.9712  0.1726 -0.7510
  752MOL0     C 1413   4.749   9.861   4.999  0.3996 -0.1051  0.1382
  752MOL0     C 1414   4.808   9.984   4.928  0.1019 -0.3674 -0.4312
  752MOL0     O 1415   4.917  10.049   4.975 -0.5779 -0.2843  0.0390
  752MOL0     C 1416   4.968  10.149   4.900 -0.3149 -0.4942  0.4733
  752MOL0     C 1417   5.060  10.135   4.792  1.1053  0.1588  0.2098
  752MOL0     C 1418   5.138  10.245   4.743 -0.1366 -0.4824  0.0949
  752MOL0     C 1419   5.120  10.368   4.806  0.2447  0.2427  0.5366
  752MOL0     O 1420   5.203  10.464   4.761  0.2690  0.1772 -0.4025
  752MOL0     C 1421   5.167  10.604   4.774  0.4424 -1.3159  0.2014
  752MOL0     C 1422   5.231  10.688   4.666  0.4672  0.1429 -0.7105
  752MOL0     C 1423   5.377  10.676   4.661  0.4158  0.4626  0.3715
  752MOL0     C 1424   5.429  10.748   4.536 -0.1218  0.1463  0.5645
  752MOL0     C 1425   5.585  10.783   4.548 -0.4370 -0.9703 -0.3557
  752MOL0     C 1426   5.630  10.853   4.424  0.2499 -0.3797 -0.9250
  752MOL0     C 1427   5.778  10.885   4.439  0.1931 -0.7217  0.1008
  752MOL0     C 1428   5.820  10.935   4.303 -0.0632  0.0296  0.4370
  752MOL0    Cl 1429   5.988  10.991   4.338  0.5393 -0.0022  0.7622
  752MOL0     C 1430   5.034  10.384   4.907 -1.7456 -0.0014  0.1941
  752MOL0     C 1431   4.956  10.278   4.954  0.7408 -0.1360 -0.1115
  752MOL0     O 1432   4.763  10.003   4.815  0.6239  0.7726  0.4266
  752MOL0     C 1433   4.804   9.808   5.110 -0.6847 -0.4927 -0.2492
  752MOL0     C 1434   4.768   9.681   5.161 -0.2244 -0.4150 -0.2226
  752MOL0     N 1435   5.058   9.005   5.041  0.4421 -0.1587 -0.1618
  752MOL0     N 1436   5.133   8.898   5.039 -0.7063 -0.8105 -0.9527
  752MOL0     C 1437   5.921   8.234   5.270 -0.5343  0.0338 -0.0596
  752MOL0     C 1438   6.059   8.245   5.302 -0.2543 -0.1213 -0.3523
  752MOL0     C 1439   6.447   8.258   5.506 -0.1294 -0.1735  0.5131
  752MOL0     C 1440   6.528   8.146   5.497  0.6666 -0.6034  0.3345
  752MOL0     C 1441   6.662   8.160   5.501 -0.1801 -0.1361 -0.0557
  752MOL0     C 1442   6.729   8.281   5.525  0.5755 -0.1453 -1.0550
  752MOL0     O 1443   6.867   8.282   5.533 -0.4434 -0.1750  0.6697
  752MOL0     C 1444   6.924   8.283   5.401 -0.8746 -0.4813 -0.3157
  752MOL0     C 1445   7.079   8.258   5.390  0.6744  0.0869 -0.3529
  752MOL0     C 1446   7.116   8.121   5.439 -0.5295  0.0614  0.0277
  752MOL0     C 1447   7.101   7.999   5.337  0.3494  0.2152 -0.1551
  752MOL0     C 1448   7.199   7.986   5.233  0.1910 -0.2106  0.3277
  752MOL0     C 1449   7.280   7.978   5.141  1.2135 -0.2255 -0.3746
  752MOL0     C 1450   6.648   8.392   5.540 -0.3262 -0.2453 -0.1292
  752MOL0     C 1451   6.507   8.387   5.522 -1.1600 -0.4684  0.6476
  752MOL0     C 1452   6.438   8.520   5.506 -0.4805 -0.0567  0.3417
  752MOL0     H 1453   6.109   7.953   5.462  0.9063 -2.3663 -2.5922
  752MOL0     H 1454   5.857   7.939   5.443 -1.7091  0.8311  0.7979
  752MOL0     H 1455   5.633   7.971   5.395 -0.0271 -0.3836 -1.4748
  752MOL0     H 1456   5.679   8.115   5.503 -3.0476  1.0159  0.6338
  752MOL0     H 1457   5.425   8.114   5.493  0.9627  1.7522  0.0819
  752MOL0     H 1458   5.438   8.040   5.340 -1.1859  1.0818 -1.4142
  752MOL0     H 1459   5.489   8.233   5.226 -1.0175 -2.3496 -0.0519
  752MOL0     H 1460   5.528   8.327   5.370  1.2288  0.7712 -2.7538
  752MOL0     H 1461   5.253   8.227   5.278  2.1901  0.2529 -2.0538
  752MOL0     H 1462   5.266   8.294   5.442  1.0476  4.0023  0.8667
  752MOL0     H 1463   5.340   8.518   5.341 -1.7461  3.1292 -2.2313
  752MOL0     H 1464   5.331   8.456   5.183  0.9361  0.5268  1.0849
  752MOL0     H 1465   5.064   8.430   5.252  0.4915 -1.5650  0.1193
  752MOL0     H 1466   5.098   8.469   5.406 -1.4012  2.9421 -0.4043
  752MOL0     H 1467   5.191   8.698   5.323  0.0212  1.5116 -3.2593
  752MOL0     H 1468   5.016   8.675   5.312 -0.9324 -1.2421  1.5172
  752MOL0     H 1469   5.227   8.671   5.099 -0.6578  0.0416  0.9854
  752MOL0     H 1470   5.073   8.576   5.071 -1.6736 -1.3567  2.1755
  752MOL0     H 1471   4.846   8.768   5.104 -1.1269  1.6921  1.5363
  752MOL0     H 1472   4.826   9.100   4.965  2.5885  0.5608  1.4510
  752MOL0     H 1473   4.714   8.990   5.057  0.4254 -0.7943 -0.2836
  752MOL0     H 1474   4.763   9.120   5.262 -2.5274  1.3555  0.2637
  752MOL0     H 1475   4.901   9.201   5.187  0.4548 -3.2124  2.7809
  752MOL0     H 1476   4.594   9.244   5.107  0.7432 -0.9950 -1.7895
  752MOL0     H 1477   4.732   9.312   5.028 -0.7311 -0.3258 -1.0288
  752MOL0     H 1478   4.805   9.419   5.232 -1.1796  0.6343  2.1742
  752MOL0     H 1479   4.676   9.382   5.322  1.9546  2.3163  0.6540
  752MOL0     H 1480   4.536   9.601   4.943 -0.6836  1.7435  0.0957
  752MOL0     H 1481   4.623   9.808   4.836 -1.9522  1.3456  0.6545
  752MOL0     H 1482   5.075  10.037   4.750 -0.4876 -1.5085  3.1514
  752MOL0     H 1483   5.214  10.234   4.667  1.3118  1.5606  1.1518
  752MOL0     H 1484   5.060  10.629   4.771  0.9695  1.0475 -0.4268
  752MOL0     H 1485   5.189  10.638   4.876 -0.4159 -1.8523  0.5809
  752MOL0     H 1486   5.195  10.662   4.566  0.5204  0.6716 -0.8711
  752MOL0     H 1487   5.210  10.788   4.704 -2.6708 -1.6565  2.8862
  752MOL0     H 1488   5.417  10.714   4.756  1.0924  0.2310  0.1790
  752MOL0     H 1489   5.413  10.574   4.645  0.2650  1.0077 -5.0287
  752MOL0     H 1490   5.373  10.840   4.517 -0.4932 -0.8437 -4.9365
  752MOL0     H 1491   5.416  10.696   4.440 -0.1729  2.2591 -0.6412
  752MOL0     H 1492   5.647  10.692   4.549 -0.3934 -0.9416  0.5954
  752MOL0     H 1493   5.604  10.844   4.637 -1.5244 -0.5313 -0.4124
  752MOL0     H 1494   5.605  10.786   4.341  1.4578 -0.3648 -1.3140
  752MOL0     H 1495   5.567  10.943   4.418 -4.1700 -3.2329 -2.0591
  752MOL0     H 1496   5.838  10.801   4.475 -0.0924 -1.3554 -0.8681
  752MOL0     H 1497   5.788  10.959   4.519  1.8168  0.4890 -1.1453
  752MOL0     H 1498   5.831  10.862   4.222  0.5989 -2.0811  2.3139
  752MOL0     H 1499   5.754  11.013   4.263  0.5641 -0.7812 -2.3798
  752MOL0     H 1500   5.035  10.478   4.962  0.3987 -0.2231  0.6284
  752MOL0     H 1501   4.890  10.281   5.040  0.0782 -1.3015 -0.5645
  752MOL0     H 1502   4.876   9.865   5.167 -1.8945  0.5425  0.2945
  752MOL0     H 1503   4.813   9.643   5.252 -1.2271 -1.1853 -0.0272
  752MOL0     H 1504   5.871   8.312   5.213 -0.6238 -0.0541 -0.1024
  752MOL0     H 1505   6.110   8.335   5.268 -0.5007 -0.5823 -2.0543
  752MOL0     H 1506   6.483   8.049   5.479  2.0537 -1.4775  1.4005
  752MOL0     H 1507   6.723   8.071   5.487  0.4986  0.3770 -0.4178
  752MOL0     H 1508   6.903   8.379   5.353 -1.8782  0.1044  1.2408
  752MOL0     H 1509   6.875   8.212   5.334 -1.6927  0.8608 -1.1868
  752MOL0     H 1510   7.132   8.329   5.454  0.9903 -0.7071  0.2807
  752MOL0     H 1511   7.109   8.267   5.285  0.5123 -0.0685 -0.4134
  752MOL0     H 1512   7.050   8.099   5.523 -1.3001 -0.1320 -0.6207
  752MOL0     H 1513   7.219   8.123   5.477 -0.4305 -0.3697 -0.2029
  752MOL0     H 1514   7.098   7.907   5.395 -0.9046 -0.8346 -1.7607
  752MOL0     H 1515   6.997   8.005   5.301 -1.0246 -1.2744  3.2001
  752MOL0     H 1516   7.360   7.977   5.070  1.8387  1.3834  0.2458
  752MOL0     H 1517   6.695   8.489   5.551  0.0141 -0.6021  1.9196
  752MOL0     H 1518   6.356   8.533   5.578  0.6777  3.3801  1.2712
  752MOL0     H 1519   6.501   8.601   5.544  3.1778 -2.9659  1.0133
  752MOL0     H 1520   6.400   8.532   5.404  0.9390 -1.0773 -0.3300
  753MOL0     O 1521   3.268   0.869   9.979 -0.2505 -0.3716  0.5324
  753MOL0     C 1522   3.207   0.863  10.088  0.2624  0.2717  0.4953
  753MOL0     O 1523   3.271   0.851  10.209  0.4840 -0.0602 -0.0144
  753MOL0     C 1524   3.395   0.797  10.208  0.2617  0.1416  0.8780
  753MOL0     C 1525   3.516   0.866  10.201 -1.3263 -0.4454 -0.7081
  753MOL0     C 1526   3.639   0.800  10.218  0.0664 -0.0558 -0.4313
  753MOL0     C 1527   3.641   0.666  10.243 -1.0670 -0.2157  0.1430
  753MOL0     O 1528   3.772   0.621  10.227 -0.0008 -0.8578 -0.3737
  753MOL0     C 1529   3.803   0.493  10.283  0.3153  0.1681 -0.4815
  753MOL0     C 1530   3.944   0.485  10.321 -0.0067 -0.4777  0.0585
  753MOL0     C 1531   4.055   0.523  10.227 -0.6880  0.3173  0.4330
  753MOL0     C 1532   4.075   0.431  10.103  0.3625 -0.2148  0.9141
  753MOL0     C 1533   4.228   0.400  10.081  0.1232  0.2951  0.1551
  753MOL0     C 1534   4.292   0.525  10.028  0.0824 -0.3518  0.5704
  753MOL0     C 1535   4.441   0.487  10.007 -0.4814  0.0253 -0.4428
  753MOL0     C 1536   4.515   0.605   9.936  0.7381 -0.1410 -0.1149
  753MOL0     N 1537   4.660   0.598   9.950 -0.0702  0.2420 -0.0014
  753MOL0     C 1538   4.744   0.500   9.893 -0.7392 -1.5475 -1.1964
  753MOL0     C 1539   4.867   0.533   9.951 -0.5046 -0.1996  0.7380
  753MOL0     C 1540   4.995   0.453   9.947 -0.0005 -0.6012 -0.1093
  753MOL0     C 1541   5.096   0.530   9.862  0.9026 -0.2825 -0.0008
  753MOL0     C 1542   5.167   0.646   9.944  0.0400 -0.1646 -0.6159
  753MOL0     C 1543   5.248   0.598  10.066 -0.6646 -0.0646  0.0312
  753MOL0     O 1544   5.321   0.700  10.130  0.4895 -0.4423 -0.3455
  753MOL0     C 1545   5.461   0.708  10.117 -0.5489  0.0447  0.6288
  753MOL0     C 1546   5.550   0.753  10.223  0.3725  0.5367 -0.1866
  753MOL0     C 1547   5.687   0.755  10.195 -0.0741  0.6827  0.1707
  753MOL0     C 1548   5.740   0.744  10.065 -0.4370  0.1150  0.3848
  753MOL0     C 1549   5.873   0.796  10.040 -0.9168 -0.6316  0.4411
  753MOL0     O 1550   5.928   0.887  10.137  0.5145  0.4993  0.2296
  753MOL0     C 1551   6.065   0.924  10.137  0.3545 -0.5536  0.4094
  753MOL0     C 1552   6.101   1.043  10.204  0.3767 -0.5680 -0.4268
  753MOL0     C 1553   6.238   1.080  10.221 -0.1809  0.5951 -0.4844
  753MOL0     C 1554   6.335   0.991  10.185  0.1386  0.2559 -0.4106
  753MOL0     O 1555   6.465   1.033  10.221  0.1034  0.0180  0.5152
  753MOL0     C 1556   6.565   0.925  10.212  0.0839  0.0507 -0.6675
  753MOL0     C 1557   6.703   0.969  10.274 -0.1761  0.5277  0.5316
  753MOL0     C 1558   6.769   1.072  10.186  0.1021  0.2923 -0.6043
  753MOL0     C 1559   6.837   1.176  10.281  0.1066 -0.5890 -0.1999
  753MOL0     C 1560   6.867   1.307  10.212  0.5889 -0.1974 -0.1999
  753MOL0     C 1561   6.736   1.382  10.170  0.5608 -1.0562  0.8732
  753MOL0     C 1562   6.638   1.455  10.271  0.3995  0.6950  0.0256
  753MOL0     C 1563   6.709   1.574  10.334 -0.4840 -0.2302 -0.4375
  753MOL0    Cl 1564   6.600   1.656  10.435  0.0766 -0.0005 -0.4946
  753MOL0     C 1565   6.297   0.869  10.123  0.8519  0.8756 -0.4006
  753MOL0     C 1566   6.167   0.839  10.100  0.2434  0.1662  1.3365
  753MOL0     O 1567   5.930   0.775   9.933  0.4602 -0.4578 -0.0918
  753MOL0     C 1568   5.656   0.691   9.961 -0.4171  0.2592 -0.2481
  753MOL0     C 1569   5.525   0.669   9.992  1.0070 -0.0145 -0.8390
  753MOL0     N 1570   4.856   0.642  10.030  0.1102  0.2336 -0.1077
  753MOL0     N 1571   4.729   0.673  10.035 -0.1218 -0.2227 -0.4366
  753MOL0     C 1572   3.520   0.595  10.225 -0.6071  0.5320  0.1965
  753MOL0     C 1573   3.400   0.661  10.219  0.6859  0.2294 -0.0701
  753MOL0     C 1574   3.068   0.915  10.065  0.9854 -0.1806  0.2732
  753MOL0     C 1575   3.015   0.941   9.935  1.7537 -0.3153 -0.4001
  753MOL0     C 1576   2.882   0.993   9.917  1.0949 -0.4219 -0.9783
  753MOL0     C 1577   2.801   1.019  10.026  0.6739  0.2391  0.7408
  753MOL0     O 1578   2.665   1.054   9.999 -0.7599 -0.3515 -0.0991
  753MOL0     C 1579   2.578   0.940  10.004  0.0571 -0.4160 -0.3850
  753MOL0     C 1580   2.449   0.987  10.087  0.9371  0.0639  0.6576
  753MOL0     C 1581   2.488   1.021  10.227 -0.1293 -0.3178  0.7445
  753MOL0     C 1582   2.366   1.014  10.321  0.2022  0.4104 -0.7693
  753MOL0     C 1583   2.288   1.133  10.291  0.2009 -0.0027  0.4688
  753MOL0     C 1584   2.217   1.236  10.277  0.2541  0.4703 -0.4056
  753MOL0     C 1585   2.851   0.987  10.153  0.8173  0.1118  0.1068
  753MOL0     C 1586   2.984   0.950  10.173  0.3065  0.9318 -0.3915
  753MOL0     C 1587   3.024   0.935  10.320 -0.4293  0.2901 -0.1334
  753MOL0     H 1588   3.503   0.971  10.177 -3.8867 -0.2759  1.0730
  753MOL0     H 1589   3.725   0.865  10.208  0.8596 -0.5547  2.3247
  753MOL0     H 1590   3.739   0.476  10.371 -1.5571  1.2343 -1.5683
  753MOL0     H 1591   3.780   0.415  10.211  1.2499 -0.7999  0.2435
  753MOL0     H 1592   3.973   0.382  10.346 -0.4761 -1.6481 -3.5931
  753MOL0     H 1593   3.971   0.542  10.411  0.8560 -0.9953  0.1446
  753MOL0     H 1594   4.147   0.515  10.286 -0.6056  1.5518  0.4914
  753MOL0     H 1595   4.052   0.628  10.197 -3.0425  0.6217  1.5013
  753MOL0     H 1596   4.017   0.341  10.126  1.2705 -1.3210 -0.8570
  753MOL0     H 1597   4.032   0.473  10.012  2.3869  1.7892  0.7968
  753MOL0     H 1598   4.272   0.364  10.174 -0.2863  0.2918  0.3515
  753MOL0     H 1599   4.234   0.316  10.012  1.5784  1.2072 -0.8810
  753MOL0     H 1600   4.254   0.550   9.929  0.3342  0.1913  0.6061
  753MOL0     H 1601   4.281   0.606  10.101  0.9046  0.6818 -0.4104
  753MOL0     H 1602   4.461   0.388   9.964  0.5949 -0.4915  1.1368
  753MOL0     H 1603   4.477   0.478  10.110 -1.5060 -0.2987 -0.1006
  753MOL0     H 1604   4.485   0.616   9.831 -1.8158  1.4184  0.7071
  753MOL0     H 1605   4.492   0.703   9.978  2.1146  0.0398  0.2840
  753MOL0     H 1606   4.726   0.415   9.828 -1.6756 -0.8477 -1.8926
  753MOL0     H 1607   5.041   0.437  10.044  0.6887 -0.1329 -0.3542
  753MOL0     H 1608   4.976   0.356   9.898 -0.4727 -1.4830  1.7506
  753MOL0     H 1609   5.171   0.463   9.819 -0.3422 -0.4111 -2.0870
  753MOL0     H 1610   5.056   0.577   9.772 -0.2545 -1.3655 -0.0796
  753MOL0     H 1611   5.098   0.720   9.985 -1.9923 -0.5218 -3.1925
  753MOL0     H 1612   5.234   0.688   9.868  2.3021 -1.9005  0.2692
  753MOL0     H 1613   5.309   0.515  10.030 -3.7472 -1.6672 -1.8937
  753MOL0     H 1614   5.189   0.562  10.151 -0.9525 -3.7145 -1.5546
  753MOL0     H 1615   5.513   0.768  10.324 -2.9617  0.6664 -1.2942
  753MOL0     H 1616   5.749   0.791  10.276 -1.5137  2.5808  0.5042
  753MOL0     H 1617   6.027   1.090  10.269  0.1294 -1.0883 -0.3239
  753MOL0     H 1618   6.265   1.174  10.268  0.5805 -0.1788  0.6807
  753MOL0     H 1619   6.520   0.844  10.269 -1.5460 -0.9337 -3.1564
  753MOL0     H 1620   6.571   0.889  10.109 -2.2458 -2.3297 -0.0745
  753MOL0     H 1621   6.697   1.000  10.378 -0.3109 -1.3128  1.1156
  753MOL0     H 1622   6.769   0.882  10.285 -1.3970 -0.3076  1.5060
  753MOL0     H 1623   6.851   1.027  10.129 -0.3220  0.1418 -1.1006
  753MOL0     H 1624   6.703   1.118  10.113  1.8945  2.3969 -0.9976
  753MOL0     H 1625   6.929   1.140  10.328  0.5151 -0.9954 -1.2684
  753MOL0     H 1626   6.775   1.210  10.364  0.0410  1.3676 -0.9971
  753MOL0     H 1627   6.904   1.290  10.110 -3.0174 -0.4029 -1.6182
  753MOL0     H 1628   6.929   1.373  10.273 -0.1121 -2.0971  2.7411
  753MOL0     H 1629   6.774   1.452  10.096  0.0836 -1.4753  0.2200
  753MOL0     H 1630   6.673   1.319  10.107  1.6146  1.2252 -2.7438
  753MOL0     H 1631   6.588   1.389  10.343 -0.1999  2.8098  1.6519
  753MOL0     H 1632   6.559   1.489  10.204 -0.0303 -1.3654 -0.5951
  753MOL0     H 1633   6.805   1.550  10.382  2.1879  4.2904 -2.8538
  753MOL0     H 1634   6.742   1.644  10.256  2.2435  2.5991  2.9084
  753MOL0     H 1635   6.379   0.801  10.101 -0.4411 -0.6476 -0.7105
  753MOL0     H 1636   6.139   0.740  10.067  1.0873  0.7610 -1.4523
  753MOL0     H 1637   5.709   0.666   9.869  3.4706  0.4441  1.7477
  753MOL0     H 1638   5.471   0.621   9.911  1.9065 -0.6243 -1.0885
  753MOL0     H 1639   3.522   0.487  10.236  1.9544  0.5957  0.9938
  753MOL0     H 1640   3.308   0.603  10.212 -1.0550  2.2766  3.0310
  753MOL0     H 1641   3.069   0.899   9.850 -0.5709 -1.9089 -1.2174
  753MOL0     H 1642   2.840   0.993   9.817 -0.3359  0.7668 -0.4078
  753MOL0     H 1643   2.628   0.864  10.065 -3.4982 -0.4466  2.8583
  753MOL0     H 1644   2.540   0.911   9.905  0.3339 -0.8828 -0.3528
  753MOL0     H 1645   2.377   0.906  10.093  0.2726  0.3182 -2.3252
  753MOL0     H 1646   2.406   1.073  10.034 -0.5355 -1.6636 -1.1217
  753MOL0     H 1647   2.533   1.121  10.230  0.8835 -0.7680  1.2287
  753MOL0     H 1648   2.565   0.950  10.259  2.4447  0.4600 -3.0742
  753MOL0     H 1649   2.306   0.926  10.295 -0.4051  1.1181 -1.8290
  753MOL0     H 1650   2.396   1.012  10.427  2.1496  1.6438 -1.2536
  753MOL0     H 1651   2.174   1.334  10.269 -1.0991 -0.1267 -0.5682
  753MOL0     H 1652   2.783   0.986  10.237 -0.8362 -1.2115 -1.1705
  753MOL0     H 1653   3.022   0.827  10.336  0.7241  0.0862 -1.1911
  753MOL0     H 1654   3.129   0.964  10.330  0.7357 -3.0017 -1.5980
  753MOL0     H 1655   2.964   0.993  10.391  0.0631  3.2797 -1.9754
  754MOL0     O 1656   5.711   4.277   1.705  0.3413  0.1083  0.2110
  754MOL0     C 1657   5.720   4.398   1.707  0.2499 -0.3101  0.0791
  754MOL0     O 1658   5.615   4.473   1.717 -0.4853 -0.1411  0.1931
  754MOL0     C 1659   5.503   4.401   1.758  0.1162 -0.1162 -0.3290
  754MOL0     C 1660   5.417   4.365   1.658 -0.1486 -0.9871  0.6369
  754MOL0     C 1661   5.318   4.269   1.681  0.1902 -0.7248  0.0269
  754MOL0     C 1662   5.295   4.216   1.812  0.5423  0.2208 -0.1547
  754MOL0     O 1663   5.179   4.133   1.824 -0.1691 -0.5758 -0.1928
  754MOL0     C 1664   5.123   4.126   1.953  0.8589  0.2067 -0.5143
  754MOL0     C 1665   4.988   4.042   1.962 -0.6552  0.4760  0.9778
  754MOL0     C 1666   5.023   3.892   1.994 -0.0484  0.1188  0.2977
  754MOL0     C 1667   5.078   3.813   1.868 -0.0043 -0.1435  0.2938
  754MOL0     C 1668   5.115   3.662   1.900  0.0222  0.0649 -0.3322
  754MOL0     C 1669   5.182   3.572   1.791  0.9957 -0.1323  0.2324
  754MOL0     C 1670   5.301   3.632   1.713  0.3513 -0.4634  0.2112
  754MOL0     C 1671   5.437   3.632   1.786  1.0327 -0.0404  0.2529
  754MOL0     N 1672   5.556   3.646   1.699  0.3145  0.8022 -0.7310
  754MOL0     C 1673   5.603   3.761   1.644 -0.9515  0.1072 -0.9338
  754MOL0     C 1674   5.702   3.727   1.557  0.9301 -0.1762 -1.0606
  754MOL0     C 1675   5.775   3.830   1.477 -0.0140  0.3867 -0.6207
  754MOL0     C 1676   5.922   3.800   1.460 -0.1233 -0.9825  0.1507
  754MOL0     C 1677   5.975   3.878   1.337  0.2657  0.1307  0.1093
  754MOL0     C 1678   6.130   3.889   1.348  0.2175 -0.4968  0.6756
  754MOL0     O 1679   6.152   3.989   1.448 -0.5882  1.3138 -0.1096
  754MOL0     C 1680   6.283   3.999   1.506  0.2674 -0.1053  1.0917
  754MOL0     C 1681   6.398   3.944   1.445 -0.0365  0.3493 -0.1012
  754MOL0     C 1682   6.521   3.946   1.490  0.1430 -0.2220 -0.1559
  754MOL0     C 1683   6.548   4.020   1.603 -0.0670 -0.1025  0.3440
  754MOL0     C 1684   6.682   4.031   1.658 -0.3443  0.0901  0.3133
  754MOL0     O 1685   6.782   4.035   1.562 -0.3301 -0.2754  0.2992
  754MOL0     C 1686   6.916   4.035   1.606  0.1461 -0.6242 -0.3109
  754MOL0     C 1687   7.014   4.122   1.548  0.2101  0.1966 -0.6018
  754MOL0     C 1688   7.149   4.124   1.594 -0.2262 -0.7106 -0.0026
  754MOL0     C 1689   7.195   4.039   1.694  0.4392 -0.0637  0.1429
  754MOL0     O 1690   7.325   4.039   1.734  0.3330 -0.4555  0.0391
  754MOL0     C 1691   7.422   4.016   1.634  0.2465  0.2586  0.6043
  754MOL0     C 1692   7.560   4.023   1.687 -0.5114 -0.5462 -0.0791
  754MOL0     C 1693   7.608   4.152   1.752 -0.4673  0.1121  0.2858
  754MOL0     C 1694   7.639   4.269   1.660  0.6910 -0.0607 -0.2960
  754MOL0     C 1695   7.683   4.396   1.725 -0.3530 -0.1032  1.2616
  754MOL0     C 1696   7.707   4.511   1.617  0.2969  1.4420  0.6587
  754MOL0     C 1697   7.772   4.644   1.665 -0.4074 -0.6350 -0.0802
  754MOL0     C 1698   7.900   4.625   1.725  0.4056  0.0403 -0.4517
  754MOL0    Cl 1699   8.020   4.591   1.608  0.0319 -0.0302  0.3680
  754MOL0     C 1700   7.099   3.951   1.748  0.1618  0.3632  0.1943
  754MOL0     C 1701   6.963   3.948   1.706  0.0457  0.7207  0.1097
  754MOL0     O 1702   6.689   4.052   1.784 -0.2094 -0.0286  0.0098
  754MOL0     C 1703   6.441   4.081   1.680  0.4158  0.7980  0.4220
  754MOL0     C 1704   6.313   4.060   1.627 -0.2945 -0.0827  0.7793
  754MOL0     N 1705   5.716   3.591   1.570 -0.8398 -0.5978 -0.3303
  754MOL0     N 1706   5.640   3.548   1.663  0.3027  0.2221  0.2753
  754MOL0     C 1707   5.378   4.254   1.917 -0.4752  0.1541  0.7940
  754MOL0     C 1708   5.487   4.344   1.881 -0.2877 -1.3268  0.2866
  754MOL0     C 1709   5.847   4.462   1.694 -0.5586 -0.1331  0.6626
  754MOL0     C 1710   5.968   4.398   1.730  0.5140  1.2151 -0.0536
  754MOL0     C 1711   6.092   4.471   1.717  0.2164  0.9759 -0.7180
  754MOL0     C 1712   6.097   4.595   1.671  0.4690 -0.9700 -0.2350
  754MOL0     O 1713   6.222   4.652   1.651  0.1608  0.2718 -0.0903
  754MOL0     C 1714   6.231   4.772   1.581  0.0456  0.0783  0.0483
  754MOL0     C 1715   6.376   4.814   1.594  0.3053 -0.7580  0.2863
  754MOL0     C 1716   6.458   4.699   1.527  0.0074 -0.2320  0.0273
  754MOL0     C 1717   6.597   4.754   1.506  0.4064 -0.4458  0.3976
  754MOL0     C 1718   6.600   4.879   1.421 -0.1770  0.3633  0.8566
  754MOL0     C 1719   6.612   4.981   1.364 -0.0470  0.6050  0.2448
  754MOL0     C 1720   5.972   4.655   1.630 -0.1526 -0.0273  1.3766
  754MOL0     C 1721   5.853   4.596   1.641  0.2206  0.6949 -0.1255
  754MOL0     C 1722   5.734   4.677   1.584  0.9789 -1.2698  0.4677
  754MOL0     H 1723   5.419   4.416   1.562 -1.1405 -2.8653 -0.4308
  754MOL0     H 1724   5.246   4.239   1.605 -0.6863  0.8170  0.2014
  754MOL0     H 1725   5.195   4.079   2.021  0.1617 -0.1102  0.0200
  754MOL0     H 1726   5.098   4.228   1.983  0.5331 -0.3309  1.1318
  754MOL0     H 1727   4.932   4.039   1.868 -1.0195 -1.3082  1.2080
  754MOL0     H 1728   4.918   4.080   2.037  0.1211  0.8289  1.5326
  754MOL0     H 1729   4.933   3.839   2.027 -1.1979 -0.1719 -2.9208
  754MOL0     H 1730   5.095   3.900   2.075  1.2698  3.5918 -0.9930
  754MOL0     H 1731   5.001   3.800   1.791 -1.0395 -0.9063  1.4200
  754MOL0     H 1732   5.171   3.860   1.836 -0.6474  1.3828  0.5580
  754MOL0     H 1733   5.186   3.665   1.983 -1.5343 -1.7563  1.1660
  754MOL0     H 1734   5.020   3.615   1.927  0.4108 -0.0515  0.8879
  754MOL0     H 1735   5.219   3.477   1.830  0.4692  0.7318  3.0412
  754MOL0     H 1736   5.104   3.533   1.724  2.8576 -2.9021 -0.5144
  754MOL0     H 1737   5.279   3.738   1.698  0.7412  0.2681  3.8301
  754MOL0     H 1738   5.306   3.594   1.611 -1.6693 -2.7046  0.8328
  754MOL0     H 1739   5.446   3.708   1.864 -0.6749 -0.2454  0.6870
  754MOL0     H 1740   5.436   3.531   1.830 -2.6206 -1.5859 -2.7835
  754MOL0     H 1741   5.571   3.863   1.663 -2.7833 -0.2277 -2.0180
  754MOL0     H 1742   5.731   3.840   1.378  2.2103 -3.9793 -2.3355
  754MOL0     H 1743   5.764   3.926   1.527 -1.0798  0.9650 -1.9033
  754MOL0     H 1744   5.974   3.834   1.550 -2.5356  3.0530  0.2703
  754MOL0     H 1745   5.944   3.693   1.448 -1.0880 -1.1232 -0.5425
  754MOL0     H 1746   5.920   3.972   1.329  0.1694  0.3561  2.4889
  754MOL0     H 1747   5.954   3.813   1.252  3.1088 -0.7072 -0.0529
  754MOL0     H 1748   6.160   3.934   1.252 -3.2793 -1.7809 -1.2144
  754MOL0     H 1749   6.178   3.796   1.377  2.3062  0.4530  0.4223
  754MOL0     H 1750   6.378   3.888   1.354  1.5560  0.7699 -0.7406
  754MOL0     H 1751   6.599   3.883   1.449 -3.0784 -4.4936 -0.4476
  754MOL0     H 1752   6.973   4.175   1.463  0.0447  0.5268 -0.3221
  754MOL0     H 1753   7.224   4.194   1.556  2.5327 -1.9983  2.6177
  754MOL0     H 1754   7.417   3.914   1.596  2.3079  0.4835 -0.3989
  754MOL0     H 1755   7.418   4.082   1.547  2.7543 -3.0341 -2.2334
  754MOL0     H 1756   7.588   3.937   1.748 -0.6792  1.1807  2.6196
  754MOL0     H 1757   7.628   4.018   1.601  1.5486  1.0705  1.3584
  754MOL0     H 1758   7.531   4.201   1.812 -1.9716 -2.1170  0.2580
  754MOL0     H 1759   7.699   4.130   1.807  0.0888 -0.4502 -0.8249
  754MOL0     H 1760   7.549   4.300   1.605 -1.2796 -0.8167  2.3287
  754MOL0     H 1761   7.710   4.248   1.580 -0.3483  1.9168 -1.8444
  754MOL0     H 1762   7.777   4.368   1.773  0.7916 -4.2173 -2.7317
  754MOL0     H 1763   7.614   4.436   1.801  1.3300  0.1400  2.7184
  754MOL0     H 1764   7.767   4.476   1.533  0.9032 -0.1860  1.7267
  754MOL0     H 1765   7.612   4.552   1.580  1.5459  3.1274 -0.8675
  754MOL0     H 1766   7.709   4.680   1.747 -0.4595  1.3865 -0.9491
  754MOL0     H 1767   7.770   4.723   1.590 -1.4981 -0.8254 -0.2743
  754MOL0     H 1768   7.921   4.722   1.772  0.6046  0.0344 -0.5273
  754MOL0     H 1769   7.897   4.547   1.801  1.0130 -0.2893 -0.7619
  754MOL0     H 1770   7.129   3.880   1.825  0.3892  0.4978  0.2293
  754MOL0     H 1771   6.893   3.888   1.762  0.9410  0.7268  1.2647
  754MOL0     H 1772   6.459   4.131   1.774  1.0380 -1.4345  1.5524
  754MOL0     H 1773   6.227   4.107   1.672 -0.7357  0.0780 -0.2041
  754MOL0     H 1774   5.357   4.222   2.019  0.2807  1.0853  1.2650
  754MOL0     H 1775   5.562   4.364   1.957 -0.2059 -1.4402  0.2346
  754MOL0     H 1776   5.984   4.294   1.759  0.2799  0.1932 -3.1820
  754MOL0     H 1777   6.181   4.416   1.744  0.5194  1.1367 -1.3751
  754MOL0     H 1778   6.159   4.847   1.616 -1.1951 -0.4521 -1.2587
  754MOL0     H 1779   6.207   4.756   1.475  0.3419 -0.8821  0.1205
  754MOL0     H 1780   6.407   4.831   1.698 -0.9531 -1.1218  0.7453
  754MOL0     H 1781   6.384   4.910   1.542 -3.5112 -0.5537 -0.2296
  754MOL0     H 1782   6.417   4.667   1.430  0.2607  0.1244 -0.1970
  754MOL0     H 1783   6.453   4.608   1.589 -2.0210 -0.7286 -0.7761
  754MOL0     H 1784   6.633   4.782   1.606  0.7413  1.1564 -0.1455
  754MOL0     H 1785   6.666   4.679   1.467  2.1095  1.9485 -1.4757
  754MOL0     H 1786   6.608   5.075   1.312  0.0875  0.6655  0.3435
  754MOL0     H 1787   5.980   4.753   1.585  0.5547 -0.3005  0.8846
  754MOL0     H 1788   5.774   4.775   1.558  1.6329 -2.0568 -1.6800
  754MOL0     H 1789   5.693   4.641   1.490 -0.9507  1.5604  0.1029
  754MOL0     H 1790   5.649   4.695   1.650  0.6121 -1.7535  0.1357
  755MOL0     O 1791   7.367   9.284   1.369  1.2326 -0.0377  0.5139
  755MOL0     C 1792   7.320   9.371   1.442  0.4949 -0.1695  0.3592
  755MOL0     O 1793   7.192   9.420   1.441 -0.0915 -0.7137 -0.0038
  755MOL0     C 1794   7.080   9.342   1.420  0.1707 -0.0848  0.1725
  755MOL0     C 1795   7.078   9.202   1.396 -0.6144  0.7696 -0.3646
  755MOL0     C 1796   6.957   9.142   1.359 -0.8485  0.6221  0.2721
  755MOL0     C 1797   6.839   9.214   1.360 -0.3822 -0.7053  0.4126
  755MOL0     O 1798   6.727   9.149   1.334 -0.1651  0.4304  0.2203
  755MOL0     C 1799   6.613   9.199   1.278  0.1795 -0.3524  0.6998
  755MOL0     C 1800   6.518   9.201   1.394  0.4698 -0.6628 -0.2635
  755MOL0     C 1801   6.467   9.062   1.438 -0.1259 -0.2726  0.2171
  755MOL0     C 1802   6.384   9.064   1.564 -0.7936  0.2023  0.1374
  755MOL0     C 1803   6.457   9.114   1.688 -0.3328  0.4231 -0.2440
  755MOL0     C 1804   6.361   9.077   1.807 -0.4261  0.3288  0.7553
  755MOL0     C 1805   6.422   9.121   1.940 -0.2410 -0.3462 -1.3184
  755MOL0     C 1806   6.535   9.030   1.990 -0.0352 -0.2777  0.0335
  755MOL0     N 1807   6.581   9.061   2.124 -0.7153 -0.7713  0.1772
  755MOL0     C 1808   6.646   8.969   2.211  0.4687  0.2916 -0.2392
  755MOL0     C 1809   6.714   9.049   2.298  0.5486 -0.9149  0.5266
  755MOL0     C 1810   6.816   9.004   2.397 -0.5286 -0.0596  0.0336
  755MOL0     C 1811   6.758   8.885   2.485  0.4626 -0.2666  0.1842
  755MOL0     C 1812   6.769   8.911   2.636  0.3865  0.3408  0.0512
  755MOL0     C 1813   6.911   8.867   2.687 -0.3434 -0.4977 -0.2610
  755MOL0     O 1814   6.934   8.728   2.668  0.6198  0.6233  0.2494
  755MOL0     C 1815   7.060   8.673   2.643 -0.8192 -0.2686 -0.9636
  755MOL0     C 1816   7.108   8.671   2.515  0.7717  0.1935  0.6770
  755MOL0     C 1817   7.234   8.624   2.489 -0.1378 -1.1948 -0.8755
  755MOL0     C 1818   7.319   8.574   2.595 -0.0558  0.3685  0.6005
  755MOL0     C 1819   7.457   8.521   2.572 -0.4664  0.8695  1.3340
  755MOL0     O 1820   7.521   8.476   2.683 -0.3663  1.0231  0.2967
  755MOL0     C 1821   7.639   8.403   2.676 -0.8460 -0.1868  0.4458
  755MOL0     C 1822   7.744   8.449   2.754  0.0747 -0.8408  0.3030
  755MOL0     C 1823   7.872   8.380   2.751  0.1105  0.2785  0.7587
  755MOL0     C 1824   7.891   8.266   2.676  0.4035  0.4639  0.9362
  755MOL0     O 1825   8.020   8.223   2.668  0.5408 -0.0507  0.4664
  755MOL0     C 1826   8.050   8.171   2.536  0.4386  0.3156  0.3958
  755MOL0     C 1827   8.212   8.153   2.542  0.6146  0.3260  0.0361
  755MOL0     C 1828   8.272   8.069   2.439 -0.1745  0.4360  0.8986
  755MOL0     C 1829   8.427   8.065   2.446 -0.6551  0.3901  0.8427
  755MOL0     C 1830   8.497   7.962   2.359  0.8210  0.5064  0.2008
  755MOL0     C 1831   8.484   7.816   2.403  0.0085 -0.1842 -0.6527
  755MOL0     C 1832   8.543   7.725   2.291  0.5943 -0.0832 -1.1150
  755MOL0     C 1833   8.695   7.754   2.291  0.1737 -0.0540 -0.0251
  755MOL0    Cl 1834   8.772   7.639   2.185  0.1128 -0.1903 -0.0118
  755MOL0     C 1835   7.785   8.221   2.597  0.2923  0.0175  0.2120
  755MOL0     C 1836   7.664   8.279   2.599 -0.3394 -0.8036 -0.1404
  755MOL0     O 1837   7.491   8.502   2.455 -0.1449 -0.0778  0.2949
  755MOL0     C 1838   7.259   8.571   2.723 -0.6443 -0.4717  0.4387
  755MOL0     C 1839   7.131   8.611   2.742  0.3207 -0.1897 -0.1572
  755MOL0     N 1840   6.694   9.178   2.272 -0.2106 -0.4073  1.1886
  755MOL0     N 1841   6.598   9.186   2.181 -0.5422 -0.8941  0.2055
  755MOL0     C 1842   6.835   9.352   1.391 -0.1317  0.0928  0.3260
  755MOL0     C 1843   6.956   9.413   1.422 -0.2357  0.5014 -0.2952
  755MOL0     C 1844   7.415   9.438   1.537 -0.0808  0.9382  0.8295
  755MOL0     C 1845   7.378   9.555   1.597 -0.8382  0.2091  0.3925
  755MOL0     C 1846   7.457   9.616   1.689 -1.0636  0.1592 -0.3729
  755MOL0     C 1847   7.589   9.559   1.716  0.2116 -0.6285 -0.8875
  755MOL0     O 1848   7.693   9.617   1.788  0.0462  0.3626 -0.1004
  755MOL0     C 1849   7.663   9.741   1.853  0.3788  0.3931 -0.0435
  755MOL0     C 1850   7.787   9.805   1.921 -0.1908  0.4559  0.1429
  755MOL0     C 1851   7.906   9.800   1.838 -0.4136 -0.5103 -0.4243
  755MOL0     C 1852   7.896   9.846   1.696  0.0215  0.0663 -0.1168
  755MOL0     C 1853   8.032   9.850   1.642 -0.6816  0.6714 -0.1057
  755MOL0     C 1854   8.152   9.869   1.608  0.2627  0.3025  1.0838
  755MOL0     C 1855   7.637   9.443   1.659  0.7068  0.2678  0.5500
  755MOL0     C 1856   7.544   9.377   1.567 -0.4851 -0.3997  0.0467
  755MOL0     C 1857   7.584   9.237   1.516 -0.6187  0.1158  0.0204
  755MOL0     H 1858   7.173   9.151   1.403 -0.7763  0.1965 -1.9748
  755MOL0     H 1859   6.969   9.038   1.330 -1.3600  0.4277  0.7557
  755MOL0     H 1860   6.613   9.289   1.215 -2.9846 -1.1648 -0.6521
  755MOL0     H 1861   6.577   9.121   1.210 -2.6529  3.0479 -2.1125
  755MOL0     H 1862   6.434   9.270   1.378  1.0624 -0.1760 -1.3171
  755MOL0     H 1863   6.574   9.232   1.483  0.5043 -0.7966 -0.2391
  755MOL0     H 1864   6.549   8.993   1.461 -1.6909 -2.3719 -0.2380
  755MOL0     H 1865   6.407   9.021   1.357 -0.6286  0.9300 -0.0387
  755MOL0     H 1866   6.296   9.123   1.537 -1.9927 -2.0235 -1.1314
  755MOL0     H 1867   6.336   8.968   1.587  2.9616 -1.8403  0.2471
  755MOL0     H 1868   6.559   9.076   1.701 -0.7182  0.1574  2.7784
  755MOL0     H 1869   6.457   9.223   1.678 -2.7599  0.6483  1.4103
  755MOL0     H 1870   6.270   9.135   1.789 -0.4933  0.2236  0.7515
  755MOL0     H 1871   6.348   8.968   1.806  3.4589 -0.3086 -2.1145
  755MOL0     H 1872   6.346   9.127   2.019  0.6124 -2.2217 -0.3135
  755MOL0     H 1873   6.469   9.219   1.931  0.5810 -0.8162 -2.2881
  755MOL0     H 1874   6.489   8.931   1.994  4.0802 -2.3733  2.7803
  755MOL0     H 1875   6.623   9.020   1.926  1.1945  0.4276  1.5263
  755MOL0     H 1876   6.653   8.861   2.204 -0.7918  0.0787  1.1245
  755MOL0     H 1877   6.908   8.975   2.346  0.4725  3.4437 -0.4599
  755MOL0     H 1878   6.834   9.089   2.464 -0.7521 -1.9520  2.6525
  755MOL0     H 1879   6.649   8.888   2.469  0.6814  2.7923 -1.6127
  755MOL0     H 1880   6.796   8.789   2.449  1.6031  1.3085 -3.2896
  755MOL0     H 1881   6.689   8.850   2.679  1.0644  0.9470  2.3101
  755MOL0     H 1882   6.753   9.016   2.663  1.7800  0.1356  1.7706
  755MOL0     H 1883   6.918   8.876   2.795 -2.1599 -2.9696  0.1596
  755MOL0     H 1884   6.985   8.928   2.634  1.0493 -1.3633  0.6364
  755MOL0     H 1885   7.044   8.699   2.431  1.3027  0.9049  0.5022
  755MOL0     H 1886   7.273   8.623   2.387  1.9138  0.6071 -0.2021
  755MOL0     H 1887   7.735   8.541   2.811  0.2006 -1.0490  0.6619
  755MOL0     H 1888   7.964   8.410   2.801  3.1750 -3.3699 -2.0482
  755MOL0     H 1889   8.000   8.076   2.511 -0.4106  0.1836  2.4173
  755MOL0     H 1890   8.025   8.242   2.457 -3.1708 -1.7214 -0.5307
  755MOL0     H 1891   8.257   8.252   2.553  1.4668 -0.1699  1.1947
  755MOL0     H 1892   8.230   8.094   2.632 -0.3929 -0.4493 -0.2506
  755MOL0     H 1893   8.228   7.969   2.441 -0.1111  0.3731 -0.5017
  755MOL0     H 1894   8.240   8.103   2.341 -3.4766 -0.1102  1.6676
  755MOL0     H 1895   8.464   8.071   2.548 -2.4226 -0.8193  1.5995
  755MOL0     H 1896   8.457   8.163   2.408  1.6113 -0.9966 -1.2301
  755MOL0     H 1897   8.598   8.000   2.340  0.0989  1.4502 -1.9447
  755MOL0     H 1898   8.448   7.965   2.262  1.4600 -0.2368 -0.1622
  755MOL0     H 1899   8.542   7.810   2.496 -1.0841 -1.5880 -0.0242
  755MOL0     H 1900   8.378   7.792   2.408 -0.1573  0.6105 -0.0768
  755MOL0     H 1901   8.490   7.744   2.197  1.9520 -2.8709 -2.5328
  755MOL0     H 1902   8.518   7.620   2.308 -2.9722  0.6693 -0.9623
  755MOL0     H 1903   8.704   7.854   2.248 -1.8136  1.2248  2.3008
  755MOL0     H 1904   8.740   7.764   2.390 -1.8391 -0.9465  1.0520
  755MOL0     H 1905   7.806   8.130   2.542  2.5503  2.5824 -3.6532
  755MOL0     H 1906   7.581   8.233   2.547 -1.6930  0.0923  1.1570
  755MOL0     H 1907   7.320   8.551   2.810  1.8127  2.6769 -0.3571
  755MOL0     H 1908   7.087   8.606   2.841  1.5523 -3.8377  0.3509
  755MOL0     H 1909   6.731   9.384   1.400  0.3984  1.6250  1.5047
  755MOL0     H 1910   6.954   9.519   1.446  1.3823  0.6417 -0.7244
  755MOL0     H 1911   7.286   9.599   1.562 -2.0910  0.4085  3.5471
  755MOL0     H 1912   7.415   9.706   1.733  0.5062  1.6884 -1.9023
  755MOL0     H 1913   7.577   9.734   1.920 -1.5122 -2.3256 -2.5220
  755MOL0     H 1914   7.640   9.812   1.773  1.0087 -0.0291 -0.6040
  755MOL0     H 1915   7.810   9.754   2.015 -2.2976  3.5077  2.5148
  755MOL0     H 1916   7.759   9.906   1.950  0.3795 -0.3390  3.8650
  755MOL0     H 1917   7.939   9.696   1.847 -1.2387 -0.6400  1.4249
  755MOL0     H 1918   7.988   9.850   1.890 -0.7983 -0.0355 -0.2702
  755MOL0     H 1919   7.831   9.769   1.651  0.5885 -0.9446  0.7513
  755MOL0     H 1920   7.849   9.944   1.683  3.6441  2.1573  1.2680
  755MOL0     H 1921   8.256   9.892   1.603  0.4067 -0.5149 -0.2636
  755MOL0     H 1922   7.744   9.422   1.663  1.0553  2.0579  2.7010
  755MOL0     H 1923   7.653   9.188   1.585 -0.7148 -0.2973 -0.1737
  755MOL0     H 1924   7.499   9.169   1.533 -0.6978 -0.0005 -0.7811
  755MOL0     H 1925   7.622   9.232   1.413 -0.4171  2.0408 -0.0215
  756MOL0     O 1926   9.009   9.704   9.051  0.1695 -0.4779 -0.2324
  756MOL0     C 1927   9.115   9.670   8.983 -0.8291 -0.3371  0.1664
  756MOL0     O 1928   9.137   9.562   8.914 -0.7596  0.4677 -0.2650
  756MOL0     C 1929   9.066   9.445   8.917  0.4195  0.2424  0.5178
  756MOL0     C 1930   9.124   9.338   8.849  0.3777  0.2077  0.3355
  756MOL0     C 1931   9.058   9.206   8.844 -0.6602 -0.1207 -0.5777
  756MOL0     C 1932   8.928   9.187   8.906 -0.1388 -0.4854 -0.1021
  756MOL0     O 1933   8.876   9.064   8.886 -0.3516 -0.1540 -0.6092
  756MOL0     C 1934   8.764   9.020   8.964 -0.1237 -0.8739 -0.8302
  756MOL0     C 1935   8.699   8.882   8.915  0.7205 -0.5344  0.5239
  756MOL0     C 1936   8.611   8.816   9.023 -0.0369  0.9645  0.1542
  756MOL0     C 1937   8.465   8.844   9.005 -0.7991  0.3281  0.1218
  756MOL0     C 1938   8.372   8.734   9.079  0.3560 -0.6404 -1.1011
  756MOL0     C 1939   8.221   8.763   9.061 -0.1343  0.1125  0.1654
  756MOL0     C 1940   8.147   8.689   9.167  0.2750  1.0711 -1.3263
  756MOL0     C 1941   7.997   8.663   9.122  0.6763  0.3833  0.1790
  756MOL0     N 1942   7.918   8.582   9.218  0.1126 -0.3714  0.0701
  756MOL0     C 1943   7.853   8.458   9.198 -0.4030 -0.7268  0.0463
  756MOL0     C 1944   7.778   8.423   9.303 -0.2913  0.2299 -0.1482
  756MOL0     C 1945   7.676   8.310   9.319 -0.3357  0.2805  0.1736
  756MOL0     C 1946   7.552   8.335   9.231  0.5399 -0.2302  0.4163
  756MOL0     C 1947   7.434   8.245   9.281  0.0656  0.0223  0.5140
  756MOL0     C 1948   7.302   8.278   9.218  1.2569 -0.7083  0.7783
  756MOL0     O 1949   7.200   8.185   9.237 -0.6668 -0.0137 -0.5426
  756MOL0     C 1950   7.071   8.212   9.203  0.4167  0.5450  0.0599
  756MOL0     C 1951   6.975   8.132   9.255  0.0956  0.4464  0.1418
  756MOL0     C 1952   6.837   8.132   9.206 -0.5715  0.0555 -0.0464
  756MOL0     C 1953   6.798   8.224   9.107  0.1043 -0.2398  0.1489
  756MOL0     C 1954   6.663   8.224   9.041 -0.2945 -0.3398 -0.2908
  756MOL0     O 1955   6.584   8.123   9.071 -0.1316  0.4634 -0.2828
  756MOL0     C 1956   6.488   8.090   8.983 -0.1615  0.2758  0.0240
  756MOL0     C 1957   6.521   8.035   8.859  0.3345  1.0689  0.1809
  756MOL0     C 1958   6.417   8.009   8.764 -0.8456  0.2848  0.0637
  756MOL0     C 1959   6.288   8.022   8.802  0.0454  1.0334  0.6026
  756MOL0     O 1960   6.193   7.981   8.713 -0.1968 -0.2999 -0.0826
  756MOL0     C 1961   6.047   7.994   8.743 -0.2639  1.0766  0.4828
  756MOL0     C 1962   5.966   7.897   8.645 -0.0796 -0.2351 -0.4870
  756MOL0     C 1963   5.823   7.870   8.703 -0.6835 -0.2389  0.4247
  756MOL0     C 1964   5.740   7.774   8.615 -0.1043  0.8181  0.7089
  756MOL0     C 1965   5.588   7.769   8.635 -1.3838  0.4291 -0.4793
  756MOL0     C 1966   5.518   7.897   8.595  0.0677  0.1265  0.0216
  756MOL0     C 1967   5.491   7.919   8.449 -0.4248  0.4470 -0.7404
  756MOL0     C 1968   5.407   8.038   8.408 -0.3190 -0.5199 -0.2563
  756MOL0    Cl 1969   5.480   8.181   8.473 -0.1755  0.1358 -0.2462
  756MOL0     C 1970   6.252   8.077   8.925  0.6140 -0.4286  0.1254
  756MOL0     C 1971   6.351   8.110   9.011 -0.2685 -0.1892 -0.2695
  756MOL0     O 1972   6.637   8.317   8.958  0.0963  0.7705  0.1130
  756MOL0     C 1973   6.902   8.309   9.050 -0.4726  0.7437  0.0900
  756MOL0     C 1974   7.033   8.297   9.101 -0.1649 -0.8453  0.0927
  756MOL0     N 1975   7.789   8.532   9.389 -0.0701  0.0517 -0.0409
  756MOL0     N 1976   7.866   8.632   9.334  0.1516  0.3221 -0.3675
  756MOL0     C 1977   8.881   9.290   8.989 -1.0030  0.4481  0.0543
  756MOL0     C 1978   8.946   9.417   8.990 -0.0134  0.4666 -0.1641
  756MOL0     C 1979   9.217   9.768   8.973 -0.2252 -0.0607  0.2661
  756MOL0     C 1980   9.184   9.904   8.966 -0.1270  0.7721 -0.2611
  756MOL0     C 1981   9.276  10.007   8.944  0.1296 -0.3280  0.0414
  756MOL0     C 1982   9.414   9.970   8.944 -0.1735 -0.5957 -0.4051
  756MOL0     O 1983   9.516  10.060   8.931  0.1474 -0.2062  1.0104
  756MOL0     C 1984   9.573  10.105   9.063 -0.0334 -0.6697 -0.0504
  756MOL0     C 1985   9.697  10.186   9.034 -0.5778  0.2384  0.3523
  756MOL0     C 1986   9.666  10.322   8.964  0.3715  0.3069 -0.3903
  756MOL0     C 1987   9.785  10.385   8.900 -0.3432  0.4476 -0.3143
  756MOL0     C 1988   9.813  10.308   8.775  0.1663 -0.5586 -0.3300
  756MOL0     C 1989   9.847  10.257   8.667  0.0730 -0.6102 -0.2884
  756MOL0     C 1990   9.453   9.839   8.967  0.5689  0.2345  0.6258
  756MOL0     C 1991   9.357   9.733   8.969  0.2807 -0.6802 -0.5862
  756MOL0     C 1992   9.416   9.595   8.998  0.8642 -0.1431  1.1785
  756MOL0     H 1993   9.219   9.356   8.799  1.3692 -1.4753  1.5298
  756MOL0     H 1994   9.101   9.123   8.790 -1.5075 -1.2314  0.4077
  756MOL0     H 1995   8.807   9.017   9.064  1.7922  1.1763 -1.4993
  756MOL0     H 1996   8.694   9.104   8.953  3.9332  2.8085 -1.8327
  756MOL0     H 1997   8.770   8.801   8.895 -1.8107 -2.3814 -1.5637
  756MOL0     H 1998   8.640   8.906   8.826  0.8325 -0.8291  0.3703
  756MOL0     H 1999   8.630   8.845   9.126 -2.7966  1.0717  0.7161
  756MOL0     H 2000   8.625   8.707   9.016  3.4063  0.9352  4.0232
  756MOL0     H 2001   8.449   8.945   9.041  0.8813  0.5806  0.2400
  756MOL0     H 2002   8.440   8.841   8.898 -3.0697  0.0827  0.6113
  756MOL0     H 2003   8.390   8.637   9.032  1.3921 -2.0658  1.9453
  756MOL0     H 2004   8.402   8.724   9.184  2.0784 -0.5678 -1.5610
  756MOL0     H 2005   8.206   8.870   9.078 -0.8813  0.1397 -0.6201
  756MOL0     H 2006   8.184   8.750   8.959 -0.9673 -0.8694  0.5764
  756MOL0     H 2007   8.154   8.744   9.261  1.7429  1.7391 -1.8086
  756MOL0     H 2008   8.185   8.587   9.184  0.6579  1.3344 -0.5461
  756MOL0     H 2009   7.948   8.760   9.130 -0.8701 -0.3828  0.3204
  756MOL0     H 2010   7.993   8.617   9.023 -1.3312  0.2280  0.2919
  756MOL0     H 2011   7.876   8.390   9.117 -0.9879 -2.1082  1.0039
  756MOL0     H 2012   7.727   8.218   9.292 -1.6308 -0.5432  0.4672
  756MOL0     H 2013   7.646   8.307   9.424  3.3157 -0.6970  1.3589
  756MOL0     H 2014   7.527   8.441   9.240 -0.3290 -0.3738 -0.2520
  756MOL0     H 2015   7.575   8.328   9.125 -3.3084  2.0011 -0.7233
  756MOL0     H 2016   7.417   8.265   9.387 -0.1220  0.6505  0.3700
  756MOL0     H 2017   7.455   8.138   9.282  3.2467  0.5517 -0.1065
  756MOL0     H 2018   7.331   8.283   9.112  1.7108  1.3427  0.9515
  756MOL0     H 2019   7.267   8.380   9.239  0.0937 -1.2263  1.4097
  756MOL0     H 2020   6.988   8.070   9.343 -4.3848  1.2373  1.6181
  756MOL0     H 2021   6.768   8.054   9.237 -1.2579  0.4723 -0.5023
  756MOL0     H 2022   6.622   8.000   8.841 -0.9709 -1.7379 -2.6065
  756MOL0     H 2023   6.444   7.958   8.672 -2.6205 -0.4297 -0.1033
  756MOL0     H 2024   6.025   7.962   8.845  2.2549 -1.9630  0.2004
  756MOL0     H 2025   6.014   8.099   8.739  0.1036  1.1957  0.5908
  756MOL0     H 2026   5.960   7.940   8.545 -2.6216 -0.8132 -0.6368
  756MOL0     H 2027   6.020   7.802   8.643  0.5435  0.0641  0.8891
  756MOL0     H 2028   5.828   7.834   8.806  5.4823  0.0912  0.6540
  756MOL0     H 2029   5.787   7.972   8.718 -1.2087 -0.5307  1.1827
  756MOL0     H 2030   5.788   7.679   8.639 -0.2862  1.3297  3.3112
  756MOL0     H 2031   5.754   7.798   8.509 -0.7517 -0.4507  0.3148
  756MOL0     H 2032   5.582   7.746   8.741  0.4423 -0.6307 -0.5575
  756MOL0     H 2033   5.549   7.684   8.577 -1.4940  0.2286 -0.1102
  756MOL0     H 2034   5.414   7.876   8.621  0.1817  0.1080  0.4739
  756MOL0     H 2035   5.553   7.982   8.652  2.1508  0.4252 -1.5829
  756MOL0     H 2036   5.451   7.829   8.400 -0.8037 -0.4822  1.1978
  756MOL0     H 2037   5.586   7.936   8.397 -1.0618 -1.5389 -2.7574
  756MOL0     H 2038   5.420   8.048   8.300 -0.1178  3.7301  0.0166
  756MOL0     H 2039   5.303   8.037   8.441 -0.4983 -1.0319 -0.8071
  756MOL0     H 2040   6.149   8.085   8.958  1.6011  1.7019  3.0566
  756MOL0     H 2041   6.329   8.146   9.111 -0.6151 -0.1812 -0.3494
  756MOL0     H 2042   6.892   8.389   8.978  2.4413 -0.2891 -1.6406
  756MOL0     H 2043   7.114   8.356   9.059  1.3416 -1.2199  2.2462
  756MOL0     H 2044   8.779   9.280   9.024 -1.8874 -2.4501 -2.7559
  756MOL0     H 2045   8.894   9.496   9.043 -0.6003  0.4722 -0.7359
  756MOL0     H 2046   9.079   9.929   8.971 -0.5940 -1.2363  2.4035
  756MOL0     H 2047   9.250  10.110   8.924  0.3686  0.1240  1.8386
  756MOL0     H 2048   9.593  10.017   9.125  1.4135  0.4244  1.1132
  756MOL0     H 2049   9.500  10.162   9.120 -1.8377 -0.4088 -2.4808
  756MOL0     H 2050   9.764  10.121   8.977  0.0063 -0.3347  1.6527
  756MOL0     H 2051   9.745  10.209   9.130  0.0314  3.7193 -0.6507
  756MOL0     H 2052   9.620  10.386   9.040 -2.0005 -0.1192 -1.3917
  756MOL0     H 2053   9.585  10.299   8.895 -0.5829 -2.6290  1.5523
  756MOL0     H 2054   9.778  10.492   8.880  1.2655  0.7234  0.4021
  756MOL0     H 2055   9.871  10.368   8.966  0.4254  4.1011 -0.2026
  756MOL0     H 2056   9.891  10.219   8.577  2.2669 -3.5529  1.8308
  756MOL0     H 2057   9.559   9.819   8.976  0.4545 -0.2518  0.9036
  756MOL0     H 2058   9.489   9.558   8.925  0.7800  0.1753  0.9267
  756MOL0     H 2059   9.458   9.600   9.099 -2.9559  0.1815  2.9397
  756MOL0     H 2060   9.343   9.516   9.014  0.6904 -0.3414 -0.4473
  757MOL0     O 2061   7.549   1.462   4.867 -0.2140  0.2861  0.0675
  757MOL0     C 2062   7.496   1.539   4.955 -0.3737  0.7057 -0.0783
  757MOL0     O 2063   7.553   1.645   5.015 -0.7217  0.5885 -0.6113
  757MOL0     C 2064   7.690   1.656   4.991  0.4058 -0.4936  0.7622
  757MOL0     C 2065   7.734   1.783   4.949 -0.1790 -0.4563 -0.4263
  757MOL0     C 2066   7.874   1.817   4.950  0.5011  0.6058  0.0380
  757MOL0     C 2067   7.965   1.720   4.992 -0.6743  0.2999  0.0358
  757MOL0     O 2068   8.100   1.734   4.994  0.6215 -0.4211  0.2339
  757MOL0     C 2069   8.151   1.825   4.893  0.6569  0.5342  0.8165
  757MOL0     C 2070   8.276   1.777   4.828 -0.2450 -0.1392  0.2257
  757MOL0     C 2071   8.397   1.767   4.924  0.7486  0.1989 -0.9394
  757MOL0     C 2072   8.535   1.759   4.851  0.8440  0.4482 -0.0818
  757MOL0     C 2073   8.647   1.773   4.947 -0.2707 -0.6066  1.0425
  757MOL0     C 2074   8.779   1.792   4.870  0.5846 -0.6012 -0.5360
  757MOL0     C 2075   8.903   1.800   4.965  0.9000 -0.1540 -0.3108
  757MOL0     C 2076   9.028   1.810   4.879  0.1847  0.9701  0.2709
  757MOL0     N 2077   9.145   1.796   4.962 -0.6159 -0.3908 -0.4529
  757MOL0     C 2078   9.224   1.906   4.996  0.3887 -0.5292  0.0988
  757MOL0     C 2079   9.329   1.853   5.051 -0.1826 -0.7316 -0.2471
  757MOL0     C 2080   9.446   1.928   5.126  0.1236 -0.7660 -0.0395
  757MOL0     C 2081   9.574   1.889   5.066  0.1493 -0.3141 -0.3872
  757MOL0     C 2082   9.696   1.951   5.131 -0.2785 -0.4428 -1.0960
  757MOL0     C 2083   9.732   1.899   5.278 -0.1200 -0.1675  0.8981
  757MOL0     O 2084   9.862   1.952   5.315  0.5118 -0.0919 -0.5886
  757MOL0     C 2085   9.972   1.881   5.270 -0.1421 -1.1358  0.2367
  757MOL0     C 2086  10.006   1.755   5.318  0.1946 -0.2896  0.3852
  757MOL0     C 2087  10.118   1.703   5.261 -0.0138 -0.3255  0.1208
  757MOL0     C 2088  10.204   1.776   5.169  0.4132 -0.8355  0.6402
  757MOL0     C 2089  10.325   1.706   5.127 -0.1391  0.7658  0.2672
  757MOL0     O 2090  10.350   1.573   5.168 -0.1067 -0.0397  0.6268
  757MOL0     C 2091  10.458   1.499   5.116 -0.3862  1.1835 -0.5718
  757MOL0     C 2092  10.437   1.426   4.996  0.6774  0.2352  1.0538
  757MOL0     C 2093  10.542   1.356   4.939 -0.1070  0.2777  0.5969
  757MOL0     C 2094  10.669   1.357   5.002 -0.2503 -0.0793 -0.1110
  757MOL0     O 2095  10.777   1.289   4.951 -0.5711 -0.0821  0.0558
  757MOL0     C 2096  10.795   1.297   4.807  0.2664 -0.3184 -1.3151
  757MOL0     C 2097  10.931   1.239   4.763 -0.3199  0.2488 -1.7600
  757MOL0     C 2098  11.044   1.317   4.823  0.1695 -0.2319 -0.2088
  757MOL0     C 2099  11.179   1.246   4.791  0.1286  0.6716  0.4916
  757MOL0     C 2100  11.287   1.302   4.884 -0.0557  0.1106 -0.1173
  757MOL0     C 2101  11.426   1.250   4.844 -0.7374 -0.0726 -0.3910
  757MOL0     C 2102  11.539   1.286   4.951  0.6269  0.8522  0.0867
  757MOL0     C 2103  11.671   1.268   4.869  0.4834 -0.2466 -0.6712
  757MOL0    Cl 2104  11.806   1.316   4.974 -0.0427  0.2159 -0.0284
  757MOL0     C 2105  10.687   1.415   5.124 -0.6733 -0.8592 -1.6311
  757MOL0     C 2106  10.579   1.478   5.191 -0.1915  0.2436  0.1351
  757MOL0     O 2107  10.398   1.769   5.046 -0.4345  1.2950 -0.4575
  757MOL0     C 2108  10.163   1.903   5.129 -0.5168  0.6223 -0.3363
  757MOL0     C 2109  10.055   1.956   5.189 -0.9091 -0.5663  0.7950
  757MOL0     N 2110   9.329   1.714   5.039  0.5212  0.7885  0.1869
  757MOL0     N 2111   9.212   1.682   4.995 -0.0980  0.3076 -0.9256
  757MOL0     C 2112   7.916   1.595   5.036  0.6646 -0.4330  0.2540
  757MOL0     C 2113   7.784   1.566   5.037 -0.0580 -0.7843 -1.0340
  757MOL0     C 2114   7.357   1.500   4.984  0.6788 -0.5204  0.5208
  757MOL0     C 2115   7.256   1.604   4.982 -1.0113 -0.0422  0.5060
  757MOL0     C 2116   7.118   1.586   4.983  1.0442  1.2927  0.0762
  757MOL0     C 2117   7.073   1.459   4.989 -0.1017  0.2666 -0.2122
  757MOL0     O 2118   6.937   1.454   4.997  0.4170  0.8132  0.5969
  757MOL0     C 2119   6.871   1.321   4.999 -0.8971 -0.2942 -0.1868
  757MOL0     C 2120   6.716   1.339   4.997  0.2431  0.0299 -0.1425
  757MOL0     C 2121   6.665   1.415   5.124  0.1748 -0.2563  0.4871
  757MOL0     C 2122   6.531   1.478   5.084  0.7856  0.2403 -0.7612
  757MOL0     C 2123   6.424   1.386   5.064  0.3150  0.8359  0.6728
  757MOL0     C 2124   6.328   1.313   5.039 -0.4897 -0.5202 -0.3797
  757MOL0     C 2125   7.161   1.358   5.003 -0.5247  0.4898 -1.1706
  757MOL0     C 2126   7.304   1.375   5.000 -0.6408  0.1246 -0.1572
  757MOL0     C 2127   7.395   1.251   5.014  0.2917  0.0967 -0.1768
  757MOL0     H 2128   7.652   1.854   4.939  1.7074  1.9621  0.2666
  757MOL0     H 2129   7.895   1.922   4.932  2.7102  1.2586  4.7263
  757MOL0     H 2130   8.075   1.838   4.815  0.8843 -0.9949  0.3075
  757MOL0     H 2131   8.153   1.921   4.945 -0.6627  1.0940 -0.1146
  757MOL0     H 2132   8.303   1.850   4.752  1.2951 -0.8340  0.0597
  757MOL0     H 2133   8.272   1.685   4.769  2.3381  0.1642 -0.5534
  757MOL0     H 2134   8.393   1.678   4.988 -1.0148  0.7377 -0.2309
  757MOL0     H 2135   8.398   1.851   4.994 -0.2503  1.2573 -2.1600
  757MOL0     H 2136   8.546   1.670   4.788  0.4469  1.4440 -1.6062
  757MOL0     H 2137   8.537   1.842   4.780  2.4748 -0.0556 -0.6719
  757MOL0     H 2138   8.629   1.866   5.000 -0.6537  0.5925 -1.0702
  757MOL0     H 2139   8.656   1.690   5.018  1.5503 -0.3200  1.2115
  757MOL0     H 2140   8.783   1.722   4.786 -2.7924  0.5731 -1.8646
  757MOL0     H 2141   8.785   1.883   4.809  2.3712 -0.8775 -0.8257
  757MOL0     H 2142   8.914   1.709   5.025  0.1292  0.4854  0.8351
  757MOL0     H 2143   8.901   1.888   5.030  1.4961 -1.5864  1.7605
  757MOL0     H 2144   9.024   1.735   4.799  0.2179  1.5558 -0.2908
  757MOL0     H 2145   9.027   1.904   4.822  1.9199  0.0536 -1.3852
  757MOL0     H 2146   9.211   2.014   4.993  0.4667 -0.4209  2.2790
  757MOL0     H 2147   9.437   2.036   5.118  1.1097 -0.6673  0.0844
  757MOL0     H 2148   9.443   1.893   5.230 -1.2597  0.2136  0.2767
  757MOL0     H 2149   9.591   1.785   5.038  2.3060 -0.4809  1.3529
  757MOL0     H 2150   9.571   1.944   4.971 -0.4407 -1.6942 -1.2041
  757MOL0     H 2151   9.670   2.055   5.151 -2.0647 -1.2830  1.4165
  757MOL0     H 2152   9.789   1.943   5.073  3.0335  1.3169  3.3953
  757MOL0     H 2153   9.741   1.791   5.268 -0.0912 -0.1234  0.4506
  757MOL0     H 2154   9.661   1.928   5.357 -0.8913 -0.5506  0.3501
  757MOL0     H 2155   9.956   1.694   5.392  0.2067 -2.4825 -1.2876
  757MOL0     H 2156  10.153   1.607   5.297  0.4911  0.9734  3.5120
  757MOL0     H 2157  10.345   1.447   4.943  0.8560  1.6296  1.2513
  757MOL0     H 2158  10.526   1.311   4.841 -1.1095  2.0530 -0.0953
  757MOL0     H 2159  10.712   1.249   4.755  1.0090 -0.8236 -2.0584
  757MOL0     H 2160  10.796   1.404   4.784 -1.2935 -0.4053 -1.8864
  757MOL0     H 2161  10.939   1.134   4.792  1.3047  0.9700  0.7501
  757MOL0     H 2162  10.960   1.235   4.658 -1.6021 -1.2870 -2.0921
  757MOL0     H 2163  11.050   1.415   4.775  3.7441 -0.6324 -0.8410
  757MOL0     H 2164  11.023   1.335   4.929 -3.7342  2.5523 -1.2311
  757MOL0     H 2165  11.208   1.260   4.687 -2.8146 -1.8755 -0.8430
  757MOL0     H 2166  11.156   1.140   4.809  1.1909  0.7226  2.4774
  757MOL0     H 2167  11.268   1.268   4.987 -0.3577  1.3171  0.2489
  757MOL0     H 2168  11.288   1.412   4.885  0.9910  0.1201  1.1134
  757MOL0     H 2169  11.425   1.142   4.832  1.1695 -0.2902  1.0305
  757MOL0     H 2170  11.460   1.299   4.752  1.8140  0.0028  0.5187
  757MOL0     H 2171  11.538   1.213   5.033  0.3238 -1.3878 -1.8076
  757MOL0     H 2172  11.516   1.387   4.985 -1.8972 -0.0892  1.4746
  757MOL0     H 2173  11.665   1.163   4.839  1.8922 -0.7908  0.8095
  757MOL0     H 2174  11.678   1.338   4.786 -0.2325 -0.1978 -0.7040
  757MOL0     H 2175  10.786   1.413   5.167 -0.9847  0.3311 -0.7958
  757MOL0     H 2176  10.604   1.513   5.291  2.1075  0.9233 -0.6119
  757MOL0     H 2177  10.225   1.942   5.048 -0.0399 -2.9847 -1.9220
  757MOL0     H 2178  10.034   2.059   5.162  2.6171 -0.0952 -0.5391
  757MOL0     H 2179   7.997   1.531   5.069  1.2862  0.8385  1.2624
  757MOL0     H 2180   7.736   1.482   5.087 -2.3360 -0.2532 -2.1951
  757MOL0     H 2181   7.295   1.705   4.980  2.8399 -1.3417  1.1440
  757MOL0     H 2182   7.050   1.671   4.982  0.8216  1.1457  1.1481
  757MOL0     H 2183   6.893   1.263   5.089 -1.0293 -2.2700 -1.3750
  757MOL0     H 2184   6.902   1.256   4.917  0.7322 -2.0062  1.6831
  757MOL0     H 2185   6.659   1.247   4.978  4.3480 -2.5579 -1.0577
  757MOL0     H 2186   6.703   1.409   4.913  0.4200  0.5735  0.2815
  757MOL0     H 2187   6.735   1.496   5.150 -1.9579  2.1310 -0.7453
  757MOL0     H 2188   6.653   1.355   5.215  1.4177 -0.5314  0.4854
  757MOL0     H 2189   6.487   1.537   5.165  0.3319  0.5618 -1.2302
  757MOL0     H 2190   6.544   1.541   4.995  1.2781  2.1281  0.5769
  757MOL0     H 2191   6.250   1.241   5.026  1.4264 -2.7915  0.0418
  757MOL0     H 2192   7.129   1.255   5.013  0.7336 -0.1526 -3.1175
  757MOL0     H 2193   7.328   1.165   5.008  1.9993 -1.1947 -1.7053
  757MOL0     H 2194   7.470   1.244   4.934  1.6437 -0.1734  1.0691
  757MOL0     H 2195   7.452   1.252   5.108  3.2200 -1.9358 -1.7763
  758MOL0     O 2196   7.535   7.147   6.222  0.0126 -0.3846  0.2367
  758MOL0     C 2197   7.462   7.123   6.128  0.4456  0.1685  0.5349
  758MOL0     O 2198   7.506   7.084   6.006  1.0320  0.2312  0.4957
  758MOL0     C 2199   7.643   7.055   5.990  0.5436 -0.1183 -0.1558
  758MOL0     C 2200   7.721   7.161   5.956  0.3500  0.1698 -0.3741
  758MOL0     C 2201   7.864   7.147   5.950 -0.2729  0.3860 -0.5809
  758MOL0     C 2202   7.930   7.031   5.971 -0.2490  0.0854 -0.0275
  758MOL0     O 2203   8.068   7.047   5.951  0.1919 -0.4601 -0.1198
  758MOL0     C 2204   8.160   6.942   5.993  0.0068  0.0908  0.8012
  758MOL0     C 2205   8.290   6.952   5.904  0.7094 -0.5946 -0.4416
  758MOL0     C 2206   8.402   6.865   5.940  0.1702  0.5355 -0.1762
  758MOL0     C 2207   8.519   6.945   5.992  0.1692  0.6942  0.6074
  758MOL0     C 2208   8.601   6.865   6.098  0.1552 -0.3254  0.1502
  758MOL0     C 2209   8.690   6.966   6.168  0.2630 -0.5462 -0.0566
  758MOL0     C 2210   8.782   6.908   6.287 -0.0416 -0.0617 -0.6491
  758MOL0     C 2211   8.880   6.811   6.241 -0.5759 -0.8152  0.3586
  758MOL0     N 2212   8.967   6.886   6.146  0.1743  0.3875 -0.3528
  758MOL0     C 2213   9.083   6.934   6.192 -1.4457 -0.0496 -0.4965
  758MOL0     C 2214   9.145   6.981   6.079  0.3195 -0.7078 -0.5513
  758MOL0     C 2215   9.274   7.055   6.067  0.1907  0.3337 -0.0977
  758MOL0     C 2216   9.284   7.178   6.161 -0.5608  0.4872 -0.1509
  758MOL0     C 2217   9.406   7.263   6.132 -0.1251 -0.3227 -0.3377
  758MOL0     C 2218   9.426   7.306   5.988 -0.7321 -0.9192  0.5906
  758MOL0     O 2219   9.520   7.228   5.920  0.7323  0.1388  0.7229
  758MOL0     C 2220   9.548   7.250   5.788  0.2329  0.2255 -0.2261
  758MOL0     C 2221   9.650   7.170   5.728  0.5518  0.0587  0.3292
  758MOL0     C 2222   9.684   7.191   5.599 -0.1215  0.0979 -0.2052
  758MOL0     C 2223   9.608   7.279   5.519  0.4169  0.0493 -0.2766
  758MOL0     C 2224   9.640   7.285   5.372 -0.1078  0.0245  1.0973
  758MOL0     O 2225   9.576   7.380   5.304 -0.5062 -0.0242 -0.6447
  758MOL0     C 2226   9.594   7.418   5.176 -0.4088 -0.1405 -0.3124
  758MOL0     C 2227   9.479   7.417   5.093 -0.1459 -1.1166 -0.5196
  758MOL0     C 2228   9.484   7.470   4.966 -0.4079  0.3074 -0.3376
  758MOL0     C 2229   9.603   7.533   4.913  0.2212  0.5749  0.8655
  758MOL0     O 2230   9.624   7.593   4.791 -1.3073  0.4493 -0.2417
  758MOL0     C 2231   9.527   7.554   4.695 -0.0275 -0.5514  0.3851
  758MOL0     C 2232   9.548   7.632   4.556 -0.0112 -0.2326 -0.5939
  758MOL0     C 2233   9.682   7.612   4.485 -0.2132  0.4334  0.7236
  758MOL0     C 2234   9.671   7.498   4.375  1.1048  0.0838 -0.3894
  758MOL0     C 2235   9.794   7.465   4.298 -0.4430  0.1446  0.3420
  758MOL0     C 2236   9.857   7.580   4.226 -0.6079  0.1359  0.1952
  758MOL0     C 2237   9.961   7.518   4.129 -0.3774 -1.1715 -0.1301
  758MOL0     C 2238  10.037   7.637   4.066 -0.2045  0.5921 -0.1051
  758MOL0    Cl 2239  10.163   7.587   3.948  0.0555  0.1970 -0.2676
  758MOL0     C 2240   9.711   7.537   5.006 -0.2191  0.6143  0.3405
  758MOL0     C 2241   9.717   7.482   5.130  0.5497 -0.4604  0.4323
  758MOL0     O 2242   9.729   7.209   5.331  0.0322  0.2064  0.4591
  758MOL0     C 2243   9.511   7.355   5.573  0.0793 -0.5045  0.5160
  758MOL0     C 2244   9.481   7.340   5.711 -0.2417  0.6526 -0.1598
  758MOL0     N 2245   9.065   6.938   5.971 -0.0806  0.0457  0.0448
  758MOL0     N 2246   8.955   6.882   6.010  0.3256  0.2707  0.2549
  758MOL0     C 2247   7.851   6.921   6.004  0.2193 -0.4156  0.1079
  758MOL0     C 2248   7.712   6.931   6.011  0.4917 -0.3202 -0.6476
  758MOL0     C 2249   7.314   7.135   6.150  0.0775  0.3406 -1.0092
  758MOL0     C 2250   7.269   7.141   6.282  0.7938  0.1393  0.0926
  758MOL0     C 2251   7.130   7.155   6.320  1.0405  0.4987 -0.4253
  758MOL0     C 2252   7.027   7.154   6.228 -0.5844 -0.3250 -0.2842
  758MOL0     O 2253   6.898   7.157   6.282 -0.3217 -0.3588  0.3696
  758MOL0     C 2254   6.791   7.196   6.181 -0.4553  0.3902  0.0445
  758MOL0     C 2255   6.665   7.224   6.262  0.0496  0.2874  0.2949
  758MOL0     C 2256   6.637   7.374   6.286  0.2536 -0.9332 -0.0341
  758MOL0     C 2257   6.541   7.399   6.413 -0.2135 -0.4900 -0.3983
  758MOL0     C 2258   6.555   7.534   6.468 -0.2322  0.2073 -0.6178
  758MOL0     C 2259   6.587   7.652   6.515  0.2048  0.8951  0.3684
  758MOL0     C 2260   7.066   7.145   6.087  0.6492 -0.5139 -0.2874
  758MOL0     C 2261   7.207   7.132   6.052 -0.7954  0.5857 -0.3227
  758MOL0     C 2262   7.227   7.111   5.905  0.2360  0.3843 -0.1672
  758MOL0     H 2263   7.679   7.260   5.944  2.3445  1.2338  0.9453
  758MOL0     H 2264   7.928   7.231   5.922  0.2120 -0.4385 -2.0460
  758MOL0     H 2265   8.181   6.962   6.098 -1.3485 -1.8022  1.4741
  758MOL0     H 2266   8.125   6.839   5.993  3.9508 -1.4278  1.4678
  758MOL0     H 2267   8.312   7.059   5.896 -0.7113 -0.3933 -3.3028
  758MOL0     H 2268   8.266   6.925   5.800 -0.1733 -0.9382 -0.1530
  758MOL0     H 2269   8.441   6.816   5.851 -1.1644  2.2967 -1.8063
  758MOL0     H 2270   8.372   6.785   6.008  2.2340  0.8634  1.2201
  758MOL0     H 2271   8.585   6.966   5.907  1.9413  0.5881  1.8787
  758MOL0     H 2272   8.489   7.042   6.032  1.9143  1.5422 -0.0202
  758MOL0     H 2273   8.532   6.830   6.175 -0.5587  1.4337  0.3645
  758MOL0     H 2274   8.649   6.779   6.050 -0.7445 -0.5663 -0.3493
  758MOL0     H 2275   8.745   7.032   6.100 -2.4473  2.2628  0.2640
  758MOL0     H 2276   8.617   7.028   6.221 -0.3592  1.2615 -2.8390
  758MOL0     H 2277   8.727   6.856   6.366 -0.4142  0.3464 -0.6379
  758MOL0     H 2278   8.840   6.991   6.328  2.2877 -1.4384 -0.9614
  758MOL0     H 2279   8.945   6.777   6.322  1.2271  0.6713 -0.3782
  758MOL0     H 2280   8.843   6.720   6.194  2.5360 -1.3326 -1.4200
  758MOL0     H 2281   9.112   6.941   6.296 -0.6733 -2.9066 -0.4381
  758MOL0     H 2282   9.360   6.993   6.091  1.1251  2.1088  1.3206
  758MOL0     H 2283   9.272   7.089   5.963  0.4300  0.3280 -0.1027
  758MOL0     H 2284   9.195   7.242   6.155 -1.9530 -1.4564 -1.4835
  758MOL0     H 2285   9.285   7.145   6.265  0.1569  0.6421 -0.1077
  758MOL0     H 2286   9.495   7.221   6.179 -1.3536 -3.6142 -0.7239
  758MOL0     H 2287   9.388   7.352   6.194 -0.3985 -1.0940  0.7111
  758MOL0     H 2288   9.465   7.409   5.989 -0.2041 -1.1172  1.2430
  758MOL0     H 2289   9.328   7.299   5.941 -0.8213 -0.1714  0.6479
  758MOL0     H 2290   9.710   7.088   5.766  3.5191  1.9789  0.1414
  758MOL0     H 2291   9.769   7.135   5.561 -1.1940  0.9595 -4.3965
  758MOL0     H 2292   9.398   7.360   5.138  2.1269 -4.6041 -0.4310
  758MOL0     H 2293   9.409   7.462   4.887  0.6537 -2.3227 -1.1824
  758MOL0     H 2294   9.546   7.449   4.670  3.6450  0.6784 -3.2404
  758MOL0     H 2295   9.427   7.575   4.733 -1.5758 -1.8621 -2.6643
  758MOL0     H 2296   9.464   7.611   4.490 -1.4478 -1.1517  1.4191
  758MOL0     H 2297   9.549   7.737   4.587 -0.3963 -0.9091  1.9715
  758MOL0     H 2298   9.691   7.701   4.423  0.3693  0.9058  1.4718
  758MOL0     H 2299   9.774   7.612   4.544  0.8297  3.5909 -0.6977
  758MOL0     H 2300   9.587   7.531   4.313  0.4349  0.1358  0.5252
  758MOL0     H 2301   9.637   7.410   4.431  4.5938 -1.4014 -0.3995
  758MOL0     H 2302   9.773   7.382   4.229 -0.1871  0.4067 -0.0621
  758MOL0     H 2303   9.864   7.420   4.369 -0.3040  0.1395  0.2020
  758MOL0     H 2304   9.788   7.635   4.161  0.0842  0.6931 -0.0900
  758MOL0     H 2305   9.910   7.651   4.291  0.4888 -1.3301  0.9536
  758MOL0     H 2306   9.910   7.466   4.048 -0.3943  1.5966 -2.0387
  758MOL0     H 2307  10.030   7.455   4.186  0.7284  0.4206  0.3719
  758MOL0     H 2308   9.968   7.706   4.017  3.6765  2.3356 -3.6913
  758MOL0     H 2309  10.083   7.700   4.143  0.1149  1.2966 -0.8611
  758MOL0     H 2310   9.803   7.584   4.973 -0.0833  1.3975  1.7708
  758MOL0     H 2311   9.802   7.484   5.199  0.7597 -0.7308  0.1832
  758MOL0     H 2312   9.462   7.420   5.501  4.5880  0.5069 -1.9899
  758MOL0     H 2313   9.401   7.387   5.766 -0.5057  0.7148 -0.5901
  758MOL0     H 2314   7.893   6.828   6.041 -2.8089 -1.4553  1.2115
  758MOL0     H 2315   7.652   6.844   6.034  1.0881 -1.5855 -3.4968
  758MOL0     H 2316   7.337   7.139   6.367 -0.3411 -2.2463  1.0390
  758MOL0     H 2317   7.111   7.152   6.427  3.7791 -2.3936  0.1073
  758MOL0     H 2318   6.764   7.112   6.116 -1.0106  0.2459  0.4583
  758MOL0     H 2319   6.817   7.285   6.122 -0.0788  0.9122  0.9788
  758MOL0     H 2320   6.673   7.169   6.356  3.7098  0.9874  0.5332
  758MOL0     H 2321   6.577   7.189   6.206 -1.3699  0.0669  2.5458
  758MOL0     H 2322   6.589   7.425   6.203 -1.3678 -2.1899  0.0728
  758MOL0     H 2323   6.736   7.414   6.312 -0.8686  0.0209  3.1979
  758MOL0     H 2324   6.445   7.364   6.373  0.1749 -1.3697 -0.5923
  758MOL0     H 2325   6.566   7.337   6.500 -2.7347  1.5371  1.9564
  758MOL0     H 2326   6.618   7.753   6.533  0.0929  1.0754 -0.4494
  758MOL0     H 2327   6.982   7.128   6.021 -0.9536 -1.7382  1.9045
  758MOL0     H 2328   7.314   7.167   5.870  0.9215  1.1095  2.4791
  758MOL0     H 2329   7.245   7.004   5.893 -2.9903 -0.1864 -0.8468
  758MOL0     H 2330   7.132   7.137   5.856 -0.8664 -1.4706  0.8918
  759MOL0     O 2331   5.289   8.037   2.586 -0.5288  0.2678  0.4894
  759MOL0     C 2332   5.322   7.954   2.506 -0.1420  0.3297  0.2757
  759MOL0     O 2333   5.448   7.917   2.482 -0.1469  0.5016 -0.1608
  759MOL0     C 2334   5.536   7.987   2.553  0.0836 -0.3004 -0.2472
  759MOL0     C 2335   5.603   8.102   2.501 -0.6920  1.1558 -0.5305
  759MOL0     C 2336   5.711   8.161   2.575  0.5294 -0.0752  0.5617
  759MOL0     C 2337   5.754   8.116   2.688 -0.4114 -0.0954 -0.5902
  759MOL0     O 2338   5.871   8.174   2.735  0.5417  0.2128  0.1846
  759MOL0     C 2339   5.962   8.088   2.803  0.6826  1.2554 -1.1196
  759MOL0     C 2340   6.103   8.132   2.783  0.6007  0.3510  1.1035
  759MOL0     C 2341   6.115   8.282   2.820 -0.5032  0.0491  0.8270
  759MOL0     C 2342   6.247   8.337   2.768 -0.5488  0.0893 -0.2388
  759MOL0     C 2343   6.259   8.495   2.767 -0.0311 -0.3125  0.7432
  759MOL0     C 2344   6.402   8.542   2.732  0.1941 -0.2615  0.3747
  759MOL0     C 2345   6.448   8.482   2.595  0.8870 -0.8233  0.3528
  759MOL0     C 2346   6.570   8.548   2.531 -0.1110  0.4288  0.1445
  759MOL0     N 2347   6.623   8.459   2.424  0.0880  0.5520 -0.0503
  759MOL0     C 2348   6.722   8.367   2.451 -0.6894  0.0727  0.2850
  759MOL0     C 2349   6.724   8.290   2.336  0.4125 -0.1472 -0.3702
  759MOL0     C 2350   6.808   8.160   2.330  0.1041  0.1910 -0.3357
  759MOL0     C 2351   6.957   8.190   2.298 -0.1621 -0.5196  1.0761
  759MOL0     C 2352   7.033   8.254   2.422  0.8718 -0.8447  0.8141
  759MOL0     C 2353   7.180   8.250   2.418  0.1096 -0.3748 -0.8867
  759MOL0     O 2354   7.211   8.110   2.392 -0.3000  0.2040 -0.0755
  759MOL0     C 2355   7.318   8.077   2.312  0.3574 -0.2512  0.3377
  759MOL0     C 2356   7.346   7.943   2.316  0.1131 -0.3960  0.2888
  759MOL0     C 2357   7.457   7.888   2.256  0.2735  0.9682  0.4383
  759MOL0     C 2358   7.565   7.975   2.230 -1.0439 -0.2115  0.3629
  759MOL0     C 2359   7.696   7.918   2.184  0.1186 -0.2854  0.2037
  759MOL0     O 2360   7.812   7.998   2.186  0.1441  0.3307  0.3814
  759MOL0     C 2361   7.930   7.954   2.144  0.8355 -0.3794  0.1379
  759MOL0     C 2362   7.934   7.897   2.026 -0.3272  0.1403  1.2327
  759MOL0     C 2363   8.050   7.823   1.987  0.4880 -0.6298  0.0870
  759MOL0     C 2364   8.154   7.804   2.076  0.1056  0.9617  0.3182
  759MOL0     O 2365   8.268   7.740   2.035  0.4805 -0.3782 -0.6190
  759MOL0     C 2366   8.246   7.626   1.946 -0.1727 -0.3583 -1.1490
  759MOL0     C 2367   8.326   7.510   2.014 -0.1424 -0.8791  0.5167
  759MOL0     C 2368   8.469   7.525   1.958  0.6166 -0.1753  0.2293
  759MOL0     C 2369   8.479   7.468   1.816  0.4697 -0.3582 -0.3741
  759MOL0     C 2370   8.608   7.504   1.731 -0.5385 -0.0529  0.3285
  759MOL0     C 2371   8.728   7.460   1.810 -0.5632  0.1210 -0.0412
  759MOL0     C 2372   8.853   7.515   1.746 -0.1495  0.2876  0.6206
  759MOL0     C 2373   8.990   7.482   1.803 -0.8314  0.1998 -0.9352
  759MOL0    Cl 2374   9.102   7.560   1.701  0.1641  0.3813  0.3749
  759MOL0     C 2375   8.151   7.870   2.198 -0.1434 -0.6219 -0.7339
  759MOL0     C 2376   8.040   7.954   2.230 -0.8557 -0.4019  0.7446
  759MOL0     O 2377   7.701   7.806   2.142  0.1418  1.3699 -0.4974
  759MOL0     C 2378   7.549   8.116   2.241 -0.2539  0.5378 -0.5680
  759MOL0     C 2379   7.425   8.165   2.283  1.2155  0.1537  0.5017
  759MOL0     N 2380   6.627   8.346   2.254 -0.1212 -0.3597  0.2373
  759MOL0     N 2381   6.567   8.443   2.306  0.0296 -0.1685 -0.5157
  759MOL0     C 2382   5.679   8.008   2.748 -0.1505 -0.3171  0.0644
  759MOL0     C 2383   5.579   7.945   2.678 -0.2104  0.3369 -0.5334
  759MOL0     C 2384   5.215   7.881   2.443  0.2174 -0.7794 -0.2783
  759MOL0     C 2385   5.109   7.947   2.388  0.4605 -0.1457 -0.0478
  759MOL0     C 2386   5.003   7.874   2.335 -0.2172  0.1215 -0.1963
  759MOL0     C 2387   4.994   7.732   2.334 -0.3034 -1.3848 -0.3548
  759MOL0     O 2388   4.889   7.663   2.277 -0.2489 -0.1826  0.1247
  759MOL0     C 2389   4.853   7.525   2.324 -0.2957  0.1397 -0.0327
  759MOL0     C 2390   4.917   7.426   2.222 -0.3734  0.4172  0.1497
  759MOL0     C 2391   4.971   7.305   2.301 -0.1336 -0.3005  0.0438
  759MOL0     C 2392   5.004   7.185   2.217  0.3419 -0.0779  0.5286
  759MOL0     C 2393   5.084   7.231   2.107 -0.6221  0.3221 -0.9328
  759MOL0     C 2394   5.145   7.271   2.009 -0.3455 -0.5347  0.0890
  759MOL0     C 2395   5.103   7.675   2.388  0.2143  0.1548 -0.4679
  759MOL0     C 2396   5.208   7.741   2.450 -0.2511  0.6252  0.7524
  759MOL0     C 2397   5.309   7.661   2.522 -0.0284  0.5494 -0.1555
  759MOL0     H 2398   5.572   8.133   2.402 -0.5325  0.3878 -0.8279
  759MOL0     H 2399   5.766   8.244   2.531 -0.1270 -0.0465 -0.2370
  759MOL0     H 2400   5.950   8.100   2.911 -1.0883  0.1388 -1.1485
  759MOL0     H 2401   5.942   7.984   2.774 -0.6397  1.4227 -0.8656
  759MOL0     H 2402   6.134   8.117   2.679 -2.9704  1.2939 -0.2461
  759MOL0     H 2403   6.169   8.066   2.841  0.0901 -0.3475  0.8937
  759MOL0     H 2404   6.098   8.292   2.928 -0.2681  1.1920  0.7678
  759MOL0     H 2405   6.036   8.344   2.775 -0.3132  0.5874  1.2213
  759MOL0     H 2406   6.322   8.301   2.839 -1.5116 -0.2686  0.6181
  759MOL0     H 2407   6.262   8.294   2.668  2.5996 -0.8090  0.5263
  759MOL0     H 2408   6.195   8.530   2.686  1.0980 -0.8519 -0.4187
  759MOL0     H 2409   6.242   8.527   2.871  3.1420 -1.7964  1.8677
  759MOL0     H 2410   6.397   8.651   2.729 -4.7290 -0.1922  1.7726
  759MOL0     H 2411   6.472   8.511   2.810 -0.7324 -0.7828  1.0253
  759MOL0     H 2412   6.368   8.482   2.520  1.6338  1.7184 -0.5390
  759MOL0     H 2413   6.478   8.381   2.626  1.7616 -0.6710  0.0314
  759MOL0     H 2414   6.548   8.646   2.486  0.7363 -0.3011 -1.9764
  759MOL0     H 2415   6.651   8.571   2.601 -1.5441  0.7352  1.7624
  759MOL0     H 2416   6.780   8.354   2.542 -0.5738  3.5955  0.8333
  759MOL0     H 2417   6.794   8.104   2.423  3.9568 -0.6892 -0.1313
  759MOL0     H 2418   6.771   8.102   2.244 -1.0869  2.5036 -1.4737
  759MOL0     H 2419   7.006   8.101   2.257  1.0657  1.4294 -2.0371
  759MOL0     H 2420   6.959   8.257   2.212 -0.4086 -2.7796 -0.8148
  759MOL0     H 2421   7.005   8.188   2.504 -1.7792 -1.7723 -0.6935
  759MOL0     H 2422   7.005   8.360   2.423  1.8341 -0.4728 -1.7298
  759MOL0     H 2423   7.223   8.301   2.505  0.2300  0.7988 -1.6111
  759MOL0     H 2424   7.204   8.313   2.332 -0.1101  0.6628 -0.2110
  759MOL0     H 2425   7.271   7.881   2.365  0.0793  0.2192  1.0350
  759MOL0     H 2426   7.467   7.781   2.243  2.1848  1.2509 -0.9638
  759MOL0     H 2427   7.854   7.905   1.954  0.3712  1.3591  0.5597
  759MOL0     H 2428   8.048   7.791   1.883  0.6242  0.6894 -0.3357
  759MOL0     H 2429   8.139   7.602   1.942  0.0190 -2.1491  1.7146
  759MOL0     H 2430   8.291   7.649   1.849 -0.8874  0.1762 -1.3648
  759MOL0     H 2431   8.329   7.521   2.123  0.4869 -1.4525  0.5627
  759MOL0     H 2432   8.291   7.413   1.978 -0.1881 -0.3795 -0.8426
  759MOL0     H 2433   8.511   7.626   1.951 -2.6724  1.5243  2.3757
  759MOL0     H 2434   8.533   7.462   2.020  0.2967  0.1077  0.8549
  759MOL0     H 2435   8.390   7.497   1.760  1.1858  1.6763 -0.5562
  759MOL0     H 2436   8.461   7.361   1.831 -0.3089 -0.2575 -0.5413
  759MOL0     H 2437   8.601   7.609   1.702 -2.3258  0.2029  1.4856
  759MOL0     H 2438   8.609   7.439   1.643  0.0348 -2.7920  2.2225
  759MOL0     H 2439   8.719   7.501   1.911  3.4356  2.1624 -0.3297
  759MOL0     H 2440   8.734   7.351   1.808  0.4485  0.1362 -3.2402
  759MOL0     H 2441   8.836   7.622   1.729 -1.3597 -0.1663 -1.4869
  759MOL0     H 2442   8.849   7.478   1.643  2.7164 -1.2790  0.9745
  759MOL0     H 2443   9.004   7.521   1.904  2.2953 -0.8268 -0.8605
  759MOL0     H 2444   9.010   7.374   1.805  1.5369  0.6060  1.4675
  759MOL0     H 2445   8.230   7.857   2.271 -0.0227 -0.2518 -0.7934
  759MOL0     H 2446   8.050   8.004   2.326  2.3927 -1.5137  1.1114
  759MOL0     H 2447   7.635   8.175   2.212 -0.0018 -1.8201 -5.7631
  759MOL0     H 2448   7.429   8.270   2.308  2.7474 -0.1137  1.5101
  759MOL0     H 2449   5.710   7.960   2.840  0.7797 -1.3562 -0.7596
  759MOL0     H 2450   5.539   7.856   2.727 -2.0153  3.2748  4.0047
  759MOL0     H 2451   5.107   8.055   2.393  0.5790 -0.1283 -0.3690
  759MOL0     H 2452   4.915   7.926   2.297  0.7590  2.2379  0.2742
  759MOL0     H 2453   4.744   7.520   2.323 -0.2560 -1.1041 -1.2491
  759MOL0     H 2454   4.887   7.515   2.427  0.9659  0.2140 -0.4204
  759MOL0     H 2455   5.002   7.481   2.179  0.5583 -0.4865  0.7787
  759MOL0     H 2456   4.857   7.394   2.136  0.3166  1.6622 -0.8459
  759MOL0     H 2457   4.903   7.280   2.382  0.9956 -1.1221  0.7672
  759MOL0     H 2458   5.055   7.352   2.354 -0.2405  0.0336 -0.0818
  759MOL0     H 2459   5.052   7.105   2.274  0.1082 -1.5349 -1.2421
  759MOL0     H 2460   4.910   7.144   2.179  1.1235  0.1010 -1.7860
  759MOL0     H 2461   5.194   7.288   1.916  2.1613 -3.1118  0.7897
  759MOL0     H 2462   5.090   7.567   2.398  0.1751 -0.0844 -2.6737
  759MOL0     H 2463   5.284   7.554   2.518 -2.0782  1.0039 -0.3211
  759MOL0     H 2464   5.404   7.679   2.470  0.0779  1.9841  0.4837
  759MOL0     H 2465   5.308   7.700   2.624  2.2213  3.0354 -0.9697
  760MOL0     O 2466  10.165   6.226   4.420  0.2171 -0.1050 -0.0004
  760MOL0     C 2467  10.105   6.331   4.420 -0.7650 -0.6750  0.9423
  760MOL0     O 2468  10.171   6.449   4.396 -0.2570 -0.7141 -0.0783
  760MOL0     C 2469  10.298   6.449   4.344  0.6674 -0.4589 -1.0221
  760MOL0     C 2470  10.323   6.473   4.213 -0.2734  0.4147  0.1013
  760MOL0     C 2471  10.454   6.492   4.160 -0.2054 -0.5209  0.6709
  760MOL0     C 2472  10.560   6.474   4.241 -0.9244  0.0384 -0.7608
  760MOL0     O 2473  10.682   6.488   4.181 -0.1879  0.6754 -0.6498
  760MOL0     C 2474  10.804   6.508   4.255  0.9523  0.1309  0.1890
  760MOL0     C 2475  10.911   6.499   4.151  0.7168 -0.6989 -0.2900
  760MOL0     C 2476  11.052   6.518   4.210  0.5454 -0.0357 -0.8690
  760MOL0     C 2477  11.152   6.552   4.103 -0.4753  0.5004 -0.3634
  760MOL0     C 2478  11.292   6.576   4.159 -0.2005  0.0501  0.1051
  760MOL0     C 2479  11.362   6.448   4.202 -0.3489 -0.0171 -0.6767
  760MOL0     C 2480  11.518   6.471   4.215  0.2051 -0.3024 -0.6020
  760MOL0     C 2481  11.583   6.486   4.081  0.5529 -0.5104 -1.7530
  760MOL0     N 2482  11.728   6.481   4.107 -0.1458 -0.8028  0.2424
  760MOL0     C 2483  11.806   6.556   4.202 -0.0674 -0.7065  0.4827
  760MOL0     C 2484  11.933   6.542   4.168  0.5004 -0.5545  0.2139
  760MOL0     C 2485  12.051   6.611   4.229 -0.2822 -0.0982 -0.3616
  760MOL0     C 2486  12.165   6.663   4.137  0.9512 -0.2277 -0.0576
  760MOL0     C 2487  12.239   6.550   4.068  0.4008 -0.4260 -0.4973
  760MOL0     C 2488  12.358   6.604   3.985  0.1930  0.3167  0.7200
  760MOL0     O 2489  12.436   6.676   4.077  0.7435  0.0569  0.2843
  760MOL0     C 2490  12.560   6.726   4.037  0.2869 -0.4297 -0.0944
  760MOL0     C 2491  12.609   6.733   3.900 -0.0683  0.2035  0.1883
  760MOL0     C 2492  12.744   6.765   3.870  0.2771 -0.5092 -0.8996
  760MOL0     C 2493  12.837   6.787   3.966  0.1999  0.1651 -0.2010
  760MOL0     C 2494  12.981   6.812   3.938  0.4837 -0.0978 -0.5203
  760MOL0     O 2495  13.021   6.819   3.814  0.2062 -0.1486  0.3018
  760MOL0     C 2496  13.152   6.857   3.780 -0.8378  0.6132 -0.3196
  760MOL0     C 2497  13.170   6.927   3.660  0.6517 -0.3649  0.5939
  760MOL0     C 2498  13.292   6.965   3.612  0.0397  0.5297  0.4591
  760MOL0     C 2499  13.412   6.935   3.686 -0.0427  0.4337  1.3294
  760MOL0     O 2500  13.529   6.973   3.628  0.3682  0.1561 -0.2602
  760MOL0     C 2501  13.644   6.889   3.636 -0.0230 -0.1868 -0.0224
  760MOL0     C 2502  13.770   6.942   3.565 -0.1690 -0.5538  0.4318
  760MOL0     C 2503  13.732   6.953   3.422  0.0079 -0.4275  0.5311
  760MOL0     C 2504  13.810   7.074   3.376 -1.0619 -1.0726  0.6892
  760MOL0     C 2505  13.812   7.095   3.216 -0.2125 -0.0216 -0.4384
  760MOL0     C 2506  13.673   7.141   3.163 -0.2899  0.2692  0.0895
  760MOL0     C 2507  13.684   7.139   3.012 -0.4245  0.0172 -0.5081
  760MOL0     C 2508  13.563   7.213   2.951  0.1798 -0.2547  0.7464
  760MOL0    Cl 2509  13.407   7.138   3.004  0.0929 -0.7991 -0.3158
  760MOL0     C 2510  13.399   6.875   3.811  0.0492  1.5946  0.6293
  760MOL0     C 2511  13.267   6.840   3.859 -0.5543 -0.4189 -0.1257
  760MOL0     O 2512  13.053   6.829   4.039  0.6054  0.8817  0.3424
  760MOL0     C 2513  12.788   6.787   4.097 -0.1624 -0.3100  0.0031
  760MOL0     C 2514  12.652   6.754   4.131  0.4576  0.3796  0.2661
  760MOL0     N 2515  11.934   6.431   4.075 -0.5115  0.1535  0.6171
  760MOL0     N 2516  11.815   6.406   4.033  0.5461  0.3294 -0.1908
  760MOL0     C 2517  10.538   6.456   4.385 -0.3500 -0.1739  0.6344
  760MOL0     C 2518  10.406   6.439   4.435  0.2947  0.4496  0.0121
  760MOL0     C 2519   9.957   6.336   4.431  0.4314 -0.9290 -0.4080
  760MOL0     C 2520   9.916   6.451   4.498 -0.0887 -0.1090 -0.2142
  760MOL0     C 2521   9.779   6.474   4.517 -0.5016 -0.2401 -0.9689
  760MOL0     C 2522   9.687   6.387   4.468  0.8456 -0.1288 -0.0018
  760MOL0     O 2523   9.555   6.411   4.509 -0.4344  0.4241  0.2934
  760MOL0     C 2524   9.484   6.298   4.556  0.1428  0.1726 -0.1448
  760MOL0     C 2525   9.407   6.335   4.683  0.7574 -0.6460  0.1097
  760MOL0     C 2526   9.501   6.366   4.795  0.2857 -0.2068  0.0859
  760MOL0     C 2527   9.447   6.493   4.874  0.1210  0.2390  1.2844
  760MOL0     C 2528   9.520   6.536   4.990 -0.2585 -0.6659  0.4166
  760MOL0     C 2529   9.572   6.571   5.092 -1.0693 -0.1510  0.6623
  760MOL0     C 2530   9.731   6.283   4.388  0.1049  0.0016 -0.0101
  760MOL0     C 2531   9.869   6.245   4.374 -0.3218 -0.2330 -0.5579
  760MOL0     C 2532   9.902   6.131   4.294 -0.3723 -0.3557  0.8656
  760MOL0     H 2533  10.236   6.502   4.155  0.1652  2.5422  0.4110
  760MOL0     H 2534  10.469   6.515   4.055  0.1841  0.6784  0.9720
  760MOL0     H 2535  10.809   6.604   4.308 -1.6446  1.0791 -1.1457
  760MOL0     H 2536  10.810   6.425   4.326 -2.1546 -0.1825  0.2205
  760MOL0     H 2537  10.886   6.579   4.081  0.4547 -0.8236 -0.3402
  760MOL0     H 2538  10.905   6.403   4.099 -3.8718 -0.5069 -0.4680
  760MOL0     H 2539  11.077   6.424   4.261  0.1818  1.2210  1.8109
  760MOL0     H 2540  11.058   6.592   4.291 -0.8281  0.1649 -0.9222
  760MOL0     H 2541  11.144   6.470   4.031  0.3270  0.7370 -0.7309
  760MOL0     H 2542  11.118   6.646   4.058 -0.2748  1.1728  0.8372
  760MOL0     H 2543  11.348   6.631   4.082 -0.8620 -1.4687 -1.5483
  760MOL0     H 2544  11.288   6.643   4.245  2.4956  1.8871 -1.0449
  760MOL0     H 2545  11.335   6.414   4.302  1.9115 -2.0341 -0.6542
  760MOL0     H 2546  11.345   6.366   4.131 -0.6210  0.7075 -1.4580
  760MOL0     H 2547  11.566   6.387   4.266 -1.3609 -0.9124 -0.0601
  760MOL0     H 2548  11.543   6.561   4.273  2.1570 -0.0032 -1.8335
  760MOL0     H 2549  11.572   6.397   4.019  3.3463 -1.6008 -0.8406
  760MOL0     H 2550  11.562   6.581   4.031  0.8888  0.4204 -0.1931
  760MOL0     H 2551  11.769   6.644   4.255 -2.0049 -1.7341  0.9158
  760MOL0     H 2552  12.009   6.696   4.284 -3.8746 -2.5907  1.1667
  760MOL0     H 2553  12.097   6.543   4.301  0.3110  0.9915  0.3252
  760MOL0     H 2554  12.125   6.734   4.063 -1.1975 -0.7281  0.5433
  760MOL0     H 2555  12.228   6.727   4.200  2.1652 -0.3108 -1.1518
  760MOL0     H 2556  12.171   6.491   4.007 -1.2202  0.7754  0.0855
  760MOL0     H 2557  12.282   6.484   4.145 -2.2328  0.5827  2.0436
  760MOL0     H 2558  12.324   6.669   3.905  1.7760  0.2946 -0.0216
  760MOL0     H 2559  12.416   6.518   3.951 -0.9291 -1.2220  2.4908
  760MOL0     H 2560  12.544   6.702   3.818 -1.0256  5.0084 -1.1813
  760MOL0     H 2561  12.769   6.758   3.765  0.3114 -0.7652 -0.8762
  760MOL0     H 2562  13.082   6.929   3.596  0.3929  1.2087  0.9464
  760MOL0     H 2563  13.310   7.020   3.520  1.0514  0.0433  0.3484
  760MOL0     H 2564  13.677   6.882   3.741  2.2300  0.8147 -0.6037
  760MOL0     H 2565  13.597   6.802   3.589 -0.2795  1.9033 -4.0232
  760MOL0     H 2566  13.790   7.043   3.602 -0.5683 -0.1538 -0.4143
  760MOL0     H 2567  13.865   6.889   3.577  1.4396  2.1740  0.5743
  760MOL0     H 2568  13.765   6.861   3.375 -0.2172 -0.9188  1.3185
  760MOL0     H 2569  13.626   6.970   3.399  0.1840 -0.6342 -0.4792
  760MOL0     H 2570  13.914   7.065   3.409 -1.3070 -3.1952  1.0086
  760MOL0     H 2571  13.773   7.163   3.429 -0.8542 -1.5542  1.6611
  760MOL0     H 2572  13.851   7.011   3.157 -0.5212  0.4885 -1.3862
  760MOL0     H 2573  13.884   7.175   3.197 -0.4960  0.3804  0.1629
  760MOL0     H 2574  13.602   7.070   3.207 -0.4868 -1.3460 -2.6518
  760MOL0     H 2575  13.655   7.242   3.202 -1.1219 -0.6902  2.3977
  760MOL0     H 2576  13.694   7.034   2.984 -0.0573  0.7283 -3.3251
  760MOL0     H 2577  13.769   7.200   2.979 -0.6507 -0.6950 -2.5649
  760MOL0     H 2578  13.556   7.317   2.986 -1.0540 -0.5405  1.3909
  760MOL0     H 2579  13.564   7.211   2.842 -0.2034  0.4340  0.7218
  760MOL0     H 2580  13.487   6.861   3.873  1.8077 -0.2913 -2.0995
  760MOL0     H 2581  13.260   6.778   3.948  0.8042 -0.7624 -0.2387
  760MOL0     H 2582  12.866   6.800   4.171 -0.3177 -1.4167  0.3670
  760MOL0     H 2583  12.626   6.750   4.236  1.6244 -1.8809  0.5427
  760MOL0     H 2584  10.620   6.456   4.456  2.5572  0.8218 -2.4070
  760MOL0     H 2585  10.385   6.422   4.540 -1.1955 -1.9149 -0.5986
  760MOL0     H 2586   9.992   6.505   4.553  1.6271 -1.8151 -0.7916
  760MOL0     H 2587   9.737   6.552   4.580  1.6981 -0.2387  0.6489
  760MOL0     H 2588   9.550   6.211   4.569  0.0416 -0.8547 -4.6388
  760MOL0     H 2589   9.415   6.272   4.475 -1.1789 -0.3516  1.1056
  760MOL0     H 2590   9.333   6.260   4.715 -0.1424  1.7668  4.4887
  760MOL0     H 2591   9.352   6.429   4.671  2.9575  0.6666 -0.0718
  760MOL0     H 2592   9.599   6.396   4.757 -0.7177 -1.9124 -4.5731
  760MOL0     H 2593   9.517   6.278   4.858 -2.7043  1.4993  3.5991
  760MOL0     H 2594   9.425   6.581   4.813 -3.9149 -0.0336  2.0331
  760MOL0     H 2595   9.347   6.469   4.913 -0.8725 -1.1683 -1.7726
  760MOL0     H 2596   9.631   6.598   5.178 -0.4731  2.7365 -0.5468
  760MOL0     H 2597   9.660   6.223   4.331 -0.2300  1.3150 -1.0232
  760MOL0     H 2598   9.984   6.156   4.225 -0.6158  1.4631  1.1950
  760MOL0     H 2599   9.921   6.037   4.347 -0.7104 -0.7107  0.3693
  760MOL0     H 2600   9.824   6.098   4.225  1.6387 -0.3740 -1.5845
  761MOL0     O 2601   9.600   8.952   6.924  0.6848 -0.5029  0.1311
  761MOL0     C 2602   9.645   8.955   7.036  0.7010  0.1023 -0.2627
  761MOL0     O 2603   9.614   9.052   7.135  0.5867 -0.2342  0.5709
  761MOL0     C 2604   9.550   9.170   7.079  0.3603  0.1950 -1.1094
  761MOL0     C 2605   9.607   9.247   6.977 -0.1507  0.8216 -0.4642
  761MOL0     C 2606   9.538   9.359   6.924  0.0899  0.1770  0.0557
  761MOL0     C 2607   9.417   9.401   6.969  1.0487 -0.5725  0.0281
  761MOL0     O 2608   9.335   9.493   6.901 -0.1977  1.1003 -0.6762
  761MOL0     C 2609   9.398   9.600   6.825  0.8905  0.2878  0.3244
  761MOL0     C 2610   9.283   9.692   6.796  0.5681  0.4016 -0.1570
  761MOL0     C 2611   9.321   9.810   6.706  0.5321 -0.0182  0.5453
  761MOL0     C 2612   9.195   9.888   6.677  0.2342  1.0671 -0.3059
  761MOL0     C 2613   9.232  10.025   6.618 -0.1352  0.1738 -1.2450
  761MOL0     C 2614   9.090  10.095   6.604 -0.8267  0.5612 -0.2742
  761MOL0     C 2615   9.091  10.211   6.497  0.3113 -0.3059 -0.3106
  761MOL0     C 2616   9.190  10.325   6.538 -0.2654 -0.0322  0.2514
  761MOL0     N 2617   9.138  10.458   6.497  0.4039 -0.0208  0.5154
  761MOL0     C 2618   9.092  10.482   6.368  0.1179  0.5100 -0.3797
  761MOL0     C 2619   9.038  10.602   6.386  0.3500 -0.1069  1.1355
  761MOL0     C 2620   8.980  10.695   6.275 -0.5934  0.0425 -0.1960
  761MOL0     C 2621   9.096  10.764   6.203 -0.0606 -0.4048  0.1521
  761MOL0     C 2622   9.042  10.875   6.114 -0.4736 -1.0361 -0.5542
  761MOL0     C 2623   8.915  10.850   6.020 -0.7235  0.5957  0.6214
  761MOL0     O 2624   8.792  10.861   6.094 -0.1115 -0.4140  0.0916
  761MOL0     C 2625   8.676  10.829   6.027  0.3186  0.0620  0.0659
  761MOL0     C 2626   8.566  10.831   6.110 -0.1395 -0.6038 -0.2738
  761MOL0     C 2627   8.435  10.808   6.062 -0.0647  0.3711 -0.1783
  761MOL0     C 2628   8.414  10.782   5.930  0.6406  0.1657  0.2445
  761MOL0     C 2629   8.281  10.752   5.888  0.1083 -0.7066  0.7128
  761MOL0     O 2630   8.257  10.736   5.763 -0.2513 -0.2370  0.4466
  761MOL0     C 2631   8.139  10.729   5.706  1.0276  0.6053 -0.0892
  761MOL0     C 2632   8.017  10.771   5.762  0.7833 -0.1900  0.7252
  761MOL0     C 2633   7.900  10.768   5.679  0.0339 -0.2739 -0.1617
  761MOL0     C 2634   7.900  10.709   5.552 -0.0105 -0.2930  0.1821
  761MOL0     O 2635   7.788  10.720   5.472 -0.3198  0.4053  0.5772
  761MOL0     C 2636   7.756  10.618   5.368 -0.3012  0.4789 -0.4733
  761MOL0     C 2637   7.746  10.476   5.449 -0.4275 -0.5895 -0.2144
  761MOL0     C 2638   7.653  10.383   5.383 -0.2645  0.3011 -0.1371
  761MOL0     C 2639   7.641  10.246   5.464 -0.2690  0.3998 -0.4043
  761MOL0     C 2640   7.545  10.153   5.388 -0.1247  0.1101  0.1302
  761MOL0     C 2641   7.392  10.190   5.375  0.0352  0.0513 -0.6200
  761MOL0     C 2642   7.343  10.110   5.257 -0.4235  0.1899  0.2994
  761MOL0     C 2643   7.196  10.159   5.233  0.3025 -0.4867 -0.3931
  761MOL0    Cl 2644   7.126  10.087   5.084 -0.3372  0.2272 -0.0385
  761MOL0     C 2645   8.027  10.671   5.502  0.1872  0.0851 -1.3712
  761MOL0     C 2646   8.145  10.678   5.578 -0.6353  0.3071  0.1971
  761MOL0     O 2647   8.200  10.737   5.977 -0.2057  1.0375  0.3585
  761MOL0     C 2648   8.526  10.785   5.836 -0.0498 -0.2376  0.1431
  761MOL0     C 2649   8.652  10.808   5.888 -0.3203  0.7140  1.2558
  761MOL0     N 2650   9.024  10.634   6.516  0.2245  0.1512  0.4255
  761MOL0     N 2651   9.084  10.544   6.588  0.8425 -0.0711 -0.4901
  761MOL0     C 2652   9.360   9.314   7.062  0.5244 -0.5437 -0.3008
  761MOL0     C 2653   9.429   9.206   7.126 -0.4784 -0.1815  0.2744
  761MOL0     C 2654   9.735   8.847   7.077 -0.2823 -0.3187  0.4829
  761MOL0     C 2655   9.812   8.877   7.191 -0.3743  0.6605  0.4709
  761MOL0     C 2656   9.913   8.797   7.240 -0.1418 -0.2092 -0.4869
  761MOL0     C 2657   9.931   8.666   7.184  0.1729  1.4039  0.3271
  761MOL0     O 2658  10.007   8.558   7.218 -0.6950 -0.1598 -0.5122
  761MOL0     C 2659  10.083   8.571   7.339 -0.2830 -0.2715  0.0706
  761MOL0     C 2660  10.221   8.629   7.318 -0.8020  0.8097  0.6241
  761MOL0     C 2661  10.294   8.638   7.444 -0.7124  0.6642 -0.1130
  761MOL0     C 2662  10.420   8.721   7.433 -0.2538 -0.6189 -0.9528
  761MOL0     C 2663  10.522   8.708   7.541 -0.8966 -0.5053 -0.2656
  761MOL0     C 2664  10.610   8.689   7.617 -0.0522  0.1484  0.7642
  761MOL0     C 2665   9.853   8.642   7.067  0.0891 -0.6276  0.4329
  761MOL0     C 2666   9.763   8.727   7.005  0.2011 -0.3624 -0.8753
  761MOL0     C 2667   9.701   8.676   6.884  0.4320  0.0514  0.0485
  761MOL0     H 2668   9.705   9.211   6.945  0.9556  3.3688 -0.2210
  761MOL0     H 2669   9.584   9.405   6.837 -0.2879  0.6294  0.0907
  761MOL0     H 2670   9.470   9.648   6.892 -1.5800 -0.5042  3.8052
  761MOL0     H 2671   9.450   9.568   6.735  0.4411 -0.2938  0.2616
  761MOL0     H 2672   9.230   9.719   6.887 -0.2876 -0.0608 -0.5093
  761MOL0     H 2673   9.212   9.628   6.744  1.8665  0.5236 -2.2345
  761MOL0     H 2674   9.360   9.768   6.613 -0.5430  0.7334 -0.2634
  761MOL0     H 2675   9.402   9.870   6.748 -0.8746  2.3095  0.1216
  761MOL0     H 2676   9.136   9.826   6.609  1.2108 -1.8192  1.3035
  761MOL0     H 2677   9.132   9.899   6.766 -0.0403  0.0009 -0.3572
  761MOL0     H 2678   9.306  10.077   6.680  0.0592 -1.5164  0.0181
  761MOL0     H 2679   9.268   9.999   6.518  2.2846 -2.6224  0.1795
  761MOL0     H 2680   9.017  10.021   6.572 -0.3132 -0.3120  0.5190
  761MOL0     H 2681   9.064  10.136   6.702  0.8190 -0.5128  0.6693
  761MOL0     H 2682   8.993  10.257   6.487  0.7114  0.9913  1.2185
  761MOL0     H 2683   9.122  10.169   6.400 -0.1614 -0.2780 -0.4762
  761MOL0     H 2684   9.205  10.320   6.646 -5.4367  0.8252  1.2659
  761MOL0     H 2685   9.289  10.308   6.494 -1.3179 -1.7836 -1.6234
  761MOL0     H 2686   9.105  10.423   6.278  0.7979 -1.3018  0.8387
  761MOL0     H 2687   8.927  10.632   6.203  1.5840  1.2913 -3.1104
  761MOL0     H 2688   8.920  10.776   6.319 -1.3427  0.6067 -2.1481
  761MOL0     H 2689   9.174  10.815   6.260  0.4484  2.0700 -2.5398
  761MOL0     H 2690   9.139  10.680   6.148 -0.5816 -1.6675  1.5746
  761MOL0     H 2691   9.123  10.907   6.048 -0.1756 -0.3107  0.1585
  761MOL0     H 2692   9.028  10.961   6.181  2.3411 -1.1645  0.3033
  761MOL0     H 2693   8.914  10.750   5.975 -2.7073  1.1679 -0.7455
  761MOL0     H 2694   8.911  10.928   5.944  0.2250 -0.3685 -0.4621
  761MOL0     H 2695   8.583  10.860   6.214 -2.5803  1.0580 -0.2541
  761MOL0     H 2696   8.349  10.808   6.129 -0.7898 -1.5380 -1.0479
  761MOL0     H 2697   8.005  10.821   5.857 -5.2874 -1.8884  1.2317
  761MOL0     H 2698   7.810  10.797   5.732  0.4689 -1.8457  1.4989
  761MOL0     H 2699   7.666  10.638   5.309 -0.4913 -1.8791 -1.0843
  761MOL0     H 2700   7.842  10.606   5.301  1.4237 -0.6099  1.8131
  761MOL0     H 2701   7.848  10.438   5.443  0.2190  1.0772 -0.2507
  761MOL0     H 2702   7.718  10.481   5.555 -1.7520 -0.1821 -0.5575
  761MOL0     H 2703   7.551  10.424   5.373 -0.8257 -0.7190  1.1262
  761MOL0     H 2704   7.687  10.353   5.284 -0.5359 -1.4101  0.2557
  761MOL0     H 2705   7.607  10.271   5.565  0.2610  2.0281 -0.6006
  761MOL0     H 2706   7.741  10.201   5.457 -0.9460 -0.9027 -3.3512
  761MOL0     H 2707   7.548  10.056   5.439  1.7827 -0.8079 -1.5674
  761MOL0     H 2708   7.594  10.142   5.291  2.2449  1.4436  1.0831
  761MOL0     H 2709   7.337  10.141   5.456  0.3683 -1.8673 -1.4896
  761MOL0     H 2710   7.375  10.297   5.362  2.8445  0.6970  0.2328
  761MOL0     H 2711   7.347  10.005   5.288  2.0009  0.4787  1.2585
  761MOL0     H 2712   7.406  10.109   5.168 -0.4569 -1.5567  0.2629
  761MOL0     H 2713   7.134  10.143   5.322  2.3496  0.7870  1.3816
  761MOL0     H 2714   7.201  10.267   5.216  1.6618 -0.7135 -1.6729
  761MOL0     H 2715   8.037  10.644   5.397 -1.7060 -0.1441 -1.5227
  761MOL0     H 2716   8.241  10.646   5.538 -1.6868 -1.7021 -0.9033
  761MOL0     H 2717   8.517  10.752   5.733 -2.1602 -1.3222  0.6021
  761MOL0     H 2718   8.738  10.798   5.822  1.9066 -2.4573  4.3208
  761MOL0     H 2719   9.263   9.350   7.096  0.9891  3.2454 -2.5241
  761MOL0     H 2720   9.377   9.133   7.187  0.1505 -1.1287 -0.2979
  761MOL0     H 2721   9.807   8.974   7.240  0.8528  1.5867 -1.1359
  761MOL0     H 2722   9.970   8.826   7.327  2.6566 -3.5814 -0.9980
  761MOL0     H 2723  10.092   8.468   7.374 -0.9444 -0.2932  0.1769
  761MOL0     H 2724  10.041   8.644   7.409  1.9533 -0.4358  1.6891
  761MOL0     H 2725  10.222   8.727   7.271  5.3699  0.1366 -1.5049
  761MOL0     H 2726  10.282   8.569   7.249 -0.9113  1.1787  0.2047
  761MOL0     H 2727  10.303   8.534   7.477 -0.6718 -0.2669 -2.7819
  761MOL0     H 2728  10.228   8.679   7.521 -1.1253 -1.6101  0.8287
  761MOL0     H 2729  10.477   8.695   7.343  2.0788 -2.9008  1.0450
  761MOL0     H 2730  10.398   8.826   7.412  2.6861  0.5314  1.0228
  761MOL0     H 2731  10.695   8.673   7.680  0.3745 -0.3489  0.0756
  761MOL0     H 2732   9.868   8.543   7.024  0.4777 -0.2572 -0.3006
  761MOL0     H 2733   9.729   8.739   6.799  1.8159  0.4750  0.7961
  761MOL0     H 2734   9.736   8.575   6.860 -1.9140 -0.6903 -0.5335
  761MOL0     H 2735   9.592   8.668   6.888  0.4078 -0.0025 -0.6050
  762MOL0     O 2736   5.626   4.313   4.123 -0.8533 -0.4823  0.5048
  762MOL0     C 2737   5.532   4.382   4.144 -0.1005 -0.2911 -0.0867
  762MOL0     O 2738   5.488   4.491   4.056 -0.0596  0.3348 -1.1365
  762MOL0     C 2739   5.540   4.505   3.928 -0.2146 -0.8430 -0.0463
  762MOL0     C 2740   5.558   4.632   3.885 -0.0965 -0.1573 -0.2533
  762MOL0     C 2741   5.628   4.667   3.776  1.2198 -1.0132  0.1975
  762MOL0     C 2742   5.705   4.568   3.709 -0.2277  0.0794 -0.0696
  762MOL0     O 2743   5.798   4.592   3.608 -0.3001  0.5345  1.1983
  762MOL0     C 2744   5.832   4.727   3.577  0.1770 -0.1019  0.0003
  762MOL0     C 2745   5.920   4.729   3.450  0.7157 -0.9368  1.0800
  762MOL0     C 2746   6.064   4.665   3.474  0.0174 -0.3922 -0.0187
  762MOL0     C 2747   6.143   4.645   3.346  0.2679 -0.4158  0.4465
  762MOL0     C 2748   6.291   4.603   3.352  0.4673 -0.0221  0.6206
  762MOL0     C 2749   6.335   4.614   3.208 -0.3244  0.8079 -0.7103
  762MOL0     C 2750   6.478   4.561   3.191 -0.2893 -0.3027  0.6266
  762MOL0     C 2751   6.488   4.408   3.193  0.1200  0.0431 -0.3443
  762MOL0     N 2752   6.631   4.356   3.204  0.1835 -0.8474  0.1367
  762MOL0     C 2753   6.691   4.293   3.099  0.1409  0.6203 -0.6506
  762MOL0     C 2754   6.819   4.272   3.145 -0.0781 -0.4033 -0.0711
  762MOL0     C 2755   6.921   4.197   3.062 -0.0870 -0.1355 -0.4052
  762MOL0     C 2756   6.900   4.045   3.052 -1.0508 -0.5624 -0.1231
  762MOL0     C 2757   6.924   3.983   3.187  0.5351  0.2952 -0.3784
  762MOL0     C 2758   7.073   3.965   3.224 -1.4112  0.8450 -0.4497
  762MOL0     O 2759   7.120   3.832   3.173 -0.2829  0.5784 -0.3364
  762MOL0     C 2760   7.253   3.796   3.198 -1.0658 -0.1399  0.5692
  762MOL0     C 2761   7.271   3.667   3.245 -0.0888 -0.4572  1.2828
  762MOL0     C 2762   7.400   3.608   3.247 -0.5862 -0.3489  0.1549
  762MOL0     C 2763   7.514   3.692   3.235 -0.2750  0.8664 -0.5381
  762MOL0     C 2764   7.647   3.639   3.272 -0.9918  0.8065 -0.4900
  762MOL0     O 2765   7.745   3.732   3.255  0.4896 -0.0494  0.0552
  762MOL0     C 2766   7.874   3.699   3.237 -0.0905  0.7045 -0.2530
  762MOL0     C 2767   7.921   3.569   3.213 -0.8029 -0.4083  0.6139
  762MOL0     C 2768   8.059   3.540   3.212  1.2625  0.0784 -0.1307
  762MOL0     C 2769   8.152   3.649   3.215  0.8838 -0.1181  0.4022
  762MOL0     O 2770   8.285   3.631   3.224 -0.8315 -0.3720  0.0981
  762MOL0     C 2771   8.346   3.498   3.207  0.4024  0.2694 -0.0516
  762MOL0     C 2772   8.490   3.519   3.240 -0.3532  0.0337  0.3978
  762MOL0     C 2773   8.575   3.401   3.200  0.3659 -0.5147  0.3132
  762MOL0     C 2774   8.725   3.418   3.210  0.2903 -0.4413  1.4879
  762MOL0     C 2775   8.806   3.291   3.179  0.2118 -0.2324 -0.1547
  762MOL0     C 2776   8.847   3.272   3.034 -0.0269  0.6561 -0.5654
  762MOL0     C 2777   8.965   3.169   3.038  1.1319  0.5197  0.7576
  762MOL0     C 2778   8.975   3.122   2.892 -0.7599  0.2408  0.4693
  762MOL0    Cl 2779   8.857   2.985   2.876 -0.5032 -0.0251 -0.3141
  762MOL0     C 2780   8.101   3.784   3.237 -0.4532 -0.0666 -0.3445
  762MOL0     C 2781   7.960   3.804   3.255 -0.9264 -0.3254 -0.4199
  762MOL0     O 2782   7.666   3.528   3.321 -0.2405  0.4386 -0.2842
  762MOL0     C 2783   7.492   3.826   3.194  0.0172  1.1455  0.2324
  762MOL0     C 2784   7.363   3.878   3.166 -0.7016 -0.2331 -0.9319
  762MOL0     N 2785   6.829   4.336   3.269  0.4773  0.3176  0.6252
  762MOL0     N 2786   6.716   4.387   3.305 -0.0907  0.0025 -0.5416
  762MOL0     C 2787   5.682   4.430   3.745 -0.1088 -0.0619 -0.7692
  762MOL0     C 2788   5.592   4.401   3.851  0.0123 -0.2366 -0.1860
  762MOL0     C 2789   5.427   4.369   4.250 -1.1679  1.0414 -0.1783
  762MOL0     C 2790   5.325   4.468   4.256  0.4401 -0.8207 -0.0902
  762MOL0     C 2791   5.211   4.448   4.342 -0.6310  0.1822  0.0584
  762MOL0     C 2792   5.205   4.337   4.427  0.4133 -0.5323 -0.9385
  762MOL0     O 2793   5.109   4.319   4.528 -0.7307 -0.0247 -0.0907
  762MOL0     C 2794   4.973   4.335   4.488 -1.1545  0.1974  0.0833
  762MOL0     C 2795   4.925   4.468   4.557  0.3902 -0.3645 -0.1555
  762MOL0     C 2796   4.845   4.561   4.455  0.6251  0.6680 -0.2239
  762MOL0     C 2797   4.816   4.682   4.531 -0.2423  0.3115  0.4120
  762MOL0     C 2798   4.735   4.761   4.445  0.5372  0.5299 -0.0322
  762MOL0     C 2799   4.650   4.808   4.375 -0.1956  0.0422  0.2883
  762MOL0     C 2800   5.310   4.249   4.439 -0.3781 -0.5399  0.2016
  762MOL0     C 2801   5.413   4.257   4.336 -0.8933  1.0015  0.0258
  762MOL0     C 2802   5.516   4.152   4.356  0.8666  0.7700 -0.2410
  762MOL0     H 2803   5.513   4.713   3.943 -0.1969 -1.3633  1.4404
  762MOL0     H 2804   5.630   4.774   3.756  1.7546 -0.5498  2.4996
  762MOL0     H 2805   5.745   4.792   3.558  1.4060  1.7591  0.5346
  762MOL0     H 2806   5.879   4.773   3.664  1.8025 -0.1634 -0.8122
  762MOL0     H 2807   5.937   4.832   3.417  0.1503 -1.8929 -2.6593
  762MOL0     H 2808   5.870   4.686   3.363 -0.1040 -1.5619  1.8477
  762MOL0     H 2809   6.058   4.567   3.521  0.2556 -1.5530 -2.2852
  762MOL0     H 2810   6.122   4.730   3.541 -0.5761 -0.0950  0.2145
  762MOL0     H 2811   6.091   4.574   3.281  2.0965 -0.6322 -0.8600
  762MOL0     H 2812   6.139   4.742   3.297  4.1628 -0.3106  0.0123
  762MOL0     H 2813   6.347   4.658   3.428 -0.0988  0.2571  0.8381
  762MOL0     H 2814   6.298   4.497   3.381 -2.2379  0.1136  2.0647
  762MOL0     H 2815   6.269   4.554   3.145  1.8197 -0.4546 -1.8859
  762MOL0     H 2816   6.325   4.716   3.171 -3.1908  0.3953 -1.3127
  762MOL0     H 2817   6.540   4.589   3.276  1.5707  0.6334 -0.9473
  762MOL0     H 2818   6.518   4.600   3.096 -0.1988 -0.2393  0.6906
  762MOL0     H 2819   6.444   4.375   3.288 -2.8109 -1.1965 -1.9725
  762MOL0     H 2820   6.439   4.357   3.110  0.4281 -1.3570  0.3008
  762MOL0     H 2821   6.645   4.253   3.009 -4.8272 -0.1710  1.8724
  762MOL0     H 2822   6.924   4.241   2.962  0.5537  0.9071  0.0511
  762MOL0     H 2823   7.012   4.219   3.119 -1.7325 -0.0608  2.3671
  762MOL0     H 2824   6.800   4.016   3.018 -1.3977  1.1438 -0.6231
  762MOL0     H 2825   6.982   4.004   2.992  0.7200 -1.8564  2.9557
  762MOL0     H 2826   6.886   3.881   3.175  3.5394 -0.9406 -0.4502
  762MOL0     H 2827   6.887   4.034   3.276  2.5934  0.2161  0.5805
  762MOL0     H 2828   7.099   3.962   3.330 -1.1914  1.4628 -0.4845
  762MOL0     H 2829   7.124   4.049   3.176  2.0925 -0.0455  1.3793
  762MOL0     H 2830   7.200   3.597   3.289  0.5587  1.1714  5.4627
  762MOL0     H 2831   7.403   3.500   3.261 -0.7282 -0.7966 -2.7022
  762MOL0     H 2832   7.857   3.486   3.187 -1.5152  0.5334 -0.7585
  762MOL0     H 2833   8.091   3.436   3.207 -1.1991 -0.6845 -1.7313
  762MOL0     H 2834   8.306   3.433   3.285  0.8172  0.0410 -0.0276
  762MOL0     H 2835   8.341   3.461   3.105  2.4900 -0.0110 -0.0913
  762MOL0     H 2836   8.533   3.606   3.190 -3.3472  0.9640 -0.7558
  762MOL0     H 2837   8.504   3.537   3.347 -2.7938 -3.8028  1.5576
  762MOL0     H 2838   8.538   3.312   3.252  0.9176 -1.3837 -0.7355
  762MOL0     H 2839   8.548   3.378   3.096 -0.8086  1.2943  0.1695
  762MOL0     H 2840   8.760   3.469   3.300 -1.2846  0.4088  1.6416
  762MOL0     H 2841   8.760   3.489   3.134 -0.9732 -2.1347 -0.8147
  762MOL0     H 2842   8.761   3.199   3.218 -2.0885 -0.0164 -2.0883
  762MOL0     H 2843   8.897   3.312   3.236 -0.1307  1.9967 -0.3554
  762MOL0     H 2844   8.759   3.231   2.983 -1.3264 -0.3004  2.2654
  762MOL0     H 2845   8.870   3.365   2.981 -0.9740  2.1426  1.4959
  762MOL0     H 2846   8.948   3.099   3.120 -1.7481  0.1864 -0.0206
  762MOL0     H 2847   9.066   3.207   3.057  1.3902  0.7181 -0.8970
  762MOL0     H 2848   8.953   3.202   2.820 -1.0486 -1.4770 -1.4240
  762MOL0     H 2849   9.076   3.083   2.881 -1.1329 -1.7536  3.0431
  762MOL0     H 2850   8.168   3.868   3.223 -0.4946 -0.2725 -1.9780
  762MOL0     H 2851   7.920   3.904   3.262  1.0227  0.5157 -0.8684
  762MOL0     H 2852   7.581   3.887   3.180 -0.1882  1.3339 -0.3127
  762MOL0     H 2853   7.351   3.974   3.117 -2.1522 -1.2161 -2.6008
  762MOL0     H 2854   5.736   4.350   3.695  0.2020  0.2649 -0.9645
  762MOL0     H 2855   5.582   4.295   3.874 -1.1733 -1.0179 -3.6469
  762MOL0     H 2856   5.330   4.555   4.192 -1.8238  0.2115  1.0487
  762MOL0     H 2857   5.133   4.523   4.346 -3.2450 -2.1406 -2.9428
  762MOL0     H 2858   4.909   4.252   4.521  1.3283 -1.4294  1.2108
  762MOL0     H 2859   4.959   4.342   4.380  3.5246  1.2778 -0.6914
  762MOL0     H 2860   5.005   4.514   4.615  0.7725 -1.4298  0.1896
  762MOL0     H 2861   4.853   4.441   4.636  2.2048  2.6433  2.7740
  762MOL0     H 2862   4.757   4.509   4.418  0.2853 -0.0641  1.4921
  762MOL0     H 2863   4.908   4.591   4.371  0.9239  3.2272  0.8170
  762MOL0     H 2864   4.758   4.672   4.623 -1.4391  2.1677 -0.0861
  762MOL0     H 2865   4.904   4.737   4.565 -1.1815  0.5792  2.5789
  762MOL0     H 2866   4.574   4.846   4.310 -1.2414 -1.0155  0.8595
  762MOL0     H 2867   5.311   4.171   4.514 -2.3245  1.6775  2.7537
  762MOL0     H 2868   5.602   4.204   4.399 -0.3304  0.3876  2.9231
  762MOL0     H 2869   5.493   4.081   4.436  1.6980 -0.2916 -0.9183
  762MOL0     H 2870   5.546   4.101   4.264 -3.1001 -1.8397 -0.3475
  763MOL0     O 2871   5.243   8.673   9.704  0.0403 -1.0460  0.3754
  763MOL0     C 2872   5.164   8.662   9.610 -0.0244  0.5538  0.6246
  763MOL0     O 2873   5.201   8.662   9.477  0.3156  0.4155  0.0924
  763MOL0     C 2874   5.314   8.722   9.435  0.1873  0.5544  0.2191
  763MOL0     C 2875   5.302   8.807   9.327  0.2113 -0.4023  0.0180
  763MOL0     C 2876   5.411   8.863   9.258  0.8861  1.2872  0.8015
  763MOL0     C 2877   5.538   8.828   9.296  0.0057  0.1944  0.5436
  763MOL0     O 2878   5.633   8.860   9.200 -0.1808 -0.7138 -0.6864
  763MOL0     C 2879   5.671   8.995   9.195 -0.2203  0.7309 -0.5540
  763MOL0     C 2880   5.729   9.025   9.329 -0.6810 -0.5154 -0.2792
  763MOL0     C 2881   5.768   9.177   9.340  0.2858  0.6291  0.4164
  763MOL0     C 2882   5.833   9.245   9.226  0.5093 -0.5798  0.6657
  763MOL0     C 2883   5.980   9.200   9.194  0.8838  0.2559 -0.2872
  763MOL0     C 2884   6.052   9.295   9.100 -0.2971 -0.0022 -0.8561
  763MOL0     C 2885   6.037   9.448   9.132  1.2123 -0.8863  0.4285
  763MOL0     C 2886   6.160   9.510   9.061 -0.2879 -0.0253 -0.4186
  763MOL0     N 2887   6.286   9.506   9.138 -1.0117 -0.5431 -1.0462
  763MOL0     C 2888   6.393   9.413   9.107  0.4550 -0.7154  0.7486
  763MOL0     C 2889   6.493   9.466   9.187  0.9307 -0.3701 -0.9597
  763MOL0     C 2890   6.634   9.434   9.171 -0.2143 -0.2316  0.3864
  763MOL0     C 2891   6.714   9.548   9.105  0.3979 -0.3565 -0.5957
  763MOL0     C 2892   6.811   9.498   9.004 -0.0665  0.4689  0.2899
  763MOL0     C 2893   6.769   9.416   8.873  0.2999 -0.2017  0.0005
  763MOL0     O 2894   6.792   9.482   8.742 -0.4336  0.0631  0.4672
  763MOL0     C 2895   6.916   9.481   8.683 -0.2954  0.0370 -0.8343
  763MOL0     C 2896   7.032   9.419   8.745 -0.3103 -0.1407 -0.0068
  763MOL0     C 2897   7.154   9.393   8.668  0.2140 -0.5706 -0.5869
  763MOL0     C 2898   7.167   9.446   8.546  0.8309  0.3987  0.6906
  763MOL0     C 2899   7.290   9.417   8.457 -1.1541  0.7444 -1.1852
  763MOL0     O 2900   7.360   9.302   8.479  0.1865 -0.1473  0.1482
  763MOL0     C 2901   7.477   9.270   8.422 -0.5515 -0.2638  0.1621
  763MOL0     C 2902   7.551   9.186   8.499  0.5298  0.4797  0.3764
  763MOL0     C 2903   7.677   9.157   8.449 -0.3985 -0.1079 -0.1748
  763MOL0     C 2904   7.726   9.185   8.318 -0.4395  0.4740 -0.3050
  763MOL0     O 2905   7.858   9.154   8.269 -0.0920  0.1691  0.5072
  763MOL0     C 2906   7.912   9.033   8.317  0.1547  0.4394  0.3024
  763MOL0     C 2907   8.051   9.002   8.276 -0.0618  0.7835 -0.1741
  763MOL0     C 2908   8.151   9.098   8.352 -0.4680  0.4059 -0.2038
  763MOL0     C 2909   8.301   9.079   8.308 -0.3214 -0.4561  0.4195
  763MOL0     C 2910   8.345   9.186   8.202 -0.6110  0.0516  0.6718
  763MOL0     C 2911   8.495   9.156   8.182  0.3392 -0.5134  0.5475
  763MOL0     C 2912   8.574   9.264   8.110  0.5598  0.1018 -0.5354
  763MOL0     C 2913   8.703   9.222   8.050 -0.3158 -0.6009 -0.0979
  763MOL0    Cl 2914   8.677   9.128   7.905  0.0122 -0.0848 -0.1917
  763MOL0     C 2915   7.642   9.263   8.237 -0.3868 -0.6474 -0.6390
  763MOL0     C 2916   7.517   9.302   8.290  0.3738 -0.6590  0.4168
  763MOL0     O 2917   7.323   9.498   8.372 -0.0977  0.3256 -0.0771
  763MOL0     C 2918   7.065   9.526   8.499  0.0710 -0.4332  0.8455
  763MOL0     C 2919   6.930   9.529   8.551 -0.5684 -0.5713  0.1178
  763MOL0     N 2920   6.447   9.566   9.269  0.1032  1.3653  0.6293
  763MOL0     N 2921   6.323   9.582   9.247 -0.1868 -0.9272 -0.8481
  763MOL0     C 2922   5.552   8.741   9.406 -0.1699 -0.2178 -0.0175
  763MOL0     C 2923   5.441   8.688   9.475 -0.6387 -0.2197 -0.6271
  763MOL0     C 2924   5.027   8.612   9.648 -0.1126  0.2856 -0.0404
  763MOL0     C 2925   4.967   8.510   9.571 -0.2784  0.8500  0.2355
  763MOL0     C 2926   4.834   8.471   9.606  0.4047  0.8619  0.1117
  763MOL0     C 2927   4.765   8.528   9.709 -0.6396 -0.4472 -0.2400
  763MOL0     O 2928   4.639   8.510   9.760 -0.0227 -0.7229 -0.5688
  763MOL0     C 2929   4.554   8.418   9.699  0.8919 -0.5947 -0.1901
  763MOL0     C 2930   4.408   8.434   9.762  0.5839  0.1818 -1.1298
  763MOL0     C 2931   4.417   8.381   9.901 -0.9126 -0.1941 -0.7498
  763MOL0     C 2932   4.277   8.348   9.954 -0.7169  0.1030  0.4818
  763MOL0     C 2933   4.218   8.472   9.996  0.7673  0.3453  0.3698
  763MOL0     C 2934   4.152   8.578  10.013  0.7280  1.1127 -0.0082
  763MOL0     C 2935   4.834   8.616   9.793 -0.5379  0.9705  0.4374
  763MOL0     C 2936   4.968   8.660   9.765  0.4071 -0.3305  0.3479
  763MOL0     C 2937   5.003   8.782   9.845 -0.8404 -0.3799  0.1828
  763MOL0     H 2938   5.202   8.836   9.297  0.4433  1.1889  0.6639
  763MOL0     H 2939   5.390   8.915   9.165  0.1418 -3.5917 -2.1130
  763MOL0     H 2940   5.745   9.009   9.115  3.6693 -1.0224  2.4375
  763MOL0     H 2941   5.582   9.056   9.177 -1.4171 -0.2451  1.7334
  763MOL0     H 2942   5.819   8.964   9.342 -0.8948 -1.2280 -1.9153
  763MOL0     H 2943   5.663   8.999   9.412  0.3876 -2.0563  0.1332
  763MOL0     H 2944   5.839   9.189   9.422  0.1170 -0.7702  0.7932
  763MOL0     H 2945   5.678   9.235   9.365 -0.3321 -0.6289  1.2434
  763MOL0     H 2946   5.768   9.228   9.140 -0.9302  0.2023  1.5529
  763MOL0     H 2947   5.829   9.353   9.244 -1.3106 -0.2409 -1.3608
  763MOL0     H 2948   6.017   9.204   9.297 -1.1063 -0.8104  0.5284
  763MOL0     H 2949   5.971   9.101   9.150  3.1413  0.3370 -1.0413
  763MOL0     H 2950   6.160   9.284   9.107 -0.2657  0.2663 -0.9368
  763MOL0     H 2951   6.011   9.274   9.001  2.6116 -3.2706 -1.5546
  763MOL0     H 2952   6.028   9.483   9.235 -0.9882  1.2881 -0.4025
  763MOL0     H 2953   5.943   9.484   9.087  2.2220  0.4354 -0.6994
  763MOL0     H 2954   6.186   9.472   8.961  0.7321 -1.3074  0.2879
  763MOL0     H 2955   6.136   9.615   9.042  1.7254  0.0914 -2.8323
  763MOL0     H 2956   6.401   9.341   9.026 -1.5003 -1.3579  1.0565
  763MOL0     H 2957   6.679   9.416   9.269 -1.7807  0.5496  1.3014
  763MOL0     H 2958   6.652   9.338   9.122 -0.5943  0.4801 -1.2349
  763MOL0     H 2959   6.646   9.618   9.056  1.1208 -0.5728 -1.9757
  763MOL0     H 2960   6.761   9.608   9.183 -1.3642 -1.0420  1.0737
  763MOL0     H 2961   6.890   9.439   9.051  1.1708  0.4263 -1.7057
  763MOL0     H 2962   6.866   9.588   8.974 -2.8589  2.1394 -0.0940
  763MOL0     H 2963   6.664   9.389   8.886  0.6892 -0.7875  2.5831
  763MOL0     H 2964   6.816   9.317   8.876 -3.5725 -2.4185 -3.0983
  763MOL0     H 2965   7.036   9.364   8.839 -0.2554 -1.6171 -0.8394
  763MOL0     H 2966   7.238   9.344   8.715  1.9802  0.5133 -2.4485
  763MOL0     H 2967   7.531   9.158   8.602 -1.9840  1.0081  0.1032
  763MOL0     H 2968   7.743   9.103   8.515 -0.0669 -0.3071 -0.6625
  763MOL0     H 2969   7.921   9.042   8.426 -3.9135  3.6726  0.6483
  763MOL0     H 2970   7.848   8.948   8.289  2.0223 -1.3782  1.2426
  763MOL0     H 2971   8.085   8.900   8.299 -0.6812  0.6931  0.3809
  763MOL0     H 2972   8.064   9.016   8.169 -2.9033 -0.0737 -0.6996
  763MOL0     H 2973   8.118   9.200   8.329 -2.0855 -0.3537 -1.4985
  763MOL0     H 2974   8.150   9.075   8.458  1.6592  0.7138 -0.0717
  763MOL0     H 2975   8.308   8.975   8.276  0.5512 -0.1728 -0.3495
  763MOL0     H 2976   8.359   9.096   8.399  0.7730 -1.0091 -0.1561
  763MOL0     H 2977   8.334   9.279   8.259  1.0839  1.1685 -0.7436
  763MOL0     H 2978   8.282   9.175   8.113 -2.1154  1.8067  1.4554
  763MOL0     H 2979   8.551   9.140   8.275 -0.0938  0.1376  0.9251
  763MOL0     H 2980   8.496   9.061   8.127 -2.2163 -1.1015  1.3603
  763MOL0     H 2981   8.595   9.344   8.181  1.7104 -0.4068 -0.2648
  763MOL0     H 2982   8.502   9.317   8.047 -2.3909 -0.9156  1.7616
  763MOL0     H 2983   8.768   9.306   8.025 -2.4220  1.1204 -0.0414
  763MOL0     H 2984   8.757   9.162   8.124 -0.6362  1.8166  2.2619
  763MOL0     H 2985   7.666   9.274   8.132 -0.5596 -1.6242 -0.7944
  763MOL0     H 2986   7.448   9.362   8.231 -0.4613 -1.0203  1.0127
  763MOL0     H 2987   7.085   9.576   8.404  0.3103  0.7946  1.5213
  763MOL0     H 2988   6.844   9.589   8.524  0.4855  1.6163  1.3462
  763MOL0     H 2989   5.649   8.694   9.420 -0.3452 -1.6296 -2.7996
  763MOL0     H 2990   5.449   8.601   9.539  1.5795  1.1225  1.0986
  763MOL0     H 2991   5.011   8.469   9.480  1.2415  3.2375 -0.1964
  763MOL0     H 2992   4.787   8.402   9.537  1.8197  2.3612 -2.4819
  763MOL0     H 2993   4.592   8.315   9.704 -0.7287 -1.2383 -0.4244
  763MOL0     H 2994   4.549   8.436   9.591 -2.1871 -0.9397 -0.1943
  763MOL0     H 2995   4.335   8.381   9.701 -1.6503  1.2384  0.4530
  763MOL0     H 2996   4.392   8.542   9.765  1.2532  0.2625  0.4941
  763MOL0     H 2997   4.475   8.443   9.970 -1.0530 -1.1273  0.2533
  763MOL0     H 2998   4.478   8.290   9.895 -0.2838  0.1617  0.0643
  763MOL0     H 2999   4.219   8.302   9.873 -0.0258 -2.7155  1.4514
  763MOL0     H 3000   4.293   8.276  10.035  0.5535 -2.7639 -2.1431
  763MOL0     H 3001   4.068   8.643  10.028 -2.2112 -2.4519  0.3594
  763MOL0     H 3002   4.772   8.662   9.870 -0.7794  1.4038 -0.0092
  763MOL0     H 3003   5.004   8.873   9.785 -1.1213  1.5061  2.8671
  763MOL0     H 3004   4.936   8.794   9.930  0.4986 -0.4158  1.2705
  763MOL0     H 3005   5.105   8.776   9.886 -0.9133 -1.9702  0.1965
  764MOL0     O 3006   6.670   5.657  10.579 -0.5544  0.3026  0.7402
  764MOL0     C 3007   6.610   5.761  10.606  0.1932  0.3368  0.2351
  764MOL0     O 3008   6.672   5.883  10.597 -0.4595 -0.6175  0.5461
  764MOL0     C 3009   6.801   5.894  10.532  0.4478 -0.1947  0.6023
  764MOL0     C 3010   6.911   5.881  10.602 -0.5619  0.4460 -0.1207
  764MOL0     C 3011   7.039   5.889  10.550 -0.1457  0.7059 -0.0647
  764MOL0     C 3012   7.059   5.939  10.418 -0.7631 -0.5171  0.1220
  764MOL0     O 3013   7.188   5.934  10.363 -0.8370 -0.8135 -0.2058
  764MOL0     C 3014   7.242   6.068  10.348  0.4462  0.3460 -0.3825
  764MOL0     C 3015   7.370   6.035  10.275 -0.3290  0.2823  0.4004
  764MOL0     C 3016   7.454   6.170  10.248 -0.1105 -0.2571 -0.0853
  764MOL0     C 3017   7.375   6.269  10.149 -0.4993 -0.1721 -0.3458
  764MOL0     C 3018   7.471   6.381  10.119 -0.0923  0.4406 -0.1055
  764MOL0     C 3019   7.479   6.413   9.973 -0.2352  0.2953  0.3742
  764MOL0     C 3020   7.597   6.507   9.943  0.3222  1.0302 -0.0398
  764MOL0     C 3021   7.572   6.599   9.822 -0.2472  0.1335 -0.0164
  764MOL0     N 3022   7.658   6.714   9.815 -0.5810 -0.4495  0.1794
  764MOL0     C 3023   7.651   6.828   9.891  0.1712 -0.8162  0.3166
  764MOL0     C 3024   7.772   6.879   9.874  0.5887  0.4040  0.6390
  764MOL0     C 3025   7.802   7.018   9.907  0.0785 -0.0135 -0.4397
  764MOL0     C 3026   7.811   7.051  10.058  0.2910  0.0361 -0.1505
  764MOL0     C 3027   7.824   7.200  10.083 -0.2648  0.2966  0.3718
  764MOL0     C 3028   7.865   7.223  10.233 -0.0251  0.1655 -0.1368
  764MOL0     O 3029   7.868   7.371  10.254 -0.2867 -0.3313  0.7859
  764MOL0     C 3030   7.974   7.442  10.198 -0.3983  1.2355 -1.1161
  764MOL0     C 3031   8.083   7.391  10.114 -0.5015  0.8466 -0.1532
  764MOL0     C 3032   8.177   7.483  10.058 -0.1574 -0.1016 -1.1947
  764MOL0     C 3033   8.164   7.624  10.083  0.2669  0.3303 -0.4588
  764MOL0     C 3034   8.261   7.728  10.040  0.9751  0.1738 -0.2680
  764MOL0     O 3035   8.225   7.858  10.021 -0.1715  0.8794  0.2084
  764MOL0     C 3036   8.318   7.956   9.995  0.0603  0.2100 -0.2890
  764MOL0     C 3037   8.413   7.946   9.891  0.0276 -0.2315  0.5941
  764MOL0     C 3038   8.501   8.060   9.871  0.1030  0.5343  0.0741
  764MOL0     C 3039   8.501   8.169   9.949 -0.2615 -0.5868 -0.5968
  764MOL0     O 3040   8.588   8.268   9.950  0.4863  0.0382  0.5556
  764MOL0     C 3041   8.525   8.387   9.903 -0.5297  0.5475 -0.3425
  764MOL0     C 3042   8.624   8.506   9.915  0.5842  0.9947  0.9473
  764MOL0     C 3043   8.707   8.523  10.044 -0.3451 -0.1877  0.5367
  764MOL0     C 3044   8.812   8.623  10.046 -0.1001  0.1944  0.9489
  764MOL0     C 3045   8.878   8.615  10.175 -0.8171  0.3807 -0.4161
  764MOL0     C 3046   8.977   8.729  10.209 -1.0037  0.3927 -0.0644
  764MOL0     C 3047   9.104   8.709  10.116 -0.0145 -0.1298  0.5810
  764MOL0     C 3048   9.219   8.808  10.152  0.8097  0.6103  0.3981
  764MOL0    Cl 3049   9.234   8.833  10.319 -0.0358  0.0135 -0.4619
  764MOL0     C 3050   8.411   8.176  10.057  1.0256  1.2706 -0.3517
  764MOL0     C 3051   8.320   8.077  10.079  0.3421  0.2699  0.5889
  764MOL0     O 3052   8.372   7.681  10.012  1.0787  0.0229  0.2354
  764MOL0     C 3053   8.050   7.664  10.160  0.6290  0.0409 -0.2619
  764MOL0     C 3054   7.957   7.578  10.219  0.1345 -0.5493 -0.1641
  764MOL0     N 3055   7.857   6.795   9.806  0.3239 -0.0083  0.1443
  764MOL0     N 3056   7.782   6.697   9.760  0.3395  0.2852  0.5932
  764MOL0     C 3057   6.951   5.956  10.339 -0.6630  0.1097 -0.9122
  764MOL0     C 3058   6.824   5.939  10.391  0.2018  0.0101 -0.4157
  764MOL0     C 3059   6.470   5.755  10.660  0.5138  0.1727 -0.8494
  764MOL0     C 3060   6.391   5.657  10.596  0.0502  0.7147 -0.1660
  764MOL0     C 3061   6.258   5.637  10.632 -0.2656 -0.4598 -0.3027
  764MOL0     C 3062   6.197   5.728  10.721 -0.3974 -0.7373 -0.0051
  764MOL0     O 3063   6.065   5.706  10.756 -0.7463  0.7271 -0.3294
  764MOL0     C 3064   5.979   5.816  10.738  0.0006  0.4651  0.2871
  764MOL0     C 3065   5.980   5.862  10.590  0.6454  0.0743  0.7540
  764MOL0     C 3066   6.037   6.002  10.587  0.7688 -0.5792 -0.2075
  764MOL0     C 3067   6.081   6.038  10.450 -0.4471 -0.6301  0.2112
  764MOL0     C 3068   5.969   6.077  10.364 -1.0088 -0.2497 -0.6234
  764MOL0     C 3069   5.871   6.103  10.299 -0.1090 -0.0324  0.1780
  764MOL0     C 3070   6.271   5.815  10.788 -0.4631 -0.4330 -1.2089
  764MOL0     C 3071   6.406   5.832  10.757 -0.3887 -0.1772 -0.4845
  764MOL0     C 3072   6.474   5.936  10.838 -0.9149 -0.2494  0.4352
  764MOL0     H 3073   6.898   5.861  10.708  3.9357  0.1163  0.5674
  764MOL0     H 3074   7.126   5.864  10.611  1.3288  0.2863 -2.2547
  764MOL0     H 3075   7.171   6.127  10.290 -0.0716  2.1832  1.9595
  764MOL0     H 3076   7.267   6.122  10.440 -1.9382  0.8358  0.0694
  764MOL0     H 3077   7.339   5.969  10.193 -0.2365  0.5390  0.1544
  764MOL0     H 3078   7.426   5.967  10.339  1.9292 -0.1495 -1.8527
  764MOL0     H 3079   7.552   6.142  10.208 -0.5494 -2.1164  0.0651
  764MOL0     H 3080   7.475   6.217  10.345  2.6302 -2.0348  0.3015
  764MOL0     H 3081   7.335   6.214  10.063 -2.5403  0.7555 -0.0318
  764MOL0     H 3082   7.299   6.317  10.210  1.5292  0.4584  1.8327
  764MOL0     H 3083   7.441   6.476  10.165  3.2198  1.7669 -0.3864
  764MOL0     H 3084   7.571   6.370  10.160 -0.5353 -0.6952  0.7074
  764MOL0     H 3085   7.499   6.327   9.908 -1.4396  2.1986 -2.7862
  764MOL0     H 3086   7.388   6.465   9.941  0.7043  0.5272 -2.2014
  764MOL0     H 3087   7.688   6.449   9.926  0.9909  1.5274  1.6949
  764MOL0     H 3088   7.612   6.568  10.032  0.6973 -2.0493  2.1714
  764MOL0     H 3089   7.584   6.551   9.724  0.6127 -0.9997  0.6278
  764MOL0     H 3090   7.469   6.636   9.829 -0.6597 -0.5581 -1.7053
  764MOL0     H 3091   7.560   6.858   9.943 -0.0082  2.9592 -1.8532
  764MOL0     H 3092   7.901   7.041   9.866  0.1193 -1.3605 -1.1262
  764MOL0     H 3093   7.731   7.084   9.857 -0.8307 -0.5593  0.1020
  764MOL0     H 3094   7.726   6.997  10.101  2.1926 -2.5589  0.5370
  764MOL0     H 3095   7.899   7.000  10.097 -0.2078 -0.4769  0.3167
  764MOL0     H 3096   7.726   7.246  10.063 -1.0872 -0.8861  1.5556
  764MOL0     H 3097   7.895   7.238  10.009 -2.1306 -1.3025 -2.4471
  764MOL0     H 3098   7.957   7.170  10.260 -0.7954 -0.0927  2.1998
  764MOL0     H 3099   7.787   7.180  10.297  1.1086 -1.1102  0.4331
  764MOL0     H 3100   8.092   7.285  10.093 -0.5416  1.0795 -1.4714
  764MOL0     H 3101   8.265   7.436  10.015  0.2811 -1.3488  0.8999
  764MOL0     H 3102   8.422   7.864   9.821 -0.9299  0.6774 -0.6417
  764MOL0     H 3103   8.580   8.045   9.798 -1.3600 -0.3086 -1.4173
  764MOL0     H 3104   8.495   8.368   9.799  1.4864  0.8241 -1.0241
  764MOL0     H 3105   8.436   8.395   9.966 -0.9686 -4.1448 -0.0142
  764MOL0     H 3106   8.693   8.470   9.838  1.2952  2.6913  0.7647
  764MOL0     H 3107   8.575   8.599   9.885  1.8740  0.8435 -1.9321
  764MOL0     H 3108   8.642   8.524  10.132 -1.2255 -2.2411 -0.0219
  764MOL0     H 3109   8.759   8.427  10.048  0.1835  0.0061 -1.0463
  764MOL0     H 3110   8.776   8.725  10.030  0.6249  0.5058  1.2364
  764MOL0     H 3111   8.891   8.603   9.973  0.9019  0.1439  2.0095
  764MOL0     H 3112   8.942   8.527  10.183 -3.0142 -1.3464 -0.9407
  764MOL0     H 3113   8.806   8.615  10.258 -1.2473 -0.0542 -0.7870
  764MOL0     H 3114   8.930   8.827  10.198  0.1479  1.0480  0.6624
  764MOL0     H 3115   9.004   8.717  10.314 -0.7850 -0.3641 -0.1933
  764MOL0     H 3116   9.061   8.726  10.017  1.7373 -0.5678 -0.2784
  764MOL0     H 3117   9.138   8.606  10.127 -0.1818 -0.1297  1.1743
  764MOL0     H 3118   9.312   8.781  10.101  0.4212  1.6741 -0.9358
  764MOL0     H 3119   9.201   8.910  10.117  1.6916 -0.2813 -3.1011
  764MOL0     H 3120   8.410   8.253  10.135  1.7939 -0.3326  1.3193
  764MOL0     H 3121   8.247   8.090  10.158  0.9759 -2.2402  1.6815
  764MOL0     H 3122   8.040   7.770  10.183 -0.4865 -0.1233  0.1015
  764MOL0     H 3123   7.869   7.608  10.275 -0.2179 -0.4125 -0.7799
  764MOL0     H 3124   6.976   6.001  10.243  0.6707  1.2359 -0.0707
  764MOL0     H 3125   6.737   5.939  10.326  1.0770 -1.6758 -1.6797
  764MOL0     H 3126   6.419   5.596  10.511  0.6425  4.1186 -2.6341
  764MOL0     H 3127   6.190   5.556  10.609 -3.6205  2.0870 -0.2192
  764MOL0     H 3128   6.018   5.890  10.809  0.0675  1.2492 -0.5548
  764MOL0     H 3129   5.878   5.784  10.764  0.5275 -1.0204  0.6411
  764MOL0     H 3130   5.875   5.860  10.559  0.5084  1.6834  1.0228
  764MOL0     H 3131   6.038   5.796  10.525  0.2835 -1.7535  2.2038
  764MOL0     H 3132   6.129   6.010  10.647 -0.4015  2.2441  1.3835
  764MOL0     H 3133   5.967   6.069  10.636  0.0487  0.2431 -2.2417
  764MOL0     H 3134   6.163   6.110  10.443 -0.7260 -0.4380 -1.8556
  764MOL0     H 3135   6.111   5.946  10.399 -0.7316  0.1108 -1.3754
  764MOL0     H 3136   5.806   6.103  10.214  1.3438 -0.7684 -0.9807
  764MOL0     H 3137   6.230   5.884  10.861  0.2450  0.9894 -2.1164
  764MOL0     H 3138   6.409   5.979  10.914  2.0116  3.0047  1.3659
  764MOL0     H 3139   6.550   5.895  10.906 -2.8208 -5.1421  0.0627
  764MOL0     H 3140   6.534   6.008  10.781 -0.1407 -0.2567  1.2130
  765MOL0     O 3141   6.947   0.894   5.072  0.4556  0.8783 -0.5618
  765MOL0     C 3142   6.944   0.807   5.155  0.3298  0.5602  0.0214
  765MOL0     O 3143   7.001   0.808   5.288  0.2789 -0.0708 -1.2140
  765MOL0     C 3144   7.087   0.914   5.320 -0.1953  0.0348 -0.1756
  765MOL0     C 3145   7.029   1.033   5.351  0.7351 -1.5877  0.0838
  765MOL0     C 3146   7.111   1.146   5.366  0.0684 -0.3272 -0.0863
  765MOL0     C 3147   7.248   1.142   5.356 -0.6950 -0.2385 -0.2296
  765MOL0     O 3148   7.315   1.256   5.362 -0.0148 -0.2424 -0.1178
  765MOL0     C 3149   7.457   1.255   5.382 -0.6528  0.6564 -0.1812
  765MOL0     C 3150   7.521   1.403   5.358  1.6193  1.1477  0.0566
  765MOL0     C 3151   7.650   1.427   5.431  0.2945  0.0292 -0.4709
  765MOL0     C 3152   7.736   1.544   5.404  0.0516  0.1894  0.5927
  765MOL0     C 3153   7.868   1.532   5.476 -0.1396  0.8045 -0.8445
  765MOL0     C 3154   7.965   1.653   5.439  0.0668  0.2080 -1.1086
  765MOL0     C 3155   8.105   1.621   5.443  0.1475 -0.3108 -0.6723
  765MOL0     C 3156   8.184   1.754   5.424 -0.2630  0.4357  0.9446
  765MOL0     N 3157   8.329   1.719   5.452  0.8954 -0.9781  0.6444
  765MOL0     C 3158   8.406   1.659   5.364 -0.5796 -0.1350 -0.3815
  765MOL0     C 3159   8.527   1.657   5.432 -0.8534  0.5926 -0.1393
  765MOL0     C 3160   8.653   1.593   5.378 -0.0430  0.4891  0.0854
  765MOL0     C 3161   8.778   1.650   5.455  0.5979 -0.5193 -0.2284
  765MOL0     C 3162   8.903   1.563   5.437  0.6632 -0.7939 -0.5006
  765MOL0     C 3163   9.045   1.618   5.482  0.1247  0.1315  0.2484
  765MOL0     O 3164   9.089   1.735   5.406 -0.0584 -0.0979 -0.3326
  765MOL0     C 3165   9.090   1.863   5.462 -0.3370  1.4560 -0.0207
  765MOL0     C 3166   9.028   1.891   5.585 -0.2599  0.3980  0.1053
  765MOL0     C 3167   9.066   2.007   5.655 -0.0096 -0.0417 -0.1162
  765MOL0     C 3168   9.142   2.108   5.592  0.6384  0.4630  0.4352
  765MOL0     C 3169   9.193   2.224   5.669 -0.3275  0.2882 -0.3031
  765MOL0     O 3170   9.151   2.241   5.800  0.9140  0.5760  0.0546
  765MOL0     C 3171   9.198   2.360   5.851 -0.4603 -0.0627  0.3198
  765MOL0     C 3172   9.318   2.358   5.931 -1.1342  0.2470  0.0632
  765MOL0     C 3173   9.378   2.470   5.982  0.2818 -0.3124 -0.9056
  765MOL0     C 3174   9.327   2.593   5.938 -0.6400  0.6009  1.2576
  765MOL0     O 3175   9.365   2.720   5.983  0.0075 -0.3604 -0.5514
  765MOL0     C 3176   9.445   2.734   6.104 -0.4347 -0.7531 -0.0192
  765MOL0     C 3177   9.599   2.716   6.076  0.0270  0.1641  0.4114
  765MOL0     C 3178   9.694   2.709   6.188 -0.0313 -0.4932 -0.3805
  765MOL0     C 3179   9.688   2.820   6.287 -0.1508 -0.2918 -0.3070
  765MOL0     C 3180   9.796   2.922   6.255  0.0955  0.4603 -0.2148
  765MOL0     C 3181   9.792   3.042   6.341 -0.4481  0.0421 -0.1856
  765MOL0     C 3182   9.832   2.997   6.490  0.1906  0.1197 -1.3991
  765MOL0     C 3183   9.923   3.101   6.561  0.5238  1.5478 -0.4022
  765MOL0    Cl 3184  10.082   3.124   6.481 -0.1141 -0.3769  0.7757
  765MOL0     C 3185   9.220   2.600   5.849 -0.2539 -0.5816  0.7243
  765MOL0     C 3186   9.163   2.486   5.804  1.3758  0.7030  0.2869
  765MOL0     O 3187   9.281   2.291   5.610 -0.5220  0.3769 -0.5208
  765MOL0     C 3188   9.192   2.083   5.463  0.6891  0.4310 -0.6192
  765MOL0     C 3189   9.156   1.965   5.395  0.0969  0.7274 -0.1139
  765MOL0     N 3190   8.510   1.702   5.561 -0.0129  0.1831  0.5391
  765MOL0     N 3191   8.384   1.724   5.571  0.2881  0.7004  0.2287
  765MOL0     C 3192   7.306   1.016   5.340  1.0288 -0.7607  0.7296
  765MOL0     C 3193   7.228   0.906   5.318  0.1356 -0.4907  0.0230
  765MOL0     C 3194   6.847   0.702   5.113  0.9049  0.3238 -0.3279
  765MOL0     C 3195   6.795   0.696   4.974 -0.1138  1.1417 -0.1021
  765MOL0     C 3196   6.698   0.597   4.940  0.0237  0.2706 -0.0838
  765MOL0     C 3197   6.628   0.519   5.037 -0.2985  0.1479 -0.2723
  765MOL0     O 3198   6.538   0.424   4.993  0.3874  0.7014 -0.3548
  765MOL0     C 3199   6.399   0.445   5.028 -0.1191  0.7712  0.0776
  765MOL0     C 3200   6.378   0.394   5.179 -0.6068  0.1079 -0.1495
  765MOL0     C 3201   6.264   0.296   5.205 -0.1160 -0.8852  0.0223
  765MOL0     C 3202   6.243   0.267   5.355  1.0466 -1.2364  0.3464
  765MOL0     C 3203   6.355   0.206   5.425 -0.5406  0.8989  0.5960
  765MOL0     C 3204   6.444   0.150   5.487  0.1334 -0.0101  0.4892
  765MOL0     C 3205   6.686   0.525   5.166 -0.2345  0.8437 -0.4842
  765MOL0     C 3206   6.792   0.611   5.210  0.1930 -0.0721 -0.0957
  765MOL0     C 3207   6.834   0.599   5.355  0.5885 -0.1337 -0.2075
  765MOL0     H 3208   6.921   1.036   5.364  0.7656  0.0736  0.2236
  765MOL0     H 3209   7.075   1.245   5.392 -0.2376  0.3314 -2.7454
  765MOL0     H 3210   7.478   1.214   5.481 -1.3200  0.5623 -0.0789
  765MOL0     H 3211   7.508   1.189   5.311 -2.1111 -1.4719  0.6787
  765MOL0     H 3212   7.457   1.485   5.393  2.2365  0.8056  2.0957
  765MOL0     H 3213   7.533   1.410   5.250 -2.3158 -3.8138 -1.0489
  765MOL0     H 3214   7.709   1.337   5.411 -1.1591 -0.9492 -0.5005
  765MOL0     H 3215   7.627   1.428   5.538  2.4022  2.6014  0.0676
  765MOL0     H 3216   7.754   1.538   5.296 -1.3326 -1.5650  0.4111
  765MOL0     H 3217   7.677   1.634   5.422 -0.1467  0.4660 -1.2811
  765MOL0     H 3218   7.840   1.544   5.581 -2.1309 -0.1488 -1.2055
  765MOL0     H 3219   7.908   1.433   5.455 -1.3603 -0.2466  1.4488
  765MOL0     H 3220   7.949   1.684   5.335 -0.7840 -1.7893 -1.6058
  765MOL0     H 3221   7.929   1.733   5.504 -2.6407  0.9179 -3.2787
  765MOL0     H 3222   8.127   1.543   5.370  0.2677 -3.0735  2.1196
  765MOL0     H 3223   8.124   1.579   5.542 -1.0447  2.8937  1.0712
  765MOL0     H 3224   8.163   1.790   5.323  0.6163 -2.5650 -0.4231
  765MOL0     H 3225   8.151   1.832   5.493  0.2945  1.1658  0.3999
  765MOL0     H 3226   8.392   1.633   5.259  1.0990  0.2668 -0.7319
  765MOL0     H 3227   8.643   1.486   5.396 -2.2427  0.4486 -1.0407
  765MOL0     H 3228   8.672   1.615   5.272  5.6618 -2.1998  0.1839
  765MOL0     H 3229   8.795   1.754   5.426  2.6090 -0.4262  1.0734
  765MOL0     H 3230   8.752   1.658   5.562  0.1245 -0.2011 -0.3613
  765MOL0     H 3231   8.902   1.539   5.330 -0.8995  1.7047 -1.1612
  765MOL0     H 3232   8.889   1.475   5.500 -2.9365 -1.5223 -2.0861
  765MOL0     H 3233   9.114   1.536   5.463  0.8626  0.8142 -0.0827
  765MOL0     H 3234   9.059   1.630   5.590  2.6939  3.2342 -0.2759
  765MOL0     H 3235   8.965   1.812   5.623  0.7489 -2.2412 -3.2219
  765MOL0     H 3236   9.023   2.034   5.751 -2.1995 -2.3298 -0.3314
  765MOL0     H 3237   9.376   2.267   5.943 -0.2945  0.7345 -0.2127
  765MOL0     H 3238   9.467   2.465   6.044 -0.2030 -1.6109 -0.2829
  765MOL0     H 3239   9.417   2.834   6.138  4.5908  0.9834 -0.0582
  765MOL0     H 3240   9.412   2.664   6.181  3.2872 -2.1154  0.5548
  765MOL0     H 3241   9.626   2.622   6.027 -0.5964 -0.4146  1.1579
  765MOL0     H 3242   9.626   2.801   6.014 -0.5820 -0.1702 -0.3364
  765MOL0     H 3243   9.676   2.622   6.251  3.0683  0.2808  1.7946
  765MOL0     H 3244   9.794   2.698   6.144  0.2163 -0.0160  0.0556
  765MOL0     H 3245   9.703   2.787   6.391 -0.7922 -2.4268 -0.8456
  765MOL0     H 3246   9.590   2.869   6.290  0.5588  1.1390  1.4684
  765MOL0     H 3247   9.807   2.938   6.147  0.9381 -2.6469 -0.6774
  765MOL0     H 3248   9.895   2.880   6.279  1.2703  1.0016 -3.6128
  765MOL0     H 3249   9.863   3.121   6.317  0.0732 -0.5435 -0.6155
  765MOL0     H 3250   9.694   3.088   6.350 -0.4484 -0.3522  3.6601
  765MOL0     H 3251   9.871   2.895   6.497 -0.8842 -0.2161  0.2529
  765MOL0     H 3252   9.734   2.994   6.539  1.0185 -1.2925  0.2720
  765MOL0     H 3253   9.862   3.192   6.560  1.4991  2.2189 -1.4999
  765MOL0     H 3254   9.940   3.068   6.663  0.0942 -0.7317 -1.0041
  765MOL0     H 3255   9.196   2.695   5.801  1.0344 -0.1759  0.8436
  765MOL0     H 3256   9.078   2.503   5.739  1.9658  0.3714 -0.5929
  765MOL0     H 3257   9.244   2.159   5.406  1.4409  1.2712  1.1290
  765MOL0     H 3258   9.206   1.953   5.300  0.9251  1.2902  0.2367
  765MOL0     H 3259   7.414   1.009   5.328  0.8404 -0.4730 -1.4828
  765MOL0     H 3260   7.272   0.807   5.306  1.7014  0.2534 -0.7025
  765MOL0     H 3261   6.836   0.755   4.893 -0.4140 -1.7080 -2.5219
  765MOL0     H 3262   6.661   0.590   4.838  2.3695 -0.5624 -0.9468
  765MOL0     H 3263   6.337   0.396   4.953  0.2847 -2.6033  1.7738
  765MOL0     H 3264   6.365   0.549   5.020 -0.4526  0.6247 -0.5002
  765MOL0     H 3265   6.367   0.481   5.245 -0.0010 -2.0040  2.9300
  765MOL0     H 3266   6.464   0.337   5.214 -0.4222  0.7094  0.3917
  765MOL0     H 3267   6.285   0.202   5.154 -0.2152 -0.5857 -0.5840
  765MOL0     H 3268   6.173   0.340   5.163 -0.5221 -1.0323  0.7479
  765MOL0     H 3269   6.225   0.366   5.396  1.6286 -0.4244 -1.2859
  765MOL0     H 3270   6.149   0.210   5.358 -0.3873  1.0091  1.1640
  765MOL0     H 3271   6.519   0.101   5.547  1.8137  0.6242 -0.9973
  765MOL0     H 3272   6.636   0.456   5.234 -2.6770  1.8337 -1.1415
  765MOL0     H 3273   6.941   0.582   5.360  0.2636 -2.2507  0.5026
  765MOL0     H 3274   6.804   0.690   5.409  0.3989  1.2524 -2.5233
  765MOL0     H 3275   6.783   0.514   5.402  2.7955 -1.4754 -0.1030
  766MOL0     O 3276  10.174   3.835  10.198  0.3723 -0.2525  0.3552
  766MOL0     C 3277  10.102   3.786  10.282 -0.3767  0.0066 -0.0958
  766MOL0     O 3278  10.094   3.826  10.411 -0.9533  0.2065 -0.8270
  766MOL0     C 3279  10.172   3.924  10.465  0.3950 -0.2815  0.1157
  766MOL0     C 3280  10.309   3.907  10.463 -0.2196  0.1307 -0.0620
  766MOL0     C 3281  10.398   3.985  10.543  0.0441 -0.6698 -0.3718
  766MOL0     C 3282  10.348   4.086  10.620 -0.1546 -0.4277 -0.3872
  766MOL0     O 3283  10.439   4.150  10.702 -0.8422 -0.3075  0.4365
  766MOL0     C 3284  10.420   4.128  10.844 -0.7031 -0.1673 -0.0659
  766MOL0     C 3285  10.558   4.135  10.911 -0.3244 -0.3281  0.1391
  766MOL0     C 3286  10.651   4.045  10.825  0.0554 -0.6747  0.3013
  766MOL0     C 3287  10.774   4.015  10.899 -0.6801 -0.0464  0.0296
  766MOL0     C 3288  10.867   3.923  10.826 -1.0124  0.3927 -0.6208
  766MOL0     C 3289  10.996   3.883  10.913 -0.2141  0.0295  0.2758
  766MOL0     C 3290  11.096   3.800  10.835 -0.2700 -0.5648 -0.6180
  766MOL0     C 3291  11.197   3.873  10.744  0.1812  0.0479  0.1818
  766MOL0     N 3292  11.277   3.770  10.670 -0.2227 -0.6813  0.0064
  766MOL0     C 3293  11.413   3.731  10.682 -0.2540 -1.7598 -0.9099
  766MOL0     C 3294  11.417   3.621  10.599 -0.7957  0.4789  1.1763
  766MOL0     C 3295  11.533   3.536  10.572  0.8094 -0.4411  0.3345
  766MOL0     C 3296  11.622   3.603  10.472 -0.6012  0.8583  0.0602
  766MOL0     C 3297  11.735   3.504  10.429  0.5198 -0.1058 -0.2152
  766MOL0     C 3298  11.840   3.493  10.535  0.1672  0.8047 -0.1285
  766MOL0     O 3299  11.964   3.478  10.470  0.2366  0.8642  0.7494
  766MOL0     C 3300  12.075   3.485  10.541 -0.4519 -0.6490  0.0306
  766MOL0     C 3301  12.186   3.552  10.480 -0.2086 -0.3595  0.1477
  766MOL0     C 3302  12.316   3.549  10.546  1.0139 -0.4573 -0.1199
  766MOL0     C 3303  12.326   3.496  10.675  0.8546 -0.4743 -0.8127
  766MOL0     C 3304  12.463   3.494  10.742  0.4134  0.9205  0.7527
  766MOL0     O 3305  12.554   3.580  10.687 -0.0184  1.3950  0.0701
  766MOL0     C 3306  12.691   3.572  10.715  0.3953 -0.4477  0.4823
  766MOL0     C 3307  12.742   3.525  10.846  0.2086 -0.0202  1.0874
  766MOL0     C 3308  12.878   3.504  10.855 -0.7545 -0.4013 -0.5251
  766MOL0     C 3309  12.967   3.566  10.760  0.4599  0.3657 -0.3202
  766MOL0     O 3310  13.098   3.551  10.787 -0.4361 -0.0031 -0.1965
  766MOL0     C 3311  13.181   3.668  10.802  0.7140  0.5717 -0.7093
  766MOL0     C 3312  13.328   3.629  10.832  0.9220  0.1814 -1.1248
  766MOL0     C 3313  13.393   3.552  10.724 -0.2811  0.1758 -0.2429
  766MOL0     C 3314  13.547   3.560  10.742 -1.1045 -0.8036  0.2231
  766MOL0     C 3315  13.627   3.484  10.639 -0.1395 -0.0794  0.7162
  766MOL0     C 3316  13.771   3.525  10.633  1.2588 -0.2917 -0.1072
  766MOL0     C 3317  13.853   3.468  10.520  0.2860 -0.5639 -0.2843
  766MOL0     C 3318  13.984   3.397  10.540 -0.0632  0.1479  0.4230
  766MOL0    Cl 3319  13.943   3.219  10.515 -0.1606  0.2384  0.0266
  766MOL0     C 3320  12.923   3.615  10.640  0.1839 -0.0599  0.0975
  766MOL0     C 3321  12.785   3.621  10.630  0.4896  0.2811 -0.0481
  766MOL0     O 3322  12.473   3.417  10.836 -0.1555  0.2710  0.7389
  766MOL0     C 3323  12.215   3.426  10.732  0.1256 -0.6363  0.3606
  766MOL0     C 3324  12.097   3.419  10.661 -0.3994  0.5865  0.0224
  766MOL0     N 3325  11.293   3.603  10.532 -0.8716 -0.2389 -0.9155
  766MOL0     N 3326  11.216   3.692  10.580 -0.6794  0.0771  0.2646
  766MOL0     C 3327  10.211   4.104  10.631 -0.3870  0.2218 -0.5881
  766MOL0     C 3328  10.127   4.027  10.548  0.0398 -0.0677  0.0090
  766MOL0     C 3329  10.024   3.673  10.238  0.4995  0.0688  0.6459
  766MOL0     C 3330  10.029   3.554  10.316 -1.1502  0.4762 -0.7227
  766MOL0     C 3331   9.954   3.445  10.284  0.5522  0.5790 -0.1805
  766MOL0     C 3332   9.858   3.448  10.177 -0.3447 -0.1428 -0.0095
  766MOL0     O 3333   9.769   3.348  10.145 -0.8494 -0.1951  0.4584
  766MOL0     C 3334   9.770   3.233  10.232  0.4838 -0.1377  0.3417
  766MOL0     C 3335   9.649   3.151  10.196  0.7952  0.2015  0.5160
  766MOL0     C 3336   9.518   3.201  10.270 -0.2407  0.3060  0.5180
  766MOL0     C 3337   9.439   3.080  10.323 -0.5223  0.3810 -0.0449
  766MOL0     C 3338   9.391   2.988  10.219 -0.8447 -0.9038  0.3836
  766MOL0     C 3339   9.341   2.928  10.127  0.0238  0.1390  0.3664
  766MOL0     C 3340   9.862   3.562  10.091  0.2662 -0.5353 -0.3494
  766MOL0     C 3341   9.939   3.676  10.121 -0.4397  0.3457 -0.6439
  766MOL0     C 3342   9.913   3.810  10.042 -0.9040  0.1699  1.2341
  766MOL0     H 3343  10.362   3.826  10.413  0.8439  0.1640  0.9703
  766MOL0     H 3344  10.506   3.972  10.535  0.5511  2.3847  0.4229
  766MOL0     H 3345  10.361   4.206  10.892  0.6273  1.2679 -0.6755
  766MOL0     H 3346  10.373   4.030  10.859 -0.5968 -0.2492 -0.2698
  766MOL0     H 3347  10.554   4.102  11.015 -1.1228 -0.3961  0.0934
  766MOL0     H 3348  10.598   4.237  10.910  1.2157 -0.8849  1.5233
  766MOL0     H 3349  10.675   4.088  10.727  2.2168 -2.6456 -0.1494
  766MOL0     H 3350  10.599   3.951  10.803  1.7324 -1.5601 -0.1089
  766MOL0     H 3351  10.828   4.108  10.918 -0.2670 -0.5589  1.5001
  766MOL0     H 3352  10.751   3.966  10.994  2.7254 -0.5107  0.7412
  766MOL0     H 3353  10.811   3.833  10.798 -0.7071  0.3897 -1.2261
  766MOL0     H 3354  10.908   3.968  10.736  4.0933 -1.4655  0.4593
  766MOL0     H 3355  11.047   3.976  10.940 -0.9028  0.8686 -1.1952
  766MOL0     H 3356  10.973   3.831  11.007  2.5707 -4.0589 -0.9945
  766MOL0     H 3357  11.038   3.723  10.783 -2.6401  0.0531  0.9451
  766MOL0     H 3358  11.157   3.741  10.904  0.2331 -1.1755 -1.5653
  766MOL0     H 3359  11.147   3.935  10.669  2.3378  2.0226  0.2486
  766MOL0     H 3360  11.267   3.937  10.799  0.4304 -1.2067  1.3784
  766MOL0     H 3361  11.488   3.775  10.747 -0.8428 -0.4581 -1.0863
  766MOL0     H 3362  11.582   3.528  10.670  0.9507 -0.0532  0.2942
  766MOL0     H 3363  11.487   3.442  10.538 -2.6551  2.0484 -2.5920
  766MOL0     H 3364  11.570   3.626  10.379 -1.6276  1.0412  0.6640
  766MOL0     H 3365  11.654   3.695  10.523 -0.7339  1.3652 -0.7576
  766MOL0     H 3366  11.786   3.549  10.343  1.2693  2.7463  1.5987
  766MOL0     H 3367  11.703   3.408  10.388 -1.1218  0.7220 -0.9949
  766MOL0     H 3368  11.798   3.403  10.581 -3.4672  0.5937 -3.3185
  766MOL0     H 3369  11.834   3.581  10.601 -1.3133  0.5908  0.0529
  766MOL0     H 3370  12.183   3.585  10.376  2.3805 -2.2241 -0.6003
  766MOL0     H 3371  12.408   3.581  10.498  0.1384  4.7608  1.0984
  766MOL0     H 3372  12.674   3.489  10.922 -0.2973 -0.0112  0.6401
  766MOL0     H 3373  12.926   3.464  10.944 -1.9525  0.0333  0.3413
  766MOL0     H 3374  13.178   3.725  10.709  0.8648 -0.9589 -1.6840
  766MOL0     H 3375  13.145   3.720  10.891  2.1622  2.2426 -1.0537
  766MOL0     H 3376  13.384   3.722  10.846  0.4044  0.6109 -1.8362
  766MOL0     H 3377  13.327   3.575  10.927 -1.6778  2.6691  0.4215
  766MOL0     H 3378  13.364   3.447  10.728 -5.2208  1.2971  0.3360
  766MOL0     H 3379  13.367   3.600  10.629  3.1100  1.1967 -0.7803
  766MOL0     H 3380  13.574   3.532  10.845  0.2609 -1.5383 -0.3198
  766MOL0     H 3381  13.568   3.668  10.737 -0.3927 -0.9150  0.5909
  766MOL0     H 3382  13.578   3.504  10.544 -4.3010 -1.3444  2.3701
  766MOL0     H 3383  13.612   3.376  10.644 -3.4603  0.0855 -2.1337
  766MOL0     H 3384  13.777   3.634  10.623  1.6936 -0.1950  1.0073
  766MOL0     H 3385  13.816   3.497  10.729 -0.0821  0.1356  0.6730
  766MOL0     H 3386  13.865   3.553  10.452  0.6447 -0.3872  0.0003
  766MOL0     H 3387  13.778   3.402  10.474  0.1068 -0.7505  0.2679
  766MOL0     H 3388  14.050   3.422  10.457 -0.2889 -1.4764 -0.2896
  766MOL0     H 3389  14.037   3.423  10.632  0.2565 -1.0502  0.6030
  766MOL0     H 3390  13.002   3.643  10.572  1.4716  1.1304  1.9716
  766MOL0     H 3391  12.750   3.681  10.547 -0.7451 -2.1988 -1.4119
  766MOL0     H 3392  12.225   3.367  10.823  0.4504 -0.1531  0.6451
  766MOL0     H 3393  12.021   3.356  10.706  0.8385 -0.3308  0.8790
  766MOL0     H 3394  10.172   4.165  10.711 -2.7808 -3.9026  1.7879
  766MOL0     H 3395  10.020   4.040  10.562  0.4695  2.2481  1.7436
  766MOL0     H 3396  10.105   3.549  10.393 -2.0152  0.8086  0.1616
  766MOL0     H 3397   9.964   3.356  10.346  0.3692  0.3328 -0.5022
  766MOL0     H 3398   9.767   3.257  10.339  1.3496 -2.5559  0.9887
  766MOL0     H 3399   9.866   3.180  10.221  1.1417  0.7298  1.5891
  766MOL0     H 3400   9.673   3.046  10.213  0.9678  0.6563  3.9293
  766MOL0     H 3401   9.625   3.161  10.090  1.3426  0.3520  0.4038
  766MOL0     H 3402   9.456   3.260  10.203 -3.1275 -0.0701  2.6761
  766MOL0     H 3403   9.535   3.267  10.355 -0.7533 -0.2274  1.0452
  766MOL0     H 3404   9.496   3.033  10.403 -3.0312  1.4172  2.5204
  766MOL0     H 3405   9.344   3.106  10.372 -0.9403  1.3234 -1.2971
  766MOL0     H 3406   9.295   2.881  10.042 -1.4470  0.4714  0.9489
  766MOL0     H 3407   9.782   3.573  10.019 -2.0411  0.8908  2.2467
  766MOL0     H 3408   9.844   3.878  10.094 -3.6583  2.7054 -4.7349
  766MOL0     H 3409  10.000   3.864  10.005  0.6844 -3.6620 -1.2217
  766MOL0     H 3410   9.864   3.782   9.948  0.1704  2.1590  0.0079
  767MOL0     O 3411   1.489   1.976   1.973 -0.2291  0.1159 -0.0848
  767MOL0     C 3412   1.464   2.074   2.051  0.0388  0.8613  0.4471
  767MOL0     O 3413   1.547   2.184   2.061 -0.5103  0.2472 -0.5010
  767MOL0     C 3414   1.682   2.186   2.040  0.5786  0.3309  0.8888
  767MOL0     C 3415   1.735   2.311   2.030 -0.3738 -0.2197 -0.2043
  767MOL0     C 3416   1.874   2.329   2.001  0.3160  0.5041 -1.1287
  767MOL0     C 3417   1.950   2.212   1.983  0.5750  1.3529  0.0822
  767MOL0     O 3418   2.079   2.210   1.936  0.0066 -0.3133 -0.1896
  767MOL0     C 3419   2.121   2.321   1.850  0.2524 -0.9257 -0.6265
  767MOL0     C 3420   2.252   2.297   1.781  0.6307  0.1337  0.1543
  767MOL0     C 3421   2.357   2.291   1.884 -0.4277  0.1951 -0.1910
  767MOL0     C 3422   2.496   2.258   1.838  0.6244  0.6463  0.2452
  767MOL0     C 3423   2.588   2.197   1.949  0.5223  0.0242 -0.0362
  767MOL0     C 3424   2.712   2.124   1.893 -0.0981  0.5683 -0.6317
  767MOL0     C 3425   2.767   2.034   2.013  0.2257 -0.5507 -1.0422
  767MOL0     C 3426   2.834   2.116   2.128 -0.3435 -1.2973 -0.1929
  767MOL0     N 3427   2.877   2.024   2.242 -0.1885 -0.1943  0.4011
  767MOL0     C 3428   3.009   2.013   2.275  0.4529  0.3958 -0.4876
  767MOL0     C 3429   3.009   1.915   2.374  0.2898  0.2852  0.3511
  767MOL0     C 3430   3.119   1.860   2.452  0.1800  0.4264  0.0663
  767MOL0     C 3431   3.146   1.925   2.585  0.4852  0.7240 -0.6308
  767MOL0     C 3432   3.228   2.052   2.559  0.8866 -0.6773  0.2259
  767MOL0     C 3433   3.370   2.020   2.575  0.0981 -0.2259  0.0196
  767MOL0     O 3434   3.444   2.131   2.516  0.1365 -0.0137  0.4005
  767MOL0     C 3435   3.561   2.172   2.566  0.1804 -0.2524  0.1461
  767MOL0     C 3436   3.600   2.294   2.512 -0.3354  0.6234 -0.1261
  767MOL0     C 3437   3.716   2.357   2.555  0.2898 -0.1259  0.9757
  767MOL0     C 3438   3.803   2.290   2.641 -0.2660  0.3689  0.1851
  767MOL0     C 3439   3.936   2.340   2.679 -0.3431  0.6390 -0.5567
  767MOL0     O 3440   3.951   2.474   2.666 -0.0520 -0.4602 -0.2497
  767MOL0     C 3441   4.074   2.522   2.705 -0.1907 -0.2797  0.2279
  767MOL0     C 3442   4.184   2.490   2.617  0.3300 -0.9096  0.3361
  767MOL0     C 3443   4.311   2.523   2.670 -0.0466 -0.4556 -0.2688
  767MOL0     C 3444   4.316   2.605   2.793  0.1627 -0.2239  0.1023
  767MOL0     O 3445   4.436   2.653   2.851  0.7789  0.4461  0.6046
  767MOL0     C 3446   4.572   2.615   2.794  0.4742  0.2753 -0.1656
  767MOL0     C 3447   4.686   2.696   2.854 -0.6906 -0.5239 -0.2714
  767MOL0     C 3448   4.819   2.644   2.816 -0.6069 -0.0563 -0.2180
  767MOL0     C 3449   4.942   2.729   2.854 -0.6710 -0.0178 -0.6890
  767MOL0     C 3450   5.082   2.658   2.832 -0.3646 -0.4901 -0.2068
  767MOL0     C 3451   5.203   2.721   2.898  0.0607 -0.9644  0.7292
  767MOL0     C 3452   5.333   2.639   2.875  0.3792 -0.4670  0.0462
  767MOL0     C 3453   5.390   2.643   2.732  0.2501  0.7058 -0.2812
  767MOL0    Cl 3454   5.533   2.735   2.733 -0.0932 -0.6106  0.0337
  767MOL0     C 3455   4.208   2.651   2.855 -0.4935 -0.5689 -0.1136
  767MOL0     C 3456   4.083   2.608   2.810 -0.1285  0.2044 -0.2303
  767MOL0     O 3457   4.020   2.259   2.718 -0.4253  0.4670 -0.3822
  767MOL0     C 3458   3.764   2.159   2.689 -0.2155 -0.0658 -0.1087
  767MOL0     C 3459   3.647   2.105   2.659  0.6198  0.8916  0.6103
  767MOL0     N 3460   2.876   1.871   2.394  0.0789 -0.1057 -0.6464
  767MOL0     N 3461   2.801   1.943   2.314  0.5846 -1.0204  0.5365
  767MOL0     C 3462   1.894   2.091   2.015  0.2440 -0.2833  0.6307
  767MOL0     C 3463   1.763   2.075   2.044  0.6480  0.5560 -0.5458
  767MOL0     C 3464   1.341   2.069   2.122 -0.2325 -0.0209 -0.6652
  767MOL0     C 3465   1.290   2.198   2.165 -0.1724  0.0128  0.2446
  767MOL0     C 3466   1.168   2.214   2.235 -0.9474  0.5498  0.0746
  767MOL0     C 3467   1.090   2.103   2.254 -0.7069 -0.1471 -0.3678
  767MOL0     O 3468   0.966   2.123   2.309  0.3510  0.2535  0.7350
  767MOL0     C 3469   0.859   2.176   2.221 -1.3173 -0.7976 -0.5879
  767MOL0     C 3470   0.748   2.076   2.204 -1.4966  0.8188 -0.8021
  767MOL0     C 3471   0.697   2.008   2.335  0.0476  0.5386 -0.4511
  767MOL0     C 3472   0.570   1.922   2.301  0.3975 -0.8165  0.7633
  767MOL0     C 3473   0.444   1.983   2.297  0.4492 -0.4893  0.2355
  767MOL0     C 3474   0.345   2.051   2.286  0.4142 -0.0026 -0.7807
  767MOL0     C 3475   1.136   1.982   2.207  0.4540 -0.0574  0.3752
  767MOL0     C 3476   1.264   1.959   2.149 -0.3928 -0.7122  0.6654
  767MOL0     C 3477   1.289   1.817   2.112  0.0739  0.5207  0.1074
  767MOL0     H 3478   1.679   2.400   2.059  2.4482  1.0006  1.9278
  767MOL0     H 3479   1.916   2.428   1.986 -2.1393  1.6393 -1.1129
  767MOL0     H 3480   2.045   2.350   1.778  1.3083 -0.7400 -1.6864
  767MOL0     H 3481   2.153   2.413   1.900 -0.9731 -0.7277 -0.1834
  767MOL0     H 3482   2.271   2.372   1.704  0.3128  1.4121  1.2741
  767MOL0     H 3483   2.245   2.199   1.734 -2.8756 -1.3584  3.2427
  767MOL0     H 3484   2.327   2.218   1.959 -1.1729  2.6634  2.0565
  767MOL0     H 3485   2.361   2.385   1.940 -1.7191  0.1448  0.0012
  767MOL0     H 3486   2.490   2.182   1.759  0.0395  3.1357 -2.2481
  767MOL0     H 3487   2.544   2.343   1.790  3.3820 -1.5018 -1.1208
  767MOL0     H 3488   2.631   2.267   2.021  1.5482 -0.1585 -0.4635
  767MOL0     H 3489   2.529   2.123   2.003 -1.0824  1.6320  0.5335
  767MOL0     H 3490   2.683   2.058   1.811  2.8105 -2.4789  0.5645
  767MOL0     H 3491   2.792   2.190   1.858  0.7088  0.2899  0.6121
  767MOL0     H 3492   2.838   1.957   1.981  1.7052  0.7792 -1.0810
  767MOL0     H 3493   2.680   1.978   2.049  0.8631 -3.3013 -3.3701
  767MOL0     H 3494   2.914   2.172   2.080 -1.5278 -1.9766 -3.2072
  767MOL0     H 3495   2.762   2.190   2.163  0.2445  0.0022 -1.5969
  767MOL0     H 3496   3.098   2.063   2.236  2.8809 -3.0885  0.1693
  767MOL0     H 3497   3.098   1.753   2.454  0.1442  0.2306 -3.4879
  767MOL0     H 3498   3.203   1.866   2.382  1.4974 -0.7876  1.4662
  767MOL0     H 3499   3.044   1.951   2.617 -1.6216 -4.1017 -2.5059
  767MOL0     H 3500   3.196   1.860   2.658 -0.7607  0.4911  0.0491
  767MOL0     H 3501   3.198   2.133   2.626  1.0917 -0.6154  0.2438
  767MOL0     H 3502   3.205   2.082   2.457  2.1460  0.7937  0.3332
  767MOL0     H 3503   3.406   1.922   2.542  0.9855 -0.1286  0.6600
  767MOL0     H 3504   3.395   2.024   2.682  1.0938  0.5853 -0.2324
  767MOL0     H 3505   3.542   2.354   2.443 -1.4256  1.0011  1.0733
  767MOL0     H 3506   3.733   2.461   2.526  0.1913 -0.4810 -0.4402
  767MOL0     H 3507   4.178   2.426   2.529 -0.3655  0.4994 -0.6942
  767MOL0     H 3508   4.402   2.485   2.623 -2.1520 -2.8600 -2.7746
  767MOL0     H 3509   4.589   2.508   2.809  0.0897  0.5351  2.4751
  767MOL0     H 3510   4.575   2.638   2.687  2.7799  1.5495  0.1309
  767MOL0     H 3511   4.686   2.798   2.816 -0.6133 -0.9221 -1.3734
  767MOL0     H 3512   4.671   2.704   2.962 -1.6204  2.5461 -0.5527
  767MOL0     H 3513   4.832   2.540   2.848 -0.5429  0.2454  0.7855
  767MOL0     H 3514   4.825   2.644   2.707 -0.0059 -0.5953 -0.1899
  767MOL0     H 3515   4.931   2.748   2.961 -1.8358 -0.5296 -0.6991
  767MOL0     H 3516   4.945   2.826   2.804  0.3626 -0.4999 -1.6271
  767MOL0     H 3517   5.100   2.655   2.724  1.9340 -2.3070  0.1523
  767MOL0     H 3518   5.077   2.557   2.873  0.7256 -0.9155 -1.0681
  767MOL0     H 3519   5.227   2.825   2.874 -2.8962 -0.3623 -0.0008
  767MOL0     H 3520   5.167   2.714   3.001 -4.0391  0.2228 -0.4466
  767MOL0     H 3521   5.315   2.533   2.894  0.7814 -0.8911 -1.7360
  767MOL0     H 3522   5.404   2.663   2.954  0.4498 -0.5260  0.0005
  767MOL0     H 3523   5.418   2.543   2.698 -0.3795  0.3922  0.1046
  767MOL0     H 3524   5.312   2.678   2.664  0.5351  0.5919 -0.6723
  767MOL0     H 3525   4.221   2.718   2.940 -1.2620 -0.8262  0.2059
  767MOL0     H 3526   3.994   2.648   2.857 -1.6101 -0.2423 -2.5135
  767MOL0     H 3527   3.818   2.100   2.762  0.5085  1.2541  0.4638
  767MOL0     H 3528   3.617   2.010   2.702  0.6393 -0.5385 -2.2954
  767MOL0     H 3529   1.963   2.007   2.007  1.1093  0.5012 -0.3709
  767MOL0     H 3530   1.718   1.978   2.062 -1.9715  1.4328 -1.8337
  767MOL0     H 3531   1.342   2.293   2.156  0.9929 -0.2622  3.0614
  767MOL0     H 3532   1.125   2.312   2.253  0.7225  0.7873  3.5934
  767MOL0     H 3533   0.898   2.211   2.125 -0.6651 -0.3345 -0.1649
  767MOL0     H 3534   0.828   2.267   2.273 -0.0973 -1.3697  1.2611
  767MOL0     H 3535   0.795   2.000   2.141  2.9311  2.1097  0.6473
  767MOL0     H 3536   0.667   2.122   2.146 -1.8332 -0.3518 -1.2886
  767MOL0     H 3537   0.672   2.077   2.415 -4.4660 -0.0656 -1.0530
  767MOL0     H 3538   0.770   1.933   2.369 -1.7476 -1.1875 -0.2049
  767MOL0     H 3539   0.570   1.863   2.208  0.0386 -0.2136  0.3742
  767MOL0     H 3540   0.562   1.848   2.382 -1.3739 -0.3840  1.0309
  767MOL0     H 3541   0.263   2.119   2.291  1.1555  0.9553 -1.2038
  767MOL0     H 3542   1.068   1.899   2.222  0.4122  0.1634  1.5003
  767MOL0     H 3543   1.234   1.760   2.188 -0.7377  1.3610  0.1667
  767MOL0     H 3544   1.245   1.800   2.013 -1.2874 -0.5016  0.8483
  767MOL0     H 3545   1.397   1.802   2.105  0.2349  1.4927  0.4527
  768MOL0     O 3546  10.201   6.233   6.719  0.2799  0.7676  0.3994
  768MOL0     C 3547  10.269   6.311   6.644  0.6177 -0.0064 -0.2525
  768MOL0     O 3548  10.247   6.443   6.645 -0.2235  0.1969 -0.5400
  768MOL0     C 3549  10.161   6.508   6.726 -0.2756  0.4222 -1.1724
  768MOL0     C 3550  10.197   6.641   6.767  0.6773 -0.0908 -0.7272
  768MOL0     C 3551  10.116   6.718   6.860  0.3615 -0.3302  0.5817
  768MOL0     C 3552   9.993   6.665   6.895  0.3951 -0.4793  0.7288
  768MOL0     O 3553   9.899   6.736   6.963 -0.4267 -0.1712  1.0037
  768MOL0     C 3554   9.945   6.833   7.060 -1.0991 -1.0039 -0.6749
  768MOL0     C 3555   9.826   6.880   7.134  0.0019 -0.5109 -0.1451
  768MOL0     C 3556   9.851   7.004   7.221 -0.4115 -0.3134  0.3578
  768MOL0     C 3557   9.744   7.017   7.338 -0.5893  0.0275  0.2050
  768MOL0     C 3558   9.760   7.149   7.418  0.0994 -0.2681 -0.8349
  768MOL0     C 3559   9.888   7.176   7.488 -0.0872 -0.2757  0.2318
  768MOL0     C 3560   9.901   7.310   7.561 -0.1247  0.0788  0.1808
  768MOL0     C 3561   9.821   7.325   7.691 -0.5683 -0.1215  0.0731
  768MOL0     N 3562   9.831   7.454   7.761  0.3509  0.4141 -0.0840
  768MOL0     C 3563   9.760   7.565   7.725  0.0246 -0.3956  0.2061
  768MOL0     C 3564   9.820   7.668   7.781 -1.0195  0.3363  0.2684
  768MOL0     C 3565   9.779   7.811   7.774 -0.6852 -0.6585 -0.2942
  768MOL0     C 3566   9.714   7.873   7.901  0.0312  0.1437 -0.5883
  768MOL0     C 3567   9.712   8.028   7.893  1.2946  0.8524  0.2253
  768MOL0     C 3568   9.618   8.086   8.003  0.9484 -0.8522  0.1384
  768MOL0     O 3569   9.666   8.201   8.063 -0.6135  0.3219 -0.1531
  768MOL0     C 3570   9.775   8.200   8.141 -0.1582 -0.0328  0.1785
  768MOL0     C 3571   9.806   8.326   8.185  0.6451  0.7862  0.0779
  768MOL0     C 3572   9.916   8.344   8.276  0.8668 -0.4871  0.7928
  768MOL0     C 3573   9.994   8.239   8.311  0.0248  0.6892 -0.3693
  768MOL0     C 3574  10.115   8.262   8.402  0.5473  0.5964  0.6375
  768MOL0     O 3575  10.202   8.161   8.396 -0.2129 -0.2352  0.4930
  768MOL0     C 3576  10.315   8.146   8.476  0.4865  0.6865  0.0607
  768MOL0     C 3577  10.389   8.025   8.455  0.2231  1.0844 -0.0088
  768MOL0     C 3578  10.517   8.004   8.524  0.0523 -0.4350  0.0018
  768MOL0     C 3579  10.563   8.095   8.607 -0.1018  0.3429 -0.1570
  768MOL0     O 3580  10.673   8.071   8.683  0.6301 -0.1682  0.1510
  768MOL0     C 3581  10.714   7.932   8.706  0.4963 -0.1419 -0.0780
  768MOL0     C 3582  10.838   7.949   8.792 -0.1273 -0.6039 -0.7838
  768MOL0     C 3583  10.802   8.023   8.927 -0.5889 -0.0370  0.6164
  768MOL0     C 3584  10.919   8.028   9.015 -0.5200  0.5539  0.4292
  768MOL0     C 3585  10.990   8.155   8.976 -0.8896  0.6479 -0.1142
  768MOL0     C 3586  11.121   8.165   9.064 -0.2402  0.0063 -0.6213
  768MOL0     C 3587  11.238   8.233   8.998  0.5828 -0.0538 -0.4903
  768MOL0     C 3588  11.342   8.132   8.933  0.0910 -0.3208  0.7911
  768MOL0    Cl 3589  11.402   8.021   9.055 -0.1464  0.0545  0.0168
  768MOL0     C 3590  10.494   8.217   8.633  0.0246  0.0700  0.1836
  768MOL0     C 3591  10.371   8.242   8.566 -0.1600  0.4029 -0.5239
  768MOL0     O 3592  10.126   8.366   8.467 -0.0463 -0.3363 -0.1973
  768MOL0     C 3593   9.964   8.109   8.261  0.3565  0.1515 -0.0021
  768MOL0     C 3594   9.852   8.089   8.185  0.2548 -0.1580 -0.1587
  768MOL0     N 3595   9.932   7.616   7.854  0.8339  0.2162 -0.2231
  768MOL0     N 3596   9.930   7.482   7.853  0.5760 -0.5076  0.7527
  768MOL0     C 3597   9.954   6.534   6.852 -0.6400 -1.7462 -0.4033
  768MOL0     C 3598  10.034   6.455   6.767  0.0306  0.3520  1.1424
  768MOL0     C 3599  10.384   6.248   6.567  0.1323 -0.4976  0.5464
  768MOL0     C 3600  10.470   6.342   6.514 -0.1023  0.1402  0.1731
  768MOL0     C 3601  10.588   6.301   6.444  0.1776 -0.3669  0.4156
  768MOL0     C 3602  10.621   6.157   6.436 -0.4632 -0.6643  0.3508
  768MOL0     O 3603  10.739   6.096   6.379  0.6207 -0.2727  0.6487
  768MOL0     C 3604  10.856   6.177   6.360  0.5148  0.3712 -0.1626
  768MOL0     C 3605  10.944   6.119   6.250  0.3143 -0.5293 -0.1289
  768MOL0     C 3606  10.979   5.967   6.268 -0.0467 -1.2023  0.7817
  768MOL0     C 3607  11.086   5.919   6.169  0.2255 -0.3524  0.1247
  768MOL0     C 3608  11.162   5.807   6.242  0.3399 -0.4813 -0.4237
  768MOL0     C 3609  11.207   5.712   6.298 -0.4957 -0.4040  0.0672
  768MOL0     C 3610  10.526   6.070   6.492 -0.6109 -0.2178  0.3000
  768MOL0     C 3611  10.405   6.114   6.554 -0.1920 -0.0855  0.2545
  768MOL0     C 3612  10.311   5.999   6.595  0.0440  0.2808 -0.1662
  768MOL0     H 3613  10.294   6.681   6.741  0.2910  3.0582  1.9370
  768MOL0     H 3614  10.152   6.818   6.883 -1.1003  0.2053  0.6373
  768MOL0     H 3615  10.016   6.797   7.135 -2.2923  1.0927  1.5899
  768MOL0     H 3616  10.001   6.920   7.023  3.0627 -2.1773  2.1903
  768MOL0     H 3617   9.799   6.797   7.199  3.4186 -0.7662  1.1366
  768MOL0     H 3618   9.750   6.909   7.060 -0.7655  0.7087  1.0764
  768MOL0     H 3619   9.851   7.090   7.153  0.5027  0.9461  1.9028
  768MOL0     H 3620   9.955   7.012   7.251 -0.3576  3.0247 -0.3740
  768MOL0     H 3621   9.642   7.004   7.300 -0.7451 -1.4817  1.0622
  768MOL0     H 3622   9.771   6.935   7.404  0.6944  1.2517  1.2523
  768MOL0     H 3623   9.731   7.237   7.360  0.1981  0.1996 -0.1786
  768MOL0     H 3624   9.679   7.128   7.488  2.0954 -2.7369  0.9243
  768MOL0     H 3625   9.889   7.101   7.568 -4.0620  0.7414  1.4407
  768MOL0     H 3626   9.973   7.168   7.419 -0.0645  1.3024  0.0475
  768MOL0     H 3627   9.872   7.396   7.501  0.9882  0.8696  0.7234
  768MOL0     H 3628  10.007   7.327   7.584 -0.0376  0.7855 -0.7250
  768MOL0     H 3629   9.716   7.299   7.679 -0.3653 -1.5127  1.0991
  768MOL0     H 3630   9.869   7.252   7.757  0.6383  1.3838  0.9417
  768MOL0     H 3631   9.669   7.561   7.665  1.1462 -3.8005 -1.5343
  768MOL0     H 3632   9.866   7.876   7.762 -1.8102  0.8300 -0.6467
  768MOL0     H 3633   9.716   7.831   7.687 -2.0407  1.0488  1.0118
  768MOL0     H 3634   9.614   7.831   7.911 -1.2503  3.3696  1.7517
  768MOL0     H 3635   9.786   7.844   7.978 -1.9016  1.1486  1.6980
  768MOL0     H 3636   9.670   8.067   7.800 -1.2514 -0.7278  0.6457
  768MOL0     H 3637   9.818   8.057   7.899  2.2689 -2.5265  1.8098
  768MOL0     H 3638   9.597   8.011   8.080 -0.4242 -1.2483 -0.6042
  768MOL0     H 3639   9.517   8.096   7.964  1.0603 -0.7838 -0.1383
  768MOL0     H 3640   9.754   8.416   8.153 -1.6004 -0.6023 -0.3594
  768MOL0     H 3641   9.927   8.443   8.320  2.2518  0.6905 -1.9630
  768MOL0     H 3642  10.365   7.952   8.378 -1.2780  0.1791  1.2418
  768MOL0     H 3643  10.568   7.918   8.482 -0.9128 -0.8449 -0.3611
  768MOL0     H 3644  10.636   7.881   8.763 -0.3518  1.2102  0.0363
  768MOL0     H 3645  10.734   7.875   8.614 -1.0682  1.1214 -1.2847
  768MOL0     H 3646  10.877   7.849   8.813 -1.1470 -0.9433 -0.4346
  768MOL0     H 3647  10.919   8.003   8.742 -0.8749 -1.7858 -3.4383
  768MOL0     H 3648  10.766   8.124   8.906 -0.9132 -0.1045  0.8419
  768MOL0     H 3649  10.716   7.972   8.971 -2.9472  0.2558 -3.1392
  768MOL0     H 3650  10.973   7.934   9.004  1.1075  1.4960  0.1181
  768MOL0     H 3651  10.903   8.046   9.122  1.7719 -1.2402  1.1462
  768MOL0     H 3652  10.927   8.243   8.995 -2.0991  0.2004 -1.8238
  768MOL0     H 3653  11.010   8.150   8.869  3.9972 -3.3018  0.6471
  768MOL0     H 3654  11.091   8.224   9.151 -0.8019 -2.6019  1.0521
  768MOL0     H 3655  11.144   8.065   9.100 -0.1434  0.0427 -0.5803
  768MOL0     H 3656  11.296   8.289   9.072 -0.3730  0.7935 -0.3675
  768MOL0     H 3657  11.202   8.298   8.918  0.6709  0.2622 -0.2747
  768MOL0     H 3658  11.280   8.089   8.853 -0.9699  2.1557  0.1529
  768MOL0     H 3659  11.432   8.184   8.898 -1.3671  1.2570 -0.8326
  768MOL0     H 3660  10.538   8.296   8.694  0.7834 -0.2761  0.0946
  768MOL0     H 3661  10.334   8.342   8.586  0.5677  0.0434  3.3023
  768MOL0     H 3662  10.027   8.024   8.284 -0.8384 -0.5626  0.7576
  768MOL0     H 3663   9.837   7.991   8.142 -0.6019 -0.5868  1.0749
  768MOL0     H 3664   9.858   6.505   6.893  0.0858 -2.1334  1.0808
  768MOL0     H 3665  10.004   6.352   6.752  3.1295 -0.8991  2.8060
  768MOL0     H 3666  10.445   6.447   6.526 -0.0817  0.3109 -1.1751
  768MOL0     H 3667  10.651   6.376   6.397 -3.3958  1.6038 -1.6402
  768MOL0     H 3668  10.917   6.177   6.451  3.2955 -0.9429 -1.9111
  768MOL0     H 3669  10.829   6.278   6.327 -0.0282 -0.3019 -1.8554
  768MOL0     H 3670  11.025   6.192   6.242 -2.2545  2.4413 -1.4973
  768MOL0     H 3671  10.897   6.125   6.151  4.3277  0.9099 -2.1923
  768MOL0     H 3672  10.889   5.906   6.261  0.3195 -1.7393  0.7266
  768MOL0     H 3673  11.012   5.972   6.372 -3.5442  1.9689  1.9862
  768MOL0     H 3674  11.036   5.876   6.082 -0.5130 -0.0520  0.3935
  768MOL0     H 3675  11.141   6.004   6.127 -1.2019 -0.3274 -1.8038
  768MOL0     H 3676  11.252   5.638   6.361 -0.3972 -1.3163 -1.0284
  768MOL0     H 3677  10.550   5.964   6.490  1.6135  0.1991  1.5666
  768MOL0     H 3678  10.205   6.027   6.595  0.4455  2.0459  2.0326
  768MOL0     H 3679  10.327   5.904   6.544 -2.7663 -0.5784  0.3918
  768MOL0     H 3680  10.332   5.975   6.699  0.5996  1.5818  0.0428
  769MOL0     O 3681   8.462   3.628   2.381  0.3940  0.2250  0.4740
  769MOL0     C 3682   8.440   3.628   2.258  0.9024  0.0742 -0.1908
  769MOL0     O 3683   8.525   3.591   2.166 -0.3240 -0.1894  0.8825
  769MOL0     C 3684   8.649   3.533   2.212  0.0709  0.0221  0.5501
  769MOL0     C 3685   8.755   3.610   2.248  0.5213 -0.2808  0.8075
  769MOL0     C 3686   8.865   3.562   2.314 -0.3991  0.4277  0.3504
  769MOL0     C 3687   8.875   3.423   2.341 -0.5837 -0.0817 -0.8934
  769MOL0     O 3688   8.987   3.364   2.396  0.3040 -0.0960  0.2087
  769MOL0     C 3689   9.112   3.432   2.387 -0.8686 -0.2856 -0.1817
  769MOL0     C 3690   9.221   3.330   2.420  0.3848 -0.0536 -0.1720
  769MOL0     C 3691   9.195   3.229   2.539 -0.4417 -0.1971 -0.1887
  769MOL0     C 3692   9.313   3.130   2.528 -0.0495 -0.1060 -0.5850
  769MOL0     C 3693   9.278   2.989   2.578 -0.0513  0.6505 -0.0254
  769MOL0     C 3694   9.399   2.888   2.592 -0.0854  0.1437  0.2189
  769MOL0     C 3695   9.491   2.928   2.708 -0.3561 -0.2449 -0.0236
  769MOL0     C 3696   9.612   2.834   2.737  0.6405 -0.0534  0.6323
  769MOL0     N 3697   9.719   2.901   2.798 -0.2296  1.6194  0.4782
  769MOL0     C 3698   9.725   2.931   2.927  0.2011  0.0747  0.3197
  769MOL0     C 3699   9.854   2.970   2.956 -0.2218 -0.3040  0.1434
  769MOL0     C 3700   9.913   3.009   3.085 -0.5920  0.0433 -0.5010
  769MOL0     C 3701  10.029   3.123   3.087  1.2234 -0.2460 -0.0903
  769MOL0     C 3702   9.976   3.268   3.079 -0.7128 -0.0475  0.4876
  769MOL0     C 3703   9.827   3.278   3.074  0.3538  0.5462 -0.2882
  769MOL0     O 3704   9.790   3.416   3.103 -0.5054 -0.3591  0.2247
  769MOL0     C 3705   9.671   3.461   3.055 -0.2102 -0.7650 -0.0766
  769MOL0     C 3706   9.564   3.378   3.046  0.1708  0.3487 -0.3709
  769MOL0     C 3707   9.437   3.427   3.011  0.3445 -0.5238  0.7930
  769MOL0     C 3708   9.425   3.556   2.952 -0.4477  0.3650 -0.3249
  769MOL0     C 3709   9.294   3.608   2.894 -0.3064 -0.3464  0.2573
  769MOL0     O 3710   9.202   3.515   2.856  0.2564 -0.3282  0.5675
  769MOL0     C 3711   9.068   3.548   2.850  0.3323 -0.2171  0.2657
  769MOL0     C 3712   8.975   3.513   2.745 -0.5803 -0.5081 -0.4180
  769MOL0     C 3713   8.840   3.555   2.750  0.6160 -0.0619 -0.0207
  769MOL0     C 3714   8.796   3.617   2.868  0.2732 -0.3001 -0.1858
  769MOL0     O 3715   8.667   3.663   2.898  0.7128  0.2818 -0.1342
  769MOL0     C 3716   8.558   3.605   2.824  0.4644  0.4654 -0.1465
  769MOL0     C 3717   8.428   3.668   2.873 -0.9351  0.5688 -0.4601
  769MOL0     C 3718   8.314   3.600   2.798 -0.2596 -0.0202 -0.0862
  769MOL0     C 3719   8.179   3.650   2.855 -0.5362 -0.2753  0.6130
  769MOL0     C 3720   8.064   3.635   2.758 -0.8247  0.2460 -1.0723
  769MOL0     C 3721   7.941   3.703   2.807 -0.4711 -0.5182  0.2734
  769MOL0     C 3722   7.834   3.699   2.696 -0.5259 -0.8165 -0.0621
  769MOL0     C 3723   7.708   3.784   2.729  0.6502  0.9833  0.7151
  769MOL0    Cl 3724   7.606   3.818   2.576 -0.3055 -0.0580  0.1678
  769MOL0     C 3725   8.885   3.658   2.965  0.0277 -0.5100  0.1525
  769MOL0     C 3726   9.016   3.617   2.960  0.5544  0.6986 -0.7342
  769MOL0     O 3727   9.289   3.725   2.878 -0.3163 -0.8423  0.1906
  769MOL0     C 3728   9.545   3.628   2.946 -0.2291 -0.1943  0.7449
  769MOL0     C 3729   9.660   3.589   3.004 -0.6619  0.1307  0.2687
  769MOL0     N 3730   9.914   2.986   2.833 -0.4573  0.9138  0.5246
  769MOL0     N 3731   9.838   2.932   2.742 -0.6890  0.4798 -0.7414
  769MOL0     C 3732   8.778   3.344   2.296  0.5130  0.0344  0.2584
  769MOL0     C 3733   8.670   3.393   2.225 -0.3521 -1.0217 -0.3879
  769MOL0     C 3734   8.302   3.670   2.219  0.6067  0.5528 -0.5606
  769MOL0     C 3735   8.230   3.758   2.297  0.1377  0.9795  0.0975
  769MOL0     C 3736   8.101   3.815   2.260  0.1280  0.3547 -0.2442
  769MOL0     C 3737   8.053   3.772   2.137  0.6081 -0.9647 -0.1927
  769MOL0     O 3738   7.944   3.833   2.075 -0.0756 -0.4531  0.1768
  769MOL0     C 3739   7.826   3.842   2.153  0.5199  0.4110  0.3985
  769MOL0     C 3740   7.717   3.837   2.047 -0.6305 -0.0491 -0.1881
  769MOL0     C 3741   7.581   3.823   2.107  0.1844 -0.6280  0.1514
  769MOL0     C 3742   7.477   3.846   1.999 -0.1445 -0.0482 -0.6034
  769MOL0     C 3743   7.343   3.819   2.061  0.8244 -0.7096 -0.4246
  769MOL0     C 3744   7.220   3.796   2.090 -0.1950  0.2938  0.1681
  769MOL0     C 3745   8.123   3.684   2.067  0.0316  0.1120  0.5178
  769MOL0     C 3746   8.244   3.625   2.102  0.4187  0.7695 -0.1822
  769MOL0     C 3747   8.288   3.522   2.009 -0.0436  0.1643  1.3241
  769MOL0     H 3748   8.751   3.719   2.242  0.4249 -0.3420 -0.7524
  769MOL0     H 3749   8.935   3.628   2.364  0.1784  1.5165 -1.7385
  769MOL0     H 3750   9.118   3.469   2.284 -0.3407  0.2116  0.0184
  769MOL0     H 3751   9.124   3.509   2.465  2.3194 -2.0535  1.2793
  769MOL0     H 3752   9.308   3.388   2.451 -1.3962  2.6487  0.0673
  769MOL0     H 3753   9.251   3.277   2.329 -0.6476  0.0290 -0.5848
  769MOL0     H 3754   9.100   3.174   2.532 -0.0924 -0.9772  0.8604
  769MOL0     H 3755   9.194   3.285   2.633  0.0952  1.4898 -1.1407
  769MOL0     H 3756   9.352   3.112   2.427  1.9141  1.8690 -0.2658
  769MOL0     H 3757   9.395   3.174   2.586 -0.1911  4.0571 -3.1181
  769MOL0     H 3758   9.226   2.989   2.674 -0.2691  2.5861 -0.1058
  769MOL0     H 3759   9.209   2.938   2.510 -1.3651  0.1020  1.6434
  769MOL0     H 3760   9.351   2.795   2.623 -1.2464  0.7949  0.4382
  769MOL0     H 3761   9.447   2.873   2.495 -2.8570 -0.5075 -1.1571
  769MOL0     H 3762   9.427   2.942   2.795 -0.2293  2.1220 -0.2456
  769MOL0     H 3763   9.528   3.029   2.688 -2.0125  0.0044 -2.1517
  769MOL0     H 3764   9.583   2.755   2.807  0.2880  0.1822  0.7567
  769MOL0     H 3765   9.636   2.797   2.637  1.2545  1.3058  0.2470
  769MOL0     H 3766   9.638   2.928   2.992  0.1845 -0.3117  0.2765
  769MOL0     H 3767   9.833   3.009   3.160 -0.9631 -2.0601 -0.8507
  769MOL0     H 3768   9.971   2.919   3.105  0.9885  1.2950  0.7786
  769MOL0     H 3769  10.086   3.103   3.178  0.1815 -2.7011  0.1157
  769MOL0     H 3770  10.096   3.106   3.001  2.4973 -1.1496  1.0444
  769MOL0     H 3771  10.012   3.320   2.990  0.6445 -0.2271  0.9180
  769MOL0     H 3772  10.014   3.330   3.160 -1.7263  0.2447  0.7582
  769MOL0     H 3773   9.772   3.207   3.137  0.4763  1.1200  0.4867
  769MOL0     H 3774   9.807   3.251   2.970  0.0313 -0.4234  0.0146
  769MOL0     H 3775   9.568   3.275   3.081 -0.4515 -0.6403 -2.9931
  769MOL0     H 3776   9.352   3.362   3.030 -0.5340  0.3064 -0.1600
  769MOL0     H 3777   9.014   3.467   2.655  0.3584  0.0422 -0.3106
  769MOL0     H 3778   8.762   3.533   2.678  1.2048  2.8925 -1.7402
  769MOL0     H 3779   8.565   3.631   2.718  0.2030  2.3436  0.2648
  769MOL0     H 3780   8.554   3.495   2.823 -2.2763  0.4192  2.0696
  769MOL0     H 3781   8.424   3.663   2.982 -0.8291 -0.6154 -0.4966
  769MOL0     H 3782   8.411   3.768   2.833 -2.4870 -0.3493 -2.2130
  769MOL0     H 3783   8.318   3.643   2.697  0.2378 -2.3809 -1.1536
  769MOL0     H 3784   8.325   3.492   2.784  3.5411 -0.0877  2.2021
  769MOL0     H 3785   8.191   3.759   2.866  0.4361 -0.1210 -1.4162
  769MOL0     H 3786   8.172   3.605   2.954  1.4544  1.4925  1.6432
  769MOL0     H 3787   8.039   3.531   2.734 -1.3628  0.1273 -0.0674
  769MOL0     H 3788   8.105   3.674   2.664  3.0827 -0.0179  0.3519
  769MOL0     H 3789   7.910   3.644   2.894 -0.6168  1.6227  1.7552
  769MOL0     H 3790   7.973   3.804   2.836  1.7466 -1.1305  0.1499
  769MOL0     H 3791   7.820   3.596   2.665  0.4625 -0.5505 -1.4425
  769MOL0     H 3792   7.884   3.750   2.613 -1.3500 -0.3836 -0.3112
  769MOL0     H 3793   7.641   3.741   2.804 -0.8024  1.1320 -0.4406
  769MOL0     H 3794   7.726   3.882   2.773 -0.4319  0.6461  1.9419
  769MOL0     H 3795   8.844   3.712   3.049 -0.6854 -1.8009  0.6623
  769MOL0     H 3796   9.074   3.648   3.046 -1.1854  1.4655  0.2209
  769MOL0     H 3797   9.556   3.728   2.906 -2.2771 -0.4468 -0.5833
  769MOL0     H 3798   9.750   3.649   3.005 -2.1767  2.5646  2.5255
  769MOL0     H 3799   8.795   3.237   2.308  1.0226  0.0541 -0.2398
  769MOL0     H 3800   8.600   3.315   2.198 -0.2739 -1.7231  1.3280
  769MOL0     H 3801   8.275   3.792   2.390  1.9641 -2.1267  0.4741
  769MOL0     H 3802   8.053   3.889   2.323 -0.5242 -0.5187  0.3115
  769MOL0     H 3803   7.815   3.923   2.226  2.2591  0.9255  0.1270
  769MOL0     H 3804   7.814   3.748   2.206  0.1123  1.7427  2.8133
  769MOL0     H 3805   7.732   3.753   1.978  1.9224 -1.2662  1.6700
  769MOL0     H 3806   7.722   3.929   1.988  0.4464 -0.0576 -0.1192
  769MOL0     H 3807   7.578   3.902   2.183  1.5370 -1.3660  1.0115
  769MOL0     H 3808   7.559   3.727   2.154 -2.7788 -0.0557  0.1086
  769MOL0     H 3809   7.486   3.947   1.958  1.0997 -0.6639 -1.9513
  769MOL0     H 3810   7.480   3.775   1.915 -1.8643 -1.9793  0.8388
  769MOL0     H 3811   7.120   3.795   2.128  0.0884 -0.6660  0.9654
  769MOL0     H 3812   8.094   3.661   1.965  2.6870 -1.4193  0.0232
  769MOL0     H 3813   8.393   3.529   1.981 -0.4633  0.0096 -0.3671
  769MOL0     H 3814   8.267   3.422   2.050 -0.7631 -0.9968 -1.6254
  769MOL0     H 3815   8.231   3.530   1.916  1.9492  1.4666  0.1287
  770MOL0     O 3816  11.145   6.602   5.644  0.3890  0.0059 -0.2048
  770MOL0     C 3817  11.149   6.571   5.521 -1.1208 -0.4378 -0.7615
  770MOL0     O 3818  11.053   6.501   5.459 -0.4113 -0.1595 -0.1114
  770MOL0     C 3819  10.925   6.493   5.504 -0.1676 -0.2794  0.2093
  770MOL0     C 3820  10.861   6.596   5.576  0.0173  0.0360  0.8860
  770MOL0     C 3821  10.719   6.586   5.599  0.2744 -0.3545 -0.0819
  770MOL0     C 3822  10.653   6.467   5.550  0.4804 -0.6848 -0.2808
  770MOL0     O 3823  10.512   6.466   5.557  0.1718 -0.4905 -0.0380
  770MOL0     C 3824  10.443   6.352   5.511 -0.1477 -0.1023  0.8691
  770MOL0     C 3825  10.290   6.343   5.535 -0.1034 -0.5706 -0.0901
  770MOL0     C 3826  10.256   6.343   5.687 -0.0735  0.1985 -0.1679
  770MOL0     C 3827  10.101   6.303   5.706 -0.5028  0.2027  0.1349
  770MOL0     C 3828  10.038   6.331   5.849 -0.5772 -0.8479  0.7009
  770MOL0     C 3829   9.888   6.360   5.842 -0.1544 -0.0546 -0.2754
  770MOL0     C 3830   9.826   6.352   5.982 -0.5158 -1.1356  0.0049
  770MOL0     C 3831   9.830   6.220   6.065  0.4190  0.6757  0.0673
  770MOL0     N 3832   9.745   6.131   5.987 -0.2277 -0.2908  0.4924
  770MOL0     C 3833   9.609   6.139   5.976  0.3884 -0.7244 -0.2295
  770MOL0     C 3834   9.575   6.008   5.950  0.6040 -0.1171  0.4879
  770MOL0     C 3835   9.430   5.961   5.953  1.5255  0.6397 -0.0165
  770MOL0     C 3836   9.340   6.049   5.868 -0.1021 -0.3208  0.5100
  770MOL0     C 3837   9.193   6.045   5.895 -0.7281  0.3548  0.1051
  770MOL0     C 3838   9.102   6.087   5.775 -0.1200 -0.0653 -0.2791
  770MOL0     O 3839   9.146   6.211   5.720 -0.0029 -0.2658 -0.0329
  770MOL0     C 3840   9.075   6.278   5.631  0.6338  0.7403  0.2556
  770MOL0     C 3841   9.088   6.411   5.623 -0.6314 -0.0657 -0.0845
  770MOL0     C 3842   9.010   6.492   5.542 -0.0532  0.0204 -0.3553
  770MOL0     C 3843   8.916   6.432   5.454  0.8070 -0.6818 -1.2776
  770MOL0     C 3844   8.819   6.501   5.380 -0.5681  0.4078 -0.0262
  770MOL0     O 3845   8.718   6.430   5.329 -0.1776 -0.3349 -0.0824
  770MOL0     C 3846   8.634   6.481   5.240  0.0778 -0.5304 -0.3541
  770MOL0     C 3847   8.533   6.568   5.282  0.1160 -0.1850 -0.5051
  770MOL0     C 3848   8.438   6.624   5.200 -0.0872  0.1741 -0.4350
  770MOL0     C 3849   8.446   6.600   5.067 -0.4002  0.1213  0.5259
  770MOL0     O 3850   8.352   6.644   4.971 -0.0624  0.2607 -0.2734
  770MOL0     C 3851   8.264   6.761   4.990 -0.2644  0.6750 -0.7529
  770MOL0     C 3852   8.194   6.806   4.864 -0.4948  0.3784  0.0455
  770MOL0     C 3853   8.299   6.842   4.754 -0.5281  0.4252 -0.1752
  770MOL0     C 3854   8.231   6.927   4.655  0.1845  0.1092 -1.1403
  770MOL0     C 3855   8.318   6.966   4.542 -0.1090 -0.5982 -0.0033
  770MOL0     C 3856   8.365   6.854   4.463 -0.2412 -0.5350  1.1090
  770MOL0     C 3857   8.408   6.911   4.322 -0.1243  0.6099  0.1395
  770MOL0     C 3858   8.443   6.811   4.212  0.9647 -0.2180  0.9146
  770MOL0    Cl 3859   8.460   6.912   4.062  0.4143 -0.0882  0.0542
  770MOL0     C 3860   8.540   6.505   5.024 -0.1908  0.4674 -0.2265
  770MOL0     C 3861   8.631   6.444   5.111  0.4579 -1.3458  0.3400
  770MOL0     O 3862   8.841   6.615   5.364  0.8291 -0.1637 -0.0901
  770MOL0     C 3863   8.887   6.291   5.477  0.6665 -0.4246 -0.1392
  770MOL0     C 3864   8.973   6.219   5.559 -0.0832 -0.3889 -0.2151
  770MOL0     N 3865   9.681   5.927   5.944 -0.6869  0.4942  0.4865
  770MOL0     N 3866   9.786   6.002   5.967  0.3908  1.1400  0.7970
  770MOL0     C 3867  10.725   6.368   5.481  0.2457  0.1392 -0.0294
  770MOL0     C 3868  10.860   6.374   5.464 -0.2433  0.4248 -0.0645
  770MOL0     C 3869  11.270   6.608   5.455  0.3454 -0.1854  0.3497
  770MOL0     C 3870  11.258   6.704   5.352  0.0716 -1.5711 -0.0631
  770MOL0     C 3871  11.375   6.752   5.291 -0.3239  0.1498 -0.0309
  770MOL0     C 3872  11.502   6.707   5.340  0.6257 -0.6189 -0.7654
  770MOL0     O 3873  11.620   6.762   5.288  0.4281  0.1373  0.3453
  770MOL0     C 3874  11.716   6.672   5.221  0.4015 -0.0599  0.2792
  770MOL0     C 3875  11.680   6.648   5.073 -0.5213 -1.0430  0.0813
  770MOL0     C 3876  11.748   6.726   4.964 -0.2711  0.7685  1.1726
  770MOL0     C 3877  11.899   6.689   4.962  1.0110  0.3201  0.6935
  770MOL0     C 3878  11.927   6.563   4.891  0.3892 -0.4340 -0.7252
  770MOL0     C 3879  11.963   6.463   4.843 -0.3149 -0.1015  0.7272
  770MOL0     C 3880  11.514   6.617   5.449  0.4587  1.1423  0.5191
  770MOL0     C 3881  11.399   6.565   5.500 -0.5763  0.3647  0.8154
  770MOL0     C 3882  11.410   6.451   5.604  0.8210  0.4071 -0.2751
  770MOL0     H 3883  10.901   6.692   5.607 -0.0932  0.3049  0.2040
  770MOL0     H 3884  10.652   6.667   5.627 -2.2931 -1.9907 -1.0603
  770MOL0     H 3885  10.462   6.350   5.403  2.1250 -0.8881  1.2400
  770MOL0     H 3886  10.492   6.262   5.548  0.7673 -1.3614 -2.9112
  770MOL0     H 3887  10.251   6.257   5.481  2.0010 -0.6553 -1.5881
  770MOL0     H 3888  10.245   6.432   5.488 -2.0543 -2.6619 -2.4548
  770MOL0     H 3889  10.273   6.439   5.737  1.2827 -0.6745  1.1243
  770MOL0     H 3890  10.330   6.278   5.734  0.2599  0.7422  0.0637
  770MOL0     H 3891  10.042   6.366   5.638 -0.3975  0.4539  0.2760
  770MOL0     H 3892  10.079   6.198   5.683  0.0109  0.0264  0.4238
  770MOL0     H 3893  10.055   6.245   5.914 -0.6752  1.1301  3.5302
  770MOL0     H 3894  10.083   6.423   5.889 -5.2246  1.5456  1.0640
  770MOL0     H 3895   9.875   6.455   5.788 -1.0352  1.0569  1.7745
  770MOL0     H 3896   9.838   6.279   5.789  1.7080 -1.2542 -0.2778
  770MOL0     H 3897   9.721   6.378   5.971 -1.0460 -0.9379  4.0109
  770MOL0     H 3898   9.869   6.429   6.048 -3.5689 -0.8126  1.8083
  770MOL0     H 3899   9.932   6.183   6.078 -0.3236 -1.5625 -0.1344
  770MOL0     H 3900   9.785   6.236   6.163 -0.2475 -1.1565  0.0875
  770MOL0     H 3901   9.554   6.229   5.999  1.1821 -0.6577  1.5518
  770MOL0     H 3902   9.419   5.861   5.910 -0.6578  1.1306 -0.6999
  770MOL0     H 3903   9.399   5.962   6.058 -1.8476  2.3528 -0.9034
  770MOL0     H 3904   9.382   6.150   5.873  2.6712 -1.3036 -0.8847
  770MOL0     H 3905   9.362   6.028   5.763  1.3169  2.4873  0.1375
  770MOL0     H 3906   9.172   6.108   5.982  0.3371  2.1770 -0.9025
  770MOL0     H 3907   9.166   5.941   5.919  1.3432 -0.4070 -0.6482
  770MOL0     H 3908   8.995   6.084   5.796 -0.2058  2.2495 -0.2227
  770MOL0     H 3909   9.117   6.017   5.692 -3.2106 -1.5797  0.3055
  770MOL0     H 3910   9.171   6.451   5.680 -0.5158  0.6157 -0.7194
  770MOL0     H 3911   9.029   6.599   5.546  0.7287 -0.1063 -0.5372
  770MOL0     H 3912   8.516   6.603   5.383 -1.9666  2.1886 -1.5667
  770MOL0     H 3913   8.361   6.690   5.238 -0.7004 -0.8042  0.0677
  770MOL0     H 3914   8.182   6.739   5.059 -2.1533  0.6043 -2.8905
  770MOL0     H 3915   8.327   6.841   5.030 -0.3087  0.5794 -0.4890
  770MOL0     H 3916   8.140   6.722   4.819  2.2924 -0.4265 -2.0799
  770MOL0     H 3917   8.131   6.887   4.901  1.2958  1.5866  0.5725
  770MOL0     H 3918   8.390   6.888   4.794 -0.8476  0.7008  0.2455
  770MOL0     H 3919   8.325   6.751   4.700 -0.1237  1.1007 -1.1562
  770MOL0     H 3920   8.195   7.012   4.713 -2.5547 -2.6977  1.7357
  770MOL0     H 3921   8.145   6.867   4.622  0.1670 -1.1012  0.9390
  770MOL0     H 3922   8.408   7.009   4.588 -0.5442 -0.1462  0.4358
  770MOL0     H 3923   8.266   7.043   4.484  0.6278  1.9333  2.4994
  770MOL0     H 3924   8.454   6.806   4.505  0.1371  1.5047  2.7980
  770MOL0     H 3925   8.281   6.786   4.444  0.7811 -0.8613 -3.0794
  770MOL0     H 3926   8.491   6.979   4.343 -0.8721  0.6908  3.4281
  770MOL0     H 3927   8.327   6.966   4.275  0.5467  1.0044 -0.5700
  770MOL0     H 3928   8.539   6.759   4.218  0.8166 -0.3327  3.0307
  770MOL0     H 3929   8.357   6.745   4.199  0.7283  0.5293 -2.1163
  770MOL0     H 3930   8.535   6.486   4.917 -0.9884  0.3227 -0.1667
  770MOL0     H 3931   8.682   6.353   5.081 -1.2421 -1.7291 -1.5778
  770MOL0     H 3932   8.811   6.246   5.414 -0.0797 -0.3321  0.6702
  770MOL0     H 3933   8.944   6.115   5.572  1.1823 -0.4560  2.7545
  770MOL0     H 3934  10.673   6.284   5.436 -0.6489  0.0056  1.2287
  770MOL0     H 3935  10.901   6.291   5.406 -1.5280 -0.5703  0.4072
  770MOL0     H 3936  11.162   6.739   5.317  1.5115  1.3308 -1.4737
  770MOL0     H 3937  11.360   6.829   5.216  1.0769 -0.3549 -0.8472
  770MOL0     H 3938  11.709   6.577   5.274 -1.8195 -0.3348 -0.4400
  770MOL0     H 3939  11.816   6.718   5.225  0.8227 -1.0549  3.2007
  770MOL0     H 3940  11.572   6.658   5.060 -0.1921  1.1780 -1.3666
  770MOL0     H 3941  11.711   6.545   5.054  1.6707 -0.2292 -1.1112
  770MOL0     H 3942  11.737   6.831   4.993  2.8387  1.5928 -0.1955
  770MOL0     H 3943  11.699   6.717   4.867  2.7952  0.2874 -0.4651
  770MOL0     H 3944  11.953   6.772   4.917 -0.2138  2.5736  3.0707
  770MOL0     H 3945  11.925   6.671   5.067  2.2448  1.2943  0.5730
  770MOL0     H 3946  11.984   6.371   4.792 -1.2957  0.8531 -1.5576
  770MOL0     H 3947  11.607   6.578   5.489  0.0375 -0.4396  0.0274
  770MOL0     H 3948  11.490   6.378   5.587  0.3494 -0.4841  1.1210
  770MOL0     H 3949  11.440   6.495   5.700 -0.7397 -1.0218  0.9434
  770MOL0     H 3950  11.321   6.388   5.609  1.6548 -0.7042  2.2959
  771MOL0     O 3951   3.301  10.268   1.137 -0.0679 -0.1033  0.8228
  771MOL0     C 3952   3.189  10.315   1.142  0.7279 -0.2679 -1.2605
  771MOL0     O 3953   3.136  10.364   1.258 -0.0230 -0.3512 -0.2631
  771MOL0     C 3954   3.227  10.409   1.354  0.2231 -0.4435  0.8383
  771MOL0     C 3955   3.328  10.497   1.325  0.3980 -0.0632  0.5713
  771MOL0     C 3956   3.412  10.550   1.421  0.5799 -0.3477 -0.7419
  771MOL0     C 3957   3.402  10.509   1.557 -1.2695 -0.0232  0.4137
  771MOL0     O 3958   3.491  10.550   1.654  0.2275 -0.0893  0.7063
  771MOL0     C 3959   3.629  10.520   1.637  0.2332  0.1188  0.1417
  771MOL0     C 3960   3.697  10.443   1.758  0.5793 -0.2049 -0.5777
  771MOL0     C 3961   3.852  10.459   1.777  1.3203 -0.0222  0.0693
  771MOL0     C 3962   3.925  10.389   1.663 -0.5005  0.0714  0.4321
  771MOL0     C 3963   4.071  10.386   1.681  0.0138  0.3152 -0.0231
  771MOL0     C 3964   4.151  10.323   1.559  0.1041  0.6415 -0.5671
  771MOL0     C 3965   4.305  10.337   1.570 -0.1810  0.2874  0.3260
  771MOL0     C 3966   4.370  10.268   1.690 -0.0035  0.6544 -0.5071
  771MOL0     N 3967   4.510  10.279   1.678 -0.9881 -0.3538  0.6318
  771MOL0     C 3968   4.583  10.389   1.713  0.2633 -0.7086  0.9577
  771MOL0     C 3969   4.712  10.379   1.670  0.3405  1.1473  0.6598
  771MOL0     C 3970   4.817  10.483   1.679  0.3943 -0.6545 -0.0058
  771MOL0     C 3971   4.948  10.426   1.613 -0.1719 -0.8044 -0.2626
  771MOL0     C 3972   5.054  10.549   1.613  0.6922 -0.5081  0.5525
  771MOL0     C 3973   5.178  10.508   1.526  0.0742  1.1228 -0.1127
  771MOL0     O 3974   5.281  10.595   1.589  0.9741  0.2551  0.7121
  771MOL0     C 3975   5.410  10.576   1.565 -0.2805 -0.8225 -0.0028
  771MOL0     C 3976   5.506  10.676   1.575 -0.4210 -0.1255 -0.2143
  771MOL0     C 3977   5.649  10.657   1.562 -0.3064 -0.1906  1.7972
  771MOL0     C 3978   5.696  10.528   1.548  0.0527 -0.3083 -0.5204
  771MOL0     C 3979   5.838  10.498   1.533  0.0356 -0.6310 -0.6521
  771MOL0     O 3980   5.870  10.369   1.486 -0.5915 -0.9091  0.6003
  771MOL0     C 3981   6.012  10.347   1.476  0.4598  0.5229 -0.6708
  771MOL0     C 3982   6.098  10.385   1.371 -0.3800 -0.5254  0.1382
  771MOL0     C 3983   6.233  10.346   1.369 -0.1136 -0.7569 -1.3646
  771MOL0     C 3984   6.292  10.277   1.483  0.0118 -0.1564 -0.6668
  771MOL0     O 3985   6.424  10.253   1.492 -0.8758 -0.2590 -0.2818
  771MOL0     C 3986   6.529  10.318   1.411 -0.9803 -0.4766  0.4930
  771MOL0     C 3987   6.651  10.240   1.374  0.2595  0.6901  0.4047
  771MOL0     C 3988   6.605  10.099   1.323 -0.6101  0.0044  0.1132
  771MOL0     C 3989   6.713  10.049   1.223  0.5331  0.6016  0.2120
  771MOL0     C 3990   6.823   9.970   1.284  0.4344 -1.3100  0.2014
  771MOL0     C 3991   6.942   9.935   1.185 -0.1812 -0.5396  0.2606
  771MOL0     C 3992   6.903   9.895   1.043 -0.2963 -0.2447 -0.2112
  771MOL0     C 3993   6.850   9.745   1.036  0.1427  0.0964  0.7013
  771MOL0    Cl 3994   6.935   9.627   1.140 -0.4609  0.1760 -0.1721
  771MOL0     C 3995   6.202  10.228   1.580  0.0501  0.7223  0.2044
  771MOL0     C 3996   6.068  10.268   1.578 -0.5584  1.1621  0.6882
  771MOL0     O 3997   5.921  10.588   1.561  0.7124 -0.1228  0.0593
  771MOL0     C 3998   5.600  10.422   1.525 -0.1805  0.0668 -0.5963
  771MOL0     C 3999   5.464  10.456   1.538  0.4956  0.9340  0.3970
  771MOL0     N 4000   4.716  10.254   1.621 -0.5407  1.0459  0.6884
  771MOL0     N 4001   4.603  10.190   1.617  0.3909 -0.5290  0.0490
  771MOL0     C 4002   3.295  10.426   1.584  0.1091  0.8958  0.1056
  771MOL0     C 4003   3.208  10.369   1.485 -0.0665 -0.3631 -0.5245
  771MOL0     C 4004   3.110  10.286   1.017 -0.1807 -0.0695 -0.1092
  771MOL0     C 4005   3.156  10.184   0.927 -0.5278 -0.3476  0.5539
  771MOL0     C 4006   3.087  10.145   0.815 -0.7062  0.0406  0.4514
  771MOL0     C 4007   2.966  10.200   0.781  0.1446 -0.9860  0.3357
  771MOL0     O 4008   2.879  10.169   0.672 -0.1501 -0.6776 -0.3711
  771MOL0     C 4009   2.919  10.072   0.582 -0.3242  0.2221  0.5547
  771MOL0     C 4010   2.809  10.072   0.469  0.5512 -0.3651 -0.0983
  771MOL0     C 4011   2.668  10.051   0.531 -0.5185  0.2653  0.3342
  771MOL0     C 4012   2.642   9.914   0.590  0.3637  1.6419  0.1642
  771MOL0     C 4013   2.644   9.803   0.493 -0.3493  0.0726  0.9304
  771MOL0     C 4014   2.632   9.702   0.425  0.4963 -0.1052 -0.7539
  771MOL0     C 4015   2.924  10.302   0.872 -0.0389 -0.4971  0.1856
  771MOL0     C 4016   2.984  10.334   0.991 -0.7162 -0.2696  0.1006
  771MOL0     C 4017   2.909  10.427   1.089 -0.7316  0.4625  0.7851
  771MOL0     H 4018   3.331  10.528   1.222  2.4297  0.8757  0.8499
  771MOL0     H 4019   3.493  10.617   1.393  1.3186 -0.6342  0.6287
  771MOL0     H 4020   3.643  10.463   1.545 -0.6551 -0.7091  0.4924
  771MOL0     H 4021   3.679  10.616   1.625 -0.8637  0.4059 -3.2500
  771MOL0     H 4022   3.667  10.339   1.742  0.7094 -0.3263 -0.0538
  771MOL0     H 4023   3.647  10.478   1.849  3.9296  1.3194  0.8609
  771MOL0     H 4024   3.882  10.406   1.868  0.1662 -0.2815  0.3132
  771MOL0     H 4025   3.881  10.564   1.782  3.7167 -0.6777  1.1662
  771MOL0     H 4026   3.908  10.281   1.667 -2.9592  0.3713 -0.0071
  771MOL0     H 4027   3.890  10.419   1.563 -1.6702 -1.1377  0.4475
  771MOL0     H 4028   4.095  10.492   1.685  1.7846  0.1413 -2.9494
  771MOL0     H 4029   4.094  10.330   1.772  3.4381 -0.2528 -1.1109
  771MOL0     H 4030   4.123  10.218   1.549 -0.6571  0.9132 -1.6219
  771MOL0     H 4031   4.128  10.381   1.468  0.3354 -2.7029 -2.9362
  771MOL0     H 4032   4.335  10.442   1.572 -0.8645  0.4797  0.7382
  771MOL0     H 4033   4.349  10.292   1.481  0.4446 -3.5085  2.3494
  771MOL0     H 4034   4.346  10.308   1.789  0.9787 -0.7527  0.3516
  771MOL0     H 4035   4.366  10.158   1.695  0.9603  0.6603  0.9001
  771MOL0     H 4036   4.538  10.483   1.743  0.7502 -0.3411  0.5545
  771MOL0     H 4037   4.781  10.555   1.605 -2.5678  0.1865  2.0610
  771MOL0     H 4038   4.827  10.522   1.780  2.1256  0.6917 -0.6473
  771MOL0     H 4039   4.985  10.335   1.662 -0.9928 -0.9649  0.0846
  771MOL0     H 4040   4.929  10.396   1.510  1.3766 -4.2970  0.3213
  771MOL0     H 4041   5.073  10.583   1.715 -0.1248  1.1963  0.1817
  771MOL0     H 4042   5.011  10.641   1.572  3.8912  0.9184  0.0906
  771MOL0     H 4043   5.164  10.535   1.421 -0.4318  0.2851 -0.2732
  771MOL0     H 4044   5.208  10.403   1.529  0.1484  1.1300 -0.5132
  771MOL0     H 4045   5.474  10.776   1.603  1.0611  0.0579  0.9304
  771MOL0     H 4046   5.717  10.741   1.569  0.1163 -0.5526  2.1287
  771MOL0     H 4047   6.056  10.431   1.282  0.2956 -1.4881 -0.7062
  771MOL0     H 4048   6.292  10.362   1.280 -0.1534  0.5752 -1.1712
  771MOL0     H 4049   6.501  10.340   1.307  0.9901  0.7935  0.1686
  771MOL0     H 4050   6.560  10.414   1.454 -2.6716 -0.8110  2.5980
  771MOL0     H 4051   6.710  10.285   1.293  2.5892 -1.2145  0.9015
  771MOL0     H 4052   6.722  10.230   1.457  1.6518  0.8903 -0.7087
  771MOL0     H 4053   6.601  10.026   1.405  0.5274 -1.1059 -0.7795
  771MOL0     H 4054   6.506  10.109   1.279 -0.1200  1.5309 -0.7405
  771MOL0     H 4055   6.747  10.124   1.152  1.5920 -0.9475 -0.9941
  771MOL0     H 4056   6.661   9.985   1.150  3.4144 -1.4873 -0.2062
  771MOL0     H 4057   6.774   9.879   1.320 -2.0977  0.6643  2.1158
  771MOL0     H 4058   6.861  10.022   1.373  1.1218 -2.8099  0.8181
  771MOL0     H 4059   7.001  10.027   1.180 -0.5227 -0.3631 -0.8049
  771MOL0     H 4060   7.007   9.859   1.230 -0.2516 -0.6802  0.1238
  771MOL0     H 4061   6.992   9.903   0.979 -0.1630  1.1934  0.1292
  771MOL0     H 4062   6.830   9.963   0.997  3.0575  3.4679 -0.5513
  771MOL0     H 4063   6.743   9.738   1.057  0.3314 -1.7632  1.2156
  771MOL0     H 4064   6.873   9.719   0.932  0.5157  2.0815  0.2463
  771MOL0     H 4065   6.243  10.173   1.663  2.1024 -1.1338 -1.8762
  771MOL0     H 4066   6.009  10.236   1.663 -0.4868 -1.7820 -0.2716
  771MOL0     H 4067   5.630  10.320   1.505  3.4323  0.6506  1.0324
  771MOL0     H 4068   5.399  10.370   1.545  3.2109 -1.6891 -2.9927
  771MOL0     H 4069   3.284  10.392   1.686 -0.3562 -0.2461 -0.3116
  771MOL0     H 4070   3.129  10.304   1.520  2.3654 -1.3485  3.8472
  771MOL0     H 4071   3.251  10.135   0.948 -0.8030 -0.6987  0.9969
  771MOL0     H 4072   3.138  10.072   0.753 -2.0296  0.0759 -0.7137
  771MOL0     H 4073   2.911   9.975   0.632  2.2472 -0.0689  0.5368
  771MOL0     H 4074   3.021  10.082   0.544 -0.6323 -0.7660 -0.6136
  771MOL0     H 4075   2.830   9.993   0.395  2.4968 -0.4393  0.4589
  771MOL0     H 4076   2.792  10.167   0.417  0.0243 -0.9913 -1.1116
  771MOL0     H 4077   2.605  10.068   0.444  1.1991  2.8077 -0.5410
  771MOL0     H 4078   2.641  10.137   0.594  1.0043 -0.4011  1.9781
  771MOL0     H 4079   2.720   9.890   0.663 -0.8914 -2.1140  0.4937
  771MOL0     H 4080   2.541   9.912   0.634  0.2309 -1.9883  0.0456
  771MOL0     H 4081   2.610   9.602   0.392  0.9827  0.0680 -1.6526
  771MOL0     H 4082   2.824  10.343   0.857 -0.7776 -2.6171 -1.1080
  771MOL0     H 4083   2.823  10.472   1.039 -0.4442  2.8234  2.2829
  771MOL0     H 4084   2.865  10.363   1.166 -1.8945  1.9822  1.4236
  771MOL0     H 4085   2.971  10.510   1.126  1.0539  0.4201 -1.8361
  772MOL0     O 4086   9.449   4.302   5.918 -0.2025 -0.3640  0.4395
  772MOL0     C 4087   9.459   4.192   5.872  0.0195  0.1479  0.1331
  772MOL0     O 4088   9.576   4.137   5.828 -0.0754 -0.8182  1.3262
  772MOL0     C 4089   9.684   4.215   5.859 -0.6009  0.2754 -0.3749
  772MOL0     C 4090   9.731   4.309   5.768  0.0842 -0.4627 -0.3315
  772MOL0     C 4091   9.852   4.386   5.784  0.0902 -0.4367  0.1970
  772MOL0     C 4092   9.921   4.370   5.910  0.6790 -0.0087  0.6043
  772MOL0     O 4093  10.022   4.443   5.961 -0.1783  0.0843  0.1711
  772MOL0     C 4094  10.102   4.521   5.870 -0.5952 -0.3860  0.1782
  772MOL0     C 4095  10.241   4.518   5.941  0.6175  0.4665  0.1535
  772MOL0     C 4096  10.343   4.596   5.870  0.5173 -0.2780  0.0472
  772MOL0     C 4097  10.467   4.619   5.958  0.1309  0.2928  0.7827
  772MOL0     C 4098  10.551   4.738   5.909 -0.2991  1.0137 -0.1265
  772MOL0     C 4099  10.694   4.724   5.974  0.4723  0.3009  0.1030
  772MOL0     C 4100  10.786   4.852   5.964  0.8724  0.7857  0.1110
  772MOL0     C 4101  10.887   4.841   6.081 -0.2278 -0.3090  0.0013
  772MOL0     N 4102  10.996   4.944   6.062 -0.1743 -0.3749 -1.2443
  772MOL0     C 4103  10.994   5.075   6.073 -0.4395  0.2604  0.3701
  772MOL0     C 4104  11.120   5.126   6.062  0.0696  0.6000  0.5780
  772MOL0     C 4105  11.175   5.268   6.047  0.0559  0.1280 -0.8778
  772MOL0     C 4106  11.223   5.330   6.185 -0.6340  0.3092 -0.2607
  772MOL0     C 4107  11.358   5.282   6.227  0.2548 -0.1423  0.8085
  772MOL0     C 4108  11.416   5.358   6.345  0.6910  1.0533  0.2778
  772MOL0     O 4109  11.449   5.493   6.319  0.3712  0.2924  0.4555
  772MOL0     C 4110  11.568   5.532   6.265 -0.0835  0.2365 -0.1341
  772MOL0     C 4111  11.581   5.664   6.232 -0.1147 -0.0721 -0.6255
  772MOL0     C 4112  11.693   5.716   6.173 -0.7157 -0.2782 -0.8123
  772MOL0     C 4113  11.814   5.641   6.167  0.2578  0.0256 -0.3101
  772MOL0     C 4114  11.944   5.699   6.132  0.0134  0.3662  0.6319
  772MOL0     O 4115  12.067   5.621   6.125 -0.1280  0.7290  0.1443
  772MOL0     C 4116  12.188   5.683   6.108 -0.1593  0.4362  0.2653
  772MOL0     C 4117  12.287   5.652   6.204  0.1338  0.4806  0.5612
  772MOL0     C 4118  12.415   5.713   6.193  0.4172  0.7126 -0.5341
  772MOL0     C 4119  12.451   5.781   6.076 -0.4472 -0.3294 -1.0291
  772MOL0     O 4120  12.572   5.835   6.058 -0.4595 -0.0109  0.4575
  772MOL0     C 4121  12.661   5.867   6.165 -0.0592 -0.6094 -0.3033
  772MOL0     C 4122  12.756   5.975   6.128 -0.8686  0.2342 -0.4530
  772MOL0     C 4123  12.689   6.107   6.098 -0.2154  0.6313 -0.2112
  772MOL0     C 4124  12.788   6.191   6.025 -0.9728  0.5836 -0.0502
  772MOL0     C 4125  12.720   6.309   5.958  0.2642 -0.5928  0.6452
  772MOL0     C 4126  12.629   6.284   5.830  0.2160  0.5283  0.7392
  772MOL0     C 4127  12.697   6.202   5.718  0.3840 -0.1795 -0.3964
  772MOL0     C 4128  12.759   6.283   5.607  0.8909  0.5798 -0.8561
  772MOL0    Cl 4129  12.875   6.407   5.678 -0.2847  0.0968 -0.4217
  772MOL0     C 4130  12.356   5.797   5.974  0.1649 -0.0028  1.0435
  772MOL0     C 4131  12.224   5.753   5.993 -0.2423  0.2674  0.0866
  772MOL0     O 4132  11.946   5.817   6.131  0.3271 -0.6140 -0.3203
  772MOL0     C 4133  11.804   5.504   6.205  0.8049  0.1258 -0.4101
  772MOL0     C 4134  11.677   5.446   6.242 -0.6880  0.3484  0.1098
  772MOL0     N 4135  11.201   5.014   6.065 -0.0939  0.4869  0.0842
  772MOL0     N 4136  11.129   4.916   6.053 -0.3077 -0.0540  0.2253
  772MOL0     C 4137   9.871   4.272   5.997  0.0474 -0.2821  1.1187
  772MOL0     C 4138   9.762   4.193   5.970 -0.9342  0.2013  0.0521
  772MOL0     C 4139   9.343   4.110   5.852  0.2085 -0.1763 -0.4108
  772MOL0     C 4140   9.349   3.971   5.821  0.2800  0.3167 -0.1153
  772MOL0     C 4141   9.237   3.891   5.771  1.0589 -0.2988 -0.2438
  772MOL0     C 4142   9.117   3.961   5.775 -0.0973 -0.3311 -0.1530
  772MOL0     O 4143   8.994   3.905   5.747  0.2652  0.5192  0.2549
  772MOL0     C 4144   8.961   3.781   5.824  0.1721 -0.4315  0.5400
  772MOL0     C 4145   8.942   3.668   5.717 -0.4343  0.8094 -0.0689
  772MOL0     C 4146   8.957   3.530   5.784 -0.8730 -0.1761  0.9557
  772MOL0     C 4147   9.041   3.441   5.692 -0.8983  0.5419 -0.0077
  772MOL0     C 4148   9.186   3.478   5.699 -0.3576 -1.2175  0.4689
  772MOL0     C 4149   9.308   3.502   5.689 -0.2459 -0.5349 -0.2001
  772MOL0     C 4150   9.098   4.092   5.813  0.4438 -0.2028  0.1521
  772MOL0     C 4151   9.215   4.170   5.853  0.4853 -0.0538 -0.2442
  772MOL0     C 4152   9.188   4.319   5.871 -0.6087 -0.2621 -0.1840
  772MOL0     H 4153   9.654   4.325   5.693 -1.1430 -3.4025  0.1562
  772MOL0     H 4154   9.879   4.468   5.719  1.1039 -0.2335  0.8560
  772MOL0     H 4155  10.114   4.477   5.771  0.0110  1.7629 -0.7738
  772MOL0     H 4156  10.056   4.619   5.853 -3.7993 -2.0661 -2.0137
  772MOL0     H 4157  10.271   4.413   5.956  1.2583  0.7751  1.1534
  772MOL0     H 4158  10.227   4.545   6.046 -1.7760 -1.2042  0.3530
  772MOL0     H 4159  10.291   4.691   5.855  1.6276  0.6392  1.6797
  772MOL0     H 4160  10.365   4.552   5.772 -0.4398  0.2648 -0.4210
  772MOL0     H 4161  10.428   4.636   6.059 -2.3554 -3.4565  0.6398
  772MOL0     H 4162  10.522   4.525   5.957 -1.1813 -0.5170 -0.9203
  772MOL0     H 4163  10.556   4.741   5.800 -1.9517 -1.6088 -0.3666
  772MOL0     H 4164  10.504   4.826   5.954  2.2745  2.5709 -0.3124
  772MOL0     H 4165  10.676   4.703   6.080  0.5589  1.5670  0.3804
  772MOL0     H 4166  10.749   4.640   5.930  2.0709  2.4518 -2.2881
  772MOL0     H 4167  10.736   4.948   5.975  1.2284  0.9777  0.0800
  772MOL0     H 4168  10.836   4.856   5.866  0.0254 -1.0380 -0.4525
  772MOL0     H 4169  10.836   4.873   6.173 -0.9359  1.7476 -1.0546
  772MOL0     H 4170  10.921   4.737   6.089 -0.0883 -0.3935 -1.4161
  772MOL0     H 4171  10.900   5.128   6.063 -0.1665  0.8424  0.8302
  772MOL0     H 4172  11.264   5.267   5.983  4.0251  2.6450  3.8687
  772MOL0     H 4173  11.111   5.352   6.020  0.7351  1.2047  0.6735
  772MOL0     H 4174  11.216   5.438   6.175 -1.1945  0.3649  0.6562
  772MOL0     H 4175  11.145   5.309   6.259 -1.0767 -0.8504 -1.0203
  772MOL0     H 4176  11.427   5.295   6.144  0.4556  1.5848  1.2210
  772MOL0     H 4177  11.355   5.176   6.255  2.2067 -0.5970 -0.4663
  772MOL0     H 4178  11.499   5.302   6.388  0.7655  0.2597 -0.8527
  772MOL0     H 4179  11.342   5.358   6.426 -0.1021 -1.9505 -0.3218
  772MOL0     H 4180  11.491   5.720   6.256 -0.5555 -0.9311 -0.2225
  772MOL0     H 4181  11.691   5.821   6.143  0.7567 -0.9628 -3.6368
  772MOL0     H 4182  12.265   5.584   6.286 -0.0400  0.4187  0.4634
  772MOL0     H 4183  12.492   5.684   6.264 -1.5927 -2.2695  0.6420
  772MOL0     H 4184  12.598   5.889   6.252 -0.0768 -2.7054  0.2780
  772MOL0     H 4185  12.720   5.778   6.190  0.5031  0.0376  0.7525
  772MOL0     H 4186  12.830   5.988   6.207 -1.9412  0.7717  0.4813
  772MOL0     H 4187  12.809   5.936   6.040  0.7618 -0.9305  0.9855
  772MOL0     H 4188  12.595   6.097   6.043 -1.1787  2.7411  0.9228
  772MOL0     H 4189  12.671   6.149   6.197 -0.3998 -1.8514  0.9039
  772MOL0     H 4190  12.851   6.128   5.962  0.1428 -2.9311  4.0361
  772MOL0     H 4191  12.848   6.239   6.103 -0.7049  0.3116 -0.0860
  772MOL0     H 4192  12.791   6.389   5.937  0.8816 -1.0149  1.0799
  772MOL0     H 4193  12.662   6.366   6.032  0.3322  0.4634 -0.0961
  772MOL0     H 4194  12.537   6.231   5.854  0.6438 -2.2781 -2.9546
  772MOL0     H 4195  12.595   6.376   5.783  0.7892 -1.0847 -3.1497
  772MOL0     H 4196  12.627   6.128   5.679  0.4350  0.4765 -1.7883
  772MOL0     H 4197  12.772   6.137   5.765  0.9651  1.7958  1.5639
  772MOL0     H 4198  12.824   6.214   5.552  3.2387 -0.7194  3.1178
  772MOL0     H 4199  12.687   6.326   5.537 -0.1863  1.9429  1.0184
  772MOL0     H 4200  12.393   5.850   5.886 -0.2062 -0.4059  0.6358
  772MOL0     H 4201  12.152   5.775   5.915 -0.7367  0.5585  0.6205
  772MOL0     H 4202  11.893   5.441   6.206  0.7944  0.1139 -0.2685
  772MOL0     H 4203  11.681   5.338   6.254 -0.1710  0.1874 -1.4007
  772MOL0     H 4204   9.932   4.247   6.083 -1.7284 -0.0589  2.4858
  772MOL0     H 4205   9.727   4.115   6.037  1.1160 -2.8898 -2.1869
  772MOL0     H 4206   9.445   3.921   5.821  0.3068  0.3606 -0.6756
  772MOL0     H 4207   9.245   3.789   5.735 -1.3974 -0.4427 -0.5224
  772MOL0     H 4208   8.873   3.789   5.889  2.1221  4.0779  3.1324
  772MOL0     H 4209   9.041   3.767   5.898 -2.1067  2.4505  3.8761
  772MOL0     H 4210   8.999   3.680   5.624  0.4794  0.7734  0.4716
  772MOL0     H 4211   8.848   3.665   5.662  0.2981  1.2469 -1.3830
  772MOL0     H 4212   8.859   3.482   5.793 -0.8031 -0.4614  0.2405
  772MOL0     H 4213   9.007   3.538   5.881 -0.8441  3.9146  0.7953
  772MOL0     H 4214   9.042   3.339   5.733  0.5736  2.3635  5.1985
  772MOL0     H 4215   9.006   3.447   5.589 -1.0676  1.2810  0.0875
  772MOL0     H 4216   9.413   3.517   5.674 -0.0441  0.3850  1.8105
  772MOL0     H 4217   9.001   4.140   5.801  0.5255 -0.5940 -2.7198
  772MOL0     H 4218   9.087   4.340   5.834 -0.4599 -0.2586 -0.6044
  772MOL0     H 4219   9.202   4.341   5.977  1.4949 -0.5278 -0.3723
  772MOL0     H 4220   9.254   4.376   5.805 -0.9721 -0.0855 -0.3961
  773MOL0     O 4221   4.700   8.829  11.079  0.1067  0.4015  0.3871
  773MOL0     C 4222   4.666   8.898  10.985  0.3743  1.0820 -0.4045
  773MOL0     O 4223   4.710   8.876  10.860 -0.4944 -0.1038 -0.0914
  773MOL0     C 4224   4.825   8.798  10.835  1.0777  0.6816 -0.5071
  773MOL0     C 4225   4.951   8.865  10.844  0.2316  0.9995 -0.3384
  773MOL0     C 4226   5.058   8.809  10.782  0.1706  1.5185  0.5927
  773MOL0     C 4227   5.058   8.681  10.724 -0.1453  0.3179  0.7117
  773MOL0     O 4228   5.172   8.625  10.662 -0.3801 -0.3183  0.0412
  773MOL0     C 4229   5.241   8.720  10.576 -0.3574 -0.0222  0.5958
  773MOL0     C 4230   5.340   8.656  10.490  0.1097  0.0254 -0.5172
  773MOL0     C 4231   5.399   8.747  10.382  0.1193 -0.4986 -0.1318
  773MOL0     C 4232   5.502   8.846  10.453 -0.0774 -0.8049  0.0088
  773MOL0     C 4233   5.614   8.893  10.358  0.3402 -0.5045 -0.7142
  773MOL0     C 4234   5.749   8.829  10.402  0.2490 -0.0776  0.5684
  773MOL0     C 4235   5.874   8.870  10.329 -0.1104  0.1201  0.2904
  773MOL0     C 4236   5.878   8.807  10.187  0.6119  0.8004  0.4278
  773MOL0     N 4237   5.980   8.854  10.094 -0.2750  0.6111  0.5144
  773MOL0     C 4238   6.003   8.986  10.070 -0.0928  0.1110  0.1931
  773MOL0     C 4239   6.117   8.978   9.992  0.2482 -0.7260  0.3612
  773MOL0     C 4240   6.167   9.117   9.937  0.1009 -0.1420  0.1181
  773MOL0     C 4241   6.275   9.174  10.019 -0.6068  0.6368  0.0701
  773MOL0     C 4242   6.412   9.104   9.992 -0.1298 -0.8582 -0.4124
  773MOL0     C 4243   6.517   9.150  10.093  0.5441  1.1598 -0.7633
  773MOL0     O 4244   6.582   9.268  10.067  0.3241  0.2003 -0.0484
  773MOL0     C 4245   6.689   9.277   9.980 -0.9348 -0.2177  0.0169
  773MOL0     C 4246   6.759   9.396   9.989 -0.2374 -0.2381  0.9707
  773MOL0     C 4247   6.875   9.413   9.912 -0.5135  0.9726  0.4710
  773MOL0     C 4248   6.933   9.310   9.835  0.1092 -0.5453  0.6788
  773MOL0     C 4249   7.051   9.333   9.753  0.4802  0.4079 -0.3767
  773MOL0     O 4250   7.136   9.436   9.780 -0.5749 -0.3625  0.1002
  773MOL0     C 4251   7.240   9.450   9.690  0.1114 -0.4062  0.9453
  773MOL0     C 4252   7.374   9.445   9.737 -0.0553 -0.6263  0.3211
  773MOL0     C 4253   7.482   9.468   9.644 -0.0351 -0.6885 -0.1407
  773MOL0     C 4254   7.459   9.489   9.506  0.6507 -1.0239 -0.8384
  773MOL0     O 4255   7.575   9.497   9.439 -0.3733  0.4360 -0.2231
  773MOL0     C 4256   7.570   9.507   9.294  0.6298  0.2547  0.3858
  773MOL0     C 4257   7.527   9.645   9.238  0.9496 -0.1435  0.7230
  773MOL0     C 4258   7.652   9.734   9.236 -0.5618 -0.2131 -0.6427
  773MOL0     C 4259   7.762   9.704   9.136 -0.3403  0.3688  0.7647
  773MOL0     C 4260   7.864   9.820   9.115  0.2270 -0.3669 -0.1336
  773MOL0     C 4261   7.966   9.817   9.232  0.1569  0.1181  0.0816
  773MOL0     C 4262   8.064   9.926   9.217  0.7085 -0.3409  0.0428
  773MOL0     C 4263   8.184   9.911   9.300 -0.1745 -0.1540 -0.3170
  773MOL0    Cl 4264   8.282  10.053   9.260  0.1791 -0.0096 -0.9007
  773MOL0     C 4265   7.324   9.492   9.462 -0.4709 -0.5483 -0.6893
  773MOL0     C 4266   7.218   9.479   9.556  0.0737  0.9047 -0.2128
  773MOL0     O 4267   7.072   9.243   9.670 -0.2017 -0.4388  0.1399
  773MOL0     C 4268   6.863   9.191   9.827 -1.0466 -0.6944  1.0182
  773MOL0     C 4269   6.736   9.176   9.894  0.0582  1.5402  0.0066
  773MOL0     N 4270   6.165   8.853   9.980 -0.4323 -0.4320  0.5235
  773MOL0     N 4271   6.083   8.779  10.039  0.1702  0.9238 -0.3786
  773MOL0     C 4272   4.936   8.610  10.729  0.0565 -1.2049 -0.1822
  773MOL0     C 4273   4.819   8.670  10.777 -0.1565  0.8958  0.7916
  773MOL0     C 4274   4.570   9.024  11.005  0.8566  0.3285  0.2208
  773MOL0     C 4275   4.577   9.132  10.907  0.2244 -0.2536  0.0296
  773MOL0     C 4276   4.497   9.246  10.924 -0.4581  0.3937  0.4241
  773MOL0     C 4277   4.414   9.269  11.032  0.2341 -0.9857 -0.3163
  773MOL0     O 4278   4.356   9.393  11.033  0.4103 -0.2293  0.1923
  773MOL0     C 4279   4.320   9.441  11.161 -0.0744  0.0815  0.3119
  773MOL0     C 4280   4.312   9.599  11.160 -0.4669  0.1918 -0.3289
  773MOL0     C 4281   4.223   9.666  11.055 -0.2635  0.0563  0.0063
  773MOL0     C 4282   4.075   9.624  11.037 -0.6091  0.1993  0.4210
  773MOL0     C 4283   4.009   9.627  11.168  0.1611  0.3093 -0.7325
  773MOL0     C 4284   3.942   9.612  11.272 -0.2252 -0.5758  0.8036
  773MOL0     C 4285   4.399   9.161  11.117  0.9872 -0.1158 -0.5193
  773MOL0     C 4286   4.470   9.034  11.100 -0.3844  0.5001  0.3448
  773MOL0     C 4287   4.428   8.915  11.176  0.4758  0.2477  0.0199
  773MOL0     H 4288   4.977   8.966  10.874  0.8323  0.5762  0.6013
  773MOL0     H 4289   5.155   8.858  10.790  1.2411 -0.5801  1.1547
  773MOL0     H 4290   5.168   8.780  10.520  1.8042  1.5362 -0.7539
  773MOL0     H 4291   5.292   8.797  10.636 -0.1313  0.6771 -0.4579
  773MOL0     H 4292   5.288   8.572  10.442  0.0156  0.1364 -0.6072
  773MOL0     H 4293   5.425   8.616  10.547  1.4199 -2.8022 -4.0705
  773MOL0     H 4294   5.319   8.809  10.340  2.2184 -0.2018 -4.1767
  773MOL0     H 4295   5.455   8.697  10.303  0.9202 -0.9203  0.6832
  773MOL0     H 4296   5.453   8.934  10.493  1.5091 -1.1979  3.1212
  773MOL0     H 4297   5.556   8.806  10.540  2.8713  0.2513 -1.2077
  773MOL0     H 4298   5.584   8.858  10.259 -0.0829 -0.7425 -0.5021
  773MOL0     H 4299   5.615   9.003  10.355 -2.0979 -0.3127  2.0166
  773MOL0     H 4300   5.759   8.823  10.510  1.2397 -0.9278  0.4423
  773MOL0     H 4301   5.742   8.722  10.382 -1.0180  0.1879 -0.5769
  773MOL0     H 4302   5.957   8.829  10.387 -1.8731 -3.7308  0.4330
  773MOL0     H 4303   5.884   8.978  10.324  0.1735  0.0878  0.1080
  773MOL0     H 4304   5.897   8.701  10.207  0.7026  0.7867  0.2658
  773MOL0     H 4305   5.789   8.816  10.125  2.7023  1.9796 -2.6302
  773MOL0     H 4306   5.943   9.070  10.105 -1.7626 -1.5656  1.5117
  773MOL0     H 4307   6.216   9.097   9.841  0.8865  1.6423  0.1233
  773MOL0     H 4308   6.084   9.185   9.917  0.7466 -0.0658 -2.7771
  773MOL0     H 4309   6.290   9.271   9.971 -2.5030 -0.2501 -2.5125
  773MOL0     H 4310   6.259   9.207  10.122  1.2126  1.3024  0.1729
  773MOL0     H 4311   6.452   9.121   9.892  3.2145  2.1351  1.2329
  773MOL0     H 4312   6.401   8.997  10.012 -1.9439 -0.1221  3.6068
  773MOL0     H 4313   6.594   9.071  10.089  0.3924  0.8987  0.8343
  773MOL0     H 4314   6.490   9.163  10.198 -0.9421  2.1414 -1.2383
  773MOL0     H 4315   6.733   9.464  10.070  1.0171  1.9547 -0.3732
  773MOL0     H 4316   6.920   9.511   9.909 -0.0066  0.7261 -0.3386
  773MOL0     H 4317   7.404   9.407   9.834 -0.5541  1.1022  1.1989
  773MOL0     H 4318   7.586   9.483   9.669  0.2877  2.3225 -2.7276
  773MOL0     H 4319   7.675   9.499   9.265  0.6947 -0.3246  0.7635
  773MOL0     H 4320   7.505   9.432   9.248 -1.6568  2.9624 -1.1125
  773MOL0     H 4321   7.480   9.636   9.139 -0.6565 -0.5428  1.4902
  773MOL0     H 4322   7.455   9.699   9.300 -2.2235 -0.9032 -2.0227
  773MOL0     H 4323   7.609   9.831   9.208 -1.0007 -0.5759 -1.2605
  773MOL0     H 4324   7.694   9.738   9.337  1.1595 -2.6846 -1.1798
  773MOL0     H 4325   7.713   9.685   9.040  0.2376  1.6315  0.1885
  773MOL0     H 4326   7.811   9.614   9.174 -2.1899 -0.4984  1.1991
  773MOL0     H 4327   7.808   9.914   9.124  0.6325 -0.2029  0.7906
  773MOL0     H 4328   7.914   9.826   9.018  1.2102  0.3537  0.4034
  773MOL0     H 4329   7.906   9.826   9.323  1.1740  0.8296  0.6917
  773MOL0     H 4330   8.000   9.713   9.231 -1.8792 -0.6044  0.7236
  773MOL0     H 4331   7.998  10.005   9.255  0.3149 -0.0234 -1.2812
  773MOL0     H 4332   8.091   9.937   9.112  1.8867 -1.0082  0.2547
  773MOL0     H 4333   8.163   9.899   9.407 -0.8721  2.5427 -0.0665
  773MOL0     H 4334   8.229   9.820   9.258 -0.0901  0.6807 -2.1467
  773MOL0     H 4335   7.317   9.506   9.355  0.0750 -3.1721 -1.1287
  773MOL0     H 4336   7.113   9.484   9.527  0.5568  0.1142 -2.2589
  773MOL0     H 4337   6.890   9.116   9.753 -2.0786  2.2594 -2.7157
  773MOL0     H 4338   6.691   9.079   9.881  1.9920  0.9442 -3.3147
  773MOL0     H 4339   4.928   8.507  10.699 -0.5219 -0.4719 -2.7792
  773MOL0     H 4340   4.728   8.611  10.767  0.1072  0.5112  0.6247
  773MOL0     H 4341   4.629   9.131  10.812  2.9758  1.8564  1.3806
  773MOL0     H 4342   4.498   9.331  10.856 -2.9196  1.1088  1.1766
  773MOL0     H 4343   4.395   9.411  11.234 -0.0537 -2.5822 -0.7072
  773MOL0     H 4344   4.222   9.403  11.192 -1.1922 -0.5779 -3.4648
  773MOL0     H 4345   4.417   9.628  11.147  0.1310 -1.2426  0.9683
  773MOL0     H 4346   4.269   9.627  11.256  0.5051 -1.5127  0.6622
  773MOL0     H 4347   4.268   9.642  10.958  2.6705  0.8506  1.0573
  773MOL0     H 4348   4.232   9.775  11.063  0.8110 -0.0997  1.1464
  773MOL0     H 4349   4.021   9.682  10.963 -1.1686  2.3438  2.3906
  773MOL0     H 4350   4.083   9.524  10.992 -0.9284  1.2654 -2.1501
  773MOL0     H 4351   3.892   9.607  11.366 -2.7952 -0.1636 -0.4634
  773MOL0     H 4352   4.326   9.177  11.196  0.1531  1.3891 -1.5199
  773MOL0     H 4353   4.325   8.924  11.211  0.5372 -3.8975  1.8282
  773MOL0     H 4354   4.430   8.825  11.114 -1.2545  1.1319 -1.4125
  773MOL0     H 4355   4.491   8.897  11.264  2.3645  1.6975 -0.9499
  774MOL0     O 4356   8.316   6.506   4.239  0.1128 -0.1169 -0.2020
  774MOL0     C 4357   8.365   6.398   4.230 -0.3575  0.1754 -0.2615
  774MOL0     O 4358   8.336   6.299   4.136 -0.0662  0.1545  0.2248
  774MOL0     C 4359   8.276   6.329   4.011  1.1372  0.3396 -0.3410
  774MOL0     C 4360   8.301   6.454   3.942 -0.5387  0.1016 -0.3699
  774MOL0     C 4361   8.241   6.482   3.820  0.1484  0.8688 -0.2265
  774MOL0     C 4362   8.161   6.393   3.749 -0.3531  0.3046  0.5361
  774MOL0     O 4363   8.116   6.430   3.618 -0.3778 -0.9293  0.1460
  774MOL0     C 4364   7.972   6.396   3.608 -0.5016 -0.3565 -0.2034
  774MOL0     C 4365   7.891   6.525   3.581 -0.9207  0.3545  0.3997
  774MOL0     C 4366   7.871   6.559   3.429  0.8073  0.4357 -0.4064
  774MOL0     C 4367   7.793   6.693   3.423 -0.5172  0.2031 -0.6962
  774MOL0     C 4368   7.769   6.736   3.273 -0.0990  1.2126  0.4352
  774MOL0     C 4369   7.677   6.862   3.267  0.2530  0.7467  0.6865
  774MOL0     C 4370   7.640   6.917   3.132 -0.3192  0.0702  0.1893
  774MOL0     C 4371   7.533   6.818   3.067  0.3236 -0.2550 -0.1530
  774MOL0     N 4372   7.503   6.838   2.927  0.1551  0.0022  0.4926
  774MOL0     C 4373   7.577   6.801   2.811  0.3500  1.1432 -0.1426
  774MOL0     C 4374   7.506   6.844   2.707  0.0663  0.1204 -0.0596
  774MOL0     C 4375   7.567   6.861   2.571 -0.6150  0.0963 -0.1357
  774MOL0     C 4376   7.702   6.946   2.571 -1.1340 -0.2487  0.8563
  774MOL0     C 4377   7.751   6.985   2.433 -0.0118 -1.5003  0.1790
  774MOL0     C 4378   7.785   6.863   2.342  0.7754  0.3209 -1.2474
  774MOL0     O 4379   7.871   6.763   2.406  0.6595  0.2766  0.3305
  774MOL0     C 4380   8.004   6.764   2.359  0.2706 -1.2665 -0.7085
  774MOL0     C 4381   8.084   6.883   2.367  0.5078 -0.4238 -0.5074
  774MOL0     C 4382   8.220   6.874   2.333 -0.6174 -0.2927 -0.1046
  774MOL0     C 4383   8.288   6.748   2.305 -1.2123 -0.3206  0.1336
  774MOL0     C 4384   8.440   6.738   2.287  0.0871  0.5027 -0.9901
  774MOL0     O 4385   8.492   6.632   2.216  0.0799 -0.1057  0.6466
  774MOL0     C 4386   8.622   6.621   2.219  0.1499 -0.2542  0.1724
  774MOL0     C 4387   8.717   6.641   2.330 -0.5244 -0.8660 -0.4862
  774MOL0     C 4388   8.854   6.600   2.324 -0.2331 -0.5751 -0.3138
  774MOL0     C 4389   8.911   6.553   2.210  0.4871 -0.0355 -0.4736
  774MOL0     O 4390   9.038   6.514   2.215 -0.2415 -0.7113  0.6432
  774MOL0     C 4391   9.074   6.391   2.152  0.6057 -0.2467  0.3210
  774MOL0     C 4392   9.184   6.321   2.229  0.4984  0.3537  0.0362
  774MOL0     C 4393   9.312   6.407   2.254 -0.4961 -0.0771 -0.4235
  774MOL0     C 4394   9.381   6.324   2.367 -0.1704 -0.2702  0.9561
  774MOL0     C 4395   9.517   6.395   2.410 -0.5630  0.1102  0.2237
  774MOL0     C 4396   9.503   6.545   2.450 -0.0529  0.3600  0.1436
  774MOL0     C 4397   9.625   6.598   2.523  0.1520  0.0194  0.1161
  774MOL0     C 4398   9.749   6.605   2.429  0.5063  0.9497  0.2689
  774MOL0    Cl 4399   9.872   6.714   2.493 -0.0916  0.0652 -0.3681
  774MOL0     C 4400   8.826   6.543   2.106 -0.2788 -0.0997 -0.0020
  774MOL0     C 4401   8.686   6.579   2.107 -0.4039  0.1283 -0.2183
  774MOL0     O 4402   8.504   6.833   2.336 -0.2990  0.3147 -0.0936
  774MOL0     C 4403   8.202   6.638   2.309  0.4917  0.4052  0.5442
  774MOL0     C 4404   8.064   6.647   2.330 -0.5177  0.1757 -0.9801
  774MOL0     N 4405   7.385   6.880   2.746  0.3917  0.1599 -0.3555
  774MOL0     N 4406   7.378   6.867   2.875 -0.0082 -0.2757 -0.1108
  774MOL0     C 4407   8.145   6.267   3.806 -0.2066  0.1628 -0.1887
  774MOL0     C 4408   8.204   6.240   3.933  0.3290  0.6076  0.2147
  774MOL0     C 4409   8.476   6.368   4.328  0.6070 -0.1249 -0.9625
  774MOL0     C 4410   8.516   6.471   4.421 -0.0219  0.6190  0.5728
  774MOL0     C 4411   8.622   6.450   4.505 -0.4897  0.1051 -0.3195
  774MOL0     C 4412   8.689   6.322   4.506 -0.5160 -0.4321 -0.0597
  774MOL0     O 4413   8.795   6.287   4.582 -1.2380  1.0764  0.3348
  774MOL0     C 4414   8.857   6.373   4.677  1.0926  1.0253  0.4840
  774MOL0     C 4415   8.926   6.279   4.777  0.2202  0.1257 -0.2988
  774MOL0     C 4416   8.992   6.352   4.895  0.2303 -0.6686 -0.3698
  774MOL0     C 4417   9.044   6.265   5.003 -0.1207  0.3609 -0.3735
  774MOL0     C 4418   9.092   6.347   5.116  0.3774  0.7539 -0.7342
  774MOL0     C 4419   9.152   6.401   5.207 -0.7491 -0.2796  0.9608
  774MOL0     C 4420   8.652   6.228   4.416  0.2926 -0.1604  0.5561
  774MOL0     C 4421   8.544   6.243   4.325 -0.7833  0.4336 -0.3135
  774MOL0     C 4422   8.507   6.124   4.250 -0.3614  0.4350  0.0088
  774MOL0     H 4423   8.375   6.519   3.988  2.9224 -3.1595 -0.7902
  774MOL0     H 4424   8.254   6.586   3.792 -2.2489  1.4300  0.4983
  774MOL0     H 4425   7.963   6.313   3.537  1.2709 -2.1915  1.5659
  774MOL0     H 4426   7.932   6.359   3.703  3.1761 -1.7594  1.0070
  774MOL0     H 4427   7.946   6.604   3.632  0.4389  0.8297 -1.6816
  774MOL0     H 4428   7.792   6.506   3.622 -1.0464 -2.4020 -0.9120
  774MOL0     H 4429   7.806   6.482   3.388  1.2270 -2.3239  3.5506
  774MOL0     H 4430   7.966   6.564   3.376  1.3349  1.4188  0.5875
  774MOL0     H 4431   7.697   6.670   3.469 -1.2556  0.0861 -2.2311
  774MOL0     H 4432   7.842   6.770   3.484  1.6250  0.1729 -2.2496
  774MOL0     H 4433   7.865   6.763   3.228  0.1790  1.3150  1.0715
  774MOL0     H 4434   7.729   6.660   3.206  1.2613  1.5854 -0.8749
  774MOL0     H 4435   7.588   6.852   3.329 -2.2695 -1.4408 -2.9321
  774MOL0     H 4436   7.748   6.928   3.319  2.1727 -1.0558  0.4985
  774MOL0     H 4437   7.725   6.938   3.066  0.7395 -1.4387  0.9988
  774MOL0     H 4438   7.594   7.015   3.146 -1.7122 -0.7331  1.6145
  774MOL0     H 4439   7.562   6.714   3.085 -2.6221 -0.9177  1.3137
  774MOL0     H 4440   7.439   6.843   3.117 -0.4890  1.2091 -2.2501
  774MOL0     H 4441   7.683   6.777   2.805  0.0752  0.2864 -2.0748
  774MOL0     H 4442   7.582   6.762   2.526 -0.4346  0.1557 -0.2070
  774MOL0     H 4443   7.501   6.906   2.495 -0.3656  0.3192 -0.2210
  774MOL0     H 4444   7.685   7.040   2.623  0.0838  0.3394  0.2300
  774MOL0     H 4445   7.784   6.889   2.618  1.8307  3.0803  0.1447
  774MOL0     H 4446   7.840   7.046   2.450 -1.0793  0.6391 -1.3230
  774MOL0     H 4447   7.667   7.047   2.398  1.6064  0.9291  0.3578
  774MOL0     H 4448   7.827   6.897   2.247 -2.5142  4.4196 -1.5357
  774MOL0     H 4449   7.703   6.799   2.308  2.1272 -2.7365  0.7839
  774MOL0     H 4450   8.040   6.982   2.379  3.5836  0.9506  0.4227
  774MOL0     H 4451   8.278   6.966   2.325  1.9307 -1.8751 -1.0017
  774MOL0     H 4452   8.685   6.682   2.425 -1.2037 -2.0985 -0.1624
  774MOL0     H 4453   8.917   6.612   2.412 -0.5269 -1.4628  0.0235
  774MOL0     H 4454   8.989   6.324   2.169 -1.5796  1.8434 -1.6134
  774MOL0     H 4455   9.094   6.395   2.045  0.8533  0.5987  0.3882
  774MOL0     H 4456   9.140   6.304   2.328  2.5830 -5.3555  0.3328
  774MOL0     H 4457   9.202   6.222   2.187 -1.1519 -0.2941  0.7572
  774MOL0     H 4458   9.376   6.428   2.168 -0.1946  0.4462 -0.0710
  774MOL0     H 4459   9.281   6.505   2.291  0.0403  1.2643 -3.2329
  774MOL0     H 4460   9.392   6.218   2.343 -0.2766 -0.5039  1.8767
  774MOL0     H 4461   9.331   6.330   2.464  1.5820 -0.0663  1.8980
  774MOL0     H 4462   9.594   6.387   2.332 -0.9523  1.2653 -0.2954
  774MOL0     H 4463   9.549   6.339   2.499 -0.4041  1.6340  1.1681
  774MOL0     H 4464   9.469   6.606   2.365 -0.2750 -1.4640 -1.1275
  774MOL0     H 4465   9.417   6.550   2.517  0.8673  1.8377  1.2934
  774MOL0     H 4466   9.641   6.526   2.603 -0.7251  1.5150  1.6839
  774MOL0     H 4467   9.606   6.698   2.561  3.2066  0.8155 -0.1374
  774MOL0     H 4468   9.792   6.504   2.423  3.1516  1.8992  1.6393
  774MOL0     H 4469   9.726   6.635   2.326  0.8842  0.6436  0.0895
  774MOL0     H 4470   8.880   6.508   2.018  0.4368  0.6210  0.1487
  774MOL0     H 4471   8.626   6.569   2.017 -0.1405  0.0211 -0.3814
  774MOL0     H 4472   8.250   6.541   2.305 -0.5087 -0.0831 -0.0312
  774MOL0     H 4473   8.000   6.560   2.340 -1.7877  1.2387  0.8444
  774MOL0     H 4474   8.077   6.204   3.749 -0.3064 -0.2605  0.3845
  774MOL0     H 4475   8.182   6.145   3.980 -0.8696  0.2785 -0.9339
  774MOL0     H 4476   8.471   6.570   4.424 -1.6889 -0.0340 -0.8168
  774MOL0     H 4477   8.660   6.522   4.576  0.1230  0.8998 -1.4301
  774MOL0     H 4478   8.786   6.440   4.727 -0.1451  0.7032 -0.7769
  774MOL0     H 4479   8.933   6.439   4.634  0.5636  0.8693 -0.7247
  774MOL0     H 4480   9.005   6.226   4.724  0.0981  0.4533 -0.8092
  774MOL0     H 4481   8.864   6.199   4.817  0.3974 -0.1527 -0.5799
  774MOL0     H 4482   8.921   6.427   4.933  1.9551  1.0120 -0.2937
  774MOL0     H 4483   9.082   6.403   4.860  1.1825  0.2045  2.9601
  774MOL0     H 4484   8.961   6.201   5.031 -0.5063  0.1652 -1.8480
  774MOL0     H 4485   9.132   6.209   4.970  1.4533  2.2981  0.3269
  774MOL0     H 4486   9.208   6.461   5.276 -0.6332  0.5981  0.1163
  774MOL0     H 4487   8.714   6.141   4.400 -0.4321 -0.9801  1.9928
  774MOL0     H 4488   8.575   6.040   4.267 -1.3372 -0.0196  2.1230
  774MOL0     H 4489   8.406   6.094   4.280 -0.0275 -1.4334 -0.6165
  774MOL0     H 4490   8.514   6.143   4.143  1.7324 -0.3719 -0.0398
  775MOL0     O 4491   1.079   0.521   5.086 -0.6209  0.5982  0.2695
  775MOL0     C 4492   1.028   0.413   5.110 -1.1806  0.0878  0.0105
  775MOL0     O 4493   1.093   0.300   5.110 -0.0922 -0.6913  0.5134
  775MOL0     C 4494   1.223   0.279   5.066 -0.2623 -0.2133 -0.2679
  775MOL0     C 4495   1.338   0.361   5.067 -0.1693 -1.2752  0.0197
  775MOL0     C 4496   1.468   0.308   5.047 -0.4796  0.2471  0.6715
  775MOL0     C 4497   1.484   0.174   5.006 -1.0799  0.2103  0.7271
  775MOL0     O 4498   1.606   0.110   4.977 -0.1503 -0.7492 -0.0726
  775MOL0     C 4499   1.722   0.203   4.963  0.7648  0.6348  0.5618
  775MOL0     C 4500   1.848   0.119   4.935  0.6693  0.5746 -0.9021
  775MOL0     C 4501   1.966   0.205   4.940 -0.3040  0.3665 -0.1203
  775MOL0     C 4502   1.994   0.252   5.079  0.4970 -0.0216 -0.2836
  775MOL0     C 4503   2.137   0.312   5.082  0.2991  0.9809 -0.1601
  775MOL0     C 4504   2.148   0.443   5.007 -0.8502  0.3301 -0.0611
  775MOL0     C 4505   2.286   0.475   4.960  0.1359  0.3924  0.5885
  775MOL0     C 4506   2.298   0.619   4.921 -0.6107 -0.3306  0.6111
  775MOL0     N 4507   2.437   0.652   4.932 -0.8376 -0.1944  0.2850
  775MOL0     C 4508   2.541   0.592   4.859  0.3907  0.1803  0.0937
  775MOL0     C 4509   2.648   0.656   4.901 -0.0846 -0.4959 -1.1773
  775MOL0     C 4510   2.783   0.634   4.860  0.6128 -0.5247 -0.8705
  775MOL0     C 4511   2.806   0.492   4.805 -0.0808  0.1190 -0.1050
  775MOL0     C 4512   2.941   0.506   4.723  0.6326  0.3864 -0.2669
  775MOL0     C 4513   2.988   0.378   4.663  0.0221  0.5295 -0.4898
  775MOL0     O 4514   2.892   0.332   4.569  0.0780  0.4808 -0.1129
  775MOL0     C 4515   2.945   0.253   4.472  0.1013 -0.1755 -0.5461
  775MOL0     C 4516   2.844   0.182   4.408 -0.1534 -0.9425  0.2515
  775MOL0     C 4517   2.870   0.083   4.317 -1.0361  0.0147  0.6111
  775MOL0     C 4518   2.999   0.043   4.289 -0.1301  0.0730 -0.5606
  775MOL0     C 4519   3.029  -0.083   4.222 -0.7985 -0.1511  0.1888
  775MOL0     O 4520   2.933  -0.150   4.175  0.1672 -0.2131 -0.2234
  775MOL0     C 4521   2.964  -0.248   4.083  0.7882 -0.3245 -0.3812
  775MOL0     C 4522   2.945  -0.228   3.947 -0.1121 -0.0510 -0.6071
  775MOL0     C 4523   2.933  -0.339   3.862 -0.3947 -0.7384 -0.1210
  775MOL0     C 4524   2.935  -0.464   3.914 -0.0836  0.4714  0.0459
  775MOL0     O 4525   2.917  -0.572   3.833 -0.1566 -0.0633  0.4237
  775MOL0     C 4526   2.854  -0.578   3.704  0.8738 -0.1996  0.3935
  775MOL0     C 4527   2.836  -0.727   3.656  0.5724  0.0899 -0.1707
  775MOL0     C 4528   2.725  -0.807   3.735 -0.0262 -0.0053  0.2394
  775MOL0     C 4529   2.668  -0.923   3.658  0.6161 -0.2970  0.0659
  775MOL0     C 4530   2.730  -1.069   3.702 -0.5194  0.1680 -0.3134
  775MOL0     C 4531   2.766  -1.137   3.573  0.5542  0.5071  0.0183
  775MOL0     C 4532   2.787  -1.285   3.608  0.1339 -0.1122  0.0021
  775MOL0     C 4533   2.666  -1.368   3.651  0.0586  0.1200 -0.0254
  775MOL0    Cl 4534   2.730  -1.529   3.666 -0.2412 -0.1270  0.3633
  775MOL0     C 4535   2.968  -0.488   4.044  0.4033  0.5883  0.3802
  775MOL0     C 4536   2.977  -0.381   4.134 -0.2343 -0.0042 -0.2782
  775MOL0     O 4537   3.148  -0.116   4.210  0.5448  0.0469  0.3430
  775MOL0     C 4538   3.105   0.117   4.346 -0.0734  0.1773  0.3162
  775MOL0     C 4539   3.073   0.226   4.433 -0.9668 -0.2256 -0.3270
  775MOL0     N 4540   2.621   0.755   4.998  0.0729  0.8605  0.2409
  775MOL0     N 4541   2.493   0.749   5.009  0.5289 -0.8651  0.2487
  775MOL0     C 4542   1.366   0.092   4.995  0.7753  0.1255  0.1251
  775MOL0     C 4543   1.241   0.148   5.027  0.3527 -0.1818 -0.1332
  775MOL0     C 4544   0.887   0.417   5.148  0.0824 -0.5893  0.3622
  775MOL0     C 4545   0.827   0.290   5.179  0.3550  0.0310 -1.6033
  775MOL0     C 4546   0.691   0.291   5.200 -0.6266  0.5505  0.0690
  775MOL0     C 4547   0.615   0.407   5.188 -0.2985 -0.0370  0.1477
  775MOL0     O 4548   0.484   0.407   5.224 -0.4988 -0.5713 -0.1239
  775MOL0     C 4549   0.408   0.292   5.242 -0.1412 -0.1883 -0.2352
  775MOL0     C 4550   0.262   0.322   5.267  0.4769 -0.0299  0.2482
  775MOL0     C 4551   0.194   0.378   5.143 -0.5259  0.2688 -0.0100
  775MOL0     C 4552   0.055   0.378   5.169  1.5340 -0.1890 -0.1520
  775MOL0     C 4553  -0.032   0.420   5.052 -0.3629  0.1567 -0.6414
  775MOL0     C 4554  -0.108   0.461   4.969 -0.5450  0.5823 -0.3259
  775MOL0     C 4555   0.666   0.522   5.151 -0.1549  0.6719 -0.2304
  775MOL0     C 4556   0.810   0.542   5.148  0.7507  0.4858  0.3067
  775MOL0     C 4557   0.859   0.682   5.129 -0.1879 -0.0503 -0.0619
  775MOL0     H 4558   1.330   0.467   5.090  2.3383 -0.9145 -0.5401
  775MOL0     H 4559   1.555   0.372   5.040 -0.3823  0.1194  0.7041
  775MOL0     H 4560   1.703   0.275   4.883  1.2587 -0.3128 -0.4412
  775MOL0     H 4561   1.743   0.250   5.059  2.4158 -0.3221  0.7029
  775MOL0     H 4562   1.848   0.048   4.851 -0.5950 -1.6904  0.8891
  775MOL0     H 4563   1.843   0.038   5.008 -0.8010  2.3539  1.0997
  775MOL0     H 4564   1.954   0.287   4.869 -0.5150 -0.5975 -1.2346
  775MOL0     H 4565   2.046   0.144   4.899 -0.9331 -2.7016  2.7298
  775MOL0     H 4566   1.928   0.331   5.115  0.9993  0.1161  0.3604
  775MOL0     H 4567   1.992   0.164   5.143 -2.9730 -0.5597 -0.9388
  775MOL0     H 4568   2.174   0.333   5.183  1.6062  1.3081 -0.6835
  775MOL0     H 4569   2.212   0.240   5.049  1.4331  2.2174 -0.3783
  775MOL0     H 4570   2.095   0.437   4.912  2.9432 -0.6205 -2.2998
  775MOL0     H 4571   2.104   0.519   5.072 -1.3330 -0.2517  0.3112
  775MOL0     H 4572   2.309   0.406   4.878 -2.9868 -1.2365  0.9476
  775MOL0     H 4573   2.349   0.452   5.047 -0.4561 -2.5716  0.3049
  775MOL0     H 4574   2.256   0.636   4.822 -1.1935  3.0825  1.3279
  775MOL0     H 4575   2.241   0.683   4.989 -4.8205 -0.2834 -2.5686
  775MOL0     H 4576   2.528   0.504   4.796 -1.9592 -2.8101  4.2007
  775MOL0     H 4577   2.816   0.706   4.785  1.0436 -1.1169 -1.2516
  775MOL0     H 4578   2.849   0.648   4.946  1.5990 -0.0949 -1.6850
  775MOL0     H 4579   2.827   0.425   4.889  0.0158  1.2820  0.8271
  775MOL0     H 4580   2.729   0.450   4.740 -0.3113  1.0709 -0.4590
  775MOL0     H 4581   3.021   0.555   4.778 -0.5140  0.9594  0.9275
  775MOL0     H 4582   2.936   0.578   4.641  2.2002  2.9097  1.7070
  775MOL0     H 4583   3.015   0.299   4.733 -2.1262  0.3751  0.2286
  775MOL0     H 4584   3.083   0.407   4.616  1.0224  3.5114  2.8867
  775MOL0     H 4585   2.740   0.208   4.427 -0.3475 -1.8945  0.5167
  775MOL0     H 4586   2.791   0.039   4.256 -0.5932 -3.0409  2.0927
  775MOL0     H 4587   2.943  -0.129   3.904  1.2523  0.8426  1.2310
  775MOL0     H 4588   2.910  -0.327   3.757 -2.5422  0.0002  0.3929
  775MOL0     H 4589   2.759  -0.526   3.714 -0.1711 -1.9087 -0.1765
  775MOL0     H 4590   2.904  -0.525   3.623 -0.5286  2.3252  1.0925
  775MOL0     H 4591   2.799  -0.721   3.554  0.7926 -3.9623 -0.6815
  775MOL0     H 4592   2.936  -0.772   3.660 -0.3984 -2.2256  3.3123
  775MOL0     H 4593   2.759  -0.833   3.835  4.1496 -0.9195 -1.2044
  775MOL0     H 4594   2.644  -0.736   3.752  1.6709  2.3528 -0.9503
  775MOL0     H 4595   2.675  -0.903   3.550  1.3140  0.5648  0.2565
  775MOL0     H 4596   2.563  -0.921   3.687  0.3268  0.5855 -0.9552
  775MOL0     H 4597   2.648  -1.115   3.757 -1.2584  2.3900  0.5672
  775MOL0     H 4598   2.817  -1.076   3.768 -1.9465 -3.3050  1.4433
  775MOL0     H 4599   2.684  -1.140   3.501  1.2670 -0.4937 -0.7736
  775MOL0     H 4600   2.853  -1.102   3.516 -0.4388  1.9555 -0.6700
  775MOL0     H 4601   2.866  -1.293   3.683  0.5505  1.1276 -0.2742
  775MOL0     H 4602   2.839  -1.330   3.522  0.4480  1.5865 -0.7456
  775MOL0     H 4603   2.614  -1.340   3.744 -2.1730  0.6380 -1.3500
  775MOL0     H 4604   2.590  -1.369   3.572  1.4688  0.2612 -1.4240
  775MOL0     H 4605   2.977  -0.590   4.079  0.3283  0.4398 -0.0311
  775MOL0     H 4606   2.965  -0.410   4.238 -1.7498 -1.7355 -0.8882
  775MOL0     H 4607   3.206   0.090   4.315 -0.8531 -1.7382 -0.7882
  775MOL0     H 4608   3.163   0.283   4.459 -1.6082  0.7443 -0.1651
  775MOL0     H 4609   1.355  -0.012   4.966 -0.0696 -0.3691  2.0713
  775MOL0     H 4610   1.152   0.086   5.022  1.4293 -1.9772  1.4060
  775MOL0     H 4611   0.868   0.191   5.190 -0.1659 -0.2920 -2.4570
  775MOL0     H 4612   0.647   0.193   5.215  1.3727 -0.1574  1.8300
  775MOL0     H 4613   0.458   0.240   5.325 -1.9226 -0.4107  0.7517
  775MOL0     H 4614   0.417   0.229   5.153 -2.8594  0.1396 -0.8391
  775MOL0     H 4615   0.264   0.398   5.345  1.2440 -0.2570  0.4630
  775MOL0     H 4616   0.228   0.222   5.298  2.0886 -0.3541  1.0921
  775MOL0     H 4617   0.213   0.309   5.061  1.5543 -0.8858  1.3692
  775MOL0     H 4618   0.234   0.476   5.116 -2.0854  0.9335 -0.0382
  775MOL0     H 4619   0.022   0.280   5.207  0.8344  1.5505  4.4315
  775MOL0     H 4620   0.028   0.456   5.241  0.0726 -1.0771  0.3236
  775MOL0     H 4621  -0.169   0.495   4.887  3.5202  2.8278 -2.7766
  775MOL0     H 4622   0.595   0.601   5.131 -1.0086  0.0547  0.3086
  775MOL0     H 4623   0.916   0.728   5.211  0.7539  0.4487 -0.9630
  775MOL0     H 4624   0.913   0.685   5.034  1.1001 -0.9327  0.6012
  775MOL0     H 4625   0.776   0.752   5.119 -0.0442  0.0989 -0.2219
  776MOL0     O 4626   1.442   7.043   7.590  0.2106 -0.1408 -0.1799
  776MOL0     C 4627   1.451   6.925   7.558  0.2236  0.3586 -0.5755
  776MOL0     O 4628   1.568   6.857   7.544 -0.1397 -0.1832 -0.1443
  776MOL0     C 4629   1.697   6.921   7.555  0.9627 -0.3996 -0.4926
  776MOL0     C 4630   1.790   6.871   7.645 -0.2499  0.2431  0.0094
  776MOL0     C 4631   1.913   6.940   7.658  0.9848  0.0028 -0.3438
  776MOL0     C 4632   1.931   7.072   7.605  1.0394  0.9664 -0.3759
  776MOL0     O 4633   2.025   7.153   7.650 -0.2500 -0.0690  0.1032
  776MOL0     C 4634   2.160   7.103   7.680  0.3377  0.5331  0.3008
  776MOL0     C 4635   2.177   7.066   7.823 -0.2190  0.2132 -0.9996
  776MOL0     C 4636   2.290   6.973   7.853 -0.2541 -0.4863 -0.2019
  776MOL0     C 4637   2.282   6.942   7.999 -0.2230  0.6867  0.5390
  776MOL0     C 4638   2.411   6.930   8.073 -0.2820  0.1354  0.1263
  776MOL0     C 4639   2.493   7.062   8.072 -0.1058  0.4027 -0.2910
  776MOL0     C 4640   2.433   7.198   8.099  0.3704 -0.2099 -0.2231
  776MOL0     C 4641   2.534   7.310   8.140  0.6420  0.6321 -0.7099
  776MOL0     N 4642   2.452   7.428   8.170  0.1583  0.1367  0.2178
  776MOL0     C 4643   2.428   7.521   8.066  0.1405  0.9995  0.0664
  776MOL0     C 4644   2.362   7.619   8.126  0.8447  0.9031 -0.1813
  776MOL0     C 4645   2.301   7.726   8.038  0.2437  0.6145  0.8292
  776MOL0     C 4646   2.371   7.860   8.057 -0.0427  0.0976  0.5792
  776MOL0     C 4647   2.299   7.977   7.987  0.0745 -0.0209  0.2982
  776MOL0     C 4648   2.358   8.098   8.039 -0.8375  0.2290 -0.5697
  776MOL0     O 4649   2.285   8.207   7.983 -0.1428  0.0294 -0.2898
  776MOL0     C 4650   2.188   8.275   8.052  0.8593  1.2127  0.1629
  776MOL0     C 4651   2.102   8.201   8.149  0.1598 -0.1966 -0.0949
  776MOL0     C 4652   2.016   8.277   8.230 -0.7022  0.0255 -0.8595
  776MOL0     C 4653   2.009   8.418   8.214 -0.8806  0.1481 -0.7153
  776MOL0     C 4654   1.919   8.488   8.308  0.4340  0.1152  0.4294
  776MOL0     O 4655   1.924   8.625   8.309 -0.3964  0.8651 -0.5506
  776MOL0     C 4656   1.840   8.687   8.391  0.8035  0.4072  0.6070
  776MOL0     C 4657   1.741   8.769   8.342  0.3583 -0.1456 -0.2591
  776MOL0     C 4658   1.666   8.849   8.431  0.4293 -0.0932 -0.2708
  776MOL0     C 4659   1.708   8.868   8.562  0.5313 -0.3497 -0.4752
  776MOL0     O 4660   1.632   8.945   8.646 -0.2077  0.0148  0.6297
  776MOL0     C 4661   1.704   9.044   8.717  0.9167  0.5826 -0.4605
  776MOL0     C 4662   1.616   9.154   8.780  0.2046  0.4292  0.8152
  776MOL0     C 4663   1.564   9.106   8.911  0.8191  0.3863  0.0961
  776MOL0     C 4664   1.482   9.218   8.985  0.2348 -0.6347 -0.2522
  776MOL0     C 4665   1.560   9.338   9.050 -1.1010 -0.4391 -0.2925
  776MOL0     C 4666   1.465   9.443   9.086 -0.1297 -0.0034  0.4135
  776MOL0     C 4667   1.406   9.438   9.224 -0.1968 -0.5193 -1.3463
  776MOL0     C 4668   1.378   9.587   9.276 -0.7773  0.6343 -0.9668
  776MOL0    Cl 4669   1.455   9.611   9.443 -0.0392 -0.3325  0.0608
  776MOL0     C 4670   1.814   8.794   8.608  1.2903 -1.4722 -0.0225
  776MOL0     C 4671   1.879   8.705   8.526  0.0270 -0.2356  0.0175
  776MOL0     O 4672   1.848   8.412   8.380  0.0381 -0.3704  0.3977
  776MOL0     C 4673   2.086   8.487   8.115 -0.0433  0.5962 -0.1377
  776MOL0     C 4674   2.173   8.409   8.037 -1.3054  0.0824 -0.0176
  776MOL0     N 4675   2.354   7.602   8.264  0.2186  0.4231 -0.7403
  776MOL0     N 4676   2.409   7.484   8.289  0.7069 -0.1009 -0.0423
  776MOL0     C 4677   1.835   7.117   7.521 -0.1355 -0.3659  0.1423
  776MOL0     C 4678   1.722   7.045   7.491 -0.8125 -0.0962 -0.1497
  776MOL0     C 4679   1.330   6.842   7.523 -1.4833  0.1516  0.9518
  776MOL0     C 4680   1.352   6.719   7.456 -0.0907 -0.0309 -0.0094
  776MOL0     C 4681   1.245   6.634   7.423  0.2389 -0.7255  0.4896
  776MOL0     C 4682   1.113   6.686   7.458 -0.3208  0.0277 -0.3281
  776MOL0     O 4683   0.993   6.627   7.430 -0.3160 -0.7628  0.5839
  776MOL0     C 4684   1.012   6.513   7.339  0.0153 -0.3917 -0.6665
  776MOL0     C 4685   1.030   6.380   7.424  0.8216  0.2994  0.8265
  776MOL0     C 4686   0.902   6.331   7.489 -0.9822 -0.1289 -0.1159
  776MOL0     C 4687   0.943   6.240   7.603 -0.4880  0.4627 -0.1460
  776MOL0     C 4688   0.828   6.179   7.672  0.5341  0.7460  0.2661
  776MOL0     C 4689   0.741   6.117   7.731  0.1419  0.8672  0.1391
  776MOL0     C 4690   1.097   6.804   7.536  0.0426  0.3958 -0.4092
  776MOL0     C 4691   1.200   6.890   7.569 -1.2860 -0.1298  0.2292
  776MOL0     C 4692   1.163   7.015   7.654  0.5655 -0.5165  0.2364
  776MOL0     H 4693   1.760   6.785   7.704  2.8646 -1.2380 -0.3445
  776MOL0     H 4694   1.984   6.888   7.722 -0.2442 -1.6691 -0.2869
  776MOL0     H 4695   2.168   7.014   7.616 -2.2374  0.2996  0.1868
  776MOL0     H 4696   2.242   7.174   7.667 -0.1579  0.9546 -0.6106
  776MOL0     H 4697   2.082   7.024   7.858 -0.2342  0.3539 -0.8694
  776MOL0     H 4698   2.192   7.161   7.876  0.2204  0.4189 -1.4890
  776MOL0     H 4699   2.386   7.015   7.825  1.6468 -2.7878  2.3291
  776MOL0     H 4700   2.284   6.888   7.784  2.7536  0.3165 -1.5921
  776MOL0     H 4701   2.221   7.023   8.039 -1.1922  0.6935 -0.8975
  776MOL0     H 4702   2.220   6.853   8.011  2.9790 -2.2996 -2.6571
  776MOL0     H 4703   2.392   6.903   8.177  0.4190 -0.5760  0.0844
  776MOL0     H 4704   2.469   6.854   8.020  2.0627  0.4780  2.0423
  776MOL0     H 4705   2.564   7.050   8.153 -0.5837  2.1394  0.4437
  776MOL0     H 4706   2.562   7.068   7.987  2.2966  1.7505  1.6376
  776MOL0     H 4707   2.355   7.188   8.175 -1.1210  1.2463 -1.4672
  776MOL0     H 4708   2.388   7.232   8.005  1.9498  1.8643 -0.3030
  776MOL0     H 4709   2.571   7.280   8.238 -0.5771 -0.3512 -0.5352
  776MOL0     H 4710   2.610   7.324   8.062 -0.6016 -0.2922 -2.1304
  776MOL0     H 4711   2.455   7.498   7.963 -1.6543 -0.7468 -0.0746
  776MOL0     H 4712   2.304   7.697   7.933  1.3609 -1.3142  1.3390
  776MOL0     H 4713   2.195   7.737   8.065 -0.4958 -1.7389 -0.7767
  776MOL0     H 4714   2.389   7.885   8.162 -2.0787 -0.3370  1.0577
  776MOL0     H 4715   2.466   7.852   8.002  0.3571  3.3793  0.5805
  776MOL0     H 4716   2.192   7.972   8.009 -0.0021  1.5658  0.3945
  776MOL0     H 4717   2.318   7.993   7.880 -0.3137 -1.7164 -0.0442
  776MOL0     H 4718   2.466   8.103   8.024 -0.1164 -1.1308  3.1393
  776MOL0     H 4719   2.348   8.101   8.148 -1.7620  0.8265 -0.6578
  776MOL0     H 4720   2.119   8.096   8.170 -0.5939  0.1134  2.4759
  776MOL0     H 4721   1.954   8.224   8.302 -0.7827  1.7760  0.4142
  776MOL0     H 4722   1.725   8.770   8.235 -3.6852  0.8308  0.2161
  776MOL0     H 4723   1.579   8.899   8.391  0.4878 -0.0915 -0.3976
  776MOL0     H 4724   1.767   8.997   8.794  0.4351  1.4989  0.5162
  776MOL0     H 4725   1.772   9.094   8.648  2.3336  0.6879  0.9476
  776MOL0     H 4726   1.678   9.243   8.792  0.3554  0.3207  0.8398
  776MOL0     H 4727   1.532   9.184   8.716  0.7175 -0.2329 -0.1839
  776MOL0     H 4728   1.501   9.019   8.896  1.7578 -0.5553  1.4046
  776MOL0     H 4729   1.645   9.071   8.976  1.4589 -1.7248 -1.7457
  776MOL0     H 4730   1.413   9.175   9.059  2.1774 -0.3248  1.8217
  776MOL0     H 4731   1.413   9.255   8.908  0.8164  1.2787  0.1101
  776MOL0     H 4732   1.619   9.369   8.964 -1.6622  1.0830 -0.1715
  776MOL0     H 4733   1.630   9.312   9.130 -2.1345 -0.1850  0.7243
  776MOL0     H 4734   1.528   9.531   9.075  1.7520 -1.2186  0.9894
  776MOL0     H 4735   1.395   9.461   9.004  1.9337  1.7058 -1.0622
  776MOL0     H 4736   1.480   9.390   9.288 -0.4807  1.5738  0.6469
  776MOL0     H 4737   1.315   9.379   9.239 -1.5333  1.4945 -1.1299
  776MOL0     H 4738   1.422   9.663   9.211  0.3149  1.5450  0.7558
  776MOL0     H 4739   1.270   9.603   9.279 -0.8679 -0.0540  1.0295
  776MOL0     H 4740   1.837   8.813   8.712 -0.5273 -0.5922  0.2441
  776MOL0     H 4741   1.980   8.674   8.551 -0.0849  1.1136  2.3377
  776MOL0     H 4742   2.075   8.594   8.107 -2.7221  0.3222 -0.8232
  776MOL0     H 4743   2.241   8.449   7.962  1.2901 -1.3739  1.4208
  776MOL0     H 4744   1.867   7.213   7.482 -1.6113 -0.2431 -0.8585
  776MOL0     H 4745   1.659   7.086   7.413  1.2996  0.9907 -1.3806
  776MOL0     H 4746   1.450   6.686   7.424 -0.5567 -1.2310 -0.2835
  776MOL0     H 4747   1.274   6.537   7.383 -1.3002 -1.0001 -0.0358
  776MOL0     H 4748   1.099   6.512   7.272  0.1422 -1.9141 -0.5128
  776MOL0     H 4749   0.924   6.508   7.275 -0.2326  0.9414 -0.4575
  776MOL0     H 4750   1.112   6.385   7.496  2.2225  2.7436 -0.7685
  776MOL0     H 4751   1.059   6.301   7.356 -2.4869 -0.2995 -0.0680
  776MOL0     H 4752   0.846   6.286   7.407  0.2228  0.4226 -1.2757
  776MOL0     H 4753   0.852   6.415   7.538 -0.1518  1.0883 -1.2808
  776MOL0     H 4754   1.003   6.155   7.571 -0.9936 -0.6186  1.5848
  776MOL0     H 4755   1.001   6.300   7.674  1.7815 -0.4905 -1.1174
  776MOL0     H 4756   0.661   6.059   7.773  0.9109  0.5729  1.2249
  776MOL0     H 4757   0.996   6.825   7.570 -0.6911 -0.7839 -1.7265
  776MOL0     H 4758   1.224   7.043   7.740 -0.4377  0.7270  0.5756
  776MOL0     H 4759   1.139   7.099   7.588 -2.7385 -1.1284  0.5078
  776MOL0     H 4760   1.065   6.996   7.698  0.5210 -1.7046 -0.3505
  777MOL0     O 4761   0.915   3.339   3.392  0.1146 -0.2006  0.5813
  777MOL0     C 4762   0.845   3.428   3.444  0.2059  0.0940 -0.5272
  777MOL0     O 4763   0.710   3.433   3.447 -0.3564 -0.2229  0.2885
  777MOL0     C 4764   0.643   3.321   3.402  0.2636 -0.2435 -0.1241
  777MOL0     C 4765   0.546   3.281   3.494  0.6010  0.0004  0.0792
  777MOL0     C 4766   0.468   3.167   3.460  0.3876 -0.0008 -0.3170
  777MOL0     C 4767   0.474   3.104   3.332  0.2694  0.6076 -1.1573
  777MOL0     O 4768   0.409   2.993   3.286  0.0683  0.2182 -0.2065
  777MOL0     C 4769   0.416   2.883   3.379  0.3042  0.1112 -0.9456
  777MOL0     C 4770   0.364   2.752   3.323 -0.6605  0.7990  0.2200
  777MOL0     C 4771   0.466   2.708   3.207 -0.4953  0.9229  1.4420
  777MOL0     C 4772   0.419   2.566   3.170 -0.1638 -0.5291 -0.4716
  777MOL0     C 4773   0.514   2.510   3.063 -0.4093 -0.0792  0.8250
  777MOL0     C 4774   0.502   2.352   3.068 -0.1279  0.2987  0.5781
  777MOL0     C 4775   0.615   2.297   2.978  0.3413 -0.3593  0.2339
  777MOL0     C 4776   0.624   2.147   2.971  0.0100 -0.2489  0.0714
  777MOL0     N 4777   0.500   2.088   2.904 -0.2730  0.5217 -0.4652
  777MOL0     C 4778   0.459   2.101   2.772  0.5655 -0.1355  1.1038
  777MOL0     C 4779   0.345   2.025   2.771 -0.6774 -0.5771 -0.1748
  777MOL0     C 4780   0.290   1.969   2.648  0.3290  0.5059 -0.2498
  777MOL0     C 4781   0.139   1.953   2.654  0.2068 -0.1737  0.0994
  777MOL0     C 4782   0.081   1.890   2.527  0.2798  0.4632 -0.0655
  777MOL0     C 4783  -0.072   1.861   2.546  0.0767 -0.1694 -0.5217
  777MOL0     O 4784  -0.139   1.987   2.548  0.8524  1.7360  0.0266
  777MOL0     C 4785  -0.264   1.980   2.488  0.3462 -0.7456 -0.5259
  777MOL0     C 4786  -0.371   1.893   2.530  0.5749  0.5815  0.3370
  777MOL0     C 4787  -0.484   1.884   2.455 -0.1331  0.5203 -0.8346
  777MOL0     C 4788  -0.491   1.956   2.334 -0.1823  0.5253 -0.2420
  777MOL0     C 4789  -0.619   1.965   2.261 -0.4032  0.1506 -0.2448
  777MOL0     O 4790  -0.616   1.985   2.125  0.2388 -0.5828 -0.2203
  777MOL0     C 4791  -0.739   2.013   2.069 -0.7086  0.6553  0.8529
  777MOL0     C 4792  -0.823   2.123   2.099  0.3245 -0.3266 -0.0045
  777MOL0     C 4793  -0.950   2.136   2.037 -0.2755  0.5403 -0.2836
  777MOL0     C 4794  -0.994   2.038   1.946  0.3201  1.0968  0.4372
  777MOL0     O 4795  -1.116   2.047   1.885  0.5061  0.7478 -0.4129
  777MOL0     C 4796  -1.201   2.162   1.929  0.3100 -0.1879  0.6013
  777MOL0     C 4797  -1.323   2.156   1.846 -0.6544 -0.5064 -0.5392
  777MOL0     C 4798  -1.415   2.275   1.864  0.0852 -0.1716  0.2151
  777MOL0     C 4799  -1.497   2.266   1.987  0.3804 -0.2811 -0.4157
  777MOL0     C 4800  -1.585   2.395   2.010  0.2338 -0.6768 -0.3815
  777MOL0     C 4801  -1.731   2.399   1.958  0.1868 -0.8910  0.4523
  777MOL0     C 4802  -1.806   2.531   1.977  1.1257  0.0680  0.2451
  777MOL0     C 4803  -1.954   2.536   1.945 -1.4145  0.4368 -0.1222
  777MOL0    Cl 4804  -2.070   2.460   2.070 -0.6161 -0.1228 -0.5119
  777MOL0     C 4805  -0.904   1.937   1.901 -0.3292  1.0878 -0.1557
  777MOL0     C 4806  -0.780   1.922   1.965 -0.0431 -0.9867 -0.1169
  777MOL0     O 4807  -0.720   1.944   2.326 -0.4454 -0.1876  0.2510
  777MOL0     C 4808  -0.384   2.033   2.287 -0.2912 -0.1539 -0.4368
  777MOL0     C 4809  -0.268   2.039   2.360  0.6637  0.4617  0.2754
  777MOL0     N 4810   0.314   1.983   2.900  0.0866  0.5820 -0.3089
  777MOL0     N 4811   0.407   2.016   2.973  0.1199  1.0580  0.7522
  777MOL0     C 4812   0.569   3.158   3.243  0.1770  0.2871 -1.5486
  777MOL0     C 4813   0.647   3.267   3.275  0.1120 -0.0282 -0.1800
  777MOL0     C 4814   0.919   3.540   3.512  0.2202  0.7915 -1.9755
  777MOL0     C 4815   1.036   3.510   3.591  0.1500  1.0229  0.2687
  777MOL0     C 4816   1.113   3.604   3.656  0.4176  0.3193 -0.2632
  777MOL0     C 4817   1.067   3.742   3.661 -0.8195  0.0471 -0.6801
  777MOL0     O 4818   1.125   3.842   3.729 -0.2039 -0.1973  0.2419
  777MOL0     C 4819   1.256   3.825   3.795 -0.7219 -0.4775  0.2496
  777MOL0     C 4820   1.252   3.945   3.884  0.1744 -0.2588 -0.7403
  777MOL0     C 4821   1.333   3.929   4.011 -0.8854 -0.2416  0.4107
  777MOL0     C 4822   1.352   4.069   4.068 -0.4287 -0.0201  0.4152
  777MOL0     C 4823   1.366   4.063   4.209  0.7826  0.4384  0.4659
  777MOL0     C 4824   1.391   4.059   4.328 -0.5078 -0.3061  0.4427
  777MOL0     C 4825   0.950   3.776   3.594 -0.3464  0.1360 -0.6349
  777MOL0     C 4826   0.878   3.677   3.518  0.3319  0.2736 -0.0669
  777MOL0     C 4827   0.755   3.731   3.445 -0.0591 -0.0972 -0.0778
  777MOL0     H 4828   0.540   3.325   3.593  1.3692  2.7846 -1.0330
  777MOL0     H 4829   0.398   3.132   3.535  0.9767  3.3206  2.0206
  777MOL0     H 4830   0.513   2.861   3.425  1.1487  0.1859 -2.6044
  777MOL0     H 4831   0.342   2.898   3.458 -0.1530 -3.3832 -0.5560
  777MOL0     H 4832   0.259   2.772   3.301 -0.9411  3.4345  3.2179
  777MOL0     H 4833   0.361   2.673   3.398  1.1404  1.4257  1.0142
  777MOL0     H 4834   0.566   2.717   3.251 -1.0030 -1.1742  3.2105
  777MOL0     H 4835   0.453   2.773   3.120 -0.3661 -0.5803  0.2602
  777MOL0     H 4836   0.416   2.495   3.254 -0.0747 -0.2790 -0.2546
  777MOL0     H 4837   0.315   2.574   3.138 -0.7671 -0.4596  1.3989
  777MOL0     H 4838   0.498   2.548   2.961 -0.2789  0.9671  1.1814
  777MOL0     H 4839   0.616   2.538   3.090 -0.3624  1.9195 -1.0853
  777MOL0     H 4840   0.513   2.307   3.166 -4.5232 -0.6363  0.8614
  777MOL0     H 4841   0.410   2.305   3.031  0.8456 -0.5804 -0.8121
  777MOL0     H 4842   0.709   2.335   3.021  1.2895  0.5170 -2.4024
  777MOL0     H 4843   0.594   2.346   2.882 -1.1751  0.0918  0.7781
  777MOL0     H 4844   0.715   2.121   2.917 -0.4412 -1.7142 -0.0121
  777MOL0     H 4845   0.646   2.104   3.070  2.7571 -1.4639 -0.9571
  777MOL0     H 4846   0.501   2.167   2.696  1.0161 -0.4814  1.0458
  777MOL0     H 4847   0.327   2.038   2.571 -0.5120  1.3504  0.0921
  777MOL0     H 4848   0.334   1.869   2.648  0.9978  0.7658  1.1601
  777MOL0     H 4849   0.119   1.893   2.743 -2.6298  0.6060  0.0846
  777MOL0     H 4850   0.088   2.049   2.669 -0.2809 -0.3852 -0.1703
  777MOL0     H 4851   0.133   1.796   2.508 -1.5773 -0.4297 -0.9963
  777MOL0     H 4852   0.097   1.958   2.442  0.0819  1.2666  0.5252
  777MOL0     H 4853  -0.088   1.792   2.630  0.4859 -2.4484 -2.2116
  777MOL0     H 4854  -0.118   1.806   2.463 -3.4533 -0.4057  1.3753
  777MOL0     H 4855  -0.342   1.835   2.618  0.4863 -1.6486 -1.0312
  777MOL0     H 4856  -0.562   1.826   2.504  1.6100 -1.7987 -0.6310
  777MOL0     H 4857  -0.797   2.194   2.177 -0.9309  2.1215 -1.6933
  777MOL0     H 4858  -1.024   2.200   2.084 -0.5120 -0.6738  1.0839
  777MOL0     H 4859  -1.230   2.171   2.034 -0.3115 -0.6017  0.4708
  777MOL0     H 4860  -1.151   2.255   1.903 -1.5056  1.1409  1.6174
  777MOL0     H 4861  -1.297   2.141   1.741 -1.4177  0.6147 -0.9081
  777MOL0     H 4862  -1.391   2.073   1.867 -2.7630  0.5053 -2.8180
  777MOL0     H 4863  -1.353   2.365   1.867  2.6963 -1.8198 -0.3400
  777MOL0     H 4864  -1.482   2.288   1.778  2.8261  2.4815 -1.7541
  777MOL0     H 4865  -1.422   2.258   2.066 -0.3789 -0.6468  0.2834
  777MOL0     H 4866  -1.570   2.185   1.994 -2.1867  1.9623  1.0110
  777MOL0     H 4867  -1.530   2.484   1.977 -0.1684  0.9947  2.9877
  777MOL0     H 4868  -1.580   2.421   2.116  0.3071  2.3326 -1.0257
  777MOL0     H 4869  -1.732   2.387   1.849  0.2570  0.0054  0.3476
  777MOL0     H 4870  -1.801   2.325   1.997 -3.8277  2.8580  1.0919
  777MOL0     H 4871  -1.762   2.615   1.923  0.3405  0.4338  0.1743
  777MOL0     H 4872  -1.798   2.560   2.082  3.5089 -0.8858  0.3948
  777MOL0     H 4873  -1.975   2.644   1.941  3.3377  1.8182  3.3859
  777MOL0     H 4874  -1.978   2.483   1.852 -2.9225  0.9756 -0.0760
  777MOL0     H 4875  -0.937   1.882   1.814  2.7848 -2.6373  0.7268
  777MOL0     H 4876  -0.718   1.835   1.946  0.2125 -0.5335 -1.4620
  777MOL0     H 4877  -0.378   2.078   2.189  0.4277 -0.6566 -0.6298
  777MOL0     H 4878  -0.188   2.101   2.319  1.0643  0.1174  0.5269
  777MOL0     H 4879   0.610   3.108   3.156  2.3103 -1.8061  0.4933
  777MOL0     H 4880   0.711   3.324   3.208 -0.3036  2.7567  1.6227
  777MOL0     H 4881   1.074   3.409   3.601 -0.6991  0.8198  1.7569
  777MOL0     H 4882   1.209   3.577   3.701  1.0231  0.4387 -1.4334
  777MOL0     H 4883   1.343   3.834   3.730 -0.7020  1.4463  0.4733
  777MOL0     H 4884   1.269   3.728   3.845  0.9738 -2.1400 -3.0769
  777MOL0     H 4885   1.148   3.962   3.915  0.2062 -1.2814 -0.0476
  777MOL0     H 4886   1.284   4.037   3.834 -0.9416  0.6584  0.1758
  777MOL0     H 4887   1.430   3.883   3.994 -0.9384  0.0921 -0.8814
  777MOL0     H 4888   1.277   3.869   4.084 -0.3429 -0.4324  0.6736
  777MOL0     H 4889   1.444   4.122   4.040 -0.3822 -0.7568 -0.8882
  777MOL0     H 4890   1.261   4.123   4.042  1.1733  1.8203 -1.8612
  777MOL0     H 4891   1.408   4.057   4.434  3.1331  0.2308 -0.0346
  777MOL0     H 4892   0.919   3.880   3.591  1.4507  0.7004 -0.8026
  777MOL0     H 4893   0.663   3.691   3.488  0.0266  0.1488  0.3385
  777MOL0     H 4894   0.745   3.839   3.458  0.0662 -0.3089  2.1318
  777MOL0     H 4895   0.756   3.701   3.340 -2.1455 -1.9189  0.3523
  778MOL0     O 4896   7.490   3.424   5.072 -0.3844  1.0684 -1.0147
  778MOL0     C 4897   7.446   3.340   5.002  0.4456  0.1234 -0.6577
  778MOL0     O 4898   7.489   3.321   4.870 -0.2763  0.1357 -0.6408
  778MOL0     C 4899   7.594   3.393   4.812 -0.0636  0.3351  0.0073
  778MOL0     C 4900   7.605   3.529   4.818 -0.7905 -1.2554 -0.6204
  778MOL0     C 4901   7.709   3.597   4.754 -1.0551  0.6037 -0.7666
  778MOL0     C 4902   7.803   3.524   4.672  0.4616 -0.2910  0.5579
  778MOL0     O 4903   7.908   3.594   4.606 -0.1449  0.6095 -0.7656
  778MOL0     C 4904   7.972   3.709   4.667  1.3672  0.2650 -0.5348
  778MOL0     C 4905   8.094   3.667   4.749 -0.6472  0.3894 -0.1651
  778MOL0     C 4906   8.081   3.567   4.861 -0.5154  0.6161 -0.7404
  778MOL0     C 4907   8.134   3.423   4.823  0.1910  0.5848  0.2007
  778MOL0     C 4908   8.093   3.317   4.924  0.9652  0.0898 -0.0793
  778MOL0     C 4909   8.139   3.347   5.072 -0.5775 -0.3133  0.1740
  778MOL0     C 4910   8.297   3.330   5.082  0.7883  0.9770  0.1733
  778MOL0     C 4911   8.318   3.185   5.112 -0.7335  0.1331  0.2204
  778MOL0     N 4912   8.459   3.163   5.162 -0.1823 -0.7990  0.7041
  778MOL0     C 4913   8.504   3.183   5.292 -0.2790 -0.9399  1.4497
  778MOL0     C 4914   8.635   3.194   5.291 -0.0244  0.8031  0.6660
  778MOL0     C 4915   8.725   3.255   5.386  0.1366  1.3992 -0.2802
  778MOL0     C 4916   8.682   3.393   5.416  0.1643 -0.3163  0.2874
  778MOL0     C 4917   8.655   3.481   5.291  0.2258 -0.7624  0.5748
  778MOL0     C 4918   8.675   3.633   5.331  0.6012 -0.2518 -0.2370
  778MOL0     O 4919   8.649   3.737   5.232 -0.0459 -0.3295  0.5404
  778MOL0     C 4920   8.523   3.772   5.200 -1.1393  0.6690 -0.2571
  778MOL0     C 4921   8.412   3.736   5.277  0.4195 -0.5187 -0.5771
  778MOL0     C 4922   8.281   3.781   5.249 -0.3620 -0.3388  0.7320
  778MOL0     C 4923   8.250   3.854   5.132 -0.1448 -0.0799  0.6216
  778MOL0     C 4924   8.117   3.881   5.092  0.0377  0.1402  0.3209
  778MOL0     O 4925   8.022   3.802   5.151 -0.1851 -0.3112 -0.1096
  778MOL0     C 4926   7.885   3.834   5.130 -0.3086  0.2381 -0.9968
  778MOL0     C 4927   7.829   3.960   5.098  0.1538 -1.0054  0.4561
  778MOL0     C 4928   7.684   3.981   5.103 -0.0137  0.0632 -0.1646
  778MOL0     C 4929   7.599   3.875   5.127 -0.1791 -0.2550  0.0394
  778MOL0     O 4930   7.472   3.899   5.138  0.1430  0.0991 -0.1282
  778MOL0     C 4931   7.381   3.795   5.158 -0.2241  1.0885  0.7565
  778MOL0     C 4932   7.242   3.849   5.121  0.0995  0.9789  0.0716
  778MOL0     C 4933   7.138   3.735   5.108 -0.2403 -0.5793  0.7847
  778MOL0     C 4934   7.160   3.661   4.976 -0.6225  0.0367  0.6558
  778MOL0     C 4935   7.083   3.530   4.969  0.7348  0.2707  0.5187
  778MOL0     C 4936   7.126   3.459   4.838  0.4182  0.0155  0.4778
  778MOL0     C 4937   7.050   3.328   4.843  0.8008  0.5237  0.1339
  778MOL0     C 4938   7.047   3.259   4.710  0.6525  0.8250  0.2033
  778MOL0    Cl 4939   6.957   3.106   4.732  0.7666 -0.3814  0.3059
  778MOL0     C 4940   7.650   3.749   5.158 -0.5251 -0.4002 -0.0746
  778MOL0     C 4941   7.791   3.736   5.166  1.2640 -0.2740  0.0545
  778MOL0     O 4942   8.100   3.952   4.990 -0.6367 -0.6447  0.0262
  778MOL0     C 4943   8.356   3.879   5.046 -0.8916 -0.2068 -0.6327
  778MOL0     C 4944   8.492   3.846   5.084 -1.3378  0.2762  0.3258
  778MOL0     N 4945   8.677   3.155   5.164 -1.6220  0.8592 -0.2186
  778MOL0     N 4946   8.572   3.138   5.088 -0.5024 -0.1344  0.0382
  778MOL0     C 4947   7.806   3.389   4.670 -0.1128 -0.2193  0.3615
  778MOL0     C 4948   7.695   3.323   4.737  0.4193 -0.3812  0.0621
  778MOL0     C 4949   7.351   3.242   5.063 -0.5672 -0.0464 -0.5498
  778MOL0     C 4950   7.275   3.278   5.178 -0.3278 -0.2463 -1.8588
  778MOL0     C 4951   7.158   3.199   5.214 -0.4702  0.2825 -0.3865
  778MOL0     C 4952   7.131   3.079   5.159 -0.4527  0.7269 -0.1345
  778MOL0     O 4953   7.018   3.021   5.200  0.8197  0.4100 -0.3455
  778MOL0     C 4954   6.901   3.087   5.151  0.9679  0.0698 -0.3782
  778MOL0     C 4955   6.829   2.998   5.047  0.1283 -0.0547  0.5342
  778MOL0     C 4956   6.690   3.068   5.012 -1.2459 -0.4301 -0.4395
  778MOL0     C 4957   6.604   2.992   4.916  0.4535  0.1730  0.2163
  778MOL0     C 4958   6.486   3.066   4.881 -0.5618  0.4656 -0.4209
  778MOL0     C 4959   6.384   3.134   4.860 -0.5234 -0.1860 -1.2291
  778MOL0     C 4960   7.215   3.031   5.051 -1.3689  0.0031  0.4191
  778MOL0     C 4961   7.317   3.118   5.000 -0.0768  0.6792  0.4206
  778MOL0     C 4962   7.392   3.050   4.889 -0.5854  0.7237 -0.3197
  778MOL0     H 4963   7.539   3.584   4.886  3.6788  0.2362  2.9969
  778MOL0     H 4964   7.707   3.704   4.770  2.3774  0.6289  0.3054
  778MOL0     H 4965   8.002   3.777   4.587 -3.8874  0.5287 -2.6755
  778MOL0     H 4966   7.908   3.765   4.736 -1.4311 -4.5999  1.3182
  778MOL0     H 4967   8.131   3.749   4.812  2.2661 -1.4131  0.6810
  778MOL0     H 4968   8.173   3.636   4.680  1.1082  2.1402  0.9428
  778MOL0     H 4969   7.984   3.563   4.910 -0.7243  1.6888 -1.0494
  778MOL0     H 4970   8.134   3.604   4.950 -1.4956 -0.4500  0.3224
  778MOL0     H 4971   8.102   3.403   4.720  1.5792  1.4063 -0.4304
  778MOL0     H 4972   8.242   3.432   4.806  0.3695  1.3168  1.5810
  778MOL0     H 4973   7.984   3.311   4.919  0.9099  1.6655 -2.6831
  778MOL0     H 4974   8.135   3.218   4.902 -0.1936 -0.7232  1.2149
  778MOL0     H 4975   8.113   3.449   5.102  0.6912  0.1469 -0.2483
  778MOL0     H 4976   8.095   3.276   5.143  1.4786 -2.1008 -0.2655
  778MOL0     H 4977   8.332   3.386   5.169  2.1616  0.0064  0.2804
  778MOL0     H 4978   8.359   3.351   4.994  0.3888 -2.0112 -0.9267
  778MOL0     H 4979   8.243   3.155   5.185  1.6333  0.5040  2.9732
  778MOL0     H 4980   8.301   3.132   5.018  0.0079  0.9898 -0.4144
  778MOL0     H 4981   8.448   3.217   5.378 -0.9607 -0.3469  0.7887
  778MOL0     H 4982   8.730   3.205   5.483 -0.2153  1.2850 -0.3206
  778MOL0     H 4983   8.828   3.255   5.348  0.3130  0.3154  0.1693
  778MOL0     H 4984   8.591   3.398   5.477 -0.4036  2.9668 -0.6535
  778MOL0     H 4985   8.770   3.430   5.469  1.3428 -2.0362 -0.3629
  778MOL0     H 4986   8.552   3.471   5.254  0.4634  1.5747 -0.8632
  778MOL0     H 4987   8.728   3.462   5.212  1.1041  0.4483  1.0737
  778MOL0     H 4988   8.780   3.637   5.362  1.0727 -0.4456 -1.7171
  778MOL0     H 4989   8.615   3.647   5.421 -0.9375 -4.1338 -0.4561
  778MOL0     H 4990   8.432   3.693   5.374  0.6562  0.2859 -0.2594
  778MOL0     H 4991   8.197   3.760   5.314 -2.0404 -0.8250 -1.4925
  778MOL0     H 4992   7.890   4.048   5.082  1.8293 -1.8144  2.0484
  778MOL0     H 4993   7.659   4.083   5.075  3.1526  0.7335 -0.9358
  778MOL0     H 4994   7.408   3.707   5.099  0.9370  1.3155  0.9237
  778MOL0     H 4995   7.389   3.759   5.261  0.6914 -0.1787  0.2626
  778MOL0     H 4996   7.209   3.912   5.204 -0.6158  0.9661 -0.1977
  778MOL0     H 4997   7.240   3.916   5.035  1.8638  1.9662  0.7343
  778MOL0     H 4998   7.141   3.660   5.188 -2.3289  0.3147  1.7511
  778MOL0     H 4999   7.039   3.778   5.124  0.9150  2.5387  0.2699
  778MOL0     H 5000   7.267   3.641   4.968 -0.2719  2.1719 -0.7455
  778MOL0     H 5001   7.124   3.729   4.898  0.1633  0.9869  1.0910
  778MOL0     H 5002   6.975   3.542   4.972  0.6598 -0.3002  0.2238
  778MOL0     H 5003   7.100   3.465   5.056  2.1122  0.6066  0.5246
  778MOL0     H 5004   7.118   3.516   4.745 -0.2643 -0.7984  0.0210
  778MOL0     H 5005   7.234   3.444   4.843  0.5225  1.0911  1.8525
  778MOL0     H 5006   6.945   3.334   4.873  0.7621  0.2874  0.0444
  778MOL0     H 5007   7.093   3.266   4.922  2.1017  0.8396 -0.2916
  778MOL0     H 5008   7.003   3.327   4.636  0.0086  0.3818  0.1701
  778MOL0     H 5009   7.149   3.232   4.682  1.1171  3.1048 -0.5150
  778MOL0     H 5010   7.580   3.670   5.184 -0.4051  0.3116  2.7257
  778MOL0     H 5011   7.813   3.639   5.208  0.1452 -0.2635  0.6931
  778MOL0     H 5012   8.332   3.923   4.950 -1.2188  0.4797 -0.2505
  778MOL0     H 5013   8.576   3.889   5.030 -1.9930  1.0245 -0.1420
  778MOL0     H 5014   7.879   3.353   4.599  1.4906 -0.2695  1.9802
  778MOL0     H 5015   7.683   3.215   4.745 -0.8462 -0.2371  0.3972
  778MOL0     H 5016   7.279   3.365   5.243 -0.1861 -0.3912 -1.6738
  778MOL0     H 5017   7.098   3.237   5.297  1.9912  0.9693  1.1914
  778MOL0     H 5018   6.925   3.181   5.099 -2.0687  0.4227 -1.3673
  778MOL0     H 5019   6.830   3.116   5.229  2.6251  2.2090  0.4434
  778MOL0     H 5020   6.817   2.899   5.091 -1.2629 -0.2162 -0.1256
  778MOL0     H 5021   6.888   2.992   4.956  1.5014  0.9771  1.3142
  778MOL0     H 5022   6.714   3.170   4.979 -0.6758 -0.0758  0.9781
  778MOL0     H 5023   6.624   3.074   5.099 -1.3275  4.6370 -0.5589
  778MOL0     H 5024   6.669   2.964   4.833  1.4988 -1.0258  1.3841
  778MOL0     H 5025   6.587   2.892   4.959  2.2578 -1.4358 -2.5472
  778MOL0     H 5026   6.307   3.208   4.845 -0.9119 -0.1975  0.5767
  778MOL0     H 5027   7.192   2.937   5.002 -2.1073  1.3767 -2.0558
  778MOL0     H 5028   7.393   3.104   4.793 -3.1502  2.4190  0.4969
  778MOL0     H 5029   7.498   3.051   4.916  0.7773 -0.9710 -4.7347
  778MOL0     H 5030   7.363   2.944   4.887  1.5060  0.0964 -3.2843
  779MOL0     O 5031   2.293   8.822   2.201  0.0143 -0.1386 -0.1292
  779MOL0     C 5032   2.235   8.789   2.097 -0.3253 -0.7361  0.9383
  779MOL0     O 5033   2.100   8.768   2.083  0.1614  0.4130  0.2583
  779MOL0     C 5034   2.001   8.807   2.168 -0.3257 -0.4007  0.0839
  779MOL0     C 5035   1.988   8.944   2.203 -0.3767 -0.0358 -0.6251
  779MOL0     C 5036   1.892   8.985   2.292  1.2187  0.0240 -0.0375
  779MOL0     C 5037   1.801   8.888   2.341 -0.8340 -0.2276  0.4957
  779MOL0     O 5038   1.700   8.946   2.420  0.5244 -0.4767  0.1102
  779MOL0     C 5039   1.571   8.881   2.429  0.3789  1.5551 -0.5509
  779MOL0     C 5040   1.450   8.954   2.468 -0.0022  0.3656  0.2526
  779MOL0     C 5041   1.444   9.034   2.602 -0.0062  0.3432 -0.1999
  779MOL0     C 5042   1.471   8.943   2.727  0.1429 -0.0401  0.2191
  779MOL0     C 5043   1.473   9.019   2.861 -0.6253 -0.3182 -0.0016
  779MOL0     C 5044   1.516   8.928   2.973  0.3572  0.0312 -0.8717
  779MOL0     C 5045   1.512   8.996   3.119  0.7294 -0.0280 -0.2373
  779MOL0     C 5046   1.621   9.099   3.131 -0.3649 -0.1988  0.4001
  779MOL0     N 5047   1.656   9.144   3.267 -0.0403 -0.0878 -0.5505
  779MOL0     C 5048   1.716   9.080   3.373 -0.9937  0.3227  0.0128
  779MOL0     C 5049   1.729   9.183   3.469 -0.3291  0.4247 -1.1168
  779MOL0     C 5050   1.791   9.188   3.607  0.2294 -0.2201  0.0023
  779MOL0     C 5051   1.885   9.063   3.624 -0.8877  0.3925 -0.2148
  779MOL0     C 5052   2.012   9.105   3.704 -0.3409 -0.5817 -0.5337
  779MOL0     C 5053   2.119   8.995   3.717  0.3621  0.3459 -0.6823
  779MOL0     O 5054   2.059   8.906   3.806  0.0314  0.4432  0.0261
  779MOL0     C 5055   2.125   8.842   3.908  0.0391  0.3471  0.7760
  779MOL0     C 5056   2.234   8.898   3.971 -0.6603  0.1595  0.8100
  779MOL0     C 5057   2.311   8.821   4.061  0.7875  0.0167  0.6179
  779MOL0     C 5058   2.275   8.691   4.084 -0.0963 -0.2105 -0.2558
  779MOL0     C 5059   2.356   8.621   4.183 -0.8814 -0.7816  0.0314
  779MOL0     O 5060   2.466   8.690   4.244  0.5841  0.1905  0.0511
  779MOL0     C 5061   2.539   8.626   4.342  0.6793 -0.1572  0.5916
  779MOL0     C 5062   2.577   8.706   4.456  0.1993  0.6019 -0.2312
  779MOL0     C 5063   2.674   8.659   4.555 -0.1580  0.7606  0.3192
  779MOL0     C 5064   2.719   8.529   4.541 -0.1529  0.5284 -0.4183
  779MOL0     O 5065   2.804   8.464   4.626  0.2267 -0.9445  0.1398
  779MOL0     C 5066   2.842   8.524   4.742  0.3809 -0.1395 -0.4335
  779MOL0     C 5067   2.916   8.421   4.817 -0.5545 -0.6864  0.2878
  779MOL0     C 5068   2.981   8.492   4.934  0.0470  0.2276 -0.0300
  779MOL0     C 5069   3.073   8.607   4.910  0.3448 -0.4972 -0.1723
  779MOL0     C 5070   3.167   8.634   5.025  0.2330 -0.1055 -0.1203
  779MOL0     C 5071   3.088   8.704   5.145 -1.0167 -0.3877  0.0926
  779MOL0     C 5072   3.186   8.770   5.245  0.5546 -0.1447  0.0340
  779MOL0     C 5073   3.263   8.668   5.336 -0.7670 -0.3647  0.1506
  779MOL0    Cl 5074   3.412   8.601   5.274  0.1478  0.1404  0.0069
  779MOL0     C 5075   2.679   8.446   4.438 -0.0348  0.6954  0.0469
  779MOL0     C 5076   2.590   8.493   4.336 -1.1380  0.1541 -0.9625
  779MOL0     O 5077   2.321   8.511   4.218  0.1701 -0.0182 -0.1036
  779MOL0     C 5078   2.176   8.631   4.006  0.8234 -0.0836  0.0430
  779MOL0     C 5079   2.096   8.711   3.927  0.4091  0.2901  0.1131
  779MOL0     N 5080   1.654   9.287   3.426 -0.0193  0.4665 -0.0828
  779MOL0     N 5081   1.612   9.257   3.306  0.2121 -0.4442  0.2418
  779MOL0     C 5082   1.814   8.748   2.308 -0.5955 -0.0280 -0.4454
  779MOL0     C 5083   1.913   8.714   2.215 -0.5989 -0.5107  0.3581
  779MOL0     C 5084   2.323   8.766   1.979  0.4297 -0.3065 -0.2002
  779MOL0     C 5085   2.261   8.696   1.870 -0.0049  0.2921  0.3261
  779MOL0     C 5086   2.336   8.675   1.755  0.7724 -0.1037 -0.1044
  779MOL0     C 5087   2.471   8.698   1.752 -0.1124  0.5208 -0.1703
  779MOL0     O 5088   2.551   8.646   1.649 -0.0406 -0.1627 -0.5258
  779MOL0     C 5089   2.490   8.568   1.544 -0.6098 -0.0388  0.8413
  779MOL0     C 5090   2.413   8.658   1.439 -1.3399 -0.2535 -0.0036
  779MOL0     C 5091   2.516   8.736   1.350  0.0907  0.4214 -0.3706
  779MOL0     C 5092   2.583   8.647   1.239  0.1173 -0.4723 -0.3491
  779MOL0     C 5093   2.646   8.733   1.140  0.4445 -0.5432  0.0894
  779MOL0     C 5094   2.674   8.816   1.061  0.2401  0.6417  0.3543
  779MOL0     C 5095   2.535   8.768   1.859 -0.9569 -0.4573  1.6033
  779MOL0     C 5096   2.462   8.809   1.971 -0.5134 -0.1497 -0.3764
  779MOL0     C 5097   2.533   8.899   2.068  0.2058 -0.8664 -0.2798
  779MOL0     H 5098   2.063   9.015   2.168  1.0029 -1.6714 -1.1154
  779MOL0     H 5099   1.892   9.086   2.332 -1.5797 -0.4923  1.4771
  779MOL0     H 5100   1.559   8.831   2.332  2.0405 -2.4438  1.0966
  779MOL0     H 5101   1.579   8.793   2.493  3.4868  2.3478  0.3068
  779MOL0     H 5102   1.368   8.882   2.462  1.2000 -1.0483  0.2081
  779MOL0     H 5103   1.438   9.036   2.397 -2.5330 -0.7052 -0.7005
  779MOL0     H 5104   1.353   9.095   2.604 -0.7242 -0.5504  3.7698
  779MOL0     H 5105   1.516   9.116   2.597 -0.7708  1.1175  1.0184
  779MOL0     H 5106   1.386   8.874   2.735  1.1140 -1.4085 -0.7959
  779MOL0     H 5107   1.559   8.879   2.725  0.1517 -0.0210 -0.0860
  779MOL0     H 5108   1.556   9.087   2.845  0.6221 -1.3945  1.5368
  779MOL0     H 5109   1.380   9.076   2.875 -1.9750 -2.4329  0.1366
  779MOL0     H 5110   1.462   8.833   2.981  0.9065 -0.4017 -2.1548
  779MOL0     H 5111   1.614   8.894   2.939  0.1375 -2.6367  0.9045
  779MOL0     H 5112   1.533   8.914   3.189  1.0324 -2.3661 -2.8914
  779MOL0     H 5113   1.420   9.048   3.144  0.6318 -1.6564  3.3285
  779MOL0     H 5114   1.713   9.059   3.086 -0.1324 -2.8916  2.9442
  779MOL0     H 5115   1.607   9.191   3.074 -0.0912  0.0544  0.7322
  779MOL0     H 5116   1.746   8.976   3.383 -0.1590  0.2377 -2.6448
  779MOL0     H 5117   1.844   9.283   3.603 -0.9908  0.4508 -2.5218
  779MOL0     H 5118   1.719   9.189   3.690  0.6524  0.1781  0.3675
  779MOL0     H 5119   1.837   8.979   3.675  1.8937 -0.6725  0.8391
  779MOL0     H 5120   1.922   9.032   3.526 -0.5143  1.6057 -0.4789
  779MOL0     H 5121   1.989   9.146   3.802 -0.3263  1.3483 -1.2788
  779MOL0     H 5122   2.056   9.189   3.648  0.8418  0.2031  1.4573
  779MOL0     H 5123   2.213   9.033   3.758 -0.0557 -2.5035  3.5773
  779MOL0     H 5124   2.140   8.936   3.627  0.2501 -0.1203 -0.4074
  779MOL0     H 5125   2.258   9.004   3.971 -5.1188  1.4385  3.4151
  779MOL0     H 5126   2.385   8.874   4.120 -1.1723  3.5023  0.2651
  779MOL0     H 5127   2.541   8.808   4.465  0.5968  0.5702  5.3147
  779MOL0     H 5128   2.703   8.724   4.636 -3.7224  3.1508 -0.0991
  779MOL0     H 5129   2.899   8.616   4.728 -1.9511  1.8125  1.7352
  779MOL0     H 5130   2.754   8.542   4.805 -1.3420 -1.1825 -2.4230
  779MOL0     H 5131   2.843   8.347   4.851 -1.8758 -0.0025 -0.9205
  779MOL0     H 5132   2.986   8.374   4.749  0.6714  2.2114 -0.6239
  779MOL0     H 5133   2.894   8.530   4.989  0.4891  0.3902  0.5574
  779MOL0     H 5134   3.038   8.412   4.982  1.2228  0.4435 -1.0414
  779MOL0     H 5135   3.013   8.697   4.894 -2.3193 -2.1815 -0.3839
  779MOL0     H 5136   3.133   8.576   4.823  0.6762  2.4959 -1.1314
  779MOL0     H 5137   3.249   8.698   4.991  2.9802 -2.5594  1.4056
  779MOL0     H 5138   3.217   8.539   5.046 -2.1761 -1.0736  1.7121
  779MOL0     H 5139   3.019   8.784   5.116 -0.3074 -0.0972 -0.8200
  779MOL0     H 5140   3.025   8.631   5.196  2.5920 -3.7326  0.1744
  779MOL0     H 5141   3.128   8.834   5.312  1.1579  1.7573 -1.1872
  779MOL0     H 5142   3.259   8.832   5.193  0.0305 -0.1402 -0.7129
  779MOL0     H 5143   3.292   8.732   5.419 -1.3557 -1.1488  0.9782
  779MOL0     H 5144   3.198   8.591   5.378 -0.9773  0.1919  0.8574
  779MOL0     H 5145   2.715   8.344   4.441 -0.2609  0.5037 -1.9906
  779MOL0     H 5146   2.570   8.432   4.248  1.4002 -3.1661  0.5203
  779MOL0     H 5147   2.157   8.525   4.019 -0.0284 -0.0943 -1.1546
  779MOL0     H 5148   2.010   8.679   3.870  0.4625  2.8497 -1.5905
  779MOL0     H 5149   1.749   8.667   2.338 -1.7271  0.4082 -1.6180
  779MOL0     H 5150   1.916   8.612   2.177  2.6063 -0.2342 -0.4573
  779MOL0     H 5151   2.155   8.674   1.872  0.1129 -0.3421 -0.2345
  779MOL0     H 5152   2.292   8.627   1.668  2.6195  1.6775 -2.1528
  779MOL0     H 5153   2.423   8.490   1.582 -2.0887  2.1529  3.0008
  779MOL0     H 5154   2.565   8.531   1.474 -0.9003  2.7370 -1.0859
  779MOL0     H 5155   2.342   8.730   1.481 -0.3103  1.6142 -1.3026
  779MOL0     H 5156   2.358   8.592   1.371 -0.7741 -1.4283  0.6606
  779MOL0     H 5157   2.600   8.773   1.411 -2.7083  3.3534  2.0575
  779MOL0     H 5158   2.451   8.815   1.313 -1.3210 -0.3923  0.2620
  779MOL0     H 5159   2.668   8.593   1.281  0.1996 -2.6448 -3.0269
  779MOL0     H 5160   2.511   8.578   1.193  2.9774 -3.2233 -0.9970
  779MOL0     H 5161   2.700   8.890   0.988 -3.4598  0.7957 -1.0011
  779MOL0     H 5162   2.642   8.781   1.851 -0.8185 -2.2158 -0.5786
  779MOL0     H 5163   2.580   8.858   2.158 -0.5429  2.8341  2.0034
  779MOL0     H 5164   2.616   8.954   2.023 -0.6086  1.2499  0.6763
  779MOL0     H 5165   2.458   8.972   2.100  3.5912  1.6157  2.8270
  780MOL0     O 5166   2.805   4.344   8.168 -0.9952 -0.1578 -0.1003
  780MOL0     C 5167   2.867   4.444   8.160  0.0540 -0.4707  0.3089
  780MOL0     O 5168   2.978   4.473   8.235  0.7816 -0.2448 -0.7164
  780MOL0     C 5169   3.034   4.370   8.307  0.8008  1.5736  0.8988
  780MOL0     C 5170   2.991   4.336   8.428  0.2637  0.7227 -0.0640
  780MOL0     C 5171   3.053   4.234   8.507 -0.4715  1.0533  0.5914
  780MOL0     C 5172   3.185   4.192   8.456 -0.1688  0.2303  0.2994
  780MOL0     O 5173   3.266   4.103   8.519  0.1694 -0.1149 -0.1137
  780MOL0     C 5174   3.267   3.972   8.467  0.2857 -0.3752  0.9698
  780MOL0     C 5175   3.204   3.883   8.567  0.3856 -0.0849  0.5760
  780MOL0     C 5176   3.276   3.878   8.698 -0.2977 -0.5899 -1.7439
  780MOL0     C 5177   3.213   3.769   8.787 -0.1080  0.5228  0.0081
  780MOL0     C 5178   3.078   3.815   8.855  0.0294 -0.3083  0.0472
  780MOL0     C 5179   3.037   3.703   8.947 -0.0706 -0.4582 -1.0871
  780MOL0     C 5180   2.984   3.576   8.879 -0.0565 -0.2474  0.4522
  780MOL0     C 5181   2.847   3.538   8.937 -0.9485 -0.8831  1.6199
  780MOL0     N 5182   2.853   3.493   9.073  0.1725 -0.0714 -0.6801
  780MOL0     C 5183   2.736   3.448   9.130  0.5201  0.3368 -0.1840
  780MOL0     C 5184   2.764   3.441   9.262  0.5209 -0.0299 -0.4653
  780MOL0     C 5185   2.654   3.398   9.359 -0.8466  0.4160 -0.4578
  780MOL0     C 5186   2.698   3.405   9.514  0.3292 -0.1416  0.0205
  780MOL0     C 5187   2.731   3.548   9.562 -0.3366  0.1401  0.5360
  780MOL0     C 5188   2.765   3.562   9.706  0.4173 -0.4861  0.2949
  780MOL0     O 5189   2.799   3.697   9.755  1.1373  0.2162 -0.0151
  780MOL0     C 5190   2.929   3.744   9.756 -0.2971  0.4792 -1.2679
  780MOL0     C 5191   3.041   3.674   9.693 -0.4849  0.0988 -0.2391
  780MOL0     C 5192   3.161   3.736   9.694 -0.5872 -0.4657  0.4126
  780MOL0     C 5193   3.183   3.864   9.743  1.3497 -0.7962  0.3493
  780MOL0     C 5194   3.325   3.918   9.752  0.4424  0.8692 -0.6813
  780MOL0     O 5195   3.356   4.020   9.847  0.5990  0.2947  0.1236
  780MOL0     C 5196   3.489   4.064   9.849 -0.2763 -0.3504  0.3294
  780MOL0     C 5197   3.529   4.173   9.779 -0.3411  0.0744 -0.1758
  780MOL0     C 5198   3.660   4.216   9.786 -0.1639 -0.7904 -0.2641
  780MOL0     C 5199   3.763   4.152   9.861  0.5608 -0.1436  0.0176
  780MOL0     O 5200   3.889   4.205   9.866  0.1611 -0.3752 -0.3723
  780MOL0     C 5201   3.997   4.127   9.913 -0.9346  1.0630  0.7941
  780MOL0     C 5202   4.136   4.197   9.894 -0.4830 -0.1427 -0.2300
  780MOL0     C 5203   4.248   4.116   9.955  0.1378  0.1296 -1.0590
  780MOL0     C 5204   4.378   4.191   9.923 -0.3228  0.2276 -0.1257
  780MOL0     C 5205   4.494   4.121   9.981  0.4224  0.7864 -0.5273
  780MOL0     C 5206   4.618   4.194   9.945  0.0933 -0.0703  0.0363
  780MOL0     C 5207   4.749   4.131  10.004 -0.5846  1.4775  0.6819
  780MOL0     C 5208   4.737   4.141  10.166 -0.4163  0.4946  0.6372
  780MOL0    Cl 5209   4.898   4.123  10.254  0.0289 -0.0641  0.0383
  780MOL0     C 5210   3.721   4.042   9.941  0.5145 -0.2573 -0.0360
  780MOL0     C 5211   3.584   4.001   9.936  0.3476 -0.1538 -0.0312
  780MOL0     O 5212   3.408   3.877   9.669 -0.2126 -0.5096  0.3940
  780MOL0     C 5213   3.080   3.922   9.825 -0.1324  0.1124  0.9789
  780MOL0     C 5214   2.955   3.859   9.827 -0.4182 -1.6895 -0.8036
  780MOL0     N 5215   2.894   3.469   9.278 -1.0278 -0.0377 -0.2692
  780MOL0     N 5216   2.949   3.508   9.168  0.8788  1.0209  0.1146
  780MOL0     C 5217   3.235   4.239   8.333 -0.3415  0.3863  0.3073
  780MOL0     C 5218   3.159   4.330   8.261 -0.3149  0.1570  0.9561
  780MOL0     C 5219   2.819   4.553   8.067 -1.1210  0.0912 -0.6664
  780MOL0     C 5220   2.895   4.674   8.075  0.5478  0.1358 -0.0591
  780MOL0     C 5221   2.860   4.780   7.990  0.0292 -0.3986  0.5653
  780MOL0     C 5222   2.774   4.763   7.875  0.3617 -0.1128 -0.5516
  780MOL0     O 5223   2.733   4.865   7.794 -0.6892  0.3794  0.6728
  780MOL0     C 5224   2.827   4.973   7.764  0.0546  0.1413 -0.5212
  780MOL0     C 5225   2.955   4.929   7.680  0.1899 -0.3036 -0.6479
  780MOL0     C 5226   3.081   5.020   7.705 -0.8152  0.6913 -0.9046
  780MOL0     C 5227   3.054   5.171   7.726  0.6787  0.0782 -0.1223
  780MOL0     C 5228   2.960   5.224   7.630  0.1170 -0.9038  0.6472
  780MOL0     C 5229   2.895   5.258   7.526 -0.4326  0.1086  0.1684
  780MOL0     C 5230   2.710   4.642   7.868 -0.1155 -0.6707 -0.2345
  780MOL0     C 5231   2.721   4.536   7.960 -0.9378 -1.4567  0.2242
  780MOL0     C 5232   2.653   4.421   7.927 -0.2100  0.3441  0.1999
  780MOL0     H 5233   2.897   4.373   8.468  0.4105 -1.2512  2.3473
  780MOL0     H 5234   3.014   4.188   8.597  0.5238  3.1927  2.2110
  780MOL0     H 5235   3.229   3.966   8.365  0.9437  1.5541  0.5681
  780MOL0     H 5236   3.374   3.954   8.453  0.3462  0.9178 -0.4176
  780MOL0     H 5237   3.215   3.785   8.519 -0.3863  0.3499 -0.5170
  780MOL0     H 5238   3.096   3.893   8.581  0.4742  0.8930  0.5994
  780MOL0     H 5239   3.264   3.967   8.760 -1.1503 -2.3642  0.8186
  780MOL0     H 5240   3.380   3.847   8.679 -0.5193 -2.1842 -0.5866
  780MOL0     H 5241   3.192   3.682   8.723  0.8797  0.8259 -0.7769
  780MOL0     H 5242   3.283   3.742   8.866 -0.3533  0.4714  0.2080
  780MOL0     H 5243   3.107   3.907   8.907  0.3820  1.0617 -2.4258
  780MOL0     H 5244   2.991   3.833   8.791  1.1956 -0.2376 -1.5918
  780MOL0     H 5245   3.127   3.676   9.003  0.3555 -1.4733 -2.2116
  780MOL0     H 5246   2.967   3.741   9.022  1.3908  0.6787 -0.2501
  780MOL0     H 5247   3.063   3.506   8.907  2.2943  2.4808  1.1640
  780MOL0     H 5248   2.978   3.594   8.771 -2.1966 -0.9390  0.4168
  780MOL0     H 5249   2.789   3.630   8.929 -1.4693 -1.2178  1.4361
  780MOL0     H 5250   2.813   3.462   8.866 -3.8880  3.6386 -2.4676
  780MOL0     H 5251   2.640   3.450   9.079  2.0744  1.0540 -3.3479
  780MOL0     H 5252   2.563   3.458   9.357 -1.1367  0.1099  1.4707
  780MOL0     H 5253   2.629   3.296   9.328 -2.0405  0.7706 -0.7040
  780MOL0     H 5254   2.611   3.371   9.571 -0.0140  3.7839  2.2117
  780MOL0     H 5255   2.778   3.331   9.524  0.3807 -0.6247 -2.8917
  780MOL0     H 5256   2.642   3.609   9.543 -1.6370 -1.1563  2.2369
  780MOL0     H 5257   2.814   3.593   9.506  1.3609 -0.5250  2.4210
  780MOL0     H 5258   2.851   3.498   9.726  1.2492  0.6320  0.4045
  780MOL0     H 5259   2.690   3.534   9.781  0.1804  1.9157  1.0486
  780MOL0     H 5260   3.029   3.586   9.630 -1.4415  0.1502 -0.1315
  780MOL0     H 5261   3.247   3.693   9.643  0.3990  0.8056  0.9498
  780MOL0     H 5262   3.469   4.210   9.696  1.9546 -2.5212 -3.2818
  780MOL0     H 5263   3.691   4.299   9.724 -0.9754 -1.3444 -1.4545
  780MOL0     H 5264   3.972   4.113  10.019  0.5317 -2.2120  0.8228
  780MOL0     H 5265   4.008   4.041   9.847 -0.6807  2.1187 -0.5822
  780MOL0     H 5266   4.158   4.194   9.787 -2.5174 -2.8088 -0.6813
  780MOL0     H 5267   4.132   4.300   9.929  2.6399  0.5268 -1.5640
  780MOL0     H 5268   4.246   4.120  10.064 -1.4684 -1.5032 -0.9955
  780MOL0     H 5269   4.249   4.011   9.923  0.7682 -0.6354  1.3125
  780MOL0     H 5270   4.375   4.288   9.973  4.0104  0.7476 -0.5688
  780MOL0     H 5271   4.389   4.200   9.815 -2.7545  0.4953 -0.4071
  780MOL0     H 5272   4.484   4.027   9.926  0.8329  1.7020 -2.2715
  780MOL0     H 5273   4.485   4.097  10.087  0.7276  0.8082 -0.4958
  780MOL0     H 5274   4.623   4.212   9.837  0.6478  2.2564  0.3992
  780MOL0     H 5275   4.610   4.301   9.968 -1.5396  0.1267 -1.1991
  780MOL0     H 5276   4.843   4.183   9.980  1.7062 -1.9693  1.4511
  780MOL0     H 5277   4.757   4.029   9.966 -0.1604  1.2463  1.3816
  780MOL0     H 5278   4.681   4.226  10.204 -3.5679 -1.3184  0.4269
  780MOL0     H 5279   4.679   4.052  10.193  1.0301 -0.4696  0.7010
  780MOL0     H 5280   3.781   4.005  10.024 -0.1901 -1.5425 -0.0874
  780MOL0     H 5281   3.568   3.921  10.007  1.4496 -0.4339 -0.0773
  780MOL0     H 5282   3.099   4.014   9.880  1.3885 -0.1274  0.8804
  780MOL0     H 5283   2.866   3.900   9.874 -1.5587 -0.6292 -3.6681
  780MOL0     H 5284   3.338   4.217   8.307 -0.3860  0.4340  0.0838
  780MOL0     H 5285   3.205   4.368   8.170 -2.3435  0.4306 -0.0121
  780MOL0     H 5286   2.977   4.687   8.144 -0.3268  1.3347  0.7808
  780MOL0     H 5287   2.925   4.866   7.997 -0.1053  0.2171 -3.4229
  780MOL0     H 5288   2.855   5.013   7.862 -0.8704  0.8151 -0.5154
  780MOL0     H 5289   2.777   5.053   7.707  0.4170  1.3674  0.8145
  780MOL0     H 5290   2.933   4.936   7.573  0.9189 -5.8389 -1.4213
  780MOL0     H 5291   2.972   4.824   7.703 -2.0835 -0.3806  1.0718
  780MOL0     H 5292   3.158   5.013   7.627  1.1507 -0.4941  1.0049
  780MOL0     H 5293   3.125   4.975   7.795 -2.1724 -1.6903 -1.3618
  780MOL0     H 5294   3.012   5.185   7.827  1.7051 -3.3294  0.9188
  780MOL0     H 5295   3.146   5.230   7.718 -1.3334  3.4642 -0.1587
  780MOL0     H 5296   2.858   5.283   7.429 -0.9050 -1.0597  0.0369
  780MOL0     H 5297   2.641   4.640   7.784 -1.3682 -1.0539  0.7717
  780MOL0     H 5298   2.581   4.424   7.845  2.2647 -2.0056 -2.2413
  780MOL0     H 5299   2.730   4.345   7.912  0.7082  1.0288  1.2514
  780MOL0     H 5300   2.608   4.382   8.019  0.1824 -0.7001 -0.0363
  781MOL0     O 5301   4.245   3.146  10.788 -0.1506 -0.0877 -0.2884
  781MOL0     C 5302   4.207   3.031  10.811 -0.5605  0.1253  0.6008
  781MOL0     O 5303   4.083   2.985  10.819  0.2362  0.0788 -0.0771
  781MOL0     C 5304   3.983   3.084  10.820  0.2166  1.5645 -0.0926
  781MOL0     C 5305   3.974   3.173  10.716  1.0698 -0.4596  0.1619
  781MOL0     C 5306   3.887   3.284  10.731  0.4681 -0.3732  0.7496
  781MOL0     C 5307   3.808   3.302  10.848 -0.4105 -0.5044  0.6749
  781MOL0     O 5308   3.715   3.399  10.853  0.2882  0.3200 -0.6941
  781MOL0     C 5309   3.601   3.371  10.924 -0.1504  0.1164 -0.7801
  781MOL0     C 5310   3.479   3.420  10.842 -0.4528  0.4056 -0.4261
  781MOL0     C 5311   3.471   3.568  10.816 -0.1953  0.0322  0.1791
  781MOL0     C 5312   3.476   3.657  10.945 -0.2368  0.2427  0.3541
  781MOL0     C 5313   3.432   3.798  10.920  0.0169  0.6802  0.0755
  781MOL0     C 5314   3.428   3.883  11.049  0.2742 -0.3449 -0.8231
  781MOL0     C 5315   3.472   4.029  11.017  0.6272 -0.3333 -0.1521
  781MOL0     C 5316   3.366   4.121  10.956 -0.0266 -0.5829  0.6212
  781MOL0     N 5317   3.300   4.079  10.830 -0.9506 -0.2635  0.3882
  781MOL0     C 5318   3.373   4.075  10.714 -0.1599  0.5495 -1.0433
  781MOL0     C 5319   3.279   4.041  10.620 -0.3651  0.1879 -0.7476
  781MOL0     C 5320   3.302   4.036  10.476  0.2837 -0.2625 -0.5891
  781MOL0     C 5321   3.203   3.933  10.402 -0.1992 -0.7354 -0.2421
  781MOL0     C 5322   3.258   3.925  10.260 -0.0288 -0.0083 -0.1555
  781MOL0     C 5323   3.161   3.884  10.158  0.0907 -0.1235  0.2233
  781MOL0     O 5324   3.108   3.753  10.195  0.6317  0.1927  0.0520
  781MOL0     C 5325   2.969   3.733  10.205 -0.0739  0.9412  0.4705
  781MOL0     C 5326   2.899   3.770  10.313 -0.4951  0.3800 -0.8266
  781MOL0     C 5327   2.755   3.745  10.311 -0.9606  0.4055  0.4776
  781MOL0     C 5328   2.689   3.688  10.207  0.2287  0.5849  0.4441
  781MOL0     C 5329   2.529   3.681  10.213  0.0230  0.0372  0.0693
  781MOL0     O 5330   2.454   3.760  10.302 -0.0658  0.5892  0.1566
  781MOL0     C 5331   2.323   3.791  10.276  0.4723 -0.1384 -0.3308
  781MOL0     C 5332   2.279   3.809  10.146 -0.1088 -1.1035  0.8481
  781MOL0     C 5333   2.144   3.849  10.117 -0.1068  0.2421 -0.6651
  781MOL0     C 5334   2.056   3.878  10.226 -0.3603  0.1529  0.1941
  781MOL0     O 5335   1.920   3.914  10.225  0.3033 -0.7153  0.2529
  781MOL0     C 5336   1.872   3.941  10.097 -1.3391  0.3001  0.3561
  781MOL0     C 5337   1.728   3.942  10.118 -1.2639 -0.4562  0.4432
  781MOL0     C 5338   1.641   3.974   9.995 -0.4185 -0.6795 -0.2834
  781MOL0     C 5339   1.490   3.937  10.041 -0.0383 -0.3863  0.1672
  781MOL0     C 5340   1.385   3.980   9.946  0.7729  1.1802 -0.4136
  781MOL0     C 5341   1.247   3.901   9.969  0.2139  0.6562 -0.3419
  781MOL0     C 5342   1.130   3.951   9.890  0.6007  0.3871 -0.0023
  781MOL0     C 5343   1.005   3.873   9.896  0.2030 -0.0861  0.3387
  781MOL0    Cl 5344   0.935   3.931  10.048  0.1666 -0.0089  0.0491
  781MOL0     C 5345   2.106   3.869  10.357 -0.1197 -0.3434 -0.2940
  781MOL0     C 5346   2.238   3.825  10.377  0.3768  0.0778  0.0421
  781MOL0     O 5347   2.491   3.600  10.132  0.7684  0.3211  0.7731
  781MOL0     C 5348   2.768   3.634  10.101 -0.1145 -0.0205  0.3271
  781MOL0     C 5349   2.910   3.652  10.100  0.0898 -0.2493 -0.5510
  781MOL0     N 5350   3.156   4.025  10.677 -0.0094  0.4321 -0.0741
  781MOL0     N 5351   3.167   4.060  10.802 -0.7515 -0.1791  0.4425
  781MOL0     C 5352   3.827   3.209  10.951  0.3863  0.1610  1.5299
  781MOL0     C 5353   3.912   3.101  10.939 -0.7993 -0.7244  0.3241
  781MOL0     C 5354   4.302   2.932  10.850  0.2378  0.5539 -0.1657
  781MOL0     C 5355   4.267   2.844  10.967  0.3475  0.5677 -0.0591
  781MOL0     C 5356   4.362   2.749  11.004 -0.0722  0.0792  0.2010
  781MOL0     C 5357   4.491   2.750  10.953 -1.0786  0.3148 -0.4692
  781MOL0     O 5358   4.576   2.657  11.005 -0.4591 -0.2504  0.7549
  781MOL0     C 5359   4.714   2.681  10.989 -0.2757  0.2185  0.7576
  781MOL0     C 5360   4.782   2.583  10.890  0.8382  0.3156 -0.1567
  781MOL0     C 5361   4.928   2.607  10.866 -0.4599  0.8437  0.8368
  781MOL0     C 5362   5.020   2.563  10.982  0.0658  0.1089 -0.0367
  781MOL0     C 5363   5.157   2.619  10.962  0.0925 -0.2473 -0.2089
  781MOL0     C 5364   5.263   2.666  10.930 -0.0864 -0.2918  0.2723
  781MOL0     C 5365   4.518   2.826  10.843 -0.2238  0.2250  0.3746
  781MOL0     C 5366   4.425   2.915  10.788 -0.0538  0.2159  0.0136
  781MOL0     C 5367   4.452   2.967  10.660  0.0046 -0.2771  0.2615
  781MOL0     H 5368   4.033   3.175  10.624  0.5909  1.7394 -0.1631
  781MOL0     H 5369   3.865   3.356  10.653 -0.0712 -0.1469  1.1090
  781MOL0     H 5370   3.580   3.267  10.948  2.2770 -0.5248 -1.1131
  781MOL0     H 5371   3.619   3.432  11.013  0.4733  1.4064 -1.7532
  781MOL0     H 5372   3.388   3.380  10.885  0.7384 -1.1204  0.7920
  781MOL0     H 5373   3.487   3.367  10.747 -0.7259 -2.6933  1.1711
  781MOL0     H 5374   3.383   3.590  10.755  0.1680 -1.0228 -0.7545
  781MOL0     H 5375   3.553   3.594  10.749 -1.7519  2.2946 -0.9579
  781MOL0     H 5376   3.416   3.596  11.014 -2.3586 -2.1138 -3.2476
  781MOL0     H 5377   3.578   3.656  10.984 -0.0361 -0.1323 -0.1739
  781MOL0     H 5378   3.509   3.836  10.853  1.2489 -1.1015  0.3997
  781MOL0     H 5379   3.339   3.794  10.863  1.3932 -1.6189 -2.2512
  781MOL0     H 5380   3.329   3.869  11.093  0.3885  2.7452  0.6219
  781MOL0     H 5381   3.501   3.857  11.126  0.4326  0.5105 -0.6815
  781MOL0     H 5382   3.556   4.025  10.947  0.5508 -2.3724 -0.1903
  781MOL0     H 5383   3.492   4.074  11.115 -0.5048  0.3418 -0.2181
  781MOL0     H 5384   3.291   4.146  11.032  0.6742 -1.7757  1.7551
  781MOL0     H 5385   3.423   4.214  10.947  1.0607 -0.9525  2.8856
  781MOL0     H 5386   3.477   4.101  10.704  0.8275 -0.7198  3.5898
  781MOL0     H 5387   3.281   4.137  10.439 -2.8833 -1.0802 -1.2593
  781MOL0     H 5388   3.405   4.007  10.456  1.0938 -0.5354  3.1083
  781MOL0     H 5389   3.196   3.832  10.442 -2.6286 -0.4812  0.1120
  781MOL0     H 5390   3.106   3.982  10.395  0.1920  0.3098  1.0884
  781MOL0     H 5391   3.345   3.858  10.256 -0.7223 -0.9130 -0.3719
  781MOL0     H 5392   3.300   4.021  10.228  2.1234 -1.0962 -0.7705
  781MOL0     H 5393   3.209   3.871  10.061  3.3915 -0.7520  1.8162
  781MOL0     H 5394   3.078   3.955  10.149 -0.2775 -0.3251  1.7116
  781MOL0     H 5395   2.947   3.804  10.404  1.2739 -0.2165 -1.4932
  781MOL0     H 5396   2.695   3.783  10.392 -1.1919  1.2330 -0.0706
  781MOL0     H 5397   2.337   3.791  10.056  1.8843 -0.2892  1.9123
  781MOL0     H 5398   2.108   3.863  10.015  1.6403  2.4261 -1.0478
  781MOL0     H 5399   1.909   4.036  10.057  0.5423 -0.9029 -0.8929
  781MOL0     H 5400   1.877   3.865  10.019 -1.2853  0.1958  0.4618
  781MOL0     H 5401   1.701   3.840  10.147 -1.1997 -0.6135 -0.0399
  781MOL0     H 5402   1.697   4.020  10.188 -4.0655 -0.4081 -0.7024
  781MOL0     H 5403   1.655   4.080   9.970  1.8002 -0.0839  2.7717
  781MOL0     H 5404   1.675   3.909   9.914  3.2740 -1.2059  1.4730
  781MOL0     H 5405   1.470   3.974  10.142  4.7140 -0.9459  1.5757
  781MOL0     H 5406   1.506   3.831  10.063 -0.7392 -0.2173  1.5964
  781MOL0     H 5407   1.417   3.966   9.842  1.0110  1.3571 -0.3645
  781MOL0     H 5408   1.377   4.089   9.954  1.5384  1.1260  2.0089
  781MOL0     H 5409   1.255   3.793   9.955 -0.2551  0.4601  0.8252
  781MOL0     H 5410   1.228   3.914  10.076  0.0861  0.3324 -0.3259
  781MOL0     H 5411   1.153   3.943   9.783 -1.2154  0.7096 -0.4655
  781MOL0     H 5412   1.110   4.050   9.933  1.6999 -0.9577  3.9676
  781MOL0     H 5413   0.935   3.891   9.814 -3.4497 -1.8280  2.7537
  781MOL0     H 5414   1.020   3.764   9.901 -1.0729 -0.2668  0.7897
  781MOL0     H 5415   2.045   3.876  10.446  0.1426 -0.3129 -0.1130
  781MOL0     H 5416   2.269   3.802  10.478 -2.2417 -2.4513  0.4012
  781MOL0     H 5417   2.718   3.588  10.016 -0.6285  1.7474 -0.3677
  781MOL0     H 5418   2.969   3.615  10.017  2.4338  1.0434  0.4720
  781MOL0     H 5419   3.787   3.219  11.051 -0.0493 -0.3608  1.4099
  781MOL0     H 5420   3.933   3.030  11.018 -2.9490 -2.4366 -0.5155
  781MOL0     H 5421   4.171   2.862  11.014 -0.5369 -0.2369 -1.4876
  781MOL0     H 5422   4.338   2.688  11.090  0.5310  0.9682  1.0277
  781MOL0     H 5423   4.776   2.672  11.079  2.5008 -0.0947 -1.0586
  781MOL0     H 5424   4.750   2.781  10.963 -0.2338  0.5615  2.0512
  781MOL0     H 5425   4.727   2.585  10.795 -3.1114  1.9873  1.9721
  781MOL0     H 5426   4.769   2.487  10.940  0.5553  0.6519  0.4201
  781MOL0     H 5427   4.945   2.713  10.844  0.4959  0.6359  0.4934
  781MOL0     H 5428   4.959   2.553  10.775 -2.1090 -0.1271  0.8281
  781MOL0     H 5429   4.967   2.598  11.071 -2.3966  2.0672 -2.1077
  781MOL0     H 5430   5.023   2.454  10.983  0.1359  0.1045 -0.6164
  781MOL0     H 5431   5.359   2.707  10.904 -0.9645  1.9298  0.2980
  781MOL0     H 5432   4.611   2.815  10.788 -0.9600 -1.6679 -0.5858
  781MOL0     H 5433   4.368   2.989  10.594 -1.6181 -3.6592  0.9716
  781MOL0     H 5434   4.521   3.051  10.656 -0.6468  0.2281 -0.7716
  781MOL0     H 5435   4.511   2.894  10.604 -1.5428 -1.2172 -0.1971
  782MOL0     O 5436   7.117   5.073   2.965 -0.4934 -0.0367 -0.2362
  782MOL0     C 5437   7.150   5.018   2.857  0.6221 -0.6421  0.4434
  782MOL0     O 5438   7.264   4.949   2.835 -0.3913  0.2587 -0.1695
  782MOL0     C 5439   7.342   4.911   2.940 -0.2504 -0.8258  0.4932
  782MOL0     C 5440   7.304   4.902   3.074  0.0206 -0.4370 -0.6631
  782MOL0     C 5441   7.399   4.862   3.171 -0.0370  0.0290  0.6804
  782MOL0     C 5442   7.521   4.814   3.133 -0.9099 -0.4778 -0.6017
  782MOL0     O 5443   7.596   4.763   3.244 -0.0276 -0.1466 -0.0669
  782MOL0     C 5444   7.726   4.727   3.225  0.0486 -0.3103 -0.1687
  782MOL0     C 5445   7.741   4.577   3.212  0.5826  0.2481 -0.3704
  782MOL0     C 5446   7.892   4.562   3.191  0.3973 -0.1487  0.3567
  782MOL0     C 5447   7.934   4.414   3.187 -0.4798  0.1685  0.2653
  782MOL0     C 5448   8.085   4.389   3.133  0.1000 -0.4376 -0.3833
  782MOL0     C 5449   8.204   4.453   3.204 -0.4243 -0.4768  0.5003
  782MOL0     C 5450   8.333   4.379   3.143 -0.2663  0.2200  0.1952
  782MOL0     C 5451   8.463   4.399   3.220 -0.8396  0.1894 -0.3440
  782MOL0     N 5452   8.576   4.332   3.152  0.4288 -0.5410 -0.1914
  782MOL0     C 5453   8.709   4.369   3.128  0.6257  0.2531 -0.0856
  782MOL0     C 5454   8.774   4.269   3.071 -0.4017  1.1117 -0.4187
  782MOL0     C 5455   8.923   4.266   3.015 -0.0513 -0.4336 -0.2923
  782MOL0     C 5456   8.975   4.125   3.024  0.0311 -0.1077 -0.1188
  782MOL0     C 5457   9.098   4.112   2.934  0.9205 -0.0106  0.0476
  782MOL0     C 5458   9.199   4.022   2.995 -0.3658 -0.0051 -0.5005
  782MOL0     O 5459   9.285   4.098   3.083 -0.1076 -0.2283 -0.0157
  782MOL0     C 5460   9.390   4.036   3.148  0.3722  0.2864 -0.9351
  782MOL0     C 5461   9.477   4.120   3.224 -0.4947 -0.3709 -0.9849
  782MOL0     C 5462   9.602   4.074   3.269  0.4328  0.2112 -0.6265
  782MOL0     C 5463   9.641   3.940   3.254  0.2190 -0.6776 -0.2935
  782MOL0     C 5464   9.773   3.892   3.305  0.3957 -0.4044 -0.3884
  782MOL0     O 5465   9.804   3.768   3.283  0.0903 -0.1790  0.0973
  782MOL0     C 5466   9.929   3.729   3.335  0.0325 -0.1375  0.3599
  782MOL0     C 5467   9.942   3.723   3.479  0.6477 -0.3340  0.2693
  782MOL0     C 5468  10.055   3.670   3.547  0.2542  0.4413 -0.5916
  782MOL0     C 5469  10.144   3.601   3.458 -0.5960  0.7698 -0.1405
  782MOL0     O 5470  10.255   3.530   3.503 -0.0107  0.5962  0.0851
  782MOL0     C 5471  10.288   3.522   3.642 -0.2517 -0.2604 -0.2243
  782MOL0     C 5472  10.421   3.452   3.663  0.3901  0.3839  0.1502
  782MOL0     C 5473  10.420   3.308   3.596  0.3139 -0.1547  0.0007
  782MOL0     C 5474  10.462   3.303   3.447 -0.0432 -0.1777  0.2680
  782MOL0     C 5475  10.408   3.187   3.370 -0.2207 -0.2188 -0.3393
  782MOL0     C 5476  10.402   3.054   3.443 -0.0002  0.6718 -0.5229
  782MOL0     C 5477  10.538   2.991   3.482  0.7192  0.0871 -0.0780
  782MOL0     C 5478  10.657   3.002   3.378  0.5711  0.1412 -0.1958
  782MOL0    Cl 5479  10.597   2.939   3.225 -0.2295  0.0618  0.2372
  782MOL0     C 5480  10.129   3.612   3.317  0.5455 -0.6455  0.6422
  782MOL0     C 5481  10.022   3.667   3.253  0.2048  0.0830 -0.3495
  782MOL0     O 5482   9.848   3.979   3.349  0.3014 -0.2419  0.3885
  782MOL0     C 5483   9.547   3.851   3.201 -1.3415  0.4009  0.7597
  782MOL0     C 5484   9.433   3.903   3.132 -0.4287  0.4365  0.0565
  782MOL0     N 5485   8.677   4.172   3.046  0.4934 -0.2959 -0.9088
  782MOL0     N 5486   8.564   4.204   3.107 -0.5108  0.1365  0.5806
  782MOL0     C 5487   7.561   4.812   2.998 -0.1405 -0.7290  0.1027
  782MOL0     C 5488   7.465   4.868   2.902 -1.1247  0.0829  0.3371
  782MOL0     C 5489   7.054   5.005   2.747 -0.2701 -0.7673 -0.4100
  782MOL0     C 5490   7.059   4.885   2.672  0.1626  0.0876 -0.0134
  782MOL0     C 5491   6.992   4.880   2.560  0.1817 -0.0729 -0.9598
  782MOL0     C 5492   6.916   4.979   2.508 -0.2808  0.5300 -0.5384
  782MOL0     O 5493   6.844   4.974   2.391 -0.4978  0.5969  1.1189
  782MOL0     C 5494   6.893   5.052   2.279  0.4212 -0.2457  0.2139
  782MOL0     C 5495   7.022   4.988   2.223 -0.3235 -0.1972 -0.2207
  782MOL0     C 5496   7.149   5.028   2.303 -0.5801 -0.9172 -0.8382
  782MOL0     C 5497   7.277   5.049   2.222 -0.3959  0.3394  0.5360
  782MOL0     C 5498   7.309   4.923   2.160 -0.5737  1.2453  0.1753
  782MOL0     C 5499   7.335   4.819   2.101 -0.6291  0.3176  0.0335
  782MOL0     C 5500   6.914   5.097   2.590  0.1434 -0.1348 -0.1502
  782MOL0     C 5501   6.970   5.109   2.711 -0.7922 -0.1410  0.2841
  782MOL0     C 5502   6.953   5.234   2.785  0.9514 -0.1494 -0.1886
  782MOL0     H 5503   7.203   4.915   3.112 -0.3714  0.5069 -1.9355
  782MOL0     H 5504   7.375   4.850   3.277 -2.8819 -3.2566 -0.1517
  782MOL0     H 5505   7.774   4.779   3.142  0.2419  1.8698  1.2355
  782MOL0     H 5506   7.775   4.765   3.315 -0.6884 -1.9001  0.9612
  782MOL0     H 5507   7.697   4.524   3.127 -0.1728 -0.3141  0.3404
  782MOL0     H 5508   7.701   4.523   3.299 -1.3858  1.2937 -0.5565
  782MOL0     H 5509   7.956   4.608   3.267  0.3820 -0.3576  0.4958
  782MOL0     H 5510   7.917   4.614   3.098 -0.5512  1.3833  0.9099
  782MOL0     H 5511   7.942   4.386   3.293  1.1257  0.6301  0.3003
  782MOL0     H 5512   7.859   4.355   3.135 -1.0052 -1.1831  2.4402
  782MOL0     H 5513   8.102   4.282   3.139  0.1415 -0.3848  0.5086
  782MOL0     H 5514   8.088   4.426   3.029 -0.2832  2.2237  0.4573
  782MOL0     H 5515   8.206   4.561   3.187  0.3872 -0.7319 -1.1871
  782MOL0     H 5516   8.200   4.430   3.311 -4.0649 -2.8998 -0.0010
  782MOL0     H 5517   8.339   4.399   3.035 -1.3350  0.6425  0.2004
  782MOL0     H 5518   8.319   4.271   3.149  0.7203  0.1483  1.7386
  782MOL0     H 5519   8.482   4.507   3.226 -0.8011  0.1290  0.9388
  782MOL0     H 5520   8.461   4.359   3.322  1.1921 -1.4575 -0.9040
  782MOL0     H 5521   8.750   4.467   3.149  0.6015  0.0211  1.1544
  782MOL0     H 5522   8.904   4.298   2.912 -0.0380 -2.9768 -1.1482
  782MOL0     H 5523   8.997   4.337   3.053 -0.7496 -0.4200  1.1304
  782MOL0     H 5524   8.995   4.098   3.128  0.6957 -1.4283 -0.5713
  782MOL0     H 5525   8.894   4.061   2.989 -1.2243  0.5375  1.4743
  782MOL0     H 5526   9.149   4.205   2.904  0.3742 -0.0622 -1.0521
  782MOL0     H 5527   9.062   4.075   2.838  2.4497 -2.3651  0.3014
  782MOL0     H 5528   9.261   3.977   2.917  2.0343 -3.5889  3.0854
  782MOL0     H 5529   9.149   3.941   3.048  0.1963  0.5965  1.0143
  782MOL0     H 5530   9.443   4.222   3.239  2.0261  0.4405 -0.4085
  782MOL0     H 5531   9.666   4.155   3.304  2.3888  0.0646 -3.5731
  782MOL0     H 5532   9.859   3.765   3.535 -1.1519  1.2435 -3.3244
  782MOL0     H 5533  10.064   3.676   3.655 -0.1943 -2.7143 -0.2910
  782MOL0     H 5534  10.301   3.624   3.680 -0.4194  0.9522 -3.1629
  782MOL0     H 5535  10.214   3.468   3.702  0.5980 -1.7767 -0.4916
  782MOL0     H 5536  10.504   3.501   3.613  1.6084 -1.7968 -0.0674
  782MOL0     H 5537  10.438   3.437   3.770  2.4083 -0.2136 -0.2196
  782MOL0     H 5538  10.493   3.245   3.649 -1.6784 -1.4742  1.2915
  782MOL0     H 5539  10.326   3.254   3.611  2.4368 -3.7352  1.9506
  782MOL0     H 5540  10.572   3.298   3.451 -0.0497 -1.5422 -0.7431
  782MOL0     H 5541  10.434   3.392   3.390  1.8880  2.5359  3.2078
  782MOL0     H 5542  10.470   3.187   3.279  1.6034  2.3798  0.7924
  782MOL0     H 5543  10.308   3.215   3.336  0.1387  2.2032  0.3987
  782MOL0     H 5544  10.335   3.060   3.530  0.1775  1.8917 -0.4599
  782MOL0     H 5545  10.360   2.985   3.369  1.1080  0.9585 -1.4519
  782MOL0     H 5546  10.519   2.884   3.495  2.1529 -0.0786  0.8863
  782MOL0     H 5547  10.573   3.039   3.574 -1.2411  4.3508 -1.3352
  782MOL0     H 5548  10.670   3.110   3.367  1.5707 -0.0899 -1.5313
  782MOL0     H 5549  10.748   2.953   3.412 -1.8934 -3.7439  1.4356
  782MOL0     H 5550  10.202   3.563   3.253 -0.6965  0.0571 -1.3943
  782MOL0     H 5551  10.016   3.677   3.145 -1.8406 -0.8354 -0.3614
  782MOL0     H 5552   9.571   3.745   3.194 -4.4215 -0.3927  0.6227
  782MOL0     H 5553   9.368   3.840   3.072 -0.0366  1.8895 -1.9960
  782MOL0     H 5554   7.650   4.760   2.965  0.6423 -0.6095  1.8833
  782MOL0     H 5555   7.487   4.860   2.796 -2.8542  2.4775 -0.2979
  782MOL0     H 5556   7.126   4.804   2.699  1.7601  1.3110 -0.1466
  782MOL0     H 5557   7.016   4.794   2.499 -0.9284 -0.4729 -0.8630
  782MOL0     H 5558   6.911   5.152   2.319 -0.2340 -0.0099 -0.0693
  782MOL0     H 5559   6.819   5.054   2.198 -0.8353 -0.8786  1.3009
  782MOL0     H 5560   7.040   5.036   2.127 -0.1288  0.3334  0.0760
  782MOL0     H 5561   7.011   4.879   2.220  0.6861 -0.2916 -2.2664
  782MOL0     H 5562   7.168   4.964   2.390 -2.6806  1.2801  1.3861
  782MOL0     H 5563   7.120   5.122   2.350  1.1487 -1.2939  1.1275
  782MOL0     H 5564   7.254   5.117   2.140 -2.1920  1.8912  2.2087
  782MOL0     H 5565   7.359   5.093   2.280 -1.6509  4.3085 -0.3807
  782MOL0     H 5566   7.355   4.730   2.045  0.3700  1.3038 -1.2411
  782MOL0     H 5567   6.848   5.179   2.563  2.6975  1.7429 -1.0939
  782MOL0     H 5568   6.881   5.213   2.864  1.8986 -3.1186  0.0224
  782MOL0     H 5569   7.042   5.271   2.837  1.2568  0.3592 -1.0405
  782MOL0     H 5570   6.926   5.322   2.726  0.0284 -0.1374  0.2341
  783MOL0     O 5571   3.881   1.703   1.025 -0.2062  0.0519  0.5949
  783MOL0     C 5572   3.875   1.757   0.917 -0.8184  0.1422 -0.8540
  783MOL0     O 5573   3.765   1.777   0.841  0.0311  0.5857 -0.3153
  783MOL0     C 5574   3.666   1.674   0.842  0.3025 -0.6621  0.1321
  783MOL0     C 5575   3.540   1.697   0.886  0.3527 -0.0604 -0.4535
  783MOL0     C 5576   3.440   1.592   0.893 -0.3919  0.2892 -0.0425
  783MOL0     C 5577   3.470   1.458   0.863  1.0945  0.4330  0.2033
  783MOL0     O 5578   3.367   1.366   0.881  0.3888  0.2510 -0.4114
  783MOL0     C 5579   3.405   1.228   0.902  0.3350  0.3205 -0.0736
  783MOL0     C 5580   3.373   1.130   0.787  0.3749  0.5009 -0.0070
  783MOL0     C 5581   3.333   0.980   0.810 -0.0019  0.2662 -0.3032
  783MOL0     C 5582   3.417   0.915   0.922  1.0044 -0.5849  0.0337
  783MOL0     C 5583   3.406   0.765   0.909  0.0357  0.0006  0.3469
  783MOL0     C 5584   3.485   0.698   1.032 -0.8302  0.6436  0.2370
  783MOL0     C 5585   3.422   0.736   1.167 -0.8669 -0.2969  0.1282
  783MOL0     C 5586   3.477   0.654   1.286 -0.4907  0.0396 -0.2768
  783MOL0     N 5587   3.626   0.672   1.288  0.0426  0.9805 -0.0577
  783MOL0     C 5588   3.701   0.779   1.326  0.2581 -0.4145  1.0990
  783MOL0     C 5589   3.828   0.754   1.288  0.3576  0.1046 -0.1860
  783MOL0     C 5590   3.931   0.854   1.294 -0.1098 -0.4414 -0.3732
  783MOL0     C 5591   4.017   0.840   1.419 -0.4459  0.0436 -0.1068
  783MOL0     C 5592   4.151   0.916   1.401 -0.2236  0.2614  0.0972
  783MOL0     C 5593   4.247   0.839   1.315  0.6100  0.6653  0.1179
  783MOL0     O 5594   4.371   0.899   1.304  0.1608 -0.1322  0.1296
  783MOL0     C 5595   4.469   0.836   1.225  0.9254 -0.3827 -0.4553
  783MOL0     C 5596   4.441   0.772   1.102  0.4020 -0.4245 -0.1150
  783MOL0     C 5597   4.553   0.703   1.041 -1.7017  0.7114  0.3803
  783MOL0     C 5598   4.685   0.718   1.082 -0.5742 -0.2203 -0.4675
  783MOL0     C 5599   4.798   0.642   1.014  0.1734 -0.5472  0.1022
  783MOL0     O 5600   4.917   0.643   1.077  0.7801 -0.5954 -0.0211
  783MOL0     C 5601   5.025   0.566   1.046  0.5277 -1.4791 -1.4533
  783MOL0     C 5602   5.101   0.524   1.150  0.1538  0.5276 -0.8013
  783MOL0     C 5603   5.232   0.484   1.134 -0.5861 -0.0111 -0.0671
  783MOL0     C 5604   5.291   0.478   1.005 -0.3684  0.0294 -0.5556
  783MOL0     O 5605   5.426   0.442   1.002 -0.1712 -0.4308  0.1656
  783MOL0     C 5606   5.496   0.480   0.883 -0.3751  0.3265  0.3919
  783MOL0     C 5607   5.528   0.637   0.872  0.0734  0.5799  0.6629
  783MOL0     C 5608   5.663   0.676   0.903 -0.4138 -0.1608  0.1476
  783MOL0     C 5609   5.761   0.625   0.792  0.6568  0.9191  0.4249
  783MOL0     C 5610   5.907   0.642   0.820  0.1962  0.2149 -0.2881
  783MOL0     C 5611   5.953   0.546   0.927  0.2131  1.0214 -0.2268
  783MOL0     C 5612   5.958   0.396   0.872 -0.2716  0.3732 -0.6459
  783MOL0     C 5613   6.036   0.309   0.981  0.4848  0.0907 -0.1289
  783MOL0    Cl 5614   6.056   0.142   0.902 -0.1919  0.0143 -0.4494
  783MOL0     C 5615   5.211   0.518   0.894  0.5010  0.7288  0.4921
  783MOL0     C 5616   5.080   0.575   0.916 -0.2242  0.5154  0.3364
  783MOL0     O 5617   4.770   0.584   0.906 -0.8318 -0.1458  0.1683
  783MOL0     C 5618   4.708   0.801   1.190  0.1805 -0.8975  0.2555
  783MOL0     C 5619   4.600   0.858   1.263 -0.1883  0.1198  0.2582
  783MOL0     N 5620   3.833   0.631   1.220  0.6454  0.6413  0.3580
  783MOL0     N 5621   3.714   0.586   1.226 -0.1722 -0.3522  0.1359
  783MOL0     C 5622   3.592   1.436   0.796 -0.1259 -0.5252 -0.0700
  783MOL0     C 5623   3.690   1.541   0.788  0.0894 -1.0098 -0.3110
  783MOL0     C 5624   3.996   1.807   0.852  0.5910 -0.1513 -0.7398
  783MOL0     C 5625   4.103   1.721   0.850 -0.7763 -0.8019  0.3472
  783MOL0     C 5626   4.225   1.755   0.794 -0.3165  0.1002  0.3446
  783MOL0     C 5627   4.242   1.891   0.753  0.4652 -0.1104  0.3030
  783MOL0     O 5628   4.368   1.930   0.712 -0.1416 -0.6154 -0.0959
  783MOL0     C 5629   4.392   2.073   0.694  0.5329 -0.0252  0.5296
  783MOL0     C 5630   4.532   2.123   0.727  0.0743 -0.1211 -0.6788
  783MOL0     C 5631   4.554   2.156   0.870 -0.3808 -0.1750 -0.1536
  783MOL0     C 5632   4.488   2.081   0.986  0.0151  0.4534  0.4748
  783MOL0     C 5633   4.350   2.126   1.012 -0.9532  0.2963 -0.2117
  783MOL0     C 5634   4.234   2.169   1.026  0.5070 -0.4959  0.3183
  783MOL0     C 5635   4.126   1.978   0.742 -0.2956  0.8207  0.1897
  783MOL0     C 5636   4.003   1.932   0.793 -0.1570  0.0405  0.1329
  783MOL0     C 5637   3.890   2.023   0.788 -0.2250 -0.0908  0.1031
  783MOL0     H 5638   3.525   1.789   0.942  0.1921 -1.7386  2.4545
  783MOL0     H 5639   3.342   1.622   0.930 -0.0424 -0.9983  2.1198
  783MOL0     H 5640   3.512   1.219   0.925 -0.0735 -1.4065  1.3557
  783MOL0     H 5641   3.358   1.193   0.994 -1.2900 -0.2039 -1.0455
  783MOL0     H 5642   3.450   1.127   0.710 -0.8561 -1.5368 -1.2457
  783MOL0     H 5643   3.292   1.181   0.733 -0.1777  1.0588  1.3019
  783MOL0     H 5644   3.346   0.930   0.714 -1.9960 -0.3754 -0.2983
  783MOL0     H 5645   3.229   0.962   0.838  1.0127 -0.8888  3.2722
  783MOL0     H 5646   3.522   0.942   0.904  0.0601  1.7958 -2.6340
  783MOL0     H 5647   3.379   0.951   1.018  1.6846  2.9775 -0.8778
  783MOL0     H 5648   3.302   0.731   0.910 -0.6911  2.0796  0.6719
  783MOL0     H 5649   3.452   0.737   0.813  1.5490 -0.1613  1.0879
  783MOL0     H 5650   3.492   0.592   1.005 -1.3596  0.1757  1.8452
  783MOL0     H 5651   3.586   0.737   1.018 -0.1691 -2.1129 -5.3252
  783MOL0     H 5652   3.313   0.731   1.163 -1.3352  1.7120  4.3227
  783MOL0     H 5653   3.442   0.841   1.192 -0.4504  0.4025 -2.8414
  783MOL0     H 5654   3.433   0.693   1.378 -0.8206  2.3415 -1.3251
  783MOL0     H 5655   3.464   0.546   1.283  0.5792 -0.1502  0.8972
  783MOL0     H 5656   3.672   0.875   1.368  0.2168  0.5479 -0.9787
  783MOL0     H 5657   3.988   0.839   1.202 -0.7689 -1.5388 -0.6214
  783MOL0     H 5658   3.891   0.956   1.301 -0.4683 -0.5918 -0.1563
  783MOL0     H 5659   3.959   0.896   1.492 -0.8262  2.2192 -1.9619
  783MOL0     H 5660   4.039   0.737   1.448 -2.8193 -0.5047  0.0223
  783MOL0     H 5661   4.190   0.928   1.502 -1.2008  1.1419  0.3797
  783MOL0     H 5662   4.142   1.008   1.342 -0.5210 -0.7902 -1.5725
  783MOL0     H 5663   4.203   0.839   1.215  2.2242  3.6629 -0.7180
  783MOL0     H 5664   4.259   0.735   1.346  0.9409  0.1757 -1.5168
  783MOL0     H 5665   4.340   0.756   1.067  0.0605  0.2281  0.5579
  783MOL0     H 5666   4.524   0.634   0.962  1.9715  0.5538 -1.0167
  783MOL0     H 5667   5.048   0.542   1.243 -0.6852  6.4402 -1.9848
  783MOL0     H 5668   5.292   0.457   1.221  2.1619 -1.2470 -2.1670
  783MOL0     H 5669   5.591   0.426   0.876 -0.5145  0.1276 -0.0187
  783MOL0     H 5670   5.451   0.442   0.791  1.9418 -2.6246  0.3164
  783MOL0     H 5671   5.493   0.671   0.774 -1.0882  1.1278  1.2465
  783MOL0     H 5672   5.473   0.694   0.947 -0.0130  1.4672 -0.0503
  783MOL0     H 5673   5.675   0.785   0.899  2.1576 -0.4112 -1.1695
  783MOL0     H 5674   5.698   0.637   0.999 -0.1496 -0.2704  0.0113
  783MOL0     H 5675   5.742   0.671   0.695  0.3941  0.5652  0.3046
  783MOL0     H 5676   5.726   0.524   0.770 -0.7914  1.8148 -1.6808
  783MOL0     H 5677   5.927   0.747   0.844 -2.1345  0.5679  0.3695
  783MOL0     H 5678   5.962   0.621   0.727 -0.8387  1.6467 -1.2663
  783MOL0     H 5679   6.054   0.566   0.965  1.0618 -1.5190 -0.9625
  783MOL0     H 5680   5.887   0.553   1.014 -2.1334 -3.3155 -1.3979
  783MOL0     H 5681   6.016   0.383   0.780 -1.1421 -2.9997 -0.8462
  783MOL0     H 5682   5.855   0.360   0.870 -0.4785  0.9465 -2.3843
  783MOL0     H 5683   6.126   0.365   1.008 -0.2609  2.1952 -1.7097
  783MOL0     H 5684   5.976   0.302   1.073 -0.4332  0.4827 -0.6800
  783MOL0     H 5685   5.250   0.516   0.792  2.2547  1.1674  1.1089
  783MOL0     H 5686   5.019   0.608   0.833  0.1675 -2.3730 -1.2014
  783MOL0     H 5687   4.806   0.810   1.236 -0.4774 -0.5799  1.6578
  783MOL0     H 5688   4.626   0.903   1.359 -0.3477 -0.7829  0.7395
  783MOL0     H 5689   3.617   1.335   0.766 -3.7920 -1.5810 -0.0151
  783MOL0     H 5690   3.788   1.521   0.747 -0.0044  0.7609 -1.5222
  783MOL0     H 5691   4.086   1.622   0.890 -0.1541 -0.5984  1.1354
  783MOL0     H 5692   4.307   1.684   0.789 -1.0673 -0.8500  0.9750
  783MOL0     H 5693   4.327   2.139   0.751  2.2551  0.6940  1.7599
  783MOL0     H 5694   4.359   2.108   0.596 -2.4702 -2.2104  0.6245
  783MOL0     H 5695   4.544   2.214   0.667  0.3459 -0.2438 -0.8108
  783MOL0     H 5696   4.589   2.034   0.700 -2.2964 -1.5933 -1.2172
  783MOL0     H 5697   4.535   2.263   0.880  1.7215  0.0782  2.3092
  783MOL0     H 5698   4.662   2.140   0.879 -0.5438 -2.5571 -1.7108
  783MOL0     H 5699   4.484   1.975   0.962 -0.7764  0.5564  0.1149
  783MOL0     H 5700   4.553   2.096   1.073  1.1064 -2.4376  0.2630
  783MOL0     H 5701   4.133   2.203   1.032  1.1238  1.3432  1.0382
  783MOL0     H 5702   4.133   2.084   0.719  1.3643  0.4757 -1.0966
  783MOL0     H 5703   3.820   1.977   0.717  2.3238 -1.5824 -1.5935
  783MOL0     H 5704   3.836   2.054   0.878  2.4692  2.1523  1.0841
  783MOL0     H 5705   3.918   2.115   0.735  0.7637 -1.4456 -1.8694
  784MOL0     O 5706   9.555   1.400  11.286 -0.6757  0.9289  1.0093
  784MOL0     C 5707   9.508   1.301  11.235 -0.6942 -0.2793 -0.1499
  784MOL0     O 5708   9.576   1.191  11.205 -0.1800  0.8487 -0.3463
  784MOL0     C 5709   9.710   1.191  11.239  0.2791  0.4890  0.1574
  784MOL0     C 5710   9.753   1.139  11.359 -0.4314 -0.2167 -0.3565
  784MOL0     C 5711   9.890   1.113  11.380 -0.1045  0.7921  0.4354
  784MOL0     C 5712   9.987   1.150  11.284 -0.2926  0.0928  0.0652
  784MOL0     O 5713  10.125   1.149  11.298  0.5905  0.4325  0.7373
  784MOL0     C 5714  10.172   1.247  11.390 -0.9381 -0.7623  0.0451
  784MOL0     C 5715  10.324   1.250  11.404  1.3397  0.2020 -0.3758
  784MOL0     C 5716  10.394   1.259  11.264  0.0162 -0.2175 -0.0723
  784MOL0     C 5717  10.542   1.274  11.258  0.0123 -0.0482  0.5376
  784MOL0     C 5718  10.604   1.221  11.126 -1.2517  0.3300  0.6586
  784MOL0     C 5719  10.755   1.203  11.120 -0.3991  0.5394  0.1724
  784MOL0     C 5720  10.800   1.168  10.975  0.0125  0.2018  0.0234
  784MOL0     C 5721  10.943   1.118  10.960  0.3189 -0.0260 -0.2482
  784MOL0     N 5722  11.005   1.139  10.829 -0.4315 -0.5108 -0.3918
  784MOL0     C 5723  11.032   1.038  10.734  0.3408 -0.7008 -0.2453
  784MOL0     C 5724  11.110   1.107  10.639  0.1331  1.1498 -0.1869
  784MOL0     C 5725  11.189   1.044  10.527  0.8102  0.0124 -0.1194
  784MOL0     C 5726  11.292   0.940  10.578  0.4756 -0.1091  0.6724
  784MOL0     C 5727  11.367   0.872  10.456  0.4624  0.0246  0.3036
  784MOL0     C 5728  11.454   0.967  10.377  0.1032 -0.8656 -0.0358
  784MOL0     O 5729  11.529   0.902  10.271 -0.2442  0.0908  0.5149
  784MOL0     C 5730  11.602   0.981  10.184 -0.2146 -0.1822  1.0826
  784MOL0     C 5731  11.688   0.921  10.088 -0.2134 -0.1401  0.1011
  784MOL0     C 5732  11.760   0.995   9.988 -0.0869 -0.4114 -1.1246
  784MOL0     C 5733  11.730   1.137   9.980 -0.2973  0.4968  0.6730
  784MOL0     C 5734  11.819   1.218   9.893  0.1972  0.6813 -0.2332
  784MOL0     O 5735  11.787   1.352   9.885  0.3794 -0.2484 -0.5028
  784MOL0     C 5736  11.868   1.433   9.806  0.3866  0.2964  0.2618
  784MOL0     C 5737  11.995   1.476   9.848 -0.4699 -0.0285  0.5083
  784MOL0     C 5738  12.071   1.560   9.760  0.2307 -0.5526 -0.7690
  784MOL0     C 5739  12.021   1.604   9.634 -0.1083 -0.7765  0.2805
  784MOL0     O 5740  12.098   1.680   9.545  0.6938  0.3647  0.3400
  784MOL0     C 5741  12.057   1.812   9.553  0.4737  0.0188 -0.4751
  784MOL0     C 5742  12.186   1.897   9.586 -0.5814  0.5387 -0.4247
  784MOL0     C 5743  12.304   1.879   9.490 -0.3137 -0.1407 -0.2568
  784MOL0     C 5744  12.302   1.941   9.350 -0.7751 -0.2619 -0.5928
  784MOL0     C 5745  12.419   1.898   9.266  0.6110  0.2619 -0.5761
  784MOL0     C 5746  12.554   1.961   9.282  0.2308  0.1425 -0.7338
  784MOL0     C 5747  12.649   1.892   9.174 -0.8049 -0.4546  1.1427
  784MOL0     C 5748  12.729   1.984   9.070  0.2153  0.1403  1.3030
  784MOL0    Cl 5749  12.813   2.117   9.157  0.3508 -0.1129  0.3338
  784MOL0     C 5750  11.899   1.552   9.600 -0.3954  0.1941  0.8048
  784MOL0     C 5751  11.819   1.469   9.677 -0.5627 -0.2055 -0.5733
  784MOL0     O 5752  11.905   1.161   9.829 -0.6147 -0.2913  0.4581
  784MOL0     C 5753  11.648   1.193  10.074  0.1529 -0.3711  0.5509
  784MOL0     C 5754  11.587   1.116  10.170 -0.7075  1.0791 -0.0625
  784MOL0     N 5755  11.116   1.237  10.681  0.4149  0.3519 -0.1104
  784MOL0     N 5756  11.065   1.253  10.793 -0.0260 -1.0791 -0.3334
  784MOL0     C 5757   9.939   1.196  11.161  0.8938  0.8476  0.2527
  784MOL0     C 5758   9.809   1.221  11.149  0.6307  0.1104 -0.2792
  784MOL0     C 5759   9.366   1.303  11.190 -0.1669  0.0344  0.4383
  784MOL0     C 5760   9.320   1.204  11.104  0.0410  0.0523 -0.6356
  784MOL0     C 5761   9.189   1.190  11.078  0.0844 -0.0386 -0.1815
  784MOL0     C 5762   9.097   1.285  11.112 -0.1301 -0.0076  0.2799
  784MOL0     O 5763   8.966   1.258  11.091 -0.0589 -0.1401  0.0756
  784MOL0     C 5764   8.863   1.340  11.145  0.6980  0.1571 -0.1650
  784MOL0     C 5765   8.723   1.325  11.082 -0.2217  0.6332  0.4856
  784MOL0     C 5766   8.725   1.367  10.931 -0.4130 -0.3238  0.1131
  784MOL0     C 5767   8.597   1.345  10.851  1.1722 -0.0512 -0.2479
  784MOL0     C 5768   8.594   1.206  10.810  0.1894 -0.2185  0.9501
  784MOL0     C 5769   8.586   1.093  10.751  0.4573 -0.5569 -0.2020
  784MOL0     C 5770   9.145   1.397  11.184 -0.2054  0.3414 -1.1726
  784MOL0     C 5771   9.277   1.407  11.228  0.1118 -0.2827  0.2002
  784MOL0     C 5772   9.311   1.513  11.323 -0.4965 -0.9227  0.0291
  784MOL0     H 5773   9.684   1.104  11.436 -0.8344  0.0984 -0.5695
  784MOL0     H 5774   9.925   1.060  11.468  1.2623  0.9934  0.0397
  784MOL0     H 5775  10.144   1.347  11.356  1.5276  0.2986  0.9296
  784MOL0     H 5776  10.129   1.251  11.490 -0.3406 -0.7023  0.3018
  784MOL0     H 5777  10.360   1.164  11.462 -0.0994  0.8702  1.6528
  784MOL0     H 5778  10.356   1.339  11.458  2.4052 -0.7651  0.6380
  784MOL0     H 5779  10.346   1.332  11.197  0.6367  0.4847  0.2386
  784MOL0     H 5780  10.373   1.163  11.217 -0.1478  0.1378 -0.7391
  784MOL0     H 5781  10.574   1.378  11.273  0.0325 -0.1540  1.2861
  784MOL0     H 5782  10.590   1.216  11.338  0.9232  0.1215  0.1284
  784MOL0     H 5783  10.571   1.117  11.128  1.4479 -0.6282 -0.2729
  784MOL0     H 5784  10.573   1.281  11.040  2.7518  0.8188 -0.6318
  784MOL0     H 5785  10.809   1.294  11.149  3.2928 -0.9463 -1.3362
  784MOL0     H 5786  10.779   1.125  11.193 -3.1731 -1.3003 -0.7210
  784MOL0     H 5787  10.787   1.257  10.914  2.0877  1.0251  0.6953
  784MOL0     H 5788  10.737   1.093  10.926  0.2874 -0.1322  0.1758
  784MOL0     H 5789  11.000   1.157  11.045 -1.1612 -0.8426  1.1607
  784MOL0     H 5790  10.925   1.010  10.959 -1.1241  0.2055 -1.0547
  784MOL0     H 5791  11.010   0.933  10.745 -1.6553 -0.5076 -1.6815
  784MOL0     H 5792  11.117   1.011  10.453  0.2859  1.3218 -0.2176
  784MOL0     H 5793  11.243   1.114  10.462 -1.1546  1.0889 -0.6702
  784MOL0     H 5794  11.362   0.991  10.644  1.3423 -0.2844 -0.1065
  784MOL0     H 5795  11.251   0.856  10.635  1.5485 -2.7627 -2.1713
  784MOL0     H 5796  11.301   0.827  10.382  1.7532  2.4298 -2.4903
  784MOL0     H 5797  11.444   0.803  10.491 -0.3110 -2.2790 -2.1863
  784MOL0     H 5798  11.520   1.028  10.438 -0.4116  0.3799 -0.6952
  784MOL0     H 5799  11.385   1.036  10.328  2.9420  1.7872 -0.5838
  784MOL0     H 5800  11.696   0.813  10.085 -1.4389 -0.2794  1.1775
  784MOL0     H 5801  11.827   0.942   9.922  0.9782  0.1035 -0.4864
  784MOL0     H 5802  12.039   1.457   9.945 -0.7205  0.1824  0.6655
  784MOL0     H 5803  12.166   1.600   9.794  0.3311  0.0593 -1.7311
  784MOL0     H 5804  12.016   1.851   9.459 -3.9501  1.1203  1.6671
  784MOL0     H 5805  11.990   1.846   9.632  2.5021  4.3632 -0.3414
  784MOL0     H 5806  12.158   2.002   9.586  0.0475  0.7330 -2.1889
  784MOL0     H 5807  12.220   1.861   9.684 -0.5744 -3.0502 -1.5911
  784MOL0     H 5808  12.389   1.921   9.545 -0.2886  0.3732 -0.6778
  784MOL0     H 5809  12.335   1.775   9.488 -0.0687 -0.0527 -1.8147
  784MOL0     H 5810  12.307   2.051   9.355  1.5340 -0.2910 -1.0450
  784MOL0     H 5811  12.211   1.909   9.300 -1.9994  0.3676  1.1232
  784MOL0     H 5812  12.384   1.920   9.164 -0.0537 -1.8482 -0.8501
  784MOL0     H 5813  12.441   1.791   9.266  1.4601  0.3775 -2.9525
  784MOL0     H 5814  12.560   2.070   9.275 -4.9709  0.7146 -0.4740
  784MOL0     H 5815  12.599   1.931   9.377 -2.6221 -1.3428  0.2800
  784MOL0     H 5816  12.596   1.809   9.125 -2.1364 -0.2462  2.1665
  784MOL0     H 5817  12.728   1.848   9.235 -0.6607 -1.3686  0.3305
  784MOL0     H 5818  12.800   1.921   9.015 -0.7494  0.7176 -0.6895
  784MOL0     H 5819  12.664   2.021   8.991 -0.6012 -2.1116  0.8623
  784MOL0     H 5820  11.873   1.584   9.499 -4.9308 -0.8830  1.3903
  784MOL0     H 5821  11.718   1.436   9.654 -0.8409 -2.1666  2.7791
  784MOL0     H 5822  11.623   1.297  10.089 -3.7097 -0.9072 -0.9424
  784MOL0     H 5823  11.518   1.171  10.234 -0.7927  0.5072  0.3375
  784MOL0     H 5824  10.008   1.240  11.089  1.7307 -0.8823 -0.0356
  784MOL0     H 5825   9.772   1.252  11.051 -0.4492  0.4835  0.2290
  784MOL0     H 5826   9.389   1.124  11.080 -0.2628 -1.8007  3.8273
  784MOL0     H 5827   9.160   1.107  11.014  1.1041 -1.1593  0.7566
  784MOL0     H 5828   8.906   1.441  11.140 -0.6325  0.7183 -0.7677
  784MOL0     H 5829   8.854   1.314  11.251 -0.3806  1.9020  0.2231
  784MOL0     H 5830   8.649   1.385  11.136 -0.5107  1.2714 -0.5805
  784MOL0     H 5831   8.693   1.225  11.117  1.5927  1.6040  5.7021
  784MOL0     H 5832   8.808   1.314  10.883  1.0322  2.0405 -0.1361
  784MOL0     H 5833   8.755   1.472  10.930 -0.3373 -0.3469 -0.2588
  784MOL0     H 5834   8.505   1.366  10.908 -0.6482 -6.2298 -0.1951
  784MOL0     H 5835   8.585   1.414  10.767 -0.6216 -1.6482 -1.3841
  784MOL0     H 5836   8.585   1.000  10.698 -0.2690  0.1371 -1.4213
  784MOL0     H 5837   9.083   1.480  11.214  0.2557 -0.0473  1.0471
  784MOL0     H 5838   9.391   1.576  11.285  1.1619 -1.5002  2.3432
  784MOL0     H 5839   9.221   1.571  11.348 -2.3910 -2.3657 -2.8022
  784MOL0     H 5840   9.351   1.462  11.411  0.0354 -0.1045  0.2664
  785MOL0     O 5841   6.500   2.046   1.552 -0.5780 -0.3293 -0.2467
  785MOL0     C 5842   6.575   2.143   1.575 -0.3462  0.7973 -0.1157
  785MOL0     O 5843   6.538   2.267   1.632 -0.0777  0.9093 -0.3394
  785MOL0     C 5844   6.408   2.281   1.670  0.0131 -0.4940 -0.9381
  785MOL0     C 5845   6.386   2.335   1.802 -0.4263 -1.1698 -0.0366
  785MOL0     C 5846   6.260   2.368   1.847  0.3023 -0.1302  0.5172
  785MOL0     C 5847   6.150   2.359   1.763 -0.2241  0.3414  0.3284
  785MOL0     O 5848   6.031   2.402   1.813  1.0644  0.7628 -0.2905
  785MOL0     C 5849   5.985   2.310   1.911  0.0054 -0.7979 -0.1304
  785MOL0     C 5850   5.845   2.336   1.942 -0.7416 -0.1940 -0.7656
  785MOL0     C 5851   5.749   2.311   1.819 -1.6485  1.0224 -0.5084
  785MOL0     C 5852   5.597   2.325   1.858 -0.3899 -0.4032  0.0986
  785MOL0     C 5853   5.500   2.322   1.733 -0.4975  0.7615  0.7366
  785MOL0     C 5854   5.478   2.176   1.694  0.4863  0.5800  0.6139
  785MOL0     C 5855   5.407   2.153   1.562 -0.3818  0.5012 -0.0557
  785MOL0     C 5856   5.470   2.201   1.429 -0.4745  0.7651 -0.2937
  785MOL0     N 5857   5.618   2.174   1.423 -0.7070 -1.2408 -0.8969
  785MOL0     C 5858   5.682   2.053   1.455  0.5715 -0.5747 -0.3383
  785MOL0     C 5859   5.814   2.093   1.469  0.3054 -0.1294 -1.2335
  785MOL0     C 5860   5.921   1.994   1.497  0.0409 -0.2883  0.0856
  785MOL0     C 5861   5.946   2.003   1.650  0.4227  0.6478  0.1653
  785MOL0     C 5862   6.056   1.903   1.695  0.5625 -0.0543 -0.2528
  785MOL0     C 5863   6.192   1.927   1.648 -0.5020 -0.5655 -0.2647
  785MOL0     O 5864   6.276   1.814   1.683  0.7589  0.0938 -0.2503
  785MOL0     C 5865   6.372   1.815   1.784  0.9676  0.2423 -0.0243
  785MOL0     C 5866   6.385   1.914   1.881 -0.2694 -0.9042  0.1290
  785MOL0     C 5867   6.473   1.895   1.989 -0.5696  0.1721  0.2601
  785MOL0     C 5868   6.550   1.781   1.989 -0.1451  0.4201  0.2657
  785MOL0     C 5869   6.651   1.750   2.095 -0.1260  0.2033  0.0488
  785MOL0     O 5870   6.763   1.680   2.044 -0.4796 -0.2842  1.0212
  785MOL0     C 5871   6.865   1.638   2.127  0.3158 -0.6526 -0.8860
  785MOL0     C 5872   6.902   1.500   2.120  0.1838 -0.8176  0.9401
  785MOL0     C 5873   7.007   1.447   2.196  0.4832 -0.1282 -0.1462
  785MOL0     C 5874   7.073   1.536   2.289 -0.8106  0.4036 -0.0104
  785MOL0     O 5875   7.173   1.498   2.368  0.1105 -0.2379 -0.3062
  785MOL0     C 5876   7.236   1.370   2.352  0.6542  0.2918 -0.4927
  785MOL0     C 5877   7.351   1.366   2.450 -0.4630  0.4712  0.8711
  785MOL0     C 5878   7.400   1.221   2.457 -0.2663  0.2713  0.6529
  785MOL0     C 5879   7.495   1.183   2.567 -0.4619 -0.5263 -0.5038
  785MOL0     C 5880   7.547   1.047   2.570 -0.5746  0.8684  0.2938
  785MOL0     C 5881   7.628   0.988   2.447  0.1230 -0.6932  0.0069
  785MOL0     C 5882   7.566   0.870   2.366  0.9058  0.4717  1.0952
  785MOL0     C 5883   7.518   0.741   2.436  0.1840  0.0718 -0.8067
  785MOL0    Cl 5884   7.635   0.695   2.558  0.3833 -0.0234 -0.0761
  785MOL0     C 5885   7.024   1.669   2.297  0.1731  0.4960  0.1912
  785MOL0     C 5886   6.933   1.721   2.214 -0.4414  0.1324  0.3256
  785MOL0     O 5887   6.646   1.803   2.206 -0.4450 -0.9069 -0.5686
  785MOL0     C 5888   6.529   1.680   1.889  0.6394  0.3709 -1.3559
  785MOL0     C 5889   6.440   1.701   1.789 -0.5358  0.2681 -0.2044
  785MOL0     N 5890   5.823   2.228   1.454 -0.2788  0.0313  0.0425
  785MOL0     N 5891   5.710   2.276   1.434 -0.1937  0.2409 -0.6937
  785MOL0     C 5892   6.164   2.320   1.628  0.0045  0.5891 -0.2112
  785MOL0     C 5893   6.290   2.276   1.594  0.1517  1.3775 -0.7450
  785MOL0     C 5894   6.722   2.113   1.542 -0.3103 -0.9816 -0.0206
  785MOL0     C 5895   6.796   2.210   1.466  0.5247 -0.7731 -0.0416
  785MOL0     C 5896   6.930   2.187   1.432  0.3610 -0.6387  0.5563
  785MOL0     C 5897   6.996   2.077   1.471  0.1859 -0.9709  0.2409
  785MOL0     O 5898   7.128   2.057   1.430  0.2552  0.2628 -0.6853
  785MOL0     C 5899   7.137   1.934   1.355  0.6638 -0.0707  0.3002
  785MOL0     C 5900   7.275   1.878   1.346  0.9675  0.2605 -0.5904
  785MOL0     C 5901   7.285   1.759   1.255  0.1173  0.3894 -0.8190
  785MOL0     C 5902   7.253   1.792   1.104 -1.2729  1.4154  0.2943
  785MOL0     C 5903   7.269   1.665   1.022  0.1940 -0.0220  0.4731
  785MOL0     C 5904   7.296   1.560   0.967  0.5172  0.3495  0.1383
  785MOL0     C 5905   6.921   1.983   1.550  0.4732  0.5665  0.3497
  785MOL0     C 5906   6.785   1.997   1.584  0.3567 -0.6310  0.3908
  785MOL0     C 5907   6.724   1.885   1.659 -0.0980 -0.2168  0.3184
  785MOL0     H 5908   6.469   2.332   1.872  1.9453  0.7314 -2.5526
  785MOL0     H 5909   6.246   2.409   1.946  0.0562 -1.1305  0.9091
  785MOL0     H 5910   6.008   2.206   1.885  3.4971 -0.7277  1.9693
  785MOL0     H 5911   6.045   2.344   1.996 -0.3402  2.9289 -1.2095
  785MOL0     H 5912   5.820   2.437   1.974 -1.4933 -0.8341  0.7905
  785MOL0     H 5913   5.817   2.265   2.021  0.2648  0.6334  0.3687
  785MOL0     H 5914   5.764   2.213   1.772  0.0004  1.4514 -0.9395
  785MOL0     H 5915   5.765   2.390   1.745 -2.9383 -0.0088 -1.9410
  785MOL0     H 5916   5.579   2.236   1.919  3.8163 -3.6526 -2.7807
  785MOL0     H 5917   5.580   2.414   1.918 -3.0807 -0.2431 -0.7300
  785MOL0     H 5918   5.397   2.355   1.752 -0.7163  1.2615 -1.1607
  785MOL0     H 5919   5.550   2.379   1.655 -0.2006  1.7743  1.6393
  785MOL0     H 5920   5.573   2.121   1.692  0.3288  0.2194  1.9298
  785MOL0     H 5921   5.417   2.120   1.765 -2.4430  0.2562 -1.9572
  785MOL0     H 5922   5.304   2.191   1.570 -1.7933 -3.1797  1.6384
  785MOL0     H 5923   5.398   2.044   1.553 -4.5229  0.4849  1.7769
  785MOL0     H 5924   5.431   2.142   1.345  0.5605 -0.0185 -0.2495
  785MOL0     H 5925   5.438   2.302   1.402 -1.8027 -0.0112 -1.8663
  785MOL0     H 5926   5.643   1.952   1.453  0.6467 -0.6226 -2.8582
  785MOL0     H 5927   5.883   1.895   1.469 -0.1787  0.1614 -1.2762
  785MOL0     H 5928   6.015   2.019   1.446 -0.5190  2.1597  0.1316
  785MOL0     H 5929   5.974   2.102   1.689  0.6071 -0.2818  2.5398
  785MOL0     H 5930   5.852   1.979   1.700  0.7363 -0.3355  0.3054
  785MOL0     H 5931   6.035   1.801   1.663 -3.6495  0.7071 -0.4579
  785MOL0     H 5932   6.056   1.893   1.804 -2.5993 -0.1836 -0.1640
  785MOL0     H 5933   6.221   2.023   1.692  0.1832 -1.3888  1.1639
  785MOL0     H 5934   6.192   1.941   1.539 -1.4640 -0.0052 -0.2036
  785MOL0     H 5935   6.334   2.010   1.884 -0.4872 -1.0477  2.9060
  785MOL0     H 5936   6.471   1.966   2.071 -1.5175 -0.5856  0.9242
  785MOL0     H 5937   6.858   1.436   2.044  1.1502  2.9083 -3.1665
  785MOL0     H 5938   7.042   1.344   2.195 -0.0555 -0.3191 -1.4924
  785MOL0     H 5939   7.179   1.280   2.373  0.0627  0.4736 -1.2893
  785MOL0     H 5940   7.273   1.375   2.249 -0.2923  2.7131 -0.7984
  785MOL0     H 5941   7.425   1.439   2.417 -0.7117  0.1458 -0.5110
  785MOL0     H 5942   7.316   1.396   2.549  0.6317  0.5847  1.2397
  785MOL0     H 5943   7.311   1.158   2.472 -0.7616  0.9462  0.6047
  785MOL0     H 5944   7.434   1.190   2.358 -1.7319 -0.7159  0.4154
  785MOL0     H 5945   7.450   1.203   2.664  2.0799  2.7751  0.2057
  785MOL0     H 5946   7.576   1.258   2.571  0.6666 -1.7252 -0.2130
  785MOL0     H 5947   7.457   0.986   2.588  1.7117 -2.5285  1.3074
  785MOL0     H 5948   7.606   1.043   2.662  0.7438 -0.5426 -0.5691
  785MOL0     H 5949   7.660   1.071   2.384  1.2919 -0.7416  0.5214
  785MOL0     H 5950   7.725   0.955   2.482  1.5462  3.6976  0.8490
  785MOL0     H 5951   7.628   0.833   2.284 -0.8550 -0.4873  0.1247
  785MOL0     H 5952   7.480   0.908   2.309  2.4388 -0.1696 -1.8510
  785MOL0     H 5953   7.420   0.757   2.482  0.8352 -0.2695  0.7627
  785MOL0     H 5954   7.503   0.658   2.366  1.2136 -0.6218 -0.2220
  785MOL0     H 5955   7.091   1.723   2.363  1.4219 -2.6436  1.6624
  785MOL0     H 5956   6.924   1.829   2.212  1.8819  0.3654 -1.6242
  785MOL0     H 5957   6.573   1.582   1.905 -0.2810  0.2094  0.4614
  785MOL0     H 5958   6.425   1.634   1.705 -0.7188 -0.0524  0.0862
  785MOL0     H 5959   6.084   2.328   1.554  0.2437  0.7021 -0.4587
  785MOL0     H 5960   6.300   2.237   1.493 -2.5387  1.7951 -1.2485
  785MOL0     H 5961   6.755   2.309   1.447 -0.7280 -1.7627 -3.0907
  785MOL0     H 5962   6.981   2.271   1.385  0.3472 -2.1909 -2.5468
  785MOL0     H 5963   7.113   1.963   1.252 -0.3085 -0.7929  0.3146
  785MOL0     H 5964   7.065   1.855   1.380 -1.2581  0.9345 -1.6294
  785MOL0     H 5965   7.290   1.862   1.453 -4.8334 -0.4177  0.4104
  785MOL0     H 5966   7.333   1.964   1.310 -0.3296  1.5236  0.2299
  785MOL0     H 5967   7.205   1.695   1.293  1.2492  0.9768  3.0082
  785MOL0     H 5968   7.380   1.704   1.259  0.7202  1.4336 -0.2639
  785MOL0     H 5969   7.147   1.820   1.106 -1.5213  0.5384 -0.0715
  785MOL0     H 5970   7.319   1.869   1.064  0.8114 -0.1105  0.6230
  785MOL0     H 5971   7.320   1.462   0.932 -0.8405 -0.9348  2.4879
  785MOL0     H 5972   6.979   1.893   1.564 -0.1782  0.0845  0.0547
  785MOL0     H 5973   6.672   1.815   1.593  4.1532 -1.4592 -2.0474
  785MOL0     H 5974   6.802   1.834   1.716  3.4595  2.7463 -1.4804
  785MOL0     H 5975   6.650   1.917   1.733  0.4170 -1.6129  1.4704
  786MOL0     O 5976   0.451   5.965   8.357 -0.2333  0.0832  0.1651
  786MOL0     C 5977   0.431   6.029   8.460  0.5458  0.3776 -0.2340
  786MOL0     O 5978   0.330   6.010   8.547 -0.2991  0.2084 -0.5340
  786MOL0     C 5979   0.252   5.903   8.537  0.5929 -0.3363  0.2838
  786MOL0     C 5980   0.120   5.924   8.490 -0.7387 -0.2269 -0.6054
  786MOL0     C 5981   0.031   5.822   8.463 -0.5629 -0.2792 -0.2104
  786MOL0     C 5982   0.072   5.694   8.490  0.0743  0.3064 -0.1225
  786MOL0     O 5983  -0.023   5.590   8.455  0.0883  0.3372 -0.3394
  786MOL0     C 5984  -0.016   5.454   8.502  1.4510  1.1141 -0.3689
  786MOL0     C 5985  -0.164   5.399   8.513  0.3128  0.2445  0.1324
  786MOL0     C 5986  -0.239   5.412   8.382  0.1077 -0.1593  0.0825
  786MOL0     C 5987  -0.378   5.337   8.379 -0.2048 -0.0144 -0.1836
  786MOL0     C 5988  -0.448   5.327   8.245 -0.6018 -0.5584  0.0028
  786MOL0     C 5989  -0.603   5.289   8.260 -0.7554  0.2444  0.4566
  786MOL0     C 5990  -0.646   5.221   8.129 -0.5674 -0.0257 -0.9748
  786MOL0     C 5991  -0.640   5.307   8.002  0.1426 -0.3759  0.3451
  786MOL0     N 5992  -0.500   5.343   7.956  0.9149  1.3743  0.2542
  786MOL0     C 5993  -0.397   5.267   7.928  0.4752 -0.2507  0.7267
  786MOL0     C 5994  -0.296   5.348   7.885 -0.8586 -0.6903 -0.0210
  786MOL0     C 5995  -0.159   5.298   7.864 -0.1319 -0.1753  0.2747
  786MOL0     C 5996  -0.046   5.414   7.890 -0.1204  0.2134 -0.0714
  786MOL0     C 5997  -0.036   5.483   8.026 -0.3756 -0.3446  0.4032
  786MOL0     C 5998   0.109   5.473   8.094  0.4669 -0.2812 -0.0628
  786MOL0     O 5999   0.193   5.531   7.995  0.0051 -0.0223  1.0486
  786MOL0     C 6000   0.221   5.668   8.012  0.3273  0.1604 -0.4045
  786MOL0     C 6001   0.141   5.762   8.082  0.5216  0.4034 -0.7025
  786MOL0     C 6002   0.177   5.899   8.103 -0.0774  0.0920 -0.8485
  786MOL0     C 6003   0.285   5.947   8.028 -0.4816  0.3381  0.0269
  786MOL0     C 6004   0.327   6.086   8.038  0.7824 -0.3788 -0.0884
  786MOL0     O 6005   0.458   6.116   7.992  0.4204  0.6002 -0.1439
  786MOL0     C 6006   0.494   6.247   7.993 -0.0646 -0.7111  0.1650
  786MOL0     C 6007   0.521   6.327   8.102  0.2536  0.1038  0.0767
  786MOL0     C 6008   0.537   6.467   8.084 -0.4018 -0.1538 -0.1226
  786MOL0     C 6009   0.545   6.528   7.960  0.6611 -0.6685  0.3421
  786MOL0     O 6010   0.554   6.665   7.956  0.3125  0.2042  0.0166
  786MOL0     C 6011   0.607   6.717   7.837 -0.3742  0.0556  0.3693
  786MOL0     C 6012   0.758   6.705   7.846 -0.7046  0.3017  0.4513
  786MOL0     C 6013   0.827   6.741   7.974 -0.4203 -0.0948 -0.0153
  786MOL0     C 6014   0.967   6.780   7.951 -0.0437 -0.2326  0.2473
  786MOL0     C 6015   1.055   6.664   7.906  0.3985 -0.3415  0.0351
  786MOL0     C 6016   1.193   6.716   7.896 -0.8656  0.3446 -0.4909
  786MOL0     C 6017   1.300   6.622   7.871 -0.6113 -0.2196  0.3551
  786MOL0     C 6018   1.438   6.678   7.871  0.2921 -0.7579 -0.5439
  786MOL0    Cl 6019   1.560   6.593   7.784  0.4629  0.3703  0.1143
  786MOL0     C 6020   0.538   6.451   7.845 -0.0658 -0.0349  0.6015
  786MOL0     C 6021   0.510   6.312   7.865  0.4104  0.1049  0.7088
  786MOL0     O 6022   0.243   6.158   8.095  0.2235  0.7791  0.2083
  786MOL0     C 6023   0.348   5.860   7.936 -0.3280 -0.1006 -0.0309
  786MOL0     C 6024   0.321   5.724   7.934  0.0999  0.7006 -0.4204
  786MOL0     N 6025  -0.349   5.477   7.889 -0.3392  0.6090 -0.5494
  786MOL0     N 6026  -0.466   5.474   7.936  1.1269 -0.1020  0.2044
  786MOL0     C 6027   0.195   5.664   8.545 -0.0850 -0.4642  0.3379
  786MOL0     C 6028   0.285   5.771   8.591  0.2475  0.2822 -0.4264
  786MOL0     C 6029   0.515   6.155   8.471  0.9231 -0.8318 -0.1450
  786MOL0     C 6030   0.651   6.142   8.448  0.5137 -1.1264  0.6191
  786MOL0     C 6031   0.730   6.251   8.471 -0.0478  0.1817  0.9053
  786MOL0     C 6032   0.680   6.380   8.508 -0.2460 -0.8328  0.6296
  786MOL0     O 6033   0.748   6.490   8.541 -0.3753 -0.1095  0.2948
  786MOL0     C 6034   0.881   6.462   8.597 -0.1457 -0.4868 -0.1428
  786MOL0     C 6035   0.930   6.586   8.672 -0.8419 -0.1127  0.5245
  786MOL0     C 6036   1.066   6.569   8.730  0.9909 -0.2842 -0.6100
  786MOL0     C 6037   1.179   6.591   8.644  0.2378 -0.3022  0.2680
  786MOL0     C 6038   1.306   6.558   8.714 -0.5864  0.0086  0.4588
  786MOL0     C 6039   1.411   6.517   8.767 -1.0079 -1.0639  0.2459
  786MOL0     C 6040   0.541   6.387   8.533 -0.4426 -0.0396 -0.3020
  786MOL0     C 6041   0.456   6.276   8.518 -0.4026  0.8248 -0.0954
  786MOL0     C 6042   0.309   6.294   8.542  0.1808  0.3375  0.2548
  786MOL0     H 6043   0.096   6.029   8.473  0.6939 -0.2489 -3.4169
  786MOL0     H 6044  -0.063   5.840   8.411 -0.2757  5.6113  0.5397
  786MOL0     H 6045   0.047   5.388   8.442  0.9811 -0.7450  1.0706
  786MOL0     H 6046   0.015   5.441   8.606 -1.9334  0.5287  0.7061
  786MOL0     H 6047  -0.220   5.461   8.585 -2.0145  0.0880 -1.4304
  786MOL0     H 6048  -0.165   5.296   8.549 -0.9153 -0.5271 -1.9429
  786MOL0     H 6049  -0.182   5.365   8.301 -3.7487 -1.6405 -1.9933
  786MOL0     H 6050  -0.259   5.517   8.356  0.0892 -0.2366 -0.2198
  786MOL0     H 6051  -0.362   5.236   8.416  4.4699 -0.2719 -2.2009
  786MOL0     H 6052  -0.449   5.387   8.446 -1.1152 -1.1819 -0.2476
  786MOL0     H 6053  -0.439   5.418   8.184  2.9809 -0.6690  0.1896
  786MOL0     H 6054  -0.397   5.253   8.183 -0.7505 -0.2317 -0.5139
  786MOL0     H 6055  -0.620   5.224   8.346  0.1923  0.6586  0.9767
  786MOL0     H 6056  -0.665   5.377   8.278  0.1284  0.7646  1.0730
  786MOL0     H 6057  -0.748   5.180   8.131 -0.2082 -0.9009  0.3242
  786MOL0     H 6058  -0.589   5.133   8.101 -1.2276 -0.5012 -0.8538
  786MOL0     H 6059  -0.686   5.253   7.919 -1.2467 -0.4832  1.1638
  786MOL0     H 6060  -0.697   5.400   8.010 -0.1366 -0.4869 -0.2502
  786MOL0     H 6061  -0.388   5.160   7.944 -2.2638 -0.7100 -0.1740
  786MOL0     H 6062  -0.144   5.222   7.941 -0.0415  0.9943  1.4524
  786MOL0     H 6063  -0.165   5.255   7.764 -0.2546  2.3651 -0.8714
  786MOL0     H 6064   0.048   5.370   7.855 -2.2852 -3.0201 -2.4211
  786MOL0     H 6065  -0.070   5.499   7.825  1.1432 -0.5247 -1.5693
  786MOL0     H 6066  -0.117   5.472   8.099 -0.1033  1.0048  0.9412
  786MOL0     H 6067  -0.050   5.589   8.003  0.6519 -0.1226  0.7634
  786MOL0     H 6068   0.132   5.366   8.101 -0.8068 -0.5003  1.1403
  786MOL0     H 6069   0.110   5.520   8.193  0.6723  1.8710 -1.0493
  786MOL0     H 6070   0.067   5.736   8.157  1.0645  2.3535  0.5878
  786MOL0     H 6071   0.119   5.956   8.175 -1.6658  0.5022 -2.3822
  786MOL0     H 6072   0.510   6.275   8.196 -0.4580 -0.0673 -0.0939
  786MOL0     H 6073   0.547   6.522   8.176 -0.0266 -1.7904  0.8611
  786MOL0     H 6074   0.571   6.688   7.738  0.4904 -0.8919  0.3043
  786MOL0     H 6075   0.580   6.822   7.833  1.3503  0.6643  2.4507
  786MOL0     H 6076   0.790   6.605   7.813 -0.0175  0.6166  0.1295
  786MOL0     H 6077   0.805   6.769   7.770  2.1523  0.3189  2.0669
  786MOL0     H 6078   0.769   6.818   8.026  0.2912  1.9510 -2.0860
  786MOL0     H 6079   0.823   6.659   8.046 -0.1156  0.3275  0.5016
  786MOL0     H 6080   0.999   6.834   8.041  0.5119  1.7643 -1.0717
  786MOL0     H 6081   0.975   6.854   7.870 -1.9198  0.3507  0.5358
  786MOL0     H 6082   1.027   6.635   7.804  0.8557 -0.9650  0.0794
  786MOL0     H 6083   1.052   6.577   7.972  1.2201 -0.4670 -0.0776
  786MOL0     H 6084   1.202   6.799   7.824 -0.5406 -0.3138 -1.2216
  786MOL0     H 6085   1.222   6.757   7.993 -3.6103  0.4519  0.3756
  786MOL0     H 6086   1.285   6.573   7.774  0.0063  0.5739 -0.1526
  786MOL0     H 6087   1.292   6.547   7.950 -1.5825  0.3200  0.7780
  786MOL0     H 6088   1.436   6.777   7.824  0.5690 -0.6017 -0.2280
  786MOL0     H 6089   1.478   6.676   7.973 -0.3865 -1.0283 -0.2797
  786MOL0     H 6090   0.540   6.494   7.745 -0.0760 -1.1058  0.1325
  786MOL0     H 6091   0.479   6.263   7.773  0.4795 -3.0045  2.2337
  786MOL0     H 6092   0.421   5.901   7.868  1.4113  2.8705  3.2736
  786MOL0     H 6093   0.384   5.651   7.882 -0.9679  1.0391 -2.3028
  786MOL0     H 6094   0.210   5.559   8.564 -3.2971 -0.8643  1.0588
  786MOL0     H 6095   0.376   5.743   8.641  0.8035 -2.3806 -2.6873
  786MOL0     H 6096   0.691   6.053   8.401  0.9854 -0.2551 -0.6951
  786MOL0     H 6097   0.835   6.241   8.443 -0.2876  2.2218 -1.0150
  786MOL0     H 6098   0.954   6.437   8.519  0.5319  0.9716 -0.0192
  786MOL0     H 6099   0.864   6.382   8.670 -1.0541 -1.7318 -1.6620
  786MOL0     H 6100   0.855   6.609   8.749 -0.4255 -0.8895  1.1759
  786MOL0     H 6101   0.943   6.672   8.606  3.7834 -1.6338 -0.9046
  786MOL0     H 6102   1.066   6.471   8.778  0.3628 -0.1988 -0.4232
  786MOL0     H 6103   1.076   6.635   8.816 -0.2639 -3.1881  1.9487
  786MOL0     H 6104   1.180   6.519   8.562 -0.6240 -1.1242  0.9694
  786MOL0     H 6105   1.189   6.697   8.616  0.9457  0.1759  2.1709
  786MOL0     H 6106   1.493   6.467   8.815 -1.2806 -0.0078  1.8740
  786MOL0     H 6107   0.528   6.491   8.561 -0.1051 -0.1454  0.2623
  786MOL0     H 6108   0.278   6.397   8.522  3.4671  2.3732  4.3476
  786MOL0     H 6109   0.256   6.231   8.469  0.2450 -0.6720  1.0486
  786MOL0     H 6110   0.283   6.273   8.646  0.5743 -1.0685  0.0939
  787MOL0     O 6111   4.915   1.161   4.842 -0.0976  0.8581  0.0461
  787MOL0     C 6112   4.885   1.190   4.732  0.7613 -1.0122 -0.3156
  787MOL0     O 6113   4.958   1.262   4.645 -0.8188  0.5057  0.0557
  787MOL0     C 6114   5.078   1.313   4.690 -0.7464 -0.2158 -1.0353
  787MOL0     C 6115   5.200   1.303   4.616  0.3239  0.0152  0.0340
  787MOL0     C 6116   5.321   1.368   4.651  0.4589  0.4581  0.7482
  787MOL0     C 6117   5.329   1.442   4.770 -0.3951 -0.2624  0.2632
  787MOL0     O 6118   5.435   1.507   4.830 -0.5472 -0.1608  0.2990
  787MOL0     C 6119   5.525   1.579   4.750 -0.5928  0.4241  0.6562
  787MOL0     C 6120   5.637   1.659   4.815  0.0424 -0.3408  0.3465
  787MOL0     C 6121   5.579   1.788   4.884 -0.5588  0.3666 -0.1577
  787MOL0     C 6122   5.676   1.872   4.966  0.1079  0.3369  0.2811
  787MOL0     C 6123   5.792   1.940   4.885  0.6429 -0.8059  0.3264
  787MOL0     C 6124   5.880   2.023   4.965  0.2488  0.6621 -0.5620
  787MOL0     C 6125   6.001   2.061   4.892 -0.6302  0.0508  0.8318
  787MOL0     C 6126   6.093   2.158   4.981 -1.3120 -0.5671  0.5387
  787MOL0     N 6127   6.236   2.159   4.952 -0.4392  0.3111  0.6524
  787MOL0     C 6128   6.338   2.078   5.015  0.9379 -0.4375 -0.3334
  787MOL0     C 6129   6.450   2.124   4.961  0.5026 -0.5006 -0.6095
  787MOL0     C 6130   6.584   2.078   4.999  0.4038 -0.2816 -0.4653
  787MOL0     C 6131   6.612   1.940   4.964 -0.5025 -0.2548 -0.2267
  787MOL0     C 6132   6.750   1.885   5.006  0.6772  0.0073  0.0777
  787MOL0     C 6133   6.862   1.945   4.922 -0.5092 -0.9363  0.9696
  787MOL0     O 6134   6.975   1.949   5.003  0.0131 -0.5592  0.3422
  787MOL0     C 6135   7.097   1.967   4.942 -0.1138  1.7161  0.1194
  787MOL0     C 6136   7.206   1.942   5.026  0.1411  0.6071  0.6375
  787MOL0     C 6137   7.338   1.986   4.984  0.0482  0.2705  0.1901
  787MOL0     C 6138   7.359   2.049   4.852 -0.6221  0.4024  0.5495
  787MOL0     C 6139   7.488   2.117   4.802  0.1906 -0.8607  0.1808
  787MOL0     O 6140   7.579   2.121   4.899 -0.3917 -0.6402  0.8544
  787MOL0     C 6141   7.711   2.141   4.867 -0.0540 -1.6017  0.4997
  787MOL0     C 6142   7.781   2.081   4.764 -0.6230  0.0368  0.1882
  787MOL0     C 6143   7.919   2.104   4.748 -0.2711  0.2005 -0.1455
  787MOL0     C 6144   7.993   2.180   4.847 -0.1496 -0.4445 -0.0684
  787MOL0     O 6145   8.130   2.210   4.839 -0.3523 -0.7332 -0.1491
  787MOL0     C 6146   8.201   2.172   4.722 -0.8886  0.6887  1.5518
  787MOL0     C 6147   8.331   2.252   4.742 -0.2750 -0.6157 -0.6743
  787MOL0     C 6148   8.411   2.227   4.872  0.2690  0.0061  0.1602
  787MOL0     C 6149   8.547   2.297   4.860  0.2017  0.2869  0.1386
  787MOL0     C 6150   8.637   2.242   4.974  0.2386  0.2401  0.3955
  787MOL0     C 6151   8.769   2.310   4.968 -0.1010 -0.9939 -0.9543
  787MOL0     C 6152   8.858   2.309   5.101 -0.1945  0.7817  0.8706
  787MOL0     C 6153   8.995   2.376   5.087  1.1368 -0.1286  0.4065
  787MOL0    Cl 6154   9.075   2.319   4.940  0.1408 -0.0770  0.3991
  787MOL0     C 6155   7.925   2.235   4.949  1.0546 -0.4393 -1.0414
  787MOL0     C 6156   7.786   2.219   4.963  0.2907  0.5508 -0.6537
  787MOL0     O 6157   7.498   2.162   4.690 -0.3559  0.2853  0.8542
  787MOL0     C 6158   7.239   2.071   4.775 -0.1284 -0.8325  0.0175
  787MOL0     C 6159   7.114   2.031   4.821 -0.5066 -0.4359 -0.5037
  787MOL0     N 6160   6.420   2.225   4.867  0.2354  0.1548  0.2506
  787MOL0     N 6161   6.293   2.239   4.862  0.5357 -1.0377  0.5320
  787MOL0     C 6162   5.216   1.444   4.846  0.4731  0.9518  0.5733
  787MOL0     C 6163   5.094   1.381   4.807 -0.6958 -0.7830  0.6107
  787MOL0     C 6164   4.752   1.145   4.689  0.2469 -0.6473 -0.7633
  787MOL0     C 6165   4.699   1.030   4.754 -0.4440 -0.4315  0.1769
  787MOL0     C 6166   4.569   0.991   4.727 -0.4049  0.6171 -0.8882
  787MOL0     C 6167   4.481   1.059   4.637  0.2399  0.0730 -0.7223
  787MOL0     O 6168   4.355   1.000   4.629 -0.3300 -0.3380  0.2288
  787MOL0     C 6169   4.288   1.014   4.503 -1.1204  0.6888  0.1617
  787MOL0     C 6170   4.156   0.942   4.527 -0.2243  0.0202 -0.7053
  787MOL0     C 6171   4.163   0.805   4.600  0.8904 -0.4456  0.3619
  787MOL0     C 6172   4.019   0.747   4.609 -0.4699 -0.1539 -0.3296
  787MOL0     C 6173   4.011   0.616   4.659  0.1322  0.0899  0.3456
  787MOL0     C 6174   3.993   0.502   4.691  0.0036 -0.3006 -0.1834
  787MOL0     C 6175   4.541   1.163   4.566 -0.1651 -0.8369  1.2952
  787MOL0     C 6176   4.670   1.215   4.596 -0.1129 -0.7597 -0.5088
  787MOL0     C 6177   4.711   1.333   4.508  0.0291 -0.7439  0.0007
  787MOL0     H 6178   5.194   1.243   4.525  4.6528  0.4758 -0.7809
  787MOL0     H 6179   5.409   1.369   4.588  2.0895  0.5281  2.9117
  787MOL0     H 6180   5.579   1.511   4.684  0.3976  0.8172  1.0488
  787MOL0     H 6181   5.470   1.657   4.697  0.1008  0.1625 -0.4877
  787MOL0     H 6182   5.710   1.691   4.739 -2.2636 -0.7172 -2.1798
  787MOL0     H 6183   5.684   1.597   4.891  0.3221 -3.1275 -1.9348
  787MOL0     H 6184   5.494   1.759   4.946  0.2262  0.2564  0.8905
  787MOL0     H 6185   5.553   1.849   4.797  0.6752  1.1315 -0.0074
  787MOL0     H 6186   5.627   1.941   5.035  2.0820  1.5025  0.5757
  787MOL0     H 6187   5.719   1.791   5.026 -0.5014 -2.0252 -2.2776
  787MOL0     H 6188   5.846   1.874   4.816 -0.0574 -0.2465 -0.7816
  787MOL0     H 6189   5.739   2.010   4.820 -0.5836 -1.4443  0.6056
  787MOL0     H 6190   5.829   2.114   4.998 -2.7662 -0.3550 -2.0321
  787MOL0     H 6191   5.915   1.957   5.045 -0.9223 -0.1226 -0.6655
  787MOL0     H 6192   5.976   2.115   4.800  0.0155 -1.5255 -0.3090
  787MOL0     H 6193   6.060   1.972   4.869  1.1754  1.2231  0.7016
  787MOL0     H 6194   6.063   2.262   4.971  3.1600  0.7189 -2.6276
  787MOL0     H 6195   6.087   2.125   5.085  1.6404 -0.2639  0.8809
  787MOL0     H 6196   6.337   2.019   5.107  2.6253  1.1445  0.7725
  787MOL0     H 6197   6.655   2.142   4.945 -0.3578 -0.2085 -1.4135
  787MOL0     H 6198   6.584   2.090   5.107 -2.8497 -2.4231 -0.0845
  787MOL0     H 6199   6.539   1.875   5.013 -2.4109  1.6973 -0.3350
  787MOL0     H 6200   6.604   1.920   4.857  1.6507  0.3012 -0.5265
  787MOL0     H 6201   6.751   1.778   4.986  1.3705  0.0420 -0.0853
  787MOL0     H 6202   6.755   1.902   5.114  2.0725 -2.5851  0.4906
  787MOL0     H 6203   6.839   2.044   4.883  0.0390 -0.5466  1.6080
  787MOL0     H 6204   6.884   1.873   4.843  0.1080  1.0058 -0.7113
  787MOL0     H 6205   7.201   1.898   5.125  1.2914  2.3961  1.5610
  787MOL0     H 6206   7.419   1.975   5.054  1.3732  0.4848 -1.2440
  787MOL0     H 6207   7.741   2.013   4.689 -1.7295  0.1261  0.6737
  787MOL0     H 6208   7.966   2.077   4.654 -0.1948 -0.2460  0.0165
  787MOL0     H 6209   8.231   2.067   4.714  1.8662  1.4840  0.3503
  787MOL0     H 6210   8.148   2.197   4.629  0.6115  0.4904  0.6088
  787MOL0     H 6211   8.398   2.219   4.661  1.6825 -1.3892  1.1585
  787MOL0     H 6212   8.316   2.360   4.741  1.0962 -0.3672  1.2269
  787MOL0     H 6213   8.354   2.257   4.961  0.4163  0.6201  0.0495
  787MOL0     H 6214   8.432   2.120   4.869  0.5926  0.0565 -3.2135
  787MOL0     H 6215   8.545   2.406   4.868 -2.3305  0.4135 -1.2683
  787MOL0     H 6216   8.601   2.277   4.767  2.1126  1.9013  0.8257
  787MOL0     H 6217   8.642   2.134   4.959 -1.0902  0.4159 -1.7995
  787MOL0     H 6218   8.582   2.268   5.065  1.9227  1.7888  1.0364
  787MOL0     H 6219   8.824   2.278   4.878  2.0453 -0.3218  0.0612
  787MOL0     H 6220   8.747   2.415   4.950 -2.3491 -0.9879  1.3164
  787MOL0     H 6221   8.884   2.206   5.126 -3.3600 -0.3013  0.2066
  787MOL0     H 6222   8.803   2.348   5.188 -0.0808 -0.1701  1.3842
  787MOL0     H 6223   8.976   2.482   5.071 -1.8821 -0.9814 -3.0200
  787MOL0     H 6224   9.052   2.359   5.178  2.1170  1.6464  0.1737
  787MOL0     H 6225   7.965   2.297   5.029 -3.1177  1.1088  0.1347
  787MOL0     H 6226   7.739   2.246   5.058  1.0946 -0.8704  0.1828
  787MOL0     H 6227   7.247   2.121   4.679  0.7962 -0.4429  0.2908
  787MOL0     H 6228   7.030   2.052   4.756 -1.3034 -2.9810 -0.3916
  787MOL0     H 6229   5.228   1.497   4.939  0.6803  1.1592  0.4304
  787MOL0     H 6230   5.019   1.406   4.882  1.5746  3.1797  1.8370
  787MOL0     H 6231   4.749   0.950   4.808  1.0253 -0.2781 -0.9060
  787MOL0     H 6232   4.539   0.904   4.783  0.4840  0.3962 -0.7451
  787MOL0     H 6233   4.350   0.953   4.436 -1.6443 -2.4007  2.3104
  787MOL0     H 6234   4.279   1.117   4.468  1.6654  1.0601  0.2974
  787MOL0     H 6235   4.113   0.937   4.427  1.3280 -1.9631 -1.3403
  787MOL0     H 6236   4.106   1.020   4.585  3.0079  0.9640  1.1069
  787MOL0     H 6237   4.208   0.812   4.699  1.5439  1.5184 -0.0287
  787MOL0     H 6238   4.234   0.743   4.544  0.4026 -1.1477  0.5014
  787MOL0     H 6239   3.965   0.814   4.676  0.1272 -1.3683  1.4469
  787MOL0     H 6240   3.989   0.747   4.504  1.8210 -0.8926 -1.0339
  787MOL0     H 6241   3.967   0.401   4.715 -2.2914  0.0703 -0.8463
  787MOL0     H 6242   4.480   1.220   4.497 -1.6731 -3.0999  0.6341
  787MOL0     H 6243   4.801   1.307   4.452 -0.2787  0.4055 -1.0883
  787MOL0     H 6244   4.630   1.363   4.441 -0.6872 -0.1997  1.0839
  787MOL0     H 6245   4.741   1.419   4.567  0.3430  0.4565 -1.8233
  788MOL0     O 6246   3.035   9.053   7.407  0.2965 -0.6156 -0.1036
  788MOL0     C 6247   2.938   8.986   7.441  0.1888 -0.0754 -0.0224
  788MOL0     O 6248   2.931   8.852   7.450  0.3520 -0.2871  0.5074
  788MOL0     C 6249   3.044   8.774   7.435  0.4069  0.3812 -0.2307
  788MOL0     C 6250   3.135   8.787   7.326 -0.3685  0.5843 -0.5258
  788MOL0     C 6251   3.243   8.694   7.312  0.3254 -0.3759 -0.8123
  788MOL0     C 6252   3.278   8.593   7.408 -0.8347 -0.1675  0.4288
  788MOL0     O 6253   3.386   8.512   7.415 -0.3915 -0.5575 -0.6530
  788MOL0     C 6254   3.483   8.545   7.316  0.4230  0.5291  0.7273
  788MOL0     C 6255   3.620   8.512   7.347 -0.6564 -0.0299 -0.5069
  788MOL0     C 6256   3.682   8.365   7.362  0.0429 -0.5507  0.3153
  788MOL0     C 6257   3.826   8.354   7.300  0.0228  0.3882  0.2294
  788MOL0     C 6258   3.882   8.212   7.317 -0.7502 -0.0896  0.4156
  788MOL0     C 6259   4.013   8.196   7.248 -0.9445  0.6538  0.5628
  788MOL0     C 6260   4.057   8.051   7.267 -0.4409 -0.0028 -0.8084
  788MOL0     C 6261   4.197   8.011   7.205 -0.2440 -0.3593  0.0796
  788MOL0     N 6262   4.200   8.045   7.059 -0.0863 -0.4405 -0.0834
  788MOL0     C 6263   4.249   8.163   7.012  0.4052  0.4647 -0.0413
  788MOL0     C 6264   4.235   8.150   6.881 -0.8327 -0.2091  0.3938
  788MOL0     C 6265   4.250   8.262   6.790 -0.1641 -0.0214 -0.2152
  788MOL0     C 6266   4.362   8.254   6.688 -0.5174 -0.4603  0.4895
  788MOL0     C 6267   4.341   8.156   6.568  0.4454  0.1718 -0.1443
  788MOL0     C 6268   4.413   8.191   6.439  0.2493 -0.0257 -0.8797
  788MOL0     O 6269   4.361   8.321   6.402 -0.8949  0.4246 -0.6480
  788MOL0     C 6270   4.264   8.330   6.302 -0.1317 -0.5281 -0.2868
  788MOL0     C 6271   4.198   8.225   6.244  0.3223 -0.6164  0.4488
  788MOL0     C 6272   4.091   8.253   6.157 -0.1006 -0.4900  1.4145
  788MOL0     C 6273   4.056   8.386   6.123 -0.5868  0.5813 -0.8591
  788MOL0     C 6274   3.961   8.412   6.011 -0.0865  0.5352  0.7338
  788MOL0     O 6275   3.867   8.317   5.990  0.2841 -0.2873 -0.1060
  788MOL0     C 6276   3.788   8.331   5.876  0.6432 -0.2148  0.3356
  788MOL0     C 6277   3.814   8.238   5.774 -0.1767 -0.3020 -0.1121
  788MOL0     C 6278   3.754   8.247   5.644  0.4092 -0.1693  0.4615
  788MOL0     C 6279   3.670   8.357   5.609  0.3915  0.0673 -0.3108
  788MOL0     O 6280   3.602   8.375   5.498  0.6167 -0.1062  0.2680
  788MOL0     C 6281   3.503   8.272   5.471 -0.1683  0.4406  0.0210
  788MOL0     C 6282   3.551   8.172   5.363 -0.4688  0.0992  0.3279
  788MOL0     C 6283   3.576   8.235   5.225 -1.1655 -0.3664 -0.6973
  788MOL0     C 6284   3.713   8.302   5.213 -0.4677  0.6214 -0.0106
  788MOL0     C 6285   3.838   8.223   5.250  0.6570 -0.4567  0.8351
  788MOL0     C 6286   3.967   8.297   5.243  0.4159 -0.8330 -0.7360
  788MOL0     C 6287   4.092   8.206   5.228 -0.5149  0.9662  0.4468
  788MOL0     C 6288   4.222   8.286   5.197 -0.7651  0.0623  0.0904
  788MOL0    Cl 6289   4.365   8.177   5.213  0.6353 -0.0708 -0.2161
  788MOL0     C 6290   3.640   8.449   5.708 -0.8942  0.0061  0.8482
  788MOL0     C 6291   3.697   8.441   5.841  0.3677  1.1645  0.6960
  788MOL0     O 6292   3.965   8.518   5.947 -0.1391  0.5997 -0.5881
  788MOL0     C 6293   4.118   8.489   6.194  0.7628 -0.9167  0.5457
  788MOL0     C 6294   4.223   8.468   6.279 -0.8692 -0.1190  0.1485
  788MOL0     N 6295   4.193   8.033   6.846  0.1899  0.0018  0.3018
  788MOL0     N 6296   4.180   7.971   6.952  0.1143  0.0377 -0.4429
  788MOL0     C 6297   3.186   8.587   7.510 -0.5654 -0.0063 -0.0934
  788MOL0     C 6298   3.078   8.677   7.524  0.4417  0.7471 -0.1019
  788MOL0     C 6299   2.814   9.058   7.486  0.4759 -0.6022  0.6527
  788MOL0     C 6300   2.762   9.033   7.613  0.0217 -0.0963 -0.5561
  788MOL0     C 6301   2.656   9.103   7.669  0.8796  0.3228  0.3894
  788MOL0     C 6302   2.590   9.200   7.590 -0.3167 -0.2761  0.1860
  788MOL0     O 6303   2.495   9.264   7.660  0.2734 -0.2832 -0.2534
  788MOL0     C 6304   2.389   9.338   7.589  0.4247  0.5748  0.0963
  788MOL0     C 6305   2.256   9.333   7.664  0.7207 -0.0974 -0.7346
  788MOL0     C 6306   2.281   9.401   7.803  0.4042 -0.5391 -0.5046
  788MOL0     C 6307   2.141   9.393   7.881 -0.3369 -1.0854 -0.9047
  788MOL0     C 6308   2.165   9.461   8.011  0.1236 -0.8768  0.1431
  788MOL0     C 6309   2.168   9.511   8.126 -0.1763  0.0764 -0.1744
  788MOL0     C 6310   2.642   9.227   7.462 -0.6780  0.1300  0.4041
  788MOL0     C 6311   2.752   9.157   7.409  0.9746 -0.2525 -0.2159
  788MOL0     C 6312   2.791   9.180   7.264  0.1370 -0.3206 -1.1854
  788MOL0     H 6313   3.128   8.873   7.260  2.2080  2.7320  1.7516
  788MOL0     H 6314   3.295   8.707   7.218 -1.3909 -2.3586 -2.1248
  788MOL0     H 6315   3.439   8.502   7.226  0.0177 -0.4714  1.3805
  788MOL0     H 6316   3.478   8.654   7.308  2.2753  0.4951 -2.1987
  788MOL0     H 6317   3.639   8.581   7.430 -0.8608  0.9236 -1.2325
  788MOL0     H 6318   3.684   8.559   7.272 -1.2011  0.8981 -0.4046
  788MOL0     H 6319   3.620   8.290   7.311  0.1307  1.1061 -2.4324
  788MOL0     H 6320   3.695   8.348   7.469  4.4260 -0.2632  0.0324
  788MOL0     H 6321   3.838   8.384   7.196  4.6296  1.7943  0.9006
  788MOL0     H 6322   3.896   8.423   7.349  0.0460  1.4198 -1.1852
  788MOL0     H 6323   3.905   8.203   7.424 -1.2102 -0.9716  0.4467
  788MOL0     H 6324   3.808   8.135   7.294 -1.1704 -0.2197  2.0483
  788MOL0     H 6325   4.010   8.226   7.143 -3.0311 -0.6882  0.1683
  788MOL0     H 6326   4.086   8.259   7.299 -2.5990  1.3185  2.2343
  788MOL0     H 6327   3.988   7.982   7.218 -1.6941 -0.0407  0.9159
  788MOL0     H 6328   4.047   8.022   7.372 -0.5069 -0.7431 -1.0134
  788MOL0     H 6329   4.265   8.074   7.262  1.1580 -3.1913  1.7264
  788MOL0     H 6330   4.223   7.909   7.233 -2.0724 -0.7505  0.5079
  788MOL0     H 6331   4.267   8.250   7.075 -2.5781 -0.8177  2.9049
  788MOL0     H 6332   4.158   8.283   6.734  1.2868  0.5544 -2.5176
  788MOL0     H 6333   4.268   8.355   6.845 -1.7568 -1.3232  2.7882
  788MOL0     H 6334   4.381   8.356   6.653 -0.0075 -0.2320  1.4147
  788MOL0     H 6335   4.455   8.230   6.739  0.7599 -0.8013 -1.8678
  788MOL0     H 6336   4.238   8.130   6.541  0.8998 -3.1797  0.8546
  788MOL0     H 6337   4.374   8.058   6.604 -0.5270  0.5010  1.7653
  788MOL0     H 6338   4.406   8.119   6.357 -1.4074  1.9847 -2.6158
  788MOL0     H 6339   4.521   8.198   6.455  0.0596  2.1715 -0.2058
  788MOL0     H 6340   4.231   8.122   6.253  0.8834 -0.4922 -0.1721
  788MOL0     H 6341   4.058   8.170   6.095  1.7404  0.1430 -0.5226
  788MOL0     H 6342   3.881   8.153   5.781 -1.1838 -1.0640  0.6656
  788MOL0     H 6343   3.763   8.160   5.580 -3.4427 -1.1268  1.0010
  788MOL0     H 6344   3.465   8.228   5.563  0.4061  1.5481  0.8115
  788MOL0     H 6345   3.413   8.321   5.433 -1.1314  1.7434  3.5859
  788MOL0     H 6346   3.639   8.113   5.391 -0.6305 -0.8950 -1.1574
  788MOL0     H 6347   3.471   8.099   5.347 -0.7060  1.0101 -3.6114
  788MOL0     H 6348   3.572   8.154   5.151  0.0798  0.0036 -1.1934
  788MOL0     H 6349   3.497   8.306   5.201  0.2716  2.1930  1.6335
  788MOL0     H 6350   3.707   8.394   5.272 -3.3810 -0.0855  0.9960
  788MOL0     H 6351   3.728   8.325   5.107  1.2831 -1.2158 -0.2129
  788MOL0     H 6352   3.838   8.153   5.166  0.2757  0.1082  0.3636
  788MOL0     H 6353   3.831   8.168   5.344 -1.3814  1.3158  1.8085
  788MOL0     H 6354   3.954   8.363   5.157 -3.5331 -1.7901 -1.0743
  788MOL0     H 6355   3.973   8.358   5.334 -0.6170 -3.2241  1.0312
  788MOL0     H 6356   4.073   8.128   5.153 -2.9382  1.2344  0.6940
  788MOL0     H 6357   4.105   8.154   5.323  2.3911  0.0049 -0.3813
  788MOL0     H 6358   4.220   8.334   5.098 -0.4676  1.1487  0.5982
  788MOL0     H 6359   4.223   8.367   5.271  4.7420 -0.2617  0.8446
  788MOL0     H 6360   3.572   8.532   5.694  0.8923  1.2868 -0.6619
  788MOL0     H 6361   3.673   8.527   5.903 -0.5627  2.0811 -0.8517
  788MOL0     H 6362   4.086   8.593   6.187 -0.4586 -1.1342  2.2283
  788MOL0     H 6363   4.284   8.548   6.320 -0.7024  0.7677 -1.7709
  788MOL0     H 6364   3.190   8.513   7.588 -1.2149 -0.3378 -0.3693
  788MOL0     H 6365   3.008   8.663   7.606 -2.3174  0.8502 -2.2857
  788MOL0     H 6366   2.801   8.950   7.670 -0.6230  0.5014  0.8051
  788MOL0     H 6367   2.620   9.075   7.767 -0.6296  1.3495  0.1583
  788MOL0     H 6368   2.378   9.288   7.492  1.6809 -1.7876  1.0903
  788MOL0     H 6369   2.430   9.439   7.577 -0.5510  1.0175  0.4189
  788MOL0     H 6370   2.230   9.228   7.681  0.0519 -0.2640 -2.4931
  788MOL0     H 6371   2.178   9.380   7.603 -0.7013  1.9135  2.3853
  788MOL0     H 6372   2.304   9.506   7.786  1.3823 -0.0645  2.9983
  788MOL0     H 6373   2.357   9.348   7.861 -1.2749 -0.3820  2.0212
  788MOL0     H 6374   2.057   9.441   7.830 -0.7331 -1.4333 -0.5866
  788MOL0     H 6375   2.113   9.290   7.904 -0.1045 -0.5810  2.1092
  788MOL0     H 6376   2.167   9.551   8.225  0.3216  0.6938 -0.4056
  788MOL0     H 6377   2.599   9.305   7.398  0.3708 -0.4105 -1.0078
  788MOL0     H 6378   2.893   9.220   7.261 -0.2182  1.2672  2.6787
  788MOL0     H 6379   2.782   9.089   7.203  1.0650 -1.6343  0.5462
  788MOL0     H 6380   2.742   9.268   7.221  2.7327  0.3430 -2.9975
  789MOL0     O 6381   9.106   6.648  10.964  0.4633 -0.3595  1.0516
  789MOL0     C 6382   9.203   6.589  10.915 -0.4577  0.1666  1.8724
  789MOL0     O 6383   9.212   6.454  10.865  0.3576  0.3442  0.0290
  789MOL0     C 6384   9.099   6.383  10.889  0.8951 -0.1353 -0.5179
  789MOL0     C 6385   9.021   6.337  10.781 -1.2504 -0.5630 -0.4691
  789MOL0     C 6386   8.903   6.271  10.795  0.2652  1.5084  0.3113
  789MOL0     C 6387   8.858   6.238  10.927 -0.9530 -0.2350  0.9225
  789MOL0     O 6388   8.746   6.167  10.956  0.2117 -0.0435  0.5605
  789MOL0     C 6389   8.689   6.080  10.861 -0.2768  0.4908 -0.0262
  789MOL0     C 6390   8.575   6.145  10.784 -0.3246 -0.1479  0.2636
  789MOL0     C 6391   8.458   6.195  10.864 -0.6444 -0.5876 -0.5829
  789MOL0     C 6392   8.391   6.080  10.940 -0.2621 -0.2368  0.5917
  789MOL0     C 6393   8.257   6.125  11.003 -0.7167 -0.0203  1.1885
  789MOL0     C 6394   8.208   6.032  11.111 -0.4083  0.3920  0.6390
  789MOL0     C 6395   8.086   6.099  11.190 -0.1815  0.7723 -0.1513
  789MOL0     C 6396   8.020   6.008  11.292 -1.4885  0.0710  0.3040
  789MOL0     N 6397   8.122   5.951  11.384 -0.4184  0.1536  0.4822
  789MOL0     C 6398   8.177   6.016  11.496  0.4712  0.0193 -0.5881
  789MOL0     C 6399   8.273   5.934  11.542 -0.8531  0.5754 -0.3273
  789MOL0     C 6400   8.357   5.934  11.674  0.5705  0.5744  0.8294
  789MOL0     C 6401   8.260   5.916  11.790  0.6115 -0.2042 -0.3218
  789MOL0     C 6402   8.318   5.971  11.923 -0.3942  0.1158  0.1686
  789MOL0     C 6403   8.239   5.938  12.047 -0.1044  0.0061  0.4094
  789MOL0     O 6404   8.130   6.027  12.062  1.1938  0.6190 -0.7180
  789MOL0     C 6405   8.056   5.993  12.175 -0.4304 -0.3369  0.0686
  789MOL0     C 6406   8.105   5.923  12.292  0.3888 -0.2027 -0.5906
  789MOL0     C 6407   8.009   5.923  12.400  0.4141 -0.1571  1.1780
  789MOL0     C 6408   7.880   5.979  12.391 -0.0828  0.9035  0.6144
  789MOL0     C 6409   7.786   5.966  12.509 -0.7962 -0.1459  0.0338
  789MOL0     O 6410   7.669   6.027  12.504 -0.2023 -0.3356  0.5784
  789MOL0     C 6411   7.563   5.982  12.578 -0.1554  1.3538  0.4833
  789MOL0     C 6412   7.449   5.961  12.518  0.8464  0.6382 -0.4172
  789MOL0     C 6413   7.328   5.929  12.590  0.3517 -0.1568  0.8693
  789MOL0     C 6414   7.329   5.907  12.726 -0.0559  0.1300  0.7130
  789MOL0     O 6415   7.223   5.865  12.803 -0.1783 -0.5162  0.9985
  789MOL0     C 6416   7.087   5.887  12.751 -0.8889 -0.7110 -0.1897
  789MOL0     C 6417   6.991   5.847  12.858 -0.1012  0.2915 -0.1815
  789MOL0     C 6418   6.855   5.849  12.802 -0.0456  0.2266  0.1994
  789MOL0     C 6419   6.763   5.778  12.897  0.2968 -0.5884 -0.1724
  789MOL0     C 6420   6.617   5.790  12.845 -0.1978  0.0883  0.3730
  789MOL0     C 6421   6.525   5.721  12.931  0.4785  0.7238 -0.5264
  789MOL0     C 6422   6.381   5.760  12.915  0.2362  0.8691 -0.6433
  789MOL0     C 6423   6.292   5.692  13.019  1.5170 -0.2185  0.2018
  789MOL0    Cl 6424   6.124   5.694  12.965  0.1126  0.1158 -0.4515
  789MOL0     C 6425   7.454   5.915  12.788 -1.8767 -0.3567  0.2922
  789MOL0     C 6426   7.567   5.971  12.719 -0.3508 -0.0365  0.2944
  789MOL0     O 6427   7.819   5.892  12.598 -0.4278 -0.2999 -0.3343
  789MOL0     C 6428   7.841   6.045  12.281  0.4622  0.7132 -0.1176
  789MOL0     C 6429   7.929   6.054  12.174  1.0384  0.9134  0.1810
  789MOL0     N 6430   8.276   5.814  11.465 -0.0696  0.0645 -1.0095
  789MOL0     N 6431   8.185   5.830  11.369  0.0432  0.3624  0.4659
  789MOL0     C 6432   8.937   6.272  11.033 -0.4800  0.4181  0.5488
  789MOL0     C 6433   9.059   6.343  11.012  0.5176  0.2344 -1.1671
  789MOL0     C 6434   9.328   6.668  10.903 -0.9097  0.3087 -0.7458
  789MOL0     C 6435   9.406   6.637  10.790  0.5784  1.0616  0.0791
  789MOL0     C 6436   9.535   6.686  10.768 -0.8895 -0.1539 -0.1843
  789MOL0     C 6437   9.590   6.779  10.865 -0.2713 -0.2901  1.3608
  789MOL0     O 6438   9.716   6.842  10.856 -0.4183 -0.1374  0.4001
  789MOL0     C 6439   9.809   6.766  10.937 -0.4830 -0.2256  0.0866
  789MOL0     C 6440   9.923   6.706  10.858 -0.2549 -0.4158 -0.6660
  789MOL0     C 6441  10.023   6.802  10.800 -0.3284  0.1032 -0.0779
  789MOL0     C 6442  10.115   6.728  10.700 -1.1129  1.0459 -1.3290
  789MOL0     C 6443  10.210   6.626  10.753 -0.5246  0.9220 -0.1099
  789MOL0     C 6444  10.304   6.558  10.783 -0.0849  0.4305 -0.6559
  789MOL0     C 6445   9.511   6.815  10.974 -0.9064 -0.2261 -0.3066
  789MOL0     C 6446   9.376   6.768  10.995 -0.4787 -0.1952 -0.0740
  789MOL0     C 6447   9.290   6.826  11.109 -0.5810 -0.3560  0.3674
  789MOL0     H 6448   9.054   6.363  10.681 -1.5325 -0.6010 -0.5730
  789MOL0     H 6449   8.846   6.237  10.709 -0.5223  3.3003  0.0951
  789MOL0     H 6450   8.768   6.043  10.796  2.0494  0.7869  2.4481
  789MOL0     H 6451   8.653   5.985  10.903 -0.3852 -0.0243 -1.2364
  789MOL0     H 6452   8.532   6.072  10.715 -0.1805  0.5574 -0.5976
  789MOL0     H 6453   8.613   6.228  10.724 -0.4060 -0.0596  0.3325
  789MOL0     H 6454   8.391   6.250  10.798 -1.0958 -1.3785 -0.8005
  789MOL0     H 6455   8.503   6.259  10.940 -0.8670 -0.2375 -0.7465
  789MOL0     H 6456   8.362   6.000  10.870  0.1208  2.4001 -2.8177
  789MOL0     H 6457   8.465   6.030  11.003  1.0467  0.4638 -0.3377
  789MOL0     H 6458   8.270   6.225  11.045 -1.3129 -0.2315  1.9106
  789MOL0     H 6459   8.174   6.130  10.932 -2.1359  0.2391  2.8067
  789MOL0     H 6460   8.187   5.931  11.074  1.3159  0.2017  0.0938
  789MOL0     H 6461   8.288   6.016  11.184 -0.6721  0.5443  0.9691
  789MOL0     H 6462   8.007   6.121  11.117  0.2520 -0.6870 -1.0979
  789MOL0     H 6463   8.126   6.187  11.241  0.5934  1.2113 -1.4751
  789MOL0     H 6464   7.938   6.058  11.344 -0.8194 -1.1276  2.6210
  789MOL0     H 6465   7.975   5.930  11.229  1.1560  1.5036 -3.7984
  789MOL0     H 6466   8.117   6.095  11.540 -2.0606 -1.0986 -1.8212
  789MOL0     H 6467   8.427   5.850  11.665 -0.7170 -0.3632 -1.1231
  789MOL0     H 6468   8.400   6.033  11.692 -2.1066  1.8129  0.8110
  789MOL0     H 6469   8.165   5.968  11.776  0.0016  0.0517  3.7299
  789MOL0     H 6470   8.236   5.810  11.799 -0.2331  0.1046  1.4558
  789MOL0     H 6471   8.336   6.079  11.920 -0.6245  0.1454 -3.0983
  789MOL0     H 6472   8.417   5.924  11.928  0.1757  1.0500 -1.4687
  789MOL0     H 6473   8.307   5.959  12.129 -1.8298  1.6180  1.5088
  789MOL0     H 6474   8.203   5.835  12.049  2.0574 -0.7845  2.6653
  789MOL0     H 6475   8.201   5.873  12.289 -0.1525 -1.3558  0.3444
  789MOL0     H 6476   8.042   5.870  12.489 -1.5190 -1.9182  0.9140
  789MOL0     H 6477   7.451   5.996  12.415  0.7371 -1.1265 -1.0600
  789MOL0     H 6478   7.244   5.920  12.523  1.6500 -1.8421 -0.6167
  789MOL0     H 6479   7.068   5.994  12.743 -1.0187 -0.6567  0.7674
  789MOL0     H 6480   7.070   5.833  12.657 -1.3898  0.6544 -0.9110
  789MOL0     H 6481   7.013   5.749  12.900  0.3511  0.4195 -0.1219
  789MOL0     H 6482   7.003   5.918  12.940 -0.7298  1.8926 -1.4109
  789MOL0     H 6483   6.827   5.954  12.801  1.6494  0.7459  1.8456
  789MOL0     H 6484   6.859   5.794  12.707  0.5502  1.0854 -0.2831
  789MOL0     H 6485   6.768   5.810  13.002  1.6703  0.0743 -0.4152
  789MOL0     H 6486   6.781   5.670  12.902  0.8288 -0.4867  0.2889
  789MOL0     H 6487   6.613   5.762  12.740  1.8656 -0.9707  0.5190
  789MOL0     H 6488   6.585   5.895  12.846 -0.7670 -0.0796  1.0841
  789MOL0     H 6489   6.528   5.614  12.909  2.8003  0.0841  2.3039
  789MOL0     H 6490   6.548   5.731  13.037  3.0695  1.9362 -1.1384
  789MOL0     H 6491   6.352   5.735  12.813 -1.3896 -0.0180 -0.0090
  789MOL0     H 6492   6.371   5.867  12.934 -0.4944  0.9575 -1.4936
  789MOL0     H 6493   6.324   5.587  13.021  1.1735 -0.3259  0.1786
  789MOL0     H 6494   6.313   5.734  13.118 -2.0969 -0.7962  1.3539
  789MOL0     H 6495   7.459   5.904  12.896  0.5841  0.4644  0.3296
  789MOL0     H 6496   7.661   6.001  12.763  0.8749 -0.7967 -1.6786
  789MOL0     H 6497   7.739   6.083  12.280 -0.1071 -0.7263 -0.0782
  789MOL0     H 6498   7.889   6.096  12.083 -2.0446 -1.9609  0.0298
  789MOL0     H 6499   8.903   6.231  11.128  0.0975 -1.4057  0.0076
  789MOL0     H 6500   9.122   6.373  11.095  0.5636  1.6610 -1.6843
  789MOL0     H 6501   9.374   6.578  10.705  0.6321 -0.6714  1.2266
  789MOL0     H 6502   9.598   6.653  10.686 -2.2648 -0.5688 -1.1127
  789MOL0     H 6503   9.764   6.677  10.981  2.1416 -1.4333  0.5109
  789MOL0     H 6504   9.834   6.830  11.023  0.1179 -0.1249 -0.1570
  789MOL0     H 6505   9.888   6.638  10.780  0.0010  0.0982 -1.2373
  789MOL0     H 6506   9.983   6.639  10.920  2.2247  2.0664 -0.1851
  789MOL0     H 6507  10.086   6.836  10.883 -3.2823 -1.8617  3.2305
  789MOL0     H 6508   9.971   6.890  10.761  0.3871  0.5324 -0.0893
  789MOL0     H 6509  10.050   6.666  10.637  1.7738 -0.8325 -2.6934
  789MOL0     H 6510  10.176   6.803  10.649 -1.3622  1.5234 -0.9294
  789MOL0     H 6511  10.381   6.490  10.814 -1.6132  0.1897  3.0903
  789MOL0     H 6512   9.551   6.887  11.044 -3.1263 -1.9023  2.9292
  789MOL0     H 6513   9.336   6.922  11.134 -3.1561  1.8835 -2.6408
  789MOL0     H 6514   9.190   6.854  11.076 -0.3689  0.0037  0.0157
  789MOL0     H 6515   9.285   6.753  11.190  1.1090 -0.4909  0.4005
  790MOL0     O 6516   8.686   4.691   5.664 -0.8674 -0.0804  0.1672
  790MOL0     C 6517   8.613   4.787   5.646  0.0360 -0.5904 -0.0562
  790MOL0     O 6518   8.659   4.909   5.672  0.6369  0.2506  0.7604
  790MOL0     C 6519   8.794   4.925   5.693 -0.7407 -0.6449  0.4094
  790MOL0     C 6520   8.826   5.028   5.776 -0.1905 -0.3932 -0.7939
  790MOL0     C 6521   8.960   5.066   5.800  0.1881  0.3194  0.4113
  790MOL0     C 6522   9.071   5.006   5.740 -0.7376 -0.5826  0.6502
  790MOL0     O 6523   9.196   5.057   5.778 -0.0701 -0.5452  0.2361
  790MOL0     C 6524   9.305   4.961   5.765  0.1141  0.2841 -0.1848
  790MOL0     C 6525   9.436   5.037   5.783 -0.1211 -0.1581 -0.4438
  790MOL0     C 6526   9.563   4.984   5.714 -0.8949 -0.0451  0.2193
  790MOL0     C 6527   9.676   5.084   5.746  0.5203  0.3851 -0.8792
  790MOL0     C 6528   9.818   5.023   5.715  0.2174  0.3820  0.5329
  790MOL0     C 6529   9.920   5.109   5.783 -0.1562  1.4033  0.2862
  790MOL0     C 6530  10.060   5.048   5.747  0.4128  0.0143 -0.0376
  790MOL0     C 6531  10.170   5.126   5.829 -0.6538  0.5872  0.7798
  790MOL0     N 6532  10.205   5.257   5.774  0.3560 -0.1059  0.1339
  790MOL0     C 6533  10.241   5.282   5.641  0.1272  0.1406 -0.2564
  790MOL0     C 6534  10.244   5.413   5.630 -0.0730  0.3127  0.2675
  790MOL0     C 6535  10.283   5.489   5.504  0.6206 -0.7343 -0.0649
  790MOL0     C 6536  10.437   5.523   5.512 -0.2224 -0.3396  0.5762
  790MOL0     C 6537  10.499   5.562   5.381 -0.2409  0.4646 -0.5880
  790MOL0     C 6538  10.507   5.712   5.365  0.3861 -0.4306  0.5010
  790MOL0     O 6539  10.584   5.777   5.469  0.4309  0.1461  0.7222
  790MOL0     C 6540  10.712   5.806   5.438  0.3203 -0.8280 -0.4372
  790MOL0     C 6541  10.802   5.732   5.365  0.1660 -0.0420 -0.1504
  790MOL0     C 6542  10.934   5.753   5.353 -0.3665 -0.9223 -0.2898
  790MOL0     C 6543  10.989   5.867   5.407  0.5584  0.4782 -0.5858
  790MOL0     C 6544  11.130   5.903   5.383 -1.1131  0.0160  0.7090
  790MOL0     O 6545  11.170   6.028   5.433 -0.1329  0.2620  0.1470
  790MOL0     C 6546  11.291   6.088   5.393 -0.9307 -0.6120 -0.0306
  790MOL0     C 6547  11.301   6.207   5.321  0.8133 -0.4220 -0.0931
  790MOL0     C 6548  11.421   6.267   5.296  0.0590  0.3077  0.6663
  790MOL0     C 6549  11.535   6.209   5.334 -0.9752  0.4900 -0.2658
  790MOL0     O 6550  11.650   6.276   5.286 -0.0489  0.1757  0.2135
  790MOL0     C 6551  11.779   6.228   5.336 -0.1019 -0.3967 -0.4838
  790MOL0     C 6552  11.889   6.308   5.273 -0.3390 -0.1088  0.9473
  790MOL0     C 6553  11.952   6.419   5.360  0.2661  0.3816 -0.2257
  790MOL0     C 6554  12.066   6.498   5.288  0.4124 -0.0922 -0.2026
  790MOL0     C 6555  12.104   6.619   5.389 -0.6506  1.3838  0.1248
  790MOL0     C 6556  12.215   6.698   5.331 -0.5010  0.0278  0.3228
  790MOL0     C 6557  12.191   6.743   5.188 -0.2176 -0.1431 -0.1948
  790MOL0     C 6558  12.298   6.839   5.134 -0.4415  0.1672  0.2782
  790MOL0    Cl 6559  12.289   6.839   4.955 -0.5631  0.0541  0.8771
  790MOL0     C 6560  11.538   6.095   5.415 -0.3270 -0.2436  0.2454
  790MOL0     C 6561  11.415   6.040   5.448 -0.7586  0.5937  0.0960
  790MOL0     O 6562  11.202   5.834   5.320  0.0924  0.7520  0.8086
  790MOL0     C 6563  10.905   5.955   5.480  0.9567  0.4329  0.0424
  790MOL0     C 6564  10.771   5.922   5.499 -0.3551  0.0745  0.3230
  790MOL0     N 6565  10.215   5.466   5.763 -0.5233 -0.4219  0.6371
  790MOL0     N 6566  10.192   5.371   5.846  0.7809 -0.0200  0.8775
  790MOL0     C 6567   9.038   4.895   5.664  0.0523 -0.2950 -0.1785
  790MOL0     C 6568   8.902   4.853   5.641 -0.7707  0.5287 -0.1658
  790MOL0     C 6569   8.464   4.770   5.614 -0.1894  0.1850  0.1197
  790MOL0     C 6570   8.388   4.889   5.627  0.5137 -0.2468  0.5010
  790MOL0     C 6571   8.251   4.888   5.598  0.3890 -0.6221 -0.3517
  790MOL0     C 6572   8.185   4.777   5.555 -0.5222  0.7869 -0.6482
  790MOL0     O 6573   8.058   4.794   5.516  0.5792  0.1734  0.2509
  790MOL0     C 6574   7.975   4.690   5.462 -0.7400 -0.1479  0.2027
  790MOL0     C 6575   7.828   4.724   5.463  0.3854  0.8832  0.1423
  790MOL0     C 6576   7.738   4.603   5.437  0.0903 -0.2213 -0.6761
  790MOL0     C 6577   7.590   4.626   5.484  0.0225 -0.7300 -0.6884
  790MOL0     C 6578   7.527   4.712   5.376 -0.3140  0.1711  0.3700
  790MOL0     C 6579   7.461   4.767   5.287 -0.4185  0.1245 -0.5327
  790MOL0     C 6580   8.258   4.655   5.547  0.0654 -1.0772 -0.0728
  790MOL0     C 6581   8.397   4.656   5.562  0.2958 -0.0950 -0.1929
  790MOL0     C 6582   8.459   4.522   5.512 -0.6482  0.6161  0.6257
  790MOL0     H 6583   8.746   5.083   5.826  0.8747  0.1818  0.3420
  790MOL0     H 6584   8.978   5.152   5.864 -2.2778 -0.0459  1.6978
  790MOL0     H 6585   9.303   4.886   5.845 -2.4177 -1.5942 -1.8315
  790MOL0     H 6586   9.304   4.928   5.661  3.0731  2.3448 -0.9783
  790MOL0     H 6587   9.457   5.055   5.889  0.2666 -0.4210 -0.4720
  790MOL0     H 6588   9.428   5.134   5.733  0.5210  0.5841  0.8462
  790MOL0     H 6589   9.537   4.971   5.609 -4.2062  0.5828  0.8628
  790MOL0     H 6590   9.590   4.885   5.751 -1.5831 -0.2826  0.0950
  790MOL0     H 6591   9.671   5.183   5.699  0.1868  0.3057 -1.0145
  790MOL0     H 6592   9.685   5.100   5.854  1.1966  1.4039 -1.0621
  790MOL0     H 6593   9.817   4.925   5.765 -1.0505  0.7252  1.2148
  790MOL0     H 6594   9.833   5.015   5.607 -2.9993  1.2462 -0.0632
  790MOL0     H 6595   9.906   5.214   5.754  1.0808  1.4168 -0.3331
  790MOL0     H 6596   9.898   5.094   5.889  0.0951 -0.3483  0.1159
  790MOL0     H 6597  10.078   5.078   5.643  1.8850 -0.3481  0.0874
  790MOL0     H 6598  10.050   4.942   5.769 -1.1318  0.1443 -0.0362
  790MOL0     H 6599  10.127   5.147   5.927 -0.4346 -1.0211  1.2557
  790MOL0     H 6600  10.263   5.071   5.848 -0.1585  1.2652  0.3639
  790MOL0     H 6601  10.267   5.214   5.560  1.1553  0.4325 -0.1786
  790MOL0     H 6602  10.257   5.436   5.413 -3.3757 -1.5002  1.3348
  790MOL0     H 6603  10.218   5.577   5.507 -0.0687 -1.1705 -1.5860
  790MOL0     H 6604  10.443   5.596   5.593 -1.3703  2.1184 -1.4158
  790MOL0     H 6605  10.491   5.429   5.526  0.3362 -0.3037 -1.0810
  790MOL0     H 6606  10.445   5.531   5.291 -0.9221  0.7280 -0.2730
  790MOL0     H 6607  10.600   5.520   5.377  0.0695  1.2046 -0.5834
  790MOL0     H 6608  10.405   5.751   5.364  1.1597  1.7779 -1.7045
  790MOL0     H 6609  10.530   5.753   5.266 -2.6274  2.1056  0.7146
  790MOL0     H 6610  10.781   5.636   5.320 -0.9112  1.0087 -2.0346
  790MOL0     H 6611  10.993   5.675   5.305  1.0053 -0.2413  0.2135
  790MOL0     H 6612  11.206   6.250   5.291  2.1781  1.4166 -2.0378
  790MOL0     H 6613  11.425   6.367   5.254  2.8907 -0.8389 -2.3356
  790MOL0     H 6614  11.787   6.222   5.445  2.0618 -0.5661 -0.6177
  790MOL0     H 6615  11.797   6.123   5.310  0.7547 -0.5152  0.5112
  790MOL0     H 6616  11.977   6.252   5.239  1.6608  2.5309  1.4904
  790MOL0     H 6617  11.851   6.361   5.185 -1.4048 -1.3409  0.6367
  790MOL0     H 6618  11.865   6.479   5.388 -1.1575 -1.6859  0.0501
  790MOL0     H 6619  11.994   6.379   5.452  0.4078  0.9014 -0.0610
  790MOL0     H 6620  12.032   6.536   5.191  0.1248  1.3482  0.4361
  790MOL0     H 6621  12.148   6.431   5.261 -1.3001 -2.0503 -0.7332
  790MOL0     H 6622  12.131   6.577   5.486  3.1440  2.6414 -0.2487
  790MOL0     H 6623  12.017   6.685   5.381 -0.8285  1.0449 -1.0245
  790MOL0     H 6624  12.236   6.780   5.400 -0.0610  0.5902 -0.4562
  790MOL0     H 6625  12.304   6.634   5.333 -2.2648 -2.6408 -0.5300
  790MOL0     H 6626  12.096   6.796   5.188 -0.3326 -0.3406 -1.1122
  790MOL0     H 6627  12.183   6.655   5.124 -0.3941 -1.1574  1.1617
  790MOL0     H 6628  12.302   6.933   5.190 -0.6255 -0.5607  1.5483
  790MOL0     H 6629  12.394   6.794   5.157 -0.6029  0.7130  2.2226
  790MOL0     H 6630  11.632   6.043   5.433  1.2226  1.5748 -1.9948
  790MOL0     H 6631  11.434   5.953   5.509  1.0180  0.8151 -0.0995
  790MOL0     H 6632  10.937   6.052   5.517  1.3583  0.2807  0.0880
  790MOL0     H 6633  10.702   5.990   5.547 -0.4918 -0.2866  0.6455
  790MOL0     H 6634   9.111   4.835   5.610  1.1818  2.9508 -2.6269
  790MOL0     H 6635   8.883   4.771   5.574  0.4380 -0.2769  0.4459
  790MOL0     H 6636   8.440   4.982   5.650 -0.4574  0.8975 -1.6310
  790MOL0     H 6637   8.204   4.984   5.617  0.2820 -0.7411 -0.0058
  790MOL0     H 6638   7.992   4.603   5.526  3.0201  0.6956  0.5953
  790MOL0     H 6639   8.015   4.662   5.364  1.0132  1.2942  0.4484
  790MOL0     H 6640   7.806   4.804   5.392 -0.2741  1.4402  0.9537
  790MOL0     H 6641   7.807   4.766   5.562 -0.0948  2.5206 -0.6146
  790MOL0     H 6642   7.773   4.512   5.488 -0.6200  1.1939  2.5810
  790MOL0     H 6643   7.734   4.588   5.329  0.5271  0.0374 -0.7289
  790MOL0     H 6644   7.532   4.535   5.502  0.2093 -1.0846 -1.8310
  790MOL0     H 6645   7.590   4.691   5.572 -2.1934 -1.2583 -0.2588
  790MOL0     H 6646   7.391   4.796   5.211  0.8054  1.1650 -1.3038
  790MOL0     H 6647   8.203   4.569   5.510  2.7835 -3.6724  1.4147
  790MOL0     H 6648   8.385   4.445   5.490 -0.2916 -0.3176  2.5038
  790MOL0     H 6649   8.513   4.560   5.425  0.1458  1.8849  1.6240
  790MOL0     H 6650   8.531   4.480   5.583 -1.1210  0.2970  0.9132
  791MOL0     O 6651   2.680   2.412   7.527 -0.0888  0.1432 -0.1061
  791MOL0     C 6652   2.657   2.383   7.411 -0.6865 -0.5994  0.7622
  791MOL0     O 6653   2.745   2.417   7.309 -0.1654  0.1797  0.2101
  791MOL0     C 6654   2.871   2.453   7.345 -0.5435  0.1939  0.3441
  791MOL0     C 6655   2.912   2.587   7.345  0.3229  0.4962  0.6108
  791MOL0     C 6656   3.043   2.623   7.366  1.3467  0.1485  0.6714
  791MOL0     C 6657   3.138   2.531   7.406  0.0206 -0.2929 -0.8056
  791MOL0     O 6658   3.262   2.584   7.445  0.9658  0.1225 -0.1410
  791MOL0     C 6659   3.318   2.688   7.365  0.2376 -0.3210 -0.4394
  791MOL0     C 6660   3.470   2.690   7.343 -0.1641 -0.8623  0.4687
  791MOL0     C 6661   3.511   2.562   7.280  0.0505 -0.3024 -0.0413
  791MOL0     C 6662   3.666   2.559   7.264 -0.5849  0.2959  0.7948
  791MOL0     C 6663   3.726   2.423   7.202 -0.8839 -0.2700  0.4470
  791MOL0     C 6664   3.755   2.313   7.305  0.9832  0.9209  0.8193
  791MOL0     C 6665   3.885   2.336   7.395  0.8296  0.0951  0.5385
  791MOL0     C 6666   3.909   2.233   7.502 -0.0777 -0.0028  0.5858
  791MOL0     N 6667   4.022   2.264   7.598  1.2551 -0.5721  0.0930
  791MOL0     C 6668   4.013   2.329   7.723  0.0436 -0.1222 -0.6514
  791MOL0     C 6669   4.137   2.333   7.771 -0.1011 -0.2908 -0.6394
  791MOL0     C 6670   4.166   2.398   7.903  0.0240  1.0439  0.2256
  791MOL0     C 6671   4.312   2.395   7.942 -0.2843  0.8260 -0.0424
  791MOL0     C 6672   4.358   2.258   7.998 -0.6574  0.0318  0.3855
  791MOL0     C 6673   4.504   2.256   8.036  0.1644  0.2196 -0.4586
  791MOL0     O 6674   4.539   2.345   8.147  0.0966  0.0702  0.3306
  791MOL0     C 6675   4.649   2.318   8.221  0.0750 -0.3595  0.7410
  791MOL0     C 6676   4.723   2.198   8.216 -0.3403 -0.8275  0.3562
  791MOL0     C 6677   4.848   2.183   8.270 -0.2435  0.3314 -0.2874
  791MOL0     C 6678   4.915   2.293   8.327  0.9707 -0.0689 -0.1179
  791MOL0     C 6679   5.038   2.281   8.410 -0.0899  0.5904  0.2815
  791MOL0     O 6680   5.111   2.165   8.405 -0.3843 -0.1412 -0.2372
  791MOL0     C 6681   5.195   2.133   8.508 -0.0359  0.9316 -0.9753
  791MOL0     C 6682   5.154   2.133   8.639  0.4034  0.3086  0.8279
  791MOL0     C 6683   5.228   2.083   8.747 -0.3469 -1.0751  0.6175
  791MOL0     C 6684   5.352   2.024   8.729 -0.5556 -0.0449  0.4387
  791MOL0     O 6685   5.430   1.956   8.820  0.4152  0.9169 -1.0416
  791MOL0     C 6686   5.380   1.936   8.952 -0.1880  0.5127  0.9468
  791MOL0     C 6687   5.281   1.822   8.959  0.4686 -0.7418  0.5470
  791MOL0     C 6688   5.237   1.794   9.103  0.4084  0.1641  0.1982
  791MOL0     C 6689   5.205   1.643   9.125  0.1651  0.2858 -0.5095
  791MOL0     C 6690   5.094   1.582   9.037 -0.7108  0.0021  0.0904
  791MOL0     C 6691   4.952   1.654   9.046  0.5876 -0.8713  0.1152
  791MOL0     C 6692   4.834   1.573   8.984 -0.0156  0.8919  0.6433
  791MOL0     C 6693   4.698   1.642   8.991 -0.3982 -1.0370  0.0495
  791MOL0    Cl 6694   4.583   1.556   8.888 -0.5346  0.2012  0.1747
  791MOL0     C 6695   5.392   2.020   8.597 -0.5910  0.2346  0.2987
  791MOL0     C 6696   5.318   2.063   8.487  0.1941 -0.8063 -0.5100
  791MOL0     O 6697   5.049   2.369   8.491  0.0784  0.5148  0.1400
  791MOL0     C 6698   4.849   2.414   8.324  0.2842  0.7708 -0.4192
  791MOL0     C 6699   4.723   2.429   8.274 -0.0428 -0.4990  0.2667
  791MOL0     N 6700   4.227   2.292   7.672  0.0677 -0.5792  0.5998
  791MOL0     N 6701   4.158   2.254   7.571  0.0140 -0.3994  0.5447
  791MOL0     C 6702   3.103   2.395   7.413 -0.4849  0.6921  0.1875
  791MOL0     C 6703   2.971   2.354   7.394 -0.5423  0.0262  0.4230
  791MOL0     C 6704   2.525   2.324   7.375 -1.2085 -0.5530 -0.4362
  791MOL0     C 6705   2.491   2.332   7.242  1.0614  0.5393  1.0198
  791MOL0     C 6706   2.369   2.274   7.198 -0.8755  0.0712 -0.2055
  791MOL0     C 6707   2.285   2.213   7.286  0.0897  0.5616 -0.9102
  791MOL0     O 6708   2.157   2.192   7.241  0.2316 -0.1407  0.1571
  791MOL0     C 6709   2.074   2.106   7.325 -0.5054 -0.7158 -0.5690
  791MOL0     C 6710   1.983   2.045   7.223 -0.4753 -1.6414 -0.7149
  791MOL0     C 6711   1.871   1.987   7.298  0.0383 -0.1334 -0.4193
  791MOL0     C 6712   1.751   1.921   7.225 -0.5801 -0.7712  0.5437
  791MOL0     C 6713   1.650   2.021   7.171 -1.0298  0.5638  0.3987
  791MOL0     C 6714   1.560   2.094   7.131 -0.0333  0.5794  1.1276
  791MOL0     C 6715   2.319   2.208   7.420  0.1459  0.0616 -0.2963
  791MOL0     C 6716   2.441   2.258   7.469  0.4991 -0.0269 -0.2057
  791MOL0     C 6717   2.482   2.226   7.609  0.6686  0.2097  0.1090
  791MOL0     H 6718   2.847   2.668   7.317  2.5308  1.2570 -2.9038
  791MOL0     H 6719   3.065   2.728   7.349 -0.1818  0.1054 -2.1594
  791MOL0     H 6720   3.277   2.685   7.263 -3.0132 -0.6191  0.7575
  791MOL0     H 6721   3.290   2.790   7.392  1.0570 -0.4280  0.8846
  791MOL0     H 6722   3.515   2.697   7.442 -2.3558  0.2383  1.4657
  791MOL0     H 6723   3.504   2.774   7.282 -0.3911  1.8060  3.7424
  791MOL0     H 6724   3.471   2.549   7.179 -1.7188 -3.2915  0.9273
  791MOL0     H 6725   3.474   2.487   7.351  0.5488 -0.5511 -0.0408
  791MOL0     H 6726   3.682   2.637   7.189 -0.5008  3.0088  3.4019
  791MOL0     H 6727   3.720   2.586   7.356 -1.3955 -4.1644  2.8450
  791MOL0     H 6728   3.659   2.381   7.127  1.2997 -2.2102 -0.5321
  791MOL0     H 6729   3.822   2.440   7.152 -0.0202 -0.2112  2.0712
  791MOL0     H 6730   3.669   2.298   7.370 -1.0350  0.8101 -1.7423
  791MOL0     H 6731   3.783   2.223   7.248 -1.3891  0.7664 -0.1837
  791MOL0     H 6732   3.864   2.427   7.453 -0.9245 -1.4745  2.5292
  791MOL0     H 6733   3.968   2.353   7.326 -2.3153  1.6817 -3.2696
  791MOL0     H 6734   3.818   2.231   7.563 -0.7935  1.1682 -0.4039
  791MOL0     H 6735   3.928   2.134   7.458 -2.1361  0.0682 -0.6142
  791MOL0     H 6736   3.924   2.350   7.782 -0.5026 -3.3759 -0.1322
  791MOL0     H 6737   4.133   2.501   7.919 -0.0780  0.9914  0.3609
  791MOL0     H 6738   4.104   2.343   7.975 -0.1010  1.9019  0.7832
  791MOL0     H 6739   4.370   2.413   7.851  1.1270 -3.1536 -0.1321
  791MOL0     H 6740   4.331   2.460   8.027  0.0980 -1.2057  1.4983
  791MOL0     H 6741   4.349   2.189   7.913 -1.0099  1.8626 -1.1144
  791MOL0     H 6742   4.289   2.231   8.080 -2.1020 -0.9555 -1.0912
  791MOL0     H 6743   4.554   2.274   7.941  1.6873 -0.3281  0.2034
  791MOL0     H 6744   4.531   2.152   8.051 -2.1573 -0.5958 -1.4736
  791MOL0     H 6745   4.679   2.105   8.182 -1.0035 -1.0980  1.8357
  791MOL0     H 6746   4.901   2.088   8.266  1.1274  1.0870 -1.2318
  791MOL0     H 6747   5.065   2.188   8.666 -1.2219 -1.6562 -0.2478
  791MOL0     H 6748   5.184   2.074   8.845  1.7736 -1.5184  1.5868
  791MOL0     H 6749   5.463   1.906   9.018 -2.3860 -1.9112  2.8252
  791MOL0     H 6750   5.338   2.028   8.994 -2.1140 -0.4575  1.2590
  791MOL0     H 6751   5.197   1.841   8.892  1.3079 -0.7332 -0.5206
  791MOL0     H 6752   5.323   1.731   8.915 -0.1582  0.2827 -2.4153
  791MOL0     H 6753   5.316   1.819   9.174  0.3652 -0.2115  0.3794
  791MOL0     H 6754   5.143   1.842   9.130  0.5162 -0.3207  1.5090
  791MOL0     H 6755   5.193   1.624   9.232  1.1457  2.1173 -0.0288
  791MOL0     H 6756   5.292   1.583   9.096 -0.6909 -0.8856 -0.7151
  791MOL0     H 6757   5.078   1.476   9.060 -1.6852  0.4532  1.6766
  791MOL0     H 6758   5.134   1.592   8.936 -0.1842  2.0333  0.4663
  791MOL0     H 6759   4.926   1.663   9.152  2.8360  3.2131  0.5271
  791MOL0     H 6760   4.949   1.753   9.001 -2.8438 -2.3251 -3.3943
  791MOL0     H 6761   4.825   1.477   9.038  0.6938  0.1524 -0.5164
  791MOL0     H 6762   4.849   1.541   8.881  1.0789 -2.3904  1.6850
  791MOL0     H 6763   4.654   1.631   9.091 -0.9231 -2.8294 -0.3379
  791MOL0     H 6764   4.709   1.743   8.952 -1.9978 -1.1696 -0.8454
  791MOL0     H 6765   5.486   1.967   8.580 -0.1337  1.4528 -1.1951
  791MOL0     H 6766   5.358   2.049   8.387 -1.4485 -0.4631 -1.2503
  791MOL0     H 6767   4.901   2.506   8.349  0.3325  0.9420 -1.1435
  791MOL0     H 6768   4.689   2.532   8.282 -0.8472 -0.8047  1.0093
  791MOL0     H 6769   3.188   2.331   7.434 -1.4856  0.7453  5.8573
  791MOL0     H 6770   2.940   2.250   7.390  0.5857 -0.3726  1.4761
  791MOL0     H 6771   2.560   2.374   7.171  2.9119  0.9008  2.9231
  791MOL0     H 6772   2.340   2.298   7.097  1.0160  1.8840 -0.3815
  791MOL0     H 6773   2.029   2.166   7.405 -3.3962 -0.8487 -1.9783
  791MOL0     H 6774   2.126   2.022   7.372 -0.0264 -1.2572 -2.0070
  791MOL0     H 6775   2.035   1.972   7.160 -0.6635 -1.9100 -0.5642
  791MOL0     H 6776   1.945   2.128   7.163  1.5303  1.6102  2.1618
  791MOL0     H 6777   1.833   2.042   7.385  3.0955  0.4277  0.7130
  791MOL0     H 6778   1.916   1.899   7.344 -0.4324 -0.6040 -0.8479
  791MOL0     H 6779   1.782   1.852   7.146  3.0958 -2.2577  3.0036
  791MOL0     H 6780   1.701   1.853   7.295 -0.4796 -1.5711 -0.1552
  791MOL0     H 6781   1.474   2.150   7.102 -0.4758 -1.2542 -1.4688
  791MOL0     H 6782   2.261   2.152   7.493  3.6207  0.7632  3.4071
  791MOL0     H 6783   2.498   2.309   7.679  1.1766  0.3509 -0.1722
  791MOL0     H 6784   2.409   2.155   7.649 -1.5738  2.0664 -0.4598
  791MOL0     H 6785   2.574   2.168   7.610  1.0374  0.7962  0.8652
  792MOL0     O 6786   8.135   7.418   1.698 -0.4727  0.3265 -0.1220
  792MOL0     C 6787   8.075   7.389   1.599  0.1743  0.1273 -0.9790
  792MOL0     O 6788   8.120   7.311   1.497 -0.0372 -0.2066  0.2122
  792MOL0     C 6789   8.241   7.244   1.500  0.5148 -0.0196 -0.1257
  792MOL0     C 6790   8.363   7.280   1.442  0.5415 -0.5780 -0.6510
  792MOL0     C 6791   8.479   7.186   1.448  0.2412 -0.2394 -0.0347
  792MOL0     C 6792   8.463   7.070   1.524 -0.0473 -0.1111 -0.7074
  792MOL0     O 6793   8.569   6.977   1.545 -0.4526 -0.1649  0.2396
  792MOL0     C 6794   8.698   7.019   1.521  0.0348 -0.5950  0.7790
  792MOL0     C 6795   8.797   6.921   1.577 -0.1143 -0.0829  0.1576
  792MOL0     C 6796   8.938   6.981   1.564  0.1556 -0.1106 -1.2989
  792MOL0     C 6797   8.972   7.079   1.675  0.1610  0.0603 -0.9279
  792MOL0     C 6798   9.113   7.122   1.658 -0.1304  0.0704  0.1240
  792MOL0     C 6799   9.152   7.201   1.523  0.4159 -0.8515  0.2049
  792MOL0     C 6800   9.307   7.224   1.498 -0.4842  0.2415 -0.0890
  792MOL0     C 6801   9.378   7.296   1.625 -0.0573  0.3892  0.1693
  792MOL0     N 6802   9.443   7.427   1.602 -0.8252  0.7715  0.6468
  792MOL0     C 6803   9.570   7.435   1.548 -0.0623 -0.5233  0.6563
  792MOL0     C 6804   9.617   7.562   1.551 -0.4588  1.4457 -0.2644
  792MOL0     C 6805   9.739   7.622   1.487 -0.3823  0.7424 -0.3600
  792MOL0     C 6806   9.849   7.608   1.583  0.1300 -0.2675  0.0033
  792MOL0     C 6807   9.906   7.462   1.611 -0.5764  0.3560  0.0410
  792MOL0     C 6808  10.044   7.479   1.669  0.0643  0.5144  0.2214
  792MOL0     O 6809  10.094   7.344   1.716  0.1712  0.2457 -0.5300
  792MOL0     C 6810  10.224   7.324   1.758 -0.4889  0.4804 -0.3736
  792MOL0     C 6811  10.316   7.431   1.762  0.8008 -0.2242  0.2615
  792MOL0     C 6812  10.450   7.414   1.778 -0.0263 -0.9012  0.3279
  792MOL0     C 6813  10.509   7.290   1.803 -0.7384  0.5774  0.2193
  792MOL0     C 6814  10.654   7.277   1.828 -0.2001 -0.1371 -0.3182
  792MOL0     O 6815  10.732   7.388   1.835 -0.3058  0.5350  0.2664
  792MOL0     C 6816  10.866   7.379   1.872  0.2050  0.0098  1.0888
  792MOL0     C 6817  10.952   7.296   1.799 -1.2756  0.0553  0.5073
  792MOL0     C 6818  11.091   7.288   1.824  0.3693 -0.1131 -0.1260
  792MOL0     C 6819  11.138   7.361   1.941 -0.0142  0.6813 -0.7499
  792MOL0     O 6820  11.271   7.377   1.978 -0.4750 -0.1302 -0.1676
  792MOL0     C 6821  11.369   7.284   1.924 -0.6025 -0.2840 -0.3283
  792MOL0     C 6822  11.519   7.325   1.959  0.1828 -0.4881  0.6139
  792MOL0     C 6823  11.636   7.238   1.908 -0.5390 -0.4757  0.1476
  792MOL0     C 6824  11.770   7.277   1.976  0.4145 -0.7173  0.7956
  792MOL0     C 6825  11.869   7.164   1.973 -0.7946  0.7978 -0.4809
  792MOL0     C 6826  12.016   7.208   2.002 -1.1392 -0.7020 -0.6841
  792MOL0     C 6827  12.107   7.087   1.980 -0.0322  0.0321  0.3015
  792MOL0     C 6828  12.207   7.104   1.867 -0.6283 -0.2046 -0.3175
  792MOL0    Cl 6829  12.307   6.965   1.833 -0.1982  0.2355  0.3769
  792MOL0     C 6830  11.057   7.432   2.018  0.5276 -0.1322 -0.4096
  792MOL0     C 6831  10.918   7.443   1.987  0.3514  0.4736 -0.2431
  792MOL0     O 6832  10.683   7.166   1.864 -0.1993  0.6040  0.3392
  792MOL0     C 6833  10.419   7.184   1.803 -0.0403  0.3932 -0.7940
  792MOL0     C 6834  10.281   7.196   1.789  0.1586 -0.2126 -0.1186
  792MOL0     N 6835   9.517   7.629   1.614 -0.5336 -0.1893  0.7315
  792MOL0     N 6836   9.417   7.550   1.648  0.0608 -0.4761  0.7719
  792MOL0     C 6837   8.350   7.038   1.590  0.4180 -0.2760  0.3571
  792MOL0     C 6838   8.231   7.119   1.574  0.1695  0.0899 -0.2327
  792MOL0     C 6839   7.923   7.416   1.601  0.2744  0.6808  0.2947
  792MOL0     C 6840   7.847   7.321   1.536 -0.0807 -0.2827  0.1590
  792MOL0     C 6841   7.707   7.334   1.532 -0.8856 -0.1616  1.1121
  792MOL0     C 6842   7.640   7.444   1.581  0.1717 -0.0396 -0.2210
  792MOL0     O 6843   7.504   7.458   1.561 -0.0102  0.0943  0.0324
  792MOL0     C 6844   7.424   7.465   1.677 -0.5231 -0.8215  0.1177
  792MOL0     C 6845   7.381   7.611   1.706 -0.4647  0.3382 -0.1729
  792MOL0     C 6846   7.287   7.677   1.603  0.9085  0.3788 -0.2430
  792MOL0     C 6847   7.367   7.779   1.524  0.6021  0.5636  0.5654
  792MOL0     C 6848   7.448   7.721   1.419  0.3014 -0.1117 -0.2339
  792MOL0     C 6849   7.497   7.678   1.317 -0.0451  0.8685  0.3157
  792MOL0     C 6850   7.724   7.536   1.641  0.5630  0.2702 -0.3092
  792MOL0     C 6851   7.866   7.519   1.668  0.0164 -0.7508 -0.3489
  792MOL0     C 6852   7.939   7.622   1.733  0.6544  0.2715  0.1035
  792MOL0     H 6853   8.353   7.361   1.370  0.5283 -0.8515 -0.9571
  792MOL0     H 6854   8.574   7.206   1.400  0.1594 -0.8216 -0.4468
  792MOL0     H 6855   8.718   7.029   1.414  0.9839 -1.2939  0.8776
  792MOL0     H 6856   8.719   7.123   1.548 -2.6916  1.9940 -5.2885
  792MOL0     H 6857   8.813   6.832   1.516  2.9819  1.4080 -1.4720
  792MOL0     H 6858   8.756   6.876   1.668 -2.6373 -1.5207 -1.5525
  792MOL0     H 6859   8.947   7.025   1.465  3.1628  0.6497 -0.7898
  792MOL0     H 6860   9.010   6.899   1.567  1.7467  1.2535 -1.1056
  792MOL0     H 6861   8.907   7.167   1.665 -0.7282 -0.6367 -1.4727
  792MOL0     H 6862   8.968   7.029   1.772  2.1139 -1.0506 -1.3822
  792MOL0     H 6863   9.144   7.173   1.750  2.0318  0.2880 -0.6616
  792MOL0     H 6864   9.162   7.025   1.658 -3.4574 -1.7944 -1.5467
  792MOL0     H 6865   9.115   7.149   1.434  1.6082 -0.3542 -0.6182
  792MOL0     H 6866   9.107   7.300   1.522  0.8902 -0.6137  1.2403
  792MOL0     H 6867   9.334   7.293   1.417  0.8324  1.1806  1.1129
  792MOL0     H 6868   9.344   7.126   1.468  0.3577  0.5705 -0.1426
  792MOL0     H 6869   9.314   7.291   1.713  1.5885 -3.8223  1.4001
  792MOL0     H 6870   9.457   7.229   1.660 -1.2733 -0.5269  1.2574
  792MOL0     H 6871   9.633   7.354   1.515  0.2906  0.0186 -0.0306
  792MOL0     H 6872   9.770   7.566   1.399  0.1504 -4.1578  2.5861
  792MOL0     H 6873   9.721   7.728   1.466 -2.2781  0.2992 -1.1567
  792MOL0     H 6874   9.934   7.665   1.543 -0.5951  0.5791 -0.3750
  792MOL0     H 6875   9.828   7.662   1.676  1.9087  2.1602 -0.8739
  792MOL0     H 6876   9.904   7.397   1.524 -0.3679 -4.1951  3.0654
  792MOL0     H 6877   9.841   7.428   1.693  0.8939 -0.0883  1.0676
  792MOL0     H 6878  10.040   7.552   1.750 -2.3661 -1.7807  2.3501
  792MOL0     H 6879  10.112   7.512   1.589  1.4021  0.8472  1.4435
  792MOL0     H 6880  10.286   7.533   1.740  0.8429 -0.2463  0.0986
  792MOL0     H 6881  10.504   7.509   1.781 -2.8072  0.8492 -1.3242
  792MOL0     H 6882  10.899   7.254   1.714 -1.6063 -2.4698  1.8712
  792MOL0     H 6883  11.151   7.234   1.752  1.4205  0.5352  0.2493
  792MOL0     H 6884  11.354   7.183   1.963 -0.1592 -0.4127 -0.4766
  792MOL0     H 6885  11.361   7.279   1.815 -0.8722  2.5299 -0.5073
  792MOL0     H 6886  11.536   7.429   1.930  2.5755 -0.3557  2.2025
  792MOL0     H 6887  11.523   7.317   2.068 -0.8050 -3.4590  0.5318
  792MOL0     H 6888  11.607   7.134   1.924  1.4566 -1.4410 -1.9259
  792MOL0     H 6889  11.647   7.272   1.804 -2.2208  2.1654  0.7467
  792MOL0     H 6890  11.758   7.305   2.081 -0.9491 -2.0068  1.0135
  792MOL0     H 6891  11.810   7.361   1.919 -2.7071  0.1213 -0.3423
  792MOL0     H 6892  11.871   7.127   1.870  0.7629  2.8270 -1.2497
  792MOL0     H 6893  11.834   7.085   2.040  0.4383  2.0832  1.8428
  792MOL0     H 6894  12.044   7.292   1.938 -0.6773 -1.2826 -1.2537
  792MOL0     H 6895  12.016   7.243   2.105 -0.4470  1.1679 -1.2742
  792MOL0     H 6896  12.044   6.999   1.964  0.6362 -0.4465  0.2437
  792MOL0     H 6897  12.176   7.063   2.062  1.8212 -1.3643 -1.5558
  792MOL0     H 6898  12.142   7.129   1.784 -1.9310  1.5751  1.1551
  792MOL0     H 6899  12.264   7.196   1.886 -0.3415 -0.5055  0.3177
  792MOL0     H 6900  11.104   7.489   2.098  1.0376 -0.9632 -0.1006
  792MOL0     H 6901  10.858   7.501   2.056 -0.3677 -0.9637  0.3823
  792MOL0     H 6902  10.455   7.081   1.812 -1.1577  0.0586  0.0270
  792MOL0     H 6903  10.209   7.115   1.783 -0.8294  0.5584  0.7748
  792MOL0     H 6904   8.351   6.953   1.657  2.6412 -0.3362  0.3116
  792MOL0     H 6905   8.138   7.086   1.618 -0.0136  1.6765  0.6569
  792MOL0     H 6906   7.883   7.233   1.485 -1.0379 -0.2278 -0.6507
  792MOL0     H 6907   7.656   7.258   1.474  1.0398  0.5689 -1.7927
  792MOL0     H 6908   7.473   7.428   1.767 -0.1173 -1.2361 -0.2666
  792MOL0     H 6909   7.339   7.402   1.651 -0.2248 -0.6229 -1.4868
  792MOL0     H 6910   7.466   7.675   1.732 -1.2065  1.1246  0.3536
  792MOL0     H 6911   7.322   7.603   1.798 -2.5436 -1.8171 -1.5863
  792MOL0     H 6912   7.215   7.733   1.663 -1.6806 -1.9663 -0.8934
  792MOL0     H 6913   7.239   7.600   1.541  0.3661 -2.8895  3.7820
  792MOL0     H 6914   7.293   7.842   1.474 -0.9916 -1.5489  0.1052
  792MOL0     H 6915   7.416   7.855   1.585  2.7678 -2.4250  2.8157
  792MOL0     H 6916   7.556   7.628   1.243 -0.5317 -0.7174  0.9570
  792MOL0     H 6917   7.682   7.625   1.687 -2.2658 -1.4118  0.5921
  792MOL0     H 6918   7.877   7.713   1.743  1.0353  0.4512  0.9160
  792MOL0     H 6919   7.979   7.605   1.833 -0.1784  0.8451  0.5498
  792MOL0     H 6920   8.022   7.648   1.667  1.6117  0.0632  1.1992
  793MOL0     O 6921   5.499   1.915   7.424 -0.1175  0.0856 -0.2661
  793MOL0     C 6922   5.484   1.953   7.307  0.3384  0.3825  0.1137
  793MOL0     O 6923   5.566   1.915   7.201 -0.2145 -0.3483  0.9014
  793MOL0     C 6924   5.678   1.839   7.213 -0.3151  0.3960  0.8064
  793MOL0     C 6925   5.777   1.854   7.311 -0.1877  0.3178 -0.2020
  793MOL0     C 6926   5.886   1.765   7.330 -0.2440 -0.3676 -0.1650
  793MOL0     C 6927   5.889   1.654   7.250  0.1059  1.0530 -0.4521
  793MOL0     O 6928   5.983   1.547   7.262 -0.2861  0.6611  0.3471
  793MOL0     C 6929   6.116   1.561   7.218 -0.5733 -1.1142  0.1203
  793MOL0     C 6930   6.211   1.490   7.318 -1.1606 -0.2576 -0.6359
  793MOL0     C 6931   6.249   1.576   7.437  0.5951  0.1319 -0.2475
  793MOL0     C 6932   6.253   1.493   7.556  0.4656  0.1566 -0.9659
  793MOL0     C 6933   6.384   1.411   7.584 -1.1154  0.4537 -0.2861
  793MOL0     C 6934   6.467   1.472   7.702 -0.0435  0.3918  0.0939
  793MOL0     C 6935   6.600   1.399   7.729 -0.4329 -0.3486  0.6549
  793MOL0     C 6936   6.694   1.390   7.611  0.0476  0.3479  0.3771
  793MOL0     N 6937   6.811   1.484   7.610  0.0543  0.9547  0.7987
  793MOL0     C 6938   6.806   1.613   7.576 -0.4797 -0.2628 -0.0783
  793MOL0     C 6939   6.940   1.656   7.581 -0.3501 -0.0282 -0.5536
  793MOL0     C 6940   7.002   1.792   7.539  0.0579 -0.6088  0.1949
  793MOL0     C 6941   6.918   1.921   7.571  0.3396 -0.2355  0.8421
  793MOL0     C 6942   6.996   2.047   7.572 -0.0222 -0.7366 -0.0422
  793MOL0     C 6943   6.903   2.161   7.604  0.1156 -0.0717  0.4034
  793MOL0     O 6944   6.810   2.180   7.488  0.2007  0.2140 -0.0191
  793MOL0     C 6945   6.680   2.239   7.506  0.0843  0.4650  1.6529
  793MOL0     C 6946   6.657   2.349   7.583  0.0865 -0.3174 -0.7005
  793MOL0     C 6947   6.546   2.429   7.576  0.5585  1.0753  0.5148
  793MOL0     C 6948   6.441   2.391   7.495 -0.0601  0.7674 -0.1379
  793MOL0     C 6949   6.326   2.480   7.481  0.3311 -0.1213  0.2859
  793MOL0     O 6950   6.241   2.447   7.383 -0.6146  0.0451  0.6708
  793MOL0     C 6951   6.119   2.502   7.394 -0.7044  0.3486  0.5561
  793MOL0     C 6952   6.084   2.581   7.278 -0.3522  0.6670 -0.4629
  793MOL0     C 6953   5.985   2.681   7.291 -0.2815  0.5742  0.5511
  793MOL0     C 6954   5.901   2.683   7.408 -0.0929 -0.1352  0.0950
  793MOL0     O 6955   5.791   2.763   7.409  0.0389 -0.1541 -0.6587
  793MOL0     C 6956   5.703   2.769   7.523  0.2501 -0.5153  0.6051
  793MOL0     C 6957   5.596   2.877   7.492  0.0272 -0.0638 -0.8955
  793MOL0     C 6958   5.514   2.918   7.613  0.0624  0.0076 -0.7313
  793MOL0     C 6959   5.423   3.031   7.575 -0.1437  0.5272  0.8432
  793MOL0     C 6960   5.393   3.122   7.695  0.8773 -0.9528  0.6131
  793MOL0     C 6961   5.281   3.231   7.667 -0.1659  0.1509 -0.0066
  793MOL0     C 6962   5.310   3.312   7.536 -0.2315 -0.2816  0.4601
  793MOL0     C 6963   5.227   3.435   7.545  0.1939 -0.3470 -0.2216
  793MOL0    Cl 6964   5.049   3.406   7.572 -0.5062  0.3817 -0.0152
  793MOL0     C 6965   5.937   2.596   7.508  0.2404  1.1862  0.3883
  793MOL0     C 6966   6.045   2.503   7.507  0.4561 -0.0949  0.1586
  793MOL0     O 6967   6.321   2.581   7.551  0.8234 -0.4424  0.0762
  793MOL0     C 6968   6.450   2.279   7.417  0.4102 -0.0700 -0.1097
  793MOL0     C 6969   6.569   2.208   7.423 -0.0132 -1.3555  0.4344
  793MOL0     N 6970   7.012   1.549   7.632  0.3204 -0.7467 -0.2354
  793MOL0     N 6971   6.939   1.448   7.645 -0.1837 -0.3040 -0.1004
  793MOL0     C 6972   5.804   1.645   7.145 -0.0675  0.7848 -0.1425
  793MOL0     C 6973   5.695   1.728   7.130 -0.8521 -0.2135 -0.2722
  793MOL0     C 6974   5.361   2.029   7.280 -0.2203  0.5021  0.5246
  793MOL0     C 6975   5.358   2.127   7.180  0.0421  0.2620  0.0108
  793MOL0     C 6976   5.246   2.189   7.130 -0.4044 -0.1133 -0.6332
  793MOL0     C 6977   5.122   2.171   7.192  0.6630 -0.1218  0.2053
  793MOL0     O 6978   5.006   2.233   7.149  0.3041 -0.3452 -0.1232
  793MOL0     C 6979   5.025   2.376   7.124 -0.3179 -0.2566  0.5111
  793MOL0     C 6980   4.898   2.448   7.118 -0.1943 -0.0457 -0.4221
  793MOL0     C 6981   4.899   2.590   7.061 -0.6651  0.2928 -0.1112
  793MOL0     C 6982   4.937   2.698   7.159  0.0376  1.4834  0.6944
  793MOL0     C 6983   4.942   2.832   7.112  0.1919 -0.2760  0.1591
  793MOL0     C 6984   4.946   2.948   7.079 -0.5639  0.1467 -0.1992
  793MOL0     C 6985   5.118   2.068   7.284 -0.4516  0.8370  0.3634
  793MOL0     C 6986   5.231   2.001   7.333 -0.0838  0.0340  0.3171
  793MOL0     C 6987   5.204   1.887   7.435 -0.6161 -0.4715  0.1688
  793MOL0     H 6988   5.769   1.940   7.377 -0.0398 -1.5567  2.3939
  793MOL0     H 6989   5.950   1.800   7.409  0.0507  2.8833 -1.6990
  793MOL0     H 6990   6.125   1.526   7.115 -3.3609 -2.0620  0.1177
  793MOL0     H 6991   6.147   1.664   7.199 -0.3085 -1.4578 -1.3754
  793MOL0     H 6992   6.301   1.471   7.259 -1.5250  0.9391 -1.6194
  793MOL0     H 6993   6.177   1.390   7.347  0.8687 -0.4557  1.4614
  793MOL0     H 6994   6.165   1.646   7.440 -2.7725 -3.1754 -3.9987
  793MOL0     H 6995   6.347   1.620   7.416  0.2954  0.1312 -1.7583
  793MOL0     H 6996   6.238   1.563   7.639  0.4061  0.4356 -1.2126
  793MOL0     H 6997   6.166   1.428   7.548 -0.2369  1.1893 -1.9648
  793MOL0     H 6998   6.367   1.306   7.610 -0.8217  0.4449 -0.1237
  793MOL0     H 6999   6.439   1.415   7.490 -2.3816 -1.5311 -1.1771
  793MOL0     H 7000   6.482   1.577   7.675  1.1652 -0.5353 -3.4642
  793MOL0     H 7001   6.417   1.466   7.798 -1.2663 -0.0386 -0.5464
  793MOL0     H 7002   6.566   1.305   7.773 -0.9846 -0.2868  0.3688
  793MOL0     H 7003   6.665   1.436   7.809  1.7341 -0.9153 -0.7334
  793MOL0     H 7004   6.741   1.293   7.633 -0.0528  0.5770  1.7234
  793MOL0     H 7005   6.654   1.388   7.509  0.4792  2.3665  0.1242
  793MOL0     H 7006   6.722   1.670   7.538 -0.2332 -0.0046 -0.2471
  793MOL0     H 7007   7.095   1.808   7.595 -0.5487  0.0184  1.0659
  793MOL0     H 7008   7.016   1.798   7.431 -0.6263 -1.1965  0.0661
  793MOL0     H 7009   6.837   1.934   7.499  0.0869  3.1727  1.5664
  793MOL0     H 7010   6.873   1.901   7.669 -0.2829  0.9510  0.8187
  793MOL0     H 7011   7.041   2.069   7.475  0.5594  1.1599  0.5934
  793MOL0     H 7012   7.077   2.041   7.645  1.0738 -0.8930 -1.2423
  793MOL0     H 7013   6.965   2.249   7.627  3.2072 -1.4372 -1.9749
  793MOL0     H 7014   6.846   2.127   7.691 -0.0750  1.9584  1.1331
  793MOL0     H 7015   6.742   2.376   7.644 -1.1478  1.1109  0.4880
  793MOL0     H 7016   6.545   2.523   7.630 -0.2747  0.8770  0.8603
  793MOL0     H 7017   6.139   2.567   7.186  0.7203  0.1175  0.2268
  793MOL0     H 7018   5.962   2.738   7.202 -0.4453  0.2846  0.4065
  793MOL0     H 7019   5.650   2.673   7.519  0.3455 -0.5216 -2.2882
  793MOL0     H 7020   5.750   2.787   7.620 -0.8379  1.2064  0.8542
  793MOL0     H 7021   5.667   2.954   7.460  1.6522 -1.1324 -0.0309
  793MOL0     H 7022   5.539   2.837   7.407 -1.7303 -1.2273  0.7549
  793MOL0     H 7023   5.448   2.837   7.646 -1.5346 -0.2034 -4.0868
  793MOL0     H 7024   5.578   2.959   7.692 -4.4775  1.3025  2.6927
  793MOL0     H 7025   5.330   2.990   7.535  1.4925 -2.9325  0.2995
  793MOL0     H 7026   5.474   3.089   7.497  1.9397 -0.4259  1.4456
  793MOL0     H 7027   5.483   3.165   7.738  0.2567  0.4700  0.5455
  793MOL0     H 7028   5.356   3.062   7.780 -0.7748 -1.3408 -0.3263
  793MOL0     H 7029   5.181   3.189   7.655  0.1531 -0.5397 -0.2823
  793MOL0     H 7030   5.279   3.293   7.758  3.6378 -2.7501  2.3816
  793MOL0     H 7031   5.286   3.250   7.450 -1.4424  1.4797 -0.5290
  793MOL0     H 7032   5.417   3.337   7.538  1.1286 -5.0809  0.5961
  793MOL0     H 7033   5.274   3.499   7.621  0.1365 -0.8633  0.2557
  793MOL0     H 7034   5.239   3.489   7.451 -0.6421  2.4247  1.1234
  793MOL0     H 7035   5.873   2.616   7.594 -1.1435  2.7810 -0.9328
  793MOL0     H 7036   6.066   2.455   7.602 -1.0647  1.6583  1.4600
  793MOL0     H 7037   6.370   2.253   7.349  1.5252 -0.8245 -1.1762
  793MOL0     H 7038   6.585   2.129   7.351 -1.3077  0.4242 -1.9553
  793MOL0     H 7039   5.813   1.565   7.072 -3.6658  0.7646 -0.7744
  793MOL0     H 7040   5.618   1.713   7.055 -1.4271 -0.3413  0.3376
  793MOL0     H 7041   5.447   2.144   7.121  0.3518 -0.7800  0.1575
  793MOL0     H 7042   5.260   2.251   7.042 -2.3502 -0.1824 -1.0351
  793MOL0     H 7043   5.075   2.386   7.027 -1.0466 -2.1963 -0.1235
  793MOL0     H 7044   5.088   2.413   7.206 -1.2053  0.4024  0.9066
  793MOL0     H 7045   4.839   2.447   7.211 -0.2442 -1.4321 -0.4441
  793MOL0     H 7046   4.841   2.378   7.056 -0.2648 -0.6212  0.2764
  793MOL0     H 7047   4.799   2.614   7.024 -1.0997 -1.4372 -0.1124
  793MOL0     H 7048   4.955   2.601   6.968 -2.2153  5.0290 -0.7841
  793MOL0     H 7049   4.857   2.689   7.233  0.3467  0.6327  0.9378
  793MOL0     H 7050   5.033   2.671   7.204 -0.3274 -2.2982 -0.4338
  793MOL0     H 7051   4.942   3.055   7.065  1.3617  0.1107 -1.3939
  793MOL0     H 7052   5.026   2.037   7.332  1.4847  1.6099  5.0996
  793MOL0     H 7053   5.209   1.927   7.537 -2.9814  0.7249 -0.1194
  793MOL0     H 7054   5.106   1.847   7.408 -1.0757 -0.0569  1.1716
  793MOL0     H 7055   5.271   1.801   7.429 -2.0287 -1.5309 -1.0814
  794MOL0     O 7056   5.166   6.427   1.530 -0.0318 -1.0215 -0.0773
  794MOL0     C 7057   5.125   6.418   1.648 -0.3709  0.5674  0.7133
  794MOL0     O 7058   5.196   6.469   1.757  0.2823  0.4885 -0.7424
  794MOL0     C 7059   5.335   6.494   1.762  0.3889  0.4023 -0.0330
  794MOL0     C 7060   5.420   6.456   1.656 -0.4334  0.5878  0.0352
  794MOL0     C 7061   5.557   6.479   1.668 -0.4802  0.6804 -0.3419
  794MOL0     C 7062   5.614   6.526   1.790  0.8098  0.2422  0.2571
  794MOL0     O 7063   5.747   6.538   1.806  0.0393 -0.1212  0.1264
  794MOL0     C 7064   5.811   6.640   1.725  0.3818  0.2135  0.2030
  794MOL0     C 7065   5.850   6.759   1.812 -0.2865  0.5185 -0.1744
  794MOL0     C 7066   5.973   6.715   1.889  0.9452 -0.4204  0.5520
  794MOL0     C 7067   6.037   6.833   1.961 -0.6284 -0.0263 -0.1714
  794MOL0     C 7068   6.133   6.785   2.069  0.5722 -0.6435 -0.2130
  794MOL0     C 7069   6.169   6.899   2.154 -0.0643 -0.0494 -0.5275
  794MOL0     C 7070   6.259   6.855   2.272 -0.4310 -0.0033  0.0360
  794MOL0     C 7071   6.378   6.762   2.237  0.7517 -0.5211  1.4946
  794MOL0     N 7072   6.457   6.749   2.358 -0.1032 -0.0852 -0.5646
  794MOL0     C 7073   6.478   6.641   2.432  1.1130  0.5042 -1.1880
  794MOL0     C 7074   6.589   6.652   2.506  0.5085  0.6429 -1.7327
  794MOL0     C 7075   6.635   6.538   2.592  0.0731  0.3241 -0.4053
  794MOL0     C 7076   6.658   6.571   2.741  0.0747  0.2937 -1.6202
  794MOL0     C 7077   6.761   6.678   2.771 -0.3080  0.6074  0.2097
  794MOL0     C 7078   6.885   6.673   2.687 -0.6254  0.4534  0.7754
  794MOL0     O 7079   6.961   6.553   2.701  0.3035 -0.6745 -0.5996
  794MOL0     C 7080   7.059   6.542   2.795  0.7524  0.4790 -0.2501
  794MOL0     C 7081   7.115   6.410   2.802  0.1578  0.3434  0.6267
  794MOL0     C 7082   7.221   6.392   2.892 -0.1098  0.3000 -0.2992
  794MOL0     C 7083   7.261   6.493   2.985 -0.0877  0.5015  0.0834
  794MOL0     C 7084   7.360   6.458   3.083 -0.0894 -0.2820  0.4375
  794MOL0     O 7085   7.405   6.330   3.075 -0.2950 -0.4605 -0.8985
  794MOL0     C 7086   7.499   6.280   3.155  0.7494 -0.9458  0.0005
  794MOL0     C 7087   7.567   6.167   3.099 -0.4747 -0.8699 -0.1982
  794MOL0     C 7088   7.679   6.108   3.166  0.1953 -0.3034 -0.5815
  794MOL0     C 7089   7.712   6.143   3.296 -0.7175  0.1092 -0.4329
  794MOL0     O 7090   7.807   6.094   3.385 -0.9068  0.0996 -0.4567
  794MOL0     C 7091   7.901   5.994   3.344  0.4804 -0.5989  0.0578
  794MOL0     C 7092   8.001   5.944   3.461  0.4833 -0.3996 -0.9350
  794MOL0     C 7093   8.109   5.852   3.408  0.3922  0.0375 -0.3164
  794MOL0     C 7094   8.199   5.787   3.528 -0.2861  0.0296  0.6782
  794MOL0     C 7095   8.293   5.697   3.453 -0.1174 -0.6142 -0.1039
  794MOL0     C 7096   8.390   5.625   3.549 -1.2214 -0.1618  0.2339
  794MOL0     C 7097   8.499   5.548   3.464 -0.1753 -0.8172 -0.0427
  794MOL0     C 7098   8.458   5.442   3.363 -0.0366  0.1865  0.3524
  794MOL0    Cl 7099   8.394   5.283   3.442 -0.3723  0.0747  0.3897
  794MOL0     C 7100   7.638   6.248   3.352 -0.0671  1.1559 -0.3099
  794MOL0     C 7101   7.541   6.323   3.286  0.5474 -1.0896  0.1351
  794MOL0     O 7102   7.398   6.542   3.158  0.2626 -0.4916 -0.4256
  794MOL0     C 7103   7.201   6.616   2.970 -0.2176  0.2676  0.4971
  794MOL0     C 7104   7.105   6.641   2.874 -0.0345  0.4708 -0.2739
  794MOL0     N 7105   6.641   6.769   2.471 -0.8994 -1.3769 -1.2965
  794MOL0     N 7106   6.564   6.819   2.384  0.3330 -0.5471  0.1226
  794MOL0     C 7107   5.528   6.552   1.902 -0.4343 -0.5904 -0.2519
  794MOL0     C 7108   5.387   6.539   1.881 -0.0795  0.2251  0.5425
  794MOL0     C 7109   5.008   6.332   1.687  0.0525 -0.4429 -0.3480
  794MOL0     C 7110   5.016   6.265   1.813 -0.7290  0.0912 -0.2116
  794MOL0     C 7111   4.907   6.195   1.858  0.0403  0.8672 -0.5433
  794MOL0     C 7112   4.799   6.165   1.766  0.4705  0.6198 -0.9997
  794MOL0     O 7113   4.682   6.097   1.795 -0.0344  0.5749 -0.5792
  794MOL0     C 7114   4.566   6.174   1.833  0.2711  0.5304  0.4600
  794MOL0     C 7115   4.572   6.240   1.974  0.0450 -0.7887  0.3915
  794MOL0     C 7116   4.448   6.286   2.049  0.2885 -0.1027 -0.3536
  794MOL0     C 7117   4.350   6.172   2.087 -0.1178  0.0153  0.3055
  794MOL0     C 7118   4.289   6.190   2.214 -0.3416 -0.6062 -0.1682
  794MOL0     C 7119   4.219   6.231   2.305 -0.2755 -0.5868 -0.6066
  794MOL0     C 7120   4.800   6.216   1.641  0.0129 -0.0889  0.1966
  794MOL0     C 7121   4.898   6.298   1.602 -0.9542 -0.5343  0.6787
  794MOL0     C 7122   4.903   6.351   1.458  0.4214 -0.1252  0.9007
  794MOL0     H 7123   5.379   6.403   1.571  0.9634 -0.1729 -0.1846
  794MOL0     H 7124   5.622   6.471   1.581 -2.5681 -0.9400 -1.8550
  794MOL0     H 7125   5.903   6.598   1.682  0.4676 -1.2956  1.7698
  794MOL0     H 7126   5.750   6.683   1.645 -1.3492 -2.4875 -0.0617
  794MOL0     H 7127   5.768   6.780   1.882 -0.0257 -0.7807  0.5570
  794MOL0     H 7128   5.879   6.849   1.757  3.2580 -0.0540  0.5077
  794MOL0     H 7129   6.052   6.674   1.825  2.2368  3.5110 -0.6510
  794MOL0     H 7130   5.945   6.636   1.959 -3.7597  0.1888 -0.2884
  794MOL0     H 7131   6.093   6.892   1.888  1.6292 -3.9032 -1.8639
  794MOL0     H 7132   5.959   6.892   2.010  0.5774  0.6111  1.0680
  794MOL0     H 7133   6.080   6.703   2.118 -1.3832 -0.2527 -1.5226
  794MOL0     H 7134   6.223   6.747   2.021  1.6912  1.8111 -0.1835
  794MOL0     H 7135   6.219   6.967   2.084 -3.3543  2.3651 -0.7583
  794MOL0     H 7136   6.079   6.949   2.189 -0.9250 -2.8764  1.7062
  794MOL0     H 7137   6.199   6.800   2.344 -0.2554 -2.1006 -1.3522
  794MOL0     H 7138   6.298   6.942   2.325  0.9105 -1.2697  1.2060
  794MOL0     H 7139   6.318   6.676   2.207  0.4470  0.0230  0.5081
  794MOL0     H 7140   6.431   6.795   2.148 -0.4185 -3.4708 -0.4381
  794MOL0     H 7141   6.413   6.554   2.428 -1.2832  2.0976  0.4207
  794MOL0     H 7142   6.561   6.458   2.587  0.1604  0.2185 -5.0378
  794MOL0     H 7143   6.722   6.502   2.537 -1.0905 -0.4942 -1.7971
  794MOL0     H 7144   6.563   6.603   2.785  1.7479  1.9829  0.9917
  794MOL0     H 7145   6.690   6.474   2.781  1.6476  0.5885 -2.0782
  794MOL0     H 7146   6.785   6.674   2.878 -1.9966  0.6192  0.6182
  794MOL0     H 7147   6.713   6.775   2.755 -0.1911  0.9152  1.5538
  794MOL0     H 7148   6.945   6.763   2.707 -2.2000  2.1262 -1.4362
  794MOL0     H 7149   6.869   6.695   2.581  2.5657 -0.9622 -0.1352
  794MOL0     H 7150   7.074   6.332   2.739  2.2620 -1.2633  1.1273
  794MOL0     H 7151   7.250   6.292   2.923 -1.7326  0.2807  1.3519
  794MOL0     H 7152   7.537   6.133   3.000  1.8396  0.7645 -1.5819
  794MOL0     H 7153   7.723   6.021   3.118 -0.8865 -1.3557  0.2646
  794MOL0     H 7154   7.846   5.907   3.306  1.4315 -0.6210 -1.3644
  794MOL0     H 7155   7.953   6.024   3.252 -0.3113 -1.6088 -0.7415
  794MOL0     H 7156   8.041   6.030   3.516 -0.2497 -0.7865  0.2432
  794MOL0     H 7157   7.938   5.874   3.516 -1.1788  1.1435 -0.7866
  794MOL0     H 7158   8.055   5.781   3.344 -1.8200  0.2946  1.1348
  794MOL0     H 7159   8.178   5.906   3.342  0.3930 -0.0496 -0.3878
  794MOL0     H 7160   8.144   5.717   3.592  0.8521  0.4683  2.1833
  794MOL0     H 7161   8.254   5.858   3.591  1.8704  0.4678 -1.5069
  794MOL0     H 7162   8.353   5.749   3.377  1.0183 -0.9759  0.5252
  794MOL0     H 7163   8.233   5.633   3.387 -2.1873  0.6425  0.4517
  794MOL0     H 7164   8.446   5.691   3.615  2.2986 -0.3288 -2.2735
  794MOL0     H 7165   8.326   5.555   3.604 -0.9448 -0.4704  0.1686
  794MOL0     H 7166   8.569   5.497   3.531 -1.1449  1.1016  2.6180
  794MOL0     H 7167   8.553   5.628   3.412 -0.8718  0.1622  0.6868
  794MOL0     H 7168   8.397   5.483   3.282 -0.2235 -1.2763 -0.2692
  794MOL0     H 7169   8.554   5.419   3.317 -0.7439 -2.3222  0.0189
  794MOL0     H 7170   7.661   6.267   3.457 -0.0181  0.9688 -0.2869
  794MOL0     H 7171   7.495   6.412   3.326  1.8656  0.0890 -0.8760
  794MOL0     H 7172   7.223   6.699   3.037  1.3624  0.0291  0.2938
  794MOL0     H 7173   7.068   6.744   2.873  0.9660  0.9242  2.2069
  794MOL0     H 7174   5.584   6.596   1.984  2.7340  2.1646 -3.5801
  794MOL0     H 7175   5.313   6.562   1.957 -2.3597  0.7315 -1.6862
  794MOL0     H 7176   5.092   6.287   1.887 -1.2954 -1.7038  0.9787
  794MOL0     H 7177   4.920   6.136   1.948  1.8609 -0.2149 -1.4535
  794MOL0     H 7178   4.478   6.109   1.835  0.4563  0.2666 -0.0216
  794MOL0     H 7179   4.551   6.255   1.761 -4.1747 -0.5568 -0.1244
  794MOL0     H 7180   4.622   6.334   1.949 -0.8824 -0.0360  1.2716
  794MOL0     H 7181   4.635   6.190   2.048  2.1223  0.6474 -0.2885
  794MOL0     H 7182   4.395   6.369   2.000 -1.4004 -1.3277 -0.6802
  794MOL0     H 7183   4.486   6.323   2.145 -0.9996 -3.3956  1.5665
  794MOL0     H 7184   4.275   6.168   2.008 -0.0902  1.5312  0.1619
  794MOL0     H 7185   4.388   6.070   2.088  0.0352  0.0738  0.6499
  794MOL0     H 7186   4.157   6.252   2.390 -2.6877  0.1888 -2.4627
  794MOL0     H 7187   4.721   6.203   1.568  2.4320 -1.3362 -2.4124
  794MOL0     H 7188   4.805   6.326   1.415  1.2413 -3.5264  0.7191
  794MOL0     H 7189   4.916   6.459   1.452  2.7823 -0.2864  1.9932
  794MOL0     H 7190   4.982   6.309   1.394 -1.9146 -0.8844 -1.7143
  795MOL0     O 7191  11.353   5.402  10.470 -0.4234  0.3418 -0.4787
  795MOL0     C 7192  11.240   5.458  10.456 -0.1763  0.4361  0.8073
  795MOL0     O 7193  11.217   5.588  10.472 -0.2318 -0.8767  0.2356
  795MOL0     C 7194  11.331   5.672  10.495 -0.6082  0.4013 -0.6875
  795MOL0     C 7195  11.427   5.687  10.401 -0.4084  0.0269  0.0066
  795MOL0     C 7196  11.554   5.745  10.430  1.4493 -0.2646 -0.4606
  795MOL0     C 7197  11.577   5.788  10.562 -0.7622  0.3755 -0.6758
  795MOL0     O 7198  11.703   5.836  10.596  0.0496 -0.4778  0.7739
  795MOL0     C 7199  11.789   5.726  10.634 -0.5660  0.5313  0.9863
  795MOL0     C 7200  11.914   5.775  10.705  0.4394 -0.0848 -0.0993
  795MOL0     C 7201  11.872   5.852  10.838  0.1247 -0.3044 -0.8961
  795MOL0     C 7202  11.997   5.898  10.909 -1.2529 -1.0998  0.1414
  795MOL0     C 7203  11.970   5.990  11.033  0.0919  0.2687  0.6309
  795MOL0     C 7204  12.111   6.002  11.102  0.9734 -0.0122 -0.4122
  795MOL0     C 7205  12.111   6.076  11.234  0.4516  0.4352  0.4106
  795MOL0     C 7206  12.256   6.060  11.296  0.2740  0.0869 -0.0711
  795MOL0     N 7207  12.270   6.160  11.402  0.1586  0.6645 -0.0486
  795MOL0     C 7208  12.295   6.123  11.534  0.4110 -1.4850 -0.6562
  795MOL0     C 7209  12.345   6.237  11.591 -0.6791  0.2011 -0.0583
  795MOL0     C 7210  12.387   6.276  11.731  0.2030 -0.0574  0.2348
  795MOL0     C 7211  12.526   6.226  11.758  0.0070 -0.2699 -0.9282
  795MOL0     C 7212  12.515   6.071  11.779  0.3812 -0.4412 -0.2718
  795MOL0     C 7213  12.649   5.988  11.757 -0.4863  0.4191  0.5991
  795MOL0     O 7214  12.713   6.025  11.635 -1.0270 -0.4634  0.8156
  795MOL0     C 7215  12.669   5.979  11.511 -0.5910 -1.2060  0.1731
  795MOL0     C 7216  12.610   5.854  11.485  0.8813 -0.1829  0.4731
  795MOL0     C 7217  12.571   5.814  11.353 -0.5933 -0.1358  0.0802
  795MOL0     C 7218  12.582   5.907  11.247 -0.6999 -0.0718 -0.5901
  795MOL0     C 7219  12.554   5.872  11.107  0.1597  0.5025  0.4610
  795MOL0     O 7220  12.520   5.962  11.017  0.2064  0.6310  0.3049
  795MOL0     C 7221  12.519   5.938  10.876  0.4988 -0.0642  0.1017
  795MOL0     C 7222  12.620   5.869  10.804  0.3774  0.5045 -0.6492
  795MOL0     C 7223  12.622   5.876  10.666 -0.6242 -0.1718 -0.5399
  795MOL0     C 7224  12.523   5.945  10.600 -0.6211 -1.1988 -0.1807
  795MOL0     O 7225  12.516   5.949  10.466  0.5453 -0.3337  0.3762
  795MOL0     C 7226  12.484   5.823  10.394 -0.1669  0.6641  0.9214
  795MOL0     C 7227  12.347   5.763  10.429 -0.4608 -0.2144 -0.1393
  795MOL0     C 7228  12.354   5.660  10.538  0.0116 -0.5851  0.0537
  795MOL0     C 7229  12.227   5.585  10.548  1.0890 -0.0263  0.0250
  795MOL0     C 7230  12.226   5.488  10.668 -0.2720  0.8427 -0.6231
  795MOL0     C 7231  12.104   5.384  10.665  0.3484 -1.1045  0.0349
  795MOL0     C 7232  12.138   5.280  10.763  0.2643  0.1263 -0.7975
  795MOL0     C 7233  12.010   5.216  10.812 -0.2718 -0.3551 -1.1119
  795MOL0    Cl 7234  12.042   5.080  10.928 -0.3784  0.0512  0.0837
  795MOL0     C 7235  12.426   6.014  10.662 -0.1059 -0.4521  0.6982
  795MOL0     C 7236  12.435   6.018  10.805  0.2218  0.1435  1.3823
  795MOL0     O 7237  12.550   5.751  11.082 -0.9123  0.2912  0.4161
  795MOL0     C 7238  12.628   6.032  11.279  0.0225  0.3878  0.7695
  795MOL0     C 7239  12.677   6.065  11.398  0.3351  1.3527 -0.5237
  795MOL0     N 7240  12.342   6.341  11.496 -0.3452  0.6170  0.0650
  795MOL0     N 7241  12.298   6.290  11.380 -0.0655 -0.1948 -0.7998
  795MOL0     C 7242  11.482   5.768  10.662 -0.0797  0.4656  0.5611
  795MOL0     C 7243  11.360   5.711  10.627 -0.1783 -0.6581  0.1170
  795MOL0     C 7244  11.118   5.371  10.435 -0.3065  0.1579 -0.2592
  795MOL0     C 7245  10.990   5.435  10.441 -0.2301  0.4773  0.1844
  795MOL0     C 7246  10.874   5.361  10.430  0.1128  0.3605 -0.2053
  795MOL0     C 7247  10.874   5.225  10.399 -0.9408 -0.3739 -0.7226
  795MOL0     O 7248  10.757   5.156  10.374  0.1898  0.1719  0.1452
  795MOL0     C 7249  10.639   5.170  10.453 -0.3343 -0.0368 -1.1839
  795MOL0     C 7250  10.664   5.108  10.590 -0.1106  0.5219 -0.5543
  795MOL0     C 7251  10.681   4.958  10.592  0.0603 -0.8261 -1.1871
  795MOL0     C 7252  10.751   4.912  10.716 -0.4459  0.1682  0.1533
  795MOL0     C 7253  10.899   4.927  10.695 -0.2292 -0.0912 -0.0535
  795MOL0     C 7254  11.021   4.949  10.666 -0.0824  0.6655 -0.5139
  795MOL0     C 7255  10.991   5.161  10.398 -0.6384  0.3574 -0.1055
  795MOL0     C 7256  11.120   5.227  10.412  0.7113 -0.1170  0.3834
  795MOL0     C 7257  11.248   5.146  10.425  0.0529 -0.0828  0.0920
  795MOL0     H 7258  11.418   5.640  10.303 -1.9567 -0.4644  0.3730
  795MOL0     H 7259  11.640   5.749  10.365  0.8879 -0.2708 -1.2177
  795MOL0     H 7260  11.737   5.643  10.682 -3.7453  1.0585 -1.2468
  795MOL0     H 7261  11.818   5.667  10.547 -0.3369 -1.1973  2.1856
  795MOL0     H 7262  11.971   5.835  10.633 -0.5364  0.6478 -0.2780
  795MOL0     H 7263  11.971   5.687  10.736 -0.3621 -0.6460 -0.1929
  795MOL0     H 7264  11.820   5.783  10.904  0.1964 -1.3652 -1.9076
  795MOL0     H 7265  11.810   5.941  10.821 -1.1835 -1.5041 -2.7474
  795MOL0     H 7266  12.059   5.814  10.940  1.1776  0.7146  0.5107
  795MOL0     H 7267  12.048   5.964  10.839 -1.4818 -0.1885  0.8155
  795MOL0     H 7268  11.922   6.083  11.003  0.9158  0.5291  0.0966
  795MOL0     H 7269  11.903   5.929  11.096  1.6151 -1.8024  0.3550
  795MOL0     H 7270  12.154   5.903  11.114 -0.3576 -0.5721 -0.0954
  795MOL0     H 7271  12.167   6.061  11.029  0.0952  0.1747 -0.9554
  795MOL0     H 7272  12.030   6.034  11.294 -0.4996 -0.5492 -1.4825
  795MOL0     H 7273  12.087   6.181  11.213  0.9348  0.9133  2.1196
  795MOL0     H 7274  12.266   5.959  11.338 -2.9960 -0.5225 -0.4890
  795MOL0     H 7275  12.330   6.075  11.216 -0.2953  0.8488 -0.4572
  795MOL0     H 7276  12.277   6.026  11.578  2.9637 -1.2895  1.0196
  795MOL0     H 7277  12.384   6.383  11.754 -0.4182 -0.0450  0.1257
  795MOL0     H 7278  12.317   6.218  11.792  0.2578 -2.8015 -2.0952
  795MOL0     H 7279  12.590   6.252  11.673  1.5132 -3.5219 -0.9269
  795MOL0     H 7280  12.576   6.275  11.842  0.0433 -0.1345 -1.0278
  795MOL0     H 7281  12.435   6.014  11.731  0.3953 -1.1687  0.5451
  795MOL0     H 7282  12.476   6.063  11.881  0.6458  0.8229 -0.0546
  795MOL0     H 7283  12.630   5.880  11.763  0.0270  0.1511 -1.6118
  795MOL0     H 7284  12.727   6.011  11.830  0.9034 -0.7211 -0.4415
  795MOL0     H 7285  12.594   5.784  11.567  0.9770 -1.2114 -0.3740
  795MOL0     H 7286  12.534   5.712  11.345  2.6729 -1.7904  3.2513
  795MOL0     H 7287  12.693   5.811  10.861 -2.0122 -2.1873 -0.0974
  795MOL0     H 7288  12.696   5.821  10.608  1.2025  2.2561 -0.6242
  795MOL0     H 7289  12.483   5.845  10.287 -2.1120 -1.6281  0.3922
  795MOL0     H 7290  12.561   5.752  10.428 -0.2435  0.7155  1.2010
  795MOL0     H 7291  12.275   5.843  10.451 -0.6042  0.5620 -2.9855
  795MOL0     H 7292  12.315   5.727  10.331 -2.4671  1.0162  0.0147
  795MOL0     H 7293  12.437   5.589  10.534  0.7035  0.2203 -0.3299
  795MOL0     H 7294  12.361   5.709  10.636 -2.8246  2.0071 -0.8901
  795MOL0     H 7295  12.216   5.534  10.451 -1.2231  1.6032 -0.6652
  795MOL0     H 7296  12.151   5.663  10.559  0.1751 -0.6497 -1.4832
  795MOL0     H 7297  12.217   5.542  10.763  0.3454  1.5206 -0.9376
  795MOL0     H 7298  12.321   5.433  10.667  0.4499  1.9989 -3.5070
  795MOL0     H 7299  12.009   5.438  10.675  1.2709  0.3949  1.2537
  795MOL0     H 7300  12.096   5.339  10.565 -0.2600  2.4393 -1.6784
  795MOL0     H 7301  12.205   5.310  10.843  0.9588  0.3333 -1.4505
  795MOL0     H 7302  12.190   5.203  10.706 -1.0080 -1.6991  0.3935
  795MOL0     H 7303  11.946   5.297  10.847 -1.4285 -0.2572 -3.3256
  795MOL0     H 7304  11.960   5.172  10.725 -2.5331  0.4567 -0.2829
  795MOL0     H 7305  12.349   6.065  10.605 -0.6232 -3.3533 -1.4289
  795MOL0     H 7306  12.359   6.077  10.855  0.9186  0.1430  2.4832
  795MOL0     H 7307  12.642   6.112  11.207  2.7317  0.5818  1.3887
  795MOL0     H 7308  12.727   6.161  11.407  0.8469  0.9155  2.7099
  795MOL0     H 7309  11.499   5.810  10.760 -0.0961  0.3456  0.6147
  795MOL0     H 7310  11.280   5.701  10.699 -0.8338  0.4707 -0.4400
  795MOL0     H 7311  10.985   5.543  10.436  0.1804  0.4339 -3.1521
  795MOL0     H 7312  10.780   5.413  10.446 -0.5287 -0.9257  0.3385
  795MOL0     H 7313  10.571   5.101  10.401  1.2034 -1.4627 -1.4140
  795MOL0     H 7314  10.595   5.270  10.458 -0.7210 -0.2606  0.3954
  795MOL0     H 7315  10.586   5.147  10.657  1.4263  3.6155 -0.3925
  795MOL0     H 7316  10.754   5.151  10.633 -0.8054  0.4002  1.0987
  795MOL0     H 7317  10.734   4.927  10.502 -0.0185 -2.8751 -0.5929
  795MOL0     H 7318  10.586   4.903  10.587 -0.7714 -0.0617  2.9483
  795MOL0     H 7319  10.714   4.960  10.806 -0.8247 -3.0439  1.8822
  795MOL0     H 7320  10.733   4.804  10.718  1.7075 -0.4058 -2.8860
  795MOL0     H 7321  11.120   4.980  10.640  0.7307 -1.3913 -0.0329
  795MOL0     H 7322  10.977   5.055  10.382 -2.0038  0.3035  1.2234
  795MOL0     H 7323  11.278   5.140  10.530  1.9333 -0.8344 -0.4344
  795MOL0     H 7324  11.233   5.042  10.397 -0.3796  0.1063 -0.3913
  795MOL0     H 7325  11.334   5.187  10.371  0.8046  1.1150  2.0846
  796MOL0     O 7326   9.024   1.430   2.803  0.4143 -0.1987 -0.1798
  796MOL0     C 7327   9.067   1.368   2.709  0.8409  0.5004  0.2720
  796MOL0     O 7328   9.142   1.253   2.709 -0.3869  0.5833  0.2521
  796MOL0     C 7329   9.182   1.207   2.829  0.4520 -0.1233  0.9023
  796MOL0     C 7330   9.094   1.134   2.909  0.5141  0.3355  0.9933
  796MOL0     C 7331   9.132   1.077   3.029 -1.1540 -0.2554  0.1217
  796MOL0     C 7332   9.257   1.121   3.092  0.2293  0.4041  0.5712
  796MOL0     O 7333   9.292   1.080   3.215 -0.5402  0.3055 -0.4836
  796MOL0     C 7334   9.283   0.932   3.245 -0.7310  0.4100  0.2083
  796MOL0     C 7335   9.394   0.841   3.181 -0.2670 -0.8389 -1.3343
  796MOL0     C 7336   9.406   0.703   3.260 -0.2212 -0.8594  0.7639
  796MOL0     C 7337   9.513   0.597   3.202  1.0018 -0.6868  0.0375
  796MOL0     C 7338   9.533   0.482   3.300  0.0475  0.7931 -0.0160
  796MOL0     C 7339   9.642   0.381   3.246  0.2975  0.6247 -0.7009
  796MOL0     C 7340   9.683   0.286   3.366  0.4279 -0.4950  0.2469
  796MOL0     C 7341   9.780   0.170   3.325 -0.8189  0.4922  0.4236
  796MOL0     N 7342   9.920   0.222   3.298 -0.6316 -0.1592  0.0519
  796MOL0     C 7343  10.033   0.153   3.335  0.5393  0.3836 -0.1976
  796MOL0     C 7344  10.137   0.217   3.269  0.3950  0.1363  0.3749
  796MOL0     C 7345  10.274   0.175   3.287 -0.5766 -0.4265 -0.1371
  796MOL0     C 7346  10.353   0.300   3.348 -0.1225 -0.0231 -0.7626
  796MOL0     C 7347  10.485   0.258   3.418  0.5922  0.6971 -0.6183
  796MOL0     C 7348  10.589   0.180   3.332 -0.9188 -0.3320 -0.2152
  796MOL0     O 7349  10.706   0.213   3.399 -0.4593  0.4833  0.8967
  796MOL0     C 7350  10.824   0.153   3.374  0.0347 -0.3427  0.7511
  796MOL0     C 7351  10.853   0.081   3.255  0.3659  0.2995  0.1660
  796MOL0     C 7352  10.976   0.031   3.236 -0.8758  0.1797 -0.2504
  796MOL0     C 7353  11.087   0.044   3.322  0.0282  0.0006  0.4244
  796MOL0     C 7354  11.212  -0.029   3.301  0.2807  0.5396  0.3614
  796MOL0     O 7355  11.238  -0.105   3.187  0.8748 -0.2007 -0.4223
  796MOL0     C 7356  11.369  -0.141   3.162 -0.2836  0.5309 -0.0556
  796MOL0     C 7357  11.453  -0.039   3.097  0.0344  0.5463 -0.1192
  796MOL0     C 7358  11.591  -0.059   3.069 -0.6264  0.9138  0.6309
  796MOL0     C 7359  11.649  -0.181   3.098 -0.8105  0.1670  0.3918
  796MOL0     O 7360  11.775  -0.209   3.066 -0.4288  0.2482  0.5423
  796MOL0     C 7361  11.858  -0.109   2.999 -0.8900 -0.0580  0.0388
  796MOL0     C 7362  12.002  -0.171   2.988 -0.6071 -0.3900 -0.3892
  796MOL0     C 7363  12.063  -0.194   3.132 -0.0708  0.6820  0.0836
  796MOL0     C 7364  12.215  -0.210   3.117 -0.1988  0.3810 -0.1932
  796MOL0     C 7365  12.276  -0.278   3.239 -0.7542 -0.5355  0.1181
  796MOL0     C 7366  12.428  -0.266   3.232 -0.6131 -0.6063  0.1903
  796MOL0     C 7367  12.492  -0.296   3.094 -0.5867  0.0498  0.3440
  796MOL0     C 7368  12.635  -0.327   3.113  0.1044 -0.0231  0.6612
  796MOL0    Cl 7369  12.677  -0.416   2.961 -0.1991  0.1839  0.4319
  796MOL0     C 7370  11.579  -0.274   3.175 -0.2654  1.1234 -0.7006
  796MOL0     C 7371  11.438  -0.254   3.205 -1.4779  0.1638 -0.3897
  796MOL0     O 7372  11.298   0.001   3.385 -0.1375 -0.3059 -0.3264
  796MOL0     C 7373  11.067   0.140   3.423 -0.1552 -0.7005 -0.2659
  796MOL0     C 7374  10.939   0.192   3.446 -0.4094 -0.4451 -0.3180
  796MOL0     N 7375  10.080   0.323   3.197 -0.2143 -0.1603  0.4408
  796MOL0     N 7376   9.956   0.328   3.219  0.3682 -0.4325 -0.0944
  796MOL0     C 7377   9.333   1.213   3.014  0.0177 -0.5432  0.3451
  796MOL0     C 7378   9.299   1.247   2.883  0.5277  0.2953 -0.0582
  796MOL0     C 7379   9.032   1.423   2.574 -0.2656 -0.2526  0.2130
  796MOL0     C 7380   9.094   1.367   2.463  1.3434  0.1381  0.2457
  796MOL0     C 7381   9.049   1.390   2.332  0.3062 -0.6654 -1.0064
  796MOL0     C 7382   8.961   1.492   2.308  0.4766  0.5314  0.3167
  796MOL0     O 7383   8.924   1.537   2.179 -0.7226  0.1792  0.1510
  796MOL0     C 7384   8.928   1.444   2.077 -0.4971 -0.2025  0.0632
  796MOL0     C 7385   8.867   1.505   1.950  0.5131 -0.3278 -0.1039
  796MOL0     C 7386   8.843   1.403   1.835 -0.2189 -0.5998 -0.7618
  796MOL0     C 7387   8.720   1.438   1.744  0.0349 -0.0642 -0.3702
  796MOL0     C 7388   8.726   1.359   1.620 -0.1208  0.3198 -0.1705
  796MOL0     C 7389   8.731   1.292   1.519  0.1374 -0.6322 -0.6980
  796MOL0     C 7390   8.901   1.554   2.420  0.2191 -0.1358 -0.3415
  796MOL0     C 7391   8.930   1.524   2.553 -0.0099 -0.1379 -0.7095
  796MOL0     C 7392   8.858   1.603   2.655 -0.1848  0.2058  0.7754
  796MOL0     H 7393   8.997   1.105   2.868  0.4206 -1.2085  2.2035
  796MOL0     H 7394   9.058   1.011   3.072 -2.6423  0.1101 -1.7464
  796MOL0     H 7395   9.290   0.928   3.354 -0.3991  2.1375  0.2755
  796MOL0     H 7396   9.199   0.885   3.193  1.2287 -1.8379 -1.1596
  796MOL0     H 7397   9.489   0.894   3.194 -2.7171  3.2637  2.8071
  796MOL0     H 7398   9.381   0.820   3.074 -2.4512  4.5545 -2.4545
  796MOL0     H 7399   9.309   0.659   3.285 -1.0468  1.2482  1.5171
  796MOL0     H 7400   9.446   0.725   3.360  0.5250 -1.3328  0.5751
  796MOL0     H 7401   9.478   0.554   3.108  2.6807 -2.5519  0.1909
  796MOL0     H 7402   9.607   0.654   3.197  1.4169 -1.0737  2.1932
  796MOL0     H 7403   9.555   0.511   3.404 -2.2184  0.6396  0.5634
  796MOL0     H 7404   9.439   0.426   3.303 -0.8946  2.3205  0.8445
  796MOL0     H 7405   9.593   0.329   3.163 -0.7010 -1.0165  0.8280
  796MOL0     H 7406   9.727   0.442   3.215 -0.1695  1.8462  0.3457
  796MOL0     H 7407   9.587   0.246   3.401 -2.2373  3.9292 -1.1101
  796MOL0     H 7408   9.731   0.355   3.435 -0.7305  3.3965 -2.5135
  796MOL0     H 7409   9.795   0.089   3.396  1.6553  0.4170 -0.0989
  796MOL0     H 7410   9.728   0.131   3.237  0.1586  0.0975  0.0071
  796MOL0     H 7411  10.035   0.073   3.408  3.1487 -0.4613 -1.1054
  796MOL0     H 7412  10.280   0.080   3.341  0.9089 -0.5722 -0.5048
  796MOL0     H 7413  10.315   0.146   3.190  1.9022 -2.9064  1.5079
  796MOL0     H 7414  10.376   0.372   3.269 -2.1856  1.2589 -0.2513
  796MOL0     H 7415  10.287   0.353   3.417  1.2604  1.5809 -0.6071
  796MOL0     H 7416  10.459   0.184   3.494  0.8228  2.0814  0.8489
  796MOL0     H 7417  10.531   0.347   3.460  2.3461 -0.0883 -0.8025
  796MOL0     H 7418  10.600   0.224   3.233 -0.9352  2.6283  0.9971
  796MOL0     H 7419  10.563   0.073   3.334 -1.4858 -0.1926  0.4441
  796MOL0     H 7420  10.780   0.067   3.176  1.4196 -2.7589 -0.4346
  796MOL0     H 7421  10.996  -0.028   3.148  0.7033 -2.8497  1.9689
  796MOL0     H 7422  11.410   0.050   3.054  1.5920  1.0220 -0.7777
  796MOL0     H 7423  11.648   0.021   3.024 -1.8555  0.5642 -1.6980
  796MOL0     H 7424  11.824  -0.089   2.897  0.3089 -0.4045 -0.4467
  796MOL0     H 7425  11.859  -0.023   3.068  4.4823 -0.8576  1.4226
  796MOL0     H 7426  11.994  -0.267   2.935  1.1873 -1.0674  0.4598
  796MOL0     H 7427  12.074  -0.104   2.940  0.5609 -0.6641  0.9161
  796MOL0     H 7428  12.042  -0.110   3.199 -1.4207 -1.3607  2.4084
  796MOL0     H 7429  12.021  -0.284   3.177  0.6945  0.1490 -0.2510
  796MOL0     H 7430  12.260  -0.113   3.094  0.4685 -0.0180 -0.5866
  796MOL0     H 7431  12.221  -0.269   3.025 -0.2479  0.3283 -0.1620
  796MOL0     H 7432  12.255  -0.385   3.233  0.5668 -0.8838  1.2579
  796MOL0     H 7433  12.248  -0.231   3.333  1.1132 -3.0248  2.0379
  796MOL0     H 7434  12.471  -0.169   3.261 -1.9289 -0.2011  0.9167
  796MOL0     H 7435  12.465  -0.342   3.302  0.3334 -1.7598 -1.4961
  796MOL0     H 7436  12.473  -0.220   3.018  0.3569  0.9268  0.9668
  796MOL0     H 7437  12.440  -0.387   3.062 -0.1925 -1.3986  3.4242
  796MOL0     H 7438  12.694  -0.235   3.112  0.4122 -0.2193  0.2623
  796MOL0     H 7439  12.655  -0.400   3.192  0.4137 -2.3833 -1.4615
  796MOL0     H 7440  11.645  -0.352   3.212  2.6220  1.4977 -4.4400
  796MOL0     H 7441  11.394  -0.337   3.258 -0.8956 -0.7960 -1.3815
  796MOL0     H 7442  11.151   0.158   3.489  0.3819 -1.7317 -0.6461
  796MOL0     H 7443  10.927   0.264   3.527  0.4273 -2.1353  1.4082
  796MOL0     H 7444   9.421   1.253   3.062 -0.1164 -0.0524  0.1915
  796MOL0     H 7445   9.369   1.315   2.836  3.4859 -2.1152  0.5369
  796MOL0     H 7446   9.157   1.280   2.477 -0.5672 -1.6883 -1.6585
  796MOL0     H 7447   9.092   1.327   2.256  2.4919 -1.7192  0.9635
  796MOL0     H 7448   8.869   1.355   2.104 -1.1525 -0.2316 -1.3355
  796MOL0     H 7449   9.032   1.415   2.061 -0.9721 -2.5776  0.8006
  796MOL0     H 7450   8.938   1.582   1.917 -0.2833  0.9089  0.9688
  796MOL0     H 7451   8.777   1.561   1.975  0.2086 -0.6180 -0.5426
  796MOL0     H 7452   8.832   1.304   1.882  1.1067 -0.1465  0.5896
  796MOL0     H 7453   8.930   1.388   1.771 -0.4391 -0.0802 -1.1906
  796MOL0     H 7454   8.633   1.406   1.802  1.5307 -0.1841  1.9529
  796MOL0     H 7455   8.721   1.547   1.740 -0.5408  0.0139  1.1398
  796MOL0     H 7456   8.743   1.229   1.433  0.7445 -1.3636 -0.0808
  796MOL0     H 7457   8.839   1.641   2.398  1.8535  0.5976 -2.3054
  796MOL0     H 7458   8.924   1.644   2.732  2.4283 -2.7190  0.2720
  796MOL0     H 7459   8.811   1.685   2.600 -0.6708  0.9472  2.2197
  796MOL0     H 7460   8.770   1.552   2.697 -2.7033  2.5006 -1.3354
  797MOL0     O 7461   1.477   1.579  11.364 -0.2263  0.3793  0.1397
  797MOL0     C 7462   1.437   1.650  11.277 -0.1460 -0.4870  0.0365
  797MOL0     O 7463   1.507   1.690  11.174 -0.9687 -0.6432  0.2050
  797MOL0     C 7464   1.618   1.629  11.134 -0.3624  1.0645 -0.6188
  797MOL0     C 7465   1.655   1.491  11.134  0.5045  0.3583 -0.3847
  797MOL0     C 7466   1.763   1.442  11.052 -0.1343  0.0854  0.6690
  797MOL0     C 7467   1.842   1.529  10.971 -0.7209  0.6391  0.2690
  797MOL0     O 7468   1.938   1.464  10.905 -0.2774 -0.2771  0.4115
  797MOL0     C 7469   2.031   1.538  10.832  0.7749 -0.0067 -0.7062
  797MOL0     C 7470   2.103   1.457  10.721  0.2651 -0.3875 -0.2433
  797MOL0     C 7471   2.033   1.452  10.583  0.7586 -0.2908 -0.8138
  797MOL0     C 7472   1.910   1.363  10.573 -1.1164  0.6433 -0.9092
  797MOL0     C 7473   1.863   1.309  10.437 -0.5456  0.0444 -0.4800
  797MOL0     C 7474   1.857   1.429  10.347  0.7554 -0.2227  0.1141
  797MOL0     C 7475   1.828   1.387  10.200  0.4671 -0.0083 -0.2264
  797MOL0     C 7476   1.858   1.514  10.108 -0.1605  0.6532 -0.0356
  797MOL0     N 7477   2.004   1.518  10.075 -0.5206 -0.2066 -0.6022
  797MOL0     C 7478   2.070   1.443   9.981  0.0546 -0.4880  0.9321
  797MOL0     C 7479   2.199   1.487   9.981  0.9419  0.4314 -0.3960
  797MOL0     C 7480   2.309   1.431   9.894 -0.7840  0.7682 -1.1277
  797MOL0     C 7481   2.349   1.509   9.778 -0.6143 -0.4302  0.0911
  797MOL0     C 7482   2.419   1.636   9.823 -0.8707  0.2512 -0.2235
  797MOL0     C 7483   2.416   1.730   9.700 -0.1371 -0.4295 -0.8618
  797MOL0     O 7484   2.471   1.661   9.583  0.6821 -0.3521 -0.1731
  797MOL0     C 7485   2.597   1.631   9.584 -1.0760  0.2376  0.4315
  797MOL0     C 7486   2.625   1.517   9.500  0.4323 -0.3047  0.2874
  797MOL0     C 7487   2.756   1.477   9.476 -0.5218 -0.2569 -0.1637
  797MOL0     C 7488   2.859   1.537   9.540 -0.1389 -0.6467  0.2533
  797MOL0     C 7489   2.998   1.513   9.513 -0.8404  0.4271 -0.2558
  797MOL0     O 7490   3.090   1.596   9.565  0.1681 -0.6627 -0.2890
  797MOL0     C 7491   3.223   1.560   9.566  0.4753  0.2515 -0.1592
  797MOL0     C 7492   3.289   1.519   9.685 -0.3019 -0.5529 -0.0040
  797MOL0     C 7493   3.428   1.484   9.675  0.0345  0.3419 -0.0906
  797MOL0     C 7494   3.500   1.485   9.552 -0.8454  0.3818 -0.6960
  797MOL0     O 7495   3.628   1.450   9.539 -0.2733  0.1845 -0.2024
  797MOL0     C 7496   3.722   1.445   9.652 -0.2169  1.0066 -0.0915
  797MOL0     C 7497   3.864   1.440   9.606 -0.3008  0.2294  0.2162
  797MOL0     C 7498   3.967   1.485   9.709  0.7528  0.0359  0.4506
  797MOL0     C 7499   4.117   1.471   9.667 -0.2798  0.3932 -0.5405
  797MOL0     C 7500   4.178   1.329   9.703  0.3158 -0.3112  0.2109
  797MOL0     C 7501   4.322   1.324   9.669 -0.1301 -0.4675 -0.6749
  797MOL0     C 7502   4.346   1.304   9.514 -0.5844 -0.4641  0.2250
  797MOL0     C 7503   4.492   1.321   9.479 -0.0432 -0.0514 -0.2010
  797MOL0    Cl 7504   4.564   1.476   9.533  0.0583 -0.1960  0.0738
  797MOL0     C 7505   3.428   1.533   9.447 -0.4686 -0.0884 -0.1328
  797MOL0     C 7506   3.296   1.570   9.452  0.0486  0.2283  0.1594
  797MOL0     O 7507   3.024   1.416   9.455 -0.5798  0.2738  0.9683
  797MOL0     C 7508   2.825   1.634   9.637 -0.6769  0.4784  0.9444
  797MOL0     C 7509   2.695   1.680   9.653 -0.2966  0.2052  0.5050
  797MOL0     N 7510   2.214   1.575  10.089  0.0442 -0.2081  0.0645
  797MOL0     N 7511   2.097   1.598  10.127  0.1801  0.0141 -0.3396
  797MOL0     C 7512   1.811   1.664  10.972  1.7018 -0.7126  0.0284
  797MOL0     C 7513   1.700   1.713  11.060 -0.2369 -0.0521  0.3150
  797MOL0     C 7514   1.309   1.718  11.304  0.0355 -0.6108  0.6050
  797MOL0     C 7515   1.301   1.856  11.261  0.0006 -0.0021 -1.1788
  797MOL0     C 7516   1.172   1.926  11.281 -0.4235  0.7264  0.2889
  797MOL0     C 7517   1.064   1.868  11.337  1.0076  0.5879 -0.3218
  797MOL0     O 7518   0.956   1.946  11.371 -0.5135 -0.1181  0.6569
  797MOL0     C 7519   0.837   1.869  11.401  0.1259 -0.6971  0.1416
  797MOL0     C 7520   0.713   1.965  11.417 -0.1741  0.2615 -0.1779
  797MOL0     C 7521   0.742   2.049  11.536  0.4165  0.4199 -0.0488
  797MOL0     C 7522   0.627   2.165  11.559  0.1450 -0.8070  0.3489
  797MOL0     C 7523   0.497   2.101  11.577  0.4075 -0.6433 -0.5535
  797MOL0     C 7524   0.384   2.062  11.596 -0.7710  0.4480  0.0788
  797MOL0     C 7525   1.071   1.729  11.361 -0.2146 -0.0095  0.6651
  797MOL0     C 7526   1.190   1.657  11.341  0.8466 -0.0109 -0.7183
  797MOL0     C 7527   1.183   1.511  11.385 -0.4435 -0.8771 -0.2539
  797MOL0     H 7528   1.600   1.418  11.192  0.0462  0.3022 -0.8830
  797MOL0     H 7529   1.773   1.334  11.061 -1.0341 -0.0555  0.0825
  797MOL0     H 7530   1.985   1.630  10.792 -2.1265 -1.5344 -1.1453
  797MOL0     H 7531   2.121   1.555  10.891  1.4672 -2.0760 -1.0886
  797MOL0     H 7532   2.138   1.360  10.759  1.8863  0.2379 -0.0510
  797MOL0     H 7533   2.203   1.496  10.697 -0.7234  1.3803 -1.6767
  797MOL0     H 7534   2.105   1.410  10.513 -2.0252 -1.7852 -3.0039
  797MOL0     H 7535   2.008   1.556  10.558 -0.3107 -0.3454 -0.0505
  797MOL0     H 7536   1.929   1.274  10.634 -1.5761  0.5796 -0.8571
  797MOL0     H 7537   1.819   1.413  10.608 -0.4020  0.8240  0.7788
  797MOL0     H 7538   1.944   1.252  10.390 -0.6305  0.7195 -1.4742
  797MOL0     H 7539   1.772   1.249  10.438 -0.3782 -0.2089 -0.3452
  797MOL0     H 7540   1.779   1.501  10.372  1.3033  1.2842 -2.2357
  797MOL0     H 7541   1.947   1.492  10.347 -0.5183  1.6940  0.3980
  797MOL0     H 7542   1.724   1.361  10.180  0.9173 -1.3519 -0.9182
  797MOL0     H 7543   1.899   1.309  10.170 -0.2391  0.1935 -2.5732
  797MOL0     H 7544   1.799   1.503  10.016  2.8202 -3.1133 -1.7601
  797MOL0     H 7545   1.837   1.606  10.164 -1.2135  0.9936 -0.9484
  797MOL0     H 7546   2.027   1.388   9.898 -0.7970  0.9970  0.3467
  797MOL0     H 7547   2.384   1.399   9.967 -2.8695  0.8298  1.1347
  797MOL0     H 7548   2.282   1.332   9.855 -2.8047  1.2480 -1.0353
  797MOL0     H 7549   2.399   1.438   9.711 -2.5488 -0.6481 -1.1898
  797MOL0     H 7550   2.252   1.538   9.737  0.5876  1.9808 -1.2270
  797MOL0     H 7551   2.520   1.623   9.863 -0.9867 -0.2758 -0.0936
  797MOL0     H 7552   2.363   1.677   9.908  0.3475 -0.9791  1.2420
  797MOL0     H 7553   2.475   1.820   9.721 -1.6716  0.3372  0.4232
  797MOL0     H 7554   2.309   1.745   9.680 -0.2624 -1.4620 -1.0311
  797MOL0     H 7555   2.544   1.467   9.448  0.5234 -0.3139  0.1563
  797MOL0     H 7556   2.778   1.410   9.393  0.7712 -0.3254  0.2127
  797MOL0     H 7557   3.246   1.508   9.784  0.7345 -0.9035  0.4199
  797MOL0     H 7558   3.482   1.461   9.767  0.1603 -0.1698 -0.2927
  797MOL0     H 7559   3.700   1.535   9.711  2.4605  2.1182 -0.6299
  797MOL0     H 7560   3.709   1.356   9.713  0.3451  0.3431 -0.9237
  797MOL0     H 7561   3.883   1.336   9.577 -3.0316  0.0035 -1.0998
  797MOL0     H 7562   3.874   1.503   9.517 -3.3235 -0.5553 -0.7920
  797MOL0     H 7563   3.952   1.589   9.739 -1.6313 -0.3871  0.8977
  797MOL0     H 7564   3.945   1.428   9.799  0.1880 -1.0569 -0.3613
  797MOL0     H 7565   4.180   1.553   9.704 -0.0306  1.0508 -2.3289
  797MOL0     H 7566   4.131   1.485   9.559  2.2340  1.5901 -0.1529
  797MOL0     H 7567   4.114   1.248   9.667 -2.2142  2.0155 -0.9270
  797MOL0     H 7568   4.172   1.331   9.813 -4.6127 -1.7474  0.2221
  797MOL0     H 7569   4.371   1.411   9.713 -1.2188  0.0188 -0.3980
  797MOL0     H 7570   4.364   1.239   9.723  1.1187  1.2330  1.1855
  797MOL0     H 7571   4.291   1.373   9.449  1.1113 -0.5283 -1.3717
  797MOL0     H 7572   4.311   1.205   9.482  1.9302 -0.8924 -1.5646
  797MOL0     H 7573   4.554   1.237   9.512 -2.4077 -1.0446  2.0776
  797MOL0     H 7574   4.499   1.304   9.371 -2.3998 -1.2926 -0.2197
  797MOL0     H 7575   3.482   1.544   9.354 -0.7720  0.7443 -0.2152
  797MOL0     H 7576   3.247   1.583   9.356  1.4661  0.2616 -0.5791
  797MOL0     H 7577   2.905   1.685   9.690  0.5679  1.3397 -1.5961
  797MOL0     H 7578   2.675   1.774   9.703  0.3900  0.5874  0.0797
  797MOL0     H 7579   1.854   1.738  10.905 -2.7824 -0.6770 -3.2845
  797MOL0     H 7580   1.681   1.820  11.065  1.5599  0.2420  1.6790
  797MOL0     H 7581   1.382   1.915  11.221  1.2183 -2.5080 -2.6593
  797MOL0     H 7582   1.150   2.029  11.254  0.6413  0.4851 -1.6999
  797MOL0     H 7583   0.854   1.839  11.505 -1.7020 -2.4975 -0.0219
  797MOL0     H 7584   0.808   1.782  11.341 -6.1818 -0.8148  2.5912
  797MOL0     H 7585   0.612   1.923  11.421 -1.1011  2.3320 -0.5959
  797MOL0     H 7586   0.716   2.015  11.320  0.7554 -1.2583 -0.9805
  797MOL0     H 7587   0.839   2.099  11.527 -0.3731  1.7394 -1.7818
  797MOL0     H 7588   0.752   1.986  11.625  0.7861 -0.3590 -0.6281
  797MOL0     H 7589   0.654   2.208  11.656  1.4419 -2.3520  0.7080
  797MOL0     H 7590   0.618   2.255  11.498 -3.3964 -0.8395  0.6117
  797MOL0     H 7591   0.287   2.028  11.627 -0.4328 -1.2596 -0.6241
  797MOL0     H 7592   0.992   1.677  11.414 -1.0789  1.4590  0.8974
  797MOL0     H 7593   1.085   1.487  11.425  0.0474 -2.0771  0.2668
  797MOL0     H 7594   1.212   1.442  11.305  3.2094 -1.6004  1.5018
  797MOL0     H 7595   1.250   1.497  11.470 -0.3447 -0.8104 -0.3192
  798MOL0     O 7596   3.163   2.465   5.679 -0.2245  0.2420 -0.0109
  798MOL0     C 7597   3.132   2.527   5.775  0.0343 -0.4565  0.9598
  798MOL0     O 7598   3.159   2.495   5.908  0.6118 -0.2313  0.1209
  798MOL0     C 7599   3.183   2.365   5.938  0.1166 -0.6588  0.4578
  798MOL0     C 7600   3.300   2.315   5.886  0.0088  0.1288  0.0299
  798MOL0     C 7601   3.331   2.180   5.895  0.2108 -0.1659 -0.0453
  798MOL0     C 7602   3.246   2.099   5.971  0.0219  0.2845  0.2550
  798MOL0     O 7603   3.282   1.965   5.986 -0.3179  0.3732 -0.6725
  798MOL0     C 7604   3.401   1.918   6.053 -0.9581 -0.3934 -0.5963
  798MOL0     C 7605   3.533   1.936   5.970 -0.3675 -0.1847 -0.5492
  798MOL0     C 7606   3.625   1.813   5.990 -0.0858 -1.1421  0.1791
  798MOL0     C 7607   3.762   1.862   5.948 -0.4936  0.5038 -0.3650
  798MOL0     C 7608   3.841   1.733   5.966  0.0810  0.6384 -0.2114
  798MOL0     C 7609   3.989   1.747   5.918  0.5171 -0.2422  0.9312
  798MOL0     C 7610   4.073   1.638   5.984 -0.1217  0.4293 -0.4540
  798MOL0     C 7611   4.043   1.499   5.933  0.1155  1.0361  0.3091
  798MOL0     N 7612   4.093   1.484   5.798 -0.3423 -0.8391 -0.6307
  798MOL0     C 7613   4.225   1.465   5.761 -0.8107  0.7738 -0.5654
  798MOL0     C 7614   4.228   1.462   5.636 -0.1211 -0.5587  0.2392
  798MOL0     C 7615   4.344   1.428   5.539  0.1464  0.5176 -0.8109
  798MOL0     C 7616   4.299   1.319   5.436 -0.0092 -0.2590 -0.9156
  798MOL0     C 7617   4.396   1.298   5.322  0.0175  0.1277  0.0071
  798MOL0     C 7618   4.526   1.251   5.370  0.4490 -0.6551  0.2879
  798MOL0     O 7619   4.605   1.210   5.260 -0.5879 -0.1092  0.4235
  798MOL0     C 7620   4.731   1.162   5.293 -0.8948 -0.0809 -0.2788
  798MOL0     C 7621   4.808   1.131   5.178 -0.0493 -0.2061  0.1826
  798MOL0     C 7622   4.930   1.073   5.195 -0.0095 -0.2160 -0.2063
  798MOL0     C 7623   4.990   1.059   5.315 -0.2955  0.2099  0.6254
  798MOL0     C 7624   5.130   1.012   5.329 -0.3646 -0.0633  1.2010
  798MOL0     O 7625   5.198   1.003   5.210  0.6868  0.4475 -0.7562
  798MOL0     C 7626   5.328   0.960   5.223  0.3005 -0.1142  0.6101
  798MOL0     C 7627   5.426   1.028   5.294 -0.3288  0.8881 -1.0097
  798MOL0     C 7628   5.547   0.957   5.322 -0.9722 -0.2294  0.0265
  798MOL0     C 7629   5.578   0.825   5.287  0.5055 -0.0782  0.3470
  798MOL0     O 7630   5.696   0.774   5.334 -0.2698  0.1342 -0.0114
  798MOL0     C 7631   5.702   0.634   5.353  0.0932  0.4493 -0.0421
  798MOL0     C 7632   5.810   0.612   5.451 -0.3950  0.7839 -0.8472
  798MOL0     C 7633   5.947   0.661   5.393 -0.4165 -0.2379 -0.3820
  798MOL0     C 7634   6.052   0.608   5.488  0.7900 -1.2950  0.2011
  798MOL0     C 7635   6.188   0.658   5.442 -0.0135  0.0275  0.1177
  798MOL0     C 7636   6.303   0.637   5.536  0.2608  0.4543  0.0918
  798MOL0     C 7637   6.441   0.695   5.484  0.0752 -0.0463 -0.1459
  798MOL0     C 7638   6.557   0.657   5.583  0.2825  1.6647 -0.2829
  798MOL0    Cl 7639   6.580   0.480   5.575 -0.0208  0.2486 -0.1587
  798MOL0     C 7640   5.481   0.760   5.204  0.1372  0.2145  0.3843
  798MOL0     C 7641   5.366   0.836   5.161 -0.0529 -0.9358  0.8485
  798MOL0     O 7642   5.179   0.990   5.440  0.7913 -0.2398 -0.1797
  798MOL0     C 7643   4.918   1.104   5.431 -0.7353  0.4132 -0.1482
  798MOL0     C 7644   4.784   1.152   5.419 -0.1287  1.0674 -0.2402
  798MOL0     N 7645   4.104   1.499   5.589 -0.3466  0.1787 -0.2924
  798MOL0     N 7646   4.026   1.512   5.686  0.2731  0.3357  0.6171
  798MOL0     C 7647   3.133   2.152   6.035  0.4544 -0.8330 -0.1565
  798MOL0     C 7648   3.098   2.290   6.011  0.5211 -0.0320  1.1666
  798MOL0     C 7649   3.071   2.653   5.741  0.6457 -1.1418 -0.2085
  798MOL0     C 7650   3.137   2.763   5.694 -0.0891 -1.3347 -0.7686
  798MOL0     C 7651   3.076   2.896   5.687  0.0722  0.2230 -1.2559
  798MOL0     C 7652   2.947   2.905   5.712  0.3671  0.0203  0.2256
  798MOL0     O 7653   2.911   3.040   5.704  0.1220 -0.3498 -0.3715
  798MOL0     C 7654   2.776   3.059   5.653 -0.0325  0.1419  0.7486
  798MOL0     C 7655   2.760   3.036   5.503  0.1645 -0.1946 -0.5434
  798MOL0     C 7656   2.820   3.153   5.413 -0.0246  0.8355  1.1013
  798MOL0     C 7657   2.806   3.103   5.272  0.2206 -0.0897 -0.0557
  798MOL0     C 7658   2.864   3.168   5.154 -0.3473  0.6674 -0.2662
  798MOL0     C 7659   2.898   3.233   5.058  0.4503  0.6912 -0.0579
  798MOL0     C 7660   2.871   2.790   5.737  0.3905 -0.2120  0.0023
  798MOL0     C 7661   2.934   2.667   5.759  0.7598 -0.3027  0.4363
  798MOL0     C 7662   2.847   2.547   5.790 -0.2005 -0.1288 -0.0609
  798MOL0     H 7663   3.365   2.384   5.834 -0.8228  1.5625  0.7994
  798MOL0     H 7664   3.414   2.132   5.844 -0.8641 -2.3599  0.1903
  798MOL0     H 7665   3.420   1.959   6.153  1.6542  1.1995 -1.6646
  798MOL0     H 7666   3.382   1.814   6.083 -1.8817  0.2989  1.3679
  798MOL0     H 7667   3.583   2.029   5.994  1.2999 -0.2496 -3.2766
  798MOL0     H 7668   3.503   1.948   5.865 -1.5525 -1.9327 -0.4542
  798MOL0     H 7669   3.590   1.730   5.928 -2.6984 -0.7456  0.9970
  798MOL0     H 7670   3.618   1.777   6.093  1.5229 -1.1459  0.3057
  798MOL0     H 7671   3.778   1.913   5.852  1.0492  0.8212  0.0318
  798MOL0     H 7672   3.796   1.934   6.023 -1.4233  0.4174  0.1431
  798MOL0     H 7673   3.845   1.697   6.069  1.8306 -4.5929 -1.7854
  798MOL0     H 7674   3.792   1.652   5.911  0.6346 -1.0956  1.7310
  798MOL0     H 7675   3.986   1.731   5.810 -2.1594 -1.0587  1.0450
  798MOL0     H 7676   4.035   1.843   5.943 -0.4548  0.3140  0.6477
  798MOL0     H 7677   4.062   1.654   6.092 -0.7898  3.6965 -0.9068
  798MOL0     H 7678   4.179   1.663   5.979 -0.9702  5.1105  0.4739
  798MOL0     H 7679   4.098   1.424   5.991  0.2703  0.5453 -0.4572
  798MOL0     H 7680   3.942   1.459   5.946  0.6909 -0.6620 -0.1815
  798MOL0     H 7681   4.312   1.444   5.822 -0.3683  4.3395  0.2455
  798MOL0     H 7682   4.384   1.513   5.483  0.3741  0.8189 -0.1996
  798MOL0     H 7683   4.424   1.381   5.596  1.7945  2.1483 -1.6603
  798MOL0     H 7684   4.279   1.228   5.494  5.5853 -0.9074  0.6112
  798MOL0     H 7685   4.207   1.360   5.393 -0.5600  0.7623  1.0969
  798MOL0     H 7686   4.405   1.395   5.271 -0.6571 -1.2773 -3.0143
  798MOL0     H 7687   4.354   1.221   5.256 -1.2672 -0.6230  1.6341
  798MOL0     H 7688   4.518   1.171   5.444 -1.6034 -0.9197 -0.1548
  798MOL0     H 7689   4.581   1.325   5.428 -0.6620  3.1336 -3.0843
  798MOL0     H 7690   4.759   1.146   5.083  2.0090  1.4292 -0.6942
  798MOL0     H 7691   4.979   1.049   5.101  0.2984  1.8032 -0.6028
  798MOL0     H 7692   5.404   1.122   5.343 -0.0992  0.4806 -0.1070
  798MOL0     H 7693   5.621   1.005   5.385 -2.0074  2.7663 -0.8525
  798MOL0     H 7694   5.610   0.589   5.392 -1.5401  2.4586 -1.3311
  798MOL0     H 7695   5.721   0.591   5.254  2.3244  0.7579  0.2049
  798MOL0     H 7696   5.794   0.679   5.536  0.0339 -2.2322  1.8016
  798MOL0     H 7697   5.806   0.511   5.491 -0.4367 -0.3402 -3.4540
  798MOL0     H 7698   5.973   0.623   5.294  1.1392  1.0299 -0.5011
  798MOL0     H 7699   5.949   0.770   5.396  1.1301 -0.2672  1.5558
  798MOL0     H 7700   6.052   0.499   5.497 -2.3459 -1.4299 -0.1603
  798MOL0     H 7701   6.041   0.638   5.592 -2.1105  1.8934 -0.8092
  798MOL0     H 7702   6.185   0.767   5.430 -0.4623 -0.0051 -0.1117
  798MOL0     H 7703   6.206   0.617   5.342 -1.9735  0.8031 -0.6067
  798MOL0     H 7704   6.282   0.675   5.637 -1.2680 -0.7532  0.2565
  798MOL0     H 7705   6.318   0.529   5.549 -0.5584  0.1420 -1.3807
  798MOL0     H 7706   6.437   0.802   5.462  0.0323  0.6454  2.7630
  798MOL0     H 7707   6.470   0.641   5.394 -1.3911  0.2981 -0.8497
  798MOL0     H 7708   6.647   0.704   5.542  1.8779 -0.9321  0.0531
  798MOL0     H 7709   6.534   0.711   5.676 -1.9706 -1.4229  1.1082
  798MOL0     H 7710   5.511   0.661   5.171 -0.7361 -0.8746  2.6216
  798MOL0     H 7711   5.288   0.782   5.108 -0.8160  1.7409 -0.9303
  798MOL0     H 7712   4.963   1.090   5.528 -1.4492  2.4606  0.5300
  798MOL0     H 7713   4.722   1.163   5.508 -2.4014 -1.7359 -1.3216
  798MOL0     H 7714   3.061   2.091   6.089 -0.5569 -0.7930 -1.4139
  798MOL0     H 7715   3.011   2.347   6.044  0.2233  2.1113 -2.7461
  798MOL0     H 7716   3.242   2.746   5.672 -0.1713 -2.3078 -0.4223
  798MOL0     H 7717   3.130   2.988   5.669 -1.2741  1.7077  1.5632
  798MOL0     H 7718   2.750   3.164   5.667  0.4062  0.5577 -1.2426
  798MOL0     H 7719   2.698   3.005   5.708  1.6326 -1.5319  1.5945
  798MOL0     H 7720   2.652   3.031   5.485 -0.2627 -0.5022  1.6897
  798MOL0     H 7721   2.800   2.940   5.468  0.6671  0.1879 -1.0105
  798MOL0     H 7722   2.924   3.179   5.437  1.3173 -2.2378 -0.6791
  798MOL0     H 7723   2.755   3.238   5.434  0.7503  1.5646  0.6179
  798MOL0     H 7724   2.852   3.003   5.276  2.0243  0.7558  2.3248
  798MOL0     H 7725   2.698   3.096   5.255 -0.0467  1.9798  0.6257
  798MOL0     H 7726   2.921   3.284   4.966 -3.2533  3.0624  0.1169
  798MOL0     H 7727   2.764   2.802   5.750  0.2218 -0.4231 -1.1240
  798MOL0     H 7728   2.744   2.554   5.755  0.7787  0.5487 -3.0549
  798MOL0     H 7729   2.888   2.455   5.748  1.4437  0.3834  0.3313
  798MOL0     H 7730   2.842   2.529   5.898 -3.8810  0.2542 -0.0458
  799MOL0     O 7731   4.331  11.207   9.243 -0.7047  0.5558  0.4075
  799MOL0     C 7732   4.353  11.111   9.174 -0.0009  0.8339  0.3174
  799MOL0     O 7733   4.459  11.105   9.097 -0.7954  0.7582  0.5390
  799MOL0     C 7734   4.544  11.212   9.082 -0.6177  0.1894  0.1519
  799MOL0     C 7735   4.675  11.205   9.120 -0.5232  0.6422 -0.1047
  799MOL0     C 7736   4.767  11.302   9.102  0.6021 -0.3880 -0.0726
  799MOL0     C 7737   4.741  11.424   9.034 -0.2162 -0.5208 -0.4938
  799MOL0     O 7738   4.849  11.497   8.990  0.0566 -0.5897  0.1105
  799MOL0     C 7739   4.831  11.641   8.962 -0.0140 -0.5738  0.2661
  799MOL0     C 7740   4.861  11.728   9.086  0.1577  0.3981 -0.0125
  799MOL0     C 7741   4.735  11.781   9.149  0.4443 -1.1437 -0.1966
  799MOL0     C 7742   4.759  11.910   9.221 -0.4896  0.7642  0.6190
  799MOL0     C 7743   4.630  11.946   9.298  0.6226 -0.3032 -0.6228
  799MOL0     C 7744   4.644  12.094   9.352  1.2910  0.0453 -0.4282
  799MOL0     C 7745   4.507  12.150   9.382  0.1156  0.5264 -0.2893
  799MOL0     C 7746   4.431  12.059   9.481 -0.1205  0.4599  0.4772
  799MOL0     N 7747   4.344  12.148   9.554  0.2457 -0.1112  0.2665
  799MOL0     C 7748   4.211  12.127   9.585  0.1240 -0.4575  0.1894
  799MOL0     C 7749   4.172  12.223   9.666 -0.5158 -0.1832 -0.0070
  799MOL0     C 7750   4.034  12.231   9.718  0.0640  0.1495  0.7134
  799MOL0     C 7751   3.961  12.081   9.737  0.7178  0.6493  1.0293
  799MOL0     C 7752   3.818  12.082   9.787 -0.5153 -0.1351 -0.4205
  799MOL0     C 7753   3.791  12.169   9.915  0.3672  0.2996  0.6449
  799MOL0     O 7754   3.757  12.305   9.880 -0.5528 -1.3973  1.3117
  799MOL0     C 7755   3.649  12.335   9.805  0.4350  1.0110 -0.2560
  799MOL0     C 7756   3.537  12.259   9.820  0.6256  0.5811 -0.2057
  799MOL0     C 7757   3.428  12.281   9.738  0.3177  0.0758  0.2293
  799MOL0     C 7758   3.431  12.375   9.630 -0.0903 -0.6605 -0.1781
  799MOL0     C 7759   3.310  12.402   9.551 -0.1139 -1.1860 -1.1658
  799MOL0     O 7760   3.198  12.412   9.623  0.4645 -0.1880  0.1119
  799MOL0     C 7761   3.078  12.454   9.567 -1.1118  0.2254 -0.4492
  799MOL0     C 7762   3.022  12.568   9.617  0.3782 -0.4789  0.7487
  799MOL0     C 7763   2.882  12.591   9.591 -0.2495  0.2287 -1.0648
  799MOL0     C 7764   2.810  12.519   9.485  0.0550 -0.5175 -0.6330
  799MOL0     O 7765   2.679  12.544   9.444  0.7941  0.3627 -0.1456
  799MOL0     C 7766   2.576  12.568   9.549  0.7415  0.6404 -0.1760
  799MOL0     C 7767   2.505  12.437   9.565  0.5514  0.2460 -0.3688
  799MOL0     C 7768   2.405  12.451   9.676 -0.3823 -0.0669  0.1037
  799MOL0     C 7769   2.270  12.492   9.634 -0.6204 -0.8354  0.3048
  799MOL0     C 7770   2.180  12.469   9.760  0.2919 -0.0364 -0.4428
  799MOL0     C 7771   2.045  12.548   9.741 -0.4287  0.5535  0.4326
  799MOL0     C 7772   1.951  12.517   9.862 -0.8314 -0.3604  0.0366
  799MOL0     C 7773   1.809  12.570   9.842  0.8334 -0.4392  0.1575
  799MOL0    Cl 7774   1.727  12.563   9.994  0.3422 -0.0014 -0.2781
  799MOL0     C 7775   2.881  12.411   9.434 -0.4959 -0.5963 -0.7221
  799MOL0     C 7776   3.010  12.377   9.476  0.4970 -0.1438 -0.0623
  799MOL0     O 7777   3.324  12.417   9.430  0.9406  0.6660 -0.4194
  799MOL0     C 7778   3.546  12.462   9.624 -0.0654  0.8975 -0.5658
  799MOL0     C 7779   3.653  12.435   9.711  0.1883  0.1018 -0.5961
  799MOL0     N 7780   4.281  12.300   9.694 -0.5365 -0.3566  0.3571
  799MOL0     N 7781   4.380  12.265   9.621  0.2174  0.4796 -0.0493
  799MOL0     C 7782   4.604  11.436   8.996 -0.0149 -0.7443  0.0516
  799MOL0     C 7783   4.510  11.334   9.025 -0.2518 -0.8817 -0.1666
  799MOL0     C 7784   4.243  11.011   9.140 -0.6930  0.5898  0.3542
  799MOL0     C 7785   4.258  10.922   9.036  0.7110  1.2133  0.2099
  799MOL0     C 7786   4.157  10.827   9.003 -0.5000  0.2128  0.7368
  799MOL0     C 7787   4.042  10.820   9.076 -0.1656  0.2795  0.2304
  799MOL0     O 7788   3.953  10.726   9.056 -0.0170  0.2618  0.4363
  799MOL0     C 7789   3.998  10.596   9.015 -0.5601  0.1601 -0.5503
  799MOL0     C 7790   3.904  10.492   9.075  0.3152 -0.0012 -0.0490
  799MOL0     C 7791   3.964  10.352   9.090  0.0034 -0.5205 -0.2384
  799MOL0     C 7792   4.072  10.347   9.211  0.5492  0.5262 -0.4167
  799MOL0     C 7793   4.104  10.206   9.244  0.3188 -0.2356 -1.1729
  799MOL0     C 7794   4.104  10.086   9.257  0.6410  0.0150  0.1371
  799MOL0     C 7795   4.028  10.905   9.185 -0.7329  0.2482 -1.0838
  799MOL0     C 7796   4.121  11.000   9.214 -0.3064 -1.3688  0.1093
  799MOL0     C 7797   4.092  11.099   9.325 -0.2238 -0.1287  1.3181
  799MOL0     H 7798   4.712  11.110   9.159 -1.9565  0.7166  1.5729
  799MOL0     H 7799   4.870  11.279   9.127  0.5005  1.4734  2.4564
  799MOL0     H 7800   4.899  11.676   8.883  0.3121  0.1006  0.8403
  799MOL0     H 7801   4.729  11.650   8.923 -0.2605 -1.1747  0.7660
  799MOL0     H 7802   4.923  11.810   9.049 -0.0374  0.2628 -0.6544
  799MOL0     H 7803   4.905  11.657   9.157  1.4459 -0.1927 -1.3617
  799MOL0     H 7804   4.713  11.702   9.222  2.2753 -0.3579  1.2572
  799MOL0     H 7805   4.659  11.779   9.070  0.8099 -1.2900 -0.5499
  799MOL0     H 7806   4.845  11.908   9.288 -0.4908 -1.1193  0.6141
  799MOL0     H 7807   4.789  11.978   9.140  1.1397  0.8202  1.2308
  799MOL0     H 7808   4.543  11.943   9.231  0.5371 -0.1028 -0.5219
  799MOL0     H 7809   4.610  11.865   9.369 -2.6035  2.1043  1.5175
  799MOL0     H 7810   4.697  12.082   9.447  0.0756  1.0741  0.4054
  799MOL0     H 7811   4.704  12.152   9.282  2.2144  1.9525  1.8155
  799MOL0     H 7812   4.451  12.153   9.288 -0.3503 -4.8716 -0.5049
  799MOL0     H 7813   4.518  12.253   9.416  3.5582 -0.1405  0.9725
  799MOL0     H 7814   4.375  11.978   9.434  0.4081  0.9965 -1.1512
  799MOL0     H 7815   4.502  12.021   9.555  1.6190  1.9684 -0.3333
  799MOL0     H 7816   4.153  12.045   9.544  1.2052 -1.0738 -0.1317
  799MOL0     H 7817   4.049  12.287   9.810  0.6108  0.5868  0.3618
  799MOL0     H 7818   3.972  12.284   9.645 -1.9932 -4.6043 -1.4325
  799MOL0     H 7819   3.970  12.031   9.641 -0.7309  1.9341  0.1817
  799MOL0     H 7820   4.014  12.017   9.808 -0.7091 -0.0511  1.5237
  799MOL0     H 7821   3.795  11.976   9.806 -1.0827  0.4063  2.2892
  799MOL0     H 7822   3.750  12.115   9.708 -1.2942 -0.4096  0.1278
  799MOL0     H 7823   3.869  12.165   9.991 -0.1265 -0.4046  1.1191
  799MOL0     H 7824   3.710  12.110   9.959  0.2594 -0.3332 -0.3647
  799MOL0     H 7825   3.539  12.197   9.909  1.4522  0.2643 -0.4276
  799MOL0     H 7826   3.341  12.216   9.746 -1.1801  1.8679 -0.6691
  799MOL0     H 7827   3.079  12.644   9.669  2.5010 -2.1674  0.9775
  799MOL0     H 7828   2.843  12.681   9.638 -3.5530 -1.5792  0.0099
  799MOL0     H 7829   2.633  12.598   9.637  1.3343 -1.6123  0.2585
  799MOL0     H 7830   2.509  12.651   9.525 -2.0090 -1.4163 -0.0655
  799MOL0     H 7831   2.463  12.410   9.468  0.8991  0.9946 -0.7327
  799MOL0     H 7832   2.578  12.370   9.612 -2.5094 -1.2498  2.6893
  799MOL0     H 7833   2.399  12.353   9.725  0.6097 -1.4256 -2.3167
  799MOL0     H 7834   2.440  12.528   9.745 -1.0049  2.8219 -2.5841
  799MOL0     H 7835   2.221  12.430   9.558 -1.4277  0.1189  0.0203
  799MOL0     H 7836   2.269  12.596   9.599 -0.5592 -1.3068 -1.1772
  799MOL0     H 7837   2.235  12.504   9.848  1.1557 -0.2821 -0.8786
  799MOL0     H 7838   2.163  12.361   9.769  1.0394 -0.8458 -5.6747
  799MOL0     H 7839   2.061  12.656   9.740 -3.6046  1.1328  1.2889
  799MOL0     H 7840   1.998  12.519   9.646 -1.8889  1.3381  0.8878
  799MOL0     H 7841   2.000  12.573   9.942 -2.0628  3.7381 -1.7999
  799MOL0     H 7842   1.937  12.412   9.891  0.4833 -1.0174 -1.5461
  799MOL0     H 7843   1.821  12.674   9.809 -1.2557 -0.5541 -1.1334
  799MOL0     H 7844   1.748  12.527   9.762  1.5880 -1.9177  0.3409
  799MOL0     H 7845   2.821  12.353   9.365 -0.6590 -1.7604  0.3479
  799MOL0     H 7846   3.052  12.290   9.426  1.0115  0.8520 -1.4089
  799MOL0     H 7847   3.558  12.544   9.554  1.3913  2.2224  1.1365
  799MOL0     H 7848   3.733  12.509   9.710 -0.4982  0.8559 -1.2576
  799MOL0     H 7849   4.560  11.524   8.950  1.1794  1.1432  2.2844
  799MOL0     H 7850   4.403  11.344   9.009 -0.7100 -0.4500  2.6574
  799MOL0     H 7851   4.348  10.918   8.975  1.5505 -0.6018  1.4663
  799MOL0     H 7852   4.156  10.760   8.917  1.6130  0.9697  0.0531
  799MOL0     H 7853   4.094  10.576   9.063 -0.2570  0.0289 -1.2048
  799MOL0     H 7854   4.002  10.586   8.906  2.5909 -0.5262 -0.4753
  799MOL0     H 7855   3.825  10.491   9.000  3.7216  0.2694 -4.0516
  799MOL0     H 7856   3.872  10.530   9.172  1.7687  2.0833 -0.3135
  799MOL0     H 7857   4.016  10.318   9.000 -0.7646  2.2143 -1.8308
  799MOL0     H 7858   3.878  10.285   9.107 -1.2211  1.4233  1.7714
  799MOL0     H 7859   4.163  10.400   9.184  1.2039 -1.5150 -2.4136
  799MOL0     H 7860   4.027  10.391   9.301 -1.6190  0.8296 -1.5709
  799MOL0     H 7861   4.079   9.986   9.288 -1.0165  0.1385 -0.6656
  799MOL0     H 7862   3.930  10.881   9.227 -1.4902  3.0575 -1.0301
  799MOL0     H 7863   4.079  11.196   9.277  1.3097 -1.7004 -2.6975
  799MOL0     H 7864   3.999  11.058   9.368  0.3780 -2.9023  0.2186
  799MOL0     H 7865   4.168  11.104   9.404  1.7694 -1.9388 -0.3771
  800MOL0     O 7866   5.812   4.690   7.283 -0.9565  0.0430 -0.2106
  800MOL0     C 7867   5.754   4.591   7.324  1.0735 -0.3196  0.0499
  800MOL0     O 7868   5.801   4.464   7.350 -0.0983 -0.3381  0.5621
  800MOL0     C 7869   5.934   4.440   7.348 -0.4336  0.0930 -0.1821
  800MOL0     C 7870   5.963   4.305   7.307 -0.1716  0.2210 -0.1036
  800MOL0     C 7871   6.098   4.272   7.298 -0.1612  0.3310 -0.8493
  800MOL0     C 7872   6.201   4.358   7.337  0.0725  0.1148 -0.1397
  800MOL0     O 7873   6.331   4.320   7.341 -0.2778 -0.1160  0.1915
  800MOL0     C 7874   6.356   4.189   7.395  0.6227 -1.0744 -0.1723
  800MOL0     C 7875   6.514   4.178   7.407 -0.5331  0.0241  1.3287
  800MOL0     C 7876   6.584   4.263   7.511 -0.0164 -0.3337 -0.1354
  800MOL0     C 7877   6.735   4.246   7.506 -0.0808 -0.1501  1.2748
  800MOL0     C 7878   6.800   4.378   7.455 -0.3016 -0.2107  0.3052
  800MOL0     C 7879   6.957   4.385   7.492  0.1986  1.6031  0.3647
  800MOL0     C 7880   7.032   4.256   7.447  0.3709  0.2180  0.5950
  800MOL0     C 7881   7.064   4.257   7.295 -0.1722  0.3782  0.1819
  800MOL0     N 7882   7.147   4.142   7.256 -0.3310 -0.6750 -0.0723
  800MOL0     C 7883   7.269   4.175   7.203  0.8653  0.2168  1.1116
  800MOL0     C 7884   7.302   4.062   7.136  0.0958 -0.2040 -0.6631
  800MOL0     C 7885   7.410   4.049   7.039 -0.5001  1.6543 -0.4765
  800MOL0     C 7886   7.541   4.025   7.117 -0.5674  0.7649 -0.3537
  800MOL0     C 7887   7.559   3.892   7.190 -0.7241 -0.0686 -0.5375
  800MOL0     C 7888   7.685   3.883   7.256 -0.7888  0.4680  0.0986
  800MOL0     O 7889   7.779   3.903   7.147  0.5618 -0.4721 -0.4792
  800MOL0     C 7890   7.912   3.912   7.179 -0.7374  0.4843  0.0116
  800MOL0     C 7891   7.965   3.903   7.308 -0.7280  0.0534  0.1246
  800MOL0     C 7892   8.100   3.898   7.326  0.1876 -0.5256 -0.0478
  800MOL0     C 7893   8.187   3.922   7.215  0.3772 -0.6336 -0.1601
  800MOL0     C 7894   8.334   3.929   7.228  0.3858 -0.3334  0.0240
  800MOL0     O 7895   8.386   3.961   7.349  0.2403  0.2541  0.1805
  800MOL0     C 7896   8.523   3.978   7.381  0.1905 -0.0017  0.5010
  800MOL0     C 7897   8.625   3.919   7.306  1.1537  0.0233  0.0882
  800MOL0     C 7898   8.754   3.941   7.354  0.3275  0.1517 -0.0372
  800MOL0     C 7899   8.792   4.006   7.472  0.3597 -0.1287  0.4930
  800MOL0     O 7900   8.918   4.036   7.517 -0.2287  0.5249 -0.9443
  800MOL0     C 7901   9.030   3.946   7.478 -0.1944 -0.0512  0.1710
  800MOL0     C 7902   9.164   3.999   7.536  0.6687  0.4687  0.1527
  800MOL0     C 7903   9.200   3.968   7.688 -0.0169 -0.2878  0.0273
  800MOL0     C 7904   9.306   4.064   7.744 -1.1707 -0.0560 -0.5840
  800MOL0     C 7905   9.319   4.044   7.899 -0.5660  1.2420  0.1429
  800MOL0     C 7906   9.432   4.138   7.946 -0.6047 -0.3906  0.1759
  800MOL0     C 7907   9.481   4.091   8.080  0.1766 -0.0655 -0.2941
  800MOL0     C 7908   9.609   4.173   8.132  0.1307  0.0954 -0.1135
  800MOL0    Cl 7909   9.624   4.156   8.300 -0.4651  0.4995 -0.4442
  800MOL0     C 7910   8.686   4.068   7.542  0.5457  0.5408 -0.5074
  800MOL0     C 7911   8.545   4.054   7.500 -1.0280 -0.1779 -0.4590
  800MOL0     O 7912   8.394   3.907   7.125  0.3487  0.0148  0.2227
  800MOL0     C 7913   8.130   3.930   7.088 -0.5458 -0.4826 -0.9070
  800MOL0     C 7914   7.989   3.932   7.074  0.5219 -0.3077 -0.3648
  800MOL0     N 7915   7.207   3.964   7.159  0.1358 -0.2005 -0.3312
  800MOL0     N 7916   7.115   4.010   7.245  0.7569  0.6642  0.0985
  800MOL0     C 7917   6.175   4.489   7.376  0.2728  0.4762  0.1398
  800MOL0     C 7918   6.043   4.522   7.376 -0.2233 -0.3997 -0.0378
  800MOL0     C 7919   5.604   4.595   7.337 -0.5566 -0.2074 -0.7214
  800MOL0     C 7920   5.526   4.470   7.334  0.7919 -0.5240 -0.2496
  800MOL0     C 7921   5.386   4.472   7.350  0.4457  0.7802 -0.0446
  800MOL0     C 7922   5.315   4.592   7.344 -0.6391 -0.5980 -0.0247
  800MOL0     O 7923   5.177   4.585   7.330  0.1679  0.0827  0.3385
  800MOL0     C 7924   5.085   4.675   7.393  0.4542 -0.6135  0.0247
  800MOL0     C 7925   5.096   4.679   7.547  0.5705  0.6626 -1.2037
  800MOL0     C 7926   5.104   4.543   7.616 -0.7146  0.2169  1.0112
  800MOL0     C 7927   5.133   4.557   7.756  1.2291  0.6432 -0.9933
  800MOL0     C 7928   5.273   4.562   7.800 -0.6175  0.2030  0.5912
  800MOL0     C 7929   5.390   4.575   7.839  0.8106  0.1328 -0.8818
  800MOL0     C 7930   5.388   4.711   7.337  0.0674  0.3682 -0.4294
  800MOL0     C 7931   5.533   4.716   7.345 -0.6875 -0.0039 -0.3860
  800MOL0     C 7932   5.590   4.860   7.351 -0.7524  0.3762 -0.5287
  800MOL0     H 7933   5.893   4.222   7.297  0.8089 -0.7049  0.4903
  800MOL0     H 7934   6.117   4.171   7.265  0.1546 -0.1849  0.8082
  800MOL0     H 7935   6.302   4.168   7.488  0.3353  2.8909  0.7400
  800MOL0     H 7936   6.320   4.114   7.325 -1.1821 -0.2296 -0.1955
  800MOL0     H 7937   6.565   4.193   7.312  1.1243  2.1258  2.4529
  800MOL0     H 7938   6.535   4.074   7.435 -1.8602 -0.4140  0.7483
  800MOL0     H 7939   6.546   4.222   7.605 -2.7226 -1.2470 -1.5157
  800MOL0     H 7940   6.541   4.362   7.492 -3.1458 -1.5667 -0.1394
  800MOL0     H 7941   6.753   4.224   7.612 -1.7785  1.3536  1.9267
  800MOL0     H 7942   6.776   4.162   7.449  1.2052  0.2504  1.5610
  800MOL0     H 7943   6.786   4.390   7.347  0.7889 -2.2406 -0.1175
  800MOL0     H 7944   6.746   4.461   7.501  0.5820  0.7029 -0.2809
  800MOL0     H 7945   7.007   4.463   7.434 -1.5734  1.6174 -1.2544
  800MOL0     H 7946   6.970   4.401   7.600 -1.5466 -0.2624  0.9173
  800MOL0     H 7947   6.981   4.160   7.456 -1.8115  1.1525 -0.9132
  800MOL0     H 7948   7.125   4.253   7.504 -1.1401 -2.6297  3.2303
  800MOL0     H 7949   6.966   4.257   7.247 -1.1907  2.5393  2.0867
  800MOL0     H 7950   7.111   4.353   7.274 -1.7663  0.8628 -1.3647
  800MOL0     H 7951   7.330   4.264   7.191  0.7626 -0.1129 -3.7960
  800MOL0     H 7952   7.388   3.960   6.980 -0.2121  1.1514  0.1498
  800MOL0     H 7953   7.413   4.127   6.962  1.0387 -0.0911 -2.2954
  800MOL0     H 7954   7.619   4.026   7.040 -1.0377 -2.4196 -1.0209
  800MOL0     H 7955   7.562   4.103   7.190  1.2357  2.5237 -2.5609
  800MOL0     H 7956   7.546   3.803   7.128  0.5482  1.4524 -3.1298
  800MOL0     H 7957   7.485   3.886   7.270  0.2488 -0.3653  0.3625
  800MOL0     H 7958   7.701   3.784   7.301  0.6615  0.7426  0.2171
  800MOL0     H 7959   7.698   3.965   7.327  0.6430  2.2186 -2.0683
  800MOL0     H 7960   7.895   3.882   7.388  0.4432  1.5341  1.6130
  800MOL0     H 7961   8.152   3.890   7.421 -0.3949 -0.7243  0.2584
  800MOL0     H 7962   8.612   3.865   7.213 -1.6869  2.1703 -0.9158
  800MOL0     H 7963   8.842   3.910   7.298  1.2962  1.8163  0.4822
  800MOL0     H 7964   9.010   3.841   7.503  0.2838  0.3491  2.4294
  800MOL0     H 7965   9.038   3.960   7.370  1.5882 -0.6678  0.1910
  800MOL0     H 7966   9.234   3.945   7.472  0.3047 -4.5163  3.3964
  800MOL0     H 7967   9.173   4.106   7.514 -0.7410  0.1413 -2.3726
  800MOL0     H 7968   9.110   3.992   7.746 -0.3670  1.7222 -1.2364
  800MOL0     H 7969   9.236   3.866   7.699 -0.1716 -0.1821  1.8916
  800MOL0     H 7970   9.289   4.166   7.710 -1.9074  0.2585  0.6482
  800MOL0     H 7971   9.400   4.031   7.700  0.9357 -0.3743  3.6472
  800MOL0     H 7972   9.336   3.939   7.925 -3.7141  1.2312  2.7514
  800MOL0     H 7973   9.226   4.069   7.949 -1.6633 -1.5111 -0.3084
  800MOL0     H 7974   9.520   4.122   7.883 -1.1405 -0.9581 -0.4482
  800MOL0     H 7975   9.398   4.242   7.940 -1.6349 -0.7980 -3.1543
  800MOL0     H 7976   9.500   3.984   8.086 -1.6027 -0.4537 -0.9460
  800MOL0     H 7977   9.400   4.104   8.153  1.6890 -0.6978  1.5608
  800MOL0     H 7978   9.694   4.143   8.069 -0.5902  1.2880 -1.7280
  800MOL0     H 7979   9.600   4.281   8.123  2.7613  0.2248 -2.9225
  800MOL0     H 7980   8.711   4.142   7.617 -0.4712  1.6076 -1.1738
  800MOL0     H 7981   8.468   4.111   7.550 -0.5811  1.6771 -1.7357
  800MOL0     H 7982   8.188   3.945   6.997 -2.2835 -4.0362 -2.8143
  800MOL0     H 7983   7.935   3.929   6.980 -0.1710 -0.7069  0.0351
  800MOL0     H 7984   6.258   4.558   7.389 -1.1295  2.7413 -2.0284
  800MOL0     H 7985   6.021   4.624   7.407 -1.6866  0.2049 -2.7502
  800MOL0     H 7986   5.567   4.370   7.334 -0.3704 -1.0716  2.3386
  800MOL0     H 7987   5.333   4.377   7.354  0.7060  0.6183 -0.3397
  800MOL0     H 7988   4.986   4.639   7.364  0.1055  2.7923 -3.7671
  800MOL0     H 7989   5.087   4.775   7.348  0.0766 -0.3409  0.5983
  800MOL0     H 7990   5.004   4.725   7.583 -1.3892 -2.8230 -1.3077
  800MOL0     H 7991   5.183   4.728   7.592 -0.7713  0.4182  1.8487
  800MOL0     H 7992   5.193   4.497   7.573 -1.3535 -0.5147  0.4510
  800MOL0     H 7993   5.016   4.480   7.602  0.4621 -1.1384 -0.6537
  800MOL0     H 7994   5.093   4.643   7.810 -1.4059  0.1193 -1.9858
  800MOL0     H 7995   5.089   4.474   7.810 -0.3514  1.7252 -0.5696
  800MOL0     H 7996   5.494   4.584   7.864  1.0605 -0.7810 -1.5433
  800MOL0     H 7997   5.342   4.809   7.327  0.5423  0.5915 -0.4916
  800MOL0     H 7998   5.659   4.861   7.436  0.7442  0.6718 -1.7045
  800MOL0     H 7999   5.648   4.888   7.263 -0.7050 -1.3051 -1.0615
  800MOL0     H 8000   5.520   4.944   7.366 -2.5147 -1.2976  1.2345
  801MOL0     O 8001   1.336   8.528   2.333  0.2221 -0.2960 -0.6425
  801MOL0     C 8002   1.299   8.428   2.392 -0.5493 -0.2029 -0.3095
  801MOL0     O 8003   1.377   8.312   2.420  0.1597  0.3030 -1.1018
  801MOL0     C 8004   1.510   8.323   2.410 -0.4639 -0.0201 -0.2614
  801MOL0     C 8005   1.584   8.336   2.292 -0.1595  0.1536  0.4408
  801MOL0     C 8006   1.720   8.366   2.284 -0.6771  0.2685 -0.3315
  801MOL0     C 8007   1.795   8.383   2.403 -0.5497 -0.4928  0.6870
  801MOL0     O 8008   1.926   8.410   2.385 -0.0981 -0.1213  1.1179
  801MOL0     C 8009   2.015   8.404   2.495 -0.5023  0.0793  0.6765
  801MOL0     C 8010   2.164   8.428   2.451  0.5631 -0.6278 -0.4996
  801MOL0     C 8011   2.221   8.303   2.382 -0.4847  0.3717  0.2683
  801MOL0     C 8012   2.354   8.344   2.312  0.2924  0.4886  0.0000
  801MOL0     C 8013   2.424   8.239   2.238 -0.8277  0.0432 -0.1772
  801MOL0     C 8014   2.572   8.263   2.177 -0.0416  0.5721  0.3244
  801MOL0     C 8015   2.590   8.412   2.132 -0.0132  0.1226  0.4873
  801MOL0     C 8016   2.738   8.458   2.129 -0.0216 -0.1713 -0.1688
  801MOL0     N 8017   2.810   8.389   2.022 -0.6391 -0.4282  0.6193
  801MOL0     C 8018   2.906   8.286   2.045 -0.0668 -0.3318  1.1084
  801MOL0     C 8019   2.948   8.253   1.923  0.6978 -0.5101  0.2828
  801MOL0     C 8020   3.062   8.161   1.888  0.0535 -0.9736 -0.2720
  801MOL0     C 8021   3.191   8.237   1.837 -0.1494 -0.1212 -0.6267
  801MOL0     C 8022   3.233   8.373   1.902  0.1845 -0.5217 -0.0405
  801MOL0     C 8023   3.381   8.398   1.876  0.0943 -0.2415  0.1585
  801MOL0     O 8024   3.418   8.528   1.916  0.2811  0.5699 -0.5664
  801MOL0     C 8025   3.381   8.647   1.855  0.4099 -0.7589 -0.1282
  801MOL0     C 8026   3.323   8.664   1.727  0.2481  0.2785 -0.3213
  801MOL0     C 8027   3.296   8.783   1.666 -0.4298 -0.2985  0.3747
  801MOL0     C 8028   3.327   8.898   1.737 -0.1586  0.1548 -0.0817
  801MOL0     C 8029   3.278   9.029   1.689  0.0044 -0.5751  0.0211
  801MOL0     O 8030   3.218   9.038   1.566  0.2054 -0.9538 -0.4858
  801MOL0     C 8031   3.184   9.164   1.531 -0.7809 -0.3298  0.4090
  801MOL0     C 8032   3.278   9.224   1.445  0.1686 -0.1573 -0.5570
  801MOL0     C 8033   3.263   9.363   1.419 -0.0003  0.1416 -0.1843
  801MOL0     C 8034   3.143   9.435   1.448 -0.0106 -0.0313 -0.9153
  801MOL0     O 8035   3.116   9.564   1.427  0.8038 -0.3247  0.5288
  801MOL0     C 8036   3.199   9.646   1.349 -0.1113 -0.3406  0.0106
  801MOL0     C 8037   3.166   9.788   1.372  0.3930  0.5646  0.1207
  801MOL0     C 8038   3.036   9.830   1.283 -0.9627  0.4871 -0.5909
  801MOL0     C 8039   3.027   9.978   1.288  0.1667  0.6234 -0.5227
  801MOL0     C 8040   2.919  10.028   1.193 -0.0758  0.0406  0.4776
  801MOL0     C 8041   2.800   9.946   1.178  0.1449  0.2376  0.7282
  801MOL0     C 8042   2.694  10.004   1.081  0.0256 -0.8306 -0.5064
  801MOL0     C 8043   2.568   9.912   1.084 -0.7556  0.1213  0.6129
  801MOL0    Cl 8044   2.454   9.983   0.969 -0.2890 -0.1835 -0.4134
  801MOL0     C 8045   3.053   9.369   1.530  0.1828  0.1166 -0.3595
  801MOL0     C 8046   3.076   9.234   1.578  0.5500 -0.1488  0.7573
  801MOL0     O 8047   3.290   9.122   1.768  1.0022  0.3735 -0.3510
  801MOL0     C 8048   3.377   8.884   1.869 -0.2468  0.0565 -0.0908
  801MOL0     C 8049   3.403   8.768   1.927 -0.3023  0.6644 -0.6555
  801MOL0     N 8050   2.879   8.327   1.830 -0.1021 -0.4193  0.8848
  801MOL0     N 8051   2.792   8.403   1.887 -0.1998 -0.8258  0.1929
  801MOL0     C 8052   1.724   8.351   2.520 -0.0901 -0.4361  0.5582
  801MOL0     C 8053   1.583   8.332   2.524 -0.4174  0.7867 -0.7871
  801MOL0     C 8054   1.163   8.422   2.434  0.9646 -0.3952  0.1506
  801MOL0     C 8055   1.142   8.392   2.568 -0.4293 -0.4215 -0.4875
  801MOL0     C 8056   1.014   8.390   2.619  0.7534  0.5027 -0.0244
  801MOL0     C 8057   0.900   8.393   2.540  0.4069 -0.0767  0.6736
  801MOL0     O 8058   0.771   8.370   2.571 -0.3883  0.0342 -0.7542
  801MOL0     C 8059   0.728   8.395   2.703 -0.0377  0.4875 -0.3835
  801MOL0     C 8060   0.658   8.530   2.696  0.1249  0.2592  0.2358
  801MOL0     C 8061   0.558   8.551   2.581 -0.2150 -0.1884  0.3831
  801MOL0     C 8062   0.494   8.690   2.582 -1.0091 -0.0268  0.8828
  801MOL0     C 8063   0.600   8.797   2.575 -0.1207 -0.3082  0.4310
  801MOL0     C 8064   0.674   8.892   2.579  0.4792  0.0190 -0.4855
  801MOL0     C 8065   0.914   8.421   2.401 -0.6667 -0.1505 -0.0631
  801MOL0     C 8066   1.043   8.439   2.345  0.7784 -0.1386 -0.4995
  801MOL0     C 8067   1.055   8.450   2.191  0.0890 -0.4135 -0.3632
  801MOL0     H 8068   1.530   8.330   2.198  0.6920 -0.8712  0.0024
  801MOL0     H 8069   1.773   8.371   2.189  2.1141  4.0346  1.1746
  801MOL0     H 8070   1.991   8.486   2.564  1.4761  0.4550  0.9668
  801MOL0     H 8071   1.996   8.313   2.552 -1.3184  0.7760  1.5662
  801MOL0     H 8072   2.228   8.448   2.537  1.6033 -1.1212 -1.1343
  801MOL0     H 8073   2.169   8.516   2.386 -0.5891 -0.9217 -1.0113
  801MOL0     H 8074   2.162   8.263   2.299 -0.5593  3.4679 -1.3034
  801MOL0     H 8075   2.245   8.218   2.448 -2.0515 -0.9123 -0.7352
  801MOL0     H 8076   2.326   8.419   2.238  1.1350 -0.3963 -1.2619
  801MOL0     H 8077   2.418   8.382   2.392 -0.1002 -0.5062  0.8086
  801MOL0     H 8078   2.423   8.151   2.302 -0.6320  0.7821  0.8671
  801MOL0     H 8079   2.373   8.222   2.143  1.5867  1.6460 -1.8809
  801MOL0     H 8080   2.629   8.229   2.264 -2.2107 -2.9717  0.5680
  801MOL0     H 8081   2.597   8.202   2.089 -0.9374  1.8506 -0.8620
  801MOL0     H 8082   2.542   8.481   2.202 -0.6586 -0.3598  0.5280
  801MOL0     H 8083   2.538   8.422   2.036 -4.6273 -3.4030  2.2237
  801MOL0     H 8084   2.729   8.562   2.096 -3.6088  0.0977  1.2432
  801MOL0     H 8085   2.782   8.450   2.229 -0.0246 -0.0342 -0.1561
  801MOL0     H 8086   2.951   8.266   2.142  1.9206  3.2022  1.0766
  801MOL0     H 8087   3.087   8.091   1.969 -2.8256  0.3995  1.9843
  801MOL0     H 8088   3.017   8.099   1.810  1.3166 -2.3267  0.0297
  801MOL0     H 8089   3.272   8.166   1.858  0.1075  0.3157 -0.1447
  801MOL0     H 8090   3.176   8.250   1.729 -0.9519 -2.3864 -0.8409
  801MOL0     H 8091   3.216   8.381   2.009  1.0429  2.0814 -0.0286
  801MOL0     H 8092   3.178   8.449   1.846  0.5911 -0.0290  0.2254
  801MOL0     H 8093   3.406   8.382   1.771  1.5130  1.5791  0.1583
  801MOL0     H 8094   3.433   8.330   1.944 -1.6731  0.2388  2.1273
  801MOL0     H 8095   3.317   8.570   1.674 -1.0020 -1.2653  2.3678
  801MOL0     H 8096   3.263   8.782   1.563  3.9795 -1.9051 -1.2336
  801MOL0     H 8097   3.354   9.170   1.390 -0.7257 -0.5946 -1.4041
  801MOL0     H 8098   3.351   9.419   1.388  1.6050 -2.8043 -1.3429
  801MOL0     H 8099   3.304   9.640   1.381 -0.9530 -0.3399  3.0202
  801MOL0     H 8100   3.170   9.618   1.247 -1.3895 -1.7068  0.7129
  801MOL0     H 8101   3.146   9.803   1.479 -0.2962  2.0548 -0.1839
  801MOL0     H 8102   3.249   9.852   1.342 -0.1957  1.5420  0.5133
  801MOL0     H 8103   3.057   9.797   1.181 -5.4368  2.5890 -2.4263
  801MOL0     H 8104   2.945   9.783   1.320 -0.6818  0.7857  0.5376
  801MOL0     H 8105   3.125  10.018   1.260  1.4252 -1.3862  0.7593
  801MOL0     H 8106   2.994   9.997   1.391  2.3111  0.6409  0.2182
  801MOL0     H 8107   2.956  10.038   1.091 -0.4087  1.7210  0.4931
  801MOL0     H 8108   2.903  10.128   1.234 -0.3859  1.2930 -2.4247
  801MOL0     H 8109   2.813   9.847   1.133 -0.1590  0.2065  0.7056
  801MOL0     H 8110   2.769   9.932   1.282 -1.5873 -0.4204  0.1641
  801MOL0     H 8111   2.736  10.009   0.980 -0.6438 -0.6972 -0.7813
  801MOL0     H 8112   2.674  10.107   1.112  0.1944 -1.0361  0.3013
  801MOL0     H 8113   2.603   9.809   1.074 -0.2796 -0.1466  4.0788
  801MOL0     H 8114   2.517   9.905   1.180 -2.8483  1.1909 -0.3492
  801MOL0     H 8115   2.969   9.422   1.574  2.2910  1.3030  2.5941
  801MOL0     H 8116   3.012   9.173   1.641  0.3380 -1.4377 -0.6454
  801MOL0     H 8117   3.397   8.973   1.929 -0.4057  0.7866 -1.0916
  801MOL0     H 8118   3.434   8.770   2.031 -0.1415 -3.1837 -0.4652
  801MOL0     H 8119   1.775   8.346   2.616  2.4362  0.3179 -0.6668
  801MOL0     H 8120   1.545   8.317   2.625  2.3700 -2.5247 -0.0279
  801MOL0     H 8121   1.217   8.367   2.641 -0.2959 -1.6078 -1.0007
  801MOL0     H 8122   1.008   8.373   2.726 -0.7006 -0.7017 -0.2727
  801MOL0     H 8123   0.810   8.401   2.775 -1.9948  2.0005  1.8371
  801MOL0     H 8124   0.658   8.315   2.730 -1.2118  1.5506 -0.2025
  801MOL0     H 8125   0.744   8.598   2.696  1.2089 -1.0583  0.5981
  801MOL0     H 8126   0.601   8.527   2.789  0.5265  0.5222  0.4944
  801MOL0     H 8127   0.475   8.480   2.593 -2.3314  1.4527 -2.9051
  801MOL0     H 8128   0.594   8.543   2.478 -1.8050  2.6293 -0.5266
  801MOL0     H 8129   0.441   8.707   2.488 -0.4300 -2.7257  0.0011
  801MOL0     H 8130   0.426   8.691   2.667 -2.5426  2.0019 -0.2742
  801MOL0     H 8131   0.741   8.975   2.581  1.5904 -0.6195 -3.9763
  801MOL0     H 8132   0.820   8.420   2.347 -0.9524  0.1640  0.4255
  801MOL0     H 8133   1.087   8.354   2.150  1.5854 -0.7024  1.3678
  801MOL0     H 8134   0.960   8.473   2.142 -0.1659 -1.0500 -0.1805
  801MOL0     H 8135   1.134   8.516   2.154  1.7523 -0.7274  2.4058
  802MOL0     O 8136   0.767   9.553   8.616  0.7054 -0.3985  0.1224
  802MOL0     C 8137   0.651   9.571   8.584  1.0989 -0.1878  0.5042
  802MOL0     O 8138   0.585   9.480   8.511 -0.6701 -0.3145  0.2088
  802MOL0     C 8139   0.650   9.361   8.484 -0.5891  0.2901  0.1293
  802MOL0     C 8140   0.624   9.239   8.558  1.0413 -0.0755  0.5605
  802MOL0     C 8141   0.681   9.121   8.519  0.7867 -0.5736 -0.5001
  802MOL0     C 8142   0.776   9.115   8.416 -0.5872 -0.5642  0.2159
  802MOL0     O 8143   0.849   9.000   8.389  0.3490  0.0847  0.1176
  802MOL0     C 8144   0.865   8.885   8.478  0.2677 -0.1872 -0.1378
  802MOL0     C 8145   0.953   8.772   8.415 -0.5568  0.7908  0.0129
  802MOL0     C 8146   0.878   8.726   8.293 -0.0457 -0.0484  0.7492
  802MOL0     C 8147   0.962   8.623   8.211  0.5206  0.5656 -0.5037
  802MOL0     C 8148   0.896   8.567   8.074 -0.4309  0.4681  0.3060
  802MOL0     C 8149   0.966   8.436   8.031 -0.0219 -0.5969 -0.7306
  802MOL0     C 8150   1.106   8.461   7.983 -0.3599  0.3593 -0.0855
  802MOL0     C 8151   1.143   8.334   7.903  0.6178  0.3212  0.0167
  802MOL0     N 8152   1.280   8.355   7.857 -0.1715  0.2271 -0.7295
  802MOL0     C 8153   1.384   8.349   7.943  0.7139  0.0271 -0.1753
  802MOL0     C 8154   1.491   8.392   7.870  0.4489  1.3664  0.4620
  802MOL0     C 8155   1.626   8.417   7.925  0.3074  0.4056 -0.0173
  802MOL0     C 8156   1.689   8.291   7.995 -0.2078 -0.2710  1.1941
  802MOL0     C 8157   1.715   8.175   7.898  0.0030  0.0370 -0.3636
  802MOL0     C 8158   1.762   8.045   7.955  0.3176 -0.5463 -1.3777
  802MOL0     O 8159   1.787   7.940   7.864  0.1666  0.2629 -0.1031
  802MOL0     C 8160   1.899   7.947   7.781 -0.7872 -0.2802 -0.3774
  802MOL0     C 8161   1.875   8.001   7.650  0.1790  0.2827  0.2971
  802MOL0     C 8162   1.978   7.985   7.565  0.3589  0.1411 -0.1364
  802MOL0     C 8163   2.098   7.919   7.586 -0.0206 -0.1932  0.0126
  802MOL0     C 8164   2.204   7.903   7.466 -0.0454  0.2722 -0.4323
  802MOL0     O 8165   2.196   7.994   7.365  0.1949  0.3056 -0.3318
  802MOL0     C 8166   2.301   8.019   7.278  0.5209 -0.9803 -0.8308
  802MOL0     C 8167   2.272   8.070   7.156 -0.2357 -0.0112  0.8853
  802MOL0     C 8168   2.374   8.107   7.067  0.1651  0.0944  0.1760
  802MOL0     C 8169   2.507   8.099   7.094  0.1144  0.0885 -0.0164
  802MOL0     O 8170   2.616   8.125   7.016  1.4028  0.3777  0.2048
  802MOL0     C 8171   2.588   8.209   6.901 -0.2941  0.1352 -0.6062
  802MOL0     C 8172   2.712   8.251   6.824  0.0555 -0.1783  0.7476
  802MOL0     C 8173   2.781   8.144   6.742  0.0363  0.2673  0.1803
  802MOL0     C 8174   2.887   8.186   6.634  0.2390 -0.6601 -0.0198
  802MOL0     C 8175   3.027   8.194   6.695  0.9952 -0.2952 -0.3149
  802MOL0     C 8176   3.141   8.250   6.605  0.3886 -0.8177 -0.2549
  802MOL0     C 8177   3.278   8.246   6.666 -0.0853  0.0209  0.1115
  802MOL0     C 8178   3.400   8.305   6.592 -0.0888  0.1295  0.6464
  802MOL0    Cl 8179   3.423   8.216   6.438 -0.0921  0.1430 -0.0190
  802MOL0     C 8180   2.543   8.052   7.225 -0.2061  0.7297 -0.6586
  802MOL0     C 8181   2.440   8.008   7.305 -0.2151  0.3086 -0.6125
  802MOL0     O 8182   2.296   7.820   7.481  0.7761 -0.2985  0.1002
  802MOL0     C 8183   2.119   7.869   7.714  0.6211 -0.9226 -0.3869
  802MOL0     C 8184   2.025   7.884   7.818  0.5761  0.1010 -0.2433
  802MOL0     N 8185   1.457   8.421   7.741  0.1089  0.7151  0.2973
  802MOL0     N 8186   1.323   8.396   7.733  0.0503 -0.1904  0.3718
  802MOL0     C 8187   0.813   9.230   8.346  0.3787  0.1354 -0.3031
  802MOL0     C 8188   0.748   9.356   8.382  0.1888 -0.8664 -0.0355
  802MOL0     C 8189   0.575   9.692   8.626 -0.7325 -0.4381  0.2253
  802MOL0     C 8190   0.449   9.716   8.564 -0.2507 -0.6015  0.9148
  802MOL0     C 8191   0.386   9.837   8.578 -0.2791  0.9058 -0.3836
  802MOL0     C 8192   0.447   9.925   8.669 -0.6873  0.5904  0.1906
  802MOL0     O 8193   0.399  10.054   8.651 -0.0685  0.9435 -0.6570
  802MOL0     C 8194   0.360  10.114   8.783  0.3415 -0.0677  0.6875
  802MOL0     C 8195   0.237  10.036   8.837 -1.2728 -0.2372  1.0294
  802MOL0     C 8196   0.124  10.041   8.738  0.8701 -0.7302  0.8071
  802MOL0     C 8197   0.018   9.940   8.781  0.5848  0.1988 -0.2171
  802MOL0     C 8198   0.058   9.808   8.731  0.6884 -0.6758  0.0960
  802MOL0     C 8199   0.099   9.709   8.671  0.9855  0.6364 -0.5542
  802MOL0     C 8200   0.566   9.900   8.739  0.5136 -0.6978  0.8775
  802MOL0     C 8201   0.632   9.782   8.724 -0.1227  0.4185  0.6733
  802MOL0     C 8202   0.762   9.765   8.800  0.2283  0.3700 -0.4013
  802MOL0     H 8203   0.539   9.239   8.626  1.5504  0.1793  1.1976
  802MOL0     H 8204   0.658   9.024   8.561  2.3597 -1.4865 -1.6294
  802MOL0     H 8205   0.912   8.929   8.567 -1.7098 -0.5375  1.1342
  802MOL0     H 8206   0.772   8.847   8.520 -0.2197  0.9989 -0.1015
  802MOL0     H 8207   0.969   8.686   8.482  1.5359  2.7398  2.2112
  802MOL0     H 8208   1.055   8.808   8.406 -1.3548  3.8940  1.9360
  802MOL0     H 8209   0.865   8.810   8.223 -1.5072 -1.7098 -1.0962
  802MOL0     H 8210   0.774   8.695   8.309 -2.5327  4.4113 -3.6973
  802MOL0     H 8211   1.056   8.671   8.182  2.6402 -2.3378  0.9422
  802MOL0     H 8212   0.980   8.539   8.279 -1.7903  0.2194 -0.2457
  802MOL0     H 8213   0.790   8.547   8.094 -0.3725  0.4171  0.5660
  802MOL0     H 8214   0.907   8.650   8.004  0.6211  1.4959  1.6474
  802MOL0     H 8215   0.981   8.364   8.112 -2.4511  0.3124  0.6511
  802MOL0     H 8216   0.910   8.395   7.947 -1.6123 -1.5279  0.7200
  802MOL0     H 8217   1.159   8.474   8.078 -2.7802  1.9181  1.1527
  802MOL0     H 8218   1.112   8.549   7.919 -1.3932  0.7330  0.3096
  802MOL0     H 8219   1.129   8.246   7.967 -2.0417  1.7046  1.5302
  802MOL0     H 8220   1.075   8.324   7.818  1.1412  0.4037 -0.4160
  802MOL0     H 8221   1.364   8.328   8.048 -0.5204  1.3128 -0.1170
  802MOL0     H 8222   1.696   8.436   7.844 -1.0278  0.0891 -1.2753
  802MOL0     H 8223   1.627   8.505   7.992 -0.5832  0.1854  0.3025
  802MOL0     H 8224   1.791   8.323   8.019 -0.3548  1.2624 -0.0590
  802MOL0     H 8225   1.634   8.269   8.087 -0.7681 -0.5977  0.7840
  802MOL0     H 8226   1.788   8.205   7.822 -0.5763 -0.2600 -1.0564
  802MOL0     H 8227   1.621   8.149   7.848  0.8908 -1.7133 -1.2312
  802MOL0     H 8228   1.676   8.018   8.018  0.5491  0.9646 -0.3552
  802MOL0     H 8229   1.848   8.057   8.022 -1.3935  3.4102  0.4278
  802MOL0     H 8230   1.782   8.048   7.619  0.0131  0.1729  0.6222
  802MOL0     H 8231   1.986   8.025   7.465 -0.4123  1.3346  0.2621
  802MOL0     H 8232   2.169   8.097   7.134  0.0330 -0.1247 -0.6212
  802MOL0     H 8233   2.347   8.139   6.967  2.5696 -1.2092 -0.9771
  802MOL0     H 8234   2.526   8.147   6.835 -3.2809  1.3975  0.8203
  802MOL0     H 8235   2.543   8.301   6.940  1.1501 -0.0774  1.7186
  802MOL0     H 8236   2.700   8.331   6.750  3.8943 -1.5274 -1.6348
  802MOL0     H 8237   2.788   8.292   6.891  0.4331 -2.3735  1.7387
  802MOL0     H 8238   2.836   8.084   6.816 -3.3686  0.8332  3.5114
  802MOL0     H 8239   2.701   8.084   6.698 -0.2687 -0.7459  2.0150
  802MOL0     H 8240   2.868   8.287   6.597  1.8225  0.1642  1.2737
  802MOL0     H 8241   2.883   8.123   6.544  0.3135 -0.7358  0.0295
  802MOL0     H 8242   3.048   8.089   6.712 -1.3178 -0.7616  0.0821
  802MOL0     H 8243   3.029   8.248   6.791  2.5259  0.9539 -1.0166
  802MOL0     H 8244   3.141   8.197   6.509 -1.4499 -4.1642  1.3712
  802MOL0     H 8245   3.115   8.351   6.574  1.1968 -0.5122  0.0471
  802MOL0     H 8246   3.295   8.141   6.693 -1.7470  0.6221  4.2898
  802MOL0     H 8247   3.255   8.298   6.759 -0.1396  1.4064 -0.6399
  802MOL0     H 8248   3.379   8.407   6.560  0.1997  0.2295  0.7829
  802MOL0     H 8249   3.494   8.306   6.647  1.7751  2.3308 -2.2498
  802MOL0     H 8250   2.645   8.050   7.263 -0.7355  3.5119  1.1522
  802MOL0     H 8251   2.462   7.964   7.402 -1.4365 -0.6963 -0.7719
  802MOL0     H 8252   2.212   7.816   7.734  0.9485 -1.1193 -2.3076
  802MOL0     H 8253   2.035   7.844   7.918  2.7950 -1.3143 -0.9567
  802MOL0     H 8254   0.899   9.221   8.281  0.1778 -0.3364 -0.5059
  802MOL0     H 8255   0.770   9.445   8.324 -0.7233 -1.0558 -0.6900
  802MOL0     H 8256   0.407   9.640   8.500  0.5453 -0.3535  0.0731
  802MOL0     H 8257   0.293   9.858   8.525 -0.0299  0.6198 -0.9440
  802MOL0     H 8258   0.315  10.214   8.780  1.1315  0.3381  1.6954
  802MOL0     H 8259   0.442  10.119   8.855  0.1665  0.8970  0.8380
  802MOL0     H 8260   0.204  10.070   8.935 -1.6571  1.0544  0.4779
  802MOL0     H 8261   0.269   9.933   8.856  0.0146  0.1517  1.1133
  802MOL0     H 8262   0.156  10.007   8.640  1.9393 -0.6641  1.1187
  802MOL0     H 8263   0.069  10.136   8.742 -0.7850 -1.6504  0.6991
  802MOL0     H 8264   0.002   9.930   8.889 -2.6853  3.5074 -0.1933
  802MOL0     H 8265  -0.080   9.972   8.744  2.1383  1.4438 -3.7323
  802MOL0     H 8266   0.132   9.631   8.606 -3.9117 -2.6275  0.3304
  802MOL0     H 8267   0.615   9.992   8.770 -3.0029  1.9442 -0.6655
  802MOL0     H 8268   0.768   9.661   8.833  1.3188 -0.3068 -2.5262
  802MOL0     H 8269   0.851   9.776   8.736  0.9336 -2.5454 -0.0872
  802MOL0     H 8270   0.777   9.831   8.886 -2.6711  1.5303 -0.6840
  803MOL0     O 8271  11.115   4.323  11.363  0.5127 -0.1774 -0.2135
  803MOL0     C 8272  11.207   4.397  11.379  0.9536 -0.8125  0.0469
  803MOL0     O 8273  11.193   4.510  11.467  0.3077  0.2528 -0.3496
  803MOL0     C 8274  11.073   4.546  11.519 -0.7612  1.0969 -0.0543
  803MOL0     C 8275  11.074   4.551  11.658 -0.8843  0.8303  0.1019
  803MOL0     C 8276  10.958   4.595  11.719  0.0586  1.0996 -0.1433
  803MOL0     C 8277  10.839   4.628  11.651  0.2931 -0.1818 -0.8226
  803MOL0     O 8278  10.733   4.664  11.729  0.5209  0.3524  0.6260
  803MOL0     C 8279  10.634   4.561  11.720  0.7707  0.9026 -1.0118
  803MOL0     C 8280  10.567   4.549  11.863  0.6605 -0.4461  0.4666
  803MOL0     C 8281  10.655   4.534  11.981 -0.1079  0.3161 -0.6936
  803MOL0     C 8282  10.689   4.670  12.036 -1.1850  0.0743 -0.1940
  803MOL0     C 8283  10.826   4.678  12.104  0.7836 -0.4669 -0.6798
  803MOL0     C 8284  10.865   4.810  12.186  1.0338 -0.4709  0.2403
  803MOL0     C 8285  10.839   4.931  12.089 -0.1079  0.0133  0.0162
  803MOL0     C 8286  10.851   5.080  12.152 -0.8913  0.1227 -0.3535
  803MOL0     N 8287  10.992   5.098  12.199 -0.8023 -0.6122 -0.6694
  803MOL0     C 8288  11.098   5.147  12.120  0.1022  0.5057 -0.5549
  803MOL0     C 8289  11.206   5.156  12.198 -0.0431  0.4906  0.1829
  803MOL0     C 8290  11.342   5.202  12.173 -0.0510  0.5488 -0.2320
  803MOL0     C 8291  11.407   5.117  12.066 -0.5413  0.4115  0.2662
  803MOL0     C 8292  11.556   5.132  12.065 -0.6979  0.0455 -0.8550
  803MOL0     C 8293  11.614   5.050  11.952 -0.2669 -0.1883 -0.1950
  803MOL0     O 8294  11.756   5.043  11.943 -0.0407 -0.2342  0.0912
  803MOL0     C 8295  11.843   5.147  11.986 -0.7487 -0.1879 -0.7036
  803MOL0     C 8296  11.832   5.269  11.922  0.1413  0.9023 -0.7316
  803MOL0     C 8297  11.891   5.380  11.968  0.0279  0.3813  0.0149
  803MOL0     C 8298  11.984   5.377  12.071  0.2790 -1.3212 -0.9753
  803MOL0     C 8299  12.060   5.505  12.105 -0.4837  0.0298  0.6194
  803MOL0     O 8300  12.019   5.625  12.053 -0.1576 -0.3527  0.3586
  803MOL0     C 8301  12.076   5.740  12.097  0.3904  0.0972  0.2541
  803MOL0     C 8302  12.122   5.768  12.227  0.0677  1.1350 -0.2482
  803MOL0     C 8303  12.180   5.901  12.259  0.7216 -0.0088 -0.2258
  803MOL0     C 8304  12.189   5.997  12.154  0.3036 -0.0004 -0.1050
  803MOL0     O 8305  12.232   6.130  12.183 -0.4341  0.6597  0.0488
  803MOL0     C 8306  12.165   6.202  12.287 -0.3696 -0.2254  0.1844
  803MOL0     C 8307  12.229   6.344  12.314  0.1706 -0.5903  0.5330
  803MOL0     C 8308  12.260   6.413  12.172  0.2239 -0.0601 -0.1190
  803MOL0     C 8309  12.367   6.520  12.184  0.4479 -1.0370  0.7300
  803MOL0     C 8310  12.375   6.611  12.057  0.9585  0.7068 -0.3928
  803MOL0     C 8311  12.275   6.721  12.039 -0.2472 -0.0432  0.1360
  803MOL0     C 8312  12.243   6.724  11.889  0.1451  0.1574 -0.4027
  803MOL0     C 8313  12.132   6.821  11.864  0.5096  0.4502 -0.0769
  803MOL0    Cl 8314  12.119   6.862  11.692  0.1882 -0.2579  0.1723
  803MOL0     C 8315  12.159   5.963  12.020 -0.2146 -0.0650 -0.1159
  803MOL0     C 8316  12.101   5.838  11.992 -0.1985  0.6243 -0.8781
  803MOL0     O 8317  12.162   5.482  12.177 -0.6457 -0.6992 -0.2889
  803MOL0     C 8318  12.003   5.262  12.141  0.3595  1.3021  0.8689
  803MOL0     C 8319  11.927   5.151  12.101 -0.3182  0.2192 -0.0610
  803MOL0     N 8320  11.162   5.133  12.324  0.8686 -0.6480 -0.0805
  803MOL0     N 8321  11.041   5.084  12.321 -0.0281 -0.0119  0.1850
  803MOL0     C 8322  10.844   4.624  11.516 -0.6238  0.2468 -0.1013
  803MOL0     C 8323  10.959   4.586  11.443  0.7487 -0.4331  0.3480
  803MOL0     C 8324  11.332   4.367  11.299 -0.5162  0.4472 -0.7944
  803MOL0     C 8325  11.409   4.484  11.277  0.3151  0.4550  0.2408
  803MOL0     C 8326  11.523   4.475  11.202 -0.0464 -0.0995  0.0157
  803MOL0     C 8327  11.563   4.359  11.137  0.4770 -0.0816 -0.2630
  803MOL0     O 8328  11.675   4.366  11.063  0.8722  0.2075 -0.4147
  803MOL0     C 8329  11.781   4.266  11.076 -0.3065 -1.1159  0.0354
  803MOL0     C 8330  11.845   4.261  11.214 -0.7840  0.0592  0.2744
  803MOL0     C 8331  11.974   4.177  11.208  0.4227  0.1769  0.6638
  803MOL0     C 8332  12.065   4.165  11.332  1.1077  0.4901 -0.2834
  803MOL0     C 8333  11.982   4.118  11.442 -0.1708  0.0407  0.2897
  803MOL0     C 8334  11.918   4.042  11.515 -0.1968  0.6670  1.0795
  803MOL0     C 8335  11.494   4.242  11.169  0.2065 -0.1020  0.8080
  803MOL0     C 8336  11.373   4.245  11.241  0.3808 -0.7541 -0.1436
  803MOL0     C 8337  11.289   4.123  11.244  0.3028 -0.7195 -0.3232
  803MOL0     H 8338  11.158   4.530  11.724 -2.1534 -0.7655  1.2873
  803MOL0     H 8339  10.961   4.599  11.828  0.6366  1.5327 -0.1729
  803MOL0     H 8340  10.560   4.575  11.641 -1.9183 -0.2625  1.1174
  803MOL0     H 8341  10.670   4.460  11.701 -1.1993 -0.2763  0.9950
  803MOL0     H 8342  10.515   4.453  11.854 -0.3212  0.2687 -4.0465
  803MOL0     H 8343  10.498   4.632  11.879  3.3523  1.7176  1.5411
  803MOL0     H 8344  10.744   4.476  11.953  0.2778  1.4834 -2.0080
  803MOL0     H 8345  10.609   4.479  12.064  1.7747  0.3247  0.4278
  803MOL0     H 8346  10.669   4.736  11.951 -0.3278  0.0331 -0.4409
  803MOL0     H 8347  10.612   4.687  12.112 -2.7110 -2.3017 -1.1117
  803MOL0     H 8348  10.838   4.588  12.164 -1.3297 -0.3281  0.0318
  803MOL0     H 8349  10.904   4.675  12.027  1.3083  3.2033 -0.4686
  803MOL0     H 8350  10.804   4.818  12.276 -0.2351 -1.8919 -0.4351
  803MOL0     H 8351  10.970   4.820  12.214  1.9628  3.1128 -3.4977
  803MOL0     H 8352  10.736   4.936  12.055 -0.7995  0.1468  1.9740
  803MOL0     H 8353  10.910   4.924  12.006  0.4865  1.2859  0.3805
  803MOL0     H 8354  10.811   5.147  12.075  1.8066 -1.0321 -2.9783
  803MOL0     H 8355  10.785   5.089  12.239  1.7745 -1.2004  1.9632
  803MOL0     H 8356  11.107   5.158  12.013 -0.3257  2.1679 -0.4483
  803MOL0     H 8357  11.342   5.303  12.132 -0.4063  0.2312 -1.0255
  803MOL0     H 8358  11.391   5.202  12.271 -0.2434 -2.7775 -0.0131
  803MOL0     H 8359  11.383   5.011  12.081 -0.1665 -0.0234 -1.7981
  803MOL0     H 8360  11.376   5.147  11.965  1.5300  1.6414 -0.0679
  803MOL0     H 8361  11.596   5.094  12.159 -2.7912 -0.5335 -0.1510
  803MOL0     H 8362  11.596   5.234  12.053 -0.3939  0.2725  1.6882
  803MOL0     H 8363  11.580   5.094  11.858 -0.2347  0.8145  0.2420
  803MOL0     H 8364  11.564   4.953  11.954 -0.5498 -0.0655 -0.9353
  803MOL0     H 8365  11.771   5.283  11.833 -2.0450  0.0548  0.5575
  803MOL0     H 8366  11.893   5.471  11.910 -1.0418  0.2638 -0.2237
  803MOL0     H 8367  12.084   5.700  12.303 -0.6641  1.4216 -0.3450
  803MOL0     H 8368  12.182   5.914  12.366  2.4981 -2.3457  0.1158
  803MOL0     H 8369  12.058   6.203  12.264 -0.7358  0.4235  1.7508
  803MOL0     H 8370  12.174   6.144  12.380 -1.2513 -0.9839 -0.1858
  803MOL0     H 8371  12.160   6.407  12.372 -0.6347 -0.5085 -0.4925
  803MOL0     H 8372  12.326   6.335  12.365  1.5493  0.3777 -1.7522
  803MOL0     H 8373  12.305   6.348  12.096  0.6661  0.8286 -0.6313
  803MOL0     H 8374  12.166   6.457  12.136  0.1274 -1.6892 -2.0476
  803MOL0     H 8375  12.457   6.459  12.198 -2.1564 -4.9277  2.2438
  803MOL0     H 8376  12.352   6.583  12.272 -1.4854  0.2282 -0.4187
  803MOL0     H 8377  12.392   6.560  11.962 -1.1611  2.0706 -1.5784
  803MOL0     H 8378  12.472   6.660  12.073  0.9298  0.5804  0.1634
  803MOL0     H 8379  12.186   6.714  12.102  1.1798 -0.7442  2.1461
  803MOL0     H 8380  12.329   6.813  12.063  0.1464  0.2083 -1.5246
  803MOL0     H 8381  12.216   6.625  11.850 -0.4362  1.0219 -2.3179
  803MOL0     H 8382  12.330   6.754  11.830  1.0481 -1.7720 -0.1193
  803MOL0     H 8383  12.037   6.776  11.896  0.0046  2.8394  2.0944
  803MOL0     H 8384  12.144   6.916  11.916 -1.9523  1.3039 -0.9191
  803MOL0     H 8385  12.177   6.041  11.946  1.8679 -0.7692 -0.4206
  803MOL0     H 8386  12.065   5.803  11.895  0.3354 -1.6341 -0.2970
  803MOL0     H 8387  12.064   5.242  12.229  4.0617 -1.5284 -2.0601
  803MOL0     H 8388  11.933   5.073  12.177  0.0710 -0.3825 -0.6946
  803MOL0     H 8389  10.752   4.645  11.461  0.1541 -0.1118 -1.6171
  803MOL0     H 8390  10.970   4.579  11.335  0.5383  0.6775  0.2399
  803MOL0     H 8391  11.387   4.581  11.320  0.9706 -0.1487  2.0337
  803MOL0     H 8392  11.574   4.566  11.172 -0.1278 -0.3210 -0.8438
  803MOL0     H 8393  11.855   4.275  10.996 -0.8641 -0.7704 -0.4496
  803MOL0     H 8394  11.730   4.169  11.064  0.2361 -1.3799 -0.1683
  803MOL0     H 8395  11.771   4.220  11.283 -1.0894  1.2588  0.6884
  803MOL0     H 8396  11.882   4.354  11.258  1.1760 -0.4230 -0.2525
  803MOL0     H 8397  12.030   4.208  11.120 -3.1032  0.1459 -1.8062
  803MOL0     H 8398  11.939   4.076  11.186  0.2443  0.0994  1.2862
  803MOL0     H 8399  12.146   4.092  11.320  0.4189 -1.6703  5.2226
  803MOL0     H 8400  12.108   4.263  11.357  1.5531  0.2650 -0.1516
  803MOL0     H 8401  11.875   3.958  11.567  0.4625 -1.0281 -0.9965
  803MOL0     H 8402  11.521   4.153  11.113 -1.9947 -1.9229  2.4519
  803MOL0     H 8403  11.334   4.036  11.195  1.4549 -1.6637  2.2702
  803MOL0     H 8404  11.280   4.092  11.348  0.3975 -0.5494 -0.2651
  803MOL0     H 8405  11.189   4.148  11.206  0.3583  1.5482  0.8755
  804MOL0     O 8406  11.266   5.640   7.515 -0.2536  0.1714 -0.2886
  804MOL0     C 8407  11.145   5.647   7.522  0.1230  1.3175  1.5210
  804MOL0     O 8408  11.071   5.763   7.542 -0.2591 -0.0319  0.0340
  804MOL0     C 8409  11.134   5.881   7.521  0.5668 -0.6915  0.1836
  804MOL0     C 8410  11.054   5.988   7.553 -0.2323 -0.4715  1.1429
  804MOL0     C 8411  11.091   6.121   7.554 -0.4022  1.3227  0.3490
  804MOL0     C 8412  11.216   6.150   7.503 -0.2251  0.6592  0.6767
  804MOL0     O 8413  11.269   6.277   7.500  0.3235 -0.1805  0.0854
  804MOL0     C 8414  11.258   6.334   7.371  0.4314  0.6353  0.1362
  804MOL0     C 8415  11.395   6.380   7.313 -0.5576 -0.0801  0.4715
  804MOL0     C 8416  11.434   6.512   7.377  0.8156  0.4772  1.1318
  804MOL0     C 8417  11.407   6.638   7.290  0.4776 -0.2784 -0.2969
  804MOL0     C 8418  11.419   6.775   7.364 -0.5270 -0.3164 -0.7176
  804MOL0     C 8419  11.537   6.791   7.461  0.1755  0.1374 -1.0373
  804MOL0     C 8420  11.669   6.764   7.401  0.2397 -0.2232 -0.0641
  804MOL0     C 8421  11.781   6.824   7.497  0.5613  0.4989 -0.7354
  804MOL0     N 8422  11.791   6.970   7.521 -0.2705  0.1095  0.0197
  804MOL0     C 8423  11.874   7.055   7.449 -0.3363 -0.8535 -0.3396
  804MOL0     C 8424  11.858   7.177   7.519 -0.0798 -1.0535  0.1368
  804MOL0     C 8425  11.935   7.304   7.499  0.0090  0.2899  0.3721
  804MOL0     C 8426  11.878   7.375   7.366  0.8028 -0.0347 -0.4946
  804MOL0     C 8427  11.937   7.512   7.352 -0.9038  0.6065 -0.5611
  804MOL0     C 8428  11.883   7.577   7.229  0.0976  0.6009 -0.0917
  804MOL0     O 8429  11.991   7.564   7.128  0.5447 -0.2990 -0.1980
  804MOL0     C 8430  11.979   7.612   6.998  0.0827 -0.3153  0.4335
  804MOL0     C 8431  12.089   7.601   6.915  0.1539 -0.3159 -0.2419
  804MOL0     C 8432  12.092   7.651   6.781 -0.3740  0.1277 -0.6237
  804MOL0     C 8433  11.978   7.707   6.729  0.5491  0.8070  0.3602
  804MOL0     C 8434  11.983   7.782   6.605 -0.5151 -0.4839 -0.2425
  804MOL0     O 8435  11.865   7.830   6.555 -0.6033 -0.3006  1.0001
  804MOL0     C 8436  11.873   7.933   6.464 -0.3341 -1.1221  0.2960
  804MOL0     C 8437  11.776   7.939   6.361  0.5254 -0.1137  0.6542
  804MOL0     C 8438  11.768   8.036   6.264  0.1617  0.6063  0.3156
  804MOL0     C 8439  11.854   8.140   6.258 -1.7449  0.4985 -0.0133
  804MOL0     O 8440  11.837   8.219   6.149 -0.3343  0.1083  0.6876
  804MOL0     C 8441  11.922   8.325   6.135 -0.2320  0.2770  0.4069
  804MOL0     C 8442  11.906   8.407   6.012  1.0489 -0.4964  0.3077
  804MOL0     C 8443  11.936   8.337   5.879 -0.0972  0.2682 -0.3905
  804MOL0     C 8444  11.931   8.433   5.759  1.3335  0.1336  0.1755
  804MOL0     C 8445  11.784   8.495   5.730  0.1460 -0.6692 -1.5352
  804MOL0     C 8446  11.792   8.601   5.606  0.1614  0.3351 -0.4545
  804MOL0     C 8447  11.652   8.657   5.564 -1.0334 -0.0355  0.2343
  804MOL0     C 8448  11.547   8.548   5.537 -0.2203 -0.8883 -0.0019
  804MOL0    Cl 8449  11.569   8.466   5.390  0.1118 -0.3413  0.3406
  804MOL0     C 8450  11.941   8.154   6.370 -0.0965 -0.1125 -0.2638
  804MOL0     C 8451  11.953   8.052   6.473 -0.0070 -0.3056 -0.0339
  804MOL0     O 8452  12.094   7.816   6.559 -0.6320 -0.0286  0.2025
  804MOL0     C 8453  11.861   7.709   6.799 -0.3672  1.2850 -0.2545
  804MOL0     C 8454  11.858   7.660   6.932  0.5455  0.6311 -0.8121
  804MOL0     N 8455  11.760   7.166   7.616  0.3007  0.6158 -0.4075
  804MOL0     N 8456  11.720   7.039   7.614 -0.2940 -0.2777 -0.2352
  804MOL0     C 8457  11.298   6.044   7.464  0.3041 -0.3116  1.2438
  804MOL0     C 8458  11.261   5.912   7.472 -0.1010  0.2100 -0.3173
  804MOL0     C 8459  11.063   5.525   7.504 -0.1700  0.1878  0.2328
  804MOL0     C 8460  10.931   5.533   7.570  0.0452  0.1221  0.4898
  804MOL0     C 8461  10.849   5.429   7.552  0.5993  1.0352  0.1432
  804MOL0     C 8462  10.875   5.325   7.458 -0.4559 -0.4506  0.6747
  804MOL0     O 8463  10.785   5.235   7.404 -0.1154 -0.8582  0.6324
  804MOL0     C 8464  10.666   5.196   7.472  0.0723 -0.4286 -0.0842
  804MOL0     C 8465  10.697   5.129   7.603  0.3808 -0.6019 -0.7361
  804MOL0     C 8466  10.581   5.156   7.709 -0.0211 -0.7203 -0.2849
  804MOL0     C 8467  10.436   5.129   7.672 -0.0101  0.3182 -0.8042
  804MOL0     C 8468  10.345   5.120   7.792 -0.4200 -0.9533 -0.3768
  804MOL0     C 8469  10.272   5.130   7.895 -0.5727  0.1599 -0.2612
  804MOL0     C 8470  11.000   5.321   7.391 -0.1970  0.3803 -0.4292
  804MOL0     C 8471  11.097   5.424   7.412 -0.3076 -0.6703  0.0893
  804MOL0     C 8472  11.225   5.406   7.348 -0.2971  0.8692  0.1400
  804MOL0     H 8473  10.951   5.974   7.584 -0.6386  2.7272  1.5581
  804MOL0     H 8474  11.041   6.213   7.585 -0.2461  1.0382  1.4902
  804MOL0     H 8475  11.220   6.257   7.305 -0.3677  0.5270  0.7116
  804MOL0     H 8476  11.187   6.418   7.372  1.4082  1.4918  1.0307
  804MOL0     H 8477  11.382   6.389   7.204 -0.8668 -0.9059  0.4303
  804MOL0     H 8478  11.467   6.299   7.330  2.0960  1.9541 -0.3868
  804MOL0     H 8479  11.542   6.505   7.396  1.2610 -0.4140 -1.2579
  804MOL0     H 8480  11.379   6.529   7.470  2.3189  2.6827  1.7080
  804MOL0     H 8481  11.486   6.628   7.214  2.4322 -0.1210  1.6341
  804MOL0     H 8482  11.315   6.636   7.231 -0.2121 -2.1719  0.7503
  804MOL0     H 8483  11.426   6.858   7.293 -2.5180  0.5235 -0.0118
  804MOL0     H 8484  11.326   6.789   7.420 -0.2087  2.5566 -0.7260
  804MOL0     H 8485  11.543   6.892   7.502  1.0315 -0.1848 -0.3245
  804MOL0     H 8486  11.528   6.715   7.540  0.7497  1.0615 -0.0543
  804MOL0     H 8487  11.667   6.794   7.296  0.1162 -0.6778 -0.1973
  804MOL0     H 8488  11.699   6.659   7.402 -1.2980 -0.7115  1.7344
  804MOL0     H 8489  11.752   6.792   7.598 -0.4108  1.7448 -0.5896
  804MOL0     H 8490  11.886   6.796   7.482  0.9250  1.9781 -1.1190
  804MOL0     H 8491  11.947   7.032   7.372  0.5113  1.1280 -0.1949
  804MOL0     H 8492  11.936   7.365   7.589  4.0331 -1.4304  1.7489
  804MOL0     H 8493  12.041   7.285   7.479 -0.2000  0.3912 -0.9062
  804MOL0     H 8494  11.907   7.309   7.284  1.7237  0.9405 -0.9756
  804MOL0     H 8495  11.772   7.396   7.377  1.4552  2.7452  1.7410
  804MOL0     H 8496  12.046   7.511   7.345 -0.9500  0.3690 -1.3647
  804MOL0     H 8497  11.914   7.573   7.439  1.2513  0.3512  0.2319
  804MOL0     H 8498  11.857   7.681   7.253  0.9430  0.9539 -0.6680
  804MOL0     H 8499  11.789   7.531   7.195  1.0739 -0.1613 -1.8605
  804MOL0     H 8500  12.180   7.567   6.962 -1.0753 -2.0980  0.9756
  804MOL0     H 8501  12.192   7.652   6.738  0.9278 -2.5509  1.9544
  804MOL0     H 8502  11.712   7.851   6.371  1.4947 -0.7483  1.3913
  804MOL0     H 8503  11.703   8.025   6.178  1.5516 -0.0722 -0.6739
  804MOL0     H 8504  11.918   8.377   6.231 -0.5121 -2.0404  1.7024
  804MOL0     H 8505  12.025   8.288   6.130 -0.3642 -0.8524  3.8063
  804MOL0     H 8506  11.802   8.441   6.012  2.0609  3.0134 -0.0211
  804MOL0     H 8507  11.972   8.494   6.013  2.5585 -1.5291 -2.0774
  804MOL0     H 8508  12.036   8.294   5.872  1.4916  3.3377  1.5355
  804MOL0     H 8509  11.858   8.260   5.875 -0.1477  0.0960  1.9942
  804MOL0     H 8510  11.966   8.391   5.664  1.1125 -0.1110  0.1992
  804MOL0     H 8511  11.995   8.517   5.784 -1.4719  2.7669 -0.8050
  804MOL0     H 8512  11.754   8.560   5.812  2.9379  2.0930 -2.4952
  804MOL0     H 8513  11.718   8.409   5.718  2.0905 -2.6952  1.1640
  804MOL0     H 8514  11.861   8.682   5.631  0.4173  0.8110 -2.5151
  804MOL0     H 8515  11.837   8.552   5.519  4.3392  1.5405  0.7862
  804MOL0     H 8516  11.664   8.722   5.477 -1.0565 -0.3566 -0.0148
  804MOL0     H 8517  11.628   8.732   5.639  0.5049  1.5335 -0.7492
  804MOL0     H 8518  11.539   8.473   5.616  1.2900 -0.3639  0.6825
  804MOL0     H 8519  11.449   8.595   5.522  0.4647  0.6696  0.1681
  804MOL0     H 8520  12.004   8.242   6.376 -0.4831  0.2431 -1.2812
  804MOL0     H 8521  12.030   8.078   6.545  0.5826 -1.5649 -0.1887
  804MOL0     H 8522  11.768   7.754   6.766 -1.6050  1.8837  3.5883
  804MOL0     H 8523  11.769   7.665   6.994 -0.4953  0.8387 -2.2953
  804MOL0     H 8524  11.395   6.064   7.419  0.2050 -2.9128 -0.3130
  804MOL0     H 8525  11.326   5.836   7.430 -0.1548  1.1660 -2.2285
  804MOL0     H 8526  10.908   5.616   7.637  2.5435  1.4341 -0.1570
  804MOL0     H 8527  10.762   5.429   7.617  0.6227 -4.3590  0.6533
  804MOL0     H 8528  10.603   5.134   7.407 -0.3600 -0.4190  0.3229
  804MOL0     H 8529  10.618   5.291   7.499  1.6868  0.0149  1.3668
  804MOL0     H 8530  10.791   5.164   7.647 -0.6938  1.2092  0.2444
  804MOL0     H 8531  10.699   5.020   7.589  4.1422 -0.6650 -0.7175
  804MOL0     H 8532  10.586   5.263   7.733 -0.3385 -1.0320  1.3048
  804MOL0     H 8533  10.594   5.102   7.803 -0.1317 -3.3689 -1.6979
  804MOL0     H 8534  10.398   5.198   7.596 -4.0745 -0.7148  0.0162
  804MOL0     H 8535  10.433   5.026   7.634  0.1868 -0.8131  2.0316
  804MOL0     H 8536  10.205   5.144   7.977  0.2367  0.6425  0.3359
  804MOL0     H 8537  11.018   5.239   7.322 -0.9121  0.4707 -0.7276
  804MOL0     H 8538  11.229   5.327   7.273  0.0954  1.0084  0.0132
  804MOL0     H 8539  11.261   5.500   7.305 -0.0009  0.7688  0.1665
  804MOL0     H 8540  11.285   5.382   7.437 -0.0448 -2.3850 -0.7707
  805MOL0     O 8541   8.834   0.768   2.673  1.4562 -0.1253 -0.3315
  805MOL0     C 8542   8.801   0.700   2.770 -0.4434  0.9169  0.0240
  805MOL0     O 8543   8.863   0.599   2.823 -0.1413  0.3667 -0.2945
  805MOL0     C 8544   8.986   0.551   2.776  0.2090 -0.6172 -0.2801
  805MOL0     C 8545   8.998   0.469   2.658  0.3247  0.2085 -0.1922
  805MOL0     C 8546   9.125   0.414   2.633  0.1231  0.5174  0.2726
  805MOL0     C 8547   9.232   0.419   2.724  0.5083  0.3476  0.0722
  805MOL0     O 8548   9.352   0.355   2.716  1.2332 -0.1079  0.7117
  805MOL0     C 8549   9.410   0.348   2.581 -0.5089  0.3007 -1.0308
  805MOL0     C 8550   9.547   0.431   2.593  0.2393 -0.7633  0.9682
  805MOL0     C 8551   9.646   0.366   2.683 -0.3885  0.1058 -1.0491
  805MOL0     C 8552   9.781   0.416   2.663 -0.5937 -1.1805  0.0290
  805MOL0     C 8553   9.874   0.339   2.757 -0.2630  0.0523  0.4456
  805MOL0     C 8554  10.008   0.413   2.766  1.1520  0.9056  1.5520
  805MOL0     C 8555  10.120   0.318   2.808 -0.3484 -0.1532 -0.4858
  805MOL0     C 8556  10.241   0.407   2.852  0.1603 -0.3693  0.6060
  805MOL0     N 8557  10.356   0.322   2.869  0.5871  0.6461  0.4042
  805MOL0     C 8558  10.389   0.208   2.803 -0.0994 -0.3722  0.6007
  805MOL0     C 8559  10.482   0.137   2.866 -0.4314 -0.2056  1.0520
  805MOL0     C 8560  10.544   0.012   2.815  0.5200  0.0551  0.1925
  805MOL0     C 8561  10.508  -0.107   2.908 -0.3529 -0.7203 -0.5157
  805MOL0     C 8562  10.535  -0.235   2.838 -0.0571  0.6371 -0.4744
  805MOL0     C 8563  10.469  -0.350   2.919 -0.2081  0.0747  0.2739
  805MOL0     O 8564  10.503  -0.354   3.057  0.1640  0.8712 -0.3402
  805MOL0     C 8565  10.405  -0.410   3.139 -0.6857  0.3664 -0.0147
  805MOL0     C 8566  10.379  -0.361   3.267  0.1778  0.4792  0.6975
  805MOL0     C 8567  10.274  -0.421   3.351  0.4623 -0.9882  0.3265
  805MOL0     C 8568  10.204  -0.530   3.311 -0.7835 -1.5259 -0.6021
  805MOL0     C 8569  10.099  -0.591   3.399  0.1109  0.1896  0.2591
  805MOL0     O 8570  10.044  -0.701   3.341 -0.4157 -0.0391  0.2852
  805MOL0     C 8571   9.933  -0.771   3.394  0.2477  0.4233  0.1331
  805MOL0     C 8572   9.925  -0.910   3.377 -0.4807 -1.1464 -0.5018
  805MOL0     C 8573   9.817  -0.985   3.427 -0.5825 -0.2968 -0.4974
  805MOL0     C 8574   9.701  -0.925   3.485  0.1486  0.5529  0.0035
  805MOL0     O 8575   9.598  -1.000   3.534  0.0292 -0.1989 -0.1325
  805MOL0     C 8576   9.472  -0.948   3.566  0.2650 -1.1071 -0.1660
  805MOL0     C 8577   9.401  -1.064   3.640 -0.4757  0.5340 -0.4077
  805MOL0     C 8578   9.267  -1.038   3.701 -0.5566 -0.2160  0.2563
  805MOL0     C 8579   9.276  -0.925   3.809  0.0296 -0.1811 -0.1450
  805MOL0     C 8580   9.138  -0.861   3.847  0.4608 -0.1388  0.3527
  805MOL0     C 8581   9.017  -0.950   3.844 -0.6861 -0.0147 -0.1123
  805MOL0     C 8582   8.909  -0.902   3.943  0.2965  0.0502 -0.2463
  805MOL0     C 8583   8.776  -0.890   3.875 -0.4235  0.6613  0.0447
  805MOL0    Cl 8584   8.737  -1.044   3.798 -0.3540 -0.2979  0.1821
  805MOL0     C 8585   9.699  -0.788   3.484  0.1685 -1.1817  0.4026
  805MOL0     C 8586   9.804  -0.710   3.438 -0.2343 -0.4676 -0.0217
  805MOL0     O 8587  10.065  -0.544   3.507  0.4421 -0.0138 -0.5990
  805MOL0     C 8588  10.247  -0.594   3.190 -0.1480 -0.5317 -0.4456
  805MOL0     C 8589  10.342  -0.532   3.102  0.4930 -0.1667 -0.6386
  805MOL0     N 8590  10.510   0.215   2.978 -0.1210  0.1235  0.0651
  805MOL0     N 8591  10.444   0.326   2.971  0.3828 -0.3441  0.1117
  805MOL0     C 8592   9.220   0.510   2.824 -1.2083 -0.5257 -0.2653
  805MOL0     C 8593   9.099   0.578   2.856 -0.5593  0.1223  0.2094
  805MOL0     C 8594   8.684   0.743   2.859  0.7532  0.1955 -0.0315
  805MOL0     C 8595   8.623   0.641   2.937 -0.4639 -0.1451 -0.0361
  805MOL0     C 8596   8.523   0.671   3.033 -0.3028  0.4372 -0.6898
  805MOL0     C 8597   8.468   0.803   3.040  0.4459  0.2731 -0.4653
  805MOL0     O 8598   8.362   0.834   3.116 -0.2492  0.3402  0.2461
  805MOL0     C 8599   8.380   0.836   3.257  0.1889 -0.3622  1.2315
  805MOL0     C 8600   8.296   0.958   3.292  0.4199  0.2038 -0.0781
  805MOL0     C 8601   8.143   0.945   3.261  0.0557  0.0600  0.2591
  805MOL0     C 8602   8.067   1.064   3.298  0.0072 -0.3873  0.0756
  805MOL0     C 8603   7.931   1.051   3.269  0.4521  0.5623  0.8037
  805MOL0     C 8604   7.817   1.029   3.241 -0.0473 -0.3656 -0.0577
  805MOL0     C 8605   8.508   0.888   2.938  0.9869 -0.4946 -0.5217
  805MOL0     C 8606   8.608   0.862   2.848 -0.5323  0.0162 -0.6211
  805MOL0     C 8607   8.655   0.979   2.762  0.5059  0.3651  0.1518
  805MOL0     H 8608   8.910   0.451   2.597 -0.3166 -2.9383  1.4429
  805MOL0     H 8609   9.120   0.360   2.538 -0.3272  0.3264  0.4030
  805MOL0     H 8610   9.438   0.246   2.554  1.2125  1.0345 -2.1807
  805MOL0     H 8611   9.344   0.377   2.499  0.2463 -3.6399 -3.2810
  805MOL0     H 8612   9.516   0.530   2.628 -0.2112 -0.2627 -0.7328
  805MOL0     H 8613   9.585   0.443   2.491  0.1829  1.5002  1.1589
  805MOL0     H 8614   9.639   0.257   2.669 -2.2771 -0.1173  0.9605
  805MOL0     H 8615   9.612   0.372   2.787  0.7070  0.0369 -0.6772
  805MOL0     H 8616   9.812   0.410   2.558  0.6930  1.5752  0.1588
  805MOL0     H 8617   9.781   0.524   2.684 -0.6330 -1.1157 -0.2925
  805MOL0     H 8618   9.827   0.340   2.855 -0.7997 -2.7927  0.2841
  805MOL0     H 8619   9.892   0.236   2.727  1.2667 -0.1125  1.7983
  805MOL0     H 8620  10.027   0.441   2.662 -0.5676  0.0572  0.9685
  805MOL0     H 8621  10.002   0.503   2.828 -0.3784  1.7920  0.2075
  805MOL0     H 8622  10.147   0.253   2.724  3.1371  1.2687 -0.6273
  805MOL0     H 8623  10.098   0.258   2.897  2.8685  0.4323  0.8160
  805MOL0     H 8624  10.252   0.491   2.784 -2.0744 -1.6700 -1.5270
  805MOL0     H 8625  10.222   0.445   2.953  1.2051 -0.7970  0.9747
  805MOL0     H 8626  10.352   0.179   2.705  1.0039  0.0606  0.0398
  805MOL0     H 8627  10.490  -0.006   2.721 -1.1624  2.1635  0.6826
  805MOL0     H 8628  10.648   0.021   2.785  0.1615  2.4394 -0.4987
  805MOL0     H 8629  10.559  -0.102   3.004 -0.6404 -1.7853 -0.3027
  805MOL0     H 8630  10.403  -0.094   2.933  0.5378 -0.0379  3.6181
  805MOL0     H 8631  10.640  -0.255   2.815 -0.6237 -1.3811 -1.5665
  805MOL0     H 8632  10.484  -0.245   2.741 -0.9302 -2.8117  0.1976
  805MOL0     H 8633  10.498  -0.446   2.875  0.1339  0.4582 -0.3529
  805MOL0     H 8634  10.361  -0.344   2.908 -0.1853  0.5398  0.2437
  805MOL0     H 8635  10.432  -0.280   3.317 -3.1288  1.2874  3.2766
  805MOL0     H 8636  10.253  -0.366   3.442 -2.0832  2.0746 -1.8620
  805MOL0     H 8637  10.010  -0.966   3.338  1.9066  1.1078  1.0994
  805MOL0     H 8638   9.816  -1.093   3.427 -1.4539 -0.3325  1.1597
  805MOL0     H 8639   9.480  -0.857   3.627  3.7523 -0.2924 -1.5794
  805MOL0     H 8640   9.409  -0.938   3.478  1.0170 -1.4408 -0.7548
  805MOL0     H 8641   9.396  -1.150   3.572 -1.2992 -0.2692  0.6135
  805MOL0     H 8642   9.464  -1.080   3.728 -0.5537  3.0647  0.1810
  805MOL0     H 8643   9.196  -1.012   3.622  1.8921 -0.8448 -2.2831
  805MOL0     H 8644   9.234  -1.130   3.752  0.8323 -1.3183 -0.7472
  805MOL0     H 8645   9.339  -0.845   3.769 -1.9403  0.6511 -1.7886
  805MOL0     H 8646   9.317  -0.963   3.904 -0.6186  0.1494  0.2797
  805MOL0     H 8647   9.122  -0.776   3.779 -1.0711 -1.4741 -1.0295
  805MOL0     H 8648   9.143  -0.818   3.947 -2.2946  2.5612 -0.5126
  805MOL0     H 8649   8.986  -0.944   3.739  3.3350  1.6269 -1.4089
  805MOL0     H 8650   9.036  -1.055   3.867  0.5699  0.3382  0.5409
  805MOL0     H 8651   8.934  -0.815   4.004 -1.8588  0.5187  0.0629
  805MOL0     H 8652   8.888  -0.983   4.013 -0.1788 -0.0518 -0.5007
  805MOL0     H 8653   8.700  -0.864   3.950 -1.2543  0.7702 -0.8130
  805MOL0     H 8654   8.778  -0.808   3.802  2.8887  1.5631  0.9720
  805MOL0     H 8655   9.608  -0.740   3.517  0.1520 -0.9042 -0.0423
  805MOL0     H 8656   9.803  -0.603   3.456  2.9328 -0.1998 -0.8235
  805MOL0     H 8657  10.200  -0.684   3.152  0.2489 -0.9106 -0.0562
  805MOL0     H 8658  10.365  -0.563   3.001 -0.5823 -1.0910 -0.6173
  805MOL0     H 8659   9.308   0.527   2.886 -0.8891 -3.1616  0.1172
  805MOL0     H 8660   9.096   0.663   2.923 -3.0976  1.6153 -1.6293
  805MOL0     H 8661   8.669   0.543   2.941  1.4204  0.6867 -0.4566
  805MOL0     H 8662   8.490   0.596   3.104  1.7295 -1.2887 -1.4691
  805MOL0     H 8663   8.485   0.855   3.278  0.7563 -1.1656 -0.6578
  805MOL0     H 8664   8.339   0.747   3.304  0.2864 -3.2492 -3.5324
  805MOL0     H 8665   8.336   1.045   3.239  1.5563  0.1355  0.6357
  805MOL0     H 8666   8.313   0.961   3.400 -1.7335  0.1717  0.2930
  805MOL0     H 8667   8.106   0.856   3.312  3.8474 -0.9299  1.6362
  805MOL0     H 8668   8.130   0.931   3.153  0.3271  3.1585 -0.2774
  805MOL0     H 8669   8.076   1.078   3.406 -0.4026 -1.4525  0.2625
  805MOL0     H 8670   8.102   1.152   3.243 -2.1323 -0.6789 -1.9302
  805MOL0     H 8671   7.717   1.001   3.214  0.5106 -0.7643 -1.8783
  805MOL0     H 8672   8.463   0.987   2.946 -3.4502 -2.3268  0.8236
  805MOL0     H 8673   8.600   1.069   2.792 -2.2703 -1.2880  0.3680
  805MOL0     H 8674   8.764   0.986   2.767  0.5764 -0.0881 -0.5955
  805MOL0     H 8675   8.639   0.969   2.654  1.8237  4.0607 -0.5473
  806MOL0     O 8676  10.307  10.663   9.390  0.4754 -0.0066  0.2087
  806MOL0     C 8677  10.214  10.585   9.424 -0.0703 -0.1713 -0.2188
  806MOL0     O 8678  10.224  10.475   9.507  0.8698 -0.5002 -0.3784
  806MOL0     C 8679  10.333  10.436   9.577  0.2216 -0.9665 -0.3188
  806MOL0     C 8680  10.410  10.347   9.514 -0.5268 -0.1007  0.2700
  806MOL0     C 8681  10.519  10.288   9.584 -1.1046 -0.4049  0.3536
  806MOL0     C 8682  10.552  10.329   9.717  0.3154 -0.7370  1.2922
  806MOL0     O 8683  10.653  10.265   9.781 -0.6936  0.0334 -0.4177
  806MOL0     C 8684  10.626  10.144   9.841  0.9189  0.3696 -1.0083
  806MOL0     C 8685  10.612  10.166  10.000  0.3072 -0.4289 -0.2078
  806MOL0     C 8686  10.737  10.230  10.057 -0.9768  0.3774 -0.1827
  806MOL0     C 8687  10.848  10.135  10.096  0.3126  0.8655 -0.6422
  806MOL0     C 8688  10.980  10.201  10.142  0.1035 -0.2983  0.2687
  806MOL0     C 8689  11.075  10.097  10.200  0.4344  0.2213  0.3373
  806MOL0     C 8690  11.204  10.168  10.258 -0.4283  0.5151 -0.3323
  806MOL0     C 8691  11.295  10.070  10.325  0.4894  0.2921 -0.5031
  806MOL0     N 8692  11.413  10.132  10.392  0.8263 -0.5292  0.3968
  806MOL0     C 8693  11.527  10.173  10.323  0.3131  1.4299 -0.1491
  806MOL0     C 8694  11.610  10.203  10.422 -0.2530 -0.1522  0.0221
  806MOL0     C 8695  11.752  10.241  10.403 -0.1482 -0.3578  0.5568
  806MOL0     C 8696  11.792  10.378  10.465 -0.2309 -0.7787 -0.0602
  806MOL0     C 8697  11.803  10.375  10.618  0.4692  0.2646 -0.4805
  806MOL0     C 8698  11.873  10.504  10.669 -0.0371 -0.3586 -0.1268
  806MOL0     O 8699  12.015  10.505  10.656  0.6176  0.6761 -0.1452
  806MOL0     C 8700  12.077  10.602  10.726  0.0329  0.3661 -0.5431
  806MOL0     C 8701  12.216  10.610  10.690 -0.0043 -0.3601 -0.2077
  806MOL0     C 8702  12.302  10.693  10.763 -0.1737  0.3175 -0.0367
  806MOL0     C 8703  12.252  10.762  10.878 -0.6623 -0.3146 -0.1955
  806MOL0     C 8704  12.354  10.851  10.949 -0.2600  0.4053 -0.0494
  806MOL0     O 8705  12.482  10.830  10.916  0.1175 -0.3352  0.4568
  806MOL0     C 8706  12.584  10.919  10.941  1.0424 -0.1645  0.1102
  806MOL0     C 8707  12.599  11.006  11.049 -1.0165  0.6396  0.2680
  806MOL0     C 8708  12.717  11.080  11.069 -0.5880  0.8834  0.2191
  806MOL0     C 8709  12.814  11.085  10.962  0.0753  0.3359  0.2615
  806MOL0     O 8710  12.931  11.163  10.945  0.3671 -0.1122 -0.3932
  806MOL0     C 8711  12.941  11.292  11.009 -1.0467  0.2285  0.3281
  806MOL0     C 8712  13.061  11.365  10.971 -0.1588 -0.8521  1.2919
  806MOL0     C 8713  13.039  11.514  10.987  0.7877 -0.5902 -0.0909
  806MOL0     C 8714  13.173  11.566  11.027 -0.4838 -1.0231  0.4942
  806MOL0     C 8715  13.181  11.717  11.057 -1.0733  0.2024  0.1323
  806MOL0     C 8716  13.304  11.774  11.137 -0.2392  0.3306  0.1502
  806MOL0     C 8717  13.435  11.781  11.048 -0.0227 -0.0570  0.1443
  806MOL0     C 8718  13.522  11.887  11.108  0.4179  0.0417  0.1370
  806MOL0    Cl 8719  13.682  11.908  11.038 -0.2496 -0.2571 -0.5308
  806MOL0     C 8720  12.798  11.000  10.856  0.7779 -0.0389 -0.3972
  806MOL0     C 8721  12.684  10.911  10.850 -1.1570 -0.3242 -0.0194
  806MOL0     O 8722  12.311  10.919  11.042  0.3856 -0.0388  0.4187
  806MOL0     C 8723  12.124  10.744  10.924 -0.8500 -0.0086 -0.2461
  806MOL0     C 8724  12.034  10.669  10.850 -0.3263 -0.5667 -0.0035
  806MOL0     N 8725  11.552  10.174  10.548  0.1230 -0.9902 -0.5648
  806MOL0     N 8726  11.430  10.143  10.528 -0.7313 -0.1651  0.0733
  806MOL0     C 8727  10.465  10.418   9.776  0.5256 -0.4213  0.1385
  806MOL0     C 8728  10.361  10.481   9.705  0.1863 -0.5786  0.8011
  806MOL0     C 8729  10.081  10.604   9.367 -0.1984 -0.5796 -0.8430
  806MOL0     C 8730  10.020  10.731   9.382  0.5308 -0.2124  0.3033
  806MOL0     C 8731   9.887  10.758   9.339 -0.6240  0.8881 -0.9307
  806MOL0     C 8732   9.815  10.653   9.269 -0.0463 -0.5691  1.4410
  806MOL0     O 8733   9.693  10.658   9.208  0.4174 -0.0688 -0.1224
  806MOL0     C 8734   9.605  10.776   9.202  0.0986  0.1629 -0.1293
  806MOL0     C 8735   9.600  10.814   9.053 -0.4858  0.7590 -0.4110
  806MOL0     C 8736   9.476  10.899   9.026  0.9371 -0.6045 -0.0799
  806MOL0     C 8737   9.447  10.931   8.877  0.7730 -0.2786 -0.3221
  806MOL0     C 8738   9.539  11.027   8.822 -0.5847  0.6292  0.6651
  806MOL0     C 8739   9.614  11.112   8.779 -0.4824  0.4836 -0.4051
  806MOL0     C 8740   9.881  10.532   9.243  0.0882 -0.3242  1.1551
  806MOL0     C 8741  10.012  10.508   9.297  0.6351 -0.7811  0.3844
  806MOL0     C 8742  10.071  10.375   9.264 -0.2263  0.4121 -0.4852
  806MOL0     H 8743  10.386  10.311   9.414  1.0456 -0.2945 -0.0651
  806MOL0     H 8744  10.591  10.227   9.531 -2.7497 -2.0459 -0.0941
  806MOL0     H 8745  10.529  10.107   9.806 -1.1278  2.1052  2.2699
  806MOL0     H 8746  10.706  10.070   9.831  2.2304  1.2477  1.8320
  806MOL0     H 8747  10.585  10.068  10.041  0.0309  0.1643  1.0524
  806MOL0     H 8748  10.536  10.242  10.020 -0.6051 -1.3482 -0.0811
  806MOL0     H 8749  10.706  10.265  10.156 -0.6778  0.2959 -0.0580
  806MOL0     H 8750  10.781  10.308   9.993 -1.5269  1.3708  0.6239
  806MOL0     H 8751  10.814  10.065  10.172  1.8482 -1.7835 -2.2615
  806MOL0     H 8752  10.854  10.073  10.006 -0.9696  1.0641 -0.8867
  806MOL0     H 8753  11.034  10.253  10.063  3.5168  1.1754  3.3292
  806MOL0     H 8754  10.958  10.280  10.214  1.6512  1.4417 -1.0734
  806MOL0     H 8755  11.022  10.047  10.281 -1.6175 -0.1594 -1.1738
  806MOL0     H 8756  11.092  10.031  10.114 -2.4890  1.8720 -1.6872
  806MOL0     H 8757  11.172  10.239  10.335 -0.6575 -0.1956  0.2375
  806MOL0     H 8758  11.262  10.221  10.182  3.2824  1.3121  2.7061
  806MOL0     H 8759  11.238  10.019  10.402  0.2245 -1.0300 -1.5544
  806MOL0     H 8760  11.335   9.990  10.262 -1.6951 -1.7681  0.6276
  806MOL0     H 8761  11.537  10.168  10.215  0.9761  0.3107 -0.0477
  806MOL0     H 8762  11.818  10.179  10.465 -0.0495  2.1546  3.2180
  806MOL0     H 8763  11.781  10.232  10.298  0.5318  0.3169  0.6772
  806MOL0     H 8764  11.890  10.412  10.430  0.6989  0.5972  3.3888
  806MOL0     H 8765  11.715  10.455  10.451  0.4574 -0.3372 -1.6552
  806MOL0     H 8766  11.859  10.284  10.644 -0.5360 -0.0065  0.8339
  806MOL0     H 8767  11.707  10.382  10.669  2.4490  0.3799  3.6559
  806MOL0     H 8768  11.842  10.516  10.774 -0.4626 -1.5270 -0.0984
  806MOL0     H 8769  11.837  10.593  10.617  0.2024  1.3487  2.4531
  806MOL0     H 8770  12.246  10.563  10.596 -2.3253 -1.7911 -0.3325
  806MOL0     H 8771  12.405  10.699  10.732  0.0018 -3.2743 -0.5396
  806MOL0     H 8772  12.520  10.991  11.121  2.1638 -0.8348  3.7655
  806MOL0     H 8773  12.730  11.139  11.159  0.4495 -1.1160  1.4300
  806MOL0     H 8774  12.856  11.353  10.977  0.0220  2.1752  1.0923
  806MOL0     H 8775  12.943  11.282  11.118 -0.1638 -2.0860  0.1613
  806MOL0     H 8776  13.140  11.319  11.031  1.8952  0.5735 -0.1393
  806MOL0     H 8777  13.092  11.337  10.870 -0.4846 -2.5377  1.6325
  806MOL0     H 8778  12.991  11.558  10.898 -1.5572 -1.0238  0.8767
  806MOL0     H 8779  12.970  11.538  11.069 -0.4121 -0.3644 -1.1307
  806MOL0     H 8780  13.233  11.557  10.936 -0.1215  0.9679  0.4982
  806MOL0     H 8781  13.219  11.510  11.109  2.6171  1.4228  0.6452
  806MOL0     H 8782  13.091  11.752  11.108 -2.7967 -1.7505 -1.3886
  806MOL0     H 8783  13.180  11.776  10.964  0.2531  1.5737  0.9245
  806MOL0     H 8784  13.267  11.871  11.171  0.4785  1.1976 -1.3974
  806MOL0     H 8785  13.321  11.709  11.223  0.4894 -1.7889 -1.5003
  806MOL0     H 8786  13.406  11.795  10.943 -1.4013 -1.2113  0.3380
  806MOL0     H 8787  13.492  11.689  11.062 -0.7680 -0.4587  0.5833
  806MOL0     H 8788  13.467  11.982  11.113  0.0268 -0.1215 -0.8375
  806MOL0     H 8789  13.520  11.872  11.217 -0.4277  1.7657  0.4034
  806MOL0     H 8790  12.872  10.989  10.777  1.3874  0.8793  0.0282
  806MOL0     H 8791  12.687  10.829  10.779  0.9309 -0.7529  0.4941
  806MOL0     H 8792  12.092  10.770  11.024  0.6543  0.9945  0.0053
  806MOL0     H 8793  11.942  10.646  10.902 -0.3668 -0.4383 -0.0180
  806MOL0     H 8794  10.470  10.444   9.882 -0.6852  0.0966  0.0861
  806MOL0     H 8795  10.284  10.537   9.756 -0.2136 -1.3108  1.0272
  806MOL0     H 8796  10.087  10.799   9.433  1.7901 -1.4848  0.4247
  806MOL0     H 8797   9.848  10.857   9.359 -0.6583  0.5846  0.6619
  806MOL0     H 8798   9.647  10.862   9.256  1.2097 -1.3424  1.4963
  806MOL0     H 8799   9.504  10.747   9.234 -1.1878 -0.4169 -4.1234
  806MOL0     H 8800   9.593  10.719   9.000 -3.3711  0.9577 -0.5576
  806MOL0     H 8801   9.696  10.855   9.020  1.4480 -2.9175  0.2187
  806MOL0     H 8802   9.483  10.990   9.087  3.3142 -0.6708 -0.1740
  806MOL0     H 8803   9.396  10.835   9.064  1.5363 -0.2682  1.8785
  806MOL0     H 8804   9.434  10.836   8.825 -0.8324 -1.2942  1.7763
  806MOL0     H 8805   9.344  10.966   8.867  1.3593  1.5054 -0.4752
  806MOL0     H 8806   9.680  11.197   8.774 -0.1425  0.3877  1.5179
  806MOL0     H 8807   9.814  10.453   9.211  0.1104 -0.4998  1.5425
  806MOL0     H 8808  10.038  10.348   9.163  2.0077  1.9333 -1.7049
  806MOL0     H 8809  10.178  10.394   9.258 -0.6183  2.4705 -2.4402
  806MOL0     H 8810  10.055  10.299   9.341  0.3264  1.3808  0.6000
  807MOL0     O 8811   1.727   8.154   6.332 -0.9826  0.6867  0.1049
  807MOL0     C 8812   1.705   8.183   6.445  0.6971  0.3041  0.0105
  807MOL0     O 8813   1.764   8.288   6.512  0.1836  0.6410  0.9580
  807MOL0     C 8814   1.857   8.377   6.463  0.3952 -0.1303  0.5178
  807MOL0     C 8815   1.898   8.390   6.333  0.7202  0.5398 -0.0510
  807MOL0     C 8816   1.985   8.490   6.293  1.0485 -0.5316 -0.3069
  807MOL0     C 8817   2.060   8.563   6.386 -0.4460 -1.0438 -0.4542
  807MOL0     O 8818   2.166   8.635   6.343 -0.4644 -0.2624  0.0251
  807MOL0     C 8819   2.199   8.759   6.411  0.1922 -0.0940  0.2382
  807MOL0     C 8820   2.337   8.807   6.395 -0.0082 -0.0074  0.1601
  807MOL0     C 8821   2.386   8.778   6.255  0.6343  0.0239 -0.8302
  807MOL0     C 8822   2.335   8.861   6.138  0.1781 -0.5992  0.0220
  807MOL0     C 8823   2.393   8.826   5.988 -0.7049 -0.6265  0.4639
  807MOL0     C 8824   2.390   8.676   5.956  0.1257 -0.2185  0.2857
  807MOL0     C 8825   2.434   8.665   5.812 -0.2671  0.1450  0.8269
  807MOL0     C 8826   2.544   8.567   5.783  0.5621 -0.8729  0.0365
  807MOL0     N 8827   2.672   8.615   5.842  0.8824  0.1823  0.9899
  807MOL0     C 8828   2.727   8.741   5.845 -0.3863 -0.3743  1.6024
  807MOL0     C 8829   2.839   8.738   5.928  0.5546  0.8897 -0.0627
  807MOL0     C 8830   2.950   8.842   5.952  0.0323 -0.5910 -0.3696
  807MOL0     C 8831   3.068   8.801   6.040  0.8591 -1.0111 -0.0770
  807MOL0     C 8832   3.119   8.920   6.120  0.3755 -0.7300 -0.0882
  807MOL0     C 8833   3.037   8.931   6.252  0.6807  0.1906  0.8677
  807MOL0     O 8834   3.072   8.846   6.363  0.4906  0.0429 -0.1914
  807MOL0     C 8835   3.196   8.849   6.421  0.3390 -0.5677 -0.2412
  807MOL0     C 8836   3.279   8.961   6.435 -0.4795 -0.4201 -0.2351
  807MOL0     C 8837   3.397   8.958   6.509 -0.0782  0.4639  0.1120
  807MOL0     C 8838   3.450   8.840   6.575  0.5024  0.4439 -1.0869
  807MOL0     C 8839   3.572   8.837   6.659  0.7038  0.0780  0.3870
  807MOL0     O 8840   3.628   8.957   6.672  0.6182  0.0199  0.0324
  807MOL0     C 8841   3.744   8.956   6.740  0.2592 -0.1725 -0.1211
  807MOL0     C 8842   3.752   8.997   6.873 -0.0181  0.0968 -0.8659
  807MOL0     C 8843   3.875   8.990   6.945  0.2633 -0.8885 -0.4209
  807MOL0     C 8844   3.989   8.963   6.870  0.3788  0.6985 -0.3755
  807MOL0     O 8845   4.105   8.972   6.934  0.2117 -0.5276 -0.0833
  807MOL0     C 8846   4.188   9.072   6.864  0.9004  0.5732 -0.0360
  807MOL0     C 8847   4.289   9.128   6.953 -0.8656 -0.5644 -0.0359
  807MOL0     C 8848   4.372   9.239   6.884  0.0776 -0.2017  0.1411
  807MOL0     C 8849   4.473   9.187   6.773  0.2291  0.3475 -0.8052
  807MOL0     C 8850   4.584   9.289   6.754 -0.5546 -0.3216  0.4978
  807MOL0     C 8851   4.712   9.227   6.692 -0.1287  0.6442  1.1772
  807MOL0     C 8852   4.824   9.334   6.689  0.2746 -0.5693  0.3099
  807MOL0     C 8853   4.955   9.281   6.627 -0.7359 -0.6034 -0.3755
  807MOL0    Cl 8854   5.071   9.427   6.630 -0.1921 -0.1987  0.1598
  807MOL0     C 8855   3.977   8.919   6.741  0.0457 -0.7011 -0.3521
  807MOL0     C 8856   3.854   8.926   6.674 -0.7026 -0.3893 -0.1964
  807MOL0     O 8857   3.619   8.728   6.705 -0.1509  0.0820  0.2699
  807MOL0     C 8858   3.360   8.727   6.560  0.5829 -0.4520  0.2699
  807MOL0     C 8859   3.239   8.727   6.488 -0.0101  0.3402 -0.1045
  807MOL0     N 8860   2.838   8.606   5.982  0.2506 -0.3016  0.0769
  807MOL0     N 8861   2.738   8.540   5.939  0.6460 -0.6345  0.2728
  807MOL0     C 8862   2.014   8.555   6.523 -0.2472  1.1952 -0.4094
  807MOL0     C 8863   1.911   8.466   6.553  0.5271  0.1239 -1.5077
  807MOL0     C 8864   1.601   8.090   6.521 -0.1140  0.5405 -1.3965
  807MOL0     C 8865   1.539   8.136   6.645 -0.7619  0.3202 -0.2998
  807MOL0     C 8866   1.449   8.058   6.715  0.7215 -0.7066 -0.4317
  807MOL0     C 8867   1.406   7.935   6.664  0.2351 -0.0840  0.8820
  807MOL0     O 8868   1.311   7.864   6.736  0.2523 -0.6446  0.7433
  807MOL0     C 8869   1.234   7.761   6.677 -0.2697  0.3769  0.8994
  807MOL0     C 8870   1.093   7.785   6.729  0.1160 -0.2490  0.2110
  807MOL0     C 8871   1.050   7.935   6.738  0.8289 -0.6159  0.6010
  807MOL0     C 8872   0.894   7.945   6.744 -0.2030  1.2713 -0.3078
  807MOL0     C 8873   0.853   8.076   6.727  0.4489  0.0145  0.0821
  807MOL0     C 8874   0.809   8.182   6.696 -0.1450 -0.0704  0.0896
  807MOL0     C 8875   1.465   7.884   6.550  0.4115  0.7549  0.0354
  807MOL0     C 8876   1.556   7.965   6.476 -0.0967 -0.4837 -0.1420
  807MOL0     C 8877   1.611   7.885   6.357 -0.0456 -1.7124 -0.7919
  807MOL0     H 8878   1.839   8.337   6.258  0.5288 -0.7836  0.9845
  807MOL0     H 8879   2.008   8.517   6.190 -2.0525  0.1931 -0.9078
  807MOL0     H 8880   2.124   8.831   6.379  2.3215  1.4681 -1.6128
  807MOL0     H 8881   2.201   8.743   6.519 -2.3812  1.6856  0.6424
  807MOL0     H 8882   2.397   8.752   6.468  2.2637 -0.6203 -2.0617
  807MOL0     H 8883   2.342   8.914   6.419  3.9372  0.0711 -0.4743
  807MOL0     H 8884   2.363   8.674   6.229  0.4362  0.5442 -2.9678
  807MOL0     H 8885   2.494   8.794   6.260  0.3979  2.7852 -2.3714
  807MOL0     H 8886   2.227   8.844   6.134 -0.0576  0.8317 -0.2538
  807MOL0     H 8887   2.353   8.967   6.158 -0.1824  0.1392 -3.1548
  807MOL0     H 8888   2.338   8.885   5.914  1.2062  1.1931  0.3943
  807MOL0     H 8889   2.500   8.846   5.981 -0.3916 -2.5908 -1.5629
  807MOL0     H 8890   2.448   8.612   6.022 -0.0916 -0.1343  0.5627
  807MOL0     H 8891   2.285   8.648   5.971  0.8709 -2.0708  2.4514
  807MOL0     H 8892   2.470   8.760   5.772  0.7938 -0.5077  0.1847
  807MOL0     H 8893   2.360   8.637   5.737  1.8237 -0.4829 -1.1115
  807MOL0     H 8894   2.517   8.465   5.811 -0.9302 -0.5794 -0.2406
  807MOL0     H 8895   2.548   8.557   5.675  0.0723  2.1844 -0.3424
  807MOL0     H 8896   2.692   8.831   5.795  1.3246 -0.1718  0.6969
  807MOL0     H 8897   3.001   8.870   5.860  1.9321  2.0696  1.3396
  807MOL0     H 8898   2.908   8.934   5.994  1.8208  0.0153  0.1917
  807MOL0     H 8899   3.039   8.719   6.105  0.3175 -0.3884  0.4803
  807MOL0     H 8900   3.156   8.769   5.983  0.4083 -1.5021 -0.5147
  807MOL0     H 8901   3.104   9.010   6.058  1.6584 -0.8360 -0.5763
  807MOL0     H 8902   3.227   8.928   6.139  0.0758 -2.1101  2.7163
  807MOL0     H 8903   2.932   8.910   6.229  0.8880  0.4365 -0.3618
  807MOL0     H 8904   3.041   9.034   6.288 -4.3045 -0.0047  2.6991
  807MOL0     H 8905   3.242   9.056   6.399 -0.9536  0.7741  3.0098
  807MOL0     H 8906   3.446   9.054   6.514  1.6007 -0.2631 -1.2790
  807MOL0     H 8907   3.669   9.042   6.926  1.0892  1.3506 -0.1228
  807MOL0     H 8908   3.881   9.021   7.049 -1.1904 -0.2973 -0.4930
  807MOL0     H 8909   4.242   9.030   6.779  0.2468 -1.5307  0.5234
  807MOL0     H 8910   4.125   9.158   6.840  1.5978  0.7823 -1.2279
  807MOL0     H 8911   4.228   9.165   7.036 -2.4827  1.8131 -2.1298
  807MOL0     H 8912   4.354   9.052   6.997 -2.8576 -0.7587  2.8105
  807MOL0     H 8913   4.295   9.302   6.838 -0.8284 -1.0450  0.4789
  807MOL0     H 8914   4.413   9.307   6.960 -1.8738  2.7112 -1.2322
  807MOL0     H 8915   4.431   9.163   6.675  0.8871 -0.5268 -0.8808
  807MOL0     H 8916   4.521   9.101   6.821 -2.1756  0.2011  1.5543
  807MOL0     H 8917   4.613   9.333   6.850 -1.3507  0.1990  0.5098
  807MOL0     H 8918   4.548   9.370   6.690  0.0115 -1.0826 -0.8395
  807MOL0     H 8919   4.743   9.146   6.759 -0.0333 -0.3229  0.0156
  807MOL0     H 8920   4.693   9.180   6.595 -0.8048  0.1933  1.5195
  807MOL0     H 8921   4.847   9.359   6.793  0.2344  1.0388 -0.0324
  807MOL0     H 8922   4.799   9.428   6.637 -0.2111 -0.0542  1.4421
  807MOL0     H 8923   4.992   9.196   6.684 -0.9238  0.1267  0.8737
  807MOL0     H 8924   4.943   9.236   6.528 -1.3745 -1.6493  0.1562
  807MOL0     H 8925   4.070   8.902   6.687  1.3109  0.9952  1.1994
  807MOL0     H 8926   3.842   8.908   6.568  2.0082  2.6876 -1.1952
  807MOL0     H 8927   3.395   8.635   6.606 -0.4481 -0.1610  1.7296
  807MOL0     H 8928   3.170   8.643   6.481  2.3993 -1.6743 -1.0180
  807MOL0     H 8929   2.061   8.609   6.605 -2.0317  0.3063  1.2519
  807MOL0     H 8930   1.884   8.469   6.658  0.8005  0.4109 -1.4434
  807MOL0     H 8931   1.554   8.236   6.685 -1.9852  0.5956 -0.5055
  807MOL0     H 8932   1.406   8.090   6.810  3.3315  0.6587  0.3913
  807MOL0     H 8933   1.280   7.663   6.694 -2.2513 -0.9574 -0.9559
  807MOL0     H 8934   1.233   7.755   6.568  3.8456  1.8520  0.5900
  807MOL0     H 8935   1.076   7.740   6.828 -2.4042 -1.1994 -0.5746
  807MOL0     H 8936   1.022   7.735   6.663  0.5407  0.4733 -0.8101
  807MOL0     H 8937   1.083   7.987   6.647  2.6409  1.2778  2.2386
  807MOL0     H 8938   1.096   8.000   6.813 -1.9043  4.3959 -1.6130
  807MOL0     H 8939   0.851   7.871   6.676  1.0641  1.4727 -1.3516
  807MOL0     H 8940   0.855   7.911   6.841  1.9497 -2.4533 -0.5376
  807MOL0     H 8941   0.767   8.280   6.682 -0.0093 -0.0406 -0.1090
  807MOL0     H 8942   1.421   7.791   6.515 -0.0322  1.7214 -2.1447
  807MOL0     H 8943   1.552   7.917   6.270  0.4051  0.3315 -0.3982
  807MOL0     H 8944   1.717   7.905   6.337 -0.7180  0.5688 -2.5389
  807MOL0     H 8945   1.592   7.777   6.362  1.5867 -2.1354 -2.4236
  808MOL0     O 8946   9.082   0.656   5.012 -0.2618 -0.1007  0.1040
  808MOL0     C 8947   9.017   0.731   5.092  0.8744  0.3560  0.1144
  808MOL0     O 8948   9.060   0.780   5.219 -0.5956  0.6997 -0.3141
  808MOL0     C 8949   9.191   0.777   5.238 -0.3599 -0.5051  0.4850
  808MOL0     C 8950   9.250   0.663   5.287 -0.9564 -0.0218 -0.6703
  808MOL0     C 8951   9.387   0.668   5.325 -0.0050  0.4276  0.2080
  808MOL0     C 8952   9.465   0.784   5.299 -0.2980  0.5501  0.6851
  808MOL0     O 8953   9.607   0.774   5.315  0.5941 -0.0084 -0.5723
  808MOL0     C 8954   9.687   0.884   5.279 -0.2980  0.7983  0.5477
  808MOL0     C 8955   9.838   0.861   5.277  1.2273 -1.0811 -0.4391
  808MOL0     C 8956   9.888   0.889   5.423  0.4250 -0.1222  0.5196
  808MOL0     C 8957  10.036   0.902   5.409 -0.6963  0.2548  0.3312
  808MOL0     C 8958  10.097   0.940   5.549  0.3874 -0.2532  0.4069
  808MOL0     C 8959  10.238   0.895   5.557  0.5430  0.0207 -0.0337
  808MOL0     C 8960  10.284   0.905   5.700  0.5682 -0.1113 -0.0970
  808MOL0     C 8961  10.416   0.822   5.726  0.0843  0.1022  0.3221
  808MOL0     N 8962  10.439   0.776   5.866  0.5164  0.1922  0.1227
  808MOL0     C 8963  10.558   0.775   5.917 -0.2155  0.0878 -0.0191
  808MOL0     C 8964  10.547   0.692   6.023  0.0904 -0.1966  0.8391
  808MOL0     C 8965  10.663   0.655   6.112 -0.1663  0.1015  0.0794
  808MOL0     C 8966  10.677   0.501   6.109  1.2275  0.8452  0.6533
  808MOL0     C 8967  10.789   0.437   6.191  0.5119  1.2629 -0.6429
  808MOL0     C 8968  10.856   0.334   6.094 -0.7626  0.1493  0.8935
  808MOL0     O 8969  10.979   0.278   6.149 -0.1408  0.0869 -0.0849
  808MOL0     C 8970  11.072   0.208   6.077 -0.2406 -0.3131  0.3885
  808MOL0     C 8971  11.191   0.165   6.144  0.7399  1.3034 -0.7174
  808MOL0     C 8972  11.274   0.073   6.076 -0.3561 -1.3257 -0.9445
  808MOL0     C 8973  11.253   0.045   5.937  0.8153  0.8495 -0.2056
  808MOL0     C 8974  11.338  -0.060   5.884  0.3020 -0.7123  1.4243
  808MOL0     O 8975  11.403  -0.133   5.971  0.6020  0.4686  0.7179
  808MOL0     C 8976  11.500  -0.223   5.941  0.0006  0.9070  0.3332
  808MOL0     C 8977  11.540  -0.319   6.032 -0.2149 -0.3820 -0.0396
  808MOL0     C 8978  11.659  -0.395   6.013  0.3726 -0.0378 -0.4220
  808MOL0     C 8979  11.732  -0.391   5.892 -0.0855  0.5451  0.1482
  808MOL0     O 8980  11.835  -0.477   5.858 -0.0161  0.7774  0.3007
  808MOL0     C 8981  11.902  -0.562   5.957  0.8338  0.0605  0.5889
  808MOL0     C 8982  12.001  -0.482   6.039  0.2690  0.3052  0.8728
  808MOL0     C 8983  12.043  -0.576   6.157 -0.4473  0.4433 -0.1282
  808MOL0     C 8984  12.168  -0.516   6.221 -0.0714  0.5239 -0.4666
  808MOL0     C 8985  12.214  -0.585   6.354  0.0170 -0.3454 -0.2241
  808MOL0     C 8986  12.346  -0.535   6.415 -1.2762 -1.8827 -0.3267
  808MOL0     C 8987  12.405  -0.612   6.536 -0.7491  0.6890  0.1058
  808MOL0     C 8988  12.480  -0.736   6.476 -0.3234  0.1008 -0.3823
  808MOL0    Cl 8989  12.651  -0.670   6.413 -0.4295 -0.1201  0.2518
  808MOL0     C 8990  11.697  -0.291   5.803 -0.0399  1.4090  0.0055
  808MOL0     C 8991  11.581  -0.213   5.829  0.0781 -0.2683  0.1767
  808MOL0     O 8992  11.340  -0.074   5.760 -0.2610  0.3179 -0.8163
  808MOL0     C 8993  11.151   0.106   5.865  0.3868  0.3487 -0.3937
  808MOL0     C 8994  11.065   0.188   5.934  1.1155  1.3467 -0.1384
  808MOL0     N 8995  10.412   0.656   6.038 -0.4793  0.3101 -0.5379
  808MOL0     N 8996  10.344   0.711   5.940  0.1820  0.0736  0.4079
  808MOL0     C 8997   9.407   0.902   5.247  1.4752  0.4951  0.4332
  808MOL0     C 8998   9.264   0.897   5.218  0.3171 -0.1681  1.0821
  808MOL0     C 8999   8.874   0.772   5.065 -0.5933 -0.4936  0.2287
  808MOL0     C 9000   8.809   0.868   5.140  0.1634  0.5039  0.2377
  808MOL0     C 9001   8.671   0.895   5.129 -0.2010  0.8642  0.0648
  808MOL0     C 9002   8.597   0.831   5.027  0.2653  1.1742 -0.0450
  808MOL0     O 9003   8.460   0.839   5.014  1.0242  0.0586 -0.0836
  808MOL0     C 9004   8.399   0.945   5.084  0.1976  0.8112 -0.1100
  808MOL0     C 9005   8.248   0.922   5.037 -0.4192 -0.0943  0.1244
  808MOL0     C 9006   8.247   0.965   4.882 -0.5167 -0.6476 -0.2481
  808MOL0     C 9007   8.105   0.976   4.830 -0.5359 -0.2668 -0.5052
  808MOL0     C 9008   8.023   0.865   4.857  0.0934 -0.1632  0.9558
  808MOL0     C 9009   7.935   0.797   4.892  0.5122 -0.5136  0.7997
  808MOL0     C 9010   8.660   0.730   4.951 -0.4557 -0.1583  0.4031
  808MOL0     C 9011   8.798   0.703   4.966  1.1860  0.2958  0.1525
  808MOL0     C 9012   8.852   0.579   4.898 -0.0026  0.1045  0.9100
  808MOL0     H 9013   9.182   0.586   5.323 -1.1538  0.8665  0.9706
  808MOL0     H 9014   9.433   0.585   5.378 -1.4540  1.2660  2.9504
  808MOL0     H 9015   9.664   0.908   5.175  5.0676  1.5393 -0.7616
  808MOL0     H 9016   9.676   0.973   5.342  1.5010  1.1863  0.3820
  808MOL0     H 9017   9.874   0.941   5.213  0.6187 -0.5494 -0.1344
  808MOL0     H 9018   9.858   0.759   5.242  0.2352 -1.4986  0.1715
  808MOL0     H 9019   9.863   0.801   5.482 -1.7773  0.7456  0.9831
  808MOL0     H 9020   9.843   0.977   5.470  0.1275  0.5662 -0.9829
  808MOL0     H 9021  10.081   0.808   5.375  4.1572  1.2903  2.9762
  808MOL0     H 9022  10.062   0.982   5.339 -2.1049  0.3857 -0.0866
  808MOL0     H 9023  10.095   1.046   5.573  0.4203 -0.8059  3.2210
  808MOL0     H 9024  10.049   0.893   5.635  0.8232  2.1499  2.0341
  808MOL0     H 9025  10.235   0.788   5.534  0.8359 -0.1278  0.5796
  808MOL0     H 9026  10.307   0.944   5.487  2.7005  1.3469  2.7971
  808MOL0     H 9027  10.208   0.862   5.766  0.7658  1.2821  1.0916
  808MOL0     H 9028  10.285   1.011   5.725  1.3577  0.6944 -3.1230
  808MOL0     H 9029  10.429   0.740   5.655 -0.2325  2.5831 -2.8473
  808MOL0     H 9030  10.501   0.891   5.722 -0.1536  0.6669  2.9348
  808MOL0     H 9031  10.652   0.806   5.871  0.1638  0.0200  0.6992
  808MOL0     H 9032  10.759   0.703   6.091  1.3666 -2.1770  1.3860
  808MOL0     H 9033  10.634   0.681   6.214 -0.9961 -0.7548  0.0783
  808MOL0     H 9034  10.587   0.465   6.159  0.1747  1.3374 -0.8216
  808MOL0     H 9035  10.679   0.464   6.006  1.6618  1.3077  0.4880
  808MOL0     H 9036  10.756   0.384   6.281  1.2546  0.1323 -1.0117
  808MOL0     H 9037  10.861   0.512   6.223  1.2891  0.1280  0.3210
  808MOL0     H 9038  10.887   0.399   6.012  1.1773 -1.2443  0.4537
  808MOL0     H 9039  10.776   0.267   6.061 -1.2424  0.3544  1.6131
  808MOL0     H 9040  11.213   0.177   6.250 -1.3448 -1.5865  0.1578
  808MOL0     H 9041  11.366   0.053   6.130 -1.7533 -0.3279  2.0744
  808MOL0     H 9042  11.505  -0.331   6.134  1.4583 -1.1015  0.4992
  808MOL0     H 9043  11.697  -0.449   6.100 -0.1665 -0.8198 -0.6652
  808MOL0     H 9044  11.825  -0.610   6.019  0.8552 -0.1270  0.4700
  808MOL0     H 9045  11.959  -0.635   5.899 -2.9166 -0.7167 -2.5122
  808MOL0     H 9046  12.091  -0.454   5.983  1.3064 -0.7012  1.9561
  808MOL0     H 9047  11.957  -0.392   6.082  2.9117  1.6415  0.9718
  808MOL0     H 9048  11.968  -0.569   6.237  1.4662 -0.6134  1.8874
  808MOL0     H 9049  12.068  -0.681   6.138  2.6005  0.2863  3.4203
  808MOL0     H 9050  12.142  -0.413   6.249 -0.8868  0.6528 -1.6186
  808MOL0     H 9051  12.253  -0.518   6.153  0.7564  1.9359  0.4587
  808MOL0     H 9052  12.229  -0.692   6.340  2.8403 -0.1634  0.9213
  808MOL0     H 9053  12.130  -0.571   6.423 -1.0618  0.0251 -1.5477
  808MOL0     H 9054  12.423  -0.516   6.339  1.7008  1.4907  3.1214
  808MOL0     H 9055  12.324  -0.439   6.463 -0.9828 -2.2063  0.4761
  808MOL0     H 9056  12.322  -0.644   6.599 -1.3087 -0.8657 -1.3278
  808MOL0     H 9057  12.481  -0.561   6.596 -0.5664 -1.0120  1.3912
  808MOL0     H 9058  12.506  -0.803   6.558 -1.7051 -0.4831 -0.3942
  808MOL0     H 9059  12.424  -0.785   6.396  1.1987  0.0195 -1.4422
  808MOL0     H 9060  11.757  -0.272   5.714  0.8574  1.0444  0.5224
  808MOL0     H 9061  11.564  -0.132   5.759 -0.1528 -1.1598 -0.8423
  808MOL0     H 9062  11.123   0.075   5.765  2.2068 -1.5991 -0.3924
  808MOL0     H 9063  10.975   0.222   5.884  0.5974  1.6345  0.9553
  808MOL0     H 9064   9.455   0.998   5.236  1.0760  0.8335  1.5387
  808MOL0     H 9065   9.213   0.978   5.168  2.2590 -0.5224 -1.6609
  808MOL0     H 9066   8.867   0.937   5.201  1.1027  0.4014 -0.5108
  808MOL0     H 9067   8.627   0.968   5.196 -2.6487 -1.3210  0.9800
  808MOL0     H 9068   8.432   1.048   5.070  2.0206  1.0570  4.4927
  808MOL0     H 9069   8.414   0.935   5.191 -1.1522  4.1906  0.5091
  808MOL0     H 9070   8.180   0.983   5.098 -0.0758  0.3525  0.0669
  808MOL0     H 9071   8.217   0.817   5.041 -2.0275  0.3910  1.8456
  808MOL0     H 9072   8.298   0.880   4.835 -1.5765 -1.5348  0.1564
  808MOL0     H 9073   8.300   1.058   4.859 -1.7516  0.6322  1.7583
  808MOL0     H 9074   8.064   1.062   4.884 -1.4738 -1.1863  0.2792
  808MOL0     H 9075   8.105   0.993   4.722  1.6216  1.4524 -0.3306
  808MOL0     H 9076   7.855   0.737   4.928 -0.2055  0.1190  0.2926
  808MOL0     H 9077   8.598   0.688   4.873  0.1542 -1.9447  0.8027
  808MOL0     H 9078   8.773   0.532   4.839 -0.6494  0.4912  1.4664
  808MOL0     H 9079   8.931   0.599   4.825 -2.0715 -2.6637 -2.4522
  808MOL0     H 9080   8.899   0.502   4.961  1.8932  0.2284 -0.2623
  809MOL0     O 9081   5.393  11.234   8.114  0.9317 -0.3329  0.3974
  809MOL0     C 9082   5.448  11.218   8.009  0.1112 -0.0722  0.6005
  809MOL0     O 9083   5.571  11.167   8.000  0.1791 -0.1950 -0.3023
  809MOL0     C 9084   5.670  11.205   8.090 -0.3075 -0.5408  0.3018
  809MOL0     C 9085   5.678  11.334   8.141  0.4364  0.4507  0.7546
  809MOL0     C 9086   5.787  11.368   8.214  0.3627  0.6008 -1.0284
  809MOL0     C 9087   5.891  11.277   8.250  0.5424  0.5522 -0.0448
  809MOL0     O 9088   6.007  11.331   8.314  0.2604  0.8273 -0.1562
  809MOL0     C 9089   6.119  11.246   8.363  0.2554  0.0272 -0.3188
  809MOL0     C 9090   6.215  11.326   8.440 -0.7960 -0.1080  0.0848
  809MOL0     C 9091   6.320  11.238   8.510 -0.0372 -0.7267 -0.1790
  809MOL0     C 9092   6.454  11.289   8.528  1.1148  0.6462  0.0512
  809MOL0     C 9093   6.546  11.252   8.405 -0.0432  0.0982 -0.0421
  809MOL0     C 9094   6.680  11.336   8.424  0.1334 -0.2357  0.1316
  809MOL0     C 9095   6.787  11.292   8.330  0.5260 -0.3421  0.6788
  809MOL0     C 9096   6.921  11.349   8.379 -0.3991 -1.2564  0.3310
  809MOL0     N 9097   6.922  11.499   8.378 -0.7071  0.4952  0.0098
  809MOL0     C 9098   6.908  11.575   8.264 -0.1273  0.3610 -0.0206
  809MOL0     C 9099   6.898  11.702   8.316 -0.0693  0.9140  1.0075
  809MOL0     C 9100   6.900  11.836   8.237  0.3763  0.7520 -0.8881
  809MOL0     C 9101   7.015  11.862   8.140 -0.0472  1.1421  0.5044
  809MOL0     C 9102   7.142  11.884   8.227  0.2641  0.2047  0.4911
  809MOL0     C 9103   7.270  11.906   8.136  0.6741 -0.5351  0.4539
  809MOL0     O 9104   7.332  11.781   8.107 -0.0665 -0.4100 -0.0385
  809MOL0     C 9105   7.441  11.740   8.178 -0.7325  0.4570  0.1198
  809MOL0     C 9106   7.504  11.803   8.284 -1.0563 -0.7387  0.0026
  809MOL0     C 9107   7.628  11.763   8.343 -0.3003 -0.9735  0.5435
  809MOL0     C 9108   7.696  11.653   8.283 -0.1375  0.3380  0.3232
  809MOL0     C 9109   7.833  11.616   8.335  0.6891 -0.1300 -0.3719
  809MOL0     O 9110   7.900  11.713   8.410  0.4224  0.8331 -1.1277
  809MOL0     C 9111   8.035  11.686   8.441 -0.6736  0.7130 -0.2281
  809MOL0     C 9112   8.137  11.641   8.350  0.5728 -1.1616 -0.2772
  809MOL0     C 9113   8.267  11.619   8.391  0.3540  1.2529  0.5170
  809MOL0     C 9114   8.304  11.635   8.523  0.4599  0.0620  0.5547
  809MOL0     O 9115   8.428  11.619   8.578  0.5241  0.0119  0.7708
  809MOL0     C 9116   8.533  11.639   8.492 -0.9334  0.5104  0.8591
  809MOL0     C 9117   8.663  11.675   8.577 -0.0855 -0.2264  0.3874
  809MOL0     C 9118   8.787  11.695   8.487 -0.0329 -0.1144 -0.0196
  809MOL0     C 9119   8.908  11.739   8.570 -0.2128  0.3664 -0.7250
  809MOL0     C 9120   9.017  11.804   8.486  0.8541  0.2299 -1.1679
  809MOL0     C 9121   9.155  11.818   8.554 -0.2589  0.9427  0.0647
  809MOL0     C 9122   9.267  11.843   8.450 -0.1302 -0.4481 -0.4923
  809MOL0     C 9123   9.288  11.732   8.352  0.1933 -0.7416  0.0083
  809MOL0    Cl 9124   9.428  11.768   8.249 -0.1681 -0.2823 -0.1843
  809MOL0     C 9125   8.204  11.682   8.610  1.0846 -1.7950  0.8463
  809MOL0     C 9126   8.072  11.710   8.571  0.0429  0.7094  0.1106
  809MOL0     O 9127   7.878  11.513   8.301  0.7266  0.7604 -0.2880
  809MOL0     C 9128   7.631  11.578   8.183 -0.0501  0.1082  0.4649
  809MOL0     C 9129   7.511  11.622   8.135 -0.2546 -0.7218 -0.1056
  809MOL0     N 9130   6.900  11.700   8.451 -0.2430  0.0381 -0.6244
  809MOL0     N 9131   6.912  11.576   8.492  0.4241 -0.2590  0.7622
  809MOL0     C 9132   5.866  11.141   8.214 -0.2183 -0.8119 -0.1133
  809MOL0     C 9133   5.756  11.111   8.134  0.0258  0.4313  0.6804
  809MOL0     C 9134   5.367  11.224   7.889  0.8412  0.6096 -0.3835
  809MOL0     C 9135   5.374  11.113   7.810 -1.2509  0.9352 -1.1710
  809MOL0     C 9136   5.290  11.093   7.707 -0.1249  0.7689 -0.8396
  809MOL0     C 9137   5.194  11.182   7.667 -0.1693 -0.3806 -0.1468
  809MOL0     O 9138   5.110  11.136   7.566  1.0332 -0.5960 -0.8500
  809MOL0     C 9139   4.999  11.214   7.528 -0.1596  0.6422  0.3149
  809MOL0     C 9140   4.918  11.146   7.407  0.5251  0.2017 -0.0789
  809MOL0     C 9141   4.834  11.250   7.331  0.3131 -0.0470 -0.2585
  809MOL0     C 9142   4.713  11.302   7.402 -0.5641 -0.1836 -0.2421
  809MOL0     C 9143   4.638  11.418   7.361  0.4587 -0.1654 -0.0276
  809MOL0     C 9144   4.562  11.503   7.323 -1.0947 -0.4598 -1.0406
  809MOL0     C 9145   5.185  11.301   7.749 -0.2089 -0.9902  0.7955
  809MOL0     C 9146   5.261  11.312   7.861  0.0477 -0.0730  0.0667
  809MOL0     C 9147   5.241  11.445   7.921 -0.1698 -1.1355  0.5752
  809MOL0     H 9148   5.594  11.402   8.129 -1.8243 -2.3718 -0.5584
  809MOL0     H 9149   5.800  11.470   8.251  0.0216  0.1929  0.2689
  809MOL0     H 9150   6.086  11.158   8.419  1.9989 -0.6204 -0.2512
  809MOL0     H 9151   6.161  11.205   8.270 -0.7751 -2.0425  0.0699
  809MOL0     H 9152   6.155  11.366   8.523 -0.5263 -4.8159  2.9030
  809MOL0     H 9153   6.255  11.400   8.370 -1.7592 -0.9578 -1.4159
  809MOL0     H 9154   6.323  11.148   8.448  5.1123 -1.1408  0.2528
  809MOL0     H 9155   6.286  11.205   8.609 -2.4562 -0.1693 -0.7489
  809MOL0     H 9156   6.454  11.395   8.553  1.2626  0.3757  1.2616
  809MOL0     H 9157   6.497  11.237   8.614 -1.0500 -0.3702  0.6073
  809MOL0     H 9158   6.559  11.143   8.405 -1.2170 -0.0494  0.1459
  809MOL0     H 9159   6.498  11.275   8.309 -2.0480  1.0445  1.1195
  809MOL0     H 9160   6.657  11.443   8.424 -0.4014 -0.3461  0.7049
  809MOL0     H 9161   6.714  11.323   8.527 -0.3917  0.9433  0.4825
  809MOL0     H 9162   6.763  11.327   8.229  1.3699  0.5128  0.7665
  809MOL0     H 9163   6.791  11.183   8.315 -2.1556 -0.4964  0.6274
  809MOL0     H 9164   6.930  11.302   8.477  0.0359 -0.9477  0.4412
  809MOL0     H 9165   6.996  11.307   8.311 -0.5328 -0.2573 -0.4617
  809MOL0     H 9166   6.916  11.545   8.159 -0.6862  0.3489 -0.0667
  809MOL0     H 9167   6.799  11.839   8.196  0.3084  1.0713 -0.7009
  809MOL0     H 9168   6.897  11.918   8.310  1.8334 -0.6125  0.8183
  809MOL0     H 9169   7.018  11.778   8.071 -1.5700  0.0255  1.7264
  809MOL0     H 9170   6.992  11.952   8.082 -0.7150  0.5175 -0.2308
  809MOL0     H 9171   7.157  11.802   8.298  1.3117 -0.7510 -0.7691
  809MOL0     H 9172   7.125  11.969   8.293 -0.1281  1.6257 -1.3533
  809MOL0     H 9173   7.336  11.982   8.179  0.9939 -1.1592  1.0993
  809MOL0     H 9174   7.233  11.943   8.041 -1.1458 -4.0724 -0.3658
  809MOL0     H 9175   7.460  11.895   8.320 -0.8495 -0.8187  0.4569
  809MOL0     H 9176   7.663  11.813   8.432 -0.2970  0.3790 -0.1959
  809MOL0     H 9177   8.113  11.629   8.245 -1.7391 -2.3724  0.3289
  809MOL0     H 9178   8.339  11.581   8.319  0.4848 -0.9864  1.7360
  809MOL0     H 9179   8.544  11.550   8.428 -3.2628  0.9506 -0.2779
  809MOL0     H 9180   8.522  11.724   8.424  0.9643 -0.6157 -1.0045
  809MOL0     H 9181   8.643  11.765   8.636 -1.2985 -0.0636 -0.2388
  809MOL0     H 9182   8.681  11.595   8.650  0.7328 -1.0835 -0.7137
  809MOL0     H 9183   8.821  11.597   8.451 -0.3076  0.9426 -3.4843
  809MOL0     H 9184   8.767  11.753   8.396 -1.3540 -2.8407 -1.6006
  809MOL0     H 9185   8.942  11.657   8.635 -2.7151 -0.3505 -0.2114
  809MOL0     H 9186   8.874  11.822   8.633 -1.5194  1.3837 -2.6697
  809MOL0     H 9187   8.975  11.899   8.451 -3.5041 -1.2494 -0.5464
  809MOL0     H 9188   9.040  11.732   8.406  1.4818 -2.7470  1.4621
  809MOL0     H 9189   9.157  11.907   8.617  0.8603  0.6933  0.4134
  809MOL0     H 9190   9.172  11.727   8.613  0.0818 -1.5906 -3.6046
  809MOL0     H 9191   9.356  11.860   8.511 -0.8551 -0.7597  0.6904
  809MOL0     H 9192   9.248  11.932   8.390 -0.3304 -0.1534  0.0115
  809MOL0     H 9193   9.311  11.635   8.396  0.9567 -1.6491 -2.2729
  809MOL0     H 9194   9.204  11.727   8.281  0.3648 -0.0401 -0.2601
  809MOL0     H 9195   8.236  11.710   8.711  4.3383  2.2763 -0.9845
  809MOL0     H 9196   7.994  11.732   8.644  1.7277  1.7787  1.6740
  809MOL0     H 9197   7.663  11.482   8.143 -3.9209 -0.6954 -1.0740
  809MOL0     H 9198   7.470  11.560   8.056  2.9204 -0.4277 -2.1865
  809MOL0     H 9199   5.929  11.058   8.243 -2.3848 -2.1110  1.0815
  809MOL0     H 9200   5.737  11.009   8.101 -1.7887  0.9685 -0.0064
  809MOL0     H 9201   5.440  11.033   7.844 -1.0867  1.6851  0.3585
  809MOL0     H 9202   5.316  11.005   7.649  2.2041 -1.1117  2.7117
  809MOL0     H 9203   5.033  11.311   7.490  0.2249  1.0810  1.7141
  809MOL0     H 9204   4.937  11.235   7.616 -0.8021  1.6586 -0.3580
  809MOL0     H 9205   4.863  11.058   7.444  1.9124  0.2862  2.4277
  809MOL0     H 9206   4.980  11.113   7.324  0.9604  0.1009  0.2823
  809MOL0     H 9207   4.798  11.190   7.246 -1.5125  0.1312  0.3463
  809MOL0     H 9208   4.899  11.333   7.304  0.6710  1.0314  3.3861
  809MOL0     H 9209   4.638  11.223   7.393  0.2046 -0.8994 -0.4554
  809MOL0     H 9210   4.735  11.312   7.509 -1.2010 -4.5147  0.4743
  809MOL0     H 9211   4.483  11.569   7.295 -2.4756 -1.3757  0.4802
  809MOL0     H 9212   5.117  11.377   7.713  2.4260 -0.5620 -4.2642
  809MOL0     H 9213   5.201  11.525   7.857  0.8064  0.9054  2.3751
  809MOL0     H 9214   5.181  11.435   8.011 -1.9376 -1.3327 -0.5837
  809MOL0     H 9215   5.338  11.490   7.946 -0.1403 -0.0261 -1.3347
  810MOL0     O 9216   9.874  10.857   8.532  0.3366  0.7543 -0.0243
  810MOL0     C 9217   9.845  10.809   8.641 -0.2615  0.5066  0.3312
  810MOL0     O 9218   9.746  10.714   8.667  0.1384  0.4272 -0.1648
  810MOL0     C 9219   9.678  10.657   8.562  0.0436 -0.0589  0.6423
  810MOL0     C 9220   9.721  10.534   8.515  0.4722  0.9416  0.1593
  810MOL0     C 9221   9.650  10.476   8.411 -0.1092 -0.8501  0.6795
  810MOL0     C 9222   9.542  10.529   8.350  0.7943 -0.2233 -0.2806
  810MOL0     O 9223   9.459  10.466   8.267 -0.5678 -0.0877 -0.0547
  810MOL0     C 9224   9.517  10.364   8.185 -0.1734 -0.7054 -0.0431
  810MOL0     C 9225   9.452  10.355   8.050  0.7334  0.3317  0.6090
  810MOL0     C 9226   9.305  10.308   8.060  0.8007  0.9451  1.0183
  810MOL0     C 9227   9.232  10.311   7.916  0.1633  0.1056 -0.0146
  810MOL0     C 9228   9.085  10.256   7.931 -0.3350 -0.6155 -0.4191
  810MOL0     C 9229   9.009  10.316   8.050 -0.0586  0.1917 -0.0723
  810MOL0     C 9230   8.861  10.269   8.021 -0.0022  0.6668  0.2239
  810MOL0     C 9231   8.782  10.351   7.922  0.4337 -0.2764 -0.6740
  810MOL0     N 9232   8.722  10.469   7.986 -0.0654  0.3841 -0.4394
  810MOL0     C 9233   8.625  10.455   8.086  0.0572  0.3702  0.7580
  810MOL0     C 9234   8.570  10.579   8.101  0.3831 -0.0542 -0.4039
  810MOL0     C 9235   8.450  10.607   8.189  0.0606  0.5841 -0.4014
  810MOL0     C 9236   8.333  10.573   8.100 -0.0437  0.2657  0.6292
  810MOL0     C 9237   8.224  10.679   8.115  0.8148 -0.3693 -0.4011
  810MOL0     C 9238   8.096  10.654   8.043  1.2654  0.0488 -1.0276
  810MOL0     O 9239   8.040  10.524   8.088 -0.0308  0.4718  0.5609
  810MOL0     C 9240   7.930  10.481   8.019  0.0721 -0.3924 -0.3791
  810MOL0     C 9241   7.849  10.555   7.932  0.7725  0.0353 -0.6981
  810MOL0     C 9242   7.740  10.496   7.877  0.1428  0.8828 -0.0384
  810MOL0     C 9243   7.702  10.359   7.902 -0.4028  0.1700  0.4303
  810MOL0     C 9244   7.580  10.281   7.853  0.5063 -0.3434 -0.7030
  810MOL0     O 9245   7.567  10.148   7.867 -0.6891 -0.0308 -0.3995
  810MOL0     C 9246   7.436  10.095   7.862  0.4373 -0.2139  0.3649
  810MOL0     C 9247   7.359  10.084   7.745 -0.7423 -0.1570 -0.2008
  810MOL0     C 9248   7.229  10.041   7.759  0.5208  0.0607  0.5231
  810MOL0     C 9249   7.177  10.006   7.884  0.0102  0.5945 -0.6297
  810MOL0     O 9250   7.044   9.956   7.899 -0.6471 -0.5088 -0.4078
  810MOL0     C 9251   6.964   9.913   7.792  0.2206 -0.8525 -1.1946
  810MOL0     C 9252   6.824   9.886   7.851  0.1377 -0.2980  0.2030
  810MOL0     C 9253   6.758  10.018   7.888  0.5139 -0.6711 -0.5268
  810MOL0     C 9254   6.665   9.988   8.002  0.0923 -0.0166  0.3731
  810MOL0     C 9255   6.583  10.104   8.046  0.5333  0.2544  1.2582
  810MOL0     C 9256   6.499  10.055   8.163  0.4102  0.1754 -0.5727
  810MOL0     C 9257   6.378  10.148   8.192  0.5947  0.3045  0.0651
  810MOL0     C 9258   6.295  10.070   8.297 -0.3155  0.6086  0.7652
  810MOL0    Cl 9259   6.143  10.163   8.344 -0.2614  0.3498 -0.2783
  810MOL0     C 9260   7.258  10.005   7.998 -0.7413 -0.7457 -0.6964
  810MOL0     C 9261   7.385  10.058   7.988 -0.3014 -0.3424  0.1677
  810MOL0     O 9262   7.488  10.353   7.805 -0.2704  0.3839 -0.0974
  810MOL0     C 9263   7.795  10.284   7.984  0.4794 -0.1291  0.6489
  810MOL0     C 9264   7.893  10.347   8.055 -1.5368 -0.0441 -0.4156
  810MOL0     N 9265   8.628  10.664   8.004 -0.5450 -0.3028  0.0722
  810MOL0     N 9266   8.713  10.597   7.936 -0.2583  0.2847  0.4779
  810MOL0     C 9267   9.508  10.657   8.389  0.3894 -0.3690  0.1809
  810MOL0     C 9268   9.568  10.723   8.494 -1.1966  0.5821  1.2018
  810MOL0     C 9269   9.902  10.870   8.759 -0.6971  0.1001 -0.0406
  810MOL0     C 9270   9.932  10.792   8.870  0.3607  0.6746 -0.8281
  810MOL0     C 9271  10.004  10.832   8.979  0.5834  0.0648 -0.6584
  810MOL0     C 9272  10.034  10.965   8.998  0.4313  0.2721  0.5104
  810MOL0     O 9273  10.093  11.007   9.114 -0.4652 -0.1615  0.3820
  810MOL0     C 9274  10.216  10.948   9.161  0.8795 -0.0175 -0.3619
  810MOL0     C 9275  10.327  10.988   9.075 -0.2505  0.7533 -0.6291
  810MOL0     C 9276  10.459  10.989   9.146 -0.0466  0.4391  0.1177
  810MOL0     C 9277  10.583  11.014   9.049  0.0200 -0.8301  0.4962
  810MOL0     C 9278  10.706  10.966   9.115 -0.6381  0.3516  0.3089
  810MOL0     C 9279  10.804  10.919   9.169  0.1490  0.1176 -0.1044
  810MOL0     C 9280  10.016  11.053   8.896  0.7675  0.2120  0.3921
  810MOL0     C 9281   9.949  11.011   8.773  0.0420  0.6596 -0.0429
  810MOL0     C 9282   9.945  11.106   8.654 -0.0010 -0.4787 -0.1236
  810MOL0     H 9283   9.803  10.486   8.567 -0.3353 -1.4000 -0.6179
  810MOL0     H 9284   9.681  10.374   8.391 -1.3796 -1.3668  1.2451
  810MOL0     H 9285   9.618  10.394   8.158  0.4575 -2.1687  0.5758
  810MOL0     H 9286   9.525  10.263   8.226 -1.1389 -1.8017 -2.4007
  810MOL0     H 9287   9.507  10.287   7.984  0.0211 -1.5887  1.9224
  810MOL0     H 9288   9.443  10.452   8.000  0.1593 -0.5794 -1.1624
  810MOL0     H 9289   9.252  10.367   8.135 -4.1607  0.2123 -1.4826
  810MOL0     H 9290   9.313  10.205   8.095  1.2219  0.8107  0.5427
  810MOL0     H 9291   9.226  10.414   7.878 -2.6082  0.4610  1.1605
  810MOL0     H 9292   9.291  10.257   7.841  2.9772  2.2274  0.4827
  810MOL0     H 9293   9.045  10.276   7.831 -1.8214  1.1529  0.4573
  810MOL0     H 9294   9.100  10.149   7.946 -0.6232 -0.6729 -0.5474
  810MOL0     H 9295   9.039  10.272   8.145 -3.9248  1.3612  1.9018
  810MOL0     H 9296   9.020  10.425   8.043  0.9589  0.2742  2.0371
  810MOL0     H 9297   8.811  10.262   8.118 -0.7091  3.0184  0.0808
  810MOL0     H 9298   8.854  10.163   7.995  1.6024 -0.4607  3.6711
  810MOL0     H 9299   8.844  10.370   7.834  4.4218 -4.2346  0.9255
  810MOL0     H 9300   8.706  10.283   7.882  0.7030 -1.7740  1.2245
  810MOL0     H 9301   8.601  10.361   8.136  3.1824 -0.9192  0.0449
  810MOL0     H 9302   8.451  10.544   8.279 -1.9374 -0.6661 -1.1868
  810MOL0     H 9303   8.452  10.714   8.213 -4.1381  0.3966  1.8175
  810MOL0     H 9304   8.367  10.563   7.997  3.7686  2.3894  1.4998
  810MOL0     H 9305   8.295  10.472   8.118 -1.7252  0.9364  1.0757
  810MOL0     H 9306   8.264  10.775   8.082  1.5318 -0.3932  0.3595
  810MOL0     H 9307   8.201  10.694   8.221 -0.1635  3.7337 -1.0360
  810MOL0     H 9308   8.109  10.649   7.935  0.5781 -1.9706 -1.0533
  810MOL0     H 9309   8.038  10.740   8.078  0.2880 -0.1652 -2.0972
  810MOL0     H 9310   7.864  10.661   7.916 -0.5099  1.2215  4.3216
  810MOL0     H 9311   7.662  10.553   7.827 -1.8144  1.6354  3.5627
  810MOL0     H 9312   7.398  10.112   7.648  0.4552 -1.0934 -0.0208
  810MOL0     H 9313   7.162  10.041   7.673 -1.4965  2.4794  1.9788
  810MOL0     H 9314   6.956   9.986   7.710  1.3725 -1.2994 -1.7228
  810MOL0     H 9315   6.998   9.818   7.749  1.8629 -0.0056 -1.8540
  810MOL0     H 9316   6.770   9.826   7.777 -3.7353  2.5121  0.4148
  810MOL0     H 9317   6.843   9.825   7.939 -0.9939 -0.6931  0.1899
  810MOL0     H 9318   6.827  10.096   7.922  0.4773 -1.0686  0.4716
  810MOL0     H 9319   6.692  10.055   7.809  0.0794  1.3225  0.7044
  810MOL0     H 9320   6.723   9.942   8.083  0.8008  2.1869  1.1755
  810MOL0     H 9321   6.593   9.917   7.959 -1.0552  0.2377  1.8099
  810MOL0     H 9322   6.509  10.147   7.977  0.5609  1.8574  2.1792
  810MOL0     H 9323   6.650  10.185   8.075  4.0052 -1.8740 -0.2009
  810MOL0     H 9324   6.459   9.955   8.143 -1.1088  0.7974 -0.7832
  810MOL0     H 9325   6.551  10.059   8.259 -0.6853 -0.1883  0.0505
  810MOL0     H 9326   6.317  10.181   8.108 -0.7103 -2.2126 -0.0903
  810MOL0     H 9327   6.397  10.244   8.240  1.5281  0.3953 -0.4621
  810MOL0     H 9328   6.257   9.978   8.254  1.6071 -0.5724  1.4528
  810MOL0     H 9329   6.357  10.038   8.381  0.4766  0.0016 -0.0314
  810MOL0     H 9330   7.220   9.968   8.093  1.2227 -2.3293 -0.4659
  810MOL0     H 9331   7.452  10.080   8.071  4.2600  1.9786 -3.6223
  810MOL0     H 9332   7.778  10.180   8.012  3.7649 -0.3665  2.2221
  810MOL0     H 9333   7.953  10.288   8.124 -0.6716  0.3363 -0.8354
  810MOL0     H 9334   9.430  10.717   8.342 -0.6833 -0.6235  1.5857
  810MOL0     H 9335   9.541  10.819   8.537 -3.7054  1.3925 -1.7692
  810MOL0     H 9336   9.905  10.686   8.873  1.4635  0.3977  1.5647
  810MOL0     H 9337  10.023  10.764   9.061 -1.1674  0.2780 -0.0297
  810MOL0     H 9338  10.216  10.838   9.156  0.9924  0.0022 -0.9253
  810MOL0     H 9339  10.224  10.986   9.263  1.8989 -1.1105 -0.0169
  810MOL0     H 9340  10.317  11.083   9.022  2.8445 -0.8009 -4.5559
  810MOL0     H 9341  10.330  10.901   9.008  0.7230  0.4851 -0.2639
  810MOL0     H 9342  10.483  10.894   9.196 -0.1795  1.5428  2.4299
  810MOL0     H 9343  10.467  11.068   9.221  0.8904  0.6087 -0.1417
  810MOL0     H 9344  10.567  10.964   8.953 -2.6505 -0.2866  0.5882
  810MOL0     H 9345  10.595  11.122   9.033  0.8041 -1.0017 -0.1263
  810MOL0     H 9346  10.891  10.890   9.225  1.1038  0.6386 -1.2584
  810MOL0     H 9347  10.056  11.153   8.906  0.9693  0.4674 -2.3821
  810MOL0     H 9348  10.006  11.068   8.572 -0.3047 -0.9420 -0.1365
  810MOL0     H 9349   9.844  11.080   8.621  0.1906 -1.0271 -0.2828
  810MOL0     H 9350   9.976  11.211   8.662  2.8268 -1.2973  1.0250
  811MOL0     O 9351  10.848   5.127   9.968  0.0052 -0.1660  0.1385
  811MOL0     C 9352  10.773   5.216  10.010 -0.0101  0.4654  0.5370
  811MOL0     O 9353  10.811   5.347  10.019 -0.6685 -0.5095 -0.9650
  811MOL0     C 9354  10.948   5.376  10.012 -0.3664  0.2891 -1.1800
  811MOL0     C 9355  10.993   5.490   9.941  0.0804  0.7536 -1.1514
  811MOL0     C 9356  11.134   5.509   9.931  0.0549 -0.6560  0.0169
  811MOL0     C 9357  11.221   5.423   9.989  0.4655 -0.0668 -0.4302
  811MOL0     O 9358  11.358   5.448   9.979  0.4678  0.2667 -0.0540
  811MOL0     C 9359  11.416   5.527   9.875  1.0505 -0.7890  0.3593
  811MOL0     C 9360  11.438   5.673   9.926 -0.3789  0.0559 -0.3006
  811MOL0     C 9361  11.491   5.757   9.806 -0.0255  0.0275 -1.1023
  811MOL0     C 9362  11.602   5.684   9.725  0.1294 -1.3844 -0.0903
  811MOL0     C 9363  11.696   5.776   9.654 -0.1388 -0.7886  0.6049
  811MOL0     C 9364  11.823   5.701   9.610 -0.1310 -0.5408 -0.4036
  811MOL0     C 9365  11.924   5.802   9.549 -0.2975  0.0586  0.4390
  811MOL0     C 9366  12.037   5.740   9.480 -0.3811 -0.2154  0.3122
  811MOL0     N 9367  12.161   5.830   9.488 -0.5368  0.0643 -0.6357
  811MOL0     C 9368  12.176   5.964   9.450 -0.7669  0.1985  0.3889
  811MOL0     C 9369  12.308   5.975   9.475  0.2627 -0.3976 -0.6302
  811MOL0     C 9370  12.389   6.100   9.458  0.6294 -0.2925  0.3758
  811MOL0     C 9371  12.407   6.187   9.582  0.3460  0.4422  0.0805
  811MOL0     C 9372  12.280   6.225   9.656 -0.1714 -0.6356 -0.2711
  811MOL0     C 9373  12.312   6.322   9.774  0.5767 -0.5781  0.6008
  811MOL0     O 9374  12.191   6.365   9.838  0.4576 -0.4305 -0.0157
  811MOL0     C 9375  12.210   6.440   9.953  0.3091 -0.1660 -0.2398
  811MOL0     C 9376  12.284   6.551   9.942  0.2219 -0.2980 -0.7458
  811MOL0     C 9377  12.300   6.631  10.064 -0.5524 -0.2392  0.0767
  811MOL0     C 9378  12.227   6.601  10.187 -0.2688 -0.4220  1.4198
  811MOL0     C 9379  12.237   6.691  10.304 -1.3382  0.2214 -0.0604
  811MOL0     O 9380  12.289   6.813  10.265 -0.3771  0.3116 -0.5118
  811MOL0     C 9381  12.345   6.899  10.360  0.1202  0.6468 -0.8278
  811MOL0     C 9382  12.370   7.017  10.297 -0.1380  0.4219  0.3850
  811MOL0     C 9383  12.418   7.119  10.378  1.2885 -0.0002  0.7794
  811MOL0     C 9384  12.441   7.110  10.518  0.5987 -0.5497 -1.2234
  811MOL0     O 9385  12.472   7.206  10.603 -0.2822 -0.8110 -0.5076
  811MOL0     C 9386  12.507   7.332  10.531 -0.1684 -0.8621 -0.4435
  811MOL0     C 9387  12.567   7.427  10.633 -0.3229  0.1589  0.5032
  811MOL0     C 9388  12.463   7.494  10.723  0.5870 -0.5602  0.8314
  811MOL0     C 9389  12.376   7.599  10.657  0.4535  1.1660  0.3936
  811MOL0     C 9390  12.274   7.639  10.765 -0.5201  0.3612  0.6982
  811MOL0     C 9391  12.150   7.694  10.691 -0.6731 -0.2636 -0.5739
  811MOL0     C 9392  12.061   7.762  10.790  0.4524  0.0627  0.3092
  811MOL0     C 9393  11.928   7.802  10.718 -0.6962  0.5602  0.3668
  811MOL0    Cl 9394  11.827   7.915  10.808 -0.1968  0.0024 -0.5737
  811MOL0     C 9395  12.425   6.988  10.573 -0.6395 -0.3484  0.4094
  811MOL0     C 9396  12.383   6.881  10.492  0.3007 -0.4023 -0.0374
  811MOL0     O 9397  12.202   6.660  10.417  0.1562 -1.1294  0.3061
  811MOL0     C 9398  12.154   6.486  10.179  0.4781 -1.0898 -0.4284
  811MOL0     C 9399  12.147   6.407  10.065  0.8318 -0.2707  0.5250
  811MOL0     N 9400  12.371   5.865   9.524 -0.2050 -0.2539  0.7870
  811MOL0     N 9401  12.283   5.775   9.519 -0.3692 -0.2601  0.3099
  811MOL0     C 9402  11.167   5.317  10.074 -0.1050 -0.3611  0.8341
  811MOL0     C 9403  11.036   5.302  10.088  0.1118 -0.3191  0.5638
  811MOL0     C 9404  10.630   5.190  10.027  0.1798  0.1779 -0.5026
  811MOL0     C 9405  10.591   5.088  10.117  0.3624 -0.0625 -0.2538
  811MOL0     C 9406  10.456   5.058  10.141 -0.4943  0.3067  0.7693
  811MOL0     C 9407  10.350   5.141  10.091 -0.3054 -0.3232 -0.3993
  811MOL0     O 9408  10.217   5.135  10.126  0.1378  0.3710 -0.2279
  811MOL0     C 9409  10.178   5.007  10.162  0.1319 -1.0212  0.0007
  811MOL0     C 9410  10.025   5.009  10.151  0.5448  0.5581  0.6296
  811MOL0     C 9411   9.955   5.096  10.254  0.7496  0.8560 -0.1936
  811MOL0     C 9412   9.802   5.106  10.203 -0.7473  0.0733 -0.5555
  811MOL0     C 9413   9.724   5.181  10.307  0.1518 -0.8468  0.4880
  811MOL0     C 9414   9.672   5.241  10.396  0.5381  0.8239  0.5347
  811MOL0     C 9415  10.388   5.250  10.017 -0.2299  0.9967 -1.0304
  811MOL0     C 9416  10.524   5.274   9.980 -0.0578  0.7896 -0.2418
  811MOL0     C 9417  10.557   5.377   9.884  0.1483 -0.6654  0.4123
  811MOL0     H 9418  10.918   5.555   9.898  0.2718  2.3539  0.8071
  811MOL0     H 9419  11.168   5.593   9.872 -0.2828 -1.8856 -1.9942
  811MOL0     H 9420  11.514   5.486   9.849  0.6936 -0.9602 -0.7663
  811MOL0     H 9421  11.342   5.521   9.795 -1.5078 -3.5626  2.6675
  811MOL0     H 9422  11.510   5.675  10.009  1.1863  0.2640 -1.6187
  811MOL0     H 9423  11.339   5.708   9.957 -0.5915 -0.5274 -0.3205
  811MOL0     H 9424  11.534   5.847   9.851  1.8143 -1.1345 -0.4084
  811MOL0     H 9425  11.419   5.788   9.729 -2.7552  0.2159  1.3481
  811MOL0     H 9426  11.665   5.636   9.800  0.1122  0.8581  1.4233
  811MOL0     H 9427  11.562   5.600   9.667  3.1798 -4.1566  1.5011
  811MOL0     H 9428  11.642   5.817   9.569 -2.8561 -2.9004  1.1785
  811MOL0     H 9429  11.717   5.858   9.723 -1.6932 -0.2040  0.4305
  811MOL0     H 9430  11.862   5.652   9.700 -1.4023 -2.7777 -0.9885
  811MOL0     H 9431  11.802   5.619   9.541  2.4244 -2.6724  1.1510
  811MOL0     H 9432  11.956   5.863   9.634  0.2559 -1.5339  1.4244
  811MOL0     H 9433  11.868   5.870   9.485  0.5069  0.2589 -0.0742
  811MOL0     H 9434  12.070   5.649   9.531 -1.5861 -1.0506 -0.3426
  811MOL0     H 9435  12.022   5.717   9.374  0.2297  2.3034 -0.3923
  811MOL0     H 9436  12.101   6.030   9.407 -0.1644 -1.6176 -3.9259
  811MOL0     H 9437  12.490   6.071   9.430  1.8407  2.2008  1.8075
  811MOL0     H 9438  12.343   6.158   9.378  1.5738 -1.6466 -1.2117
  811MOL0     H 9439  12.472   6.139   9.655 -1.4149  2.4350  3.1890
  811MOL0     H 9440  12.464   6.274   9.548  1.6252 -0.0333  0.9492
  811MOL0     H 9441  12.232   6.138   9.700 -1.7622  1.0188  1.4404
  811MOL0     H 9442  12.209   6.270   9.586 -0.4557  0.6507  0.8099
  811MOL0     H 9443  12.362   6.414   9.741  0.4998 -0.0987  1.7442
  811MOL0     H 9444  12.364   6.264   9.851 -2.9337 -0.3028  3.4297
  811MOL0     H 9445  12.337   6.595   9.858 -1.5740  1.2569 -1.1422
  811MOL0     H 9446  12.360   6.720  10.053  0.0018 -0.4975  0.9376
  811MOL0     H 9447  12.359   7.033  10.191  3.9924 -1.0469 -0.4268
  811MOL0     H 9448  12.430   7.208  10.316  1.3565 -1.1419 -0.9101
  811MOL0     H 9449  12.588   7.313  10.459  0.7310 -0.3703  0.4081
  811MOL0     H 9450  12.429   7.386  10.478 -0.0363  1.8443  1.8846
  811MOL0     H 9451  12.629   7.363  10.697 -0.5135 -0.9191 -0.3497
  811MOL0     H 9452  12.622   7.509  10.585  0.3358 -0.3842  0.2985
  811MOL0     H 9453  12.397   7.419  10.768 -2.6690  0.8410 -1.2320
  811MOL0     H 9454  12.523   7.548  10.797 -0.4420  2.5088 -0.4156
  811MOL0     H 9455  12.327   7.566  10.565 -0.2478 -2.2576  1.8498
  811MOL0     H 9456  12.436   7.690  10.642  1.1360  0.5576 -0.6216
  811MOL0     H 9457  12.301   7.731  10.817 -0.1605  1.6736 -1.6743
  811MOL0     H 9458  12.250   7.558  10.835  1.3028 -0.4294  0.4620
  811MOL0     H 9459  12.187   7.775  10.628 -0.1558  1.6221  1.9881
  811MOL0     H 9460  12.091   7.615  10.642 -0.4819  0.7052 -2.4649
  811MOL0     H 9461  12.101   7.857  10.827  1.1334 -0.6177  1.3353
  811MOL0     H 9462  12.030   7.694  10.870 -0.9772 -0.9894 -1.0810
  811MOL0     H 9463  11.956   7.845  10.621  0.5955 -0.9323  0.0370
  811MOL0     H 9464  11.873   7.709  10.703  1.2799 -0.9448  1.8446
  811MOL0     H 9465  12.415   6.962  10.678 -0.7767  0.5949  0.6415
  811MOL0     H 9466  12.359   6.788  10.541  0.4570 -0.3872  0.0656
  811MOL0     H 9467  12.106   6.450  10.270  1.3098  1.5995  1.1750
  811MOL0     H 9468  12.086   6.318  10.076 -1.3962  0.9491 -1.1705
  811MOL0     H 9469  11.235   5.251  10.128  2.7870 -0.5444 -2.6451
  811MOL0     H 9470  10.999   5.218  10.145 -1.1065 -0.6137 -0.6019
  811MOL0     H 9471  10.664   5.026  10.168 -1.6716 -1.3495  1.2467
  811MOL0     H 9472  10.436   4.965  10.193  2.7192 -0.8659  0.1148
  811MOL0     H 9473  10.204   4.979  10.265 -2.2187  0.5546  1.1100
  811MOL0     H 9474  10.216   4.932  10.092 -2.5985 -1.3750 -1.2476
  811MOL0     H 9475   9.990   4.905  10.148  1.2272  0.3295 -2.7714
  811MOL0     H 9476   9.997   5.040  10.050  1.6303 -4.4776 -1.5325
  811MOL0     H 9477   9.998   5.197  10.248  3.0264 -0.0247  0.2053
  811MOL0     H 9478   9.966   5.052  10.353 -1.9916 -0.9231 -0.5829
  811MOL0     H 9479   9.794   5.148  10.103  0.2428 -0.7159 -0.9748
  811MOL0     H 9480   9.754   5.010  10.181  0.4408 -0.4200 -1.0299
  811MOL0     H 9481   9.617   5.278  10.480 -1.9989  0.2194 -0.7665
  811MOL0     H 9482  10.313   5.322   9.985  0.3511  1.3083 -1.7073
  811MOL0     H 9483  10.467   5.406   9.829  1.1611 -3.2439 -2.9541
  811MOL0     H 9484  10.597   5.461   9.942  0.6432 -0.0134 -0.8356
  811MOL0     H 9485  10.635   5.338   9.817 -0.7823 -1.7816 -0.0380
  812MOL0     O 9486  11.366   4.634   3.920  0.2606  0.4330 -0.7050
  812MOL0     C 9487  11.263   4.661   3.865 -0.2249 -0.1818 -0.0191
  812MOL0     O 9488  11.251   4.745   3.764  0.3424  0.8391  0.1708
  812MOL0     C 9489  11.360   4.801   3.700 -0.1252  0.3378 -1.4707
  812MOL0     C 9490  11.497   4.769   3.713  0.4129 -0.7693 -0.7787
  812MOL0     C 9491  11.603   4.830   3.643 -0.0571  0.4756 -0.9635
  812MOL0     C 9492  11.580   4.911   3.533  0.1202 -0.4236 -0.2203
  812MOL0     O 9493  11.692   4.955   3.466  0.3438  0.0711 -0.0168
  812MOL0     C 9494  11.698   5.086   3.416 -0.1362 -0.1182 -0.2753
  812MOL0     C 9495  11.686   5.081   3.263  0.5029  0.3392  0.6459
  812MOL0     C 9496  11.810   5.039   3.194  0.9375  0.1355  0.4815
  812MOL0     C 9497  11.796   5.077   3.047  0.7748 -0.8572 -0.4216
  812MOL0     C 9498  11.939   5.062   2.980 -0.9864 -0.1851  0.1781
  812MOL0     C 9499  11.931   5.070   2.835  0.1433  0.0395 -0.3046
  812MOL0     C 9500  12.071   5.077   2.774 -0.4460  0.3188  0.1592
  812MOL0     C 9501  12.036   5.067   2.627  0.6807  0.2933 -0.1500
  812MOL0     N 9502  12.154   5.113   2.557  0.2686  0.2848 -0.9005
  812MOL0     C 9503  12.267   5.039   2.554 -1.0741  0.7057  0.2940
  812MOL0     C 9504  12.343   5.124   2.477  0.0477  0.5601 -0.4866
  812MOL0     C 9505  12.491   5.113   2.463  1.3237  0.0613  0.9028
  812MOL0     C 9506  12.565   5.242   2.491 -0.0127  0.2677 -0.1039
  812MOL0     C 9507  12.566   5.270   2.641  0.5566  0.4254  0.1551
  812MOL0     C 9508  12.650   5.387   2.661  0.4759  0.0724 -0.7216
  812MOL0     O 9509  12.779   5.331   2.663 -0.4272 -0.6294  0.0276
  812MOL0     C 9510  12.885   5.416   2.655  1.2670  0.4605  0.8468
  812MOL0     C 9511  12.883   5.555   2.665  0.5932 -0.1462  0.2972
  812MOL0     C 9512  12.996   5.636   2.649  0.9310  1.2915 -0.0482
  812MOL0     C 9513  13.127   5.573   2.651  0.0664  0.0499  0.4231
  812MOL0     C 9514  13.242   5.655   2.652  0.3612 -0.2203  0.2158
  812MOL0     O 9515  13.227   5.785   2.649 -0.5310 -0.2833  0.3651
  812MOL0     C 9516  13.337   5.868   2.661  0.0906 -0.3722 -0.0042
  812MOL0     C 9517  13.472   5.842   2.625 -0.5532 -0.0887 -0.1181
  812MOL0     C 9518  13.566   5.946   2.634 -0.7818  0.7512  0.4823
  812MOL0     C 9519  13.536   6.075   2.682 -0.0919 -0.5022  0.2508
  812MOL0     O 9520  13.627   6.181   2.685  0.1637 -0.6147 -0.0358
  812MOL0     C 9521  13.707   6.194   2.562  0.0406 -0.2360  0.0505
  812MOL0     C 9522  13.614   6.218   2.440  0.3332  0.4393 -0.0140
  812MOL0     C 9523  13.705   6.284   2.326  0.9428  0.5601  0.5939
  812MOL0     C 9524  13.633   6.292   2.192 -0.0343 -1.0794  0.1635
  812MOL0     C 9525  13.727   6.327   2.074  0.3840  0.1577  0.2056
  812MOL0     C 9526  13.743   6.477   2.085  0.5900  0.0524 -0.4012
  812MOL0     C 9527  13.858   6.530   1.999 -0.2136  0.0004 -1.2689
  812MOL0     C 9528  14.000   6.492   2.057  0.0193 -0.1831 -0.7584
  812MOL0    Cl 9529  14.009   6.521   2.236  0.4334 -0.2355 -0.4700
  812MOL0     C 9530  13.404   6.103   2.718  0.5339 -0.1087 -0.3036
  812MOL0     C 9531  13.301   5.995   2.710  1.1313 -0.6898  0.4143
  812MOL0     O 9532  13.341   5.595   2.690  0.3115  0.7009  0.3418
  812MOL0     C 9533  13.120   5.432   2.665 -1.1174  0.5742  0.2776
  812MOL0     C 9534  13.011   5.355   2.651 -0.4413 -0.2939  0.2580
  812MOL0     N 9535  12.274   5.231   2.429 -0.9917  0.6117 -0.5727
  812MOL0     N 9536  12.157   5.225   2.481  0.0119 -0.3136 -0.0717
  812MOL0     C 9537  11.444   4.951   3.524 -0.3917  0.8635 -0.4339
  812MOL0     C 9538  11.333   4.897   3.600 -0.0947  0.4863  1.0613
  812MOL0     C 9539  11.133   4.608   3.918  1.0242 -0.2237  0.3092
  812MOL0     C 9540  11.152   4.489   3.993 -0.8898 -1.2318  0.1790
  812MOL0     C 9541  11.045   4.419   4.051  0.2343 -0.5746 -0.4180
  812MOL0     C 9542  10.918   4.482   4.058 -0.1072  0.6822  0.7985
  812MOL0     O 9543  10.814   4.439   4.134  0.2016  0.1261 -0.1686
  812MOL0     C 9544  10.828   4.319   4.210 -0.0821  0.0022 -0.3579
  812MOL0     C 9545  10.706   4.287   4.297 -1.2605  0.2248 -0.1625
  812MOL0     C 9546  10.580   4.229   4.225  0.0025 -0.5448 -0.7022
  812MOL0     C 9547  10.457   4.228   4.323 -1.2363 -0.2534 -0.7122
  812MOL0     C 9548  10.348   4.183   4.238 -0.4169 -0.2827  1.4560
  812MOL0     C 9549  10.258   4.134   4.169  0.9123  0.0577 -0.1028
  812MOL0     C 9550  10.904   4.597   3.975  0.2673  0.5116 -0.5900
  812MOL0     C 9551  11.003   4.653   3.899 -0.4909 -0.1776  0.1910
  812MOL0     C 9552  10.976   4.777   3.813  0.5005 -0.1230  0.2912
  812MOL0     H 9553  11.531   4.690   3.779  1.8412  1.4198  1.2747
  812MOL0     H 9554  11.705   4.802   3.668 -0.6405  0.3285  1.5867
  812MOL0     H 9555  11.619   5.147   3.461 -1.5469 -1.5411 -0.6994
  812MOL0     H 9556  11.792   5.122   3.459  0.2607 -0.5111 -0.7986
  812MOL0     H 9557  11.679   5.186   3.233 -0.2638 -0.1687 -1.0844
  812MOL0     H 9558  11.605   5.020   3.223  1.3620  0.1265 -0.8461
  812MOL0     H 9559  11.828   4.932   3.209  1.1128  0.1950  0.6986
  812MOL0     H 9560  11.901   5.084   3.233  1.1152 -1.8365  2.5913
  812MOL0     H 9561  11.720   5.009   3.008 -1.1877  1.5645 -1.1014
  812MOL0     H 9562  11.773   5.181   3.024 -2.3816 -1.3401  0.1442
  812MOL0     H 9563  12.017   5.133   3.009 -1.0153  0.9713 -2.3365
  812MOL0     H 9564  11.973   4.961   3.006 -1.0658 -0.5019 -0.8925
  812MOL0     H 9565  11.870   4.990   2.793 -0.1600  0.6668 -1.0821
  812MOL0     H 9566  11.878   5.164   2.817 -3.4455 -2.2813 -3.4080
  812MOL0     H 9567  12.132   4.994   2.810  1.3050  1.6907  0.4787
  812MOL0     H 9568  12.120   5.172   2.798  2.2456 -0.5849 -1.3372
  812MOL0     H 9569  12.006   4.965   2.602  2.9428 -1.2042  2.6733
  812MOL0     H 9570  11.959   5.134   2.588 -1.7485 -1.3429  1.5554
  812MOL0     H 9571  12.302   4.944   2.593 -0.7739  0.3392 -0.8288
  812MOL0     H 9572  12.523   5.036   2.534 -0.5220  1.6321  3.6528
  812MOL0     H 9573  12.509   5.078   2.362 -2.7238 -2.5378  0.8786
  812MOL0     H 9574  12.667   5.223   2.455  0.3438  1.8821 -0.0217
  812MOL0     H 9575  12.522   5.327   2.437 -1.8881 -0.9151 -0.5650
  812MOL0     H 9576  12.612   5.177   2.676  1.0353  0.2637 -0.8553
  812MOL0     H 9577  12.465   5.278   2.682 -0.5781  2.3979 -2.7163
  812MOL0     H 9578  12.625   5.424   2.761 -3.7332 -3.0711 -0.3515
  812MOL0     H 9579  12.629   5.463   2.585  1.1004  0.5724 -0.4075
  812MOL0     H 9580  12.795   5.619   2.659  0.9017  0.3042  0.5000
  812MOL0     H 9581  12.981   5.744   2.649  0.8485  1.3122 -1.6608
  812MOL0     H 9582  13.510   5.744   2.598 -2.3386 -1.2812  1.4960
  812MOL0     H 9583  13.668   5.923   2.605 -0.5870  2.2947 -0.1440
  812MOL0     H 9584  13.772   6.279   2.583 -2.0046  1.6026 -0.7027
  812MOL0     H 9585  13.780   6.114   2.545  0.0349 -0.3194  0.4127
  812MOL0     H 9586  13.571   6.125   2.404 -2.4828  1.5626  0.2279
  812MOL0     H 9587  13.537   6.290   2.469  1.7340  1.6866  0.7863
  812MOL0     H 9588  13.738   6.383   2.358  1.1111  1.9523 -3.3393
  812MOL0     H 9589  13.788   6.216   2.305  0.2400 -0.3159  0.5959
  812MOL0     H 9590  13.553   6.366   2.196  0.1084 -0.9710  1.4897
  812MOL0     H 9591  13.575   6.201   2.172  0.6656 -1.1836 -1.6351
  812MOL0     H 9592  13.694   6.285   1.978  1.3643 -2.5290  0.9643
  812MOL0     H 9593  13.827   6.286   2.090 -0.3321 -0.8340  2.5851
  812MOL0     H 9594  13.646   6.508   2.044  0.5029 -0.6695 -0.7541
  812MOL0     H 9595  13.756   6.501   2.191  0.1432 -1.7951  0.1047
  812MOL0     H 9596  13.852   6.639   1.992 -1.5242  0.3619  2.8552
  812MOL0     H 9597  13.857   6.488   1.898 -2.5944 -4.5456  0.3697
  812MOL0     H 9598  14.029   6.390   2.035 -0.7907 -0.6937  0.4288
  812MOL0     H 9599  14.074   6.550   2.002 -0.1966  0.4918 -0.3540
  812MOL0     H 9600  13.375   6.196   2.767  0.3064  0.2223 -1.0463
  812MOL0     H 9601  13.198   6.008   2.742  0.5671  2.4919 -2.1376
  812MOL0     H 9602  13.214   5.378   2.668 -1.1274  0.5957  1.3490
  812MOL0     H 9603  13.007   5.247   2.639 -0.9314 -0.4051  1.2996
  812MOL0     H 9604  11.419   4.998   3.429  1.1794  2.8263  0.0624
  812MOL0     H 9605  11.231   4.905   3.565  0.0695 -1.0996  0.1407
  812MOL0     H 9606  11.254   4.463   4.019 -1.3487 -2.2566  1.0535
  812MOL0     H 9607  11.075   4.332   4.109  1.1379  0.4417  0.6808
  812MOL0     H 9608  10.914   4.337   4.275 -0.2330 -0.9924  0.1339
  812MOL0     H 9609  10.851   4.238   4.141  1.6108 -0.2024  0.3946
  812MOL0     H 9610  10.668   4.379   4.343 -3.7232 -0.5615 -0.4839
  812MOL0     H 9611  10.745   4.220   4.373  1.2497  0.5236 -1.0997
  812MOL0     H 9612  10.622   4.131   4.201  1.9575 -0.3941  1.6581
  812MOL0     H 9613  10.572   4.291   4.135  3.4709  2.0452  0.5118
  812MOL0     H 9614  10.477   4.168   4.412 -3.4819  1.2681  0.9229
  812MOL0     H 9615  10.437   4.329   4.360  2.9809 -0.0443  1.6731
  812MOL0     H 9616  10.167   4.091   4.130  0.2912  2.6621 -1.7827
  812MOL0     H 9617  10.807   4.645   3.970  0.6834  1.4076 -0.1636
  812MOL0     H 9618  11.041   4.858   3.848  1.0101 -1.1658  1.8765
  812MOL0     H 9619  10.984   4.756   3.706 -2.4531  3.1188 -0.7541
  812MOL0     H 9620  10.876   4.821   3.824  0.5222  1.2194 -3.3123
  813MOL0     O 9621   5.455   5.812  10.800  0.1984 -0.8225  0.3904
  813MOL0     C 9622   5.356   5.875  10.841 -0.1082 -0.2266 -0.8444
  813MOL0     O 9623   5.353   5.971  10.939  0.1497 -0.4258  0.1514
  813MOL0     C 9624   5.406   5.955  11.063  0.4967  0.0538 -0.1534
  813MOL0     C 9625   5.417   6.068  11.148 -0.2106  0.8186 -0.6697
  813MOL0     C 9626   5.478   6.066  11.272 -0.4049 -0.5707  0.8655
  813MOL0     C 9627   5.552   5.960  11.316  0.7513  0.0731  0.2039
  813MOL0     O 9628   5.610   5.969  11.432  0.0580 -0.2810  0.1815
  813MOL0     C 9629   5.733   5.889  11.445  0.4663  0.2695 -0.3589
  813MOL0     C 9630   5.848   5.945  11.378 -0.6440  0.1905  0.2569
  813MOL0     C 9631   5.917   6.061  11.446 -0.3964 -0.0768  0.2994
  813MOL0     C 9632   5.806   6.158  11.494 -0.7134 -0.2998  0.2619
  813MOL0     C 9633   5.867   6.289  11.540 -0.4518  0.6220 -0.1443
  813MOL0     C 9634   5.757   6.377  11.600  0.3091 -0.6099  0.0091
  813MOL0     C 9635   5.805   6.523  11.607  0.1009  0.4255  0.2095
  813MOL0     C 9636   5.737   6.603  11.716  0.2252 -0.0368 -0.1357
  813MOL0     N 9637   5.780   6.591  11.853 -0.6760  0.4971 -0.5504
  813MOL0     C 9638   5.712   6.578  11.971  1.2725 -0.3496 -0.0473
  813MOL0     C 9639   5.803   6.585  12.066 -0.7399  0.1821 -0.5520
  813MOL0     C 9640   5.769   6.579  12.211 -0.1911 -0.0185  0.1661
  813MOL0     C 9641   5.711   6.698  12.278  0.3925  1.2459 -0.8441
  813MOL0     C 9642   5.801   6.824  12.280 -0.0873 -0.0504 -0.0849
  813MOL0     C 9643   5.723   6.947  12.332  0.3717 -0.1244  0.9069
  813MOL0     O 9644   5.677   6.928  12.462 -0.1006  0.3863 -0.6018
  813MOL0     C 9645   5.770   6.943  12.565  0.1700 -0.9979  0.4380
  813MOL0     C 9646   5.742   6.910  12.692  0.0780  0.4831 -0.5988
  813MOL0     C 9647   5.838   6.912  12.797  0.4736 -0.1560  0.4755
  813MOL0     C 9648   5.970   6.964  12.780  0.4461 -0.1166 -0.6603
  813MOL0     C 9649   6.068   6.987  12.896  0.5765  0.1211  0.8171
  813MOL0     O 9650   6.200   6.990  12.866  0.0928  0.6946  0.2358
  813MOL0     C 9651   6.297   6.972  12.965  0.4165 -0.1993  0.4009
  813MOL0     C 9652   6.412   7.037  12.946 -0.7040 -0.2040  0.7570
  813MOL0     C 9653   6.519   7.014  13.036 -1.1262 -0.5221  0.0792
  813MOL0     C 9654   6.506   6.928  13.143  0.4262  0.7222 -0.1198
  813MOL0     O 9655   6.608   6.873  13.209 -0.7528 -0.9391 -0.3417
  813MOL0     C 9656   6.705   6.966  13.261 -0.8215  1.0382  0.3195
  813MOL0     C 9657   6.752   6.900  13.394  0.0723 -0.4765  0.6767
  813MOL0     C 9658   6.842   6.994  13.476  0.1011  0.4103 -0.0718
  813MOL0     C 9659   6.867   6.936  13.612 -0.2333 -0.4270  0.0122
  813MOL0     C 9660   6.930   7.040  13.707 -0.1971 -0.0030  0.9186
  813MOL0     C 9661   6.946   6.975  13.841  0.4695  0.4498  0.4405
  813MOL0     C 9662   6.966   7.090  13.947 -0.3629  0.3029 -0.1205
  813MOL0     C 9663   7.122   7.129  13.951  0.5353 -0.5999  0.6853
  813MOL0    Cl 9664   7.176   7.243  13.826  0.2741  0.0619 -0.1370
  813MOL0     C 9665   6.389   6.869  13.167  0.4692 -0.8649 -0.2588
  813MOL0     C 9666   6.282   6.888  13.086  0.1291  0.2620  1.0934
  813MOL0     O 9667   6.019   6.980  13.007 -0.1342  0.0134  0.3728
  813MOL0     C 9668   5.990   7.013  12.652  0.0391  0.3406 -0.8069
  813MOL0     C 9669   5.900   7.004  12.549 -0.4333  0.3465  1.0411
  813MOL0     N 9670   5.931   6.602  12.008 -0.3771 -0.0749 -1.2697
  813MOL0     N 9671   5.913   6.614  11.884 -0.4796  0.4705 -0.2283
  813MOL0     C 9672   5.537   5.841  11.231  0.1210  1.4239  0.4443
  813MOL0     C 9673   5.464   5.834  11.110 -0.3080  0.4108  0.1313
  813MOL0     C 9674   5.229   5.854  10.771 -0.0906  0.0512 -0.1637
  813MOL0     C 9675   5.228   5.828  10.636 -0.0096 -0.8164 -0.3266
  813MOL0     C 9676   5.116   5.810  10.560  0.4320  0.4412  0.1083
  813MOL0     C 9677   4.991   5.808  10.616  0.5717  0.3383 -0.3739
  813MOL0     O 9678   4.879   5.806  10.547 -0.7014  0.4834 -0.3759
  813MOL0     C 9679   4.869   5.821  10.406 -0.2988 -0.7623  0.4897
  813MOL0     C 9680   4.879   5.973  10.364  0.2145  0.1189 -0.7567
  813MOL0     C 9681   4.755   6.046  10.397 -0.1704  0.1596 -1.0316
  813MOL0     C 9682   4.767   6.192  10.360 -0.2119 -0.5036 -0.3567
  813MOL0     C 9683   4.878   6.261  10.433 -0.1510 -0.2062  0.1958
  813MOL0     C 9684   4.963   6.324  10.491  0.7329  0.4012  0.0954
  813MOL0     C 9685   4.985   5.803  10.758 -0.3187  0.7166 -0.4451
  813MOL0     C 9686   5.106   5.830  10.834 -1.0879 -1.1259  0.1938
  813MOL0     C 9687   5.097   5.804  10.984  0.5602  0.1124 -0.3519
  813MOL0     H 9688   5.359   6.153  11.113 -0.6069 -0.0177 -2.1197
  813MOL0     H 9689   5.478   6.154  11.334  0.2746  0.1084 -0.0719
  813MOL0     H 9690   5.763   5.863  11.546 -1.1970 -1.6596 -0.2944
  813MOL0     H 9691   5.713   5.788  11.406  1.7224 -0.3520  0.5408
  813MOL0     H 9692   5.819   5.979  11.278  0.2102  0.3818  0.0709
  813MOL0     H 9693   5.921   5.867  11.358 -0.1712  1.3912 -3.4395
  813MOL0     H 9694   6.001   6.103  11.391  0.2422 -1.0574  0.4989
  813MOL0     H 9695   5.964   6.029  11.540  1.4756  0.1702 -0.5255
  813MOL0     H 9696   5.740   6.174  11.408 -3.1094 -2.6889  1.5495
  813MOL0     H 9697   5.746   6.108  11.571 -1.2246 -2.3148 -1.3600
  813MOL0     H 9698   5.948   6.277  11.612 -1.7681  2.0462  1.6436
  813MOL0     H 9699   5.905   6.343  11.453 -0.5090  0.1141 -0.4909
  813MOL0     H 9700   5.663   6.368  11.544  0.2754  0.0266 -0.0429
  813MOL0     H 9701   5.731   6.343  11.701 -3.4292 -1.8465 -1.1998
  813MOL0     H 9702   5.779   6.576  11.515 -0.2691  0.1774  0.1689
  813MOL0     H 9703   5.913   6.513  11.619  0.2000  1.9584  0.8176
  813MOL0     H 9704   5.750   6.703  11.675 -0.7766 -0.6381 -2.0352
  813MOL0     H 9705   5.631   6.575  11.713  0.5674 -1.5529  0.7030
  813MOL0     H 9706   5.605   6.564  11.976  1.2474  0.0560  0.6715
  813MOL0     H 9707   5.711   6.491  12.241 -2.9952  1.9831  0.9917
  813MOL0     H 9708   5.868   6.567  12.255 -1.1447 -0.8297  2.2525
  813MOL0     H 9709   5.616   6.721  12.228  0.1796 -0.8747 -1.5152
  813MOL0     H 9710   5.685   6.669  12.380  1.3118  0.1754 -0.8949
  813MOL0     H 9711   5.836   6.845  12.178 -1.9386  1.9286 -0.3961
  813MOL0     H 9712   5.892   6.812  12.340 -1.7179 -0.4676  2.4270
  813MOL0     H 9713   5.640   6.963  12.263  1.0426 -0.6095 -0.0254
  813MOL0     H 9714   5.782   7.038  12.318  0.1912 -0.1710 -0.2360
  813MOL0     H 9715   5.639   6.882  12.710 -0.6129  3.0119 -0.2794
  813MOL0     H 9716   5.808   6.862  12.889  1.2118 -0.4411  0.5687
  813MOL0     H 9717   6.426   7.089  12.852 -2.6523  1.5764  1.3633
  813MOL0     H 9718   6.614   7.062  13.017 -1.7037 -0.2558 -2.5440
  813MOL0     H 9719   6.787   6.958  13.188 -0.2575  0.0190  1.0423
  813MOL0     H 9720   6.674   7.069  13.279 -3.0643  1.3696 -3.9626
  813MOL0     H 9721   6.672   6.869  13.462  0.2505 -0.0135  1.1041
  813MOL0     H 9722   6.810   6.808  13.386 -2.9432 -2.3869 -0.9073
  813MOL0     H 9723   6.938   7.000  13.423 -0.9490 -0.8823 -2.2480
  813MOL0     H 9724   6.804   7.095  13.491  1.3956  0.8336  0.5897
  813MOL0     H 9725   6.937   6.852  13.618 -1.3551 -1.4649 -0.9998
  813MOL0     H 9726   6.774   6.910  13.663 -1.1481  1.2836 -0.6980
  813MOL0     H 9727   6.862   7.126  13.708 -0.5621 -0.1675 -1.6443
  813MOL0     H 9728   7.033   7.055  13.674  0.4013  0.0551  2.7087
  813MOL0     H 9729   6.857   6.920  13.875  0.3133  0.3588 -0.1173
  813MOL0     H 9730   7.025   6.899  13.841  0.0583  0.0017 -0.7165
  813MOL0     H 9731   6.936   7.056  14.046 -1.1311  2.4059  0.4347
  813MOL0     H 9732   6.899   7.175  13.928  0.1338  0.4959 -1.0821
  813MOL0     H 9733   7.131   7.171  14.052  2.1488  2.7027 -0.6623
  813MOL0     H 9734   7.179   7.036  13.958  1.7204  0.1254  1.0124
  813MOL0     H 9735   6.380   6.812  13.259  1.5670  2.3784  2.0374
  813MOL0     H 9736   6.189   6.839  13.112 -1.0885  2.3846  0.9629
  813MOL0     H 9737   6.082   7.068  12.632 -0.4379  2.4052  2.0845
  813MOL0     H 9738   5.939   7.030  12.451 -4.1940 -4.3868 -2.1504
  813MOL0     H 9739   5.570   5.745  11.269 -1.6124  1.6579  2.7555
  813MOL0     H 9740   5.457   5.737  11.062 -2.3569 -0.9163  2.8260
  813MOL0     H 9741   5.319   5.815  10.579 -0.0772 -0.9080 -0.4128
  813MOL0     H 9742   5.127   5.795  10.453  1.3636  0.8144  0.1483
  813MOL0     H 9743   4.772   5.781  10.374  0.3672 -1.7769 -0.2904
  813MOL0     H 9744   4.946   5.757  10.362  0.2881 -0.4962  1.1159
  813MOL0     H 9745   4.904   5.973  10.258  2.9375  0.8100 -0.1850
  813MOL0     H 9746   4.962   6.013  10.422 -1.7967  2.2142  0.8509
  813MOL0     H 9747   4.726   6.031  10.502 -2.1729  1.1873 -1.3811
  813MOL0     H 9748   4.682   5.999  10.329 -3.7857  3.1026  0.4545
  813MOL0     H 9749   4.777   6.193  10.251 -0.5153 -1.2335 -0.3961
  813MOL0     H 9750   4.669   6.239  10.370 -2.0881 -4.2867  1.1609
  813MOL0     H 9751   5.022   6.388  10.553 -1.2978  0.5062  2.0529
  813MOL0     H 9752   4.897   5.796  10.821  0.1033  1.6644  0.2861
  813MOL0     H 9753   5.191   5.769  11.026 -0.8304 -0.1521  2.8052
  813MOL0     H 9754   5.055   5.893  11.033 -1.7558  0.2743 -2.4580
  813MOL0     H 9755   5.022   5.727  11.003  0.3441  0.4257  0.0888
  814MOL0     O 9756   7.496   6.419   3.717  0.8399  0.1757 -0.0026
  814MOL0     C 9757   7.396   6.353   3.750  0.5953  0.2827  0.5391
  814MOL0     O 9758   7.404   6.222   3.796  0.3738  0.8102 -0.6631
  814MOL0     C 9759   7.524   6.163   3.821 -0.1675 -0.0231 -1.4004
  814MOL0     C 9760   7.607   6.206   3.927 -0.4722  0.2460 -0.7331
  814MOL0     C 9761   7.713   6.129   3.972  0.0457  0.2740 -0.1507
  814MOL0     C 9762   7.748   6.016   3.906  1.1856 -0.4143 -0.1017
  814MOL0     O 9763   7.867   5.964   3.943 -0.4490  0.1318  0.4269
  814MOL0     C 9764   7.920   5.845   3.862  0.6723 -0.2221  0.5872
  814MOL0     C 9765   8.074   5.819   3.869 -0.9012  0.8576 -0.5096
  814MOL0     C 9766   8.126   5.760   4.004 -0.0708 -0.2229  0.1479
  814MOL0     C 9767   8.171   5.863   4.103 -0.1796 -0.2210 -0.5225
  814MOL0     C 9768   8.244   5.799   4.223  0.0954  0.1749 -0.2275
  814MOL0     C 9769   8.158   5.695   4.294 -0.0394  0.4398  0.9824
  814MOL0     C 9770   8.199   5.633   4.433 -0.2138 -0.1111  0.7783
  814MOL0     C 9771   8.092   5.524   4.471  0.2665  0.6844  0.3776
  814MOL0     N 9772   8.120   5.402   4.401 -0.0755 -0.0214 -0.1786
  814MOL0     C 9773   8.209   5.314   4.446 -0.4202 -0.5670  0.2504
  814MOL0     C 9774   8.167   5.201   4.391  0.5370 -0.2608 -0.2599
  814MOL0     C 9775   8.229   5.069   4.402 -0.4156  0.4141 -0.7539
  814MOL0     C 9776   8.367   5.073   4.339 -0.2487 -0.4901  0.4664
  814MOL0     C 9777   8.464   4.983   4.420  0.1696  0.3291 -0.3341
  814MOL0     C 9778   8.591   4.974   4.327  0.4286 -0.4447  0.1877
  814MOL0     O 9779   8.658   5.101   4.313 -0.3273 -0.2036 -0.4654
  814MOL0     C 9780   8.780   5.109   4.244 -0.6158 -0.2170 -0.1069
  814MOL0     C 9781   8.846   5.227   4.237 -0.6624 -0.8273 -0.3790
  814MOL0     C 9782   8.956   5.245   4.154  0.5102  0.0327  1.0599
  814MOL0     C 9783   9.003   5.132   4.084  0.2995 -0.4094 -0.1623
  814MOL0     C 9784   9.126   5.143   3.994  0.6408  0.4739  0.7515
  814MOL0     O 9785   9.157   5.035   3.914  0.1562  0.3081 -0.7717
  814MOL0     C 9786   9.279   5.043   3.853 -1.3593 -0.6133 -0.0385
  814MOL0     C 9787   9.285   5.091   3.721  0.0858 -0.7162 -0.4246
  814MOL0     C 9788   9.404   5.089   3.647 -0.2227  0.2036 -0.1122
  814MOL0     C 9789   9.524   5.037   3.703 -0.3031  0.2822 -1.2457
  814MOL0     O 9790   9.631   5.023   3.626 -0.0497 -0.0726  0.3837
  814MOL0     C 9791   9.728   5.127   3.656 -0.2264  0.3379  0.1855
  814MOL0     C 9792   9.846   5.088   3.558  1.0284  0.2817  0.3493
  814MOL0     C 9793   9.984   5.125   3.597  0.1306  0.3192 -0.3672
  814MOL0     C 9794  10.080   5.087   3.479  0.1477 -0.0572 -0.4296
  814MOL0     C 9795  10.209   5.169   3.494  0.4087  0.0525 -0.1938
  814MOL0     C 9796  10.308   5.130   3.375  0.1959 -0.1470  0.4044
  814MOL0     C 9797  10.439   5.192   3.385 -0.6897 -0.7680 -0.1212
  814MOL0     C 9798  10.438   5.330   3.334 -0.0748 -0.3623 -0.0666
  814MOL0    Cl 9799  10.588   5.417   3.387  0.3766 -0.1993  0.5395
  814MOL0     C 9800   9.517   4.996   3.842  0.9404  0.3695  0.3243
  814MOL0     C 9801   9.395   4.999   3.914 -0.0431 -0.6740  0.7706
  814MOL0     O 9802   9.182   5.253   3.993  0.2449  0.9534 -0.1537
  814MOL0     C 9803   8.938   5.015   4.082 -0.4864 -0.3447 -0.4410
  814MOL0     C 9804   8.828   5.005   4.164  1.5370 -0.2049  0.0212
  814MOL0     N 9805   8.060   5.231   4.300  0.0667 -0.4257 -1.5077
  814MOL0     N 9806   8.038   5.351   4.311 -0.0562 -0.5663 -0.5443
  814MOL0     C 9807   7.661   5.972   3.804 -0.1023 -0.1332 -0.8468
  814MOL0     C 9808   7.546   6.042   3.767 -0.7039 -1.0518 -0.0176
  814MOL0     C 9809   7.267   6.416   3.753  0.1966  0.5749  0.2352
  814MOL0     C 9810   7.169   6.368   3.846 -0.3240 -0.1718 -0.2261
  814MOL0     C 9811   7.034   6.404   3.836 -0.1198  0.5226  0.6322
  814MOL0     C 9812   6.997   6.482   3.726 -0.3600 -0.0633  0.9043
  814MOL0     O 9813   6.865   6.511   3.695  0.4867  0.0307 -0.3746
  814MOL0     C 9814   6.766   6.414   3.743  0.1137  0.0415 -0.4446
  814MOL0     C 9815   6.631   6.433   3.669 -0.7794  0.2323 -0.3002
  814MOL0     C 9816   6.648   6.437   3.521 -0.3588  0.0251  0.1748
  814MOL0     C 9817   6.513   6.393   3.448  0.6651 -0.0271 -0.0872
  814MOL0     C 9818   6.396   6.469   3.500 -0.5198 -0.1329  0.2961
  814MOL0     C 9819   6.315   6.532   3.562  0.1535 -0.3557  0.2445
  814MOL0     C 9820   7.096   6.542   3.648 -0.7559  0.0535  0.4088
  814MOL0     C 9821   7.236   6.515   3.661  0.6997 -0.9979  0.2136
  814MOL0     C 9822   7.322   6.582   3.555 -0.0437 -0.3565  0.1036
  814MOL0     H 9823   7.582   6.302   3.969  2.4315  0.9258 -0.2927
  814MOL0     H 9824   7.780   6.155   4.053  3.6202 -3.3353 -1.6406
  814MOL0     H 9825   7.861   5.758   3.891  1.0035  0.0156  2.0525
  814MOL0     H 9826   7.899   5.874   3.758  0.1430 -0.3399  0.6588
  814MOL0     H 9827   8.123   5.914   3.848  1.5336  0.2130  1.7130
  814MOL0     H 9828   8.092   5.738   3.798 -0.6111  0.8278 -0.4033
  814MOL0     H 9829   8.208   5.691   3.987  1.4694  1.0482  2.0583
  814MOL0     H 9830   8.036   5.708   4.039 -0.3222 -0.0505 -0.2326
  814MOL0     H 9831   8.238   5.924   4.042 -1.9097 -0.6533 -3.0020
  814MOL0     H 9832   8.086   5.922   4.139  0.6678  1.4084 -1.0960
  814MOL0     H 9833   8.333   5.749   4.182 -0.6809 -3.1519  1.8156
  814MOL0     H 9834   8.269   5.879   4.293 -1.6316 -0.5368  1.2805
  814MOL0     H 9835   8.053   5.725   4.300 -0.5502 -1.1638  0.3357
  814MOL0     H 9836   8.165   5.603   4.236 -0.9988  0.0457  1.4627
  814MOL0     H 9837   8.197   5.721   4.498  0.2298  2.0069 -1.8876
  814MOL0     H 9838   8.305   5.608   4.433  0.3117  1.8665 -0.8795
  814MOL0     H 9839   8.089   5.507   4.579 -4.0752  0.6064  0.3839
  814MOL0     H 9840   7.996   5.566   4.441 -0.1180  0.5253  1.3614
  814MOL0     H 9841   8.293   5.342   4.509  2.8516 -1.8412 -3.1627
  814MOL0     H 9842   8.239   5.039   4.507  0.5948 -2.9412 -1.6847
  814MOL0     H 9843   8.161   4.997   4.356 -0.6545  1.1730 -1.6238
  814MOL0     H 9844   8.362   5.047   4.233  0.9967  0.1659  0.2310
  814MOL0     H 9845   8.396   5.178   4.330  3.2861 -1.2917  0.8190
  814MOL0     H 9846   8.407   4.891   4.431 -0.2941  0.7923  1.4771
  814MOL0     H 9847   8.483   5.024   4.520  0.0784 -4.1614  1.7366
  814MOL0     H 9848   8.557   4.943   4.227 -0.9755  0.7459  0.2563
  814MOL0     H 9849   8.657   4.907   4.383  1.8066 -0.3447 -1.2564
  814MOL0     H 9850   8.804   5.309   4.294  2.5278  0.6470  0.0665
  814MOL0     H 9851   8.983   5.349   4.145 -1.3535  0.6497  2.0611
  814MOL0     H 9852   9.195   5.128   3.673  0.3029 -1.6814 -1.6505
  814MOL0     H 9853   9.408   5.115   3.541  2.1689  1.5192  0.2295
  814MOL0     H 9854   9.692   5.228   3.630  1.1234  0.0621 -3.4315
  814MOL0     H 9855   9.771   5.132   3.756  1.3603  0.4402 -0.4700
  814MOL0     H 9856   9.841   4.979   3.543  1.7157  0.4843 -1.5896
  814MOL0     H 9857   9.824   5.122   3.457 -4.5694  1.9545  1.7817
  814MOL0     H 9858   9.991   5.234   3.607  0.1184  0.6199 -2.8703
  814MOL0     H 9859  10.020   5.066   3.681  1.3040 -0.0845 -1.1386
  814MOL0     H 9860  10.031   5.111   3.384  0.0819 -1.2806 -0.7187
  814MOL0     H 9861  10.105   4.981   3.467 -1.7513 -0.7518  1.2341
  814MOL0     H 9862  10.261   5.161   3.590  2.6301 -0.1340 -1.3449
  814MOL0     H 9863  10.175   5.273   3.489 -3.6561 -0.8252  3.4802
  814MOL0     H 9864  10.317   5.021   3.369  4.0223  0.0708 -0.2292
  814MOL0     H 9865  10.268   5.167   3.280  0.4349  3.4805  1.5765
  814MOL0     H 9866  10.523   5.137   3.340  0.0868 -0.1025  0.4657
  814MOL0     H 9867  10.466   5.202   3.491  1.5497 -1.6429 -0.5590
  814MOL0     H 9868  10.436   5.327   3.225  0.2525  2.0427 -0.2093
  814MOL0     H 9869  10.351   5.380   3.378  0.7394  0.6703  0.4214
  814MOL0     H 9870   9.599   4.953   3.899  2.6308  2.6660 -0.2418
  814MOL0     H 9871   9.410   4.979   4.020  0.2251  4.0862  1.8694
  814MOL0     H 9872   8.975   4.932   4.023 -3.1974 -0.3906 -2.2263
  814MOL0     H 9873   8.782   4.907   4.155 -0.0126  0.4271  0.6385
  814MOL0     H 9874   7.675   5.879   3.750 -1.7108 -1.2793  0.6085
  814MOL0     H 9875   7.465   6.008   3.704 -0.8548  1.5647 -1.3812
  814MOL0     H 9876   7.184   6.307   3.935 -1.5138 -2.6501 -1.6332
  814MOL0     H 9877   6.963   6.373   3.913  1.7291  0.9531  2.6118
  814MOL0     H 9878   6.744   6.404   3.850 -0.2870 -1.5708 -0.6464
  814MOL0     H 9879   6.798   6.313   3.714  0.4104  0.0629 -0.2012
  814MOL0     H 9880   6.584   6.525   3.704  2.8150  1.5564  1.4871
  814MOL0     H 9881   6.571   6.343   3.687 -0.4380 -0.1846 -1.2104
  814MOL0     H 9882   6.722   6.370   3.476  0.3332  1.9459 -1.7729
  814MOL0     H 9883   6.684   6.535   3.487  0.8715 -0.4311  0.1131
  814MOL0     H 9884   6.522   6.396   3.339 -0.9092 -0.5293 -0.2593
  814MOL0     H 9885   6.496   6.291   3.482  0.7870  0.6956  2.3390
  814MOL0     H 9886   6.239   6.590   3.611  0.9574  0.9820 -0.0486
  814MOL0     H 9887   7.057   6.610   3.573  4.8106 -0.1555 -3.3688
  814MOL0     H 9888   7.386   6.507   3.508  0.8967  2.1925 -3.1450
  814MOL0     H 9889   7.268   6.616   3.466  2.4366 -3.1128 -2.7005
  814MOL0     H 9890   7.383   6.663   3.596  0.4131 -1.5376  1.8604
  815MOL0     O 9891   8.483   9.829   8.358  0.0715  0.2009  0.0541
  815MOL0     C 9892   8.394   9.911   8.361 -0.0680  0.2010 -0.1296
  815MOL0     O 9893   8.404  10.041   8.395 -0.7663 -0.6776 -0.3655
  815MOL0     C 9894   8.525  10.098   8.395  0.4121 -0.7598  0.4895
  815MOL0     C 9895   8.644  10.048   8.338 -0.4294  0.6083  0.4094
  815MOL0     C 9896   8.762  10.125   8.353  0.2404 -0.3599  0.1406
  815MOL0     C 9897   8.758  10.254   8.404  0.4981 -0.1161  0.6320
  815MOL0     O 9898   8.878  10.314   8.415 -0.1484 -0.5383 -0.1656
  815MOL0     C 9899   8.883  10.458   8.412 -0.1602 -0.2758  0.9827
  815MOL0     C 9900   9.036  10.490   8.425  0.3954 -0.2650 -0.7722
  815MOL0     C 9901   9.056  10.648   8.421  0.2298  0.1070  0.4080
  815MOL0     C 9902   9.133  10.685   8.301  0.3386  0.3571 -0.0823
  815MOL0     C 9903   9.039  10.703   8.178 -0.1709  0.8144  0.6371
  815MOL0     C 9904   9.112  10.740   8.047 -0.7688 -0.0820  0.5459
  815MOL0     C 9905   9.023  10.826   7.954  0.4365  0.0122 -0.0168
  815MOL0     C 9906   9.027  10.974   7.991  0.4716 -0.6606  0.3771
  815MOL0     N 9907   9.153  11.038   7.972  0.5938 -2.2226 -0.3157
  815MOL0     C 9908   9.220  11.048   7.856  0.3198  0.8961  0.5093
  815MOL0     C 9909   9.334  11.115   7.875  0.3725 -0.1289 -0.4727
  815MOL0     C 9910   9.442  11.140   7.777 -0.2462 -0.3759  0.1385
  815MOL0     C 9911   9.461  11.034   7.674  0.5705  0.3378 -0.7856
  815MOL0     C 9912   9.589  11.046   7.595  0.4501  0.0688  0.0646
  815MOL0     C 9913   9.650  10.914   7.550 -0.0659 -0.2591 -0.0510
  815MOL0     O 9914   9.742  10.968   7.452  0.1494 -0.3262  0.2203
  815MOL0     C 9915   9.870  10.918   7.460  0.0137  0.0197 -0.5272
  815MOL0     C 9916   9.939  10.908   7.581 -0.3582  1.2134 -0.9425
  815MOL0     C 9917  10.076  10.881   7.576  0.7967  0.2016  0.3829
  815MOL0     C 9918  10.140  10.840   7.457  0.1937  0.3244  0.5289
  815MOL0     C 9919  10.282  10.804   7.461 -0.1164  0.0694  0.0721
  815MOL0     O 9920  10.359  10.863   7.553  1.0633 -0.8040  0.0331
  815MOL0     C 9921  10.478  10.812   7.585 -0.1481 -0.1552  0.0898
  815MOL0     C 9922  10.506  10.672   7.605  0.4995 -0.0807  1.6467
  815MOL0     C 9923  10.631  10.634   7.641  0.7804  1.3655 -0.3289
  815MOL0     C 9924  10.731  10.729   7.663 -0.2597 -0.6058  0.9802
  815MOL0     O 9925  10.859  10.685   7.707  0.2983  0.3042 -0.6704
  815MOL0     C 9926  10.964  10.744   7.631 -0.1685  0.4224  0.1901
  815MOL0     C 9927  11.079  10.648   7.624 -0.0726 -0.1046 -0.5414
  815MOL0     C 9928  11.215  10.730   7.607  0.2956 -0.0604  0.9924
  815MOL0     C 9929  11.340  10.647   7.627 -1.1144 -0.6586  0.2565
  815MOL0     C 9930  11.467  10.727   7.637  0.0024 -0.2471  1.1375
  815MOL0     C 9931  11.581  10.634   7.637 -0.5158  1.2144  0.1389
  815MOL0     C 9932  11.720  10.704   7.616  0.8082  0.9341 -0.3455
  815MOL0     C 9933  11.830  10.606   7.606 -0.0764 -0.5390 -0.1044
  815MOL0    Cl 9934  11.986  10.668   7.558  0.2691  0.0878  0.5209
  815MOL0     C 9935  10.710  10.865   7.651  0.0456 -0.5561 -0.0985
  815MOL0     C 9936  10.582  10.904   7.614 -0.0541  0.3935  0.3651
  815MOL0     O 9937  10.314  10.723   7.373  0.1688 -0.0720 -0.3395
  815MOL0     C 9938  10.066  10.833   7.335 -0.5842 -0.6065  0.5632
  815MOL0     C 9939   9.929  10.873   7.345  0.1082  0.8310 -0.1509
  815MOL0     N 9940   9.324  11.150   8.009 -0.1668  0.8435  0.1153
  815MOL0     N 9941   9.215  11.107   8.064  0.6396 -1.0153  0.7736
  815MOL0     C 9942   8.636  10.302   8.458  0.6786  0.1750  0.5340
  815MOL0     C 9943   8.521  10.232   8.438  0.2625 -0.7403 -0.3146
  815MOL0     C 9944   8.258   9.859   8.331 -0.9689  0.0460 -0.5937
  815MOL0     C 9945   8.160   9.930   8.389 -0.0332 -0.5622  0.6513
  815MOL0     C 9946   8.033   9.893   8.379  0.9711  0.3369 -0.1898
  815MOL0     C 9947   7.984   9.791   8.305 -0.2453  0.1106  0.3907
  815MOL0     O 9948   7.849   9.749   8.292 -0.6578 -0.7334 -0.2751
  815MOL0     C 9949   7.745   9.811   8.368 -0.0838  0.1870 -0.3454
  815MOL0     C 9950   7.601   9.765   8.334  1.1821  0.4551 -0.0028
  815MOL0     C 9951   7.504   9.858   8.411 -0.4951 -0.0052 -0.5552
  815MOL0     C 9952   7.359   9.865   8.365 -0.3748  0.3410  1.8679
  815MOL0     C 9953   7.291   9.966   8.442  0.7747 -0.2809  0.5730
  815MOL0     C 9954   7.215  10.027   8.514  0.3955  0.3653  1.0184
  815MOL0     C 9955   8.086   9.716   8.242 -0.0042 -0.0524 -0.6961
  815MOL0     C 9956   8.223   9.739   8.258 -0.4336  0.2309 -0.5112
  815MOL0     C 9957   8.319   9.637   8.203 -0.1110 -0.5428 -0.7938
  815MOL0     H 9958   8.657   9.953   8.288  1.4169  0.7761  0.5289
  815MOL0     H 9959   8.860  10.087   8.327 -0.8258 -2.7404 -0.7255
  815MOL0     H 9960   8.860  10.492   8.311 -0.5638  1.6574  1.6825
  815MOL0     H 9961   8.818  10.508   8.485  1.3946  2.0902  0.8588
  815MOL0     H 9962   9.107  10.429   8.367  2.4142  1.6764 -0.4670
  815MOL0     H 9963   9.057  10.467   8.530 -2.6791  1.5563  0.3665
  815MOL0     H 9964   9.104  10.690   8.511  0.3028  2.7554 -0.7828
  815MOL0     H 9965   8.960  10.700   8.408  1.1357  1.8340  0.2759
  815MOL0     H 9966   9.183  10.780   8.325 -0.4931  0.6546  0.5454
  815MOL0     H 9967   9.214  10.613   8.290  0.1222 -0.3821  2.4630
  815MOL0     H 9968   8.990  10.609   8.154  1.8653 -0.5749  1.6432
  815MOL0     H 9969   8.960  10.774   8.204 -0.2957  0.1595  2.1798
  815MOL0     H 9970   9.201  10.798   8.073 -0.4664  0.8759 -2.2299
  815MOL0     H 9971   9.162  10.657   7.997  1.4892  0.9814  0.9456
  815MOL0     H 9972   8.919  10.793   7.964 -0.5424  2.7177 -0.3667
  815MOL0     H 9973   9.048  10.835   7.848 -1.0530  1.8755 -0.2585
  815MOL0     H 9974   8.944  11.013   7.932  2.1471 -0.3063 -1.8588
  815MOL0     H 9975   9.015  10.982   8.099  2.3608 -0.4717  0.6079
  815MOL0     H 9976   9.179  11.024   7.759  0.1301  1.4609  0.4505
  815MOL0     H 9977   9.423  11.236   7.727 -0.8074 -1.6425 -2.2296
  815MOL0     H 9978   9.534  11.149   7.836 -0.5834  1.3520  0.4721
  815MOL0     H 9979   9.468  10.935   7.719  0.3761  0.6283 -0.0926
  815MOL0     H 9980   9.382  11.032   7.599  0.4029 -1.6754 -0.6044
  815MOL0     H 9981   9.669  11.101   7.645 -0.0405 -0.6400  1.6915
  815MOL0     H 9982   9.568  11.105   7.505 -1.7921 -1.0066 -0.1955
  815MOL0     H 9983   9.575  10.845   7.511 -1.4352  0.5237  1.0805
  815MOL0     H 9984   9.690  10.865   7.640  1.1183  0.8631  0.0626
  815MOL0     H 9985   9.896  10.935   7.677  3.1647  1.2833  0.7678
  815MOL0     H 9986  10.128  10.881   7.671 -0.1799 -0.4768  0.9415
  815MOL0     H 9987  10.420  10.607   7.599 -1.0939  2.0402 -0.2339
  815MOL0     H 9988  10.645  10.528   7.663 -0.3598  1.0757 -0.9616
  815MOL0     H 9989  10.930  10.765   7.529  2.7959 -1.0243 -1.2238
  815MOL0     H 9990  10.996  10.835   7.682 -0.4977 -0.1058  1.3615
  815MOL0     H 9991  11.092  10.588   7.715  1.1925  2.0228  0.7673
  815MOL0     H 9992  11.042  10.599   7.534 -2.0288  0.3501 -0.0432
  815MOL0     H 9993  11.224  10.787   7.514  0.8060 -0.7854  0.5831
  815MOL0     H 9994  11.203  10.812   7.678 -3.5283 -1.0463  1.6728
  815MOL0     H 9995  11.343  10.596   7.531  1.4441 -1.0198  0.4648
  815MOL0     H 9996  11.337  10.577   7.711 -1.6744 -2.6180 -1.3357
  815MOL0     H 9997  11.470  10.782   7.731 -0.6446  1.1013  0.4016
  815MOL0     H 9998  11.475  10.795   7.551 -1.4943 -1.1393  0.2483
  815MOL0     H 9999  11.598  10.572   7.726  0.9597 -0.1947 -1.0611
  815MOL0     H10000  11.564  10.570   7.550  1.2108  1.1452 -0.1810
  815MOL0     H10001  11.739  10.777   7.695 -0.5400 -0.0340  0.9174
  815MOL0     H10002  11.714  10.769   7.529 -0.5461 -0.1555 -1.1067
  815MOL0     H10003  11.853  10.570   7.706  0.7875  1.4134  0.4511
  815MOL0     H10004  11.788  10.524   7.547 -0.5661 -0.2539 -0.1587
  815MOL0     H10005  10.785  10.940   7.676 -0.0208 -0.5446  0.0670
  815MOL0     H10006  10.554  11.007   7.599 -1.3549 -0.0790 -0.6501
  815MOL0     H10007  10.109  10.787   7.246 -1.5021  1.2151 -0.8845
  815MOL0     H10008   9.865  10.881   7.257  0.6943  0.1297 -0.6483
  815MOL0     H10009   8.625  10.400   8.504 -0.6654 -0.2481  1.1550
  815MOL0     H10010   8.428  10.282   8.462  1.4628  0.2830  2.6569
  815MOL0     H10011   8.171  10.023   8.443 -1.2867 -0.3391  0.5580
  815MOL0     H10012   7.959   9.951   8.433 -2.3966 -4.1633  0.5317
  815MOL0     H10013   7.748   9.920   8.364 -0.3586  0.3352  2.1079
  815MOL0     H10014   7.757   9.789   8.474  0.3783  2.0643  0.0124
  815MOL0     H10015   7.580   9.658   8.344 -0.5917  0.6328 -1.3250
  815MOL0     H10016   7.570   9.782   8.230 -0.0507  0.5942  0.3619
  815MOL0     H10017   7.545   9.959   8.408 -0.8458  0.1819  0.4190
  815MOL0     H10018   7.504   9.825   8.515  0.0536 -0.8024 -0.8009
  815MOL0     H10019   7.361   9.904   8.263  3.2593 -0.5114  1.4545
  815MOL0     H10020   7.303   9.773   8.379  0.1472 -0.3607 -0.3598
  815MOL0     H10021   7.153  10.080   8.583 -1.0434 -0.3985  0.3573
  815MOL0     H10022   8.052   9.631   8.183  0.7056 -2.2255  1.8070
  815MOL0     H10023   8.413   9.618   8.255 -0.0726  1.9292  0.2085
  815MOL0     H10024   8.272   9.538   8.197 -0.6633 -0.7098  3.4668
  815MOL0     H10025   8.349   9.666   8.102 -0.7599 -3.4142 -1.9072
  816MOL0     O10026   1.337  11.385   7.108  0.2645  0.0194 -0.2366
  816MOL0     C10027   1.240  11.413   7.180  0.1746 -0.5979  0.0300
  816MOL0     O10028   1.227  11.382   7.311 -0.4583  0.5461  0.0985
  816MOL0     C10029   1.346  11.367   7.386  0.6562 -0.1535  0.6563
  816MOL0     C10030   1.421  11.481   7.419 -0.0046 -0.5697 -0.0389
  816MOL0     C10031   1.542  11.462   7.484 -0.1142 -0.0361 -0.0052
  816MOL0     C10032   1.590  11.336   7.528  1.2645 -0.3878 -0.1936
  816MOL0     O10033   1.712  11.307   7.592  0.1385 -0.3775  0.5347
  816MOL0     C10034   1.822  11.398   7.558  0.0894 -0.7276  0.2005
  816MOL0     C10035   1.927  11.374   7.665 -0.2263 -0.5283 -1.2669
  816MOL0     C10036   2.010  11.247   7.649  0.2124  0.4519 -0.3406
  816MOL0     C10037   2.096  11.203   7.762 -0.5647 -0.3272 -0.1361
  816MOL0     C10038   2.015  11.131   7.877 -0.3576 -0.3186  0.3235
  816MOL0     C10039   2.098  11.007   7.909 -0.2263 -0.3171 -0.4830
  816MOL0     C10040   2.050  10.924   8.022 -0.3485  0.6134  0.0845
  816MOL0     C10041   2.070  10.975   8.166 -0.3277  0.1354 -0.3965
  816MOL0     N10042   2.013  10.867   8.259  0.4084  0.6159 -0.0775
  816MOL0     C10043   2.066  10.740   8.281  1.5308 -0.0550 -0.2186
  816MOL0     C10044   1.994  10.697   8.393 -0.3301  1.0399 -1.1625
  816MOL0     C10045   2.028  10.571   8.473  1.1281  0.4508 -0.4838
  816MOL0     C10046   2.149  10.594   8.567  0.1891  1.3974  0.0616
  816MOL0     C10047   2.191  10.476   8.645 -0.8430  1.1711  0.0463
  816MOL0     C10048   2.326  10.506   8.703  0.9747 -0.6581 -0.3663
  816MOL0     O10049   2.353  10.387   8.780  0.2412 -0.1779  0.3168
  816MOL0     C10050   2.479  10.371   8.833 -1.0749  0.5377 -0.8275
  816MOL0     C10051   2.498  10.248   8.901 -0.0974  0.2244  0.0365
  816MOL0     C10052   2.614  10.209   8.955 -0.4888 -0.1043  0.4492
  816MOL0     C10053   2.725  10.294   8.941 -0.3281  0.2287 -0.9778
  816MOL0     C10054   2.857  10.239   8.968  0.2159 -0.1077  0.6729
  816MOL0     O10055   2.878  10.106   8.941  0.1325  0.7510  0.2746
  816MOL0     C10056   3.006  10.045   8.939 -0.6293  0.2697 -0.1334
  816MOL0     C10057   3.018   9.917   8.880 -0.2593 -0.3607 -0.3863
  816MOL0     C10058   3.145   9.844   8.883 -0.1567  0.5379  0.0465
  816MOL0     C10059   3.265   9.901   8.950 -0.3025 -0.0259  0.5014
  816MOL0     O10060   3.382   9.826   8.945 -0.1000 -0.1308 -0.6253
  816MOL0     C10061   3.374   9.686   8.973  0.1817 -0.0676 -0.5827
  816MOL0     C10062   3.486   9.657   9.080  0.2645  0.3071  0.2180
  816MOL0     C10063   3.452   9.537   9.164 -0.2662 -0.9751 -0.1052
  816MOL0     C10064   3.361   9.574   9.285 -0.2819 -0.0045 -0.1158
  816MOL0     C10065   3.440   9.630   9.400  0.0575 -0.3446 -0.3393
  816MOL0     C10066   3.343   9.644   9.516  0.0166 -0.3420 -0.0948
  816MOL0     C10067   3.236   9.745   9.493 -0.1007 -0.1426 -0.0617
  816MOL0     C10068   3.149   9.786   9.621 -0.6979 -0.7267  0.6894
  816MOL0    Cl10069   3.101   9.652   9.727  0.1583 -0.5218 -0.0220
  816MOL0     C10070   3.243  10.017   9.015 -0.4276 -0.1210  0.0058
  816MOL0     C10071   3.123  10.084   9.008  0.0716  0.8121 -0.1422
  816MOL0     O10072   2.944  10.316   9.003 -0.4599 -0.1207  0.4346
  816MOL0     C10073   2.711  10.419   8.883  0.3943 -0.0040 -0.3320
  816MOL0     C10074   2.589  10.463   8.834  0.9298  0.6834  0.0333
  816MOL0     N10075   1.896  10.792   8.432 -0.4560 -0.4573 -0.1437
  816MOL0     N10076   1.903  10.890   8.341 -0.0628  0.0550  0.2950
  816MOL0     C10077   1.514  11.226   7.504  0.3422  0.5292  0.2201
  816MOL0     C10078   1.394  11.237   7.427  0.1575 -0.2653 -0.9949
  816MOL0     C10079   1.121  11.486   7.115 -0.0474  0.1439 -0.9162
  816MOL0     C10080   1.144  11.522   6.981  0.6759 -0.3907  0.3366
  816MOL0     C10081   1.047  11.591   6.908 -0.9679  0.3214  0.5970
  816MOL0     C10082   0.923  11.632   6.962 -1.1701  0.6118 -0.2018
  816MOL0     O10083   0.825  11.694   6.884  0.2626  0.6152  0.2535
  816MOL0     C10084   0.697  11.703   6.940 -0.3083 -0.0356 -0.7267
  816MOL0     C10085   0.582  11.745   6.843 -0.5319  0.2481  0.4765
  816MOL0     C10086   0.531  11.634   6.751 -0.4055  0.5048  0.1856
  816MOL0     C10087   0.487  11.680   6.604 -0.1375 -0.0254 -0.4507
  816MOL0     C10088   0.348  11.681   6.588  0.6186 -0.4188  0.2758
  816MOL0     C10089   0.236  11.670   6.554  0.5626  0.1384 -0.5922
  816MOL0     C10090   0.905  11.599   7.095 -0.2102  0.5641  0.3587
  816MOL0     C10091   0.993  11.522   7.170  1.0841  0.4994 -0.6578
  816MOL0     C10092   0.939  11.484   7.311 -0.6112  0.3250 -1.3070
  816MOL0     H10093   1.387  11.583   7.401  1.9526  0.2729  0.7370
  816MOL0     H10094   1.596  11.553   7.511 -0.5121  0.0820  0.4116
  816MOL0     H10095   1.858  11.374   7.458 -1.8800  0.3537 -0.8207
  816MOL0     H10096   1.792  11.503   7.558  2.4176 -0.0135 -1.0092
  816MOL0     H10097   1.889  11.376   7.768 -2.1876  2.6140 -1.9024
  816MOL0     H10098   1.988  11.464   7.672  2.4508 -2.3732  1.1093
  816MOL0     H10099   2.073  11.260   7.560  1.1103 -0.3184  0.1573
  816MOL0     H10100   1.942  11.166   7.623 -0.6944  1.5128 -1.3580
  816MOL0     H10101   2.173  11.140   7.718 -0.7837  0.4411 -1.6661
  816MOL0     H10102   2.151  11.286   7.809  0.2008 -1.1685  0.4969
  816MOL0     H10103   2.018  11.186   7.972  1.5224 -2.4768  1.6360
  816MOL0     H10104   1.912  11.115   7.845 -0.7306 -1.6455  2.0325
  816MOL0     H10105   2.112  10.945   7.820 -4.2874 -1.0759 -0.7817
  816MOL0     H10106   2.202  11.038   7.925 -0.6072  2.9603 -3.1364
  816MOL0     H10107   2.083  10.820   8.018  0.3838  0.8628 -0.8145
  816MOL0     H10108   1.944  10.903   8.003 -0.2706  0.2767  0.0127
  816MOL0     H10109   2.179  10.984   8.174 -0.5267  1.9407  1.1199
  816MOL0     H10110   2.014  11.068   8.178 -1.0268 -0.2209 -0.8296
  816MOL0     H10111   2.152  10.686   8.244  0.3981 -0.6413 -2.1467
  816MOL0     H10112   1.937  10.537   8.523  1.4027  1.3487  0.6959
  816MOL0     H10113   2.057  10.493   8.403  0.9211 -0.6966  0.6685
  816MOL0     H10114   2.237  10.630   8.514  1.2176  0.3814  1.0201
  816MOL0     H10115   2.129  10.682   8.629 -0.9069  1.4182 -0.2951
  816MOL0     H10116   2.205  10.389   8.580 -1.7270  1.3743 -0.4325
  816MOL0     H10117   2.109  10.457   8.714 -1.7009  1.4481 -0.8786
  816MOL0     H10118   2.315  10.588   8.775 -1.7041  0.2249 -1.6539
  816MOL0     H10119   2.402  10.519   8.626  1.2909 -0.8771 -0.0955
  816MOL0     H10120   2.420  10.173   8.908  3.3575 -3.6085  0.5734
  816MOL0     H10121   2.619  10.117   9.012  1.8547  0.9213  2.0719
  816MOL0     H10122   2.918   9.897   8.843 -0.5332  0.1690  0.0493
  816MOL0     H10123   3.160   9.752   8.827  4.4993  1.5274 -0.7571
  816MOL0     H10124   3.275   9.654   9.006  0.4833  0.3594  0.7734
  816MOL0     H10125   3.397   9.631   8.881 -0.3677  0.2973 -0.9442
  816MOL0     H10126   3.574   9.630   9.021  0.2470  2.2112 -0.7708
  816MOL0     H10127   3.510   9.740   9.148  0.9634 -0.6439  1.1767
  816MOL0     H10128   3.402   9.459   9.105 -1.4095  0.0753 -0.5499
  816MOL0     H10129   3.543   9.481   9.185  0.9889  1.1467  0.3736
  816MOL0     H10130   3.309   9.489   9.330 -1.1569  2.5648  4.2595
  816MOL0     H10131   3.294   9.653   9.251  0.5554  0.4872 -0.6672
  816MOL0     H10132   3.490   9.726   9.384  0.5445  0.1378  3.3037
  816MOL0     H10133   3.516   9.560   9.436 -1.3684 -0.8073  1.9255
  816MOL0     H10134   3.299   9.546   9.536 -0.8424 -0.0513 -0.5201
  816MOL0     H10135   3.406   9.668   9.603 -0.0168 -1.5371  0.2835
  816MOL0     H10136   3.166   9.700   9.423  0.9262 -0.1327 -1.1269
  816MOL0     H10137   3.282   9.834   9.448  0.4728 -0.4915 -0.1635
  816MOL0     H10138   3.203   9.862   9.679 -0.7834 -0.0073 -0.1471
  816MOL0     H10139   3.056   9.831   9.584  0.2309  0.6641 -0.0356
  816MOL0     H10140   3.315  10.065   9.080  1.7920 -2.4649 -0.5483
  816MOL0     H10141   3.125  10.176   9.066  0.2375  0.5918  0.2063
  816MOL0     H10142   2.793  10.489   8.872  1.3982 -0.9101  1.0552
  816MOL0     H10143   2.588  10.558   8.781 -2.0715  0.8766  0.2597
  816MOL0     H10144   1.539  11.129   7.546 -3.0291  0.2233  1.8901
  816MOL0     H10145   1.334  11.148   7.411 -1.3423  0.1660  1.5794
  816MOL0     H10146   1.235  11.495   6.929  1.7949  3.3415  0.0972
  816MOL0     H10147   1.088  11.604   6.809  1.8976  0.1424  1.6554
  816MOL0     H10148   0.706  11.786   7.011 -0.3653 -0.9427  0.3689
  816MOL0     H10149   0.666  11.614   6.995  0.2177 -0.2002 -0.6892
  816MOL0     H10150   0.613  11.835   6.789  2.8196 -1.5169 -0.8032
  816MOL0     H10151   0.491  11.770   6.898 -1.1519  0.7021 -0.7146
  816MOL0     H10152   0.451  11.576   6.798 -0.7216 -2.1179 -3.2032
  816MOL0     H10153   0.621  11.573   6.746 -2.1187 -2.0398 -1.3172
  816MOL0     H10154   0.529  11.778   6.583  1.1868 -0.4320  0.1870
  816MOL0     H10155   0.531  11.614   6.529 -0.5648 -1.5961  0.6176
  816MOL0     H10156   0.132  11.666   6.526  0.1593  4.5791 -0.4232
  816MOL0     H10157   0.816  11.626   7.151 -1.0873 -1.2256 -0.0992
  816MOL0     H10158   0.970  11.380   7.325  3.9397  1.0122 -4.2142
  816MOL0     H10159   0.972  11.545   7.396  1.8424  0.1862 -2.0826
  816MOL0     H10160   0.830  11.495   7.310 -0.4421  3.8819  0.9462
  817MOL0     O10161   6.304   1.850   5.327  0.9893  0.1863  0.1279
  817MOL0     C10162   6.228   1.942   5.325 -0.0213  0.2491  0.3239
  817MOL0     O10163   6.258   2.069   5.366 -0.6646  0.2470  0.0608
  817MOL0     C10164   6.378   2.139   5.357  0.8956  0.4581 -0.5015
  817MOL0     C10165   6.381   2.276   5.306  0.3448 -0.0684 -0.0274
  817MOL0     C10166   6.496   2.351   5.314 -0.4441  0.9230 -0.7086
  817MOL0     C10167   6.611   2.297   5.370  0.3208 -0.5103  0.4181
  817MOL0     O10168   6.724   2.374   5.384  0.5408 -0.2560  0.1770
  817MOL0     C10169   6.715   2.516   5.397 -0.3551 -0.5996  0.2359
  817MOL0     C10170   6.851   2.574   5.426 -0.0460  1.1782 -0.7160
  817MOL0     C10171   6.899   2.530   5.563 -0.6565  0.1767  0.6456
  817MOL0     C10172   7.042   2.592   5.570 -0.8545 -0.4934  0.6888
  817MOL0     C10173   7.103   2.600   5.707 -0.1106  0.7574  0.4081
  817MOL0     C10174   7.255   2.626   5.706 -0.2129 -0.1365 -0.7126
  817MOL0     C10175   7.320   2.600   5.847 -0.8578  0.3578  0.1278
  817MOL0     C10176   7.477   2.586   5.852  0.1944 -0.8925  0.4627
  817MOL0     N10177   7.535   2.595   5.989  0.5545 -0.3553 -0.2355
  817MOL0     C10178   7.579   2.713   6.032 -0.1752 -0.0224  0.8287
  817MOL0     C10179   7.635   2.678   6.156 -0.6636 -0.6776 -0.2492
  817MOL0     C10180   7.705   2.778   6.255 -0.2169  0.6894  0.4606
  817MOL0     C10181   7.837   2.832   6.199  0.1157 -0.0437  0.4396
  817MOL0     C10182   7.904   2.939   6.292  0.7715  0.4206 -0.5985
  817MOL0     C10183   7.969   2.862   6.416 -0.1574  0.6040 -0.3770
  817MOL0     O10184   8.009   2.955   6.513 -0.2359 -0.0184  0.5350
  817MOL0     C10185   8.135   3.014   6.513  0.2230  0.4128 -0.1755
  817MOL0     C10186   8.172   3.084   6.634 -0.4640 -0.2103  0.1996
  817MOL0     C10187   8.303   3.146   6.642 -0.1897 -0.4001  0.6440
  817MOL0     C10188   8.388   3.150   6.533 -0.1148  0.6120 -0.1384
  817MOL0     C10189   8.521   3.217   6.549  0.3278  0.7428  1.0463
  817MOL0     O10190   8.561   3.275   6.664 -0.0424  1.4167  0.2452
  817MOL0     C10191   8.665   3.364   6.657  0.3743  0.1461 -0.3400
  817MOL0     C10192   8.750   3.371   6.769  0.2442 -0.5039  0.3667
  817MOL0     C10193   8.846   3.468   6.767  0.0710 -0.5390 -0.2607
  817MOL0     C10194   8.857   3.566   6.670  0.5752 -0.7113  0.0104
  817MOL0     O10195   8.959   3.656   6.704 -0.4166  0.1857 -0.7558
  817MOL0     C10196   9.002   3.726   6.587 -0.1273  0.4637 -0.0892
  817MOL0     C10197   9.127   3.821   6.609 -0.6879  0.4655  0.9793
  817MOL0     C10198   9.086   3.930   6.703 -0.2879  0.3513 -0.5560
  817MOL0     C10199   9.179   4.048   6.718 -0.3626 -0.3290  0.6384
  817MOL0     C10200   9.315   4.001   6.788 -0.4076 -0.4084 -0.7788
  817MOL0     C10201   9.423   4.100   6.760 -0.4360  0.4139  0.7914
  817MOL0     C10202   9.553   4.059   6.824  0.0561  0.1426  1.2006
  817MOL0     C10203   9.667   4.145   6.766  0.3287 -0.1191  0.3304
  817MOL0    Cl10204   9.825   4.123   6.846 -0.6146 -0.2859  0.3165
  817MOL0     C10205   8.773   3.555   6.559  0.5345  0.2195  0.9017
  817MOL0     C10206   8.675   3.458   6.553 -0.4172  0.7756 -0.3479
  817MOL0     O10207   8.602   3.194   6.455  0.4014  0.0116  0.5737
  817MOL0     C10208   8.356   3.083   6.410  0.9934 -0.1174 -1.4949
  817MOL0     C10209   8.226   3.029   6.400  0.0836  1.4219  0.6858
  817MOL0     N10210   7.603   2.545   6.180 -0.7269  0.5973 -0.6901
  817MOL0     N10211   7.543   2.496   6.077 -0.0976  0.5006 -0.0740
  817MOL0     C10212   6.614   2.164   5.415 -0.0841 -1.1677  0.1958
  817MOL0     C10213   6.496   2.087   5.414 -0.9026  0.7770  0.0622
  817MOL0     C10214   6.084   1.911   5.302  0.4157  0.4203  0.1348
  817MOL0     C10215   5.993   2.006   5.344  1.0487  0.1299  0.3761
  817MOL0     C10216   5.857   1.973   5.344 -0.1974  0.2425  0.6002
  817MOL0     C10217   5.807   1.847   5.313  0.8639  0.0778 -0.8173
  817MOL0     O10218   5.673   1.805   5.327  0.4058 -0.5084 -0.3720
  817MOL0     C10219   5.571   1.909   5.317 -0.7640 -0.4444 -0.0634
  817MOL0     C10220   5.439   1.848   5.300  0.7415 -0.1353 -0.2230
  817MOL0     C10221   5.322   1.952   5.294  0.2886 -0.5195 -0.4645
  817MOL0     C10222   5.304   2.021   5.158  0.6111  0.8815  0.5028
  817MOL0     C10223   5.269   1.917   5.055  0.7031  0.0272  0.0595
  817MOL0     C10224   5.233   1.843   4.968  0.4472  0.3225  0.0382
  817MOL0     C10225   5.899   1.759   5.262  1.1738 -0.3968 -1.1150
  817MOL0     C10226   6.036   1.792   5.242  0.6994  0.1041  0.5376
  817MOL0     C10227   6.123   1.686   5.182 -0.3269  0.6779  0.2810
  817MOL0     H10228   6.289   2.317   5.265  1.5750 -0.2828 -3.3085
  817MOL0     H10229   6.485   2.455   5.285  0.9704  1.5105  0.7199
  817MOL0     H10230   6.674   2.560   5.306  0.5313 -1.8665 -0.8158
  817MOL0     H10231   6.652   2.532   5.485 -0.6768 -3.7755  0.7070
  817MOL0     H10232   6.834   2.682   5.429 -2.1160  0.8643  0.6024
  817MOL0     H10233   6.929   2.556   5.351  2.1074 -1.0357  1.8674
  817MOL0     H10234   6.900   2.421   5.574  2.6856  0.1247  0.9003
  817MOL0     H10235   6.833   2.570   5.641 -1.1314 -0.6859  0.6990
  817MOL0     H10236   7.116   2.538   5.509  0.2070  1.9511 -0.3397
  817MOL0     H10237   7.044   2.696   5.535  1.3015 -0.3514  1.0562
  817MOL0     H10238   7.050   2.683   5.754 -2.5781  0.2772 -1.2770
  817MOL0     H10239   7.086   2.505   5.758  1.0290 -0.3087 -1.0900
  817MOL0     H10240   7.299   2.553   5.637  1.8885 -0.8446  1.2810
  817MOL0     H10241   7.281   2.726   5.668 -1.1186  0.4056  0.0480
  817MOL0     H10242   7.276   2.519   5.906  1.6267 -0.1413  1.4228
  817MOL0     H10243   7.283   2.682   5.910  0.9354  1.5134 -0.2836
  817MOL0     H10244   7.504   2.488   5.813  1.4993 -1.2304  2.0776
  817MOL0     H10245   7.522   2.670   5.798 -1.1543 -0.1274  0.4977
  817MOL0     H10246   7.588   2.810   5.986 -2.5927 -0.1705 -0.1338
  817MOL0     H10247   7.629   2.856   6.266 -2.0698 -1.0811  0.8382
  817MOL0     H10248   7.726   2.730   6.351 -2.9996  2.0922  1.9082
  817MOL0     H10249   7.920   2.761   6.192  0.1526  0.1217 -1.8744
  817MOL0     H10250   7.815   2.862   6.096  0.5120 -3.4495 -0.7698
  817MOL0     H10251   7.828   3.013   6.321  0.5402  0.0037 -0.1232
  817MOL0     H10252   7.978   2.983   6.225 -1.0477 -0.7443 -3.5897
  817MOL0     H10253   8.058   2.805   6.387 -0.9032 -2.0829  2.0814
  817MOL0     H10254   7.898   2.793   6.463 -0.3680  2.8645  2.9514
  817MOL0     H10255   8.104   3.085   6.718  1.6982 -2.4440  2.1242
  817MOL0     H10256   8.322   3.201   6.733 -2.6679  0.5620  0.6682
  817MOL0     H10257   8.741   3.302   6.853  1.3087  1.5254  2.2517
  817MOL0     H10258   8.918   3.475   6.848  0.3734 -2.2083 -0.3516
  817MOL0     H10259   9.024   3.663   6.501  1.2570  1.9532 -0.8974
  817MOL0     H10260   8.917   3.786   6.555 -1.8811 -1.9870 -0.2723
  817MOL0     H10261   9.214   3.763   6.641  0.8825  0.8792 -2.1220
  817MOL0     H10262   9.166   3.860   6.515  1.5989  1.3709  2.2035
  817MOL0     H10263   8.988   3.968   6.675 -2.0871 -1.0293  3.1774
  817MOL0     H10264   9.075   3.880   6.800 -2.9928  1.4518 -0.2291
  817MOL0     H10265   9.120   4.118   6.776 -2.3249 -1.3159 -0.0732
  817MOL0     H10266   9.201   4.080   6.616  0.8044 -3.4181 -0.2122
  817MOL0     H10267   9.345   3.904   6.745 -1.8474 -0.2392 -2.2779
  817MOL0     H10268   9.300   3.997   6.896  1.3524  2.7945 -0.2880
  817MOL0     H10269   9.431   4.127   6.655 -1.9941  0.6938  0.7269
  817MOL0     H10270   9.391   4.191   6.812  0.3345 -0.4290  2.8654
  817MOL0     H10271   9.565   3.952   6.807 -1.8838  0.5137 -5.0499
  817MOL0     H10272   9.539   4.083   6.930 -0.5831 -4.1719  2.2675
  817MOL0     H10273   9.692   4.131   6.661  2.3319 -1.6630  0.9472
  817MOL0     H10274   9.630   4.246   6.781  0.3568  0.6157 -3.5968
  817MOL0     H10275   8.780   3.622   6.474  0.8939 -0.1721  0.6162
  817MOL0     H10276   8.608   3.439   6.470  0.2379  0.8732 -0.9036
  817MOL0     H10277   8.428   3.076   6.329  3.3214 -3.2754  0.5997
  817MOL0     H10278   8.204   2.991   6.301  0.0882  0.5488  1.0118
  817MOL0     H10279   6.712   2.143   5.455  0.6106  0.0882 -0.7848
  817MOL0     H10280   6.494   1.989   5.461  5.0535 -0.3919 -1.4159
  817MOL0     H10281   6.024   2.109   5.357  0.6713  0.3286 -0.2231
  817MOL0     H10282   5.782   2.045   5.375  1.3979  1.3691  2.0069
  817MOL0     H10283   5.596   1.978   5.236 -4.4913  0.7820 -0.3364
  817MOL0     H10284   5.564   1.966   5.410 -2.0192  0.0806 -0.4554
  817MOL0     H10285   5.430   1.788   5.391 -0.6268  0.3050 -0.0437
  817MOL0     H10286   5.421   1.780   5.217  1.6041  0.4633 -0.9174
  817MOL0     H10287   5.325   2.025   5.376 -3.3783  0.3776 -0.9288
  817MOL0     H10288   5.232   1.893   5.315  1.0456 -0.9688  1.8609
  817MOL0     H10289   5.225   2.094   5.177 -1.0889 -1.0630  1.2783
  817MOL0     H10290   5.394   2.073   5.125  1.8137 -2.0412 -1.2820
  817MOL0     H10291   5.183   1.779   4.898  1.7569 -0.6927 -0.0038
  817MOL0     H10292   5.866   1.669   5.211  0.9833 -2.8332  2.8570
  817MOL0     H10293   6.154   1.621   5.264 -0.1552 -0.8393 -0.9480
  817MOL0     H10294   6.061   1.627   5.114 -1.8837  2.0294  0.4543
  817MOL0     H10295   6.217   1.727   5.143  0.9147  0.5918  2.9922
  818MOL0     O10296  10.314   4.223   8.936 -0.0319 -0.5895 -0.3271
  818MOL0     C10297  10.263   4.333   8.912  0.1065 -0.6679 -0.4560
  818MOL0     O10298  10.149   4.358   8.835 -0.2816 -0.4570 -0.5487
  818MOL0     C10299  10.059   4.262   8.801 -0.0237 -0.0752 -0.5933
  818MOL0     C10300   9.935   4.260   8.864 -0.9121 -0.2113 -0.0606
  818MOL0     C10301   9.853   4.148   8.838  0.7451  0.7884  1.4187
  818MOL0     C10302   9.886   4.052   8.737 -0.9007 -0.4842  0.4918
  818MOL0     O10303   9.801   3.955   8.699  0.2117  0.7229 -0.6768
  818MOL0     C10304   9.737   3.986   8.571  0.3196  0.1501  0.0606
  818MOL0     C10305   9.614   3.899   8.553  0.8246 -0.3521 -1.2753
  818MOL0     C10306   9.631   3.743   8.543  0.6916 -0.3031 -0.2477
  818MOL0     C10307   9.496   3.678   8.578 -0.3711 -0.9255  0.3736
  818MOL0     C10308   9.382   3.716   8.483 -0.1167 -0.3890 -0.1188
  818MOL0     C10309   9.259   3.630   8.513  0.8007  1.2146 -0.8233
  818MOL0     C10310   9.131   3.705   8.534  0.9836  0.1223  0.1885
  818MOL0     C10311   9.012   3.612   8.559 -1.1528 -1.1224  0.1025
  818MOL0     N10312   8.976   3.541   8.433 -0.1523  0.9870 -0.6191
  818MOL0     C10313   8.876   3.558   8.343  0.4401  0.5744  0.7094
  818MOL0     C10314   8.889   3.444   8.259  0.3120 -0.4327  0.1799
  818MOL0     C10315   8.812   3.411   8.129 -1.4716  0.0248 -0.0690
  818MOL0     C10316   8.678   3.347   8.155  0.4138  0.0096  0.2377
  818MOL0     C10317   8.609   3.313   8.024  0.1922 -0.4080  0.1160
  818MOL0     C10318   8.462   3.259   8.044 -0.1362 -0.2829 -0.0897
  818MOL0     O10319   8.465   3.117   8.035  0.2366 -0.8351  0.5614
  818MOL0     C10320   8.340   3.063   7.987 -0.6252  0.3237 -0.4262
  818MOL0     C10321   8.345   2.959   7.889 -0.2772 -0.1873  0.5306
  818MOL0     C10322   8.228   2.904   7.838 -0.9658  0.2913 -0.0757
  818MOL0     C10323   8.103   2.925   7.898  0.2570  0.1072 -0.1516
  818MOL0     C10324   7.992   2.839   7.841  0.1844  0.4780  0.0324
  818MOL0     O10325   8.020   2.729   7.767  0.2240 -0.2446 -0.7055
  818MOL0     C10326   7.935   2.699   7.668 -0.2584 -0.3296 -0.4527
  818MOL0     C10327   7.854   2.591   7.670  0.3823 -0.3329  0.5920
  818MOL0     C10328   7.767   2.570   7.551 -1.0169  0.5410 -0.2715
  818MOL0     C10329   7.763   2.656   7.447 -0.1422 -0.3172 -0.3533
  818MOL0     O10330   7.688   2.649   7.339  0.0527 -0.2048  0.8117
  818MOL0     C10331   7.729   2.569   7.229 -0.5924  0.2331 -0.9314
  818MOL0     C10332   7.621   2.580   7.125  0.1683 -0.5783  0.3445
  818MOL0     C10333   7.497   2.490   7.159 -0.1288  0.3336  0.5352
  818MOL0     C10334   7.381   2.483   7.068 -0.6234 -0.6965  0.9442
  818MOL0     C10335   7.265   2.379   7.100 -0.7043 -0.3302 -0.1107
  818MOL0     C10336   7.132   2.421   7.048  0.5737 -0.0628  0.5282
  818MOL0     C10337   7.126   2.412   6.890  0.7996  0.1088 -0.0404
  818MOL0     C10338   6.984   2.385   6.837 -0.4338  1.0037  0.9866
  818MOL0    Cl10339   6.983   2.380   6.655 -0.2270  0.5153 -0.3521
  818MOL0     C10340   7.848   2.765   7.452 -0.0869  0.6044 -0.1994
  818MOL0     C10341   7.949   2.782   7.547  0.8596 -0.4439  0.0442
  818MOL0     O10342   7.881   2.870   7.881  1.0703  0.3238 -0.5685
  818MOL0     C10343   8.098   3.011   8.012  0.3454  0.6871 -0.4359
  818MOL0     C10344   8.215   3.087   8.046  0.7040 -0.8228  1.0496
  818MOL0     N10345   8.961   3.352   8.330 -0.0587 -0.2111 -0.4785
  818MOL0     N10346   9.022   3.407   8.427 -0.4929 -0.1511 -1.0490
  818MOL0     C10347  10.015   4.048   8.680 -0.3458 -0.5258 -0.6044
  818MOL0     C10348  10.101   4.160   8.714 -0.4138  0.4706 -0.3391
  818MOL0     C10349  10.325   4.453   8.968 -0.1208  0.3996 -0.2722
  818MOL0     C10350  10.467   4.462   8.960  0.5468  0.2157  0.1820
  818MOL0     C10351  10.530   4.571   9.008  0.2437 -0.5299 -0.3046
  818MOL0     C10352  10.463   4.686   9.058 -0.3296  0.4627 -0.1529
  818MOL0     O10353  10.527   4.787   9.121 -0.0065  1.2117  0.2147
  818MOL0     C10354  10.654   4.767   9.172 -0.6720 -0.0168 -0.6591
  818MOL0     C10355  10.686   4.892   9.248  0.1972  1.3767 -1.0307
  818MOL0     C10356  10.827   4.887   9.288 -0.6230  0.5492  0.3331
  818MOL0     C10357  10.882   5.024   9.330  0.7659 -0.9085  1.0483
  818MOL0     C10358  11.021   5.028   9.332 -0.7003  0.0128  0.3951
  818MOL0     C10359  11.138   5.046   9.326  1.0056 -0.2884  0.4017
  818MOL0     C10360  10.324   4.684   9.072 -0.1831  0.2249  0.5810
  818MOL0     C10361  10.260   4.568   9.034  0.9959  0.6478  0.0510
  818MOL0     C10362  10.110   4.558   9.058  0.5726  0.4485 -0.4584
  818MOL0     H10363   9.896   4.326   8.941 -1.5165  1.0726 -1.4412
  818MOL0     H10364   9.749   4.135   8.865  0.6887 -3.8909 -0.1491
  818MOL0     H10365   9.713   4.092   8.553  2.3519  1.4301  3.7678
  818MOL0     H10366   9.813   3.960   8.496  1.5180  0.7634  1.0290
  818MOL0     H10367   9.556   3.937   8.468 -0.7479  3.8934  1.4060
  818MOL0     H10368   9.553   3.918   8.642 -0.3479 -2.0488 -1.6649
  818MOL0     H10369   9.696   3.698   8.618 -0.5209 -2.8080 -0.5771
  818MOL0     H10370   9.653   3.718   8.439  0.1665 -1.1086 -0.1773
  818MOL0     H10371   9.518   3.571   8.575  3.9351 -0.2406 -0.1132
  818MOL0     H10372   9.464   3.700   8.681 -1.2352 -3.3594  0.6885
  818MOL0     H10373   9.360   3.819   8.509  1.8260 -0.3797  1.7987
  818MOL0     H10374   9.413   3.709   8.379  0.9543  1.1779  0.0604
  818MOL0     H10375   9.251   3.555   8.434  3.4411  1.3473 -1.3036
  818MOL0     H10376   9.275   3.565   8.600 -0.5576  0.5913 -1.0038
  818MOL0     H10377   9.109   3.765   8.445 -0.7295 -1.6929 -0.6948
  818MOL0     H10378   9.137   3.781   8.613 -2.0535  0.9671 -0.2668
  818MOL0     H10379   9.030   3.543   8.642 -0.3376 -3.7299 -2.0947
  818MOL0     H10380   8.928   3.676   8.589 -2.1284 -1.3442 -2.0096
  818MOL0     H10381   8.827   3.652   8.318  1.1326  0.7159 -0.1979
  818MOL0     H10382   8.802   3.504   8.072  0.5872 -0.8608 -2.0652
  818MOL0     H10383   8.875   3.350   8.064  0.3569  0.9750  0.7286
  818MOL0     H10384   8.689   3.260   8.220  1.2513 -0.3018 -0.2985
  818MOL0     H10385   8.620   3.427   8.203  0.3937  1.1019 -1.5063
  818MOL0     H10386   8.655   3.233   7.965 -0.4343 -0.5202 -0.2294
  818MOL0     H10387   8.604   3.405   7.965 -1.1917  1.1701  2.5202
  818MOL0     H10388   8.395   3.300   7.968 -0.4574  1.0334  0.8577
  818MOL0     H10389   8.425   3.295   8.140 -0.3105  2.1059 -0.9765
  818MOL0     H10390   8.441   2.932   7.845 -0.1898  2.0123 -0.7701
  818MOL0     H10391   8.251   2.828   7.765 -2.0572  0.3666 -0.5168
  818MOL0     H10392   7.859   2.533   7.762 -0.6935  1.5221  1.9044
  818MOL0     H10393   7.713   2.476   7.555 -0.4558  0.2451  0.8926
  818MOL0     H10394   7.825   2.601   7.190  2.0111 -3.3527  1.8566
  818MOL0     H10395   7.741   2.462   7.249 -0.4006  0.5988  1.1451
  818MOL0     H10396   7.585   2.683   7.122 -2.7668 -1.5063 -1.2277
  818MOL0     H10397   7.674   2.560   7.032  0.4457 -0.4256  0.4684
  818MOL0     H10398   7.540   2.390   7.175  0.5988  0.7489  1.2298
  818MOL0     H10399   7.455   2.529   7.251 -1.9328 -0.9733  0.3230
  818MOL0     H10400   7.420   2.458   6.969 -0.6568 -1.6288  1.1598
  818MOL0     H10401   7.339   2.584   7.074 -0.2112 -0.4386 -0.1972
  818MOL0     H10402   7.253   2.380   7.208  1.4128  1.9368  0.2041
  818MOL0     H10403   7.299   2.283   7.060  0.0701 -0.3727  0.6229
  818MOL0     H10404   7.047   2.370   7.094 -2.0187  1.8371 -1.7826
  818MOL0     H10405   7.109   2.524   7.077  2.1662 -0.0352  1.8103
  818MOL0     H10406   7.191   2.330   6.858  1.5635  0.3670  0.8152
  818MOL0     H10407   7.157   2.507   6.845  0.5490 -1.2322 -3.3678
  818MOL0     H10408   6.956   2.283   6.863 -2.0971  1.3080  0.5197
  818MOL0     H10409   6.915   2.462   6.873  0.5702  1.3801  2.1739
  818MOL0     H10410   7.843   2.837   7.371 -2.2478  2.2689  1.2924
  818MOL0     H10411   8.027   2.858   7.543  0.8928 -0.4972 -2.7564
  818MOL0     H10412   8.005   3.023   8.067 -0.4642 -1.4733 -1.2304
  818MOL0     H10413   8.194   3.158   8.126 -3.0577 -1.6587  0.9976
  818MOL0     H10414  10.050   3.979   8.604 -3.5915  1.1984 -3.9847
  818MOL0     H10415  10.199   4.173   8.671  0.7224 -1.4184  1.5045
  818MOL0     H10416  10.520   4.374   8.923 -0.1173 -0.7336  1.4164
  818MOL0     H10417  10.638   4.564   9.011  0.5957  2.2162 -2.6140
  818MOL0     H10418  10.715   4.754   9.083 -0.9671 -2.2310 -0.6018
  818MOL0     H10419  10.660   4.678   9.235  1.5886  0.8656  0.4786
  818MOL0     H10420  10.627   4.895   9.340  0.6596 -1.6891 -0.5185
  818MOL0     H10421  10.669   4.985   9.193 -3.0348  0.9589 -0.9463
  818MOL0     H10422  10.893   4.843   9.213 -0.1427 -0.9383  1.5618
  818MOL0     H10423  10.847   4.816   9.369 -0.6367 -1.5258 -1.4057
  818MOL0     H10424  10.847   5.090   9.249 -1.3721 -2.6284  0.4869
  818MOL0     H10425  10.843   5.062   9.425  1.5522  2.3098  0.2050
  818MOL0     H10426  11.244   5.065   9.324  1.2554 -1.6574 -0.5941
  818MOL0     H10427  10.274   4.772   9.109 -2.0306 -0.3772 -0.3143
  818MOL0     H10428  10.081   4.457   9.088 -0.7135  0.5581 -1.2376
  818MOL0     H10429  10.083   4.613   9.149  0.3894  0.1939 -0.3571
  818MOL0     H10430  10.038   4.594   8.984 -2.0679  0.5557  1.9583
  819MOL0     O10431   7.563   2.738   2.879  0.1229  0.1408 -0.3324
  819MOL0     C10432   7.522   2.836   2.954 -0.8956 -0.5581  0.5262
  819MOL0     O10433   7.594   2.877   3.062 -0.3926  0.6848  0.6668
  819MOL0     C10434   7.714   2.822   3.090 -0.1828 -0.5881 -0.7011
  819MOL0     C10435   7.755   2.823   3.225 -0.2495  0.8757 -0.0584
  819MOL0     C10436   7.882   2.796   3.270  0.1600 -0.3633 -0.9989
  819MOL0     C10437   7.984   2.753   3.185 -0.1012  0.5263  1.4990
  819MOL0     O10438   8.113   2.717   3.214  0.3753  0.4476 -0.7083
  819MOL0     C10439   8.122   2.683   3.353  0.1755  0.0742  0.1344
  819MOL0     C10440   8.267   2.633   3.373 -0.0866  0.0540 -0.4265
  819MOL0     C10441   8.289   2.492   3.317  0.9928 -0.5834  0.4748
  819MOL0     C10442   8.427   2.435   3.333 -0.3001 -0.3280 -0.5859
  819MOL0     C10443   8.442   2.302   3.256  1.4038 -0.2533  0.6078
  819MOL0     C10444   8.576   2.243   3.285 -0.7455  0.5117  0.0738
  819MOL0     C10445   8.613   2.182   3.421 -0.2718 -0.0194 -0.5549
  819MOL0     C10446   8.754   2.125   3.398  0.8344  0.4726  0.2243
  819MOL0     N10447   8.795   2.042   3.513  0.1082  0.6490 -0.4894
  819MOL0     C10448   8.818   1.902   3.507  0.0015  0.0851 -0.1862
  819MOL0     C10449   8.847   1.866   3.642 -0.4183 -0.4678  0.8577
  819MOL0     C10450   8.892   1.737   3.710  0.0540  0.1152  0.2849
  819MOL0     C10451   9.046   1.742   3.713  0.6106 -0.0263  0.2277
  819MOL0     C10452   9.120   1.612   3.724  0.2473  0.3669 -0.9223
  819MOL0     C10453   9.116   1.553   3.868  0.3125  0.0570  0.1236
  819MOL0     O10454   9.197   1.431   3.861  0.3808 -0.0856 -0.1984
  819MOL0     C10455   9.270   1.407   3.969 -0.5098 -0.0223 -0.0227
  819MOL0     C10456   9.227   1.424   4.100  0.9937 -0.6052  0.5181
  819MOL0     C10457   9.302   1.370   4.208  0.7441 -0.1412  0.8460
  819MOL0     C10458   9.434   1.328   4.186 -0.5508  0.6408 -0.2119
  819MOL0     C10459   9.528   1.305   4.304 -0.3870 -0.3637  0.6640
  819MOL0     O10460   9.660   1.280   4.274 -0.2828  0.2013  0.7470
  819MOL0     C10461   9.759   1.267   4.376  0.1511  0.1099  0.0631
  819MOL0     C10462   9.740   1.277   4.516  0.1504  0.6910 -0.2845
  819MOL0     C10463   9.848   1.261   4.600  0.3420 -0.2337  0.2786
  819MOL0     C10464   9.981   1.257   4.546  0.0575 -0.3552  0.1409
  819MOL0     O10465  10.102   1.255   4.618  0.4039 -0.6724  0.6140
  819MOL0     C10466  10.101   1.202   4.745  0.4303 -0.2412 -0.8671
  819MOL0     C10467  10.097   1.053   4.747  0.7674  1.9790  0.1680
  819MOL0     C10468  10.231   0.993   4.698  0.1669  0.6742 -0.8550
  819MOL0     C10469  10.243   0.841   4.705 -0.4368 -0.1797 -0.2402
  819MOL0     C10470  10.384   0.794   4.686  0.3753  0.9324  0.4252
  819MOL0     C10471  10.463   0.796   4.816 -0.2188  0.2153  0.3821
  819MOL0     C10472  10.607   0.755   4.783  1.1603 -0.4813 -0.1566
  819MOL0     C10473  10.703   0.782   4.888 -0.1801  0.3804  0.1753
  819MOL0    Cl10474  10.737   0.957   4.849 -0.2189  0.6356 -0.0194
  819MOL0     C10475   9.997   1.255   4.409  0.2005 -0.5804  0.9294
  819MOL0     C10476   9.889   1.263   4.322 -0.0845 -0.2816  0.5805
  819MOL0     O10477   9.473   1.315   4.407  0.3223 -0.4785  0.4914
  819MOL0     C10478   9.485   1.333   4.058  0.0256 -0.0864  0.4604
  819MOL0     C10479   9.405   1.361   3.955 -0.1914  0.1287  0.3574
  819MOL0     N10480   8.844   1.988   3.707 -0.4899 -0.6558  0.1810
  819MOL0     N10481   8.829   2.090   3.636 -0.5794  0.3058 -0.0387
  819MOL0     C10482   7.953   2.767   3.048 -0.5826 -0.8389  0.0326
  819MOL0     C10483   7.822   2.799   2.999  0.2238 -0.1170  0.3619
  819MOL0     C10484   7.388   2.895   2.938 -0.3353 -0.5752 -0.0654
  819MOL0     C10485   7.307   2.834   2.843  0.2883  0.3293 -0.4213
  819MOL0     C10486   7.178   2.887   2.815 -1.3732  0.2635 -0.1272
  819MOL0     C10487   7.145   3.014   2.851 -0.6200 -0.8706  1.0113
  819MOL0     O10488   7.043   3.078   2.795  0.3178  0.2266  0.3397
  819MOL0     C10489   6.966   3.013   2.696 -0.1620  0.5250 -0.1654
  819MOL0     C10490   6.836   3.087   2.685 -0.4639  0.9851  0.7636
  819MOL0     C10491   6.854   3.229   2.638 -0.6775  0.4154 -0.4319
  819MOL0     C10492   6.738   3.266   2.549  0.4302 -0.2389  0.0520
  819MOL0     C10493   6.608   3.244   2.609 -0.1040 -0.5264 -0.4205
  819MOL0     C10494   6.499   3.206   2.658 -0.4218 -0.1381  0.3997
  819MOL0     C10495   7.227   3.077   2.950  0.5442 -0.5345  1.1640
  819MOL0     C10496   7.342   3.016   2.997 -0.0829  0.2136  0.3597
  819MOL0     C10497   7.421   3.102   3.102  1.3237 -0.0751  0.0357
  819MOL0     H10498   7.687   2.824   3.309  2.5396  0.5290  2.3481
  819MOL0     H10499   7.886   2.815   3.377 -1.3011 -0.8747 -0.8231
  819MOL0     H10500   8.101   2.767   3.420 -1.2091  0.3597 -0.6310
  819MOL0     H10501   8.045   2.611   3.383 -1.8181  0.8501 -2.7216
  819MOL0     H10502   8.292   2.627   3.479 -0.6636  1.3664 -0.1859
  819MOL0     H10503   8.338   2.709   3.338  4.2992 -2.7361  1.6306
  819MOL0     H10504   8.276   2.500   3.209  1.6142 -3.4628  0.0968
  819MOL0     H10505   8.216   2.425   3.364 -0.0291 -0.2943 -0.6431
  819MOL0     H10506   8.507   2.501   3.300  0.2345 -0.7220 -0.0776
  819MOL0     H10507   8.445   2.414   3.438  0.8361 -3.0208 -1.2472
  819MOL0     H10508   8.361   2.232   3.281 -0.2733  1.7439  0.9989
  819MOL0     H10509   8.437   2.326   3.150  1.6522  1.6504  0.9977
  819MOL0     H10510   8.591   2.163   3.212 -1.7342 -0.2865  0.7119
  819MOL0     H10511   8.649   2.317   3.250 -1.6688  0.8975 -1.0955
  819MOL0     H10512   8.545   2.105   3.458 -2.0363  1.9642  0.5312
  819MOL0     H10513   8.625   2.258   3.499 -2.2429  0.4390 -0.6407
  819MOL0     H10514   8.760   2.049   3.319  1.5739  0.6015  0.1482
  819MOL0     H10515   8.829   2.202   3.379  0.9828 -0.0775 -1.5849
  819MOL0     H10516   8.814   1.833   3.424  3.6614  1.4559 -1.6877
  819MOL0     H10517   8.872   1.723   3.817 -1.9244  1.4566  0.1353
  819MOL0     H10518   8.851   1.654   3.653 -1.7289  1.0855  0.0705
  819MOL0     H10519   9.079   1.786   3.618  0.5355 -3.4627 -1.5779
  819MOL0     H10520   9.076   1.818   3.785  2.8516 -1.5803  1.0548
  819MOL0     H10521   9.227   1.616   3.701  0.5551 -0.7416  0.2429
  819MOL0     H10522   9.085   1.535   3.655 -1.9157 -0.3314  0.8282
  819MOL0     H10523   9.016   1.530   3.905  0.8345 -1.9973  0.3747
  819MOL0     H10524   9.167   1.629   3.928  2.9121 -0.0751 -1.7314
  819MOL0     H10525   9.124   1.454   4.116  0.4668 -2.5539  1.0517
  819MOL0     H10526   9.263   1.361   4.309 -2.1303 -0.0815 -0.1556
  819MOL0     H10527   9.640   1.288   4.557 -0.4405 -3.5773 -0.1593
  819MOL0     H10528   9.819   1.248   4.704  2.8415 -1.3063  0.9270
  819MOL0     H10529  10.193   1.235   4.795 -0.9135  1.1097  0.8309
  819MOL0     H10530  10.025   1.249   4.808  2.4910  1.0746  0.7880
  819MOL0     H10531  10.078   0.993   4.836 -2.5614 -1.1570 -2.3361
  819MOL0     H10532  10.019   1.019   4.677  1.0049  1.4635  0.1533
  819MOL0     H10533  10.254   1.027   4.597  0.5172  1.8571 -0.3951
  819MOL0     H10534  10.301   1.027   4.775  1.3474 -1.1101 -1.0693
  819MOL0     H10535  10.183   0.804   4.621  0.3048 -0.5234 -0.6370
  819MOL0     H10536  10.205   0.792   4.795 -0.3431  3.6825  2.0821
  819MOL0     H10537  10.433   0.855   4.610  1.8148 -0.5950  0.0735
  819MOL0     H10538  10.374   0.694   4.644  1.4474  0.6769  0.7403
  819MOL0     H10539  10.457   0.896   4.860  2.6183  0.6503 -0.0584
  819MOL0     H10540  10.418   0.728   4.888 -0.1183  2.3752  2.6044
  819MOL0     H10541  10.641   0.786   4.684  0.6017  1.1825  0.1375
  819MOL0     H10542  10.614   0.646   4.780  0.6319 -0.5743  1.2496
  819MOL0     H10543  10.673   0.771   4.992  0.2128  1.3361  0.4033
  819MOL0     H10544  10.799   0.730   4.880 -1.1025 -1.1464 -1.5483
  819MOL0     H10545  10.100   1.266   4.375 -0.8427  0.0981 -2.3592
  819MOL0     H10546   9.919   1.269   4.218  1.0673 -1.2093  0.8321
  819MOL0     H10547   9.588   1.304   4.037 -0.8218 -3.6724  0.6134
  819MOL0     H10548   9.457   1.356   3.860  2.4525  3.8165  1.3722
  819MOL0     H10549   8.026   2.732   2.976 -0.9858  0.7359 -1.1858
  819MOL0     H10550   7.797   2.826   2.897 -0.2264  0.8884  0.7254
  819MOL0     H10551   7.355   2.753   2.789  3.7395  0.1960  2.4899
  819MOL0     H10552   7.128   2.832   2.736  0.3115  0.7806 -1.6075
  819MOL0     H10553   6.940   2.912   2.729  1.2404 -0.7991 -2.7884
  819MOL0     H10554   7.013   3.001   2.598  1.0014 -0.3817  0.4745
  819MOL0     H10555   6.793   3.099   2.785  0.6184 -1.2212  1.5753
  819MOL0     H10556   6.760   3.024   2.638  0.1113 -1.0359  2.3887
  819MOL0     H10557   6.944   3.228   2.576  0.1504 -3.2507  0.5873
  819MOL0     H10558   6.886   3.295   2.719  0.9844 -1.7397  0.7792
  819MOL0     H10559   6.738   3.373   2.525 -1.9322 -0.2717 -0.2626
  819MOL0     H10560   6.737   3.225   2.448 -5.2771 -1.5596  0.3320
  819MOL0     H10561   6.407   3.159   2.688  0.3810 -0.4936  2.4528
  819MOL0     H10562   7.204   3.179   2.979  3.0485  0.0863  1.2498
  819MOL0     H10563   7.483   3.044   3.170 -1.1163 -2.0556  0.6944
  819MOL0     H10564   7.502   3.159   3.056  2.7865 -1.0612  1.2972
  819MOL0     H10565   7.359   3.170   3.162  0.6618 -2.7936  2.7018
  820MOL0     O10566   3.147   0.353   5.510 -0.3054  0.1634 -0.0363
  820MOL0     C10567   3.064   0.293   5.585 -0.0209 -0.7978  0.3221
  820MOL0     O10568   3.064   0.284   5.717 -0.8516 -0.4705  0.6860
  820MOL0     C10569   3.156   0.334   5.802  0.3782 -0.9576  0.0976
  820MOL0     C10570   3.156   0.291   5.935  0.0776 -0.1225  0.7610
  820MOL0     C10571   3.265   0.324   6.021 -0.2507  0.2856  0.0571
  820MOL0     C10572   3.370   0.404   5.987  0.1706 -0.4994 -0.2176
  820MOL0     O10573   3.463   0.457   6.083 -0.1924 -0.7366  0.2573
  820MOL0     C10574   3.537   0.369   6.168 -0.3790  0.1854 -0.2404
  820MOL0     C10575   3.626   0.459   6.253 -1.0191 -0.7747 -0.4158
  820MOL0     C10576   3.743   0.381   6.317 -0.1798 -0.7277  0.1218
  820MOL0     C10577   3.789   0.474   6.433 -0.6496  0.1395  0.5893
  820MOL0     C10578   3.930   0.432   6.474 -0.2469  0.7181  1.6816
  820MOL0     C10579   3.985   0.522   6.583  0.8009  0.4865  0.6163
  820MOL0     C10580   4.142   0.507   6.591  0.2152  0.4540 -0.2920
  820MOL0     C10581   4.182   0.635   6.676  0.3417 -0.0664  0.0356
  820MOL0     N10582   4.310   0.638   6.741  0.4186  0.2929  0.6592
  820MOL0     C10583   4.432   0.609   6.691 -0.5595 -0.1176 -0.2904
  820MOL0     C10584   4.520   0.641   6.793  0.1121  0.1063  0.5356
  820MOL0     C10585   4.670   0.620   6.785 -0.1816 -0.6137 -0.2421
  820MOL0     C10586   4.712   0.493   6.708 -0.0718 -0.3827 -0.6756
  820MOL0     C10587   4.860   0.454   6.707 -0.2174 -0.2195  0.2119
  820MOL0     C10588   4.944   0.500   6.824 -0.3651 -0.5227  0.2488
  820MOL0     O10589   5.066   0.426   6.805  0.1708  0.0595 -0.1353
  820MOL0     C10590   5.187   0.483   6.845  0.5671 -0.5556  0.4369
  820MOL0     C10591   5.300   0.415   6.793  0.1712  0.6829 -0.2342
  820MOL0     C10592   5.427   0.453   6.806  0.1542  0.5567  0.5803
  820MOL0     C10593   5.453   0.568   6.889  0.7943 -0.1923  0.5744
  820MOL0     C10594   5.589   0.609   6.914  0.3112  0.8610  0.2713
  820MOL0     O10595   5.679   0.515   6.888 -0.2584  0.3109  0.1614
  820MOL0     C10596   5.813   0.546   6.886  1.1248 -0.9674  0.0260
  820MOL0     C10597   5.873   0.650   6.805  0.0943  0.2837  1.0622
  820MOL0     C10598   6.012   0.675   6.813  0.8993 -0.5614 -0.7328
  820MOL0     C10599   6.084   0.610   6.907  0.2373 -0.0810 -0.1236
  820MOL0     O10600   6.212   0.657   6.915 -0.0828  0.4874 -0.5921
  820MOL0     C10601   6.282   0.624   7.039  0.1834  0.4700  0.3234
  820MOL0     C10602   6.401   0.729   7.053  0.6443  0.8122 -0.6992
  820MOL0     C10603   6.501   0.715   6.936  0.0628  0.0401  0.0172
  820MOL0     C10604   6.571   0.574   6.923  0.0427 -0.7098  0.8168
  820MOL0     C10605   6.654   0.575   6.791 -0.5862  0.5419 -0.5115
  820MOL0     C10606   6.780   0.650   6.796 -0.3823 -0.1998  0.3331
  820MOL0     C10607   6.880   0.605   6.903 -0.3529 -0.0265 -0.3927
  820MOL0     C10608   7.001   0.697   6.922 -0.6733 -0.8638 -0.5184
  820MOL0    Cl10609   7.105   0.711   6.778 -0.2705  0.5026 -0.0262
  820MOL0     C10610   6.031   0.504   6.977  0.4080 -0.0186  0.5257
  820MOL0     C10611   5.892   0.482   6.971 -0.4032 -0.2747 -0.1655
  820MOL0     O10612   5.614   0.719   6.969 -0.4149  0.3198  0.4551
  820MOL0     C10613   5.340   0.654   6.935  0.5459  0.2176  0.4600
  820MOL0     C10614   5.211   0.609   6.912  0.7280  0.7043 -0.0244
  820MOL0     N10615   4.443   0.658   6.906 -0.3102 -0.5091 -0.0516
  820MOL0     N10616   4.317   0.644   6.874 -0.6306  0.2645 -0.1795
  820MOL0     C10617   3.367   0.461   5.857  0.1636  0.8544  0.4910
  820MOL0     C10618   3.263   0.425   5.773  0.1567  0.1848  0.7149
  820MOL0     C10619   2.955   0.227   5.516  1.2134  0.1861  0.0072
  820MOL0     C10620   2.995   0.143   5.414  0.5933 -0.6205  0.0063
  820MOL0     C10621   2.900   0.066   5.344  0.9961  0.1479  0.3437
  820MOL0     C10622   2.767   0.073   5.378  0.9505 -0.5505 -0.3939
  820MOL0     O10623   2.682  -0.001   5.299  0.4502 -0.1881  0.0548
  820MOL0     C10624   2.541   0.005   5.312 -0.2237  1.5588 -0.6965
  820MOL0     C10625   2.475   0.117   5.240 -0.5777  0.4147  0.1991
  820MOL0     C10626   2.559   0.154   5.106  0.6126 -0.6581  0.9215
  820MOL0     C10627   2.515   0.067   4.989  0.7349 -0.1946  0.4641
  820MOL0     C10628   2.598   0.085   4.873  0.3729 -0.5672  0.9288
  820MOL0     C10629   2.642   0.121   4.767  0.5379  0.8005 -0.1354
  820MOL0     C10630   2.725   0.154   5.488 -0.6737 -0.8064  0.2480
  820MOL0     C10631   2.823   0.235   5.553  0.2872 -0.0309 -0.4744
  820MOL0     C10632   2.771   0.317   5.667 -0.2434  0.1770 -0.1544
  820MOL0     H10633   3.084   0.230   5.988  0.4786 -0.9251  0.4045
  820MOL0     H10634   3.274   0.271   6.115 -2.9575 -0.8289 -0.2079
  820MOL0     H10635   3.468   0.317   6.235  0.1132 -0.3959 -0.1823
  820MOL0     H10636   3.583   0.288   6.111 -2.2646 -2.6206  1.9391
  820MOL0     H10637   3.557   0.497   6.328 -1.7799 -1.6079 -0.6758
  820MOL0     H10638   3.663   0.549   6.203 -1.6466 -2.1317 -3.5855
  820MOL0     H10639   3.830   0.365   6.253 -1.1238 -2.5297 -0.7782
  820MOL0     H10640   3.705   0.285   6.352  0.5284 -0.4265  1.8626
  820MOL0     H10641   3.798   0.578   6.400  2.3386 -0.1436  0.2039
  820MOL0     H10642   3.719   0.481   6.516 -4.2038  1.3273 -2.2631
  820MOL0     H10643   3.919   0.328   6.506 -0.6773 -0.0571 -0.7590
  820MOL0     H10644   3.999   0.432   6.389 -0.3176 -0.9924  1.5840
  820MOL0     H10645   3.960   0.625   6.558 -0.5645  0.2159  0.7348
  820MOL0     H10646   3.962   0.495   6.686 -0.4668 -0.3185  0.1562
  820MOL0     H10647   4.191   0.504   6.493 -1.6324  0.5066 -1.2657
  820MOL0     H10648   4.150   0.413   6.646 -2.1774 -1.1287 -2.3958
  820MOL0     H10649   4.166   0.722   6.612 -2.0461 -1.9768 -2.2391
  820MOL0     H10650   4.113   0.646   6.760 -0.1275 -1.3695 -0.1494
  820MOL0     H10651   4.477   0.592   6.594  3.6307  3.8249  0.6037
  820MOL0     H10652   4.718   0.702   6.730 -3.1838  1.3955 -0.0748
  820MOL0     H10653   4.708   0.619   6.887 -0.0545  3.9014 -0.0534
  820MOL0     H10654   4.666   0.405   6.755  4.0602 -1.2097  2.3929
  820MOL0     H10655   4.669   0.492   6.607 -2.0897 -1.8574  0.1309
  820MOL0     H10656   4.917   0.504   6.628  1.8212  1.4231  2.5812
  820MOL0     H10657   4.884   0.349   6.689  1.0100 -0.1458  1.2904
  820MOL0     H10658   4.896   0.458   6.913  1.6676  1.0995  2.2411
  820MOL0     H10659   4.954   0.608   6.826 -4.1154 -0.0669  1.2386
  820MOL0     H10660   5.282   0.319   6.745 -3.4997  0.1330  1.9413
  820MOL0     H10661   5.507   0.396   6.760 -2.5285 -0.3541 -3.4212
  820MOL0     H10662   5.805   0.706   6.742  1.0711 -0.3373 -0.6135
  820MOL0     H10663   6.064   0.755   6.761  0.0491  1.9728  2.0692
  820MOL0     H10664   6.221   0.621   7.129 -0.1734 -1.4712  0.0641
  820MOL0     H10665   6.320   0.521   7.033 -2.3003 -0.4244 -2.0716
  820MOL0     H10666   6.371   0.834   7.052 -3.0157 -0.0983  0.3160
  820MOL0     H10667   6.459   0.714   7.145 -0.9641  0.7048  0.3433
  820MOL0     H10668   6.448   0.735   6.842  1.2398  0.9803 -0.4701
  820MOL0     H10669   6.574   0.797   6.938  2.9483 -2.3202 -0.7668
  820MOL0     H10670   6.498   0.495   6.903  1.2662 -1.2719 -1.7827
  820MOL0     H10671   6.622   0.532   7.011  3.2333 -1.2277 -1.0916
  820MOL0     H10672   6.593   0.599   6.704 -2.5054 -1.2008  0.2712
  820MOL0     H10673   6.683   0.471   6.771  2.6038  1.2541 -0.0305
  820MOL0     H10674   6.832   0.638   6.700 -0.4151 -1.9690  0.4964
  820MOL0     H10675   6.758   0.756   6.807  1.3921  0.2852 -0.4600
  820MOL0     H10676   6.912   0.502   6.883 -0.2974  0.2194 -1.6906
  820MOL0     H10677   6.828   0.607   6.999 -1.6366  1.6557 -1.0574
  820MOL0     H10678   6.984   0.796   6.964 -0.2736 -1.2920  0.6960
  820MOL0     H10679   7.063   0.648   6.998 -0.2765 -0.3356 -0.4932
  820MOL0     H10680   6.075   0.439   7.052  0.4777 -3.1418 -2.0336
  820MOL0     H10681   5.840   0.403   7.024 -0.5302 -0.0892 -0.0112
  820MOL0     H10682   5.350   0.741   6.999  1.5827  0.4787 -0.0303
  820MOL0     H10683   5.134   0.663   6.966  0.4091  3.0017 -2.5227
  820MOL0     H10684   3.436   0.543   5.836 -0.0562  1.4090  1.8151
  820MOL0     H10685   3.252   0.478   5.679  2.4293  0.9544  0.8276
  820MOL0     H10686   3.101   0.141   5.390  0.8875  2.3064  0.6367
  820MOL0     H10687   2.930   0.007   5.258  0.4636  1.9966 -1.1699
  820MOL0     H10688   2.516   0.006   5.418  1.3275  0.8553 -0.2998
  820MOL0     H10689   2.502  -0.089   5.271 -0.6947  0.8426  1.2956
  820MOL0     H10690   2.472   0.196   5.316  0.6042 -0.6528  1.4052
  820MOL0     H10691   2.369   0.103   5.215 -1.6305  2.6520  2.8081
  820MOL0     H10692   2.668   0.147   5.097  0.6908  1.2947 -0.0231
  820MOL0     H10693   2.538   0.259   5.086  1.3921 -0.8030 -0.8407
  820MOL0     H10694   2.514  -0.039   5.017 -1.0735  0.1227  1.8633
  820MOL0     H10695   2.410   0.089   4.967  0.2616 -0.9862  1.8041
  820MOL0     H10696   2.673   0.144   4.667  1.7883 -0.5702 -0.0911
  820MOL0     H10697   2.625   0.182   5.517  0.3932  2.7438  0.9469
  820MOL0     H10698   2.790   0.269   5.764 -4.8104  1.6434  1.7382
  820MOL0     H10699   2.827   0.411   5.670 -0.7411  0.4681  2.8050
  820MOL0     H10700   2.667   0.347   5.653 -0.9028 -1.4331  0.9937
  821MOL0     O10701   7.969   8.066   8.910  0.0769 -0.5018  0.5878
  821MOL0     C10702   7.991   8.118   9.025  0.7702  0.3155  0.3122
  821MOL0     O10703   8.038   8.243   9.047  0.3239 -0.7499  0.4529
  821MOL0     C10704   8.073   8.324   8.936 -0.1161 -0.5217  0.7037
  821MOL0     C10705   7.970   8.383   8.850  0.3006 -0.3833  0.6264
  821MOL0     C10706   8.006   8.492   8.770 -0.1756 -0.3030  0.0068
  821MOL0     C10707   8.143   8.531   8.755 -0.0260 -0.1426 -0.7453
  821MOL0     O10708   8.154   8.635   8.669  1.1904 -0.4330  0.8016
  821MOL0     C10709   8.285   8.703   8.656  0.3856 -0.2416 -0.7036
  821MOL0     C10710   8.318   8.681   8.514 -0.1775  0.6801 -0.2031
  821MOL0     C10711   8.457   8.715   8.471 -0.3554 -0.4402 -0.0195
  821MOL0     C10712   8.518   8.837   8.542  0.2770 -0.0098  0.3552
  821MOL0     C10713   8.653   8.883   8.478 -0.2958 -0.0572  0.0195
  821MOL0     C10714   8.700   9.014   8.546 -0.6574  0.1481  0.0370
  821MOL0     C10715   8.800   9.079   8.452 -0.5173  0.8742  0.2158
  821MOL0     C10716   8.924   9.128   8.533  0.9399  0.1566 -0.1930
  821MOL0     N10717   8.999   9.232   8.462 -0.4549  0.1049  0.0142
  821MOL0     C10718   9.022   9.358   8.517  0.6593 -0.7936  0.5280
  821MOL0     C10719   9.071   9.412   8.403  0.1139 -0.5798 -1.1030
  821MOL0     C10720   9.110   9.556   8.402  0.7216  0.3311  0.3069
  821MOL0     C10721   9.260   9.575   8.382  0.8503 -0.3361 -0.4318
  821MOL0     C10722   9.319   9.567   8.526  0.0059 -0.0075  0.3021
  821MOL0     C10723   9.464   9.588   8.538 -0.2353 -0.1960 -0.1495
  821MOL0     O10724   9.504   9.728   8.526 -0.6783  0.5157 -0.1747
  821MOL0     C10725   9.627   9.757   8.575  0.0117  0.7942 -0.0994
  821MOL0     C10726   9.634   9.840   8.680  0.2296 -0.2997  0.5544
  821MOL0     C10727   9.757   9.867   8.744  0.4352  0.8984 -0.4545
  821MOL0     C10728   9.876   9.801   8.713 -0.7239 -0.2136  0.4163
  821MOL0     C10729  10.000   9.834   8.783  1.0340  0.4335 -0.4196
  821MOL0     O10730  10.007   9.942   8.868 -0.2671 -0.0711  0.0688
  821MOL0     C10731  10.130   9.960   8.937 -0.5818  0.1120  0.1764
  821MOL0     C10732  10.219   9.862   8.977  1.1833  0.6758 -0.1313
  821MOL0     C10733  10.340   9.889   9.041  0.4287 -0.0840 -0.4476
  821MOL0     C10734  10.374  10.018   9.079 -0.0256  0.2022  0.3572
  821MOL0     O10735  10.496  10.044   9.145  0.6986 -0.4469  0.6063
  821MOL0     C10736  10.610   9.972   9.099 -0.0111  0.2268 -0.6940
  821MOL0     C10737  10.673   9.908   9.230  0.4945 -0.3341 -0.6805
  821MOL0     C10738  10.613   9.782   9.293  0.4985  0.6418 -0.1286
  821MOL0     C10739  10.480   9.824   9.360 -0.2354  1.1402  0.3920
  821MOL0     C10740  10.451   9.734   9.478 -0.6347 -0.1794  0.0088
  821MOL0     C10741  10.344   9.789   9.566  0.3525 -0.5112  0.7917
  821MOL0     C10742  10.323   9.672   9.665 -0.0949 -0.3304  0.4096
  821MOL0     C10743  10.211   9.687   9.761  0.4019  0.9788 -0.2048
  821MOL0    Cl10744  10.273   9.768   9.901 -0.4611 -0.4132  0.2074
  821MOL0     C10745  10.287  10.123   9.033  0.0206  0.0489  0.2858
  821MOL0     C10746  10.166  10.090   8.968  0.4978 -0.4450 -0.6700
  821MOL0     O10747  10.093   9.765   8.752 -0.2471  0.4378  0.2336
  821MOL0     C10748   9.870   9.703   8.613 -0.6164  0.5539  0.7051
  821MOL0     C10749   9.754   9.696   8.537 -0.8099 -0.5873  0.0582
  821MOL0     N10750   9.085   9.331   8.299 -0.6278 -0.7093 -0.4324
  821MOL0     N10751   9.041   9.219   8.332  1.2862  0.7409 -1.0020
  821MOL0     C10752   8.241   8.458   8.825  0.2165 -0.4148  0.4405
  821MOL0     C10753   8.204   8.363   8.922 -0.8475 -0.4007 -0.2598
  821MOL0     C10754   7.959   8.042   9.151  0.0201  0.3148  0.5422
  821MOL0     C10755   8.046   8.051   9.260  0.1302  0.4921  0.2877
  821MOL0     C10756   8.030   7.980   9.385 -1.3054  0.2778  1.1497
  821MOL0     C10757   7.920   7.892   9.394 -0.8022 -0.0331  0.1292
  821MOL0     O10758   7.886   7.822   9.509  0.2594 -0.0702  0.0297
  821MOL0     C10759   7.993   7.764   9.581  0.7615  0.5307  0.4637
  821MOL0     C10760   7.952   7.681   9.692  0.0980  0.9150  0.0453
  821MOL0     C10761   7.875   7.762   9.806  0.5068 -0.0367 -0.1979
  821MOL0     C10762   7.721   7.739   9.803  0.1213 -0.2621  0.6061
  821MOL0     C10763   7.667   7.612   9.856 -0.7842 -0.4045  0.6237
  821MOL0     C10764   7.614   7.507   9.886 -0.6186 -0.7579 -0.0601
  821MOL0     C10765   7.824   7.887   9.288  0.1377 -0.4994  0.5020
  821MOL0     C10766   7.844   7.965   9.169  0.5848 -0.3199 -0.5062
  821MOL0     C10767   7.725   7.964   9.077  0.2854 -0.3359  0.1084
  821MOL0     H10768   7.868   8.349   8.860  0.3259 -0.8666 -0.6068
  821MOL0     H10769   7.936   8.563   8.728 -1.2733 -0.9940  0.6101
  821MOL0     H10770   8.274   8.806   8.689 -0.3988  0.4123 -2.8825
  821MOL0     H10771   8.365   8.665   8.721  1.0111  5.0097  2.1206
  821MOL0     H10772   8.241   8.736   8.458 -2.2073  2.8372  4.2602
  821MOL0     H10773   8.301   8.576   8.490 -2.4581  1.0149 -0.2823
  821MOL0     H10774   8.476   8.729   8.364  1.9912  0.9030  0.4990
  821MOL0     H10775   8.513   8.625   8.496 -0.2408 -1.1332 -2.4811
  821MOL0     H10776   8.443   8.915   8.531  0.9180  1.0797  2.8804
  821MOL0     H10777   8.540   8.822   8.648  1.7094 -0.3628  0.0275
  821MOL0     H10778   8.724   8.804   8.502 -0.1783 -0.6825 -2.1926
  821MOL0     H10779   8.643   8.897   8.370  0.2406  1.6702  0.1588
  821MOL0     H10780   8.615   9.082   8.558  0.1809  1.0686  0.9817
  821MOL0     H10781   8.751   9.002   8.642 -0.9353  4.0510  0.8569
  821MOL0     H10782   8.758   9.165   8.399 -1.1507  2.1670  2.6668
  821MOL0     H10783   8.832   9.007   8.375  0.3516  1.4131  0.0573
  821MOL0     H10784   8.882   9.171   8.624 -0.3651 -1.4871  0.0431
  821MOL0     H10785   8.989   9.047   8.568 -0.2035 -1.9522 -2.6099
  821MOL0     H10786   9.012   9.408   8.613 -0.9642  0.0605 -0.0459
  821MOL0     H10787   9.070   9.594   8.308 -0.6787  2.3730  1.6218
  821MOL0     H10788   9.071   9.613   8.488 -0.0066  0.5417 -0.1556
  821MOL0     H10789   9.299   9.497   8.317 -2.0603  0.1514 -2.9773
  821MOL0     H10790   9.285   9.670   8.333  0.5614 -1.2434 -2.3963
  821MOL0     H10791   9.293   9.470   8.569  0.1728 -0.8269 -1.3622
  821MOL0     H10792   9.286   9.643   8.597 -0.6593 -0.9961  1.0840
  821MOL0     H10793   9.506   9.522   8.462 -0.4240 -0.1478 -0.2978
  821MOL0     H10794   9.505   9.556   8.635  1.4576  1.5576 -0.2355
  821MOL0     H10795   9.547   9.896   8.714  1.4574  1.1889  1.4033
  821MOL0     H10796   9.753   9.947   8.817 -3.5976 -0.1284  0.7714
  821MOL0     H10797  10.207   9.756   8.953  1.8941 -0.0966  2.5607
  821MOL0     H10798  10.395   9.796   9.056  0.8133 -0.0664 -1.6347
  821MOL0     H10799  10.585   9.889   9.031 -0.2903 -2.2263  2.1904
  821MOL0     H10800  10.682  10.044   9.059  1.2798 -1.3120 -1.2810
  821MOL0     H10801  10.775   9.876   9.206  0.6744  1.1011 -1.9938
  821MOL0     H10802  10.679   9.984   9.308  0.1554  0.1122 -1.0835
  821MOL0     H10803  10.593   9.700   9.223  0.5364 -0.9377  1.6332
  821MOL0     H10804  10.679   9.737   9.368 -2.9424 -1.2789  2.0067
  821MOL0     H10805  10.399   9.808   9.288 -0.3460 -0.5020  0.8389
  821MOL0     H10806  10.466   9.928   9.394 -1.6435  0.3642  2.3734
  821MOL0     H10807  10.544   9.722   9.535  0.2824 -0.2223 -1.4300
  821MOL0     H10808  10.424   9.635   9.440  1.6220 -0.2850 -1.5283
  821MOL0     H10809  10.381   9.878   9.617  0.6787 -0.8213  1.0962
  821MOL0     H10810  10.252   9.823   9.516  2.2420  2.5729 -0.8830
  821MOL0     H10811  10.418   9.675   9.719  1.6296 -0.5242 -2.4130
  821MOL0     H10812  10.320   9.573   9.618 -0.3629 -0.6393  1.0657
  821MOL0     H10813  10.135   9.748   9.711  1.3949  1.3017 -1.3658
  821MOL0     H10814  10.169   9.587   9.779 -0.5509  1.1700 -1.2346
  821MOL0     H10815  10.319  10.224   9.057 -0.7693 -0.0084  1.6611
  821MOL0     H10816  10.099  10.166   8.928 -0.2635 -0.2924  0.8371
  821MOL0     H10817   9.956   9.640   8.592 -0.6582  0.3621  1.0992
  821MOL0     H10818   9.773   9.633   8.450  2.3252  2.0417 -1.3666
  821MOL0     H10819   8.347   8.479   8.829  0.6018 -2.3380  1.0979
  821MOL0     H10820   8.285   8.321   8.980 -0.7919  1.1295  0.8475
  821MOL0     H10821   8.130   8.118   9.244  1.1347 -0.8300 -0.2113
  821MOL0     H10822   8.097   7.981   9.471  2.0040 -0.5551 -1.2248
  821MOL0     H10823   8.048   7.840   9.638  0.3212  0.3707  1.1153
  821MOL0     H10824   8.062   7.705   9.520 -1.4669 -2.6561  0.7973
  821MOL0     H10825   8.044   7.639   9.732 -0.7508  0.4834  1.6449
  821MOL0     H10826   7.897   7.590   9.666  0.5033  0.2277  1.5279
  821MOL0     H10827   7.910   7.865   9.794 -0.1928 -0.0467 -3.0527
  821MOL0     H10828   7.901   7.720   9.904 -3.0061 -1.1675  0.3699
  821MOL0     H10829   7.672   7.821   9.857  1.2580  0.9678 -0.1794
  821MOL0     H10830   7.697   7.750   9.697  1.0227  3.0563  0.6386
  821MOL0     H10831   7.575   7.411   9.914 -1.3341 -0.0437  1.5846
  821MOL0     H10832   7.724   7.847   9.302 -0.0033 -0.0151  0.9287
  821MOL0     H10833   7.668   7.870   9.074 -1.6028  0.7599  0.2187
  821MOL0     H10834   7.653   8.043   9.099 -1.5423 -1.9691  0.3284
  821MOL0     H10835   7.747   7.967   8.970 -1.0749 -2.9764 -0.3385
  822MOL0     O10836   9.128   2.451   9.983  0.1851  0.0347  0.5191
  822MOL0     C10837   9.111   2.399   9.868  0.4041 -0.3457 -0.1166
  822MOL0     O10838   9.210   2.335   9.793  0.6180  0.4352 -0.2097
  822MOL0     C10839   9.322   2.293   9.846  0.2585 -0.0582  0.3979
  822MOL0     C10840   9.444   2.320   9.782  1.1229 -0.5726  0.0182
  822MOL0     C10841   9.558   2.282   9.842  0.4056 -0.8169  0.4161
  822MOL0     C10842   9.568   2.236   9.971 -0.0890  0.6731 -1.0618
  822MOL0     O10843   9.683   2.199  10.038  0.4196  0.1911 -1.0834
  822MOL0     C10844   9.709   2.289  10.143 -0.0215 -0.8475  0.8358
  822MOL0     C10845   9.833   2.225  10.214 -0.3851  0.3001 -0.7264
  822MOL0     C10846   9.863   2.308  10.345  0.4051  0.5353  0.1904
  822MOL0     C10847   9.910   2.449  10.310 -0.0839 -0.3193 -0.1392
  822MOL0     C10848   9.990   2.527  10.431 -0.3656  0.2511  1.4643
  822MOL0     C10849  10.127   2.460  10.463 -0.3927 -0.8179  0.0194
  822MOL0     C10850  10.208   2.566  10.543  0.0838  0.0405  0.0912
  822MOL0     C10851  10.189   2.578  10.696  0.8341 -0.3632  0.2750
  822MOL0     N10852  10.264   2.690  10.772 -0.2873  0.9633 -0.2608
  822MOL0     C10853  10.218   2.819  10.788  0.3944  0.5636  0.2293
  822MOL0     C10854  10.283   2.859  10.893  0.2334 -0.0058 -0.3672
  822MOL0     C10855  10.276   2.995  10.959 -0.5935 -0.3450  0.1333
  822MOL0     C10856  10.324   3.101  10.858 -0.6167 -0.8632  0.8311
  822MOL0     C10857  10.477   3.099  10.853 -0.6447  0.8825 -0.5715
  822MOL0     C10858  10.537   3.149  10.991 -0.2942  0.5989 -0.1106
  822MOL0     O10859  10.680   3.174  10.987 -0.9554  0.9792  0.4718
  822MOL0     C10860  10.769   3.081  11.029  0.4771  0.1952  0.5389
  822MOL0     C10861  10.733   2.946  11.049 -0.7695 -0.3529  0.3986
  822MOL0     C10862  10.823   2.855  11.101 -0.1457  0.6062  0.0767
  822MOL0     C10863  10.955   2.898  11.136 -0.1066  0.5397  0.5500
  822MOL0     C10864  11.063   2.802  11.144 -0.2359 -0.1103 -0.4409
  822MOL0     O10865  11.193   2.842  11.096  0.4879 -0.1301  0.0387
  822MOL0     C10866  11.294   2.752  11.105  0.4974 -0.1625 -0.3474
  822MOL0     C10867  11.331   2.712  10.984 -0.2231  1.0599  0.1993
  822MOL0     C10868  11.450   2.625  10.973 -0.4731 -0.1221  0.2370
  822MOL0     C10869  11.512   2.574  11.091 -0.7361 -0.5886 -0.2546
  822MOL0     O10870  11.631   2.493  11.099 -0.9328 -0.3201  0.5237
  822MOL0     C10871  11.706   2.472  10.973  0.7457  0.6970 -0.0163
  822MOL0     C10872  11.827   2.379  11.006  0.5787 -0.5266  0.5719
  822MOL0     C10873  11.935   2.460  11.075  0.1848  0.4778  0.8616
  822MOL0     C10874  12.062   2.378  11.125 -0.7419  1.3837  0.0224
  822MOL0     C10875  12.150   2.303  11.021 -0.2464 -0.1602  0.3454
  822MOL0     C10876  12.217   2.397  10.921 -0.1487  0.1519  0.0821
  822MOL0     C10877  12.283   2.311  10.804  0.8019 -0.6553  0.6096
  822MOL0     C10878  12.388   2.210  10.848  0.3367 -0.2161 -0.0635
  822MOL0    Cl10879  12.541   2.289  10.850  0.5436 -0.3078  0.3543
  822MOL0     C10880  11.464   2.619  11.217  0.1520 -0.6877  0.0453
  822MOL0     C10881  11.364   2.716  11.221  0.0037  0.3833  0.1877
  822MOL0     O10882  11.039   2.684  11.177  0.1997 -0.4818  0.1069
  822MOL0     C10883  10.989   3.036  11.131 -0.4860 -1.0480  0.8216
  822MOL0     C10884  10.891   3.128  11.075  0.0496 -0.9605 -0.2235
  822MOL0     N10885  10.361   2.762  10.952 -0.0710 -1.1090  0.0425
  822MOL0     N10886  10.356   2.670  10.864  0.8281  0.3624 -0.0057
  822MOL0     C10887   9.446   2.208  10.029  0.1510  0.9685  0.6656
  822MOL0     C10888   9.324   2.216   9.959 -0.2974  0.3972 -0.0740
  822MOL0     C10889   8.980   2.400   9.812 -0.1674 -0.8646 -0.0364
  822MOL0     C10890   8.969   2.430   9.678 -0.4390 -0.5191  0.1089
  822MOL0     C10891   8.846   2.437   9.607 -0.5930 -0.4288  0.2774
  822MOL0     C10892   8.736   2.406   9.680  0.2238  0.3021 -0.9093
  822MOL0     O10893   8.619   2.416   9.626 -0.6275  0.6638  1.3961
  822MOL0     C10894   8.574   2.286   9.589  0.3892  0.3148 -0.2942
  822MOL0     C10895   8.419   2.289   9.547 -0.5270 -0.4401  0.0597
  822MOL0     C10896   8.374   2.163   9.473  0.8842 -0.4283 -0.7507
  822MOL0     C10897   8.228   2.157   9.446 -0.3753  0.1337 -0.2338
  822MOL0     C10898   8.176   2.285   9.385 -0.3258 -0.1464 -0.3667
  822MOL0     C10899   8.135   2.394   9.353  0.3779 -0.9356 -0.3320
  822MOL0     C10900   8.740   2.383   9.814  0.1768 -0.1005  0.3419
  822MOL0     C10901   8.861   2.384   9.887  0.0843  1.6795 -0.3951
  822MOL0     C10902   8.856   2.350  10.033  0.9708  0.1451 -0.6423
  822MOL0     H10903   9.426   2.352   9.680  1.1062 -2.0744 -0.4864
  822MOL0     H10904   9.647   2.303   9.783  0.7868 -1.7816  0.6244
  822MOL0     H10905   9.744   2.387  10.108  1.1501 -1.7351 -0.6329
  822MOL0     H10906   9.625   2.307  10.210 -0.5592 -1.3262  0.3025
  822MOL0     H10907   9.918   2.234  10.146  1.0140  2.7028  1.1600
  822MOL0     H10908   9.812   2.120  10.233  0.0134  0.2017 -0.8193
  822MOL0     H10909   9.941   2.259  10.404 -1.5576 -1.8521  0.9584
  822MOL0     H10910   9.770   2.290  10.400 -0.0087 -2.3926 -1.2608
  822MOL0     H10911   9.974   2.448  10.222  2.1727  1.7371  1.3397
  822MOL0     H10912   9.819   2.505  10.288  0.2450 -0.2468 -1.3606
  822MOL0     H10913   9.999   2.630  10.396 -3.3298  0.3304  0.6043
  822MOL0     H10914   9.927   2.546  10.518 -0.5629 -0.7600  1.5617
  822MOL0     H10915  10.114   2.368  10.520  1.5734 -0.8317  0.5194
  822MOL0     H10916  10.179   2.441  10.369  1.5636 -1.8166  1.2436
  822MOL0     H10917  10.183   2.660  10.493 -0.2431 -1.3873 -2.6909
  822MOL0     H10918  10.315   2.557  10.520 -0.1763 -1.5764 -0.6803
  822MOL0     H10919  10.085   2.600  10.722  0.7679 -1.4080  0.9331
  822MOL0     H10920  10.221   2.482  10.736 -1.3535 -2.1294 -1.9140
  822MOL0     H10921  10.159   2.878  10.719 -1.1731 -0.9163  0.2382
  822MOL0     H10922  10.171   3.023  10.976 -0.4810  0.4744 -0.5218
  822MOL0     H10923  10.322   2.998  11.059  1.2720  0.5520 -0.7110
  822MOL0     H10924  10.284   3.093  10.756 -0.7212  2.3321  0.5050
  822MOL0     H10925  10.293   3.198  10.899  0.7951  1.2860 -2.6709
  822MOL0     H10926  10.509   3.175  10.780  2.0256  2.8808  2.3792
  822MOL0     H10927  10.523   3.003  10.830 -0.5547  0.4815  1.1253
  822MOL0     H10928  10.508   3.078  11.069 -0.3917  0.0597 -0.6240
  822MOL0     H10929  10.479   3.239  11.011 -2.4129 -0.5361 -0.7388
  822MOL0     H10930  10.637   2.912  11.011 -0.7809  0.7583 -0.6456
  822MOL0     H10931  10.791   2.753  11.122 -0.5137  0.4349 -1.2423
  822MOL0     H10932  11.271   2.742  10.899 -0.0350  2.8729  0.6619
  822MOL0     H10933  11.484   2.580  10.880 -0.1353 -0.9998  0.7759
  822MOL0     H10934  11.640   2.423  10.901  1.5331 -0.0553 -0.2381
  822MOL0     H10935  11.744   2.565  10.931  0.0655  0.3103 -1.5385
  822MOL0     H10936  11.789   2.298  11.068  0.3290 -2.3481 -1.8271
  822MOL0     H10937  11.866   2.324  10.920 -1.3805 -0.1466 -0.6477
  822MOL0     H10938  11.956   2.541  11.005 -2.7334  1.4760  1.0393
  822MOL0     H10939  11.889   2.504  11.164 -3.5406  1.1535 -1.2302
  822MOL0     H10940  12.030   2.300  11.195  0.2505 -1.9692 -2.9579
  822MOL0     H10941  12.124   2.449  11.180  2.7064 -2.6946  1.9258
  822MOL0     H10942  12.077   2.238  10.972 -0.2829  0.3354 -0.2734
  822MOL0     H10943  12.224   2.243  11.075  3.1771  1.8007 -1.7631
  822MOL0     H10944  12.144   2.467  10.881 -0.3403 -0.8296 -1.3608
  822MOL0     H10945  12.305   2.449  10.960  1.2037 -2.3522  0.6040
  822MOL0     H10946  12.329   2.375  10.729 -1.1463 -2.1475 -2.0412
  822MOL0     H10947  12.211   2.261  10.738  0.4916 -0.7378  1.0070
  822MOL0     H10948  12.354   2.164  10.941  3.6223 -1.3013  0.7431
  822MOL0     H10949  12.408   2.122  10.785  0.5443  0.0216 -0.3331
  822MOL0     H10950  11.510   2.577  11.306  0.0306 -1.4181 -0.2307
  822MOL0     H10951  11.327   2.736  11.321  0.1533 -0.6719  0.4622
  822MOL0     H10952  11.081   3.085  11.158 -0.1343  0.1939 -2.1667
  822MOL0     H10953  10.911   3.234  11.061 -2.8749 -0.1832  0.6514
  822MOL0     H10954   9.430   2.179  10.132 -1.9981  3.6297  1.1935
  822MOL0     H10955   9.236   2.207  10.023  0.3048  0.4140  0.7767
  822MOL0     H10956   9.052   2.461   9.615 -0.5445 -1.2522 -0.3999
  822MOL0     H10957   8.840   2.454   9.499  0.0295 -3.4293 -0.3120
  822MOL0     H10958   8.573   2.221   9.677 -0.3999 -0.0252 -0.5405
  822MOL0     H10959   8.635   2.247   9.508  0.2569  0.2639 -0.3703
  822MOL0     H10960   8.397   2.369   9.475 -2.0419 -0.2778  0.6557
  822MOL0     H10961   8.358   2.312   9.635 -1.7314  0.4794 -0.9713
  822MOL0     H10962   8.404   2.079   9.535  0.1566 -0.4086 -0.3593
  822MOL0     H10963   8.427   2.131   9.383 -0.1252 -3.6792 -0.3086
  822MOL0     H10964   8.203   2.070   9.385  0.3532 -0.5268  0.3827
  822MOL0     H10965   8.190   2.136   9.547 -1.9949 -1.0821 -1.0562
  822MOL0     H10966   8.091   2.485   9.317  1.1893 -1.4127 -2.7135
  822MOL0     H10967   8.650   2.357   9.870 -0.0546 -1.1179 -0.4787
  822MOL0     H10968   8.827   2.438  10.091  0.1939 -0.0296 -0.7566
  822MOL0     H10969   8.791   2.264  10.049  0.9901  0.3578  0.6729
  822MOL0     H10970   8.953   2.329  10.080  1.0802 -1.9483 -1.6933
  823MOL0     O10971   7.158  10.418   0.367  0.4763 -0.0337 -0.0878
  823MOL0     C10972   7.142  10.322   0.433  0.1427  0.5277 -0.2775
  823MOL0     O10973   7.037  10.299   0.524 -0.5570  0.5063 -0.4911
  823MOL0     C10974   6.940  10.395   0.540 -0.3044 -0.0994 -0.7651
  823MOL0     C10975   6.979  10.525   0.586  0.3779 -1.0282 -0.5183
  823MOL0     C10976   6.886  10.614   0.631  0.1331 -0.7427  0.2070
  823MOL0     C10977   6.750  10.594   0.617 -0.1629  0.5845 -0.0428
  823MOL0     O10978   6.658  10.674   0.679 -0.3523  1.1181  0.5020
  823MOL0     C10979   6.705  10.805   0.731  0.1284  0.7746 -0.2482
  823MOL0     C10980   6.577  10.887   0.732 -0.4087  0.6925  0.2155
  823MOL0     C10981   6.597  11.039   0.774  0.1227  0.0285  0.1358
  823MOL0     C10982   6.472  11.123   0.761  1.0240 -0.3930 -0.1409
  823MOL0     C10983   6.476  11.258   0.833 -0.9984 -1.2258  0.7817
  823MOL0     C10984   6.354  11.341   0.794  0.3263  0.4160 -0.3844
  823MOL0     C10985   6.353  11.378   0.645 -0.3457 -0.2835  1.0246
  823MOL0     C10986   6.240  11.478   0.622 -0.4072  0.5130  0.2231
  823MOL0     N10987   6.244  11.542   0.484 -0.2445 -0.2372 -1.1837
  823MOL0     C10988   6.242  11.474   0.364 -0.7076 -0.3113 -0.2406
  823MOL0     C10989   6.261  11.584   0.267  0.4381  0.4941 -0.0572
  823MOL0     C10990   6.275  11.596   0.116  0.6400  0.1907 -0.8700
  823MOL0     C10991   6.407  11.655   0.061  0.8218  0.3464 -0.1479
  823MOL0     C10992   6.374  11.731  -0.065 -0.2898  0.5059  0.2448
  823MOL0     C10993   6.502  11.798  -0.123 -0.4696  0.5493 -0.3451
  823MOL0     O10994   6.607  11.708  -0.157  0.1606  0.4939  0.3684
  823MOL0     C10995   6.599  11.645  -0.283  0.1903  0.2989 -0.5820
  823MOL0     C10996   6.717  11.571  -0.320 -0.5258 -0.5234 -0.4107
  823MOL0     C10997   6.717  11.494  -0.436  0.1929  0.6359 -0.6376
  823MOL0     C10998   6.600  11.481  -0.510 -0.4410 -0.8509 -0.0789
  823MOL0     C10999   6.602  11.398  -0.628 -0.6395  0.5670 -0.2963
  823MOL0     O11000   6.696  11.298  -0.630  0.7985 -0.7978  0.6130
  823MOL0     C11001   6.679  11.184  -0.702 -0.1251  0.0627  0.2853
  823MOL0     C11002   6.665  11.061  -0.639 -0.0759 -0.3782  0.2645
  823MOL0     C11003   6.636  10.950  -0.724 -0.7130  0.0061  0.1917
  823MOL0     C11004   6.635  10.963  -0.865  0.0688 -0.0291  1.4015
  823MOL0     O11005   6.599  10.847  -0.937 -0.1151 -0.4333  0.8729
  823MOL0     C11006   6.617  10.839  -1.078  0.4438  0.1386 -0.4713
  823MOL0     C11007   6.762  10.849  -1.113 -0.0817  0.8294 -0.9055
  823MOL0     C11008   6.773  10.817  -1.255 -0.4322  0.0291 -0.6008
  823MOL0     C11009   6.911  10.867  -1.317  0.0074  0.1302  0.4680
  823MOL0     C11010   6.906  10.867  -1.474  0.2728 -0.0493 -0.7096
  823MOL0     C11011   7.040  10.856  -1.541 -0.6022  0.7855  0.2567
  823MOL0     C11012   7.111  11.002  -1.526  0.0041 -0.3108  0.2904
  823MOL0     C11013   7.265  10.998  -1.551  0.0765  0.0926  0.6561
  823MOL0    Cl11014   7.324  11.163  -1.529  0.5119 -0.5951 -0.0172
  823MOL0     C11015   6.651  11.088  -0.928  1.1523  0.6928 -0.7190
  823MOL0     C11016   6.677  11.193  -0.843  0.5063  0.4697 -0.2162
  823MOL0     O11017   6.515  11.405  -0.712  0.1552  0.2231 -0.1159
  823MOL0     C11018   6.485  11.559  -0.482 -0.0144 -0.1349  0.1151
  823MOL0     C11019   6.495  11.641  -0.367 -0.0647  0.5113 -0.7768
  823MOL0     N11020   6.272  11.699   0.347 -0.5152  0.0607 -0.1048
  823MOL0     N11021   6.262  11.675   0.471  0.5015  0.2046  0.2175
  823MOL0     C11022   6.719  10.466   0.576 -0.0129 -0.2367 -0.3200
  823MOL0     C11023   6.814  10.369   0.536  0.0721  0.1475 -1.1916
  823MOL0     C11024   7.243  10.212   0.420  0.1108 -0.8387  0.0051
  823MOL0     C11025   7.365  10.252   0.368  0.3159  0.1549 -0.5187
  823MOL0     C11026   7.466  10.154   0.349 -0.5516 -0.8163 -0.4175
  823MOL0     C11027   7.446  10.024   0.371  0.3753 -0.6558  0.1570
  823MOL0     O11028   7.548   9.932   0.349 -0.8150  0.0804 -0.0945
  823MOL0     C11029   7.596   9.875   0.472 -0.3547  0.9054  1.1900
  823MOL0     C11030   7.652   9.738   0.457 -1.0055  0.5708  0.5070
  823MOL0     C11031   7.742   9.724   0.579 -1.0025  0.5967  0.0285
  823MOL0     C11032   7.771   9.571   0.603  0.8873 -0.2929  0.7523
  823MOL0     C11033   7.916   9.547   0.625 -0.2443 -0.0621 -0.4520
  823MOL0     C11034   8.039   9.526   0.632 -0.0282  0.2295 -0.3767
  823MOL0     C11035   7.322   9.983   0.407 -0.6913 -0.8472  0.6259
  823MOL0     C11036   7.219  10.073   0.434  0.2951  0.0994 -0.4412
  823MOL0     C11037   7.095  10.021   0.496  0.3817  0.0486 -0.7507
  823MOL0     H11038   7.086  10.537   0.604 -0.3764  0.9478  3.5792
  823MOL0     H11039   6.916  10.714   0.661 -0.0651 -0.1545 -1.4702
  823MOL0     H11040   6.749  10.797   0.830  2.2665 -1.8464 -1.2555
  823MOL0     H11041   6.779  10.850   0.663  2.3288 -0.4198  1.2163
  823MOL0     H11042   6.502  10.848   0.802  2.5209 -0.1555  3.1025
  823MOL0     H11043   6.542  10.877   0.629 -2.3712  1.5939  0.7409
  823MOL0     H11044   6.684  11.079   0.720 -0.0374 -0.5471 -0.5567
  823MOL0     H11045   6.633  11.044   0.877  1.8312 -1.2116 -0.3487
  823MOL0     H11046   6.464  11.143   0.654  0.4093  0.9385  0.1279
  823MOL0     H11047   6.391  11.059   0.797 -0.7521  1.7270 -0.0978
  823MOL0     H11048   6.481  11.245   0.941  2.5914  2.2358  1.2869
  823MOL0     H11049   6.561  11.314   0.794 -3.3648  0.9781 -1.7023
  823MOL0     H11050   6.263  11.286   0.820  0.6952  0.3053  0.7105
  823MOL0     H11051   6.369  11.430   0.856 -1.8521 -0.5609  1.7232
  823MOL0     H11052   6.328  11.289   0.587 -0.4784 -0.5176  1.4368
  823MOL0     H11053   6.450  11.420   0.618  0.7907 -2.1540  1.9380
  823MOL0     H11054   6.146  11.422   0.627  0.7442 -1.4135  1.9619
  823MOL0     H11055   6.237  11.561   0.693 -1.1572  1.2352 -0.6328
  823MOL0     H11056   6.238  11.368   0.341  1.2138 -0.1895 -1.3382
  823MOL0     H11057   6.254  11.494   0.085  0.0441  0.0056  0.1040
  823MOL0     H11058   6.192  11.662   0.087  1.0528  1.7358  1.1551
  823MOL0     H11059   6.435  11.723   0.143 -1.9555 -0.7997  1.9154
  823MOL0     H11060   6.478  11.575   0.041  0.1756 -0.4067  0.4972
  823MOL0     H11061   6.306  11.811  -0.037 -1.1935 -1.5806  4.8663
  823MOL0     H11062   6.330  11.687  -0.155 -1.1229  2.2540 -0.2419
  823MOL0     H11063   6.536  11.878  -0.057 -0.3301  1.8272 -1.9046
  823MOL0     H11064   6.476  11.857  -0.212  0.3196  3.3781  1.1732
  823MOL0     H11065   6.800  11.576  -0.250 -3.0872 -2.4720  2.9984
  823MOL0     H11066   6.804  11.434  -0.463  0.5009  1.3909 -1.3753
  823MOL0     H11067   6.665  11.051  -0.531 -0.6788 -1.9128  0.1489
  823MOL0     H11068   6.611  10.857  -0.675 -3.2507  0.0973 -0.7936
  823MOL0     H11069   6.578  10.742  -1.113  0.0780  0.4596 -0.9706
  823MOL0     H11070   6.572  10.928  -1.122  0.2692  0.7482  0.9268
  823MOL0     H11071   6.802  10.950  -1.096 -0.5156  0.5654  2.5098
  823MOL0     H11072   6.808  10.776  -1.046 -2.2244  1.5310  1.5071
  823MOL0     H11073   6.763  10.710  -1.274 -0.5322 -0.1820  0.6132
  823MOL0     H11074   6.693  10.878  -1.297  0.0253  0.3118 -1.0895
  823MOL0     H11075   6.983  10.793  -1.280  0.3010  1.6908  3.3454
  823MOL0     H11076   6.952  10.964  -1.287  1.6919 -0.1777 -0.6971
  823MOL0     H11077   6.855  10.957  -1.511 -0.3434 -0.0284  0.1654
  823MOL0     H11078   6.861  10.772  -1.507  0.2124  0.1138 -1.1081
  823MOL0     H11079   7.106  10.779  -1.502 -0.7408  0.4236 -0.2179
  823MOL0     H11080   7.028  10.832  -1.647 -1.3241 -0.1524  0.5380
  823MOL0     H11081   7.083  11.048  -1.431 -2.8212 -0.1107 -0.5605
  823MOL0     H11082   7.063  11.069  -1.597 -0.2777 -0.2424  0.5436
  823MOL0     H11083   7.302  10.932  -1.472 -0.4364 -3.0427 -1.5211
  823MOL0     H11084   7.284  10.949  -1.647  0.0947 -0.7087  1.0589
  823MOL0     H11085   6.648  11.119  -1.032 -0.6262  3.1754 -0.0449
  823MOL0     H11086   6.696  11.292  -0.884  0.3738  1.7146  2.5587
  823MOL0     H11087   6.391  11.550  -0.536  1.0403 -1.5054 -1.5910
  823MOL0     H11088   6.411  11.709  -0.352  0.6087  1.0032  0.9481
  823MOL0     H11089   6.615  10.437   0.573 -0.6770  1.4297  2.5890
  823MOL0     H11090   6.786  10.268   0.511  1.5072 -0.6492  0.2603
  823MOL0     H11091   7.385  10.355   0.340  0.7327  1.0878  2.7282
  823MOL0     H11092   7.558  10.185   0.303 -0.1345 -1.5327 -0.0862
  823MOL0     H11093   7.515   9.863   0.545 -0.9022 -1.1281  0.3480
  823MOL0     H11094   7.669   9.942   0.517  1.7473 -0.8439  0.5295
  823MOL0     H11095   7.709   9.739   0.363  2.0903 -3.0295  2.0339
  823MOL0     H11096   7.581   9.656   0.442  0.7398 -1.0448  0.6741
  823MOL0     H11097   7.707   9.755   0.678  2.3201 -0.3926  1.6670
  823MOL0     H11098   7.836   9.778   0.570 -1.1571  0.9735  0.6436
  823MOL0     H11099   7.716   9.550   0.695 -2.5649  1.9707 -0.5857
  823MOL0     H11100   7.729   9.517   0.518 -1.8587  0.4891  1.5156
  823MOL0     H11101   8.144   9.510   0.624 -0.1450 -0.7774  0.0024
  823MOL0     H11102   7.302   9.876   0.411  1.5814 -1.2869  1.9795
  823MOL0     H11103   7.003  10.052   0.445  0.8873  0.9265 -1.1519
  823MOL0     H11104   7.095   9.912   0.494 -1.2156 -0.1057  1.8807
  823MOL0     H11105   7.081  10.046   0.602  2.8007  0.2350 -0.4238
  824MOL0     O11106   6.360   6.025   1.827 -0.1096  0.4020  0.3789
  824MOL0     C11107   6.340   6.098   1.733  0.4138 -0.0913 -0.4757
  824MOL0     O11108   6.429   6.173   1.666  0.9203  0.2938 -0.3573
  824MOL0     C11109   6.558   6.169   1.711  0.7577 -0.7372 -0.3111
  824MOL0     C11110   6.612   6.206   1.836 -0.4158 -0.1487 -0.0840
  824MOL0     C11111   6.751   6.213   1.857 -0.1745  0.5412  0.9791
  824MOL0     C11112   6.849   6.203   1.753  0.8130 -0.1404 -0.2592
  824MOL0     O11113   6.977   6.235   1.787  0.1324  0.0457 -0.3222
  824MOL0     C11114   7.086   6.179   1.712  0.5553 -1.2213 -0.1174
  824MOL0     C11115   7.221   6.238   1.766 -0.4345  0.2558  0.3381
  824MOL0     C11116   7.340   6.204   1.664  0.2023 -0.5793 -0.8819
  824MOL0     C11117   7.473   6.192   1.736 -0.6123  0.5523 -0.0373
  824MOL0     C11118   7.586   6.154   1.635 -0.3109 -0.8307 -0.8623
  824MOL0     C11119   7.731   6.156   1.690  0.1430 -0.4245 -0.3888
  824MOL0     C11120   7.750   6.068   1.818  0.3006  0.1779  0.5857
  824MOL0     C11121   7.699   5.919   1.816 -0.2271 -0.4101  1.2450
  824MOL0     N11122   7.798   5.825   1.747 -0.0756  0.3798  0.0425
  824MOL0     C11123   7.793   5.786   1.612 -0.2290 -0.6071  0.3216
  824MOL0     C11124   7.912   5.716   1.584 -0.4012 -0.5045  0.0154
  824MOL0     C11125   7.957   5.654   1.450  0.0313  0.1888  0.8291
  824MOL0     C11126   8.108   5.631   1.449  1.3207  0.4396 -0.8593
  824MOL0     C11127   8.145   5.539   1.328  0.4096  0.6242 -1.0773
  824MOL0     C11128   8.301   5.535   1.324 -0.3233  0.2848 -0.3029
  824MOL0     O11129   8.356   5.454   1.432 -0.3513  0.1955 -0.1003
  824MOL0     C11130   8.493   5.438   1.428  0.2193 -0.0206  0.5196
  824MOL0     C11131   8.584   5.501   1.332  0.3068 -0.2069 -0.8228
  824MOL0     C11132   8.719   5.482   1.334  0.3971 -0.5352  0.0578
  824MOL0     C11133   8.781   5.411   1.437  0.5791 -0.6917 -0.4828
  824MOL0     C11134   8.930   5.403   1.461 -0.3704 -1.0372  0.3786
  824MOL0     O11135   8.974   5.388   1.586  0.7004 -0.3134 -0.6598
  824MOL0     C11136   9.106   5.412   1.617 -0.3012  0.1527  0.2658
  824MOL0     C11137   9.213   5.325   1.586  0.4793  0.1095 -0.9360
  824MOL0     C11138   9.345   5.347   1.629 -0.4406  0.8558  0.1127
  824MOL0     C11139   9.371   5.458   1.716 -0.6566 -0.2950  0.0804
  824MOL0     O11140   9.497   5.477   1.761 -0.2225 -0.4777 -0.2880
  824MOL0     C11141   9.530   5.561   1.876  0.8476 -0.5977 -0.5852
  824MOL0     C11142   9.568   5.701   1.818  0.3966  0.8402 -0.1231
  824MOL0     C11143   9.593   5.800   1.929  0.2942  0.3929 -0.4183
  824MOL0     C11144   9.617   5.935   1.865  0.4059 -0.2211 -0.4336
  824MOL0     C11145   9.756   5.967   1.802 -1.1226 -0.4444 -0.7156
  824MOL0     C11146   9.871   5.962   1.912 -0.5295  0.0230 -0.2957
  824MOL0     C11147  10.005   6.038   1.869  0.8610  0.2507 -0.2362
  824MOL0     C11148  10.116   6.046   1.980  0.0773 -0.5028 -1.2131
  824MOL0    Cl11149  10.036   6.157   2.102  0.1942  0.0879 -0.4343
  824MOL0     C11150   9.265   5.546   1.744 -1.2132  0.1272  0.3940
  824MOL0     C11151   9.133   5.513   1.712 -0.3187 -0.3623  0.3544
  824MOL0     O11152   9.001   5.434   1.362 -0.2665 -0.4943  1.0898
  824MOL0     C11153   8.692   5.341   1.526 -0.1887  0.7626  0.2488
  824MOL0     C11154   8.552   5.355   1.519  0.1019  0.0233  0.2886
  824MOL0     N11155   7.965   5.693   1.710  0.1267  0.3715 -0.1595
  824MOL0     N11156   7.902   5.752   1.798 -0.9952 -0.2385 -0.6135
  824MOL0     C11157   6.798   6.150   1.635  0.4631  0.6245 -0.0671
  824MOL0     C11158   6.655   6.141   1.614 -0.1222  1.2209  0.0697
  824MOL0     C11159   6.200   6.122   1.689 -0.7035 -0.1021  0.0726
  824MOL0     C11160   6.112   6.017   1.661 -0.9819 -0.4675  0.0617
  824MOL0     C11161   5.987   6.038   1.621  0.6912  1.4556 -0.0408
  824MOL0     C11162   5.934   6.167   1.606 -0.7450 -0.3432  0.1451
  824MOL0     O11163   5.799   6.180   1.590  0.1551  0.6063 -0.3277
  824MOL0     C11164   5.746   6.162   1.465 -0.4189 -0.5511  0.5348
  824MOL0     C11165   5.604   6.108   1.474 -0.8966 -0.5562  0.0327
  824MOL0     C11166   5.518   6.133   1.359  0.0975  0.1420  0.6107
  824MOL0     C11167   5.375   6.071   1.389 -0.6107  0.1684 -0.7120
  824MOL0     C11168   5.285   6.079   1.276 -0.3863 -0.2320 -0.9493
  824MOL0     C11169   5.217   6.100   1.179  0.0687 -0.1874 -1.1210
  824MOL0     C11170   6.017   6.282   1.636  0.3106  0.4707 -0.4170
  824MOL0     C11171   6.145   6.255   1.679 -0.5647 -0.0816  0.4928
  824MOL0     C11172   6.222   6.366   1.743  0.7533 -0.1639 -0.4635
  824MOL0     H11173   6.547   6.225   1.920  2.0988 -1.4825  2.3075
  824MOL0     H11174   6.796   6.248   1.949  0.2687 -3.0744  2.2918
  824MOL0     H11175   7.092   6.070   1.715  0.3631 -1.2500  2.9278
  824MOL0     H11176   7.068   6.209   1.609 -0.3477 -0.1651  0.3211
  824MOL0     H11177   7.238   6.177   1.855 -1.7526 -3.7614 -1.8932
  824MOL0     H11178   7.227   6.341   1.800 -0.6034 -0.6963  3.5894
  824MOL0     H11179   7.341   6.278   1.584 -2.5342  0.6708  0.1061
  824MOL0     H11180   7.300   6.112   1.620 -3.7019  0.2034  0.6159
  824MOL0     H11181   7.501   6.291   1.773  1.4386  1.5301 -3.6964
  824MOL0     H11182   7.464   6.117   1.815  0.6032  1.2898  0.8372
  824MOL0     H11183   7.566   6.050   1.607  1.3955 -1.0093 -1.5590
  824MOL0     H11184   7.585   6.226   1.553  0.4031 -0.3593 -0.4636
  824MOL0     H11185   7.809   6.119   1.623  0.4120 -0.7249  0.0880
  824MOL0     H11186   7.753   6.262   1.709  4.9746 -1.2782 -0.1041
  824MOL0     H11187   7.692   6.120   1.895  0.8998  0.0498  1.1294
  824MOL0     H11188   7.856   6.070   1.845  0.6972  3.4225 -0.7193
  824MOL0     H11189   7.683   5.880   1.917 -2.1802 -2.8421  0.0857
  824MOL0     H11190   7.599   5.915   1.773 -0.2652  0.4591  1.2268
  824MOL0     H11191   7.717   5.812   1.538  1.6165  2.3739 -0.6755
  824MOL0     H11192   7.895   5.565   1.436 -1.2905  1.4690 -2.5156
  824MOL0     H11193   7.928   5.722   1.370 -1.5127 -0.8602  0.4489
  824MOL0     H11194   8.159   5.727   1.435 -2.4133  3.3686  3.1155
  824MOL0     H11195   8.142   5.584   1.542 -1.0321  0.5209  0.1208
  824MOL0     H11196   8.099   5.582   1.239  1.0982  0.8987 -1.3058
  824MOL0     H11197   8.098   5.440   1.334 -0.0837  0.8569 -1.0320
  824MOL0     H11198   8.343   5.636   1.325  2.5350 -0.7975  0.0899
  824MOL0     H11199   8.343   5.511   1.225 -0.5263 -1.3901 -0.0180
  824MOL0     H11200   8.544   5.573   1.262  0.8285 -0.6445 -1.5776
  824MOL0     H11201   8.775   5.537   1.259 -1.6140  0.9977 -0.3913
  824MOL0     H11202   9.204   5.231   1.531 -1.4137  0.4960 -1.3622
  824MOL0     H11203   9.414   5.263   1.623 -2.6016 -1.0479  0.6359
  824MOL0     H11204   9.445   5.570   1.945 -0.3254 -0.6390 -1.9785
  824MOL0     H11205   9.608   5.510   1.934 -0.1663 -0.3144  1.0988
  824MOL0     H11206   9.659   5.698   1.758  1.7463 -0.8655  1.8557
  824MOL0     H11207   9.486   5.729   1.751 -0.1304 -2.0177 -0.8436
  824MOL0     H11208   9.507   5.799   1.996  1.2596  0.6624  0.8532
  824MOL0     H11209   9.681   5.771   1.987 -1.0071 -0.0169  1.4315
  824MOL0     H11210   9.588   6.005   1.944  0.7039  1.3513 -1.6559
  824MOL0     H11211   9.529   5.959   1.804 -3.4214 -0.2756  4.4168
  824MOL0     H11212   9.748   6.067   1.757 -2.5846  0.4854  1.4260
  824MOL0     H11213   9.771   5.891   1.725 -0.6056  0.2457 -1.3150
  824MOL0     H11214   9.840   6.003   2.009  0.6474 -0.9327  0.5162
  824MOL0     H11215   9.888   5.855   1.926  1.9308  0.4574  0.7167
  824MOL0     H11216   9.984   6.137   1.829 -2.2916 -1.2872 -2.8965
  824MOL0     H11217  10.042   5.990   1.778  0.6623  0.9341 -0.6813
  824MOL0     H11218  10.126   5.954   2.038 -2.8565  0.7476  1.6225
  824MOL0     H11219  10.208   6.095   1.948  0.6141  1.0072  2.1693
  824MOL0     H11220   9.277   5.636   1.804 -2.0630  2.1746 -2.3080
  824MOL0     H11221   9.049   5.573   1.744 -1.2367 -2.8644  3.0832
  824MOL0     H11222   8.749   5.279   1.594  0.7457 -0.8744 -1.9143
  824MOL0     H11223   8.485   5.305   1.588 -0.6139 -2.8061 -2.2234
  824MOL0     H11224   6.867   6.124   1.556 -0.0139 -1.0492  0.0087
  824MOL0     H11225   6.617   6.106   1.518 -1.3907  1.3695  0.5007
  824MOL0     H11226   6.147   5.916   1.676  0.6438  0.0840  0.2260
  824MOL0     H11227   5.922   5.952   1.611  0.2992  1.4359  2.1110
  824MOL0     H11228   5.812   6.102   1.402  1.0675  1.9020 -0.4139
  824MOL0     H11229   5.732   6.259   1.417 -3.7019 -0.5091  1.3766
  824MOL0     H11230   5.562   6.149   1.567  1.6359 -1.8785  1.8963
  824MOL0     H11231   5.611   6.000   1.495  1.6353 -0.7716 -1.4939
  824MOL0     H11232   5.560   6.086   1.270  0.1766  2.5426 -0.7066
  824MOL0     H11233   5.518   6.240   1.337 -1.3110 -0.2076 -1.3979
  824MOL0     H11234   5.386   5.967   1.420 -0.5798  0.6979  1.2424
  824MOL0     H11235   5.332   6.123   1.476 -0.7181 -1.9175  0.5520
  824MOL0     H11236   5.135   6.119   1.113 -1.7331 -0.2086  0.9796
  824MOL0     H11237   5.976   6.382   1.645  0.5626  0.4604  1.0519
  824MOL0     H11238   6.153   6.447   1.772  1.4467 -0.4457  2.2154
  824MOL0     H11239   6.264   6.336   1.839 -0.8564  4.1825  1.9096
  824MOL0     H11240   6.300   6.407   1.679  1.3148  0.2764  0.4877
  825MOL0     O11241   5.646   8.389   3.541 -0.1041  0.0689 -0.1280
  825MOL0     C11242   5.646   8.512   3.570 -0.5540  0.0591  0.6432
  825MOL0     O11243   5.735   8.571   3.651  0.5634 -0.3297  0.4270
  825MOL0     C11244   5.859   8.512   3.669  0.4189 -1.0964  0.1843
  825MOL0     C11245   5.880   8.401   3.740 -0.5161 -0.2444 -0.1524
  825MOL0     C11246   6.007   8.348   3.759  0.0015 -0.0136 -0.6264
  825MOL0     C11247   6.123   8.418   3.712 -0.0975 -0.2229  0.8451
  825MOL0     O11248   6.244   8.363   3.730 -0.6476  0.2645 -1.0038
  825MOL0     C11249   6.352   8.373   3.644 -0.0067  1.1486  0.8488
  825MOL0     C11250   6.471   8.307   3.700 -0.4930  1.3220  0.0697
  825MOL0     C11251   6.595   8.313   3.607 -0.1503  0.0288 -0.0616
  825MOL0     C11252   6.578   8.203   3.500 -0.3887 -0.0563 -0.0935
  825MOL0     C11253   6.714   8.184   3.435 -0.6380 -0.0609 -0.7190
  825MOL0     C11254   6.699   8.121   3.291 -0.1993 -0.1552  0.5710
  825MOL0     C11255   6.825   8.134   3.197  0.2220 -0.0308  0.5035
  825MOL0     C11256   6.934   8.229   3.243 -0.4629 -0.3405 -1.0434
  825MOL0     N11257   7.036   8.249   3.127  1.3337 -0.6482 -0.1648
  825MOL0     C11258   7.104   8.150   3.059 -0.0370 -0.5110  0.1304
  825MOL0     C11259   7.192   8.217   2.975 -0.4067  0.6677  0.2522
  825MOL0     C11260   7.305   8.159   2.887 -0.3157 -0.5507  1.3754
  825MOL0     C11261   7.275   8.017   2.824 -0.3755 -0.7278  0.4035
  825MOL0     C11262   7.354   7.993   2.699  0.2755  0.3517 -0.2047
  825MOL0     C11263   7.507   7.972   2.731  0.3786 -0.4643 -0.8266
  825MOL0     O11264   7.567   7.901   2.618  0.2561  0.2735  0.4440
  825MOL0     C11265   7.697   7.861   2.634 -0.0306  0.4945 -0.6394
  825MOL0     C11266   7.748   7.799   2.523  0.5442 -0.0152 -0.3095
  825MOL0     C11267   7.876   7.749   2.523 -0.4128  0.1802 -0.6171
  825MOL0     C11268   7.955   7.758   2.639 -0.4365  0.1412 -1.1148
  825MOL0     C11269   8.106   7.735   2.629  0.7688 -0.6321 -0.4532
  825MOL0     O11270   8.189   7.738   2.742 -0.2665  0.0157 -0.0045
  825MOL0     C11271   8.323   7.724   2.728 -0.1453  0.5216  0.0150
  825MOL0     C11272   8.405   7.830   2.778  0.6173 -0.3535  0.5367
  825MOL0     C11273   8.543   7.813   2.787  0.1280 -1.2297  0.1051
  825MOL0     C11274   8.606   7.693   2.749 -0.3480  0.1888  0.4873
  825MOL0     O11275   8.739   7.678   2.784 -0.3014 -0.5085 -0.8362
  825MOL0     C11276   8.826   7.582   2.733 -0.0460 -0.8413  0.8037
  825MOL0     C11277   8.860   7.620   2.586  0.9078  0.1739  0.2080
  825MOL0     C11278   8.978   7.536   2.535  0.8668 -0.9568 -0.6206
  825MOL0     C11279   8.994   7.555   2.384  0.4481 -0.2666  0.2375
  825MOL0     C11280   9.114   7.496   2.321  0.0273 -0.8841  0.4249
  825MOL0     C11281   9.146   7.572   2.186 -0.5006  0.2415  0.4993
  825MOL0     C11282   9.269   7.515   2.120  0.5576  0.3581 -0.3309
  825MOL0     C11283   9.274   7.363   2.107  1.1271 -0.4720 -0.2244
  825MOL0    Cl11284   9.392   7.337   1.975 -0.7451  0.1318 -0.5586
  825MOL0     C11285   8.521   7.591   2.698  0.1177 -0.1672 -1.1011
  825MOL0     C11286   8.384   7.611   2.679  0.5745  0.6764  0.1386
  825MOL0     O11287   8.150   7.721   2.515 -0.7781 -0.4606 -0.1500
  825MOL0     C11288   7.900   7.812   2.759  0.1660  0.3025  0.0968
  825MOL0     C11289   7.777   7.867   2.747  1.1190  0.1866 -0.1222
  825MOL0     N11290   7.175   8.353   2.985 -0.1396 -0.0001 -0.2047
  825MOL0     N11291   7.082   8.369   3.066  0.3553  0.8642 -0.4481
  825MOL0     C11292   6.101   8.539   3.639 -0.1322 -0.0876  0.1054
  825MOL0     C11293   5.969   8.588   3.616 -0.3140  0.2297  0.1490
  825MOL0     C11294   5.534   8.582   3.510 -0.2714  0.2152 -0.2199
  825MOL0     C11295   5.463   8.661   3.588  0.2900  0.2859  0.2133
  825MOL0     C11296   5.353   8.734   3.536 -0.3302  0.2187  0.0738
  825MOL0     C11297   5.311   8.713   3.403  0.1412  1.4599 -0.8216
  825MOL0     O11298   5.200   8.757   3.342 -0.3029  0.1617  1.0108
  825MOL0     C11299   5.093   8.806   3.426  0.7661 -0.5735 -0.0191
  825MOL0     C11300   4.979   8.866   3.340 -0.3577 -1.3423  0.0057
  825MOL0     C11301   4.841   8.874   3.404  0.1250 -1.1982 -0.1640
  825MOL0     C11302   4.823   8.991   3.503 -0.5094  0.0400 -0.9512
  825MOL0     C11303   4.685   9.015   3.544  0.2043  0.1986 -0.0155
  825MOL0     C11304   4.570   9.020   3.573  0.6120 -0.8119 -0.0335
  825MOL0     C11305   5.390   8.628   3.325  0.1560 -0.5317  1.2406
  825MOL0     C11306   5.503   8.567   3.375  0.5148  0.4893  0.4263
  825MOL0     C11307   5.590   8.494   3.281  0.0107  0.0593 -0.0539
  825MOL0     H11308   5.793   8.360   3.790 -0.2560 -0.8915 -0.2280
  825MOL0     H11309   6.020   8.268   3.831 -0.0628  0.3900 -0.1693
  825MOL0     H11310   6.324   8.324   3.550  2.7503  2.7270 -0.9572
  825MOL0     H11311   6.378   8.475   3.612 -0.1595  1.1903  0.8552
  825MOL0     H11312   6.450   8.200   3.712  1.6760  1.0711  2.3011
  825MOL0     H11313   6.497   8.345   3.799  3.1698 -1.2656  0.3107
  825MOL0     H11314   6.681   8.290   3.669 -0.5182 -1.9320 -0.2183
  825MOL0     H11315   6.608   8.411   3.559  1.4893  1.1086  2.3849
  825MOL0     H11316   6.540   8.112   3.547  0.6961 -1.6732 -2.1623
  825MOL0     H11317   6.512   8.230   3.417  0.2847  3.9316  0.4590
  825MOL0     H11318   6.753   8.286   3.425 -1.2177 -0.0320 -3.5960
  825MOL0     H11319   6.785   8.128   3.496 -0.4151  0.1252 -0.8058
  825MOL0     H11320   6.657   8.020   3.304 -1.5020  0.2071 -0.5310
  825MOL0     H11321   6.627   8.187   3.242  1.6052  1.2006 -0.3573
  825MOL0     H11322   6.794   8.161   3.095  3.3900 -1.7061 -1.0497
  825MOL0     H11323   6.865   8.035   3.173  2.4482  1.6852 -4.1231
  825MOL0     H11324   6.902   8.326   3.280  1.5914 -0.3090  0.8641
  825MOL0     H11325   6.983   8.168   3.321  0.1671  0.4457 -0.8088
  825MOL0     H11326   7.082   8.044   3.073 -0.7969 -0.4974 -0.8966
  825MOL0     H11327   7.311   8.227   2.802 -0.4948 -2.8061 -0.5276
  825MOL0     H11328   7.402   8.155   2.938  0.5930  1.0775 -0.0995
  825MOL0     H11329   7.277   7.942   2.903 -0.4078 -0.2314  0.8816
  825MOL0     H11330   7.178   8.026   2.774  1.0898  1.7195 -2.3044
  825MOL0     H11331   7.343   8.071   2.623 -0.3227  0.0520 -0.4249
  825MOL0     H11332   7.322   7.902   2.649  0.7314 -1.0620  1.9581
  825MOL0     H11333   7.518   7.910   2.821 -0.1100 -0.4381 -0.7422
  825MOL0     H11334   7.558   8.067   2.748 -3.1995  1.5987 -0.5208
  825MOL0     H11335   7.690   7.800   2.432  1.2258 -0.4524 -0.7615
  825MOL0     H11336   7.931   7.719   2.435 -0.9615  3.1025 -2.0594
  825MOL0     H11337   8.352   7.919   2.812  0.1352  0.4226 -2.0015
  825MOL0     H11338   8.608   7.892   2.825 -0.9484 -0.8904  1.3016
  825MOL0     H11339   8.913   7.594   2.799 -0.4485  0.3737  1.1384
  825MOL0     H11340   8.782   7.482   2.740 -1.9118 -0.0007  1.7961
  825MOL0     H11341   8.773   7.603   2.522  0.9759  0.2269  0.1007
  825MOL0     H11342   8.892   7.725   2.587  2.2492 -0.1284 -2.5239
  825MOL0     H11343   9.065   7.554   2.599  0.2400 -1.4920  0.4082
  825MOL0     H11344   8.955   7.434   2.566 -0.2224 -0.4966  0.1705
  825MOL0     H11345   8.998   7.662   2.358 -0.7638 -0.2548  0.0480
  825MOL0     H11346   8.912   7.505   2.333 -1.0220  1.4133  0.8404
  825MOL0     H11347   9.090   7.393   2.297 -0.2890 -0.4300 -1.2879
  825MOL0     H11348   9.204   7.490   2.383  0.7689 -0.5140 -0.5880
  825MOL0     H11349   9.064   7.571   2.114  0.4182  2.6066 -0.6616
  825MOL0     H11350   9.175   7.676   2.201 -2.3086  1.2104 -2.0351
  825MOL0     H11351   9.360   7.548   2.170  0.4668 -1.8697  1.4310
  825MOL0     H11352   9.267   7.569   2.025 -1.3772 -1.8342 -1.6576
  825MOL0     H11353   9.309   7.324   2.203  0.8114  0.6218  0.3589
  825MOL0     H11354   9.173   7.333   2.080  1.0454  0.2098 -0.7130
  825MOL0     H11355   8.553   7.489   2.682 -0.1775 -0.0504 -2.6131
  825MOL0     H11356   8.328   7.520   2.661 -0.7697  1.6086 -0.5244
  825MOL0     H11357   7.963   7.841   2.843  1.0723  0.2742 -0.5604
  825MOL0     H11358   7.740   7.912   2.838 -2.5680 -3.7879  0.7094
  825MOL0     H11359   6.189   8.592   3.607  2.2324 -2.4652  2.1452
  825MOL0     H11360   5.953   8.689   3.578  0.1378  1.4869  3.0118
  825MOL0     H11361   5.489   8.669   3.693 -1.4005 -2.1465  0.8881
  825MOL0     H11362   5.287   8.790   3.601  0.7819 -0.5879  1.9621
  825MOL0     H11363   5.125   8.875   3.505 -0.1531 -0.8243  0.5826
  825MOL0     H11364   5.055   8.716   3.476  0.5206 -1.2365 -1.3606
  825MOL0     H11365   4.968   8.800   3.254 -2.6949 -2.0176  0.7294
  825MOL0     H11366   5.010   8.961   3.296  0.8678 -2.1229 -0.8711
  825MOL0     H11367   4.817   8.778   3.450  1.9354 -1.3773  0.4868
  825MOL0     H11368   4.768   8.900   3.326 -2.3027  0.2129  2.3714
  825MOL0     H11369   4.889   8.984   3.590 -0.3384 -0.2079 -1.0984
  825MOL0     H11370   4.847   9.088   3.458 -0.9685  0.6059 -0.0089
  825MOL0     H11371   4.467   9.021   3.603  0.1643 -0.1439 -1.4932
  825MOL0     H11372   5.360   8.623   3.221  0.1589 -0.1782  1.2238
  825MOL0     H11373   5.697   8.510   3.302 -0.7956  1.3214  4.0269
  825MOL0     H11374   5.556   8.391   3.297 -3.4561  1.1556  0.3241
  825MOL0     H11375   5.567   8.512   3.176  2.1649  0.7999 -0.4639
  826MOL0     O11376  11.133   7.680   0.919  0.3264  0.3239 -0.0899
  826MOL0     C11377  11.149   7.564   0.894  0.3972  0.1269 -0.0361
  826MOL0     O11378  11.058   7.476   0.840  0.5542 -0.3940 -0.9995
  826MOL0     C11379  10.920   7.505   0.843  0.0606  0.4570 -0.2900
  826MOL0     C11380  10.846   7.462   0.737 -0.0196 -0.4016  0.6497
  826MOL0     C11381  10.709   7.504   0.732 -0.0454  0.8409  0.5007
  826MOL0     C11382  10.643   7.580   0.831  0.6594 -0.4496 -0.2632
  826MOL0     O11383  10.511   7.627   0.833  0.4798 -0.2067  0.5627
  826MOL0     C11384  10.486   7.737   0.738  0.7938 -0.0081 -0.1679
  826MOL0     C11385  10.352   7.809   0.779  0.2839 -0.3141 -0.0002
  826MOL0     C11386  10.230   7.726   0.733 -0.3265  0.4076 -0.3230
  826MOL0     C11387  10.098   7.798   0.745  0.2200  0.0418  0.9062
  826MOL0     C11388   9.992   7.727   0.661  0.6720  0.4303 -0.3144
  826MOL0     C11389   9.858   7.797   0.690 -0.2511 -0.4735  0.1140
  826MOL0     C11390   9.730   7.726   0.625 -0.6068  0.5937 -0.2646
  826MOL0     C11391   9.589   7.785   0.662 -0.1450 -0.6832  0.1503
  826MOL0     N11392   9.558   7.898   0.581 -0.2204  0.1543 -0.0955
  826MOL0     C11393   9.495   7.873   0.471 -0.0809 -0.7580  0.6664
  826MOL0     C11394   9.485   7.994   0.407  0.2523  0.2725  0.7981
  826MOL0     C11395   9.433   8.031   0.269  0.4598  0.4223 -0.5626
  826MOL0     C11396   9.560   8.073   0.188  0.4667 -0.2098  0.2631
  826MOL0     C11397   9.533   8.093   0.038 -0.1034  0.8342  0.2998
  826MOL0     C11398   9.532   7.966  -0.045 -0.1352 -0.4747  0.8517
  826MOL0     O11399   9.653   7.888  -0.036  0.4529  0.9430  0.4193
  826MOL0     C11400   9.763   7.923  -0.109  0.2684 -0.7481  0.4786
  826MOL0     C11401   9.884   7.858  -0.093  0.1126 -1.0682 -0.0967
  826MOL0     C11402  10.002   7.901  -0.153 -0.1213  0.2147 -0.4733
  826MOL0     C11403   9.997   8.003  -0.245  0.7601 -0.3177 -0.2623
  826MOL0     C11404  10.114   8.019  -0.329 -0.3002 -0.2407 -0.3239
  826MOL0     O11405  10.210   7.916  -0.330  0.2154  0.4204 -0.6999
  826MOL0     C11406  10.329   7.925  -0.391  0.7443 -0.6234  0.5743
  826MOL0     C11407  10.333   7.915  -0.531  0.5339 -1.0119 -0.2342
  826MOL0     C11408  10.451   7.933  -0.600  0.3870  0.9272  0.4794
  826MOL0     C11409  10.578   7.938  -0.538  0.9075  0.1566 -0.6722
  826MOL0     O11410  10.690   7.921  -0.610  0.0553 -0.5472 -0.0820
  826MOL0     C11411  10.791   7.839  -0.555  0.4762 -0.7227 -0.7403
  826MOL0     C11412  10.880   7.785  -0.669  0.6009  0.9267  0.7746
  826MOL0     C11413  11.024   7.736  -0.626 -1.2096  0.2753  0.3566
  826MOL0     C11414  11.140   7.745  -0.731  0.2241 -0.3523  0.8212
  826MOL0     C11415  11.276   7.709  -0.678  0.1826 -0.1091 -0.2148
  826MOL0     C11416  11.299   7.559  -0.643 -0.3624  0.6403  0.1178
  826MOL0     C11417  11.400   7.528  -0.535 -0.4300  0.1187  0.8489
  826MOL0     C11418  11.441   7.381  -0.534 -0.6652  0.6673 -0.1272
  826MOL0    Cl11419  11.565   7.355  -0.409  0.5525 -0.0164  0.2373
  826MOL0     C11420  10.571   7.937  -0.399  0.4331  0.1882 -0.4670
  826MOL0     C11421  10.454   7.920  -0.327 -0.0194 -0.7063 -1.2275
  826MOL0     O11422  10.133   8.123  -0.394  0.1745  0.1248  0.3183
  826MOL0     C11423   9.879   8.076  -0.259 -0.9955 -0.8347  0.1073
  826MOL0     C11424   9.767   8.039  -0.189 -0.1646  0.0055 -0.5753
  826MOL0     N11425   9.554   8.083   0.491  0.0336 -0.5298  0.2405
  826MOL0     N11426   9.592   8.026   0.600 -0.3436  0.5189  0.2294
  826MOL0     C11427  10.719   7.608   0.945 -0.9556  0.1807  0.0991
  826MOL0     C11428  10.858   7.572   0.947 -0.5035 -0.1610 -0.7591
  826MOL0     C11429  11.289   7.509   0.902 -0.1209  0.4016 -0.1646
  826MOL0     C11430  11.334   7.398   0.826 -0.8706 -0.5072 -0.8607
  826MOL0     C11431  11.464   7.349   0.828  0.1603  0.8869  0.4907
  826MOL0     C11432  11.556   7.406   0.913  0.5289  0.5484 -0.7620
  826MOL0     O11433  11.672   7.338   0.933 -0.2016  0.1675  0.4012
  826MOL0     C11434  11.789   7.409   0.884  0.1358  0.8711  0.4401
  826MOL0     C11435  11.891   7.301   0.846 -0.4145 -0.3872  0.0838
  826MOL0     C11436  11.848   7.207   0.731  0.2106 -0.2009 -0.1424
  826MOL0     C11437  11.967   7.125   0.659  0.7908 -0.1568  1.3811
  826MOL0     C11438  12.049   7.064   0.761 -0.5305  0.3178 -0.0767
  826MOL0     C11439  12.104   6.997   0.849 -0.5130 -0.9174  0.9444
  826MOL0     C11440  11.509   7.504   1.006  0.8623 -0.0407  0.1336
  826MOL0     C11441  11.384   7.564   0.997 -0.4620  0.1835  0.1273
  826MOL0     C11442  11.346   7.681   1.092 -0.2245 -0.1483 -0.6159
  826MOL0     H11443  10.893   7.408   0.655  1.4802  0.5699  0.8369
  826MOL0     H11444  10.666   7.467   0.639  0.4604  3.0679 -0.7048
  826MOL0     H11445  10.566   7.812   0.745 -2.4252  3.5796  4.5929
  826MOL0     H11446  10.471   7.699   0.637  4.3414 -0.5798 -0.6021
  826MOL0     H11447  10.355   7.906   0.729 -0.8669  0.4023  1.2383
  826MOL0     H11448  10.349   7.815   0.888 -2.7188 -1.1893  0.0696
  826MOL0     H11449  10.231   7.633   0.790 -0.0682  1.2656  1.1091
  826MOL0     H11450  10.250   7.701   0.628  1.9969 -0.3606  0.2459
  826MOL0     H11451  10.067   7.819   0.848  1.3680  1.4062  0.9854
  826MOL0     H11452  10.105   7.897   0.699 -1.6451 -0.7063 -1.1674
  826MOL0     H11453  10.003   7.730   0.552  2.0954  1.2717 -0.1717
  826MOL0     H11454   9.985   7.631   0.713 -1.2693  1.0336  0.6541
  826MOL0     H11455   9.842   7.805   0.798 -1.9875 -0.1322 -0.1396
  826MOL0     H11456   9.852   7.900   0.654 -2.6079 -1.4767 -2.7394
  826MOL0     H11457   9.730   7.620   0.652 -1.7303  0.9801  1.3644
  826MOL0     H11458   9.751   7.728   0.518  2.5802 -0.0514  0.2514
  826MOL0     H11459   9.511   7.708   0.662 -2.8202  1.8186 -1.4696
  826MOL0     H11460   9.603   7.824   0.764 -0.3987  1.8084 -0.6989
  826MOL0     H11461   9.465   7.780   0.425  1.3245 -0.3384 -1.1801
  826MOL0     H11462   9.383   7.943   0.227 -1.0594  1.3977 -0.8761
  826MOL0     H11463   9.355   8.107   0.277 -0.0630 -0.2006  0.3739
  826MOL0     H11464   9.616   8.162   0.218  3.2379 -2.4182  2.2128
  826MOL0     H11465   9.637   7.995   0.192  1.1808  0.1661 -3.0997
  826MOL0     H11466   9.614   8.158   0.003 -0.5285  0.3960 -1.5687
  826MOL0     H11467   9.437   8.144   0.029 -0.8424 -0.5217  0.2178
  826MOL0     H11468   9.504   7.991  -0.148  0.4077  0.4991  0.9254
  826MOL0     H11469   9.450   7.897  -0.021 -0.4776 -0.2426  0.3653
  826MOL0     H11470   9.888   7.766  -0.036  0.1984 -1.3603 -0.5764
  826MOL0     H11471  10.091   7.843  -0.129 -0.6992 -0.1548  0.8838
  826MOL0     H11472  10.240   7.904  -0.586 -1.5761  1.2495  2.5664
  826MOL0     H11473  10.445   7.952  -0.706  3.7614 -1.3290 -0.2999
  826MOL0     H11474  10.853   7.906  -0.494 -1.8062 -0.8829  1.9513
  826MOL0     H11475  10.753   7.754  -0.497  1.1442 -1.2301 -1.0312
  826MOL0     H11476  10.848   7.699  -0.728 -0.0048  1.1173  0.8284
  826MOL0     H11477  10.901   7.866  -0.738  0.8069 -0.5603 -0.9820
  826MOL0     H11478  11.060   7.791  -0.538  2.3338 -1.0411 -0.0855
  826MOL0     H11479  11.013   7.632  -0.594 -1.3429  0.8642  2.3377
  826MOL0     H11480  11.134   7.840  -0.785  1.9327 -1.8997 -2.3856
  826MOL0     H11481  11.122   7.674  -0.813  2.7649  0.6213 -0.7091
  826MOL0     H11482  11.292   7.766  -0.586  0.0651 -1.7881  0.9021
  826MOL0     H11483  11.354   7.742  -0.746 -0.1552  0.7764 -0.1886
  826MOL0     H11484  11.206   7.522  -0.599 -1.0210  0.7481 -1.1399
  826MOL0     H11485  11.313   7.510  -0.740  1.6681  2.7523 -0.7559
  826MOL0     H11486  11.359   7.548  -0.436 -1.1179  0.3556  0.5209
  826MOL0     H11487  11.483   7.598  -0.545 -1.6564  1.3686 -1.1662
  826MOL0     H11488  11.353   7.320  -0.511 -0.9137  2.3560  4.1760
  826MOL0     H11489  11.478   7.355  -0.634 -0.8273 -1.5243  0.3385
  826MOL0     H11490  10.666   7.934  -0.346  0.1340 -1.4926  0.0113
  826MOL0     H11491  10.450   7.925  -0.219  1.9101 -4.2944 -0.8418
  826MOL0     H11492   9.865   8.162  -0.324  1.2916  0.1125  0.7791
  826MOL0     H11493   9.675   8.095  -0.197 -0.0072  0.0828 -1.9410
  826MOL0     H11494  10.674   7.667   1.024 -2.3874  1.2299 -1.4034
  826MOL0     H11495  10.925   7.594   1.029  0.1906 -1.4863 -0.9299
  826MOL0     H11496  11.265   7.352   0.756  2.4234 -1.8633 -3.4714
  826MOL0     H11497  11.488   7.262   0.768 -2.5255  1.1301 -1.0861
  826MOL0     H11498  11.837   7.464   0.966  0.7139 -1.7726  2.0080
  826MOL0     H11499  11.775   7.474   0.797  1.1331  0.4921 -0.0156
  826MOL0     H11500  11.911   7.238   0.933  3.6145  0.3012 -0.1396
  826MOL0     H11501  11.983   7.354   0.817 -1.8436  1.6779 -0.9537
  826MOL0     H11502  11.798   7.265   0.653 -1.9688 -0.9322  0.6373
  826MOL0     H11503  11.774   7.134   0.764 -0.5543  0.1210 -1.1159
  826MOL0     H11504  11.923   7.053   0.589  1.8488  0.0083  0.5127
  826MOL0     H11505  12.021   7.205   0.607  1.0824  0.9350  3.2819
  826MOL0     H11506  12.163   6.946   0.922  0.9334  0.2377  0.6450
  826MOL0     H11507  11.583   7.547   1.073  0.2707 -2.9982  2.9480
  826MOL0     H11508  11.360   7.774   1.038 -0.1766 -1.3676 -2.8130
  826MOL0     H11509  11.243   7.675   1.130 -0.9197  2.5890 -1.8825
  826MOL0     H11510  11.403   7.682   1.186  1.1783  0.2599 -1.4443
  827MOL0     O11511   1.541   7.087  10.210  0.3563 -0.4463 -0.5971
  827MOL0     C11512   1.459   7.111  10.295  0.0670 -0.2546  0.6188
  827MOL0     O11513   1.337   7.183  10.268  0.3911 -0.4617 -0.3544
  827MOL0     C11514   1.319   7.238  10.143  0.1365 -0.1030 -0.1601
  827MOL0     C11515   1.412   7.319  10.091 -0.3530  0.4220  0.0270
  827MOL0     C11516   1.394   7.376   9.967  0.1835 -0.3145 -0.0376
  827MOL0     C11517   1.276   7.352   9.896  0.2651  0.4216  0.2623
  827MOL0     O11518   1.266   7.411   9.769  0.6428  0.4939  0.1346
  827MOL0     C11519   1.276   7.554   9.766 -0.1881  0.1350 -0.1325
  827MOL0     C11520   1.138   7.628   9.749 -0.2522  0.2995  0.0925
  827MOL0     C11521   1.018   7.558   9.815 -0.7804  0.0770 -0.2254
  827MOL0     C11522   0.888   7.646   9.811 -0.1228 -0.0964  0.3976
  827MOL0     C11523   0.756   7.578   9.827  0.5987  0.1951  0.5454
  827MOL0     C11524   0.729   7.493   9.704 -0.4395  0.4505 -1.1234
  827MOL0     C11525   0.578   7.490   9.670  0.2056  0.1071  0.1965
  827MOL0     C11526   0.543   7.599   9.572 -0.3214  0.0404 -0.2852
  827MOL0     N11527   0.393   7.615   9.549 -0.4753 -0.0363  0.1491
  827MOL0     C11528   0.331   7.557   9.443 -0.2179 -0.8227  1.2426
  827MOL0     C11529   0.206   7.608   9.442 -0.1988 -0.1368 -0.4018
  827MOL0     C11530   0.089   7.577   9.353  0.5625  0.6369  0.0160
  827MOL0     C11531  -0.030   7.680   9.349 -0.2170 -0.4035 -0.1975
  827MOL0     C11532  -0.146   7.638   9.252  0.4488  0.7984  0.5151
  827MOL0     C11533  -0.233   7.514   9.292  0.1694 -0.1236  0.8398
  827MOL0     O11534  -0.153   7.398   9.314 -0.8294  0.6493 -0.0395
  827MOL0     C11535  -0.211   7.271   9.320 -0.7270  0.0028  0.1276
  827MOL0     C11536  -0.118   7.158   9.301  0.1097 -0.5306 -1.4026
  827MOL0     C11537  -0.160   7.025   9.311  1.0416 -0.0265 -0.9582
  827MOL0     C11538  -0.299   6.999   9.342  0.8153  0.3255 -0.4631
  827MOL0     C11539  -0.342   6.855   9.356 -0.1695 -0.3401  1.1002
  827MOL0     O11540  -0.258   6.767   9.302  0.4505 -0.8963 -0.7314
  827MOL0     C11541  -0.275   6.625   9.302 -0.0084 -0.5019 -0.5377
  827MOL0     C11542  -0.238   6.554   9.186  0.6837 -0.6371  0.5383
  827MOL0     C11543  -0.259   6.414   9.183  0.3990  0.6866  1.3887
  827MOL0     C11544  -0.322   6.349   9.283 -0.4681  0.0671  0.3409
  827MOL0     O11545  -0.339   6.215   9.278 -0.9041  0.0635  0.1245
  827MOL0     C11546  -0.223   6.129   9.262 -0.2379  0.7758  0.8985
  827MOL0     C11547  -0.156   6.102   9.403  0.1900 -0.3002 -0.4909
  827MOL0     C11548  -0.047   5.995   9.399 -0.4871 -0.3334  0.8342
  827MOL0     C11549  -0.108   5.855   9.401  0.5016 -0.1116 -0.1162
  827MOL0     C11550  -0.012   5.741   9.353 -0.3636 -0.9810 -0.2213
  827MOL0     C11551  -0.056   5.597   9.341  0.3459 -0.4321  0.0061
  827MOL0     C11552  -0.113   5.539   9.474 -0.2488  0.0172 -0.2970
  827MOL0     C11553  -0.067   5.396   9.489 -0.5888  0.6521 -0.8364
  827MOL0    Cl11554  -0.101   5.302   9.341  0.0194  0.1297  0.0333
  827MOL0     C11555  -0.371   6.425   9.394  0.1670  0.2813  0.3418
  827MOL0     C11556  -0.344   6.557   9.405 -0.4268 -0.1492 -0.1238
  827MOL0     O11557  -0.454   6.835   9.388  0.0397 -0.5633 -0.5735
  827MOL0     C11558  -0.385   7.103   9.358  0.1377  0.0031  1.2062
  827MOL0     C11559  -0.340   7.241   9.349  0.4033  0.5044 -0.7262
  827MOL0     N11560   0.204   7.705   9.537 -0.2712  0.6322 -0.3752
  827MOL0     N11561   0.312   7.706   9.605  0.5124  0.6823 -0.1846
  827MOL0     C11562   1.177   7.263   9.948 -0.8137 -0.8519  1.0330
  827MOL0     C11563   1.198   7.215  10.071  0.0924  0.2164 -0.6295
  827MOL0     C11564   1.495   7.083  10.444  0.0066  0.3967  0.3045
  827MOL0     C11565   1.395   7.104  10.542  0.6678 -0.3129  0.0982
  827MOL0     C11566   1.416   7.067  10.668 -0.3316  1.0003 -0.9284
  827MOL0     C11567   1.545   7.013  10.714  0.2730 -0.0612 -0.4260
  827MOL0     O11568   1.562   6.948  10.835  0.5664  0.2813  0.7393
  827MOL0     C11569   1.446   6.955  10.926  0.8878  0.0454  0.3229
  827MOL0     C11570   1.466   6.856  11.040  0.1435  0.1936 -0.7494
  827MOL0     C11571   1.599   6.859  11.104  0.7199  0.0372 -0.4684
  827MOL0     C11572   1.594   6.768  11.230 -0.1465 -0.5545 -0.2493
  827MOL0     C11573   1.729   6.754  11.286 -0.4879 -0.5544 -0.1826
  827MOL0     C11574   1.844   6.750  11.334  0.2528  0.2029 -0.1223
  827MOL0     C11575   1.650   6.991  10.623  0.2886 -0.3015  0.3160
  827MOL0     C11576   1.616   7.016  10.488 -1.6388  0.2195  0.1190
  827MOL0     C11577   1.714   6.957  10.386  0.4051  0.0208  0.2459
  827MOL0     H11578   1.500   7.342  10.150  0.9889 -1.3528 -1.1908
  827MOL0     H11579   1.473   7.439   9.928 -0.5197  2.7499  2.9932
  827MOL0     H11580   1.326   7.593   9.855  1.3461 -1.0523 -0.4330
  827MOL0     H11581   1.335   7.570   9.675 -2.2660 -1.4631 -1.8687
  827MOL0     H11582   1.122   7.641   9.642 -0.5506  1.1737  0.2350
  827MOL0     H11583   1.154   7.728   9.791 -2.5875  2.7274 -4.1240
  827MOL0     H11584   1.041   7.532   9.919 -0.4372  0.0455 -0.3088
  827MOL0     H11585   0.998   7.471   9.753 -1.9420 -0.7322  1.2320
  827MOL0     H11586   0.896   7.720   9.891  2.1291 -2.1585  2.2430
  827MOL0     H11587   0.886   7.693   9.713  1.5018 -0.1763  0.2901
  827MOL0     H11588   0.755   7.514   9.916  3.1992 -1.3875 -0.4134
  827MOL0     H11589   0.677   7.651   9.846 -0.6881 -0.5572 -1.5757
  827MOL0     H11590   0.798   7.522   9.624 -0.7688 -2.7966 -2.7563
  827MOL0     H11591   0.757   7.388   9.716  0.4188  0.7361 -0.4803
  827MOL0     H11592   0.521   7.506   9.762 -0.9347 -0.3142 -0.4161
  827MOL0     H11593   0.555   7.393   9.625  2.3754  0.4166 -1.7793
  827MOL0     H11594   0.571   7.696   9.614 -0.3742  0.3811 -1.0237
  827MOL0     H11595   0.595   7.595   9.476  0.2807  0.5104  0.0103
  827MOL0     H11596   0.372   7.472   9.389 -0.7637 -1.9348  2.5502
  827MOL0     H11597   0.121   7.571   9.249  3.8606 -0.1877  0.9507
  827MOL0     H11598   0.060   7.479   9.391  3.2856  0.7755  2.9061
  827MOL0     H11599  -0.075   7.693   9.448  0.4236  0.2529  0.0162
  827MOL0     H11600   0.003   7.779   9.316  0.2338 -1.3169 -2.6869
  827MOL0     H11601  -0.104   7.612   9.154 -1.5853  2.1773 -0.7825
  827MOL0     H11602  -0.213   7.722   9.231 -0.6453 -0.2416 -0.3137
  827MOL0     H11603  -0.311   7.487   9.220  0.5713 -0.9601  0.7066
  827MOL0     H11604  -0.269   7.544   9.390  0.9616  1.2793  0.7237
  827MOL0     H11605  -0.011   7.170   9.292  0.1917  0.9690  0.8915
  827MOL0     H11606  -0.099   6.939   9.286  2.0485  0.7595 -1.2526
  827MOL0     H11607  -0.189   6.613   9.109  0.1651  2.3903  2.3560
  827MOL0     H11608  -0.224   6.346   9.106  0.2948  2.2584 -0.1117
  827MOL0     H11609  -0.241   6.033   9.213  0.3761  0.3062  1.5573
  827MOL0     H11610  -0.146   6.172   9.197 -0.9353  0.2347 -0.3128
  827MOL0     H11611  -0.114   6.197   9.438  1.6840 -0.6548 -1.2381
  827MOL0     H11612  -0.232   6.064   9.473  0.0276  0.6754 -0.1221
  827MOL0     H11613   0.007   6.003   9.305  0.0255  1.9888  1.2733
  827MOL0     H11614   0.022   6.010   9.483 -1.0871 -0.4503  1.3515
  827MOL0     H11615  -0.190   5.835   9.331  0.5283  0.8244 -0.4285
  827MOL0     H11616  -0.133   5.844   9.507  0.7361  2.1799  0.2318
  827MOL0     H11617   0.073   5.737   9.422  1.0253 -1.2042 -1.8761
  827MOL0     H11618   0.018   5.776   9.254 -0.9775 -3.3014 -1.2921
  827MOL0     H11619  -0.132   5.589   9.263  0.1222 -1.1648  0.2952
  827MOL0     H11620   0.030   5.542   9.300  0.0331  0.1059 -1.4610
  827MOL0     H11621  -0.222   5.537   9.465 -0.2644 -0.6226 -0.0435
  827MOL0     H11622  -0.089   5.583   9.571 -1.8004 -1.6251  0.8951
  827MOL0     H11623   0.040   5.389   9.509 -0.1689  0.6444 -2.8728
  827MOL0     H11624  -0.122   5.352   9.573  1.0688 -0.7381 -0.4216
  827MOL0     H11625  -0.419   6.386   9.483  0.0215  1.2744  0.7077
  827MOL0     H11626  -0.374   6.598   9.500  2.6497 -0.6016  1.1700
  827MOL0     H11627  -0.490   7.084   9.378 -0.7925  1.6748 -1.5225
  827MOL0     H11628  -0.409   7.322   9.367  2.0888  1.5468  1.5653
  827MOL0     H11629   1.078   7.246   9.906  1.4245 -0.8009 -5.4619
  827MOL0     H11630   1.121   7.149  10.108  0.1767  0.9120  0.8534
  827MOL0     H11631   1.295   7.134  10.514  1.7522  2.0695 -1.6236
  827MOL0     H11632   1.323   7.064  10.724 -0.7197 -1.1878 -1.5898
  827MOL0     H11633   1.358   6.914  10.876  1.9478 -0.6460 -1.0490
  827MOL0     H11634   1.416   7.056  10.955 -4.9152 -0.4689 -2.4810
  827MOL0     H11635   1.449   6.751  11.015 -0.8169  0.0164  0.5420
  827MOL0     H11636   1.389   6.879  11.114 -0.1477  0.0643 -1.0073
  827MOL0     H11637   1.634   6.955  11.141 -0.2250 -1.1711  4.1684
  827MOL0     H11638   1.674   6.812  11.040  2.9785  0.2497  1.8693
  827MOL0     H11639   1.529   6.814  11.305 -0.0097 -2.3192  1.0346
  827MOL0     H11640   1.564   6.664  11.215 -0.1519 -0.5830 -0.0469
  827MOL0     H11641   1.944   6.732  11.367  2.5682  5.0958 -3.3646
  827MOL0     H11642   1.743   6.948  10.659  0.2075 -0.4980  0.2918
  827MOL0     H11643   1.743   7.028  10.307 -3.4089  1.6811  0.1356
  827MOL0     H11644   1.797   6.914  10.443 -0.1449 -0.1839  0.9091
  827MOL0     H11645   1.663   6.867  10.352 -1.9223  0.0977  3.1456
  828MOL0     O11646   9.347   8.299   9.871 -0.2261  0.2937  0.8842
  828MOL0     C11647   9.279   8.397   9.855 -0.2291  0.0149 -0.5957
  828MOL0     O11648   9.141   8.401   9.879  0.0711 -0.2303 -0.8923
  828MOL0     C11649   9.077   8.281   9.902  0.0290  0.3145 -0.4843
  828MOL0     C11650   8.989   8.277  10.014  0.0350  0.5714  0.2387
  828MOL0     C11651   8.912   8.162  10.035 -0.6555 -0.1796  0.8098
  828MOL0     C11652   8.912   8.061   9.938 -0.1529  0.5850 -0.2369
  828MOL0     O11653   8.842   7.948   9.965 -0.4562  0.2677  0.4358
  828MOL0     C11654   8.887   7.822   9.913  0.2649 -0.5625 -0.2545
  828MOL0     C11655   8.803   7.694   9.937  0.0415 -0.2178  0.1575
  828MOL0     C11656   8.816   7.679  10.088 -0.1792  0.3074 -0.7815
  828MOL0     C11657   8.685   7.725  10.161 -0.2846  0.8468 -0.3431
  828MOL0     C11658   8.674   7.678  10.313  0.6067 -0.0804  0.0762
  828MOL0     C11659   8.786   7.733  10.400 -0.1948  0.3899  0.1594
  828MOL0     C11660   8.766   7.714  10.543 -0.2080  1.0639  0.1431
  828MOL0     C11661   8.885   7.755  10.634 -0.4659  0.2874  0.3255
  828MOL0     N11662   8.845   7.777  10.769  1.1328 -1.1895  0.2479
  828MOL0     C11663   8.814   7.680  10.857 -0.6650  1.3114  0.2175
  828MOL0     C11664   8.805   7.737  10.980  0.0534 -0.4990 -0.1993
  828MOL0     C11665   8.779   7.670  11.108  0.1619  0.8686  0.2935
  828MOL0     C11666   8.632   7.635  11.140 -0.4846  0.5923  0.1167
  828MOL0     C11667   8.548   7.580  11.032 -0.5044 -0.8100  0.1056
  828MOL0     C11668   8.399   7.556  11.069  0.5765  0.9323  0.7552
  828MOL0     O11669   8.349   7.679  11.116  0.3563  0.0965 -0.2009
  828MOL0     C11670   8.213   7.681  11.153 -0.2520  0.4591  0.6999
  828MOL0     C11671   8.114   7.603  11.084  0.0854  0.1350  0.2850
  828MOL0     C11672   7.984   7.604  11.134 -0.7287  0.1866  0.0851
  828MOL0     C11673   7.950   7.695  11.239 -0.3438  0.0197  0.1411
  828MOL0     C11674   7.807   7.704  11.282  0.1060 -0.8552 -0.6330
  828MOL0     O11675   7.777   7.748  11.410 -0.1397 -0.7853  0.0864
  828MOL0     C11676   7.662   7.700  11.474  0.2547  0.3873 -0.2683
  828MOL0     C11677   7.638   7.560  11.484 -0.7565 -0.0019  0.0995
  828MOL0     C11678   7.534   7.514  11.554 -0.4783  0.8677 -0.4367
  828MOL0     C11679   7.439   7.595  11.615  0.2177  0.1788  0.4803
  828MOL0     O11680   7.330   7.536  11.683  0.0216  0.3269  0.3193
  828MOL0     C11681   7.222   7.621  11.729 -0.6890 -0.2038  1.0441
  828MOL0     C11682   7.137   7.534  11.824 -0.6796 -0.3422  0.9669
  828MOL0     C11683   7.021   7.623  11.884 -0.2127 -0.2945 -0.4390
  828MOL0     C11684   6.917   7.540  11.953  0.1857  0.3053  0.4623
  828MOL0     C11685   6.813   7.634  12.014  0.1542  0.4298 -0.1564
  828MOL0     C11686   6.704   7.551  12.080 -0.3150 -0.6045 -1.1117
  828MOL0     C11687   6.610   7.651  12.146  1.1621 -0.1478 -0.3838
  828MOL0     C11688   6.479   7.576  12.194 -0.4574 -0.7194 -0.2100
  828MOL0    Cl11689   6.402   7.476  12.075  0.2517 -0.3101 -0.1749
  828MOL0     C11690   7.459   7.731  11.598  0.5799 -0.0982  0.1666
  828MOL0     C11691   7.568   7.792  11.524 -0.3532  0.6561  1.0980
  828MOL0     O11692   7.727   7.660  11.196  0.0397 -0.6348  0.0653
  828MOL0     C11693   8.046   7.784  11.290 -0.4371 -0.0524 -0.1877
  828MOL0     C11694   8.176   7.766  11.255 -0.1070  0.2706  0.7531
  828MOL0     N11695   8.829   7.873  10.960  0.5508  0.2968 -0.9196
  828MOL0     N11696   8.844   7.903  10.836  0.3422 -0.8555 -0.2311
  828MOL0     C11697   9.001   8.068   9.828 -0.0686 -0.0817 -0.6547
  828MOL0     C11698   9.079   8.181   9.813  0.6944  0.2657  0.6772
  828MOL0     C11699   9.353   8.524   9.840 -0.5651 -0.1663  0.5901
  828MOL0     C11700   9.276   8.647   9.823 -0.6805  0.1499  0.3023
  828MOL0     C11701   9.339   8.769   9.826 -0.5346 -0.1714  0.4011
  828MOL0     C11702   9.479   8.782   9.822 -1.5806 -1.2343  0.5775
  828MOL0     O11703   9.549   8.900   9.809  0.0787  0.6222 -0.3950
  828MOL0     C11704   9.501   9.026   9.760  0.4278  0.1038 -0.1199
  828MOL0     C11705   9.475   9.017   9.613 -0.6614  0.2650 -0.7145
  828MOL0     C11706   9.445   9.163   9.562 -0.8348  0.1263  0.6604
  828MOL0     C11707   9.456   9.193   9.409  0.7949  0.9090  0.8275
  828MOL0     C11708   9.536   9.309   9.383  0.2168  0.2818  0.0167
  828MOL0     C11709   9.600   9.402   9.347  0.6594  0.2205 -0.5818
  828MOL0     C11710   9.554   8.666   9.822  0.3016  0.2081  0.0752
  828MOL0     C11711   9.498   8.540   9.840  0.1427  0.0383 -0.0856
  828MOL0     C11712   9.600   8.428   9.852  0.1782 -1.1530  0.2687
  828MOL0     H11713   8.983   8.357  10.086 -1.7166 -0.1784  0.9838
  828MOL0     H11714   8.844   8.157  10.120 -2.9553  2.0216 -0.7454
  828MOL0     H11715   8.898   7.828   9.804  1.6090  0.8090 -0.0647
  828MOL0     H11716   8.989   7.812   9.950  0.2370 -0.1906 -0.0773
  828MOL0     H11717   8.837   7.615   9.871  0.7551  1.0451 -1.0452
  828MOL0     H11718   8.704   7.723   9.900  0.2000  0.5733  0.3228
  828MOL0     H11719   8.907   7.729  10.123  0.2857 -0.1837 -1.2838
  828MOL0     H11720   8.843   7.576  10.114  2.5738  0.9072 -0.9464
  828MOL0     H11721   8.679   7.835  10.160  0.1157  0.8735 -0.0319
  828MOL0     H11722   8.598   7.689  10.106  0.6199  1.2265 -2.0881
  828MOL0     H11723   8.580   7.703  10.361  0.0076 -2.0730  0.0437
  828MOL0     H11724   8.679   7.568  10.311  1.1396 -0.0607 -1.2307
  828MOL0     H11725   8.884   7.692  10.374 -1.0975 -0.5451 -2.0521
  828MOL0     H11726   8.789   7.840  10.378 -4.0571  1.0704  1.9918
  828MOL0     H11727   8.736   7.611  10.561 -1.3283  1.6520  2.0362
  828MOL0     H11728   8.674   7.762  10.580 -2.2167 -3.5744  2.0340
  828MOL0     H11729   8.971   7.688  10.632  0.3248  1.0706  2.9504
  828MOL0     H11730   8.918   7.853  10.599 -0.5622  0.5810  1.0347
  828MOL0     H11731   8.808   7.575  10.829 -0.7746  1.5174 -0.5428
  828MOL0     H11732   8.822   7.570  11.108 -1.5744  0.0933  0.1151
  828MOL0     H11733   8.825   7.721  11.193  1.5333  1.3600 -0.7022
  828MOL0     H11734   8.635   7.553  11.213  3.2245 -0.1606 -0.6764
  828MOL0     H11735   8.585   7.721  11.189 -1.9631  1.3236 -2.4244
  828MOL0     H11736   8.570   7.483  10.986 -2.3510 -0.4467 -1.7442
  828MOL0     H11737   8.551   7.651  10.949 -4.9773  1.1899  1.3236
  828MOL0     H11738   8.397   7.480  11.148  0.0262  2.2011  1.9975
  828MOL0     H11739   8.347   7.514  10.982 -0.1174 -1.1423  2.1104
  828MOL0     H11740   8.129   7.533  11.003 -0.1022 -2.6495  2.5151
  828MOL0     H11741   7.919   7.530  11.089 -0.1305 -2.3401  2.9975
  828MOL0     H11742   7.708   7.487  11.446 -0.3980  0.6236 -0.4685
  828MOL0     H11743   7.527   7.406  11.568  0.6952  0.5915 -1.7262
  828MOL0     H11744   7.258   7.698  11.798  0.1104 -2.0474  2.8002
  828MOL0     H11745   7.166   7.654  11.641  4.0402  0.2057 -2.1326
  828MOL0     H11746   7.102   7.450  11.764 -1.3632  1.5109 -1.3948
  828MOL0     H11747   7.198   7.501  11.908 -0.8112  0.1840  1.2746
  828MOL0     H11748   7.066   7.688  11.960  1.6024 -3.3473  1.2811
  828MOL0     H11749   6.977   7.689  11.809 -0.7898 -0.0086  0.1413
  828MOL0     H11750   6.952   7.471  12.030  1.5407  0.6894  0.2147
  828MOL0     H11751   6.863   7.484  11.876  0.1493  1.3825 -0.3167
  828MOL0     H11752   6.770   7.694  11.934 -1.8158  0.1787  0.6542
  828MOL0     H11753   6.864   7.696  12.089  0.2941  0.3850 -0.2144
  828MOL0     H11754   6.659   7.495  11.998  3.2668 -3.7561 -1.2341
  828MOL0     H11755   6.743   7.483  12.156  1.3786  1.1993 -0.2603
  828MOL0     H11756   6.594   7.740  12.084  5.2328  0.0431 -1.4711
  828MOL0     H11757   6.651   7.696  12.237  0.8789 -1.2631  0.3119
  828MOL0     H11758   6.509   7.504  12.271 -0.1722  1.3402  1.6952
  828MOL0     H11759   6.403   7.644  12.232 -1.2329 -0.5063 -2.0707
  828MOL0     H11760   7.380   7.792  11.642 -2.0998 -2.8072 -0.5895
  828MOL0     H11761   7.587   7.897  11.503  1.7712 -0.0594 -1.0843
  828MOL0     H11762   8.020   7.862  11.360  4.7706  1.1905  0.7441
  828MOL0     H11763   8.256   7.822  11.303  0.2360  0.6765 -0.2586
  828MOL0     H11764   9.009   7.998   9.745 -0.4418 -0.9581  0.0277
  828MOL0     H11765   9.134   8.194   9.720  0.2816 -0.5322  0.3103
  828MOL0     H11766   9.169   8.645   9.836 -0.6688  0.7278  0.4732
  828MOL0     H11767   9.284   8.861   9.847  0.7771  0.5883  0.6040
  828MOL0     H11768   9.575   9.107   9.773 -0.3656  1.2935 -2.4404
  828MOL0     H11769   9.409   9.060   9.807 -0.1094 -0.3973 -0.8017
  828MOL0     H11770   9.390   8.950   9.597 -0.2882  0.4582 -4.2975
  828MOL0     H11771   9.560   8.971   9.562 -1.3306 -0.6216 -1.0655
  828MOL0     H11772   9.513   9.235   9.608 -0.0951  0.9898 -1.6309
  828MOL0     H11773   9.348   9.202   9.595 -0.4706 -1.2924  3.6947
  828MOL0     H11774   9.498   9.109   9.352  1.4270  1.7465  0.0450
  828MOL0     H11775   9.354   9.203   9.370  0.2059 -0.7654  1.8233
  828MOL0     H11776   9.671   9.481   9.333 -0.8642  1.6075 -0.7679
  828MOL0     H11777   9.662   8.680   9.823  0.4320 -0.6802  2.0381
  828MOL0     H11778   9.596   8.361   9.766 -3.8354 -3.6682  2.1273
  828MOL0     H11779   9.699   8.474   9.860 -0.0896 -0.4490 -0.3978
  828MOL0     H11780   9.589   8.371   9.945  4.5725  0.4967  2.0621
  829MOL0     O11781   7.257   9.550   1.904  0.7859  0.8141 -0.4360
  829MOL0     C11782   7.205   9.526   2.017 -0.4571 -0.0050  0.4692
  829MOL0     O11783   7.265   9.442   2.116 -0.0981 -0.3849  0.4730
  829MOL0     C11784   7.399   9.415   2.102  0.1056 -0.0931 -0.9517
  829MOL0     C11785   7.462   9.436   2.215 -0.6074  0.5425 -0.9046
  829MOL0     C11786   7.597   9.403   2.229  0.7975  1.3627  0.7621
  829MOL0     C11787   7.671   9.365   2.121 -0.0440  0.0605  0.0210
  829MOL0     O11788   7.806   9.348   2.149 -0.6565  0.5211  0.3501
  829MOL0     C11789   7.873   9.225   2.104  0.7415  0.2176 -0.5079
  829MOL0     C11790   8.018   9.247   2.059 -0.2556  0.1513  0.6415
  829MOL0     C11791   8.071   9.143   1.971  0.6736 -0.0642 -0.4447
  829MOL0     C11792   8.226   9.118   1.992  0.4385  0.2858  0.1179
  829MOL0     C11793   8.269   9.023   1.886 -0.3064 -0.1692  0.7420
  829MOL0     C11794   8.426   9.012   1.899  0.1792 -0.3735  1.1699
  829MOL0     C11795   8.480   8.947   1.765  0.5284  0.6284  0.0735
  829MOL0     C11796   8.630   8.960   1.737  0.1468 -0.2346  0.3006
  829MOL0     N11797   8.662   9.102   1.714  0.2506 -0.9479  0.8925
  829MOL0     C11798   8.598   9.183   1.622  0.6733 -0.5983  0.1282
  829MOL0     C11799   8.689   9.281   1.592 -0.3771 -0.6265 -0.4354
  829MOL0     C11800   8.678   9.392   1.494  1.0853  0.3100  0.6314
  829MOL0     C11801   8.788   9.401   1.396 -0.2811 -0.7040  0.0441
  829MOL0     C11802   8.831   9.274   1.313 -1.0414  0.5127 -0.7652
  829MOL0     C11803   8.959   9.294   1.229  0.3527  0.0758  0.7113
  829MOL0     O11804   9.081   9.323   1.292 -0.0067  0.4879  0.2642
  829MOL0     C11805   9.198   9.264   1.262  0.7369 -0.1158 -0.0729
  829MOL0     C11806   9.240   9.224   1.135 -0.2359 -0.6900  0.7817
  829MOL0     C11807   9.352   9.141   1.115 -0.6314 -0.5457  0.1428
  829MOL0     C11808   9.434   9.114   1.231 -1.2429  0.1612  0.3269
  829MOL0     C11809   9.563   9.045   1.201 -0.3452 -0.4534 -0.1174
  829MOL0     O11810   9.602   9.038   1.070 -0.5373 -0.1730 -0.0570
  829MOL0     C11811   9.712   8.967   1.041 -0.0398 -0.6691  0.2609
  829MOL0     C11812   9.832   8.999   1.098 -0.1261 -0.0927 -0.2249
  829MOL0     C11813   9.949   8.939   1.049 -0.1165 -0.2958  0.0676
  829MOL0     C11814   9.947   8.849   0.943 -0.7925 -0.5247  1.2611
  829MOL0     O11815  10.051   8.792   0.878  0.1128  0.1452 -0.0461
  829MOL0     C11816  10.193   8.817   0.916 -0.3961 -0.0665  0.4837
  829MOL0     C11817  10.288   8.741   0.823  0.5500 -0.1384  0.2182
  829MOL0     C11818  10.308   8.805   0.687 -0.5883 -0.1841  0.1233
  829MOL0     C11819  10.418   8.906   0.671 -0.1139  0.9142  0.5064
  829MOL0     C11820  10.545   8.827   0.649 -0.1506 -0.3194  0.3620
  829MOL0     C11821  10.668   8.913   0.694  0.1350  0.9371 -0.3705
  829MOL0     C11822  10.798   8.861   0.620 -0.8741  0.2917  0.4717
  829MOL0     C11823  10.934   8.888   0.680  0.4657  0.0166 -0.1070
  829MOL0    Cl11824  10.949   8.793   0.826  0.2381  0.0354 -0.2117
  829MOL0     C11825   9.819   8.815   0.883  0.5662  0.4349 -0.0184
  829MOL0     C11826   9.699   8.881   0.937 -0.0155  0.9362  0.2776
  829MOL0     O11827   9.620   9.002   1.299  0.7380  0.6452  1.0180
  829MOL0     C11828   9.408   9.167   1.363  0.1145  0.0064  0.4465
  829MOL0     C11829   9.288   9.242   1.380  0.7166 -0.5087  0.2447
  829MOL0     N11830   8.802   9.259   1.672 -0.5141 -0.7781  0.1513
  829MOL0     N11831   8.787   9.161   1.744  0.8937 -0.5040 -0.5394
  829MOL0     C11832   7.610   9.347   1.995  0.4608 -0.6079 -0.5643
  829MOL0     C11833   7.470   9.367   1.989 -0.3071 -0.0810 -0.1685
  829MOL0     C11834   7.067   9.572   2.041  0.8482  0.6410 -0.1108
  829MOL0     C11835   6.993   9.474   2.115 -0.3183  1.2702  0.9713
  829MOL0     C11836   6.865   9.504   2.158 -0.7565 -0.6071 -0.5710
  829MOL0     C11837   6.809   9.630   2.133  1.4167  0.0544 -0.0884
  829MOL0     O11838   6.693   9.677   2.185 -1.0421 -0.3718  0.5587
  829MOL0     C11839   6.576   9.608   2.127 -0.3543 -0.0250  0.8283
  829MOL0     C11840   6.499   9.528   2.218  0.8062  0.4832 -0.4502
  829MOL0     C11841   6.394   9.435   2.154 -0.4126  0.2307 -0.5807
  829MOL0     C11842   6.284   9.511   2.087  0.3488  0.5329 -0.2006
  829MOL0     C11843   6.175   9.409   2.063 -0.2226  0.5627 -0.2633
  829MOL0     C11844   6.078   9.346   2.033  0.1669  0.1939 -0.2354
  829MOL0     C11845   6.885   9.727   2.060  0.0035  0.3329  0.0118
  829MOL0     C11846   7.014   9.693   2.006  0.0719 -0.2097 -0.6652
  829MOL0     C11847   7.091   9.806   1.926  0.4789  0.1300  0.1430
  829MOL0     H11848   7.407   9.473   2.301 -2.8939 -1.2416 -1.5155
  829MOL0     H11849   7.646   9.430   2.323  2.0002  0.2342  0.4921
  829MOL0     H11850   7.874   9.161   2.193  2.7388 -0.0761 -0.6910
  829MOL0     H11851   7.817   9.179   2.022 -0.1768  1.5209 -0.6352
  829MOL0     H11852   8.075   9.241   2.152 -1.5237  1.5551  1.5694
  829MOL0     H11853   8.026   9.345   2.011 -2.5107 -0.5281 -1.2985
  829MOL0     H11854   8.047   9.161   1.866  2.6592 -0.0982 -0.9474
  829MOL0     H11855   8.018   9.050   1.990 -1.5580  1.1999 -0.1418
  829MOL0     H11856   8.282   9.212   1.989 -2.2607  1.9782 -1.9679
  829MOL0     H11857   8.239   9.080   2.094  2.5726  0.4733 -0.0484
  829MOL0     H11858   8.213   8.929   1.894 -1.3607  0.3021 -0.6705
  829MOL0     H11859   8.248   9.064   1.787  0.7216 -2.2690 -0.4225
  829MOL0     H11860   8.468   9.112   1.913 -0.5321 -0.3052  3.3045
  829MOL0     H11861   8.471   8.953   1.979  3.3386 -1.8675 -1.4925
  829MOL0     H11862   8.417   8.976   1.680 -1.5185  0.1149  1.3538
  829MOL0     H11863   8.455   8.841   1.768 -1.2122  0.8229 -3.1374
  829MOL0     H11864   8.685   8.921   1.824  0.9285  1.7883  0.7761
  829MOL0     H11865   8.653   8.905   1.646 -2.2344  0.9315 -1.1092
  829MOL0     H11866   8.511   9.150   1.566  0.5610  0.6296 -0.4572
  829MOL0     H11867   8.586   9.353   1.449  2.0308 -1.7399  0.3570
  829MOL0     H11868   8.651   9.490   1.534 -1.0986  1.9119 -4.0787
  829MOL0     H11869   8.757   9.487   1.335 -4.0625 -2.8223 -1.3028
  829MOL0     H11870   8.874   9.440   1.452 -0.0022 -0.7612 -0.3401
  829MOL0     H11871   8.754   9.258   1.237 -1.1926 -2.1020 -0.1466
  829MOL0     H11872   8.829   9.179   1.366 -1.0201 -0.8909 -3.1349
  829MOL0     H11873   8.941   9.381   1.165  1.6804 -1.4572 -1.9687
  829MOL0     H11874   8.972   9.208   1.163  1.7246  2.1407 -1.9327
  829MOL0     H11875   9.175   9.254   1.054 -0.2817  0.5045  1.2438
  829MOL0     H11876   9.387   9.125   1.013 -1.7673  2.3774 -0.8163
  829MOL0     H11877   9.820   9.060   1.187 -1.9990  0.3668 -0.7480
  829MOL0     H11878  10.036   8.958   1.110 -0.4364  0.9694  0.1466
  829MOL0     H11879  10.213   8.922   0.894  1.0229 -0.3928  0.1393
  829MOL0     H11880  10.206   8.803   1.024 -2.0375  1.9175  1.0020
  829MOL0     H11881  10.385   8.727   0.872  1.3710 -0.3343 -1.4017
  829MOL0     H11882  10.240   8.644   0.807  1.2959 -0.4185 -0.3995
  829MOL0     H11883  10.333   8.721   0.622 -0.2237  1.9168 -2.6682
  829MOL0     H11884  10.206   8.838   0.664 -2.0555 -4.1175  0.2098
  829MOL0     H11885  10.426   8.965   0.763  2.1950 -2.0005  2.3393
  829MOL0     H11886  10.389   8.963   0.582  1.6509 -0.0162 -0.7007
  829MOL0     H11887  10.558   8.796   0.544  2.2561 -1.4657  0.9181
  829MOL0     H11888  10.553   8.731   0.701 -1.3427 -0.4635  0.3152
  829MOL0     H11889  10.652   9.021   0.696  0.5642  1.0483  3.2494
  829MOL0     H11890  10.672   8.885   0.799 -2.6837  1.4806 -0.0444
  829MOL0     H11891  10.801   8.913   0.524  3.3033 -2.3230 -1.0706
  829MOL0     H11892  10.788   8.754   0.602 -0.2921  0.4751 -1.0611
  829MOL0     H11893  11.023   8.872   0.620  1.7400  1.4453  1.3146
  829MOL0     H11894  10.937   8.995   0.702 -0.1212  0.2754 -1.2502
  829MOL0     H11895   9.812   8.754   0.794 -2.4147 -2.4586  1.9542
  829MOL0     H11896   9.603   8.866   0.888 -1.3058  3.4189  1.8602
  829MOL0     H11897   9.470   9.141   1.448  2.6843  0.6536 -1.1051
  829MOL0     H11898   9.261   9.274   1.480 -1.2256 -0.4526 -0.2564
  829MOL0     H11899   7.662   9.312   1.907  3.7199  0.5720  0.7382
  829MOL0     H11900   7.417   9.347   1.896 -0.6314 -0.9552  0.1910
  829MOL0     H11901   7.039   9.379   2.139  1.1223  0.8888 -2.7454
  829MOL0     H11902   6.811   9.436   2.223 -1.0738 -0.1284 -0.3315
  829MOL0     H11903   6.603   9.547   2.041 -1.4979  0.0172  0.4220
  829MOL0     H11904   6.511   9.681   2.077 -2.6393 -2.4046  0.1155
  829MOL0     H11905   6.445   9.594   2.287 -3.0800 -2.8601  0.0764
  829MOL0     H11906   6.578   9.466   2.261  0.9774  0.8423 -0.2400
  829MOL0     H11907   6.354   9.384   2.243  4.8302 -1.7927  1.0613
  829MOL0     H11908   6.431   9.363   2.080 -2.1287 -5.1122  3.1229
  829MOL0     H11909   6.241   9.592   2.147  1.4464  0.8433  0.2068
  829MOL0     H11910   6.309   9.550   1.988 -0.8898 -1.2320 -1.2566
  829MOL0     H11911   5.985   9.295   2.017  0.1180  0.6323 -1.4669
  829MOL0     H11912   6.837   9.820   2.031 -1.1598 -0.1788  0.2483
  829MOL0     H11913   7.197   9.814   1.953 -0.1059 -0.8378  3.1545
  829MOL0     H11914   7.086   9.773   1.822 -4.0971 -2.3921  0.9309
  829MOL0     H11915   7.034   9.898   1.934 -1.1776 -0.8045 -0.4800
  830MOL0     O11916   2.102   7.206  10.482  0.2401 -0.0800  0.2970
  830MOL0     C11917   2.098   7.311  10.551 -0.4764  1.1637  0.4202
  830MOL0     O11918   2.206   7.384  10.570  0.2698  0.4912  0.5044
  830MOL0     C11919   2.316   7.384  10.487 -0.0788 -0.0192  0.1024
  830MOL0     C11920   2.321   7.339  10.351 -0.4820 -0.4055 -0.1786
  830MOL0     C11921   2.444   7.351  10.281 -0.2368 -0.7008 -0.1411
  830MOL0     C11922   2.561   7.404  10.344 -0.7443  0.2479  0.3475
  830MOL0     O11923   2.677   7.420  10.270  0.1518  0.9467 -0.2721
  830MOL0     C11924   2.762   7.306  10.260 -0.6268 -0.4434 -0.2912
  830MOL0     C11925   2.803   7.278  10.112  0.2419  0.1719 -0.6123
  830MOL0     C11926   2.875   7.396  10.049  0.3682  0.5173  0.1006
  830MOL0     C11927   2.917   7.371   9.898 -0.6011 -0.1504 -0.5183
  830MOL0     C11928   2.991   7.486   9.829  0.3112 -0.6040 -0.9761
  830MOL0     C11929   2.916   7.617   9.831 -0.0162  1.0123 -0.1443
  830MOL0     C11930   2.988   7.716   9.734  0.0489 -0.1735 -0.4150
  830MOL0     C11931   2.920   7.842   9.724  0.6706  0.5856 -0.0655
  830MOL0     N11932   2.976   7.927   9.624 -0.7849  0.4336 -0.0278
  830MOL0     C11933   2.951   7.926   9.491  0.3102  0.2859  0.2707
  830MOL0     C11934   3.033   8.014   9.432 -0.4914 -0.3826  0.0243
  830MOL0     C11935   3.040   8.048   9.289  0.3802 -0.2320  0.4193
  830MOL0     C11936   3.126   7.947   9.201 -0.3859 -0.1641 -0.3946
  830MOL0     C11937   3.275   7.974   9.234  0.4013 -0.0061  0.3921
  830MOL0     C11938   3.359   7.877   9.149  0.0855 -1.3343 -0.5096
  830MOL0     O11939   3.497   7.880   9.186 -0.0520 -0.4845 -0.3232
  830MOL0     C11940   3.583   7.830   9.092 -0.7061 -0.4023 -0.0995
  830MOL0     C11941   3.580   7.690   9.069 -0.7763  0.0813  0.6048
  830MOL0     C11942   3.676   7.638   8.977  0.1764  0.2136  0.0903
  830MOL0     C11943   3.774   7.724   8.914 -0.4175 -0.3736  0.5733
  830MOL0     C11944   3.867   7.671   8.805 -0.1158 -0.1624  0.1732
  830MOL0     O11945   3.873   7.536   8.813 -0.4115  0.1587 -0.2738
  830MOL0     C11946   3.928   7.454   8.712  0.2176 -0.5561 -0.2285
  830MOL0     C11947   3.977   7.329   8.748  0.3158  0.1833  0.3279
  830MOL0     C11948   4.026   7.246   8.647 -0.3601  0.6200  0.7464
  830MOL0     C11949   4.031   7.291   8.514  0.2049 -0.4102  0.4418
  830MOL0     O11950   4.069   7.209   8.412 -1.0178 -0.3667  0.4193
  830MOL0     C11951   4.143   7.086   8.424 -0.6377  0.2664 -0.8661
  830MOL0     C11952   4.200   7.034   8.291  0.0782  0.1877  0.0826
  830MOL0     C11953   4.285   6.908   8.316 -0.0447  0.2087  0.3792
  830MOL0     C11954   4.418   6.948   8.394  0.5744 -0.3782 -0.2150
  830MOL0     C11955   4.527   6.858   8.338 -0.8161  1.2039  0.3488
  830MOL0     C11956   4.660   6.880   8.415  0.6662 -0.6747 -0.3791
  830MOL0     C11957   4.774   6.856   8.310  0.3009 -0.6010 -0.2412
  830MOL0     C11958   4.914   6.852   8.367 -0.3158 -0.0707  0.1811
  830MOL0    Cl11959   4.938   6.692   8.436 -0.3401  0.1354 -0.5745
  830MOL0     C11960   3.984   7.420   8.482  0.6290  0.8534  1.0223
  830MOL0     C11961   3.936   7.494   8.582 -0.2054  0.1769 -0.7232
  830MOL0     O11962   3.934   7.750   8.737  0.5389  0.3898 -0.1511
  830MOL0     C11963   3.769   7.864   8.931  0.0354  0.8562 -0.9383
  830MOL0     C11964   3.675   7.913   9.023  0.0169 -0.2554  0.1058
  830MOL0     N11965   3.107   8.082   9.529  0.4727  0.5469  0.5123
  830MOL0     N11966   3.073   8.024   9.640  1.2230 -0.5488 -0.4031
  830MOL0     C11967   2.554   7.455  10.471  0.4376  0.5228  0.3996
  830MOL0     C11968   2.429   7.436  10.537  0.1509  0.1976 -0.2819
  830MOL0     C11969   1.974   7.357  10.605  0.6919 -0.3780 -0.4073
  830MOL0     C11970   1.855   7.275  10.596  1.0373  0.8266 -0.1391
  830MOL0     C11971   1.728   7.313  10.645 -0.5398 -0.0804  0.3189
  830MOL0     C11972   1.721   7.430  10.726 -0.5773 -0.8013  0.1602
  830MOL0     O11973   1.598   7.474  10.779 -0.3263  0.3081 -0.6185
  830MOL0     C11974   1.582   7.587  10.863 -0.3528 -0.5732  0.0972
  830MOL0     C11975   1.602   7.552  11.005 -0.3388 -0.3030 -0.1485
  830MOL0     C11976   1.494   7.446  11.041 -0.8402 -0.3705 -0.4363
  830MOL0     C11977   1.528   7.367  11.165  0.4647 -0.1592 -0.2251
  830MOL0     C11978   1.408   7.294  11.197 -0.6328 -0.3135  0.3935
  830MOL0     C11979   1.306   7.215  11.208  0.4450 -0.0603 -0.5885
  830MOL0     C11980   1.839   7.506  10.741  0.7617 -1.5535 -0.0517
  830MOL0     C11981   1.962   7.477  10.679 -0.2321  0.7551  0.3684
  830MOL0     C11982   2.068   7.588  10.676  0.3937  0.1012 -0.6210
  830MOL0     H11983   2.239   7.307  10.287 -0.4505 -2.3284  0.6940
  830MOL0     H11984   2.443   7.315  10.179  0.1364 -0.7798 -0.1181
  830MOL0     H11985   2.856   7.328  10.310 -0.5345  0.5453 -0.8661
  830MOL0     H11986   2.720   7.213  10.301  1.1021 -1.8365 -1.5055
  830MOL0     H11987   2.713   7.261  10.054 -1.1383  0.5869  1.2941
  830MOL0     H11988   2.869   7.192  10.101  1.7557  0.7919  2.3027
  830MOL0     H11989   2.963   7.420  10.110 -0.1006  0.9868  0.6067
  830MOL0     H11990   2.814   7.487  10.049  0.4483  0.5735  0.4063
  830MOL0     H11991   2.990   7.289   9.906 -0.3190 -0.0428 -1.7830
  830MOL0     H11992   2.835   7.334   9.836 -0.2370 -2.3885  0.2356
  830MOL0     H11993   3.081   7.500   9.889 -0.2466  2.2757 -0.7039
  830MOL0     H11994   3.004   7.468   9.722  1.3302  4.2549 -1.8979
  830MOL0     H11995   2.810   7.603   9.809  0.2719  0.5724 -1.3578
  830MOL0     H11996   2.917   7.662   9.931 -1.0526 -1.8280  1.2770
  830MOL0     H11997   2.995   7.682   9.630  0.9220 -1.6338  0.0906
  830MOL0     H11998   3.087   7.721   9.780 -0.8457 -0.7514  1.6949
  830MOL0     H11999   2.813   7.824   9.712  0.9244 -0.0760 -1.5564
  830MOL0     H12000   2.932   7.884   9.824  0.2901  0.8490 -0.1281
  830MOL0     H12001   2.892   7.851   9.439 -0.1916  2.2481 -2.1491
  830MOL0     H12002   2.942   8.042   9.242  0.9378 -0.4460 -0.7593
  830MOL0     H12003   3.078   8.151   9.292  0.2887 -0.1889  0.0979
  830MOL0     H12004   3.115   7.840   9.220  1.3327 -0.0782  1.2895
  830MOL0     H12005   3.096   7.968   9.098  1.0680 -1.5133 -1.1348
  830MOL0     H12006   3.286   7.965   9.342  0.3789  0.7634  0.4588
  830MOL0     H12007   3.286   8.077   9.200  0.0817 -0.5275 -1.4207
  830MOL0     H12008   3.345   7.902   9.043 -0.1875 -3.9715 -1.1538
  830MOL0     H12009   3.324   7.775   9.164  0.4981 -1.3729  0.2312
  830MOL0     H12010   3.507   7.632   9.124 -1.6470  0.9095  0.3529
  830MOL0     H12011   3.686   7.531   8.958  4.5746  0.8191 -2.5792
  830MOL0     H12012   3.983   7.295   8.851 -3.0290  1.1927  1.0080
  830MOL0     H12013   4.055   7.149   8.686  0.4584  0.4541 -0.2404
  830MOL0     H12014   4.222   7.107   8.498  0.7768  0.5220 -2.4009
  830MOL0     H12015   4.073   7.010   8.461 -0.3892  0.3717 -0.1643
  830MOL0     H12016   4.121   7.010   8.219 -1.6493  1.7841  1.3534
  830MOL0     H12017   4.269   7.109   8.252 -1.2017  0.6952 -1.2812
  830MOL0     H12018   4.228   6.841   8.382 -1.3546 -1.2644 -2.1062
  830MOL0     H12019   4.312   6.861   8.220  3.2095  1.6140  0.4781
  830MOL0     H12020   4.400   6.941   8.502  2.6758  1.2400  0.3086
  830MOL0     H12021   4.447   7.050   8.366 -0.2192 -0.2572 -0.6217
  830MOL0     H12022   4.533   6.878   8.231 -1.0026  1.7773  0.4446
  830MOL0     H12023   4.517   6.749   8.339  3.4350  0.6665  0.9332
  830MOL0     H12024   4.662   6.980   8.460  2.2999 -0.4174 -0.9571
  830MOL0     H12025   4.678   6.810   8.498  0.4618  0.1837  0.4048
  830MOL0     H12026   4.768   6.935   8.235 -1.1537 -0.3983  0.0550
  830MOL0     H12027   4.756   6.768   8.247  0.2974  0.6936 -2.1374
  830MOL0     H12028   4.998   6.867   8.298 -1.1560 -0.7000 -1.0188
  830MOL0     H12029   4.923   6.937   8.435  0.2495 -1.8209  2.3856
  830MOL0     H12030   3.978   7.441   8.375 -2.1852 -1.3070  0.6482
  830MOL0     H12031   3.888   7.587   8.553 -2.4492 -0.8031 -0.3679
  830MOL0     H12032   3.837   7.937   8.888  0.0929  1.2943 -0.1424
  830MOL0     H12033   3.689   8.019   9.041  0.3428 -0.0256 -1.3169
  830MOL0     H12034   2.647   7.489  10.517  3.3079 -4.4569 -0.9063
  830MOL0     H12035   2.436   7.472  10.639 -0.8522 -0.0733 -0.1043
  830MOL0     H12036   1.870   7.176  10.557  1.1677  0.0956  1.6476
  830MOL0     H12037   1.641   7.251  10.626  0.9102 -1.5788 -1.9129
  830MOL0     H12038   1.484   7.636  10.860 -0.3393 -0.3419  2.0163
  830MOL0     H12039   1.649   7.671  10.842  1.0993 -0.7122  3.5398
  830MOL0     H12040   1.587   7.635  11.074 -0.5218 -0.0780 -0.4545
  830MOL0     H12041   1.703   7.515  11.026 -1.5426 -1.9186  3.4470
  830MOL0     H12042   1.472   7.377  10.959 -3.4801 -1.6995  1.2264
  830MOL0     H12043   1.405   7.505  11.065 -0.1788  0.0828  1.0441
  830MOL0     H12044   1.612   7.297  11.157  1.0483  0.5112  0.0054
  830MOL0     H12045   1.560   7.439  11.240  1.2929 -1.1379  0.3785
  830MOL0     H12046   1.231   7.140  11.219  0.5014  0.1877  1.9927
  830MOL0     H12047   1.826   7.598  10.797 -1.6058 -2.3700  0.8783
  830MOL0     H12048   2.088   7.619  10.573  0.2684 -0.0065 -0.6786
  830MOL0     H12049   2.021   7.680  10.712  0.0942  1.0399 -3.2130
  830MOL0     H12050   2.154   7.558  10.737 -2.3401 -1.1708  3.0052
  831MOL0     O12051   8.396   8.108   9.214 -0.1922  0.1250 -0.3715
  831MOL0     C12052   8.409   8.000   9.164  0.2189  0.5330 -0.2411
  831MOL0     O12053   8.474   7.982   9.051  0.6326 -0.1436 -0.0258
  831MOL0     C12054   8.478   8.078   8.962  0.0495 -0.6777 -0.6547
  831MOL0     C12055   8.387   8.094   8.866  0.4551  0.6917 -0.1223
  831MOL0     C12056   8.411   8.192   8.758  0.1829  0.5031 -0.1460
  831MOL0     C12057   8.529   8.263   8.755 -1.1298  0.9482 -0.8392
  831MOL0     O12058   8.536   8.360   8.655 -0.1784  0.4419 -0.7950
  831MOL0     C12059   8.658   8.423   8.633  0.0885 -0.3454  0.5479
  831MOL0     C12060   8.704   8.533   8.744  0.5184 -0.7950 -0.1903
  831MOL0     C12061   8.856   8.520   8.778  0.0501 -0.2134 -0.0637
  831MOL0     C12062   8.938   8.550   8.646  0.7094  0.9943 -0.0465
  831MOL0     C12063   9.089   8.569   8.681  0.6753 -0.1730  0.5379
  831MOL0     C12064   9.113   8.707   8.745  0.6766  0.4329 -0.4128
  831MOL0     C12065   9.258   8.725   8.779 -0.3284 -0.2693  0.0382
  831MOL0     C12066   9.350   8.725   8.663 -0.6209 -0.3259 -0.4782
  831MOL0     N12067   9.490   8.731   8.710  0.5519 -0.4697 -0.2310
  831MOL0     C12068   9.586   8.634   8.732  0.2619  0.1358  0.2860
  831MOL0     C12069   9.703   8.708   8.762 -0.9390  0.5496 -1.1033
  831MOL0     C12070   9.842   8.651   8.774  0.6087  1.0438 -0.8409
  831MOL0     C12071   9.936   8.712   8.664  0.0510 -0.4970  0.9957
  831MOL0     C12072  10.086   8.663   8.669 -1.0682 -0.2468 -0.6500
  831MOL0     C12073  10.141   8.699   8.816 -0.1307 -0.9215  0.8386
  831MOL0     O12074  10.180   8.831   8.836  0.4137  0.6003 -0.0861
  831MOL0     C12075  10.291   8.878   8.781 -0.5430 -0.4098  0.7896
  831MOL0     C12076  10.371   8.809   8.696  0.2489  0.0463  0.1865
  831MOL0     C12077  10.481   8.869   8.640 -0.0192 -0.5180  0.6140
  831MOL0     C12078  10.511   9.006   8.667  0.1963 -0.5136 -0.2091
  831MOL0     C12079  10.615   9.079   8.594 -0.4002 -0.9412 -0.1987
  831MOL0     O12080  10.663   9.034   8.479 -0.3549 -0.7888  0.5636
  831MOL0     C12081  10.745   9.118   8.408 -0.1260 -0.6067  0.5455
  831MOL0     C12082  10.875   9.162   8.453  0.0184  0.6137 -0.1423
  831MOL0     C12083  10.939   9.252   8.373  0.2181 -0.0354  0.4622
  831MOL0     C12084  10.892   9.292   8.250  1.1503 -1.1251  0.3148
  831MOL0     O12085  10.945   9.394   8.188 -0.4266 -0.8099  0.6483
  831MOL0     C12086  11.092   9.384   8.174  0.2952  0.0029  0.5926
  831MOL0     C12087  11.127   9.487   8.067 -0.0549  0.7984 -1.0930
  831MOL0     C12088  11.042   9.464   7.943  0.0130 -0.5749  0.8216
  831MOL0     C12089  11.117   9.509   7.810  0.5158 -0.4649  0.0912
  831MOL0     C12090  11.123   9.663   7.778  1.1588  0.4371 -0.3609
  831MOL0     C12091  11.232   9.704   7.687 -0.2819 -0.3287 -1.0630
  831MOL0     C12092  11.253   9.621   7.562 -0.6014  0.1172 -0.4155
  831MOL0     C12093  11.347   9.669   7.453 -0.0971  0.3203 -0.7683
  831MOL0    Cl12094  11.333   9.549   7.315 -0.0552 -0.4910  0.2969
  831MOL0     C12095  10.767   9.260   8.204  0.3525  0.0356 -0.1069
  831MOL0     C12096  10.697   9.167   8.285  0.1441 -0.8558  0.6015
  831MOL0     O12097  10.647   9.191   8.651  0.0465 -0.3185  0.0443
  831MOL0     C12098  10.427   9.084   8.748 -0.9982  0.1101  0.5190
  831MOL0     C12099  10.320   9.013   8.800 -0.1024 -0.0467 -1.0043
  831MOL0     N12100   9.666   8.843   8.772  0.3970  0.3938  0.1147
  831MOL0     N12101   9.550   8.855   8.733  0.1010 -0.9489 -0.5963
  831MOL0     C12102   8.627   8.246   8.861  0.3804  0.0556 -0.7225
  831MOL0     C12103   8.593   8.157   8.963 -0.0270  1.0329  0.2527
  831MOL0     C12104   8.386   7.888   9.252  0.1516  0.4278 -0.8710
  831MOL0     C12105   8.333   7.774   9.191 -0.8882 -0.1527  0.6118
  831MOL0     C12106   8.307   7.657   9.256  1.0971  0.5785  0.7830
  831MOL0     C12107   8.329   7.649   9.392  0.2689  1.4035  0.9401
  831MOL0     O12108   8.283   7.543   9.469  0.1684 -0.7715  0.5148
  831MOL0     C12109   8.375   7.488   9.576  0.0216 -0.5553  1.0442
  831MOL0     C12110   8.324   7.349   9.595  0.4319  0.4730 -0.8044
  831MOL0     C12111   8.203   7.335   9.685 -0.0983 -0.5225 -0.3652
  831MOL0     C12112   8.113   7.222   9.648 -0.7020 -0.2832  0.1408
  831MOL0     C12113   8.175   7.088   9.641  0.5408  0.6793  0.7507
  831MOL0     C12114   8.207   6.967   9.629  0.1233 -0.3019  0.7620
  831MOL0     C12115   8.385   7.762   9.457  0.0653 -0.2399 -0.6637
  831MOL0     C12116   8.404   7.884   9.394 -0.8784 -1.0433  0.0687
  831MOL0     C12117   8.434   8.017   9.478 -0.2619  0.0771  0.3429
  831MOL0     H12118   8.308   8.020   8.856  1.9633 -0.7229 -2.6679
  831MOL0     H12119   8.337   8.203   8.679 -1.9097  0.5821  1.7358
  831MOL0     H12120   8.737   8.348   8.627  1.0848  0.7940 -2.2375
  831MOL0     H12121   8.658   8.467   8.533  0.5265 -1.7357 -0.0785
  831MOL0     H12122   8.649   8.499   8.833 -2.7941  4.6508  0.3047
  831MOL0     H12123   8.677   8.636   8.722  2.0779 -0.3639 -0.1695
  831MOL0     H12124   8.881   8.425   8.826 -1.3516 -0.0082  1.1441
  831MOL0     H12125   8.874   8.603   8.846 -0.0623  1.9817 -2.5462
  831MOL0     H12126   8.941   8.458   8.587  1.7288  1.5396 -0.8707
  831MOL0     H12127   8.898   8.636   8.592 -0.9230  1.7771  2.2125
  831MOL0     H12128   9.132   8.489   8.741 -2.1512 -2.0764  0.2313
  831MOL0     H12129   9.134   8.568   8.582 -1.5220 -2.8797 -0.5877
  831MOL0     H12130   9.076   8.794   8.689  2.6917  1.9675  0.5106
  831MOL0     H12131   9.053   8.715   8.836 -0.2756  0.9291 -1.0626
  831MOL0     H12132   9.298   8.655   8.854  0.5074  1.0460  0.8465
  831MOL0     H12133   9.268   8.825   8.823  0.8182 -1.3870  2.5519
  831MOL0     H12134   9.337   8.630   8.610  1.9903 -0.5405 -0.8488
  831MOL0     H12135   9.339   8.815   8.601  4.0023  0.1217 -1.0069
  831MOL0     H12136   9.571   8.529   8.709 -0.7248  0.8251 -2.7102
  831MOL0     H12137   9.878   8.676   8.874  0.6444  0.7028 -0.7661
  831MOL0     H12138   9.838   8.541   8.776 -0.2230  0.9693 -3.4317
  831MOL0     H12139   9.894   8.683   8.567 -2.2737  1.9579  1.1346
  831MOL0     H12140   9.929   8.819   8.686  4.3663 -0.0202  0.9050
  831MOL0     H12141  10.140   8.716   8.590 -0.1202  3.2066  2.0902
  831MOL0     H12142  10.092   8.556   8.644  0.0821  0.1517 -2.2387
  831MOL0     H12143  10.230   8.635   8.817  2.3011  2.2104 -0.4563
  831MOL0     H12144  10.070   8.666   8.892 -1.5146 -1.7511 -0.7456
  831MOL0     H12145  10.367   8.701   8.685 -2.4733 -0.0102  1.0618
  831MOL0     H12146  10.545   8.816   8.569  0.2240 -0.1849  0.5846
  831MOL0     H12147  10.934   9.124   8.536  0.1918  1.5473  0.1796
  831MOL0     H12148  11.039   9.283   8.403  0.1758 -0.1047  0.6742
  831MOL0     H12149  11.143   9.400   8.269  0.4115 -1.4712  0.8045
  831MOL0     H12150  11.128   9.288   8.137 -0.1591  0.7099 -1.8180
  831MOL0     H12151  11.117   9.582   8.121  0.9464 -0.2429  1.0629
  831MOL0     H12152  11.232   9.465   8.047  0.8334  1.9594  1.7461
  831MOL0     H12153  11.011   9.361   7.924 -2.6417  0.4506 -0.9042
  831MOL0     H12154  10.949   9.521   7.947 -0.8802 -1.8483 -0.5995
  831MOL0     H12155  11.061   9.461   7.728 -0.6218  1.1984 -0.1536
  831MOL0     H12156  11.214   9.460   7.806 -0.5588 -2.7346  0.0121
  831MOL0     H12157  11.142   9.708   7.876  0.9954  1.3285 -0.7317
  831MOL0     H12158  11.023   9.693   7.748  0.5060 -0.1059  1.1546
  831MOL0     H12159  11.205   9.808   7.665  1.2202  0.0542 -1.2210
  831MOL0     H12160  11.327   9.709   7.741 -1.9971 -1.7561  2.3058
  831MOL0     H12161  11.164   9.591   7.505  1.3234 -1.3532 -2.8536
  831MOL0     H12162  11.288   9.523   7.595  0.0835  0.5030  0.0191
  831MOL0     H12163  11.311   9.769   7.430  0.2252  1.3274  2.5671
  831MOL0     H12164  11.452   9.671   7.485 -0.4513  0.3974  0.4307
  831MOL0     H12165  10.729   9.289   8.107 -1.6049  0.9418  0.8790
  831MOL0     H12166  10.603   9.137   8.238  0.5135  1.8375 -2.1963
  831MOL0     H12167  10.448   9.186   8.776  1.4996 -0.5951  1.4689
  831MOL0     H12168  10.253   9.054   8.875 -1.3993 -0.7220 -1.7735
  831MOL0     H12169   8.728   8.285   8.862  0.9137 -1.1050 -2.8329
  831MOL0     H12170   8.663   8.146   9.044  1.1026  4.8459 -0.0089
  831MOL0     H12171   8.311   7.788   9.086  1.8925 -0.6332 -0.1231
  831MOL0     H12172   8.268   7.570   9.204  0.2154  0.9911  0.7497
  831MOL0     H12173   8.369   7.538   9.672  4.4709  0.5906  0.9076
  831MOL0     H12174   8.478   7.505   9.543 -0.8545  1.2345 -1.0909
  831MOL0     H12175   8.399   7.283   9.639 -1.5449 -1.0898  0.4086
  831MOL0     H12176   8.313   7.306   9.495 -3.1167 -2.4788  0.6284
  831MOL0     H12177   8.142   7.425   9.676 -0.3387 -0.3987  1.8790
  831MOL0     H12178   8.232   7.321   9.790 -1.0644  1.5594  0.2318
  831MOL0     H12179   8.032   7.216   9.721  0.7718 -0.6813  1.8236
  831MOL0     H12180   8.079   7.243   9.546 -2.9517 -0.7328  0.7566
  831MOL0     H12181   8.244   6.866   9.630 -1.3564 -0.9656  4.2603
  831MOL0     H12182   8.394   7.751   9.565 -1.0430 -3.0826 -0.7708
  831MOL0     H12183   8.507   8.076   9.421  0.7100 -0.9309  0.5041
  831MOL0     H12184   8.337   8.065   9.491 -0.7696 -0.9050  0.3319
  831MOL0     H12185   8.482   8.003   9.575 -1.2242 -1.5090  0.6279
  832MOL0     O12186   9.704   4.044   1.925 -0.1419  0.4987 -0.0698
  832MOL0     C12187   9.643   4.090   1.826 -0.5599  0.8395 -0.2987
  832MOL0     O12188   9.704   4.118   1.697  0.1595  0.2781  0.1026
  832MOL0     C12189   9.841   4.103   1.671  0.3453 -0.5688  0.2297
  832MOL0     C12190   9.919   4.009   1.729 -0.1549  0.5902  0.4164
  832MOL0     C12191  10.055   3.999   1.700 -0.5405 -0.1297 -0.3492
  832MOL0     C12192  10.112   4.077   1.599 -0.7525 -0.1508 -0.2418
  832MOL0     O12193  10.248   4.081   1.565 -0.0566  0.6712  0.3812
  832MOL0     C12194  10.325   3.966   1.575 -0.6983 -0.0689  0.0835
  832MOL0     C12195  10.465   3.988   1.513  1.1031 -0.2693 -0.0285
  832MOL0     C12196  10.545   4.095   1.588  0.2899 -0.2335 -0.6724
  832MOL0     C12197  10.629   4.035   1.699  0.4394 -1.2506 -0.2916
  832MOL0     C12198  10.709   4.139   1.785 -0.0121 -0.6538 -0.0768
  832MOL0     C12199  10.816   4.236   1.720  0.2497  0.2958  0.7220
  832MOL0     C12200  10.896   4.293   1.830  0.5762  0.2077 -0.0815
  832MOL0     C12201  10.994   4.410   1.802  0.1924 -0.8125  1.3250
  832MOL0     N12202  11.060   4.465   1.925 -0.8031 -0.3891 -0.7827
  832MOL0     C12203  11.190   4.450   1.969 -0.5427  0.0763 -0.5227
  832MOL0     C12204  11.187   4.470   2.106 -0.2954 -0.4985  0.1419
  832MOL0     C12205  11.303   4.452   2.198  0.5611 -0.1076  1.3009
  832MOL0     C12206  11.451   4.453   2.146 -0.7666 -0.1104  0.8185
  832MOL0     C12207  11.552   4.451   2.265  0.0186  0.1866  0.2238
  832MOL0     C12208  11.591   4.304   2.310  0.5284  0.2778 -0.5831
  832MOL0     O12209  11.669   4.311   2.433  0.8487  0.5310 -0.3554
  832MOL0     C12210  11.804   4.331   2.434 -0.2838  0.0619  0.0218
  832MOL0     C12211  11.885   4.297   2.318  0.8802 -0.3760 -1.0207
  832MOL0     C12212  12.019   4.326   2.319 -0.3584 -1.2262 -0.4417
  832MOL0     C12213  12.090   4.372   2.438 -0.3713  0.3920 -0.4059
  832MOL0     C12214  12.236   4.381   2.442 -0.2120  0.2507  0.6216
  832MOL0     O12215  12.305   4.348   2.327 -0.0661 -0.1866 -0.1944
  832MOL0     C12216  12.440   4.317   2.323 -0.2943 -0.3790 -0.3096
  832MOL0     C12217  12.488   4.288   2.194 -0.0499 -0.9722 -0.3597
  832MOL0     C12218  12.629   4.246   2.176 -0.2135 -1.3006 -0.9423
  832MOL0     C12219  12.722   4.257   2.284  0.1962 -0.2856 -0.0780
  832MOL0     O12220  12.858   4.213   2.268  0.3123 -0.5765 -0.6601
  832MOL0     C12221  12.915   4.212   2.132 -0.1086  0.2328 -0.1646
  832MOL0     C12222  13.069   4.215   2.145 -0.1421  0.5148  0.2176
  832MOL0     C12223  13.136   4.157   2.021  0.3721 -0.0322  1.0018
  832MOL0     C12224  13.267   4.080   2.036 -0.4531  0.4982  0.4802
  832MOL0     C12225  13.343   4.091   1.907  0.5155  0.3473 -0.0031
  832MOL0     C12226  13.493   4.038   1.918 -0.1396 -0.7337 -0.7494
  832MOL0     C12227  13.563   4.003   1.780  0.4536  0.3530 -0.3111
  832MOL0     C12228  13.703   4.059   1.769 -0.0416  0.1197  0.5836
  832MOL0    Cl12229  13.813   3.975   1.875 -0.4975 -0.1366 -0.4546
  832MOL0     C12230  12.668   4.287   2.410  0.3271 -0.5114  0.9326
  832MOL0     C12231  12.534   4.317   2.430 -0.6185  0.1190  0.7176
  832MOL0     O12232  12.287   4.417   2.547 -0.3188  0.1959  0.1971
  832MOL0     C12233  12.008   4.386   2.552 -0.4644 -0.0122 -0.1256
  832MOL0     C12234  11.864   4.371   2.548 -0.5952  0.4392  0.1879
  832MOL0     N12235  11.053   4.510   2.140 -0.7005  0.4435  0.8015
  832MOL0     N12236  10.982   4.498   2.035  0.6911 -1.4994 -0.4315
  832MOL0     C12237  10.030   4.173   1.547  0.3713  0.0065  0.1742
  832MOL0     C12238   9.892   4.193   1.582 -1.0630  0.1690 -0.2456
  832MOL0     C12239   9.493   4.116   1.843 -0.4312  0.3672  0.5988
  832MOL0     C12240   9.413   4.134   1.725  0.2630  0.4208  0.3966
  832MOL0     C12241   9.276   4.145   1.737 -0.4958  0.3699  0.5827
  832MOL0     C12242   9.206   4.123   1.856 -0.3511  0.9697  0.8605
  832MOL0     O12243   9.065   4.126   1.862 -0.7120 -0.0245  0.1520
  832MOL0     C12244   8.997   4.026   1.793  0.3690 -0.1291 -0.6658
  832MOL0     C12245   8.855   4.007   1.849 -0.2668  0.3719 -0.8192
  832MOL0     C12246   8.848   3.979   1.995 -0.3174  0.8882  0.1372
  832MOL0     C12247   8.699   3.983   2.042  0.0140 -0.6891 -0.4763
  832MOL0     C12248   8.611   3.888   1.975  0.7268 -0.5792 -0.3525
  832MOL0     C12249   8.532   3.802   1.932 -0.9357  0.2760  0.4051
  832MOL0     C12250   9.279   4.105   1.970 -0.3508 -0.2236 -0.5494
  832MOL0     C12251   9.416   4.097   1.964  0.7348  0.6826 -0.4769
  832MOL0     C12252   9.473   4.065   2.113  0.9904 -0.9007  0.9239
  832MOL0     H12253   9.894   3.941   1.810  2.7651 -0.9346  0.1579
  832MOL0     H12254  10.116   3.918   1.740 -0.3912 -1.0677 -2.3684
  832MOL0     H12255  10.337   3.936   1.680  3.3369  0.0545 -0.1966
  832MOL0     H12256  10.280   3.881   1.523  2.1926 -1.4214 -0.4228
  832MOL0     H12257  10.450   4.017   1.409  2.3258 -2.3101 -0.8195
  832MOL0     H12258  10.516   3.892   1.507  1.3022 -0.2769  1.3637
  832MOL0     H12259  10.485   4.171   1.637  1.7666  1.6656 -1.6703
  832MOL0     H12260  10.614   4.140   1.517  0.1839 -1.8021 -1.8234
  832MOL0     H12261  10.569   3.972   1.766 -0.7103  0.7307  0.6539
  832MOL0     H12262  10.707   3.972   1.657  1.9028 -1.7533  2.8833
  832MOL0     H12263  10.636   4.206   1.832  0.2352  0.4287 -1.1742
  832MOL0     H12264  10.755   4.074   1.860  1.0778  0.8292  0.5832
  832MOL0     H12265  10.881   4.169   1.663 -1.6479 -0.4903 -0.6043
  832MOL0     H12266  10.783   4.318   1.656  0.1785 -0.3833 -0.1243
  832MOL0     H12267  10.958   4.214   1.875 -1.3089 -0.0492  2.2884
  832MOL0     H12268  10.827   4.332   1.906  1.8482  1.5906  0.4116
  832MOL0     H12269  11.073   4.376   1.735 -3.5230 -0.9717 -3.4986
  832MOL0     H12270  10.935   4.492   1.759  1.2707  0.0412  1.4129
  832MOL0     H12271  11.271   4.412   1.908 -1.0531 -0.2448 -1.0135
  832MOL0     H12272  11.289   4.530   2.273 -0.9073  0.4640  0.4880
  832MOL0     H12273  11.294   4.356   2.251  4.1993 -2.0038 -1.1367
  832MOL0     H12274  11.468   4.360   2.093  0.8388  1.2953 -1.2675
  832MOL0     H12275  11.463   4.543   2.086 -0.2493 -1.1038 -0.5976
  832MOL0     H12276  11.502   4.500   2.350 -0.9883  1.2347 -0.9253
  832MOL0     H12277  11.642   4.508   2.242 -0.0392  2.2082  4.0438
  832MOL0     H12278  11.633   4.252   2.224 -2.7602 -2.5893 -0.6950
  832MOL0     H12279  11.510   4.240   2.347 -0.4953  2.8547  2.0822
  832MOL0     H12280  11.837   4.254   2.230 -2.3543 -0.5673  0.6667
  832MOL0     H12281  12.068   4.286   2.231 -0.9589 -0.1745 -1.2794
  832MOL0     H12282  12.441   4.311   2.100  1.3310  1.0452 -0.6324
  832MOL0     H12283  12.659   4.231   2.073  1.9912  2.1184 -0.9631
  832MOL0     H12284  12.882   4.122   2.079 -0.6344  1.5689 -2.2678
  832MOL0     H12285  12.876   4.294   2.069 -1.7362  0.2346  0.8005
  832MOL0     H12286  13.095   4.319   2.167 -2.0317  0.8079  1.2339
  832MOL0     H12287  13.097   4.148   2.227 -0.5753  0.5847  0.4209
  832MOL0     H12288  13.066   4.092   1.968  0.3989 -0.5361  1.5737
  832MOL0     H12289  13.155   4.248   1.963  0.5162 -1.3933 -1.1770
  832MOL0     H12290  13.249   3.974   2.053  1.1569 -0.0592 -1.0032
  832MOL0     H12291  13.330   4.106   2.121  1.8155 -1.2902 -0.5450
  832MOL0     H12292  13.353   4.192   1.866 -0.1457 -0.2654 -1.7913
  832MOL0     H12293  13.299   4.037   1.822 -1.6974  0.9738  0.6688
  832MOL0     H12294  13.558   4.113   1.965  0.9322 -0.6640 -2.2816
  832MOL0     H12295  13.495   3.947   1.978 -0.3934 -1.4551 -1.8156
  832MOL0     H12296  13.515   4.040   1.689  0.0305  0.2408 -0.1341
  832MOL0     H12297  13.555   3.894   1.789  0.1766  0.5539  3.0460
  832MOL0     H12298  13.736   4.041   1.667 -0.0878  0.8671  0.4291
  832MOL0     H12299  13.689   4.168   1.776  0.7806  0.3055 -0.5515
  832MOL0     H12300  12.744   4.286   2.487  1.8949  0.5659 -0.5392
  832MOL0     H12301  12.503   4.329   2.534 -1.1573 -0.2477  0.5988
  832MOL0     H12302  12.039   4.420   2.650 -0.2834  1.3434 -0.6220
  832MOL0     H12303  11.792   4.384   2.629 -1.0824 -0.6965 -0.0322
  832MOL0     H12304  10.069   4.252   1.484 -3.0269  3.2003  1.7381
  832MOL0     H12305   9.840   4.273   1.531 -1.4718  0.6037  0.8299
  832MOL0     H12306   9.471   4.135   1.634 -3.4658 -0.0830 -2.2291
  832MOL0     H12307   9.222   4.160   1.644  1.8391 -0.3890 -0.9771
  832MOL0     H12308   9.049   3.931   1.808 -0.7888 -0.4362  1.7404
  832MOL0     H12309   9.000   4.047   1.686 -2.0935  1.0713 -0.5650
  832MOL0     H12310   8.806   3.926   1.793  0.4129 -0.5703 -0.0871
  832MOL0     H12311   8.783   4.089   1.837 -2.7728 -1.1477  2.0883
  832MOL0     H12312   8.903   4.047   2.061 -2.3659  1.8844  0.8839
  832MOL0     H12313   8.883   3.879   2.022  0.9364  1.1294 -0.5110
  832MOL0     H12314   8.703   3.953   2.147  3.1298  0.9107 -0.0275
  832MOL0     H12315   8.655   4.083   2.037 -1.7048 -1.4679 -1.7945
  832MOL0     H12316   8.469   3.720   1.903 -1.2263 -0.4689  2.8756
  832MOL0     H12317   9.231   4.097   2.067  0.2090  0.2599 -0.2264
  832MOL0     H12318   9.476   3.956   2.121 -4.3745 -1.3788  0.2687
  832MOL0     H12319   9.570   4.111   2.133 -0.3168  1.5524  2.1527
  832MOL0     H12320   9.415   4.093   2.201  1.4124  0.6799  0.7413
  833MOL0     O12321   9.207   0.254   0.759  0.6035  0.4054 -0.9796
  833MOL0     C12322   9.166   0.165   0.838  0.5634 -0.3686  0.0363
  833MOL0     O12323   9.247   0.110   0.925  0.0540  0.2104  0.6063
  833MOL0     C12324   9.385   0.134   0.910  0.0029  0.6792 -0.6629
  833MOL0     C12325   9.458   0.253   0.943  0.3530 -0.1110  0.2607
  833MOL0     C12326   9.594   0.266   0.923  0.6736  0.3449  0.6705
  833MOL0     C12327   9.671   0.153   0.886 -0.6909  0.1965  0.0325
  833MOL0     O12328   9.808   0.151   0.862 -0.1348 -0.4657 -0.8633
  833MOL0     C12329   9.880   0.267   0.920 -0.1429 -0.3245 -0.0128
  833MOL0     C12330  10.029   0.220   0.933 -0.2392 -0.0226 -0.0715
  833MOL0     C12331  10.092   0.205   0.789 -0.7487 -0.6945  0.8096
  833MOL0     C12332  10.237   0.182   0.811  0.1735  0.9180  0.1056
  833MOL0     C12333  10.322   0.227   0.689  0.0373 -0.5072 -0.6086
  833MOL0     C12334  10.367   0.377   0.694  0.2232  0.9455  0.9431
  833MOL0     C12335  10.487   0.390   0.601 -0.3205  0.1105  0.4488
  833MOL0     C12336  10.440   0.391   0.458  0.3805  0.6298  0.1440
  833MOL0     N12337  10.542   0.411   0.347  0.2177 -0.1776 -1.5020
  833MOL0     C12338  10.620   0.322   0.279  0.2323  0.2302 -0.2287
  833MOL0     C12339  10.706   0.402   0.204  0.5002  0.3255  0.5623
  833MOL0     C12340  10.820   0.356   0.115 -0.0551  0.5529 -0.0654
  833MOL0     C12341  10.862   0.450   0.005 -0.1869 -0.1512  0.4108
  833MOL0     C12342  10.975   0.393  -0.076 -0.2001  0.6513 -0.0844
  833MOL0     C12343  11.022   0.497  -0.173 -0.0381  0.0554 -0.3987
  833MOL0     O12344  11.143   0.458  -0.248  0.1344  0.1409 -0.1265
  833MOL0     C12345  11.266   0.468  -0.184 -0.1870 -0.3726 -0.7235
  833MOL0     C12346  11.373   0.441  -0.271 -0.9274 -0.2574  0.0853
  833MOL0     C12347  11.501   0.446  -0.217 -0.0608 -0.4597 -0.8814
  833MOL0     C12348  11.532   0.473  -0.082 -0.4359  0.0374  0.3385
  833MOL0     C12349  11.671   0.477  -0.027 -0.4320 -1.0310 -0.5043
  833MOL0     O12350  11.678   0.539   0.096  0.5305 -1.1020  0.4548
  833MOL0     C12351  11.786   0.618   0.117  0.4112 -0.1948  0.7170
  833MOL0     C12352  11.853   0.602   0.227 -0.3157  1.5094  0.9461
  833MOL0     C12353  11.972   0.664   0.249  0.7103 -0.3171 -0.3397
  833MOL0     C12354  12.002   0.777   0.177 -0.3612  0.0322  0.5504
  833MOL0     O12355  12.117   0.832   0.204 -0.0493 -0.6363 -0.0446
  833MOL0     C12356  12.146   0.971   0.187  0.3403 -0.4128  0.3331
  833MOL0     C12357  12.090   1.070   0.290 -0.1684 -0.6622  0.0509
  833MOL0     C12358  11.933   1.056   0.303  0.2069  0.9861  0.6885
  833MOL0     C12359  11.882   1.157   0.404  0.9676 -0.8185 -0.1639
  833MOL0     C12360  11.734   1.151   0.459  0.7549  0.1346 -0.2166
  833MOL0     C12361  11.706   1.023   0.535  0.8997 -0.5635 -0.1841
  833MOL0     C12362  11.567   1.050   0.613 -0.3971 -0.1665  0.3077
  833MOL0     C12363  11.547   0.936   0.719  0.4147 -0.0698 -0.3096
  833MOL0    Cl12364  11.538   0.778   0.639  0.3331 -0.1181 -0.1886
  833MOL0     C12365  11.916   0.819   0.075  0.1499 -0.2845  0.6879
  833MOL0     C12366  11.808   0.735   0.040 -0.0146 -0.2741  0.2244
  833MOL0     O12367  11.766   0.465  -0.101 -0.0592  0.0861  0.0086
  833MOL0     C12368  11.424   0.501   0.005 -0.2370  0.0666  1.1767
  833MOL0     C12369  11.299   0.505  -0.046  0.4627  1.0543 -0.5834
  833MOL0     N12370  10.672   0.532   0.230 -0.2775 -0.3935 -0.2039
  833MOL0     N12371  10.579   0.535   0.310 -0.6473  0.4119 -0.2720
  833MOL0     C12372   9.603   0.033   0.857 -1.1165 -1.2334  0.2383
  833MOL0     C12373   9.461   0.030   0.858  0.1729  0.4793  0.1736
  833MOL0     C12374   9.034   0.102   0.808 -0.2716 -0.2587 -1.0432
  833MOL0     C12375   8.967   0.142   0.691 -0.2035  0.4247  0.4657
  833MOL0     C12376   8.859   0.071   0.647 -0.5604  0.1625  0.0018
  833MOL0     C12377   8.799  -0.023   0.724  0.0966 -0.4700  0.6719
  833MOL0     O12378   8.688  -0.093   0.674  0.0177 -0.4852  0.1383
  833MOL0     C12379   8.568  -0.017   0.667 -0.4291 -0.6317 -0.2018
  833MOL0     C12380   8.524   0.013   0.811 -0.5232 -0.7813  0.3878
  833MOL0     C12381   8.393   0.083   0.806  0.4242  0.6365  0.3715
  833MOL0     C12382   8.261   0.009   0.761  0.6066 -0.1844  0.0789
  833MOL0     C12383   8.194   0.079   0.654 -0.5636  0.2475 -0.6132
  833MOL0     C12384   8.142   0.139   0.563  0.3384  0.1122 -0.6726
  833MOL0     C12385   8.846  -0.046   0.845 -0.4455 -0.4147 -0.2150
  833MOL0     C12386   8.966   0.015   0.891  0.2993 -0.0782 -0.3429
  833MOL0     C12387   9.028  -0.036   1.023  0.5407  0.8028  0.2060
  833MOL0     H12388   9.393   0.329   0.987  0.4137  2.1301 -3.1843
  833MOL0     H12389   9.632   0.367   0.931 -0.2303  1.2258 -3.6882
  833MOL0     H12390   9.872   0.355   0.855  1.4420  1.7397  2.3789
  833MOL0     H12391   9.841   0.296   1.018  1.7888 -1.0101  1.0176
  833MOL0     H12392  10.051   0.124   0.981  0.1671 -0.0481 -0.3135
  833MOL0     H12393  10.087   0.301   0.980  3.7776 -1.9484 -1.2901
  833MOL0     H12394  10.076   0.296   0.731 -1.7481 -1.7233 -0.5791
  833MOL0     H12395  10.050   0.116   0.743  1.2530 -1.6891  0.7930
  833MOL0     H12396  10.277   0.240   0.894  1.5170  0.9811 -0.5630
  833MOL0     H12397  10.252   0.077   0.836 -1.5221  0.1428 -1.7936
  833MOL0     H12398  10.417   0.174   0.696 -0.6321 -1.5232  1.6697
  833MOL0     H12399  10.274   0.210   0.592 -1.3241 -0.0682 -0.0272
  833MOL0     H12400  10.289   0.449   0.670  1.1986  2.0236  0.9239
  833MOL0     H12401  10.404   0.410   0.791  1.1087  2.2470  0.1851
  833MOL0     H12402  10.557   0.307   0.614  1.4404  1.6778  1.5522
  833MOL0     H12403  10.546   0.480   0.618  1.7059 -1.0642 -0.0543
  833MOL0     H12404  10.376   0.303   0.447 -1.8024  1.8843  1.9866
  833MOL0     H12405  10.370   0.474   0.443 -0.0544  0.4208  0.9966
  833MOL0     H12406  10.617   0.214   0.273  1.8544  0.2609 -3.5918
  833MOL0     H12407  10.904   0.343   0.184 -2.0182 -2.9394  2.0295
  833MOL0     H12408  10.797   0.259   0.069  0.7964 -0.2864  1.1926
  833MOL0     H12409  10.774   0.462  -0.058  0.7616 -1.0351 -1.1663
  833MOL0     H12410  10.900   0.540   0.054 -1.5399  0.6368  0.0668
  833MOL0     H12411  10.931   0.313  -0.137  0.1186  0.6843 -0.3566
  833MOL0     H12412  11.048   0.347  -0.009 -1.0278 -0.7814 -0.1260
  833MOL0     H12413  11.062   0.588  -0.126  2.2209 -0.9900 -0.1817
  833MOL0     H12414  10.939   0.530  -0.236 -0.8285  0.3299  0.7495
  833MOL0     H12415  11.369   0.404  -0.373  1.8657 -2.4324  0.6563
  833MOL0     H12416  11.587   0.429  -0.280  1.7839 -0.0385  1.4195
  833MOL0     H12417  11.824   0.523   0.296  3.7171  0.7045  1.9996
  833MOL0     H12418  12.042   0.622   0.320  0.7219 -4.2405 -2.3936
  833MOL0     H12419  12.255   0.976   0.198  0.9190 -2.3909 -2.8973
  833MOL0     H12420  12.128   1.004   0.084 -2.5255 -4.2267 -0.6092
  833MOL0     H12421  12.127   1.045   0.390  2.5202 -2.6349 -1.3412
  833MOL0     H12422  12.126   1.168   0.258  0.4458 -1.9569 -3.6443
  833MOL0     H12423  11.895   1.072   0.202 -1.7375  1.0333  1.3868
  833MOL0     H12424  11.898   0.955   0.326 -0.2202  0.6174 -1.4211
  833MOL0     H12425  11.892   1.257   0.360 -1.3645 -1.1284 -1.5414
  833MOL0     H12426  11.938   1.167   0.497  0.3087  3.3219 -0.0004
  833MOL0     H12427  11.667   1.151   0.373  0.4603  2.3483 -0.0450
  833MOL0     H12428  11.721   1.239   0.523  0.2045  1.5243 -2.1813
  833MOL0     H12429  11.696   0.938   0.467 -0.4533 -2.0093  1.6781
  833MOL0     H12430  11.775   0.996   0.616 -1.6078 -1.8807  1.6684
  833MOL0     H12431  11.479   1.063   0.549 -0.2915 -0.6098  0.0696
  833MOL0     H12432  11.576   1.136   0.679 -0.5012 -2.2993  3.3199
  833MOL0     H12433  11.635   0.953   0.782 -0.7641  2.3040  0.8011
  833MOL0     H12434  11.454   0.957   0.771  1.7917 -1.4202  3.0181
  833MOL0     H12435  11.949   0.905   0.018  1.8548 -0.3444  1.5109
  833MOL0     H12436  11.740   0.768  -0.038 -0.6366  1.1582  1.3177
  833MOL0     H12437  11.441   0.528   0.108 -2.0498  0.3186  1.4376
  833MOL0     H12438  11.214   0.530   0.018  1.7104 -3.2749  3.3332
  833MOL0     H12439   9.650  -0.051   0.809 -1.2007  0.2153 -2.5680
  833MOL0     H12440   9.405  -0.058   0.829 -0.5826  1.6839 -2.3060
  833MOL0     H12441   9.013   0.213   0.624  0.0997  1.2625  1.5316
  833MOL0     H12442   8.813   0.089   0.550  0.5584 -0.4001 -0.6597
  833MOL0     H12443   8.496  -0.086   0.623  1.4763 -3.0298  0.2473
  833MOL0     H12444   8.567   0.071   0.601 -0.7693 -0.6353 -0.2043
  833MOL0     H12445   8.591   0.073   0.873 -0.2007 -2.1370  1.4174
  833MOL0     H12446   8.506  -0.082   0.862 -2.5016  0.1270  1.4938
  833MOL0     H12447   8.397   0.173   0.743 -0.3686  1.4237  1.3992
  833MOL0     H12448   8.358   0.127   0.900  1.2175  0.6914  0.6439
  833MOL0     H12449   8.285  -0.091   0.724  1.6391  0.7638 -1.9637
  833MOL0     H12450   8.188   0.004   0.843 -0.3888 -2.7773 -0.8666
  833MOL0     H12451   8.092   0.185   0.480  0.2708 -2.0739 -1.9331
  833MOL0     H12452   8.794  -0.107   0.919 -3.0032 -0.0521 -1.6072
  833MOL0     H12453   8.990  -0.137   1.038  2.2193  0.1448  0.1809
  833MOL0     H12454   9.136  -0.043   1.039  0.9628  1.8062 -1.9007
  833MOL0     H12455   8.972   0.012   1.104 -0.5130 -2.2719  1.4261
  834MOL0     O12456   8.254   0.669   7.983  0.1159  0.0902  0.6727
  834MOL0     C12457   8.197   0.583   8.058  0.1114 -0.5272  0.4035
  834MOL0     O12458   8.235   0.542   8.177 -0.1363 -0.6893  0.1806
  834MOL0     C12459   8.341   0.596   8.253  0.0365 -0.2831 -0.1876
  834MOL0     C12460   8.464   0.641   8.196 -1.5350 -0.2642 -0.3903
  834MOL0     C12461   8.564   0.701   8.282  1.5088 -0.1820 -0.1817
  834MOL0     C12462   8.542   0.700   8.428  1.3453 -0.0035  0.8150
  834MOL0     O12463   8.640   0.749   8.514  0.0822  0.7310  0.3835
  834MOL0     C12464   8.645   0.688   8.647 -0.9091 -0.1665  0.6689
  834MOL0     C12465   8.775   0.726   8.700  0.1278  0.3288  0.2984
  834MOL0     C12466   8.789   0.688   8.850 -0.3135 -0.3199 -0.8213
  834MOL0     C12467   8.915   0.750   8.906 -0.1542  0.0308  0.3130
  834MOL0     C12468   8.924   0.737   9.062 -0.1577 -0.2234 -0.6973
  834MOL0     C12469   9.066   0.771   9.121 -0.3597 -0.3664  1.4047
  834MOL0     C12470   9.105   0.914   9.065 -0.1786 -0.9301 -0.5680
  834MOL0     C12471   9.243   0.950   9.126  0.3398 -0.2015 -0.5137
  834MOL0     N12472   9.356   0.903   9.050 -0.1471  0.0273 -0.6226
  834MOL0     C12473   9.462   0.845   9.105 -0.6445  0.3347 -0.2239
  834MOL0     C12474   9.562   0.872   9.015  0.6006  0.9833  0.2038
  834MOL0     C12475   9.703   0.821   9.043 -0.3903 -0.5095 -0.4294
  834MOL0     C12476   9.784   0.804   8.912 -0.2687 -0.6917 -0.5523
  834MOL0     C12477   9.932   0.789   8.940 -0.9454 -0.3157  0.5561
  834MOL0     C12478  10.005   0.792   8.809  0.9840 -0.6540  0.1124
  834MOL0     O12479  10.137   0.750   8.846  0.3198 -0.0383  0.9213
  834MOL0     C12480  10.228   0.844   8.894 -0.4786  0.3273 -0.1647
  834MOL0     C12481  10.254   0.972   8.837 -0.5140 -0.1393 -1.0242
  834MOL0     C12482  10.352   1.058   8.892 -0.2419 -0.0960 -0.0010
  834MOL0     C12483  10.438   1.015   9.001 -0.0282  0.3922  0.2446
  834MOL0     C12484  10.529   1.115   9.049 -0.0939 -0.6944 -0.4796
  834MOL0     O12485  10.527   1.238   8.999 -0.1550  0.1997  0.6934
  834MOL0     C12486  10.636   1.327   9.025 -0.4548 -0.0683  0.0781
  834MOL0     C12487  10.655   1.371   9.154  0.7591  0.8796  0.3500
  834MOL0     C12488  10.776   1.442   9.179  0.3354  0.5211 -0.7870
  834MOL0     C12489  10.866   1.476   9.074  0.3199  0.8538  0.2817
  834MOL0     O12490  10.972   1.560   9.100  0.4390  0.2482 -0.4368
  834MOL0     C12491  11.056   1.629   9.006 -0.2815 -0.3574  0.2707
  834MOL0     C12492  11.146   1.706   9.098  0.2797  0.8111 -0.8159
  834MOL0     C12493  11.268   1.766   9.020  0.3134  0.4913  0.2550
  834MOL0     C12494  11.328   1.883   9.096  0.3215 -0.4116 -0.4655
  834MOL0     C12495  11.465   1.933   9.036 -0.0985 -0.4310 -0.6054
  834MOL0     C12496  11.561   2.009   9.132  0.6272 -0.3416 -0.7432
  834MOL0     C12497  11.689   2.035   9.050 -1.0079  0.3484 -0.8224
  834MOL0     C12498  11.777   2.119   9.150 -0.3040  0.2563  0.0248
  834MOL0    Cl12499  11.837   2.016   9.287 -0.4389 -0.1102  0.0974
  834MOL0     C12500  10.832   1.450   8.940  0.2691  0.0551  0.0993
  834MOL0     C12501  10.719   1.370   8.920 -0.1830 -0.1966  0.0023
  834MOL0     O12502  10.614   1.072   9.127  0.0299  0.2337  0.4759
  834MOL0     C12503  10.404   0.892   9.064  0.8451  0.7523  2.4383
  834MOL0     C12504  10.306   0.809   9.004 -0.3267 -0.1892 -0.6077
  834MOL0     N12505   9.514   0.938   8.901  0.0908 -1.3120 -0.2754
  834MOL0     N12506   9.394   0.954   8.931 -0.2824 -0.0044 -0.2717
  834MOL0     C12507   8.415   0.655   8.476 -0.1097  0.3458 -0.5031
  834MOL0     C12508   8.323   0.602   8.391  0.0758 -0.0194  0.2902
  834MOL0     C12509   8.073   0.530   7.999  0.2309 -0.5238 -0.3527
  834MOL0     C12510   8.065   0.508   7.858 -0.4598  0.2724  0.3478
  834MOL0     C12511   7.957   0.454   7.793  0.8790  0.3200 -0.3174
  834MOL0     C12512   7.835   0.442   7.861 -0.2517  0.3014  0.0720
  834MOL0     O12513   7.725   0.399   7.794 -0.3220  0.3177  0.0183
  834MOL0     C12514   7.591   0.410   7.854  0.2183 -0.4937 -0.0447
  834MOL0     C12515   7.487   0.389   7.738  0.0771 -0.3086  0.1233
  834MOL0     C12516   7.344   0.368   7.769  0.2311 -0.3261 -0.5613
  834MOL0     C12517   7.248   0.392   7.646  0.1417  0.0678  0.4822
  834MOL0     C12518   7.258   0.276   7.548 -0.0116 -0.1697  0.4219
  834MOL0     C12519   7.257   0.191   7.468 -0.6678  0.1001 -0.1910
  834MOL0     C12520   7.836   0.465   7.994 -0.2602  0.5040 -0.0210
  834MOL0     C12521   7.951   0.510   8.067  0.3969 -0.5112  0.4966
  834MOL0     C12522   7.936   0.551   8.212 -0.5431  0.1652 -1.0427
  834MOL0     H12523   8.483   0.654   8.091  2.2601  1.3599  0.3512
  834MOL0     H12524   8.654   0.737   8.234  0.7761  2.5099  0.2704
  834MOL0     H12525   8.568   0.713   8.720 -0.3940  1.5893  0.6590
  834MOL0     H12526   8.653   0.580   8.630  0.0422 -0.0034  0.0149
  834MOL0     H12527   8.800   0.830   8.677  0.1309  0.2255 -0.1790
  834MOL0     H12528   8.844   0.658   8.651 -2.6576 -0.6732 -2.5677
  834MOL0     H12529   8.787   0.581   8.873  0.4672  0.1520  1.8683
  834MOL0     H12530   8.703   0.725   8.907  0.2311  0.7363 -0.6655
  834MOL0     H12531   9.003   0.710   8.856 -2.1889  0.4849 -4.1172
  834MOL0     H12532   8.906   0.854   8.874  0.9326  0.4128  1.1951
  834MOL0     H12533   8.846   0.786   9.122 -2.2359 -3.5439 -0.4444
  834MOL0     H12534   8.916   0.632   9.092  2.5130 -0.4209 -0.4650
  834MOL0     H12535   9.073   0.761   9.230  0.5644 -0.3770  1.3529
  834MOL0     H12536   9.136   0.696   9.084  1.4913  1.8249  0.1861
  834MOL0     H12537   9.037   0.981   9.118 -1.2313 -2.7200  0.4619
  834MOL0     H12538   9.099   0.935   8.958 -1.1387 -0.0876 -0.3621
  834MOL0     H12539   9.249   1.059   9.133 -2.0754 -0.0474  0.3207
  834MOL0     H12540   9.250   0.922   9.231 -0.8780 -2.7804 -1.0390
  834MOL0     H12541   9.470   0.798   9.202 -0.7725  0.0059 -0.3669
  834MOL0     H12542   9.749   0.900   9.102  5.0020 -2.7692 -1.0233
  834MOL0     H12543   9.692   0.723   9.090 -0.2340 -0.1254  0.4289
  834MOL0     H12544   9.737   0.720   8.860 -0.5735 -1.4950  0.9340
  834MOL0     H12545   9.769   0.901   8.864 -1.6005 -0.0538  1.0562
  834MOL0     H12546   9.950   0.691   8.986 -1.4520  0.4288  2.4363
  834MOL0     H12547   9.982   0.858   9.008  0.1422  1.8427 -2.2439
  834MOL0     H12548   9.992   0.892   8.766 -2.7309 -0.9813  0.1401
  834MOL0     H12549   9.955   0.723   8.741  1.5300 -1.6826  0.7324
  834MOL0     H12550  10.181   1.000   8.762  1.2471  2.5320 -1.8718
  834MOL0     H12551  10.358   1.157   8.847  0.0292 -0.1717 -0.1308
  834MOL0     H12552  10.596   1.341   9.240 -1.3059 -1.0141 -1.6060
  834MOL0     H12553  10.800   1.460   9.283  0.3054 -3.5712  0.0853
  834MOL0     H12554  11.109   1.553   8.947 -1.6274  0.3380 -1.9897
  834MOL0     H12555  11.005   1.697   8.937 -5.7391 -2.7811  1.3842
  834MOL0     H12556  11.104   1.800   9.134  3.2763  2.2408 -0.7361
  834MOL0     H12557  11.188   1.655   9.186 -2.0429  0.3132  0.0686
  834MOL0     H12558  11.347   1.692   9.008  2.5570  2.6181  1.1279
  834MOL0     H12559  11.226   1.794   8.923 -0.6319 -3.2784 -0.5731
  834MOL0     H12560  11.322   1.857   9.202 -2.3040 -2.5308 -1.0172
  834MOL0     H12561  11.251   1.960   9.080 -0.0784 -1.0790 -1.9240
  834MOL0     H12562  11.426   1.987   8.950 -1.6413 -2.0392 -0.9776
  834MOL0     H12563  11.526   1.852   8.995 -2.2203 -1.1488 -2.5458
  834MOL0     H12564  11.506   2.095   9.172 -1.8611 -2.5725  0.9626
  834MOL0     H12565  11.592   1.951   9.219  0.3512  0.1080 -0.3393
  834MOL0     H12566  11.677   2.106   8.967  0.4522  1.4416 -0.1592
  834MOL0     H12567  11.743   1.945   9.020  0.6168  0.4811  1.4519
  834MOL0     H12568  11.853   2.161   9.084  0.6641  0.2186  1.0891
  834MOL0     H12569  11.724   2.202   9.198  0.5722  1.3340 -0.8150
  834MOL0     H12570  10.885   1.489   8.854 -1.6587  0.7156 -0.8457
  834MOL0     H12571  10.702   1.335   8.819  0.4540 -1.1205  0.1981
  834MOL0     H12572  10.461   0.845   9.143  2.8416  0.7192  1.0523
  834MOL0     H12573  10.309   0.708   9.044 -1.2952  1.3745  4.0091
  834MOL0     H12574   8.393   0.671   8.581  0.4105  1.9328 -0.6094
  834MOL0     H12575   8.228   0.558   8.420  0.0769  0.2567  0.7240
  834MOL0     H12576   8.148   0.533   7.793 -1.9269  0.7620 -1.4388
  834MOL0     H12577   7.960   0.414   7.692 -0.4933 -2.9677  0.7949
  834MOL0     H12578   7.593   0.502   7.913  0.1204 -1.8199  2.1563
  834MOL0     H12579   7.566   0.338   7.934 -0.8468 -0.1607 -0.0681
  834MOL0     H12580   7.507   0.294   7.687 -2.2226 -0.9272  0.3007
  834MOL0     H12581   7.501   0.476   7.674  1.8361  0.4612  1.4701
  834MOL0     H12582   7.313   0.446   7.840 -2.8718 -0.8674 -1.1976
  834MOL0     H12583   7.320   0.273   7.817  2.5500 -1.7049 -1.9591
  834MOL0     H12584   7.144   0.404   7.676  0.1787 -1.7987  1.5146
  834MOL0     H12585   7.278   0.484   7.595  1.5786 -1.9758 -2.7138
  834MOL0     H12586   7.241   0.133   7.379 -2.9344 -0.3628  0.4562
  834MOL0     H12587   7.742   0.473   8.047 -1.2335  0.6053 -1.6757
  834MOL0     H12588   7.985   0.648   8.222  0.7936 -0.5995  0.0913
  834MOL0     H12589   7.830   0.564   8.233 -0.6464 -1.5417 -0.3224
  834MOL0     H12590   7.984   0.482   8.282 -0.8404  0.4215 -0.5866
  835MOL0     O12591   2.161   0.749   0.542 -0.2456  0.0847  0.2136
  835MOL0     C12592   2.062   0.671   0.545 -0.4060  0.1090  0.0694
  835MOL0     O12593   2.056   0.549   0.488 -0.5589  0.8964  0.0987
  835MOL0     C12594   2.157   0.519   0.403 -0.3195  0.4965  0.0452
  835MOL0     C12595   2.240   0.409   0.430 -1.1907 -0.1653 -0.7697
  835MOL0     C12596   2.320   0.356   0.334 -0.7044 -0.8443  1.4360
  835MOL0     C12597   2.328   0.414   0.202  0.3162 -0.2432 -0.2016
  835MOL0     O12598   2.397   0.362   0.097  0.1574  0.1047 -0.2867
  835MOL0     C12599   2.513   0.279   0.117  0.5757 -0.7252  0.4203
  835MOL0     C12600   2.620   0.356   0.195  0.4063  0.9144  0.0957
  835MOL0     C12601   2.764   0.315   0.164  0.0569 -0.5725  0.5268
  835MOL0     C12602   2.872   0.418   0.183 -0.0255 -0.1517  0.4184
  835MOL0     C12603   3.010   0.350   0.154  0.6283 -0.7140 -0.8021
  835MOL0     C12604   3.119   0.454   0.123 -0.0237  0.8037 -0.1148
  835MOL0     C12605   3.253   0.381   0.127 -0.5900  0.4272 -0.5406
  835MOL0     C12606   3.349   0.494   0.101 -0.4424 -0.1618  0.4614
  835MOL0     N12607   3.489   0.448   0.103 -0.1546  0.7204 -0.4405
  835MOL0     C12608   3.562   0.393   0.003 -0.3023  0.1066  0.3521
  835MOL0     C12609   3.676   0.348   0.046  0.4903 -0.5424  0.2345
  835MOL0     C12610   3.779   0.275  -0.034  0.3158  1.0931 -0.9689
  835MOL0     C12611   3.836   0.347  -0.151  0.4623 -0.1639  0.1976
  835MOL0     C12612   3.939   0.275  -0.229 -0.1598  0.0245  0.5974
  835MOL0     C12613   3.966   0.336  -0.374 -0.4853  0.0601  0.3700
  835MOL0     O12614   4.014   0.470  -0.372 -0.2081 -0.4311  0.0771
  835MOL0     C12615   4.135   0.482  -0.302 -0.4982  0.2130 -0.6230
  835MOL0     C12616   4.238   0.417  -0.357  0.0328 -0.0926 -0.2316
  835MOL0     C12617   4.369   0.434  -0.311  0.7611 -0.2087 -0.2885
  835MOL0     C12618   4.406   0.520  -0.209 -0.1820  0.5208  0.2272
  835MOL0     C12619   4.546   0.537  -0.166 -0.1763  0.4873 -0.4971
  835MOL0     O12620   4.643   0.483  -0.247  0.8863  0.3711 -0.8259
  835MOL0     C12621   4.773   0.523  -0.234 -0.5835  0.6632  0.3492
  835MOL0     C12622   4.849   0.531  -0.354 -0.0018  0.0471 -0.1262
  835MOL0     C12623   4.981   0.576  -0.370  0.2010 -0.9296  0.2954
  835MOL0     C12624   5.051   0.598  -0.249 -0.1312 -0.1649  0.0157
  835MOL0     O12625   5.185   0.625  -0.255 -0.0399  0.1190 -0.3535
  835MOL0     C12626   5.227   0.757  -0.205 -0.4110  0.3371  0.3218
  835MOL0     C12627   5.382   0.767  -0.196  0.4348 -0.7504 -0.1408
  835MOL0     C12628   5.460   0.668  -0.117  0.0253 -0.4261 -0.7902
  835MOL0     C12629   5.392   0.617   0.013  0.3217 -0.7088 -0.2561
  835MOL0     C12630   5.482   0.570   0.133  0.3892 -1.4477  0.3045
  835MOL0     C12631   5.401   0.468   0.207 -0.2335  0.0672 -0.5589
  835MOL0     C12632   5.481   0.418   0.332 -0.2192  0.2862 -1.0258
  835MOL0     C12633   5.478   0.507   0.459 -0.3641  0.0889 -0.2102
  835MOL0    Cl12634   5.315   0.571   0.494  0.1806 -0.1701 -0.4180
  835MOL0     C12635   4.984   0.593  -0.124 -0.8058  1.0013  0.9870
  835MOL0     C12636   4.854   0.555  -0.115 -0.1629  0.3827 -0.2588
  835MOL0     O12637   4.562   0.593  -0.059 -0.4647  0.3801 -0.2229
  835MOL0     C12638   4.297   0.583  -0.144  0.2795 -0.2080  0.6006
  835MOL0     C12639   4.157   0.570  -0.189  0.5345  0.5212 -0.2351
  835MOL0     N12640   3.680   0.395   0.177 -0.9825 -0.1929  0.4108
  835MOL0     N12641   3.565   0.439   0.214 -0.0156  0.6947  0.0746
  835MOL0     C12642   2.239   0.520   0.168  0.6765 -0.7321 -0.3569
  835MOL0     C12643   2.153   0.579   0.266 -0.4530  0.8128 -0.7180
  835MOL0     C12644   1.959   0.723   0.635  0.7284  1.1310  0.2981
  835MOL0     C12645   1.950   0.662   0.763 -0.1135  0.0979  0.2703
  835MOL0     C12646   1.861   0.719   0.859  0.1747 -0.5115 -0.1322
  835MOL0     C12647   1.770   0.823   0.824  0.0110  0.2634  0.1711
  835MOL0     O12648   1.683   0.881   0.914 -0.3784  0.3516  0.2895
  835MOL0     C12649   1.693   0.867   1.056 -0.2395  0.9454  0.3342
  835MOL0     C12650   1.762   1.006   1.091  0.2021  0.1313 -0.0430
  835MOL0     C12651   1.770   1.042   1.249  0.6294 -0.6951  1.4079
  835MOL0     C12652   1.908   1.041   1.301  0.0190  0.0235 -0.0593
  835MOL0     C12653   1.981   0.908   1.279  0.5303 -0.8812 -0.4855
  835MOL0     C12654   2.039   0.804   1.266  0.2923  0.2651 -0.2506
  835MOL0     C12655   1.771   0.872   0.687 -0.3489  1.0596  0.4827
  835MOL0     C12656   1.865   0.820   0.593  0.1422 -0.3825 -0.2511
  835MOL0     C12657   1.866   0.880   0.455  0.2570  0.0572  0.4533
  835MOL0     H12658   2.246   0.350   0.521  0.1395 -2.4760 -2.2167
  835MOL0     H12659   2.389   0.277   0.364 -1.6105 -1.1211  2.8553
  835MOL0     H12660   2.493   0.185   0.170  0.0835 -1.1392 -0.4648
  835MOL0     H12661   2.546   0.254   0.015 -0.5625 -0.6070  0.0116
  835MOL0     H12662   2.593   0.347   0.300 -2.7245 -2.7351 -0.7689
  835MOL0     H12663   2.613   0.453   0.144  0.0975  0.1698 -1.3518
  835MOL0     H12664   2.774   0.269   0.065  2.1601 -0.7472  0.7810
  835MOL0     H12665   2.788   0.241   0.241  1.2101 -0.2665  0.4769
  835MOL0     H12666   2.843   0.496   0.112 -4.2987 -1.3030  0.6290
  835MOL0     H12667   2.853   0.467   0.279  0.4517 -1.4815  1.2089
  835MOL0     H12668   3.044   0.295   0.243 -5.0269 -3.0678  0.3359
  835MOL0     H12669   3.006   0.281   0.070 -2.7819 -0.8464 -0.6609
  835MOL0     H12670   3.091   0.501   0.028 -1.1362  1.8901  0.7088
  835MOL0     H12671   3.110   0.541   0.189 -0.7248  1.6232 -1.2558
  835MOL0     H12672   3.251   0.306   0.047  0.3253  1.5006 -1.5989
  835MOL0     H12673   3.261   0.334   0.225  0.3527  0.4435 -0.6059
  835MOL0     H12674   3.314   0.550   0.014 -2.4061  0.0399  1.3165
  835MOL0     H12675   3.343   0.565   0.184 -0.9317 -0.2952  0.5397
  835MOL0     H12676   3.539   0.367  -0.100  2.0873 -2.3875  0.3207
  835MOL0     H12677   3.859   0.248   0.035 -3.0772 -3.0769  1.8548
  835MOL0     H12678   3.729   0.182  -0.061 -3.4087  1.8351  2.4632
  835MOL0     H12679   3.746   0.377  -0.206 -0.5079  1.4195  2.4599
  835MOL0     H12680   3.883   0.437  -0.111  1.5518 -0.6194 -0.0452
  835MOL0     H12681   3.913   0.171  -0.251 -0.1087  0.3588 -1.1416
  835MOL0     H12682   4.035   0.263  -0.176  0.7126 -2.5147 -1.3601
  835MOL0     H12683   3.878   0.338  -0.439  0.4488  0.1166 -0.9359
  835MOL0     H12684   4.030   0.274  -0.437 -1.0323  2.4055 -2.7242
  835MOL0     H12685   4.229   0.357  -0.446  1.3810  0.5653 -0.8459
  835MOL0     H12686   4.446   0.371  -0.354  1.7443  1.7419 -1.5091
  835MOL0     H12687   4.804   0.504  -0.449  0.9396  1.3257 -0.9652
  835MOL0     H12688   5.031   0.588  -0.465  1.4373  3.4881  1.2661
  835MOL0     H12689   5.195   0.841  -0.267  1.2009 -0.4164 -1.6504
  835MOL0     H12690   5.182   0.783  -0.109 -0.2830  1.3036  0.1314
  835MOL0     H12691   5.430   0.772  -0.295 -0.6597  3.5196 -0.6495
  835MOL0     H12692   5.411   0.857  -0.142  1.6837  0.0795 -2.0704
  835MOL0     H12693   5.479   0.579  -0.177  2.3939 -0.7490  0.3510
  835MOL0     H12694   5.558   0.713  -0.100  0.1456 -0.7738 -0.5601
  835MOL0     H12695   5.329   0.533  -0.016 -1.3409  0.4044  0.0269
  835MOL0     H12696   5.316   0.689   0.045  2.3628  1.5852 -0.2564
  835MOL0     H12697   5.517   0.659   0.186  2.0496 -2.4597  1.0027
  835MOL0     H12698   5.573   0.532   0.085  0.0905  0.6798 -2.1813
  835MOL0     H12699   5.301   0.507   0.228 -0.2167  0.8562 -1.8688
  835MOL0     H12700   5.384   0.379   0.147 -1.6900  0.1814 -0.3473
  835MOL0     H12701   5.582   0.385   0.305  0.2374 -0.3688  1.2487
  835MOL0     H12702   5.436   0.321   0.357 -0.2709 -0.1204 -2.6008
  835MOL0     H12703   5.504   0.443   0.544 -0.6008  0.1041 -0.1252
  835MOL0     H12704   5.557   0.583   0.459 -0.4019  0.1848  1.7184
  835MOL0     H12705   5.030   0.618  -0.030 -2.0283  4.4828  0.7798
  835MOL0     H12706   4.806   0.554  -0.018  0.8183 -1.6406  0.2473
  835MOL0     H12707   4.313   0.651  -0.062  2.1835  1.0611 -0.7414
  835MOL0     H12708   4.077   0.627  -0.144  0.9024  0.4133  0.5774
  835MOL0     H12709   2.225   0.555   0.066 -1.7341  3.0248  1.0572
  835MOL0     H12710   2.088   0.658   0.232 -2.2416 -0.6502 -0.8509
  835MOL0     H12711   2.022   0.588   0.794 -0.3736 -0.3065 -0.0801
  835MOL0     H12712   1.859   0.670   0.955 -1.3078 -0.1211  0.0639
  835MOL0     H12713   1.752   0.785   1.097 -1.0285  0.7397  1.0868
  835MOL0     H12714   1.592   0.860   1.098 -0.1934  2.6547  0.7943
  835MOL0     H12715   1.693   1.072   1.037 -0.5734 -0.1931  0.5326
  835MOL0     H12716   1.861   1.013   1.045 -0.1483  0.4463 -0.7592
  835MOL0     H12717   1.714   0.965   1.302 -0.8214 -2.1236 -1.9214
  835MOL0     H12718   1.714   1.131   1.278 -1.1296 -1.8763  1.7825
  835MOL0     H12719   1.964   1.118   1.249 -0.6851  0.5059 -0.1284
  835MOL0     H12720   1.899   1.068   1.407  0.8026  0.1848 -0.0304
  835MOL0     H12721   2.088   0.710   1.257 -2.3773 -1.6081  2.6771
  835MOL0     H12722   1.710   0.957   0.658  0.0206  0.1038 -3.6608
  835MOL0     H12723   1.942   0.958   0.462  1.4838 -1.0752  0.1372
  835MOL0     H12724   1.902   0.809   0.381  0.0317  0.0938  0.3064
  835MOL0     H12725   1.770   0.914   0.413  0.3258 -0.9212 -0.5404
  836MOL0     O12726   4.808   9.623   2.159 -0.2491  0.0407  0.4966
  836MOL0     C12727   4.752   9.726   2.138  0.3555 -0.8234 -0.7072
  836MOL0     O12728   4.746   9.791   2.013 -0.4006 -0.1517  0.2162
  836MOL0     C12729   4.836   9.751   1.912 -0.4028 -0.1722 -0.3290
  836MOL0     C12730   4.964   9.699   1.937  0.0132  0.1461  0.7436
  836MOL0     C12731   5.044   9.662   1.824 -0.5632  0.5437 -0.3522
  836MOL0     C12732   5.003   9.674   1.695 -0.5226  0.7344  0.1939
  836MOL0     O12733   5.091   9.634   1.596  0.3081  0.4949 -0.4131
  836MOL0     C12734   5.052   9.655   1.457  0.2431  0.8668  0.1053
  836MOL0     C12735   5.190   9.655   1.380 -0.1382 -0.8495 -0.3067
  836MOL0     C12736   5.172   9.711   1.239 -0.6122  0.2659  0.0497
  836MOL0     C12737   5.296   9.671   1.154  0.2527  0.4450 -1.0311
  836MOL0     C12738   5.287   9.727   1.017 -1.1067  0.0730 -0.6373
  836MOL0     C12739   5.287   9.878   0.998  1.2169 -0.1972  0.8432
  836MOL0     C12740   5.263   9.923   0.847  0.3712  0.5545 -0.2097
  836MOL0     C12741   5.133   9.862   0.786 -0.3773 -0.0685 -0.0469
  836MOL0     N12742   5.092   9.922   0.654 -0.6652 -0.3601 -0.3291
  836MOL0     C12743   5.159   9.917   0.529 -0.0612  0.7585  0.4281
  836MOL0     C12744   5.081   9.989   0.440  0.5086  0.4225  0.2373
  836MOL0     C12745   5.114  10.018   0.294  0.2030  0.6895 -0.4424
  836MOL0     C12746   4.991   9.985   0.207  0.4085 -0.8165 -0.6136
  836MOL0     C12747   5.031   9.995   0.056  0.2213  0.4707 -0.8264
  836MOL0     C12748   5.146   9.891   0.033  0.1905  0.8150 -0.1146
  836MOL0     O12749   5.104   9.822  -0.088 -0.8548 -0.4274  0.1148
  836MOL0     C12750   5.171   9.704  -0.122 -0.7834  0.0673  0.4602
  836MOL0     C12751   5.302   9.686  -0.097 -0.3317  0.7612 -0.0847
  836MOL0     C12752   5.367   9.560  -0.122  0.2636  0.9101 -0.2396
  836MOL0     C12753   5.289   9.463  -0.190 -0.2663  0.3428  0.7872
  836MOL0     C12754   5.359   9.331  -0.233 -0.1314 -0.0406 -0.9599
  836MOL0     O12755   5.270   9.231  -0.273  0.1258  0.2828  0.6706
  836MOL0     C12756   5.335   9.120  -0.323 -0.2425  0.0339  0.1665
  836MOL0     C12757   5.393   9.034  -0.232 -0.4303 -0.3456 -0.8748
  836MOL0     C12758   5.477   8.928  -0.274 -0.8371 -0.7384  0.7091
  836MOL0     C12759   5.483   8.903  -0.411 -0.0203  0.3759  0.4774
  836MOL0     O12760   5.556   8.795  -0.455  0.3255 -0.0519 -0.0988
  836MOL0     C12761   5.535   8.673  -0.378 -1.0495 -0.4241 -0.5038
  836MOL0     C12762   5.563   8.545  -0.468  0.0488  1.2825  1.0134
  836MOL0     C12763   5.503   8.426  -0.390 -0.1447 -0.4479 -0.5058
  836MOL0     C12764   5.612   8.332  -0.344  0.4907 -0.3486  0.3128
  836MOL0     C12765   5.563   8.210  -0.263  0.4141 -0.1781  0.1406
  836MOL0     C12766   5.484   8.097  -0.322  0.4738 -0.1083  0.9427
  836MOL0     C12767   5.548   8.051  -0.452 -0.3328  0.0955  0.2508
  836MOL0     C12768   5.476   7.934  -0.510 -0.3746 -0.0769 -0.2628
  836MOL0    Cl12769   5.459   7.793  -0.397  0.4551  0.7677  0.1937
  836MOL0     C12770   5.415   8.981  -0.507 -0.2060 -0.5299 -0.4052
  836MOL0     C12771   5.338   9.084  -0.459 -0.1838 -0.4829 -0.3608
  836MOL0     O12772   5.482   9.332  -0.238 -0.1766  0.6290  0.2822
  836MOL0     C12773   5.149   9.484  -0.210 -0.6404  0.3695 -0.0419
  836MOL0     C12774   5.096   9.604  -0.183  0.2096  0.7671  0.1583
  836MOL0     N12775   4.972  10.030   0.511  0.3299  0.0391 -0.7485
  836MOL0     N12776   4.982   9.994   0.628  0.6717  0.5367 -0.1838
  836MOL0     C12777   4.871   9.713   1.672  0.2235  0.4667  0.2727
  836MOL0     C12778   4.790   9.752   1.783 -0.5957 -0.3969 -0.1722
  836MOL0     C12779   4.705   9.803   2.262 -0.0143  0.0546  0.5415
  836MOL0     C12780   4.689   9.936   2.251 -0.6090 -0.4682  0.9950
  836MOL0     C12781   4.635  10.014   2.353 -0.5128  0.0619  0.1642
  836MOL0     C12782   4.593   9.957   2.467  0.1381 -0.7653  0.9443
  836MOL0     O12783   4.549  10.026   2.575  0.2778 -0.0352 -0.0909
  836MOL0     C12784   4.415  10.062   2.553 -0.2873  0.1225  0.2864
  836MOL0     C12785   4.324   9.935   2.532 -0.3516 -0.5624 -1.2151
  836MOL0     C12786   4.176   9.962   2.525 -0.5346  0.4511 -1.6604
  836MOL0     C12787   4.091   9.860   2.605  0.1311 -0.3429  0.1176
  836MOL0     C12788   3.944   9.866   2.583 -0.1556  0.4830  1.1043
  836MOL0     C12789   3.829   9.858   2.537  0.1044  0.4428  0.1809
  836MOL0     C12790   4.606   9.817   2.478 -0.6062  0.5238 -0.3817
  836MOL0     C12791   4.667   9.740   2.378 -0.2736 -0.4796 -1.3477
  836MOL0     C12792   4.683   9.596   2.410  0.0663  0.4986  0.2218
  836MOL0     H12793   5.010   9.680   2.033 -0.9102  1.2799  1.4332
  836MOL0     H12794   5.137   9.608   1.838 -1.2732 -0.6850 -0.1733
  836MOL0     H12795   4.990   9.572   1.421  0.4354  0.4554  0.6915
  836MOL0     H12796   5.008   9.754   1.447  1.8443  1.5096 -0.9102
  836MOL0     H12797   5.215   9.549   1.387 -0.8309 -0.9310  3.4935
  836MOL0     H12798   5.272   9.699   1.438 -0.8238  0.9161 -0.6206
  836MOL0     H12799   5.172   9.818   1.263  1.4833 -0.0727  1.8505
  836MOL0     H12800   5.082   9.686   1.182 -0.6026  2.1947 -0.8729
  836MOL0     H12801   5.385   9.715   1.200 -1.0587  2.9020 -0.6854
  836MOL0     H12802   5.304   9.563   1.138 -3.0732 -0.0697 -0.1117
  836MOL0     H12803   5.381   9.701   0.968 -1.6064  0.7199 -1.9970
  836MOL0     H12804   5.204   9.676   0.968  0.1766 -0.3630 -2.4591
  836MOL0     H12805   5.211   9.918   1.066  0.2871 -2.7092  1.3945
  836MOL0     H12806   5.370   9.925   1.050  2.5917 -0.3684 -1.0691
  836MOL0     H12807   5.354   9.891   0.796 -0.0915  0.3559 -0.9322
  836MOL0     H12808   5.254  10.032   0.843 -2.3130  0.4394  0.8498
  836MOL0     H12809   5.146   9.755   0.772  2.3510  0.6022 -4.5964
  836MOL0     H12810   5.050   9.873   0.856  0.6296 -0.5506  1.2692
  836MOL0     H12811   5.257   9.875   0.512 -1.0089 -1.8357  0.8295
  836MOL0     H12812   5.167  10.112   0.281  1.7756  0.0234  0.7805
  836MOL0     H12813   5.194   9.947   0.271  0.5772  0.4188  1.5156
  836MOL0     H12814   4.938   9.895   0.239 -2.5117  0.4832 -1.4479
  836MOL0     H12815   4.909  10.056   0.225 -0.8873 -1.9645 -1.7764
  836MOL0     H12816   5.061  10.099   0.040 -0.7991  1.3222  2.0391
  836MOL0     H12817   4.936   9.988   0.003 -0.5218  2.5179  0.1247
  836MOL0     H12818   5.144   9.812   0.109  1.8593 -0.0990 -0.9693
  836MOL0     H12819   5.246   9.934   0.024  0.8467 -0.3663  1.1217
  836MOL0     H12820   5.355   9.769  -0.050 -0.4211  0.1291  1.1645
  836MOL0     H12821   5.467   9.539  -0.085 -0.4664 -1.0922  0.7340
  836MOL0     H12822   5.387   9.053  -0.126  4.5697  2.0311 -0.7123
  836MOL0     H12823   5.538   8.862  -0.213  0.6783 -1.1862 -1.2095
  836MOL0     H12824   5.609   8.682  -0.298 -2.4167  3.0026  0.6008
  836MOL0     H12825   5.435   8.683  -0.334 -0.5921  0.6029  0.3816
  836MOL0     H12826   5.505   8.551  -0.560  2.3780  1.5515 -0.5099
  836MOL0     H12827   5.670   8.544  -0.488 -0.3440  1.9970 -1.3909
  836MOL0     H12828   5.443   8.459  -0.304  1.1509  0.1390  0.1978
  836MOL0     H12829   5.436   8.369  -0.456 -0.8522  0.3204 -0.4779
  836MOL0     H12830   5.688   8.393  -0.296  1.3652  1.5627 -3.1312
  836MOL0     H12831   5.672   8.303  -0.431 -1.9618 -1.9736 -0.9955
  836MOL0     H12832   5.506   8.251  -0.179  3.0408 -0.7580  2.3417
  836MOL0     H12833   5.656   8.167  -0.226  0.9536 -0.1699 -1.1767
  836MOL0     H12834   5.477   8.009  -0.257  0.5399 -1.6095 -1.0051
  836MOL0     H12835   5.388   8.139  -0.354  0.7229 -0.3179 -0.1158
  836MOL0     H12836   5.648   8.008  -0.438 -0.9927 -1.3934  0.5470
  836MOL0     H12837   5.557   8.129  -0.528  0.4014 -0.2689 -0.0481
  836MOL0     H12838   5.376   7.966  -0.543 -1.7321 -1.9146  1.7456
  836MOL0     H12839   5.524   7.903  -0.603  2.6693  3.7855 -0.2203
  836MOL0     H12840   5.421   8.970  -0.615  0.5176  2.5024 -0.7594
  836MOL0     H12841   5.281   9.149  -0.525 -1.1723  1.3332  2.0790
  836MOL0     H12842   5.094   9.399  -0.250  0.0578 -0.8800  1.5117
  836MOL0     H12843   4.995   9.634  -0.210  0.7394  0.1004 -2.8162
  836MOL0     H12844   4.840   9.717   1.568  0.6340 -0.4899  0.0999
  836MOL0     H12845   4.690   9.791   1.765  0.3173  1.6726 -1.1030
  836MOL0     H12846   4.721   9.987   2.161 -2.1974 -0.8673  0.1751
  836MOL0     H12847   4.614  10.120   2.341 -2.9199 -0.2334  1.2072
  836MOL0     H12848   4.383  10.130   2.474 -4.7287 -0.5256  1.2543
  836MOL0     H12849   4.398  10.112   2.649  1.1145 -1.3022  1.3218
  836MOL0     H12850   4.355   9.875   2.618  1.5095  4.0075  1.6919
  836MOL0     H12851   4.348   9.879   2.441  3.4520  0.3333 -0.9446
  836MOL0     H12852   4.148   9.963   2.420  0.2065  2.5320 -1.8744
  836MOL0     H12853   4.151  10.059   2.569  0.1839 -0.6144  1.3446
  836MOL0     H12854   4.113   9.754   2.586 -0.7732 -0.1020 -2.7272
  836MOL0     H12855   4.118   9.869   2.711  1.2271 -1.8256  0.0041
  836MOL0     H12856   3.727   9.842   2.508  0.7106 -2.8068 -0.5893
  836MOL0     H12857   4.577   9.770   2.571  1.2418 -0.2322 -0.1510
  836MOL0     H12858   4.789   9.572   2.425  0.3060  3.4706  5.8846
  836MOL0     H12859   4.617   9.556   2.487 -0.2786  2.0082  0.7307
  836MOL0     H12860   4.650   9.535   2.325  1.8193 -0.4224  0.1602
  837MOL0     O12861   6.147   4.493   2.350  0.3457 -0.3920 -0.3968
  837MOL0     C12862   6.168   4.498   2.225 -0.7406  0.3775 -0.9897
  837MOL0     O12863   6.076   4.529   2.127  1.0422 -0.2347  0.4860
  837MOL0     C12864   5.946   4.575   2.152  0.3903 -0.1648  1.0701
  837MOL0     C12865   5.892   4.606   2.278  0.1361 -0.0639 -0.2974
  837MOL0     C12866   5.762   4.639   2.297  0.4601 -0.2564  0.3375
  837MOL0     C12867   5.669   4.628   2.195 -0.6390  0.9742 -0.3411
  837MOL0     O12868   5.537   4.640   2.228  0.2215 -0.0441 -0.1114
  837MOL0     C12869   5.443   4.588   2.132 -0.1932 -0.8535  0.7580
  837MOL0     C12870   5.315   4.605   2.198 -0.0849  0.3253 -0.1745
  837MOL0     C12871   5.205   4.521   2.124  0.2381 -0.1198  0.2574
  837MOL0     C12872   5.065   4.567   2.168  0.4286  0.7051 -0.3302
  837MOL0     C12873   4.947   4.502   2.098  0.4625  0.2951 -0.1684
  837MOL0     C12874   4.916   4.378   2.175 -0.3573 -0.6702  1.3111
  837MOL0     C12875   4.794   4.397   2.260 -0.3307  0.2151 -0.0667
  837MOL0     C12876   4.770   4.270   2.343  1.0235 -0.2818 -0.3107
  837MOL0     N12877   4.724   4.158   2.273  0.5369  0.5938 -0.0674
  837MOL0     C12878   4.621   4.164   2.181  1.0475 -0.2541 -0.1222
  837MOL0     C12879   4.582   4.035   2.176 -0.1140 -0.3933 -0.5661
  837MOL0     C12880   4.486   3.972   2.078  0.8891 -0.0626  0.1428
  837MOL0     C12881   4.540   3.897   1.963 -0.5000  0.5505  0.0775
  837MOL0     C12882   4.596   3.993   1.859  0.7282  0.9423  0.2723
  837MOL0     C12883   4.665   3.933   1.728  0.2744  0.7689 -0.8417
  837MOL0     O12884   4.714   4.031   1.640 -0.4627 -0.4178 -0.1124
  837MOL0     C12885   4.835   4.029   1.578 -0.6911  0.6547  0.3003
  837MOL0     C12886   4.885   3.904   1.539 -0.1938 -0.0599  0.7091
  837MOL0     C12887   5.012   3.888   1.472  0.0334 -0.4353 -0.1800
  837MOL0     C12888   5.085   4.002   1.446  0.0778  0.1404  0.2675
  837MOL0     C12889   5.211   3.992   1.378  0.0458  0.8387 -0.4506
  837MOL0     O12890   5.313   4.079   1.407  1.3249 -0.1451 -0.4222
  837MOL0     C12891   5.439   4.082   1.341  0.0232 -0.0484  0.4586
  837MOL0     C12892   5.456   4.018   1.213 -0.2117  0.4280 -0.3485
  837MOL0     C12893   5.568   4.046   1.133 -0.6681 -0.1747 -0.2480
  837MOL0     C12894   5.682   4.111   1.187 -0.2187 -0.1000 -0.0510
  837MOL0     O12895   5.806   4.114   1.121  0.0857 -0.1906 -0.3478
  837MOL0     C12896   5.822   4.095   0.979  0.0659 -0.4355  0.4687
  837MOL0     C12897   5.907   3.967   0.956 -0.4783  0.0776  0.1548
  837MOL0     C12898   5.948   3.949   0.806  0.9598 -1.0990 -0.8156
  837MOL0     C12899   6.023   3.814   0.784 -0.3303  0.5777 -0.5661
  837MOL0     C12900   6.053   3.767   0.650 -0.5542  0.3311 -0.4475
  837MOL0     C12901   5.927   3.741   0.564  0.0836 -0.3372  0.6667
  837MOL0     C12902   5.954   3.686   0.424  0.4267  0.2775 -0.3254
  837MOL0     C12903   5.836   3.707   0.346 -0.2708  0.0835  0.0298
  837MOL0    Cl12904   5.853   3.618   0.187 -0.3233 -0.1025 -0.0072
  837MOL0     C12905   5.676   4.149   1.327  0.0231  0.1107 -1.0311
  837MOL0     C12906   5.558   4.142   1.392  0.7746  0.4216 -1.0704
  837MOL0     O12907   5.223   3.887   1.319 -0.3494  0.0302 -0.5015
  837MOL0     C12908   5.030   4.124   1.468  0.6791 -0.2158  0.1180
  837MOL0     C12909   4.911   4.141   1.543 -0.3472  0.5450 -0.5105
  837MOL0     N12910   4.663   3.957   2.254 -0.6656 -0.1746  0.4230
  837MOL0     N12911   4.740   4.034   2.316 -0.0369 -0.5214 -0.0708
  837MOL0     C12912   5.718   4.609   2.066 -0.9757  1.2333  0.6608
  837MOL0     C12913   5.860   4.588   2.048  1.0829  0.0372  0.0767
  837MOL0     C12914   6.307   4.472   2.184  0.3724  0.5076 -0.2344
  837MOL0     C12915   6.332   4.481   2.044 -0.2798  0.2363 -0.1650
  837MOL0     C12916   6.457   4.463   1.985  0.0346  0.2011 -1.1491
  837MOL0     C12917   6.570   4.458   2.069 -0.1926 -0.1133 -0.5122
  837MOL0     O12918   6.703   4.447   2.029 -0.0979  0.2967 -0.3206
  837MOL0     C12919   6.740   4.413   1.894  0.8728  0.6186  0.3912
  837MOL0     C12920   6.884   4.400   1.892 -0.3962 -0.3585 -0.0754
  837MOL0     C12921   6.951   4.465   1.770  0.1058 -0.0976 -0.3497
  837MOL0     C12922   7.107   4.461   1.793 -1.1443 -0.4733  0.1644
  837MOL0     C12923   7.180   4.504   1.676 -0.9480 -0.1412 -0.3453
  837MOL0     C12924   7.237   4.526   1.571  0.7222 -0.6601  0.3623
  837MOL0     C12925   6.547   4.445   2.204 -0.0999 -0.8442  0.5761
  837MOL0     C12926   6.419   4.443   2.262 -0.2059 -0.3534  0.3839
  837MOL0     C12927   6.416   4.434   2.413  0.0101 -0.2926  0.1615
  837MOL0     H12928   5.947   4.619   2.371 -0.1321  1.2537 -0.2950
  837MOL0     H12929   5.716   4.667   2.392 -1.5961  0.5989 -0.8350
  837MOL0     H12930   5.444   4.646   2.039  0.7044  0.4912  1.5732
  837MOL0     H12931   5.459   4.481   2.114  2.3211 -0.1381 -1.9482
  837MOL0     H12932   5.292   4.710   2.175  0.4023  0.3790 -0.4429
  837MOL0     H12933   5.325   4.592   2.306 -1.8358  0.8112  0.0862
  837MOL0     H12934   5.224   4.413   2.131 -0.1894 -0.1481  1.0781
  837MOL0     H12935   5.212   4.536   2.015  1.4942  1.2754  0.4979
  837MOL0     H12936   5.054   4.563   2.277 -4.4026 -0.0966 -0.6315
  837MOL0     H12937   5.063   4.669   2.127 -0.1149  0.2624 -1.4278
  837MOL0     H12938   4.859   4.566   2.089 -1.0029 -1.3820  1.4259
  837MOL0     H12939   4.984   4.478   1.998  1.8755  3.4495 -0.5217
  837MOL0     H12940   4.889   4.298   2.105  0.3852  0.4785 -0.3537
  837MOL0     H12941   5.007   4.345   2.225  0.9537  1.1363  0.2276
  837MOL0     H12942   4.706   4.423   2.200 -0.0373  0.3096 -0.4528
  837MOL0     H12943   4.812   4.484   2.324  1.4765 -1.2897  1.5778
  837MOL0     H12944   4.856   4.250   2.408 -0.3988  2.1547  2.5543
  837MOL0     H12945   4.690   4.299   2.410  0.3518 -0.6655 -0.9328
  837MOL0     H12946   4.586   4.250   2.124 -1.8604 -2.2618 -1.6454
  837MOL0     H12947   4.421   3.905   2.135  1.3689  0.6575  1.5789
  837MOL0     H12948   4.412   4.049   2.053  0.3216  0.8417  3.9514
  837MOL0     H12949   4.624   3.837   2.000  1.0351  1.1348 -2.1661
  837MOL0     H12950   4.463   3.836   1.915  0.0360  1.6958 -2.4057
  837MOL0     H12951   4.677   4.043   1.914  3.4861 -2.2653 -0.5917
  837MOL0     H12952   4.506   4.053   1.846  1.8179  2.1644 -2.3198
  837MOL0     H12953   4.602   3.863   1.672  1.8330  0.0170 -1.7147
  837MOL0     H12954   4.753   3.874   1.754 -1.1236 -0.9814  0.2176
  837MOL0     H12955   4.831   3.810   1.549  2.1097 -1.7373 -1.2332
  837MOL0     H12956   5.048   3.787   1.453  0.1455 -0.9129  2.2997
  837MOL0     H12957   5.382   3.953   1.167  0.3139 -0.6667  0.3200
  837MOL0     H12958   5.561   4.002   1.034 -2.3350 -3.5407  1.2002
  837MOL0     H12959   5.733   4.089   0.916 -0.2387  1.3787  0.6508
  837MOL0     H12960   5.879   4.185   0.953  1.0697 -1.3497 -0.5576
  837MOL0     H12961   5.988   3.959   1.028 -1.7701 -0.5785  1.5947
  837MOL0     H12962   5.842   3.884   0.983  0.8954 -1.3475 -0.7504
  837MOL0     H12963   5.848   3.948   0.760 -1.1243  0.1813  3.1742
  837MOL0     H12964   5.993   4.043   0.773 -3.4043  0.9282 -1.8420
  837MOL0     H12965   5.959   3.732   0.816 -0.3587  0.7769 -0.1121
  837MOL0     H12966   6.113   3.816   0.846 -0.7661 -0.1132  0.0889
  837MOL0     H12967   6.106   3.672   0.667  0.7289  1.0142 -0.4871
  837MOL0     H12968   6.115   3.837   0.593 -1.7032  0.0356 -2.1468
  837MOL0     H12969   5.842   3.688   0.609 -1.8564  1.5493 -0.5861
  837MOL0     H12970   5.893   3.844   0.552 -0.1635 -0.2139  2.2153
  837MOL0     H12971   5.975   3.578   0.428  0.8979  0.3906  0.3852
  837MOL0     H12972   6.026   3.740   0.362  1.4355  0.6479  1.1178
  837MOL0     H12973   5.740   3.689   0.396 -2.5969  3.5675 -2.6433
  837MOL0     H12974   5.812   3.813   0.338 -0.7475  0.0135  0.4556
  837MOL0     H12975   5.766   4.192   1.370  1.2032 -2.3597 -0.8680
  837MOL0     H12976   5.552   4.198   1.485 -0.6673  0.1303 -0.9609
  837MOL0     H12977   5.077   4.216   1.436  0.5521  0.5166  1.8889
  837MOL0     H12978   4.880   4.238   1.581  1.4967  1.0334 -0.1794
  837MOL0     H12979   5.661   4.589   1.976  1.3126  0.1570 -0.6439
  837MOL0     H12980   5.901   4.566   1.950  1.1162 -0.8134  0.2713
  837MOL0     H12981   6.254   4.512   1.976  1.2671  1.5141 -1.4426
  837MOL0     H12982   6.455   4.457   1.877  0.6563  2.2991 -1.3217
  837MOL0     H12983   6.715   4.495   1.827  2.4820  1.0983  0.3408
  837MOL0     H12984   6.688   4.318   1.873  0.6709  0.6583  0.6944
  837MOL0     H12985   6.915   4.295   1.891 -0.6338 -0.4352  0.2871
  837MOL0     H12986   6.921   4.441   1.986 -0.5998  1.1720 -0.6444
  837MOL0     H12987   6.911   4.565   1.751 -1.5521 -0.6914 -0.1315
  837MOL0     H12988   6.939   4.407   1.678 -0.1720 -0.9808  0.2321
  837MOL0     H12989   7.123   4.535   1.871 -2.9732 -0.3776  0.5045
  837MOL0     H12990   7.141   4.367   1.836 -1.0961 -1.4721 -1.9202
  837MOL0     H12991   7.298   4.517   1.483 -1.2023 -2.0023 -0.9058
  837MOL0     H12992   6.631   4.447   2.274  1.7217  2.8896 -1.4019
  837MOL0     H12993   6.517   4.420   2.453  0.3396 -1.7275 -1.0651
  837MOL0     H12994   6.369   4.524   2.453 -2.3476 -1.1606 -0.5098
  837MOL0     H12995   6.348   4.351   2.437  0.1997 -0.9733 -1.5181
  838MOL0     O12996   3.936  10.507   3.459 -0.2717 -0.4735 -0.6114
  838MOL0     C12997   3.967  10.502   3.582 -0.2210  0.1540  0.5564
  838MOL0     O12998   3.881  10.459   3.682  0.0019  0.6969  0.8830
  838MOL0     C12999   3.802  10.354   3.643  0.2544  0.4231  0.7760
  838MOL0     C13000   3.830  10.221   3.673  0.7399  0.5754  0.2718
  838MOL0     C13001   3.734  10.122   3.627 -0.6091  0.0223  0.9106
  838MOL0     C13002   3.623  10.161   3.556 -0.4419 -1.0567  0.3588
  838MOL0     O13003   3.524  10.080   3.522 -0.1181 -0.1294 -0.1324
  838MOL0     C13004   3.567   9.991   3.419 -0.1781 -0.7088  0.3751
  838MOL0     C13005   3.447   9.931   3.350 -0.0101  0.5126  0.5008
  838MOL0     C13006   3.356   9.869   3.454  0.0998  0.6105 -0.4805
  838MOL0     C13007   3.268   9.766   3.376  0.5901 -0.7894 -0.2784
  838MOL0     C13008   3.140   9.728   3.450  0.1787  0.5903  0.9379
  838MOL0     C13009   3.156   9.662   3.585  0.6755  0.4110  0.1298
  838MOL0     C13010   3.027   9.617   3.631 -0.7703 -0.5339 -0.7047
  838MOL0     C13011   3.017   9.618   3.788 -0.2076 -0.3386  0.1948
  838MOL0     N13012   3.069   9.488   3.830  0.8150  0.4073  0.3757
  838MOL0     C13013   3.191   9.445   3.844  0.3180  0.7206 -0.0443
  838MOL0     C13014   3.193   9.312   3.863 -0.2317  0.1865  0.6094
  838MOL0     C13015   3.301   9.218   3.906 -0.5936  0.6873  1.2714
  838MOL0     C13016   3.271   9.180   4.047 -0.6314  0.4709 -0.0672
  838MOL0     C13017   3.354   9.043   4.062  0.3237 -0.1513 -0.8331
  838MOL0     C13018   3.368   8.996   4.209  0.9078 -0.3745  0.3568
  838MOL0     O13019   3.441   9.084   4.289 -0.0001  0.0438  0.0776
  838MOL0     C13020   3.579   9.095   4.279 -0.3497 -0.3082 -0.6521
  838MOL0     C13021   3.654   9.029   4.190 -0.3732 -0.4224 -0.1632
  838MOL0     C13022   3.790   9.056   4.175 -0.6225  0.0721  0.2809
  838MOL0     C13023   3.857   9.157   4.259 -0.3846 -0.1577  0.5426
  838MOL0     C13024   3.995   9.193   4.252  0.4692  0.3873 -0.6853
  838MOL0     O13025   4.052   9.227   4.365 -0.8222  0.3063 -0.4449
  838MOL0     C13026   4.186   9.246   4.373  0.2614 -0.7310  0.5084
  838MOL0     C13027   4.265   9.199   4.479  0.4354 -0.1507  0.5377
  838MOL0     C13028   4.398   9.214   4.491  0.2361  0.8537  0.3341
  838MOL0     C13029   4.468   9.297   4.403 -0.2960  0.0277  0.0108
  838MOL0     O13030   4.602   9.321   4.412 -0.0410 -0.3010 -0.2516
  838MOL0     C13031   4.682   9.235   4.494 -0.6114  0.2451  0.2210
  838MOL0     C13032   4.718   9.111   4.413  0.0221 -0.3587 -0.0315
  838MOL0     C13033   4.830   9.030   4.486 -0.1564  0.2591  0.0488
  838MOL0     C13034   4.886   8.905   4.418  0.0449  0.1282  0.0112
  838MOL0     C13035   4.773   8.812   4.365  0.2875 -0.5476  0.3108
  838MOL0     C13036   4.826   8.673   4.329  0.6758  0.0906 -0.7343
  838MOL0     C13037   4.715   8.578   4.306 -0.2679  0.0994 -0.8287
  838MOL0     C13038   4.784   8.437   4.293  1.2263  0.6786 -0.7537
  838MOL0    Cl13039   4.670   8.310   4.259  0.0892  0.1263 -0.0422
  838MOL0     C13040   4.395   9.354   4.305  0.1309 -0.1270 -0.0447
  838MOL0     C13041   4.256   9.333   4.286  0.6145 -0.6975  0.5978
  838MOL0     O13042   4.062   9.169   4.149  0.0325  0.2368 -0.1624
  838MOL0     C13043   3.772   9.218   4.350  0.1777  0.5574 -0.2686
  838MOL0     C13044   3.639   9.186   4.368 -0.3813 -0.7553  0.0249
  838MOL0     N13045   3.065   9.280   3.845 -0.1777  0.0124 -0.3503
  838MOL0     N13046   2.991   9.382   3.815  0.2808 -0.3362 -0.0658
  838MOL0     C13047   3.602  10.300   3.527 -0.0393  0.5498  0.1384
  838MOL0     C13048   3.689  10.391   3.579 -0.2751  0.4234 -0.7650
  838MOL0     C13049   4.103  10.561   3.612 -0.1914 -0.1932  0.3110
  838MOL0     C13050   4.155  10.661   3.523  0.1665  0.3491 -0.5089
  838MOL0     C13051   4.270  10.734   3.552  0.7865  0.1155  0.4064
  838MOL0     C13052   4.355  10.674   3.649 -1.0654 -1.2858  0.1905
  838MOL0     O13053   4.468  10.740   3.679  0.3705  0.3559  0.3117
  838MOL0     C13054   4.588  10.655   3.672  0.2076 -0.5120  0.2943
  838MOL0     C13055   4.709  10.727   3.725 -0.0073 -0.3475 -0.2803
  838MOL0     C13056   4.833  10.664   3.672  0.4229  0.9453  0.6898
  838MOL0     C13057   4.868  10.708   3.532  0.1617  0.7384 -0.0013
  838MOL0     C13058   5.012  10.672   3.520  0.7873 -1.0138  1.2694
  838MOL0     C13059   5.131  10.662   3.507  0.5706 -0.1863 -0.0089
  838MOL0     C13060   4.310  10.567   3.731  0.7601 -1.1883  0.3559
  838MOL0     C13061   4.184  10.515   3.713 -0.1405  0.2112 -0.0600
  838MOL0     C13062   4.146  10.394   3.794  0.5148  0.2431 -0.6041
  838MOL0     H13063   3.923  10.193   3.722  0.9371 -0.5015 -0.6616
  838MOL0     H13064   3.755  10.019   3.654  3.6885  0.8125  1.3137
  838MOL0     H13065   3.631  10.039   3.345 -0.3031 -2.3283 -0.8419
  838MOL0     H13066   3.624   9.916   3.475  1.5695  0.7790  0.7020
  838MOL0     H13067   3.495   9.862   3.280  1.1823  3.5041 -1.9025
  838MOL0     H13068   3.385  10.003   3.294  1.8241  0.3576 -1.9149
  838MOL0     H13069   3.305   9.946   3.511  2.4036  1.4719  0.5433
  838MOL0     H13070   3.410   9.807   3.527  0.5866  1.7127  0.1205
  838MOL0     H13071   3.244   9.800   3.275  0.4009 -0.6725 -0.1949
  838MOL0     H13072   3.318   9.669   3.362  1.8745 -0.3326  0.9379
  838MOL0     H13073   3.085   9.819   3.473  0.1957  0.6077  0.9108
  838MOL0     H13074   3.079   9.660   3.390  0.1457  1.4783 -0.0569
  838MOL0     H13075   3.228   9.580   3.594  2.9790  2.5500  3.0816
  838MOL0     H13076   3.190   9.738   3.655  1.5141  1.2045 -1.1043
  838MOL0     H13077   3.001   9.517   3.596 -0.4515  0.4429 -4.1593
  838MOL0     H13078   2.954   9.690   3.593  1.1006  0.7866 -1.9341
  838MOL0     H13079   3.086   9.684   3.840 -1.8658  1.9726 -0.3858
  838MOL0     H13080   2.917   9.647   3.820 -1.2688 -2.7860 -0.6146
  838MOL0     H13081   3.278   9.510   3.850 -0.8525  2.3969 -0.4987
  838MOL0     H13082   3.303   9.129   3.843  0.3331 -0.2800  2.6201
  838MOL0     H13083   3.394   9.274   3.899 -0.2171 -0.0824 -0.4724
  838MOL0     H13084   3.316   9.255   4.114 -2.5656  0.7264  1.0416
  838MOL0     H13085   3.165   9.161   4.066 -0.9392  0.6578 -1.4839
  838MOL0     H13086   3.448   9.041   4.006 -0.0933 -0.0025 -1.5482
  838MOL0     H13087   3.300   8.963   4.011  1.8523 -1.1700 -0.9325
  838MOL0     H13088   3.415   8.898   4.206  0.1010 -0.7893  0.9111
  838MOL0     H13089   3.267   8.994   4.252 -0.7558  1.4502 -3.0384
  838MOL0     H13090   3.615   8.947   4.130 -2.5814  1.2402 -1.1357
  838MOL0     H13091   3.846   9.002   4.100 -1.3061  0.2230 -0.3508
  838MOL0     H13092   4.208   9.135   4.545 -0.5521  0.7870  0.6282
  838MOL0     H13093   4.441   9.152   4.569  0.3285  1.3293  0.6588
  838MOL0     H13094   4.782   9.275   4.512 -0.4747  0.4524 -0.8908
  838MOL0     H13095   4.652   9.216   4.597  1.7123 -0.3609  0.8584
  838MOL0     H13096   4.629   9.049   4.403  0.3732 -0.5361 -2.7180
  838MOL0     H13097   4.753   9.145   4.315 -1.8515  2.8194  0.2432
  838MOL0     H13098   4.922   9.084   4.505  0.0884 -0.2285  0.2644
  838MOL0     H13099   4.797   9.003   4.586  1.3401  2.3374  1.1648
  838MOL0     H13100   4.947   8.855   4.494 -0.0892  1.2728  0.9056
  838MOL0     H13101   4.959   8.924   4.338  1.5696  1.3932  1.6182
  838MOL0     H13102   4.727   8.857   4.276  0.7485 -1.4278 -0.3860
  838MOL0     H13103   4.704   8.796   4.448  2.4770 -3.8336  1.6951
  838MOL0     H13104   4.899   8.671   4.247 -0.7670  0.6716 -2.0908
  838MOL0     H13105   4.878   8.643   4.420  0.2418  0.0230 -0.5110
  838MOL0     H13106   4.660   8.611   4.217 -1.8689  0.0011  0.0854
  838MOL0     H13107   4.638   8.581   4.383 -0.4313  1.0091 -1.0224
  838MOL0     H13108   4.860   8.435   4.214  2.6804  1.5061  0.5818
  838MOL0     H13109   4.837   8.402   4.382 -0.6365  0.8645  0.4916
  838MOL0     H13110   4.451   9.414   4.235 -1.5743  2.5758  0.7349
  838MOL0     H13111   4.200   9.382   4.208  1.0428  0.7004  1.1510
  838MOL0     H13112   3.822   9.290   4.415  0.7533  0.2222 -0.3342
  838MOL0     H13113   3.584   9.251   4.435  2.5222  1.6058  0.3262
  838MOL0     H13114   3.516  10.319   3.465  0.2404 -0.5109 -0.6121
  838MOL0     H13115   3.668  10.496   3.562  0.5138  0.9378  1.1622
  838MOL0     H13116   4.105  10.711   3.441  0.8327  0.3814 -0.9066
  838MOL0     H13117   4.293  10.819   3.489  0.8821 -0.5354 -0.4462
  838MOL0     H13118   4.603  10.631   3.566 -0.7565  2.8591 -0.7348
  838MOL0     H13119   4.574  10.557   3.719 -2.0290  0.0008  0.8004
  838MOL0     H13120   4.716  10.718   3.834 -1.2308  1.1096 -0.0438
  838MOL0     H13121   4.706  10.833   3.698  1.2008 -0.3438 -0.4657
  838MOL0     H13122   4.827  10.556   3.689 -0.4865  0.9373  0.3391
  838MOL0     H13123   4.923  10.685   3.731  0.8389 -1.4687  1.0502
  838MOL0     H13124   4.804  10.666   3.454 -0.0633  0.1258  0.4987
  838MOL0     H13125   4.869  10.817   3.542  0.4251  0.6439  1.1555
  838MOL0     H13126   5.236  10.650   3.489  1.1367  3.7261 -0.2153
  838MOL0     H13127   4.379  10.547   3.813  0.3638  1.9775  1.6527
  838MOL0     H13128   4.069  10.401   3.872  1.1348  0.0929  0.0267
  838MOL0     H13129   4.114  10.318   3.722 -0.0241 -1.0213  0.9011
  838MOL0     H13130   4.228  10.339   3.839 -0.8526 -1.4588 -0.0766
  839MOL0     O13131   4.771   9.160   3.910 -0.0001  0.1064  0.8577
  839MOL0     C13132   4.658   9.113   3.928 -0.3465  0.4280 -0.2554
  839MOL0     O13133   4.637   8.978   3.951 -0.3591  0.3110 -0.5435
  839MOL0     C13134   4.743   8.888   3.949  0.7402 -0.6690 -0.5438
  839MOL0     C13135   4.717   8.777   3.873 -0.1638 -0.3446  0.3363
  839MOL0     C13136   4.811   8.670   3.871 -0.6476  0.4735  0.0274
  839MOL0     C13137   4.930   8.676   3.940  0.3554 -0.2941  0.1461
  839MOL0     O13138   5.032   8.579   3.957  0.5281 -0.0817  1.1688
  839MOL0     C13139   5.090   8.532   3.833 -0.2201  0.0231 -0.0931
  839MOL0     C13140   5.202   8.435   3.866 -0.1784  0.5143 -0.1341
  839MOL0     C13141   5.313   8.489   3.970  0.2327 -0.9546 -0.1386
  839MOL0     C13142   5.435   8.399   3.986  0.2072  1.2764  0.4563
  839MOL0     C13143   5.536   8.472   4.074  0.0205 -0.9507 -1.2513
  839MOL0     C13144   5.599   8.579   3.990  0.3409  0.0641  0.7905
  839MOL0     C13145   5.731   8.629   4.061  0.8981 -0.4057 -0.1697
  839MOL0     C13146   5.821   8.705   3.964  0.9378  0.7508 -0.7400
  839MOL0     N13147   5.938   8.760   4.035  0.9074  0.4190  0.2423
  839MOL0     C13148   5.953   8.891   4.083  0.1298 -1.1066  0.5285
  839MOL0     C13149   6.066   8.888   4.144 -0.4046  0.0112  0.2412
  839MOL0     C13150   6.112   9.005   4.224 -0.3303 -0.3600  0.3901
  839MOL0     C13151   6.260   9.024   4.206  0.2246 -0.6524  0.4720
  839MOL0     C13152   6.317   9.138   4.284  0.1344 -0.0068 -0.3402
  839MOL0     C13153   6.465   9.144   4.255 -0.3699  0.4455  0.3583
  839MOL0     O13154   6.477   9.164   4.116 -0.7330 -0.1853 -0.3091
  839MOL0     C13155   6.605   9.180   4.056  0.0810 -0.0037 -0.1334
  839MOL0     C13156   6.605   9.139   3.924 -0.7922 -0.3645 -0.1574
  839MOL0     C13157   6.722   9.145   3.853  0.8551  0.8108 -0.0278
  839MOL0     C13158   6.842   9.202   3.895  0.8567  0.3642 -0.3772
  839MOL0     C13159   6.956   9.231   3.802  0.4981 -0.1909 -1.1658
  839MOL0     O13160   6.964   9.158   3.687 -0.0758 -0.1368  0.1138
  839MOL0     C13161   7.084   9.160   3.611  0.5022 -0.8858  0.4351
  839MOL0     C13162   7.201   9.112   3.658 -0.5935  0.4117  1.0973
  839MOL0     C13163   7.327   9.124   3.595  0.4351 -0.3485  0.7797
  839MOL0     C13164   7.324   9.182   3.466  0.4657  1.3960 -0.6603
  839MOL0     O13165   7.443   9.173   3.396  0.4411  0.5344  0.7127
  839MOL0     C13166   7.438   9.167   3.247 -0.7639  0.0792 -0.4057
  839MOL0     C13167   7.515   9.284   3.197 -0.2093  0.2061  0.3589
  839MOL0     C13168   7.457   9.412   3.242  0.0744 -0.2994 -0.1096
  839MOL0     C13169   7.499   9.552   3.170 -0.2644  0.2719  0.1403
  839MOL0     C13170   7.651   9.563   3.197 -0.0123 -0.6516  0.4852
  839MOL0     C13171   7.746   9.510   3.095  1.0247  0.0744  0.8918
  839MOL0     C13172   7.886   9.561   3.125 -0.1003 -0.3095  0.0612
  839MOL0     C13173   7.995   9.479   3.060 -0.6701  0.2057  0.6283
  839MOL0    Cl13174   7.984   9.317   3.131  0.2190 -0.1661  0.1164
  839MOL0     C13175   7.199   9.230   3.414  0.3078  0.0960 -0.5373
  839MOL0     C13176   7.088   9.226   3.483  0.1457  0.4151 -0.5060
  839MOL0     O13177   7.045   9.307   3.841 -0.3079  0.3446  0.4502
  839MOL0     C13178   6.844   9.241   4.031  0.2942  0.0565  0.4178
  839MOL0     C13179   6.727   9.235   4.112 -1.0511  0.1565  0.5689
  839MOL0     N13180   6.122   8.760   4.141 -0.0971  0.6285 -0.4390
  839MOL0     N13181   6.045   8.680   4.076  0.6941  0.6632  0.1346
  839MOL0     C13182   4.954   8.796   4.014  0.5612 -0.1064 -0.7291
  839MOL0     C13183   4.866   8.906   4.014  0.0189  0.3774 -0.0821
  839MOL0     C13184   4.545   9.195   3.887  0.1501  0.1526 -0.5489
  839MOL0     C13185   4.560   9.281   3.778 -0.2243  0.7736 -0.3601
  839MOL0     C13186   4.470   9.373   3.735 -0.7214  0.9719 -0.3321
  839MOL0     C13187   4.339   9.356   3.778  0.7698 -0.2456 -1.1332
  839MOL0     O13188   4.242   9.445   3.740  0.3261 -0.1894 -0.7249
  839MOL0     C13189   4.162   9.505   3.845 -0.1029 -0.8025  0.8090
  839MOL0     C13190   4.117   9.645   3.798  0.7116 -0.7102 -0.0677
  839MOL0     C13191   3.975   9.639   3.740  0.3969  0.4578 -0.2610
  839MOL0     C13192   3.918   9.781   3.721  0.3682  0.5687 -0.5273
  839MOL0     C13193   3.915   9.808   3.584 -0.4048 -0.7287 -0.5526
  839MOL0     C13194   3.908   9.837   3.466  0.2036 -0.1210 -0.5068
  839MOL0     C13195   4.314   9.271   3.883 -0.2113  0.9690  0.8583
  839MOL0     C13196   4.413   9.184   3.935 -0.9460  0.5557 -0.5523
  839MOL0     C13197   4.385   9.073   4.040  0.1075  0.1738  0.0861
  839MOL0     H13198   4.622   8.752   3.826  0.4753 -0.4194 -0.9663
  839MOL0     H13199   4.799   8.584   3.805  2.4079 -0.1259  0.1170
  839MOL0     H13200   5.009   8.477   3.784 -0.5809  0.1400  0.3731
  839MOL0     H13201   5.125   8.609   3.764  1.2651 -1.7597 -1.4316
  839MOL0     H13202   5.250   8.409   3.771  0.3364 -0.7014  0.4368
  839MOL0     H13203   5.153   8.346   3.907 -2.2324  1.9490  0.7206
  839MOL0     H13204   5.274   8.514   4.068  1.6690  0.3961  0.1206
  839MOL0     H13205   5.346   8.586   3.932  0.0858  0.6860  3.5420
  839MOL0     H13206   5.406   8.307   4.038 -1.1209 -0.0610 -2.4308
  839MOL0     H13207   5.476   8.365   3.890  0.6057  0.0780  1.0233
  839MOL0     H13208   5.489   8.505   4.167  2.1667  0.8232 -0.7101
  839MOL0     H13209   5.613   8.398   4.097 -0.8991 -1.6932 -0.4966
  839MOL0     H13210   5.624   8.535   3.893 -0.6319 -4.0479  2.2106
  839MOL0     H13211   5.534   8.666   3.974  2.0518  1.5964  1.7464
  839MOL0     H13212   5.786   8.554   4.119  0.7068  0.2895  0.9369
  839MOL0     H13213   5.706   8.700   4.140  0.7602 -0.4322 -0.1891
  839MOL0     H13214   5.855   8.637   3.886 -0.4931 -2.6057  1.3364
  839MOL0     H13215   5.762   8.787   3.920  0.2134 -0.3043 -1.7954
  839MOL0     H13216   5.885   8.975   4.080  1.1589 -0.1557  2.0984
  839MOL0     H13217   6.047   9.088   4.197 -1.1371 -1.0181  0.2738
  839MOL0     H13218   6.095   8.990   4.331 -2.1792  1.4861  0.4063
  839MOL0     H13219   6.322   8.937   4.227  0.2640 -0.7240  0.0593
  839MOL0     H13220   6.270   9.047   4.100  1.2190  2.1034  1.0792
  839MOL0     H13221   6.299   9.114   4.389  0.1620 -2.6670 -0.8626
  839MOL0     H13222   6.279   9.238   4.263 -1.8836 -0.3444  1.3900
  839MOL0     H13223   6.516   9.051   4.281  0.7588  0.9473  0.0047
  839MOL0     H13224   6.526   9.222   4.301  2.7346 -2.0810  0.8881
  839MOL0     H13225   6.514   9.090   3.891 -1.2824 -0.7250  1.6016
  839MOL0     H13226   6.723   9.111   3.749  2.6006 -1.2783  0.5882
  839MOL0     H13227   7.193   9.078   3.761 -1.1240 -0.7043  0.7031
  839MOL0     H13228   7.416   9.094   3.650  0.0312  0.9866  2.2263
  839MOL0     H13229   7.495   9.082   3.208 -0.8999  0.1498 -0.7533
  839MOL0     H13230   7.335   9.153   3.214 -0.8152 -1.5931  0.3433
  839MOL0     H13231   7.620   9.266   3.222  1.5221  0.3624 -5.4581
  839MOL0     H13232   7.527   9.273   3.089  2.2183 -2.1030  0.7746
  839MOL0     H13233   7.348   9.401   3.231 -0.0607 -1.1648  1.7476
  839MOL0     H13234   7.466   9.412   3.351 -0.2521  2.5278 -0.0172
  839MOL0     H13235   7.450   9.638   3.215 -0.2744  1.8095 -2.6007
  839MOL0     H13236   7.463   9.555   3.066 -2.5818 -3.2336  0.6451
  839MOL0     H13237   7.661   9.515   3.294 -2.0488  1.3958  1.8086
  839MOL0     H13238   7.669   9.671   3.193  2.0387 -0.9634 -0.4552
  839MOL0     H13239   7.736   9.402   3.085 -1.3493  0.4334 -1.9857
  839MOL0     H13240   7.723   9.541   2.993  0.3160  0.9198  1.2957
  839MOL0     H13241   7.918   9.560   3.230  3.3757 -1.0466 -0.8601
  839MOL0     H13242   7.893   9.662   3.085 -1.9845  0.6224  1.8933
  839MOL0     H13243   7.967   9.476   2.954 -1.7681  0.4024  0.8986
  839MOL0     H13244   8.097   9.517   3.071 -0.6162  0.2365  0.0635
  839MOL0     H13245   7.178   9.274   3.317 -0.4283 -1.5248 -1.1581
  839MOL0     H13246   6.996   9.256   3.432  0.2481 -3.1144 -3.1492
  839MOL0     H13247   6.934   9.286   4.073  2.1971 -2.9016 -0.2098
  839MOL0     H13248   6.719   9.296   4.201 -0.8114  0.5367  0.3295
  839MOL0     H13249   5.038   8.803   4.083 -0.5881 -1.6799  0.9371
  839MOL0     H13250   4.894   9.000   4.060  0.6417 -0.3631  1.0961
  839MOL0     H13251   4.655   9.272   3.727 -0.2359 -2.0656 -0.0300
  839MOL0     H13252   4.503   9.446   3.661  2.0566  0.8801  0.6861
  839MOL0     H13253   4.222   9.509   3.937  1.1361 -2.2179  0.0953
  839MOL0     H13254   4.073   9.442   3.850 -0.7655 -0.1236 -1.5133
  839MOL0     H13255   4.195   9.679   3.729  0.5045 -2.3498 -1.1388
  839MOL0     H13256   4.117   9.710   3.886 -0.8286 -1.3730  0.4423
  839MOL0     H13257   3.907   9.592   3.811  3.5776 -2.8401  0.9227
  839MOL0     H13258   3.973   9.578   3.649  1.9504 -2.4652  1.5217
  839MOL0     H13259   3.823   9.787   3.775  0.7187 -0.1687  0.1880
  839MOL0     H13260   3.992   9.854   3.754  1.5771 -1.6671  2.1734
  839MOL0     H13261   3.903   9.863   3.362 -1.4435  1.1121 -0.1543
  839MOL0     H13262   4.215   9.250   3.923 -0.2234 -1.9931 -0.4754
  839MOL0     H13263   4.280   9.089   4.066  0.2969  0.3268  0.7765
  839MOL0     H13264   4.409   8.973   4.003 -0.1639 -0.1156  0.6787
  839MOL0     H13265   4.432   9.080   4.139 -0.1375  1.0624  0.1482
  840MOL0     O13266   0.541   1.687   1.760  0.2300 -0.0220 -0.6352
  840MOL0     C13267   0.432   1.691   1.823 -0.1253  0.4859 -0.6459
  840MOL0     O13268   0.373   1.578   1.882 -0.1608 -0.3630  0.8168
  840MOL0     C13269   0.446   1.477   1.937  0.2486 -0.0497 -0.0069
  840MOL0     C13270   0.576   1.489   1.998  0.7431  0.4104 -0.1978
  840MOL0     C13271   0.638   1.371   2.038 -0.9168 -0.1324 -1.2046
  840MOL0     C13272   0.584   1.245   2.019  0.3443 -0.3215  0.6152
  840MOL0     O13273   0.660   1.139   2.070  0.3448 -0.1671  0.3346
  840MOL0     C13274   0.620   1.003   2.031 -0.5364 -0.4219 -0.8344
  840MOL0     C13275   0.740   0.905   2.061 -0.2407 -0.5123 -0.1983
  840MOL0     C13276   0.767   0.888   2.205  0.4360  0.0517 -0.0547
  840MOL0     C13277   0.865   0.784   2.236 -0.3765 -0.2750 -0.1632
  840MOL0     C13278   1.007   0.834   2.216 -0.1954 -0.1184  0.9455
  840MOL0     C13279   1.117   0.747   2.269 -0.3131  0.9663 -0.7603
  840MOL0     C13280   1.123   0.728   2.429 -0.0824 -0.0271  0.7901
  840MOL0     C13281   1.247   0.664   2.482 -0.8150  0.1570 -0.8352
  840MOL0     N13282   1.270   0.525   2.440  0.6095  0.2241 -0.0357
  840MOL0     C13283   1.172   0.425   2.434  0.0398 -0.7590  0.1274
  840MOL0     C13284   1.238   0.311   2.441 -0.3082 -0.0679  0.1117
  840MOL0     C13285   1.175   0.177   2.435 -0.0052  0.2478  0.4194
  840MOL0     C13286   1.111   0.151   2.293 -0.5836  0.3860 -0.4592
  840MOL0     C13287   1.029   0.020   2.296 -0.3293  0.0255  0.0539
  840MOL0     C13288   0.910   0.037   2.381 -0.7174 -0.1342 -0.2395
  840MOL0     O13289   0.821  -0.074   2.362 -0.4375 -0.2181 -0.0486
  840MOL0     C13290   0.691  -0.076   2.423 -0.2159  0.6412  0.0054
  840MOL0     C13291   0.629   0.006   2.516 -0.7473  0.1880 -0.8544
  840MOL0     C13292   0.506  -0.029   2.569 -0.8947 -0.3097 -0.2188
  840MOL0     C13293   0.433  -0.140   2.522 -0.5862  0.6755 -0.3061
  840MOL0     C13294   0.297  -0.169   2.570  1.3960 -0.0366 -0.0494
  840MOL0     O13295   0.236  -0.067   2.640  0.1028 -0.2124  0.8597
  840MOL0     C13296   0.104  -0.094   2.666 -0.1237  0.1452 -0.5444
  840MOL0     C13297  -0.001  -0.029   2.603 -0.2135  0.3530  0.5024
  840MOL0     C13298  -0.135  -0.046   2.645  0.4767 -0.1156 -0.8998
  840MOL0     C13299  -0.163  -0.124   2.760 -0.2541 -0.2739  0.3521
  840MOL0     O13300  -0.297  -0.141   2.788  0.2645 -0.3849  0.9239
  840MOL0     C13301  -0.328  -0.227   2.898  0.6295 -0.0082 -0.2137
  840MOL0     C13302  -0.478  -0.216   2.918 -0.1523  0.3494 -0.0711
  840MOL0     C13303  -0.555  -0.312   3.001  0.0855  0.9483 -1.2842
  840MOL0     C13304  -0.512  -0.331   3.152  0.1287 -0.5722  0.4578
  840MOL0     C13305  -0.605  -0.423   3.220  0.4694  0.3958 -0.0704
  840MOL0     C13306  -0.581  -0.568   3.196 -0.3653  0.0248  0.1572
  840MOL0     C13307  -0.698  -0.656   3.234  0.7989  0.1317 -0.2469
  840MOL0     C13308  -0.754  -0.621   3.380 -0.0047 -0.7346  1.1766
  840MOL0    Cl13309  -0.904  -0.716   3.397  0.2719  0.6571  0.3354
  840MOL0     C13310  -0.059  -0.193   2.823 -0.3308 -0.2154 -0.3467
  840MOL0     C13311   0.068  -0.176   2.780  0.7302 -0.6738  0.9759
  840MOL0     O13312   0.251  -0.281   2.546 -0.1900 -0.2042 -0.6905
  840MOL0     C13313   0.485  -0.214   2.417 -0.0620  0.1536 -0.0068
  840MOL0     C13314   0.616  -0.186   2.379 -0.0499 -0.5810  0.1582
  840MOL0     N13315   1.367   0.336   2.450  0.1355 -0.0524 -0.1652
  840MOL0     N13316   1.387   0.465   2.440 -0.2656 -0.3863  0.4527
  840MOL0     C13317   0.455   1.235   1.957  0.8895 -1.1997 -0.0641
  840MOL0     C13318   0.393   1.349   1.914  0.0720 -0.6942  0.4032
  840MOL0     C13319   0.374   1.818   1.838  0.1184  0.5143 -0.9149
  840MOL0     C13320   0.232   1.825   1.836 -0.4259 -0.1585 -0.7305
  840MOL0     C13321   0.162   1.940   1.879 -0.7215 -0.2363  0.4293
  840MOL0     C13322   0.236   2.052   1.925 -0.5997  0.4332 -0.6073
  840MOL0     O13323   0.180   2.170   1.977  0.0890 -0.6623 -0.1093
  840MOL0     C13324   0.035   2.179   2.007 -0.3163  0.9236 -0.7241
  840MOL0     C13325  -0.007   2.304   2.082 -0.3709  0.5237  0.0653
  840MOL0     C13326  -0.045   2.430   1.999  0.2737  0.2290  0.4309
  840MOL0     C13327  -0.049   2.556   2.085  0.5222  0.4114  0.1166
  840MOL0     C13328   0.009   2.669   2.009  0.2492  0.1627 -0.0823
  840MOL0     C13329   0.032   2.767   1.942  0.1684  0.3603  0.1206
  840MOL0     C13330   0.375   2.045   1.924  0.3021 -1.0086 -0.4416
  840MOL0     C13331   0.438   1.933   1.871  0.5113  0.1266 -1.0101
  840MOL0     C13332   0.587   1.958   1.879  0.3133  0.0873  0.7153
  840MOL0     H13333   0.627   1.583   1.984 -1.5879  2.1251  1.9355
  840MOL0     H13334   0.740   1.377   2.076 -0.5500  0.5030 -2.2551
  840MOL0     H13335   0.522   0.971   2.069 -0.8271 -0.1492 -1.3360
  840MOL0     H13336   0.612   0.990   1.923  0.7325 -1.4117 -0.8323
  840MOL0     H13337   0.832   0.950   2.023 -1.4802  1.5259 -0.9373
  840MOL0     H13338   0.734   0.810   2.008 -0.8483  0.8125 -2.6562
  840MOL0     H13339   0.667   0.866   2.244  0.4100 -0.0737 -0.1924
  840MOL0     H13340   0.800   0.980   2.255  0.2293 -0.4143  0.9438
  840MOL0     H13341   0.850   0.764   2.342  0.9602  0.8617  0.2725
  840MOL0     H13342   0.848   0.690   2.182  0.0850 -0.4440 -0.0216
  840MOL0     H13343   1.021   0.856   2.110 -0.2419 -0.3110  0.8978
  840MOL0     H13344   1.013   0.931   2.265  0.8939  0.0064  0.5799
  840MOL0     H13345   1.105   0.641   2.244 -0.4381  0.0066  2.8285
  840MOL0     H13346   1.214   0.789   2.238  0.4129 -0.0934 -0.0145
  840MOL0     H13347   1.041   0.665   2.463 -2.9075  2.5208 -0.7657
  840MOL0     H13348   1.098   0.825   2.474 -0.4035 -0.1618  0.9027
  840MOL0     H13349   1.333   0.724   2.448  0.8753 -1.5604  0.1826
  840MOL0     H13350   1.237   0.683   2.589  0.5878  0.9676 -0.8125
  840MOL0     H13351   1.064   0.439   2.427  0.1511  1.2093  1.6239
  840MOL0     H13352   1.257   0.107   2.447  0.2037 -0.5212 -3.8244
  840MOL0     H13353   1.101   0.171   2.516 -2.2925 -0.1699 -1.5648
  840MOL0     H13354   1.050   0.236   2.261  0.1179  1.4660  0.9550
  840MOL0     H13355   1.189   0.131   2.218 -1.7473 -1.7241 -1.1999
  840MOL0     H13356   1.076  -0.072   2.333 -0.0931 -0.2576 -0.9054
  840MOL0     H13357   0.991   0.013   2.194  0.1075  3.6165 -0.4959
  840MOL0     H13358   0.865   0.132   2.351  1.8381  0.5461 -2.3282
  840MOL0     H13359   0.930   0.029   2.488 -1.3935  0.6603 -0.0462
  840MOL0     H13360   0.682   0.087   2.566 -1.8461  1.6818 -2.0185
  840MOL0     H13361   0.461   0.035   2.644 -2.3910  0.0924 -1.4280
  840MOL0     H13362   0.039   0.032   2.522  1.9509 -1.3190  0.2172
  840MOL0     H13363  -0.218  -0.001   2.591  0.3649 -1.7816 -2.1873
  840MOL0     H13364  -0.312  -0.332   2.873 -0.8487  0.2326 -2.4373
  840MOL0     H13365  -0.277  -0.197   2.990  2.6655  2.4177 -1.9922
  840MOL0     H13366  -0.500  -0.112   2.946  0.4578  0.7481 -1.0177
  840MOL0     H13367  -0.526  -0.235   2.822 -0.1393 -4.6043  0.6290
  840MOL0     H13368  -0.663  -0.295   3.007  0.1069  0.6869  0.2916
  840MOL0     H13369  -0.541  -0.413   2.962  0.0879  0.3755  0.1167
  840MOL0     H13370  -0.506  -0.239   3.211  1.9730  0.0029 -0.5436
  840MOL0     H13371  -0.408  -0.364   3.147  1.0593  2.1730 -3.5055
  840MOL0     H13372  -0.703  -0.387   3.187  0.7816 -0.1245 -1.6536
  840MOL0     H13373  -0.599  -0.402   3.327 -4.0099 -1.0183  0.6714
  840MOL0     H13374  -0.555  -0.583   3.091  2.1456  2.8377  0.2483
  840MOL0     H13375  -0.500  -0.605   3.260 -1.7127 -2.3495  0.6211
  840MOL0     H13376  -0.663  -0.760   3.235 -1.0241 -0.5563 -1.8964
  840MOL0     H13377  -0.773  -0.648   3.155 -0.5421 -2.3697  0.6720
  840MOL0     H13378  -0.688  -0.628   3.466 -1.5209  2.5994  2.8336
  840MOL0     H13379  -0.776  -0.513   3.382  1.2957 -0.4388  0.5755
  840MOL0     H13380  -0.073  -0.259   2.907 -0.4559 -2.2835 -1.8988
  840MOL0     H13381   0.152  -0.220   2.834  1.5507 -2.2465 -1.4351
  840MOL0     H13382   0.431  -0.302   2.384 -1.4838  0.8294  0.4543
  840MOL0     H13383   0.663  -0.245   2.301  1.8043  0.4393  0.4407
  840MOL0     H13384   0.406   1.140   1.940 -0.7306 -0.1043 -2.0910
  840MOL0     H13385   0.303   1.338   1.854  2.0349 -0.7704 -2.7392
  840MOL0     H13386   0.184   1.728   1.823  0.8415 -0.9040 -0.1071
  840MOL0     H13387   0.055   1.944   1.892 -0.8354  1.1614 -0.7396
  840MOL0     H13388   0.016   2.092   2.071 -0.0210  1.1507 -0.3228
  840MOL0     H13389  -0.024   2.168   1.916  0.3302 -0.9784 -0.9699
  840MOL0     H13390   0.075   2.333   2.147  3.9596 -1.1110 -4.0527
  840MOL0     H13391  -0.100   2.283   2.136  0.1590  1.7010  1.4961
  840MOL0     H13392  -0.138   2.416   1.943  2.0538 -0.3686 -2.6270
  840MOL0     H13393   0.038   2.443   1.928 -0.2599  1.5773  0.0363
  840MOL0     H13394  -0.152   2.582   2.113  1.1946  1.1439  2.0355
  840MOL0     H13395   0.004   2.547   2.180 -1.3793 -1.9020  1.0537
  840MOL0     H13396   0.042   2.847   1.872  0.0310 -1.7057 -2.4522
  840MOL0     H13397   0.426   2.138   1.946  2.6656 -2.0867 -1.0007
  840MOL0     H13398   0.610   2.051   1.931  0.1295  0.9239 -0.6498
  840MOL0     H13399   0.641   1.877   1.929  0.6805  0.6743  1.2848
  840MOL0     H13400   0.608   1.986   1.776 -3.3169  1.4988  0.1934
  841MOL0     O13401   2.688   0.199   9.662 -0.0129  0.7860  0.2981
  841MOL0     C13402   2.629   0.126   9.588  0.5440 -0.0857  1.1890
  841MOL0     O13403   2.618   0.137   9.451  0.4006  0.0896 -0.3284
  841MOL0     C13404   2.675   0.248   9.399 -0.5735 -0.5239 -0.5688
  841MOL0     C13405   2.609   0.377   9.410 -0.0435  0.0113 -1.2687
  841MOL0     C13406   2.679   0.482   9.352 -0.5214 -0.1997  0.3997
  841MOL0     C13407   2.806   0.475   9.289 -0.3123  0.1753 -0.4062
  841MOL0     O13408   2.866   0.591   9.252 -0.2213  0.0616  0.7704
  841MOL0     C13409   2.970   0.591   9.149  0.2680 -0.1829 -0.6027
  841MOL0     C13410   2.945   0.693   9.043 -0.3052 -0.4033 -0.0768
  841MOL0     C13411   2.947   0.835   9.095 -0.0279 -0.9312  0.9625
  841MOL0     C13412   2.945   0.937   8.984 -0.5070  0.1515  0.0210
  841MOL0     C13413   2.894   1.070   9.030 -0.1581 -0.2332 -0.8490
  841MOL0     C13414   2.978   1.144   9.130 -0.6612 -0.9325  0.1890
  841MOL0     C13415   3.122   1.172   9.075  0.4142 -0.7198 -0.2901
  841MOL0     C13416   3.178   1.278   9.170 -0.9777 -0.1423 -0.1439
  841MOL0     N13417   3.309   1.324   9.141 -0.7063  0.5662  0.1211
  841MOL0     C13418   3.405   1.289   9.228  0.1023  0.6974  0.7302
  841MOL0     C13419   3.516   1.327   9.161 -0.3231 -0.1692 -0.0547
  841MOL0     C13420   3.660   1.307   9.216  0.1847  0.0542  0.1505
  841MOL0     C13421   3.762   1.396   9.135 -0.1510  0.2905 -0.6508
  841MOL0     C13422   3.750   1.541   9.190  0.8713 -0.1424  0.7241
  841MOL0     C13423   3.879   1.620   9.147 -0.4727  0.6453 -0.0157
  841MOL0     O13424   3.991   1.574   9.228 -0.9248  0.2274  0.3914
  841MOL0     C13425   4.105   1.643   9.207  0.3901 -0.3947  0.8097
  841MOL0     C13426   4.168   1.669   9.082  0.1169  0.8562 -0.4090
  841MOL0     C13427   4.275   1.752   9.067 -0.2554 -0.0131  1.3475
  841MOL0     C13428   4.333   1.816   9.170 -0.3640 -0.7393 -0.4304
  841MOL0     C13429   4.459   1.894   9.145  0.9226  0.7061  1.0017
  841MOL0     O13430   4.539   1.913   9.255  0.1599 -0.2005  0.0703
  841MOL0     C13431   4.661   1.982   9.242  0.3284  0.7222  0.5029
  841MOL0     C13432   4.711   2.074   9.149  0.4116 -0.1527  0.1705
  841MOL0     C13433   4.844   2.111   9.152 -0.2434  0.4945 -0.0108
  841MOL0     C13434   4.930   2.059   9.249 -0.1727  0.1208 -0.1757
  841MOL0     O13435   5.062   2.095   9.238  0.4163 -0.5904  0.0225
  841MOL0     C13436   5.096   2.226   9.256  0.5403  0.0467 -0.2992
  841MOL0     C13437   5.238   2.242   9.296 -0.7086 -1.2067  1.0371
  841MOL0     C13438   5.270   2.397   9.318  0.1021  0.1188  0.6249
  841MOL0     C13439   5.262   2.487   9.194 -0.7148  0.2725  0.8448
  841MOL0     C13440   5.327   2.617   9.216 -0.0313  0.0955 -0.4457
  841MOL0     C13441   5.464   2.610   9.285  0.5628 -1.2005  0.6920
  841MOL0     C13442   5.552   2.736   9.262  0.3726  0.7071  0.6044
  841MOL0     C13443   5.703   2.702   9.285 -0.2561  0.1729 -0.2218
  841MOL0    Cl13444   5.744   2.634   9.449  0.0091 -0.1663  0.0979
  841MOL0     C13445   4.883   1.965   9.338  0.1248  0.0852 -0.5035
  841MOL0     C13446   4.749   1.937   9.343  0.3897 -0.9274  0.5630
  841MOL0     O13447   4.492   1.912   9.027  0.4200 -0.2771 -0.2841
  841MOL0     C13448   4.284   1.786   9.298  0.1535  1.2384  1.1958
  841MOL0     C13449   4.172   1.695   9.319 -0.4727 -0.3596 -0.3758
  841MOL0     N13450   3.478   1.373   9.035  0.2077  0.2156  0.4169
  841MOL0     N13451   3.356   1.367   9.026  0.6441  0.1670  0.4217
  841MOL0     C13452   2.857   0.345   9.275 -0.3207 -1.0372  0.2360
  841MOL0     C13453   2.804   0.236   9.331  1.3992  0.4719 -0.2585
  841MOL0     C13454   2.576  -0.005   9.652  0.9833  0.2603  0.3330
  841MOL0     C13455   2.600  -0.033   9.783  0.0243 -0.9871 -0.1853
  841MOL0     C13456   2.556  -0.142   9.861 -0.8969  0.3626  0.0064
  841MOL0     C13457   2.490  -0.246   9.789 -0.7938 -0.5688  0.5947
  841MOL0     O13458   2.446  -0.369   9.834  0.3968 -0.1802 -0.1560
  841MOL0     C13459   2.432  -0.386   9.971 -0.5984  0.6928 -0.0344
  841MOL0     C13460   2.559  -0.439  10.041 -0.3378 -0.7243  0.1804
  841MOL0     C13461   2.625  -0.569   9.981  1.1478 -0.8279  0.6436
  841MOL0     C13462   2.533  -0.695   9.993 -0.1919  0.3945 -0.8784
  841MOL0     C13463   2.614  -0.810   9.939 -0.0621 -0.5429  1.0493
  841MOL0     C13464   2.692  -0.888   9.889  0.5563  0.4775  0.2645
  841MOL0     C13465   2.470  -0.217   9.646  1.3240  0.2971 -0.9221
  841MOL0     C13466   2.515  -0.111   9.577 -0.2923 -0.8009 -0.6495
  841MOL0     C13467   2.523  -0.120   9.423 -0.6218 -0.0990  1.3407
  841MOL0     H13468   2.514   0.399   9.457  0.9566  0.2252  0.7484
  841MOL0     H13469   2.627   0.577   9.358 -3.9638 -1.7960 -1.1625
  841MOL0     H13470   3.071   0.601   9.189 -0.7634  0.9728  1.9562
  841MOL0     H13471   2.961   0.497   9.094  0.4718 -1.2012  1.0470
  841MOL0     H13472   2.851   0.667   8.994 -0.5541  0.4178 -0.0408
  841MOL0     H13473   3.022   0.676   8.967 -0.7947  0.5893 -0.8163
  841MOL0     H13474   3.043   0.863   9.140  0.3460  2.1746 -1.4373
  841MOL0     H13475   2.864   0.849   9.165  0.2085  0.5112  0.9888
  841MOL0     H13476   3.042   0.952   8.935 -1.4799 -1.2525 -2.5923
  841MOL0     H13477   2.891   0.908   8.893  1.4076  2.6243 -2.0701
  841MOL0     H13478   2.876   1.134   8.944 -1.1582  0.3155 -0.2445
  841MOL0     H13479   2.798   1.046   9.077 -0.3608  0.0477 -1.1178
  841MOL0     H13480   2.934   1.239   9.162  0.1094 -0.9065  1.2138
  841MOL0     H13481   2.987   1.082   9.220  2.4162 -1.6407 -0.4920
  841MOL0     H13482   3.126   1.215   8.975  1.5837 -1.3792 -0.5497
  841MOL0     H13483   3.182   1.081   9.085  1.9890  0.0589 -2.0611
  841MOL0     H13484   3.121   1.371   9.172  1.7561  1.6386  1.0430
  841MOL0     H13485   3.164   1.236   9.270  1.1516 -1.2473 -0.2525
  841MOL0     H13486   3.405   1.261   9.333  1.4722  3.8597  1.6990
  841MOL0     H13487   3.667   1.322   9.324 -1.4360  0.3650  0.2322
  841MOL0     H13488   3.683   1.200   9.204 -0.4638  0.0121 -0.8459
  841MOL0     H13489   3.855   1.343   9.157 -0.7228  0.2064  1.9569
  841MOL0     H13490   3.750   1.396   9.026 -0.8419  0.0640 -0.5815
  841MOL0     H13491   3.732   1.542   9.298 -3.0845  1.3804  0.2331
  841MOL0     H13492   3.664   1.584   9.138  2.4468  0.5678 -1.4156
  841MOL0     H13493   3.869   1.728   9.157  4.0427  1.2194  0.3287
  841MOL0     H13494   3.900   1.600   9.041 -2.2528  0.7815 -0.4228
  841MOL0     H13495   4.123   1.620   8.997  0.9063  1.3539 -1.1221
  841MOL0     H13496   4.310   1.762   8.965 -0.0595 -1.0989  1.2966
  841MOL0     H13497   4.644   2.106   9.070  1.2156  0.8464 -0.1409
  841MOL0     H13498   4.878   2.176   9.071 -0.7734  0.3931 -0.3185
  841MOL0     H13499   5.073   2.288   9.168  0.8642  3.9437  2.1065
  841MOL0     H13500   5.041   2.264   9.343  0.4132  2.1671 -1.2335
  841MOL0     H13501   5.273   2.204   9.392  4.0681  1.0117  0.4663
  841MOL0     H13502   5.307   2.193   9.228  2.1107  1.2776  1.8782
  841MOL0     H13503   5.207   2.433   9.399 -1.6878 -3.3649  0.9853
  841MOL0     H13504   5.371   2.396   9.359 -0.2455  3.3665  1.7676
  841MOL0     H13505   5.162   2.510   9.157 -0.4259 -3.4450 -2.9788
  841MOL0     H13506   5.318   2.430   9.120  0.9155  0.8514  1.5882
  841MOL0     H13507   5.259   2.683   9.271  1.1153  0.7947  0.1752
  841MOL0     H13508   5.341   2.660   9.116 -1.2259 -1.7363 -1.4472
  841MOL0     H13509   5.445   2.585   9.390 -0.5408 -0.3678  0.7087
  841MOL0     H13510   5.517   2.525   9.240 -0.2644 -0.3714 -2.0499
  841MOL0     H13511   5.512   2.820   9.321 -1.8485  1.3850 -1.7177
  841MOL0     H13512   5.529   2.772   9.162 -0.9734  1.2823  1.0906
  841MOL0     H13513   5.743   2.639   9.205  2.2375 -0.9391  1.7629
  841MOL0     H13514   5.754   2.799   9.286 -1.3863  0.8089  2.0416
  841MOL0     H13515   4.950   1.914   9.407  1.3405  2.3979  0.1344
  841MOL0     H13516   4.713   1.859   9.410  0.9850 -1.4542  0.2825
  841MOL0     H13517   4.343   1.827   9.379  1.3997  3.2181 -0.5882
  841MOL0     H13518   4.150   1.665   9.421  0.6108 -0.8111 -0.2565
  841MOL0     H13519   2.956   0.324   9.235 -0.6679 -1.2889 -0.5140
  841MOL0     H13520   2.859   0.143   9.319  0.1585  0.0430 -3.5085
  841MOL0     H13521   2.663   0.036   9.837 -3.2938  0.0921  2.6929
  841MOL0     H13522   2.584  -0.140   9.966 -2.5054  0.3666  0.4614
  841MOL0     H13523   2.350  -0.457   9.985  0.5275 -0.3778  1.5799
  841MOL0     H13524   2.403  -0.293  10.021 -1.9530  0.7989 -0.9719
  841MOL0     H13525   2.539  -0.455  10.148 -0.2013  0.1092  0.3418
  841MOL0     H13526   2.632  -0.357  10.039 -0.7440 -0.2943 -3.6541
  841MOL0     H13527   2.716  -0.590  10.039  0.1740 -2.8203  1.5708
  841MOL0     H13528   2.653  -0.549   9.877 -0.9473  1.4181  0.4307
  841MOL0     H13529   2.515  -0.711  10.100  0.4949 -0.9616 -0.9462
  841MOL0     H13530   2.433  -0.687   9.949 -0.5334  0.3689 -0.1197
  841MOL0     H13531   2.761  -0.963   9.859 -0.6589 -0.6276  0.1572
  841MOL0     H13532   2.408  -0.288   9.591 -0.4877 -0.4882  1.9265
  841MOL0     H13533   2.501  -0.213   9.369  0.7863  2.6056 -4.8379
  841MOL0     H13534   2.447  -0.054   9.380  0.4870  0.2384 -0.1977
  841MOL0     H13535   2.627  -0.118   9.390 -0.7083 -1.7510  0.8587
  842MOL0     O13536   1.062   7.894   2.001 -0.2097  0.7242  0.1091
  842MOL0     C13537   1.044   7.998   2.065 -0.1915  1.0182  0.2825
  842MOL0     O13538   1.129   8.097   2.093  0.9866  0.3878 -0.0453
  842MOL0     C13539   1.256   8.078   2.057  0.1570 -0.4208  0.2797
  842MOL0     C13540   1.356   8.028   2.146 -0.8596  0.1326  0.5856
  842MOL0     C13541   1.491   8.014   2.096  0.0404  0.1792  0.0652
  842MOL0     C13542   1.527   8.044   1.957  0.0172  0.0839 -0.6849
  842MOL0     O13543   1.656   8.033   1.920  0.4575  0.6766 -0.6183
  842MOL0     C13544   1.718   8.142   1.859  0.4901  0.0726  0.6682
  842MOL0     C13545   1.872   8.155   1.900 -0.5289  0.5482 -1.1947
  842MOL0     C13546   1.931   8.271   1.829 -0.7529 -0.4130 -0.7292
  842MOL0     C13547   2.087   8.264   1.840  0.8830 -0.7971 -0.0872
  842MOL0     C13548   2.146   8.141   1.768  0.7054 -0.2823 -0.0803
  842MOL0     C13549   2.283   8.187   1.716  0.0365  0.3316 -0.2037
  842MOL0     C13550   2.377   8.209   1.835  0.6227 -0.7059  0.5604
  842MOL0     C13551   2.518   8.247   1.805  1.0418 -0.6950  1.0569
  842MOL0     N13552   2.581   8.167   1.697  0.1405  0.6414  0.4054
  842MOL0     C13553   2.652   8.056   1.743  0.6844 -0.5322 -0.0798
  842MOL0     C13554   2.712   8.011   1.632 -0.4104 -1.0762 -0.5566
  842MOL0     C13555   2.810   7.892   1.628 -0.5680 -0.0662 -0.5253
  842MOL0     C13556   2.821   7.827   1.490  0.4434 -0.2817 -0.3347
  842MOL0     C13557   2.885   7.912   1.379  0.4504 -0.7641 -0.5937
  842MOL0     C13558   3.017   7.993   1.416 -0.5387 -0.0707 -0.2378
  842MOL0     O13559   3.106   7.905   1.485 -0.4880 -0.1225 -0.5019
  842MOL0     C13560   3.224   7.959   1.539 -0.1554 -0.1299 -0.2102
  842MOL0     C13561   3.275   8.076   1.495 -1.1529 -1.1794  0.2965
  842MOL0     C13562   3.391   8.130   1.553 -0.2377 -0.3469 -0.1895
  842MOL0     C13563   3.460   8.060   1.658 -0.0942  0.1176  0.3467
  842MOL0     C13564   3.573   8.128   1.714 -0.1077 -0.3044  0.6737
  842MOL0     O13565   3.608   8.255   1.675 -0.1851  0.4274  0.5924
  842MOL0     C13566   3.728   8.311   1.709  0.4625 -0.0585 -0.2897
  842MOL0     C13567   3.831   8.289   1.623  1.2131 -0.6300  0.7577
  842MOL0     C13568   3.957   8.331   1.660  0.1353 -0.2566  0.4298
  842MOL0     C13569   3.974   8.409   1.778  0.2117  0.8139  0.5354
  842MOL0     O13570   4.096   8.465   1.811  0.2342  0.0720 -0.4636
  842MOL0     C13571   4.221   8.395   1.792  0.1605 -0.1388 -0.2725
  842MOL0     C13572   4.317   8.444   1.896 -0.6787  0.5407  0.2269
  842MOL0     C13573   4.256   8.387   2.027 -0.0457 -0.1666 -0.1972
  842MOL0     C13574   4.361   8.412   2.143  0.6109  0.5492 -0.0292
  842MOL0     C13575   4.319   8.355   2.278  0.8758 -0.3292  0.7103
  842MOL0     C13576   4.288   8.214   2.283  0.1570 -0.0188 -0.0990
  842MOL0     C13577   4.220   8.170   2.419 -0.4909  0.4620  0.5011
  842MOL0     C13578   4.112   8.063   2.406  1.2440  0.0130  0.5090
  842MOL0    Cl13579   3.977   8.113   2.297  0.2897  0.1480 -0.1362
  842MOL0     C13580   3.866   8.429   1.867  0.4845  0.0483 -0.6904
  842MOL0     C13581   3.738   8.379   1.833 -0.5039 -0.8098 -0.2751
  842MOL0     O13582   3.631   8.069   1.806 -0.1984  0.1080  0.4305
  842MOL0     C13583   3.405   7.938   1.700  0.0483  0.9328 -0.1672
  842MOL0     C13584   3.290   7.889   1.638 -0.3609 -0.5144 -0.2196
  842MOL0     N13585   2.688   8.104   1.531 -0.2698  0.9857  0.6900
  842MOL0     N13586   2.588   8.180   1.557 -0.2776 -0.0252  0.2220
  842MOL0     C13587   1.427   8.091   1.879  0.1354 -0.5804  0.2091
  842MOL0     C13588   1.294   8.107   1.923 -0.1534 -0.1906 -0.0155
  842MOL0     C13589   0.910   8.012   2.129 -0.9718 -0.4914 -0.0016
  842MOL0     C13590   0.907   8.062   2.258  0.8259 -0.6263  0.1098
  842MOL0     C13591   0.778   8.084   2.317 -0.0454 -0.9075 -0.2957
  842MOL0     C13592   0.659   8.058   2.250  1.1417  0.1384  0.0551
  842MOL0     O13593   0.542   8.090   2.321 -0.8484 -0.2724  0.0193
  842MOL0     C13594   0.422   8.097   2.246  0.2942  0.8402 -0.1369
  842MOL0     C13595   0.296   8.078   2.329  0.5351  0.8011  0.1227
  842MOL0     C13596   0.304   8.180   2.442 -0.3113 -0.0329  0.5853
  842MOL0     C13597   0.201   8.176   2.554 -0.4496  0.6495 -0.2212
  842MOL0     C13598   0.235   8.280   2.657 -0.4002  0.1446  0.3077
  842MOL0     C13599   0.260   8.363   2.742  0.0667  0.2894 -0.7917
  842MOL0     C13600   0.667   8.002   2.119 -0.7833  0.2560 -0.0652
  842MOL0     C13601   0.791   7.976   2.061 -0.4209 -0.3580 -1.2840
  842MOL0     C13602   0.791   7.959   1.913 -0.2329 -0.1637 -0.2276
  842MOL0     H13603   1.332   8.019   2.252 -0.0108  0.3755  0.8055
  842MOL0     H13604   1.572   7.980   2.160 -0.4087 -2.9552 -0.8456
  842MOL0     H13605   1.711   8.132   1.751 -4.0551 -2.4259  0.9353
  842MOL0     H13606   1.662   8.230   1.893 -0.8926 -0.6963  0.4639
  842MOL0     H13607   1.925   8.062   1.877 -1.4479 -0.5596  0.8166
  842MOL0     H13608   1.894   8.154   2.008 -1.6580 -2.1997 -0.8967
  842MOL0     H13609   1.894   8.359   1.882 -1.6404 -0.5853 -1.0298
  842MOL0     H13610   1.895   8.284   1.726  0.7634 -4.9142 -2.0763
  842MOL0     H13611   2.122   8.358   1.796 -1.2327  0.7270  1.2859
  842MOL0     H13612   2.125   8.267   1.943  0.2991 -0.2868  0.1248
  842MOL0     H13613   2.152   8.060   1.842  2.3805 -0.6238 -0.5501
  842MOL0     H13614   2.086   8.124   1.679  0.2098  0.9434  0.0040
  842MOL0     H13615   2.313   8.107   1.648 -1.7194  1.9264 -3.0688
  842MOL0     H13616   2.278   8.278   1.655  0.2877  1.0738  0.8569
  842MOL0     H13617   2.389   8.124   1.902  4.1905 -1.6789 -1.0725
  842MOL0     H13618   2.340   8.295   1.892  1.9876  1.8102 -2.0878
  842MOL0     H13619   2.519   8.348   1.764  0.3382 -0.3298  1.8935
  842MOL0     H13620   2.583   8.240   1.893  1.9819 -0.7224  0.3656
  842MOL0     H13621   2.659   8.011   1.841  1.5568 -2.5601 -1.0231
  842MOL0     H13622   2.909   7.916   1.668 -0.7253  0.6854 -0.5791
  842MOL0     H13623   2.784   7.814   1.700 -0.4117 -0.6202 -1.0528
  842MOL0     H13624   2.859   7.725   1.487  0.6458 -0.2514  0.7015
  842MOL0     H13625   2.717   7.807   1.462 -0.5188  3.2827  0.0715
  842MOL0     H13626   2.825   7.988   1.329 -1.0367 -1.4081  0.1435
  842MOL0     H13627   2.904   7.838   1.301  0.5709 -0.0952 -1.2090
  842MOL0     H13628   2.988   8.077   1.479 -2.2556 -0.5293 -0.3691
  842MOL0     H13629   3.060   8.025   1.320 -1.7949 -0.1893 -0.8651
  842MOL0     H13630   3.214   8.134   1.427  0.4267 -0.5982 -0.6790
  842MOL0     H13631   3.412   8.233   1.528  1.3876 -0.2120  1.5233
  842MOL0     H13632   3.802   8.237   1.533  2.1980  0.7437 -0.3992
  842MOL0     H13633   4.049   8.330   1.603  0.8027 -0.8380  1.5110
  842MOL0     H13634   4.205   8.287   1.803 -0.6341 -0.0023 -0.0673
  842MOL0     H13635   4.263   8.418   1.693 -2.1823 -2.4647 -1.9422
  842MOL0     H13636   4.410   8.393   1.871 -0.5257  2.0013 -2.5555
  842MOL0     H13637   4.338   8.550   1.884  2.2062 -0.1027 -1.1495
  842MOL0     H13638   4.166   8.448   2.042  0.8402  0.6418  2.4913
  842MOL0     H13639   4.235   8.281   2.015 -2.4832  0.4419 -2.0789
  842MOL0     H13640   4.368   8.521   2.155  0.4302  0.4769  0.7937
  842MOL0     H13641   4.460   8.373   2.119  0.5086 -0.3357  0.9200
  842MOL0     H13642   4.232   8.412   2.314  0.1716  0.6515 -2.3026
  842MOL0     H13643   4.398   8.377   2.351  0.6514  0.0724  0.8377
  842MOL0     H13644   4.220   8.185   2.202  1.4473  0.2443 -1.3297
  842MOL0     H13645   4.380   8.157   2.270  0.1606  0.3208 -1.8312
  842MOL0     H13646   4.188   8.264   2.466  1.0095  0.9710  0.5415
  842MOL0     H13647   4.293   8.120   2.483 -0.0872  0.6898  0.2185
  842MOL0     H13648   4.155   7.971   2.367  0.1284  0.1221 -1.0615
  842MOL0     H13649   4.062   8.048   2.502  1.1880  0.0349  0.4830
  842MOL0     H13650   3.867   8.499   1.950  0.2988  0.6943 -1.2272
  842MOL0     H13651   3.658   8.385   1.906 -1.4310  2.0297 -1.3562
  842MOL0     H13652   3.462   7.875   1.768  0.0648 -0.3569 -1.3353
  842MOL0     H13653   3.260   7.788   1.666  0.7316 -0.8311 -0.1344
  842MOL0     H13654   1.439   8.111   1.773  2.3260 -1.1990  0.2995
  842MOL0     H13655   1.226   8.113   1.839 -0.1632 -1.7800 -0.1369
  842MOL0     H13656   0.998   8.077   2.316  1.4543 -2.1379 -0.4253
  842MOL0     H13657   0.761   8.124   2.417 -0.0871 -1.6832  0.0131
  842MOL0     H13658   0.420   8.023   2.165  0.1431 -0.5507  1.0903
  842MOL0     H13659   0.424   8.197   2.202 -4.1076  0.6389 -1.2034
  842MOL0     H13660   0.289   7.980   2.378 -0.5942  0.5957 -0.4227
  842MOL0     H13661   0.202   8.091   2.275 -0.8691 -0.1908  2.1678
  842MOL0     H13662   0.296   8.281   2.400  1.9336 -0.2793 -0.6454
  842MOL0     H13663   0.406   8.170   2.482  0.4805  0.7860 -1.0863
  842MOL0     H13664   0.105   8.193   2.504  0.5642  3.5586 -1.3951
  842MOL0     H13665   0.203   8.081   2.607 -0.3900  1.0410  0.4943
  842MOL0     H13666   0.281   8.440   2.813  2.5017 -2.1355  1.3699
  842MOL0     H13667   0.584   7.982   2.053 -1.7406  0.2752  1.1072
  842MOL0     H13668   0.692   7.930   1.877 -1.4011 -0.7240  3.1249
  842MOL0     H13669   0.813   8.053   1.862 -0.9780  0.2474  0.1960
  842MOL0     H13670   0.865   7.885   1.878 -0.4217  0.0945 -1.1891
  843MOL0     O13671   4.265   4.594   3.939  0.2317  0.5905 -0.0236
  843MOL0     C13672   4.154   4.566   3.893  0.0187 -0.6637 -0.3216
  843MOL0     O13673   4.084   4.653   3.813  0.9875  0.7016  0.3905
  843MOL0     C13674   4.143   4.760   3.749 -0.7504  0.4202 -0.3527
  843MOL0     C13675   4.221   4.857   3.815 -0.1022  0.1790 -0.1301
  843MOL0     C13676   4.271   4.960   3.746 -0.0963  0.7909  0.6454
  843MOL0     C13677   4.253   4.976   3.606  0.3074  0.6283  0.7387
  843MOL0     O13678   4.304   5.081   3.537  0.3940  0.2340  0.5469
  843MOL0     C13679   4.437   5.104   3.577  0.4239  0.0897 -0.1247
  843MOL0     C13680   4.512   5.184   3.469 -0.4067 -0.0371 -0.3388
  843MOL0     C13681   4.635   5.266   3.525 -1.1973  0.2549 -0.8136
  843MOL0     C13682   4.728   5.303   3.405  0.1128 -0.4502 -0.2506
  843MOL0     C13683   4.819   5.428   3.439  0.4029  0.1529 -0.0677
  843MOL0     C13684   4.926   5.405   3.543  0.7161  0.7597 -0.0400
  843MOL0     C13685   5.008   5.531   3.579 -0.3833 -0.4085 -1.1537
  843MOL0     C13686   5.104   5.580   3.477 -0.6567 -0.2822  0.3729
  843MOL0     N13687   5.230   5.509   3.465  0.1681  0.2454  0.9742
  843MOL0     C13688   5.344   5.555   3.512 -0.4127 -0.5193  0.2477
  843MOL0     C13689   5.440   5.484   3.452  0.0007  0.7702  0.4886
  843MOL0     C13690   5.588   5.477   3.470  0.3785 -0.1576 -0.3529
  843MOL0     C13691   5.637   5.623   3.482 -0.7538  0.0961 -0.0313
  843MOL0     C13692   5.774   5.643   3.439  0.3662 -0.0955  0.1065
  843MOL0     C13693   5.879   5.590   3.537  0.6788 -0.3844 -0.0669
  843MOL0     O13694   6.012   5.622   3.490  0.5985 -0.5674  0.0548
  843MOL0     C13695   6.123   5.585   3.565  0.3530  0.4996 -0.4121
  843MOL0     C13696   6.224   5.683   3.589 -0.3883 -0.3686  0.2818
  843MOL0     C13697   6.343   5.651   3.658  0.0810  0.1203 -0.7273
  843MOL0     C13698   6.350   5.523   3.717 -1.1603 -0.2719  0.0613
  843MOL0     C13699   6.456   5.476   3.813 -0.1130  0.3402 -0.2149
  843MOL0     O13700   6.544   5.567   3.837  0.0996 -0.5049  0.0154
  843MOL0     C13701   6.618   5.569   3.952 -0.0690  0.5060 -0.1029
  843MOL0     C13702   6.607   5.466   4.057 -0.5652 -0.3040  0.1510
  843MOL0     C13703   6.694   5.483   4.173  0.0309 -0.9474  0.3673
  843MOL0     C13704   6.760   5.601   4.190  0.0381 -0.6026  1.4307
  843MOL0     O13705   6.840   5.605   4.295  0.3183  0.2103  0.2198
  843MOL0     C13706   6.943   5.695   4.314  0.0044  0.8242 -0.2136
  843MOL0     C13707   7.036   5.635   4.415  0.1644  0.5232  0.4070
  843MOL0     C13708   7.071   5.738   4.532  0.5646  0.1560  0.6385
  843MOL0     C13709   7.161   5.855   4.487 -0.1249  0.3519 -0.0969
  843MOL0     C13710   7.202   5.949   4.603  0.1264 -0.4365  0.1237
  843MOL0     C13711   7.308   5.880   4.700 -0.0554 -1.2848 -0.4402
  843MOL0     C13712   7.387   5.984   4.789  0.5638 -0.2628  0.3853
  843MOL0     C13713   7.514   5.924   4.846 -0.0683 -0.5517  1.0958
  843MOL0    Cl13714   7.475   5.765   4.917  0.0252 -0.5105 -0.6265
  843MOL0     C13715   6.753   5.704   4.086  0.2482 -0.3675 -0.5467
  843MOL0     C13716   6.686   5.686   3.971 -0.5163  0.0579  0.3007
  843MOL0     O13717   6.460   5.358   3.844 -0.2654  0.1307  1.0114
  843MOL0     C13718   6.250   5.427   3.700 -0.6437 -0.1376 -1.0549
  843MOL0     C13719   6.135   5.459   3.630 -0.0932 -0.1049  0.6033
  843MOL0     N13720   5.368   5.393   3.369  0.1658 -0.3315 -0.7052
  843MOL0     N13721   5.244   5.411   3.379 -0.6543  0.5701 -0.3276
  843MOL0     C13722   4.172   4.883   3.543 -0.0071 -0.0873 -0.2959
  843MOL0     C13723   4.117   4.777   3.614 -0.3234 -0.4016 -0.5499
  843MOL0     C13724   4.089   4.439   3.924 -0.9217 -0.9915 -0.4843
  843MOL0     C13725   3.951   4.428   3.894 -0.2919  0.6535 -0.7820
  843MOL0     C13726   3.876   4.313   3.914  0.2619 -0.0172  0.8838
  843MOL0     C13727   3.946   4.203   3.963  0.6781  1.3099 -0.2369
  843MOL0     O13728   3.872   4.096   3.992  0.4464 -0.0065  0.0124
  843MOL0     C13729   3.931   3.967   3.981 -0.1380  0.1800 -0.2364
  843MOL0     C13730   3.981   3.928   3.840  0.3378  1.0106 -0.0139
  843MOL0     C13731   3.870   3.935   3.738  0.2038  0.2244  0.5897
  843MOL0     C13732   3.763   3.815   3.739 -0.1724 -0.6463  0.3233
  843MOL0     C13733   3.633   3.851   3.681 -0.3460  0.1997 -0.6438
  843MOL0     C13734   3.532   3.877   3.624  0.3590 -1.4361 -0.3436
  843MOL0     C13735   4.081   4.207   3.996 -0.3807 -0.1234 -0.7225
  843MOL0     C13736   4.156   4.329   3.984 -0.1927  0.6482 -0.1302
  843MOL0     C13737   4.298   4.330   4.023 -0.3828  0.0172 -0.1189
  843MOL0     H13738   4.258   4.849   3.917 -0.3632  3.5098  0.3222
  843MOL0     H13739   4.328   5.031   3.805 -2.5293  2.2846  1.3233
  843MOL0     H13740   4.428   5.167   3.665 -1.3651  0.4275 -0.5153
  843MOL0     H13741   4.487   5.008   3.594 -1.3092 -1.6295 -3.6183
  843MOL0     H13742   4.430   5.246   3.432 -1.5764 -0.9508  0.6328
  843MOL0     H13743   4.544   5.107   3.398  1.5904 -1.5801  2.0751
  843MOL0     H13744   4.687   5.204   3.597 -1.8504  0.1679 -0.4031
  843MOL0     H13745   4.592   5.350   3.580 -0.7124 -0.0529  0.0459
  843MOL0     H13746   4.793   5.218   3.385  0.1214 -0.6255  0.4779
  843MOL0     H13747   4.670   5.325   3.315  1.0711  0.3681 -0.6815
  843MOL0     H13748   4.868   5.470   3.351 -3.0634 -1.0362 -2.8219
  843MOL0     H13749   4.745   5.502   3.472  0.8352  1.0719 -1.0739
  843MOL0     H13750   4.868   5.376   3.631 -1.5695 -1.3985 -2.0899
  843MOL0     H13751   5.001   5.328   3.526  0.3403  0.7753 -1.9369
  843MOL0     H13752   5.065   5.512   3.670  1.3599  2.3347 -1.5737
  843MOL0     H13753   4.944   5.620   3.576 -2.0120 -1.5459 -1.6929
  843MOL0     H13754   5.059   5.570   3.377  1.5875  1.0604 -0.8619
  843MOL0     H13755   5.127   5.686   3.492  1.7065 -0.9886  2.3078
  843MOL0     H13756   5.352   5.635   3.586  1.3287  0.1626 -0.6322
  843MOL0     H13757   5.598   5.417   3.561 -0.6403  0.8379  0.4530
  843MOL0     H13758   5.642   5.428   3.389  0.0902  0.8779 -1.2017
  843MOL0     H13759   5.571   5.691   3.428  1.0766  0.9396 -1.3033
  843MOL0     H13760   5.637   5.648   3.588  0.2609 -0.3695  0.0877
  843MOL0     H13761   5.803   5.748   3.426  1.5708 -0.2579  1.2609
  843MOL0     H13762   5.786   5.591   3.343  3.7773  2.4800 -1.0762
  843MOL0     H13763   5.866   5.484   3.559 -2.5206  0.0110  0.2941
  843MOL0     H13764   5.870   5.635   3.636 -3.8279  2.3376 -1.4572
  843MOL0     H13765   6.206   5.783   3.551  0.3139 -0.8841 -1.5404
  843MOL0     H13766   6.414   5.726   3.691  0.9083 -1.8843  2.5197
  843MOL0     H13767   6.540   5.382   4.039  1.3308 -1.7586 -0.3772
  843MOL0     H13768   6.699   5.404   4.247  2.2446  0.1359  1.4938
  843MOL0     H13769   7.008   5.702   4.226  0.1679 -0.1230 -0.1768
  843MOL0     H13770   6.915   5.796   4.346 -1.0257  1.2597 -2.2771
  843MOL0     H13771   6.988   5.546   4.457 -0.0526  0.3013 -0.2960
  843MOL0     H13772   7.132   5.600   4.377 -0.1915  1.0842 -1.0595
  843MOL0     H13773   6.972   5.762   4.573 -0.7833 -2.2389 -0.9278
  843MOL0     H13774   7.119   5.690   4.618 -1.8228 -1.9058  0.9432
  843MOL0     H13775   7.115   5.916   4.409  2.2628  0.4084 -1.5912
  843MOL0     H13776   7.253   5.815   4.443 -0.3011  1.8078 -1.9314
  843MOL0     H13777   7.119   5.981   4.667 -0.8151 -1.8283 -0.3529
  843MOL0     H13778   7.236   6.037   4.548 -1.2192 -0.2900 -0.5214
  843MOL0     H13779   7.256   5.809   4.764 -4.5530  0.7207 -1.4302
  843MOL0     H13780   7.385   5.823   4.647 -2.1025 -1.9720 -2.8715
  843MOL0     H13781   7.331   6.025   4.873 -2.4725 -3.4045  0.1122
  843MOL0     H13782   7.404   6.068   4.721 -2.5815  0.1140 -0.0948
  843MOL0     H13783   7.595   5.914   4.773 -0.3890 -0.9462  0.7878
  843MOL0     H13784   7.566   5.977   4.926  0.1092 -0.1505  0.7158
  843MOL0     H13785   6.801   5.795   4.121 -0.8226  0.2183 -0.5678
  843MOL0     H13786   6.675   5.762   3.894 -0.9995  0.3433  0.6484
  843MOL0     H13787   6.252   5.328   3.746 -0.9350  0.0050 -0.7311
  843MOL0     H13788   6.056   5.385   3.630  0.1963 -0.4513  2.2055
  843MOL0     H13789   4.149   4.889   3.437  0.8995 -1.4579 -0.5888
  843MOL0     H13790   4.046   4.712   3.564 -0.1001 -0.0756 -1.3148
  843MOL0     H13791   3.902   4.514   3.849  0.3732  1.3075 -0.2818
  843MOL0     H13792   3.768   4.324   3.913  0.3198  0.5786  0.2097
  843MOL0     H13793   3.855   3.890   3.994 -0.5038  0.5697 -0.0388
  843MOL0     H13794   4.011   3.962   4.056  1.6119 -0.1932 -2.0434
  843MOL0     H13795   4.008   3.822   3.830 -0.9342  0.4226  2.1076
  843MOL0     H13796   4.058   4.001   3.812  2.6638 -1.5551 -0.8423
  843MOL0     H13797   3.913   3.948   3.639  1.1792  0.3692  1.0177
  843MOL0     H13798   3.823   4.033   3.755  1.2072  0.6227  1.1481
  843MOL0     H13799   3.815   3.737   3.683  0.4843 -1.0373  1.4594
  843MOL0     H13800   3.749   3.772   3.838  1.7868  0.6269  1.2043
  843MOL0     H13801   3.435   3.892   3.581  0.1638 -0.5624  0.3528
  843MOL0     H13802   4.138   4.123   4.036 -3.0891 -1.1900  1.1847
  843MOL0     H13803   4.316   4.241   4.084  1.5046  0.8341  0.5725
  843MOL0     H13804   4.366   4.319   3.937  1.6437  2.5118  1.0487
  843MOL0     H13805   4.322   4.423   4.074 -1.6773  2.1521 -3.0776
  844MOL0     O13806   9.642   2.607   3.032  1.1464  0.1255  0.6531
  844MOL0     C13807   9.736   2.588   3.111  0.5153 -0.7223  1.0792
  844MOL0     O13808   9.745   2.626   3.246 -0.4559 -0.0004 -0.5732
  844MOL0     C13809   9.643   2.698   3.300  0.4642  0.3293 -0.2697
  844MOL0     C13810   9.689   2.781   3.400  0.6877 -0.4100  0.9832
  844MOL0     C13811   9.598   2.862   3.465 -0.0831  0.6898  0.3225
  844MOL0     C13812   9.461   2.860   3.443 -0.0052 -0.7519  0.5560
  844MOL0     O13813   9.381   2.950   3.506  0.3586 -0.0589  0.2296
  844MOL0     C13814   9.243   2.922   3.483  0.8817 -0.2412 -0.3334
  844MOL0     C13815   9.159   3.037   3.539 -0.2008  0.8518 -0.1381
  844MOL0     C13816   9.010   3.018   3.517  0.8309  0.1944  0.0332
  844MOL0     C13817   8.925   3.132   3.567 -0.0472 -0.5738 -0.3268
  844MOL0     C13818   8.777   3.105   3.570 -0.1644  0.3808 -1.1013
  844MOL0     C13819   8.693   3.227   3.566  0.0765 -0.2367  0.0073
  844MOL0     C13820   8.534   3.210   3.578  0.2203 -0.6197 -0.0661
  844MOL0     C13821   8.488   3.159   3.716 -0.4643  0.3652 -0.0549
  844MOL0     N13822   8.370   3.079   3.692 -0.4068  0.2406 -0.3551
  844MOL0     C13823   8.244   3.123   3.677 -0.4722 -0.4964  0.0092
  844MOL0     C13824   8.181   3.046   3.587 -0.4237 -0.0310 -0.4804
  844MOL0     C13825   8.047   3.076   3.535 -0.1425  0.1538 -0.4513
  844MOL0     C13826   8.052   3.229   3.480 -0.2402  1.1770 -1.0147
  844MOL0     C13827   7.920   3.278   3.439  1.1497 -0.0116 -0.4423
  844MOL0     C13828   7.830   3.326   3.554  0.6275 -1.0905  0.4735
  844MOL0     O13829   7.797   3.232   3.650 -0.6379  0.4627 -0.2148
  844MOL0     C13830   7.709   3.133   3.611  0.1380  1.2699 -0.9050
  844MOL0     C13831   7.625   3.120   3.496  0.5171  0.3475  0.2205
  844MOL0     C13832   7.527   3.016   3.494  0.5022  0.4345 -0.1591
  844MOL0     C13833   7.512   2.935   3.608  0.8154  0.8599  0.3418
  844MOL0     C13834   7.406   2.828   3.600 -0.5938 -0.3524  0.7355
  844MOL0     O13835   7.392   2.751   3.712  0.1787  0.9052 -0.1255
  844MOL0     C13836   7.332   2.628   3.708 -0.9129  0.5646  0.6587
  844MOL0     C13837   7.258   2.590   3.823  0.1349 -0.2116 -0.6257
  844MOL0     C13838   7.208   2.458   3.835  0.4611  0.3266  0.7652
  844MOL0     C13839   7.238   2.360   3.732 -0.1860  0.5063  0.5946
  844MOL0     O13840   7.212   2.232   3.756 -0.5941  0.4252  0.0806
  844MOL0     C13841   7.263   2.124   3.669  0.7251 -0.3776 -0.0914
  844MOL0     C13842   7.194   1.984   3.695 -0.1037  0.1322  0.3305
  844MOL0     C13843   7.041   1.978   3.648 -0.4271  0.5171 -0.1643
  844MOL0     C13844   6.988   1.832   3.639  0.4790  0.0364 -0.0861
  844MOL0     C13845   6.834   1.823   3.607  0.1060 -0.4239 -0.6782
  844MOL0     C13846   6.804   1.851   3.460 -0.7825 -0.0863  1.3828
  844MOL0     C13847   6.655   1.836   3.422  0.2528 -0.9363  0.1627
  844MOL0     C13848   6.635   1.799   3.274 -0.0012  0.7727 -0.4405
  844MOL0    Cl13849   6.727   1.903   3.162 -0.5601 -0.6196  0.0334
  844MOL0     C13850   7.309   2.400   3.618  0.9967 -0.3775 -0.3969
  844MOL0     C13851   7.359   2.530   3.604  0.1761  1.1920  0.2650
  844MOL0     O13852   7.344   2.808   3.494 -0.3856  0.1256 -0.6527
  844MOL0     C13853   7.606   2.940   3.712  0.0533  0.3018 -0.1163
  844MOL0     C13854   7.703   3.037   3.714 -0.1146  0.1666 -0.4606
  844MOL0     N13855   8.267   2.941   3.559  0.2540 -0.0067 -0.3820
  844MOL0     N13856   8.371   2.961   3.617  0.3304  0.5929 -0.2868
  844MOL0     C13857   9.412   2.754   3.361 -0.7079  0.7643 -0.5455
  844MOL0     C13858   9.502   2.677   3.285  0.2433  1.0913 -1.0132
  844MOL0     C13859   9.850   2.514   3.042  0.2179 -0.3668  0.9687
  844MOL0     C13860   9.827   2.445   2.919 -0.3917 -0.0592 -0.6519
  844MOL0     C13861   9.921   2.358   2.860 -0.0494 -0.8197  0.2636
  844MOL0     C13862  10.051   2.349   2.925  0.8123 -0.6382  0.1274
  844MOL0     O13863  10.150   2.262   2.883  0.1647 -0.2790  0.0164
  844MOL0     C13864  10.115   2.129   2.831  0.6521  0.2695  0.1316
  844MOL0     C13865  10.236   2.049   2.793  0.5129  0.7396 -0.2127
  844MOL0     C13866  10.348   2.048   2.898 -0.2289 -0.8748 -1.0131
  844MOL0     C13867  10.458   2.150   2.867 -0.2091 -1.4443 -0.3635
  844MOL0     C13868  10.548   2.100   2.763 -0.4886 -0.9482  0.2154
  844MOL0     C13869  10.609   2.044   2.676 -0.1043  0.3826  0.7546
  844MOL0     C13870  10.076   2.430   3.035 -0.0751 -0.2158 -0.8824
  844MOL0     C13871   9.982   2.513   3.095 -0.0139 -0.0025 -0.1641
  844MOL0     C13872  10.018   2.607   3.206  0.5214 -0.0072 -0.3305
  844MOL0     H13873   9.796   2.782   3.420  0.7180  0.3206  0.8259
  844MOL0     H13874   9.625   2.949   3.524  1.5177  0.0504  0.6037
  844MOL0     H13875   9.228   2.913   3.375  3.1181 -1.0259 -0.6266
  844MOL0     H13876   9.200   2.841   3.542 -2.0908  1.2378 -0.2820
  844MOL0     H13877   9.183   3.134   3.496 -1.4334  0.1694 -2.5584
  844MOL0     H13878   9.174   3.037   3.648 -0.5120 -4.6022  0.1665
  844MOL0     H13879   8.981   2.923   3.562 -0.5562  1.1870  1.3324
  844MOL0     H13880   8.989   3.003   3.410  3.3952  1.4840 -0.7309
  844MOL0     H13881   8.957   3.164   3.667  1.5600 -0.8918 -0.7127
  844MOL0     H13882   8.945   3.207   3.491  1.9525 -1.5845 -0.8615
  844MOL0     H13883   8.753   3.042   3.484 -0.2149 -0.6021 -0.3800
  844MOL0     H13884   8.756   3.046   3.659 -2.2372  1.5539 -0.7360
  844MOL0     H13885   8.726   3.283   3.654  2.1416  1.6335 -1.8168
  844MOL0     H13886   8.708   3.288   3.477  0.0941 -2.3252 -1.5000
  844MOL0     H13887   8.488   3.160   3.492 -2.6083  0.2175  0.8492
  844MOL0     H13888   8.497   3.313   3.578  0.7911 -0.4073  0.8267
  844MOL0     H13889   8.567   3.101   3.765 -0.4934 -0.1840 -0.6372
  844MOL0     H13890   8.453   3.247   3.770 -0.0623  1.1143 -0.9911
  844MOL0     H13891   8.201   3.211   3.724 -0.7685  0.8115 -2.5439
  844MOL0     H13892   8.022   3.013   3.449  2.8287 -1.9532  0.0684
  844MOL0     H13893   7.976   3.046   3.613  0.6510  0.4078  0.3853
  844MOL0     H13894   8.082   3.295   3.561 -1.3450  0.2983  0.1424
  844MOL0     H13895   8.139   3.227   3.414  1.6519 -2.0734  1.2698
  844MOL0     H13896   7.879   3.200   3.374 -0.7171  2.2205 -2.1224
  844MOL0     H13897   7.924   3.371   3.382 -4.0797  1.8109  1.5591
  844MOL0     H13898   7.737   3.378   3.530  0.9133 -0.3857  0.8619
  844MOL0     H13899   7.881   3.407   3.606 -1.9184  0.9706 -0.0380
  844MOL0     H13900   7.627   3.194   3.416  0.4080  0.6679  0.5117
  844MOL0     H13901   7.463   3.003   3.407 -2.1139  0.7894  1.5949
  844MOL0     H13902   7.265   2.656   3.909  0.0888  1.2550 -1.7076
  844MOL0     H13903   7.163   2.413   3.923 -1.6506 -0.5209 -0.6668
  844MOL0     H13904   7.249   2.145   3.562 -2.8810 -0.6540  0.1938
  844MOL0     H13905   7.369   2.115   3.694  0.1753  2.5700  4.4079
  844MOL0     H13906   7.243   1.899   3.648  1.1537  1.0609 -0.0825
  844MOL0     H13907   7.198   1.981   3.804  0.5757 -1.0866  0.2805
  844MOL0     H13908   6.982   2.037   3.719 -2.5036 -0.7488 -0.7694
  844MOL0     H13909   7.041   2.031   3.552 -1.0899  3.1862  1.2068
  844MOL0     H13910   7.021   1.789   3.734 -2.0382  0.9857  1.3100
  844MOL0     H13911   7.046   1.772   3.568  1.5671  0.4928  0.3905
  844MOL0     H13912   6.786   1.900   3.668  0.8839  1.2763 -2.1207
  844MOL0     H13913   6.795   1.723   3.629 -2.9334  0.4295 -1.6992
  844MOL0     H13914   6.832   1.952   3.429 -3.1380  0.1654 -0.2752
  844MOL0     H13915   6.868   1.785   3.401 -2.9092  0.8516 -2.3239
  844MOL0     H13916   6.604   1.933   3.428 -3.5360 -2.6765 -0.9186
  844MOL0     H13917   6.598   1.761   3.478 -0.5162 -1.6559 -1.4876
  844MOL0     H13918   6.678   1.699   3.262  1.4252  1.4915 -1.7512
  844MOL0     H13919   6.530   1.788   3.245  0.8951 -2.2789 -3.1653
  844MOL0     H13920   7.332   2.333   3.536  1.6914  0.1956 -0.6904
  844MOL0     H13921   7.418   2.560   3.518  0.5058 -0.3356 -0.0683
  844MOL0     H13922   7.601   2.864   3.790  3.9007 -1.1555 -1.0543
  844MOL0     H13923   7.773   3.043   3.797 -0.9444  4.1635  0.1778
  844MOL0     H13924   9.309   2.720   3.350 -1.1496  2.0501 -0.5068
  844MOL0     H13925   9.449   2.616   3.212 -3.1862  0.2445  1.8681
  844MOL0     H13926   9.725   2.451   2.880 -1.0417  0.9072  1.0972
  844MOL0     H13927   9.916   2.302   2.768  1.2209 -0.0589 -0.3019
  844MOL0     H13928  10.060   2.119   2.737  4.2556  0.1695 -2.1678
  844MOL0     H13929  10.057   2.079   2.909 -3.6467  0.2706 -2.7440
  844MOL0     H13930  10.277   2.066   2.692  4.1592  0.2433  1.0241
  844MOL0     H13931  10.187   1.952   2.787 -2.5351  1.9204  2.5045
  844MOL0     H13932  10.401   1.953   2.894  1.1835 -0.1286 -0.7687
  844MOL0     H13933  10.308   2.060   2.999  1.6043  1.6784 -0.4750
  844MOL0     H13934  10.417   2.246   2.833  2.1959 -0.2276 -0.0230
  844MOL0     H13935  10.511   2.173   2.959  1.4732  0.4489 -1.7259
  844MOL0     H13936  10.676   2.001   2.604 -0.8336 -0.7114  0.6977
  844MOL0     H13937  10.171   2.433   3.088 -1.1019 -0.7664  1.0894
  844MOL0     H13938   9.984   2.708   3.180  0.8702 -0.7652 -4.5479
  844MOL0     H13939   9.967   2.577   3.298 -0.8400  0.4007 -0.9184
  844MOL0     H13940  10.127   2.613   3.218  1.1711 -2.4433 -3.5791
  845MOL0     O13941   9.892   2.358  10.937  0.0223  0.4066 -0.3250
  845MOL0     C13942   9.771   2.331  10.954 -0.6984 -0.4692  0.3045
  845MOL0     O13943   9.701   2.317  11.072 -0.3714  0.0725  0.1259
  845MOL0     C13944   9.762   2.287  11.187  0.5118 -0.2612 -0.5488
  845MOL0     C13945   9.840   2.170  11.205 -0.1631 -0.5454  0.2288
  845MOL0     C13946   9.869   2.130  11.333 -0.0497 -0.2580 -0.3346
  845MOL0     C13947   9.837   2.203  11.451 -0.2755 -0.8787 -0.1690
  845MOL0     O13948   9.873   2.175  11.584  0.2216 -0.1171  0.9529
  845MOL0     C13949   9.926   2.045  11.616  0.4177  0.6038 -0.3401
  845MOL0     C13950  10.076   2.040  11.605 -0.0325  0.5682 -0.9212
  845MOL0     C13951  10.143   1.908  11.568 -0.6646 -0.7623 -0.0048
  845MOL0     C13952  10.286   1.904  11.621  0.6657  0.6527  0.7412
  845MOL0     C13953  10.343   1.782  11.547 -0.1428  0.3326  0.5958
  845MOL0     C13954  10.466   1.719  11.624  0.3094  0.1392 -0.1356
  845MOL0     C13955  10.584   1.816  11.663  0.0523  0.0869 -0.1028
  845MOL0     C13956  10.694   1.742  11.739 -0.0251  0.9405  0.0588
  845MOL0     N13957  10.803   1.827  11.755 -0.0727  0.8471 -0.2339
  845MOL0     C13958  10.895   1.842  11.657 -0.7363 -0.1675 -0.2471
  845MOL0     C13959  10.997   1.913  11.714 -0.3075  0.5324 -0.9099
  845MOL0     C13960  11.131   1.942  11.666  1.0429  0.0390  0.6625
  845MOL0     C13961  11.218   1.817  11.668  0.6269 -0.6320  0.4039
  845MOL0     C13962  11.365   1.857  11.640  0.1624 -0.3488  0.2925
  845MOL0     C13963  11.436   1.729  11.582  0.2083  0.8549  0.8407
  845MOL0     O13964  11.564   1.765  11.529 -0.4648 -0.3726 -0.0587
  845MOL0     C13965  11.644   1.667  11.480 -0.7401 -0.2389 -1.2287
  845MOL0     C13966  11.778   1.698  11.463 -0.6787  0.4605 -1.6480
  845MOL0     C13967  11.874   1.600  11.438  0.6709 -0.5366 -0.2051
  845MOL0     C13968  11.836   1.466  11.413 -0.6001 -0.8079 -0.2749
  845MOL0     C13969  11.935   1.368  11.381  0.1581  0.4081 -0.5409
  845MOL0     O13970  12.058   1.407  11.343 -0.6651 -0.3313 -0.8482
  845MOL0     C13971  12.153   1.312  11.303  0.4062 -0.4690  0.7039
  845MOL0     C13972  12.273   1.309  11.369 -0.0212 -0.4383 -0.4221
  845MOL0     C13973  12.374   1.218  11.342 -0.3450  0.3347 -0.3948
  845MOL0     C13974  12.354   1.129  11.234 -0.0849  0.8572 -0.0515
  845MOL0     O13975  12.442   1.036  11.208 -0.0984  0.8619  0.5250
  845MOL0     C13976  12.431   0.921  11.293  0.1276 -0.8620 -0.0924
  845MOL0     C13977  12.521   0.938  11.422 -0.5481  0.3539 -0.6491
  845MOL0     C13978  12.583   0.793  11.462 -0.5663  0.1523 -0.0611
  845MOL0     C13979  12.482   0.690  11.501 -0.2042  0.6964  0.7027
  845MOL0     C13980  12.478   0.693  11.657 -0.3720  0.1350  0.1039
  845MOL0     C13981  12.393   0.570  11.702 -0.1128 -0.2253  1.2493
  845MOL0     C13982  12.464   0.432  11.711 -0.5744 -0.4044  0.7114
  845MOL0     C13983  12.393   0.331  11.606  0.6926  0.1180 -1.0520
  845MOL0    Cl13984  12.501   0.181  11.617  0.3387  0.7009 -0.4935
  845MOL0     C13985  12.235   1.140  11.156  0.5176 -0.2794 -0.3331
  845MOL0     C13986  12.134   1.222  11.197 -0.1670 -0.5995  0.3400
  845MOL0     O13987  11.900   1.253  11.400  0.0959 -0.2383 -0.5605
  845MOL0     C13988  11.694   1.442  11.414 -0.8190  0.0941  0.2929
  845MOL0     C13989  11.602   1.538  11.449 -0.1847 -0.8059 -0.6229
  845MOL0     N13990  10.955   1.937  11.850 -0.0667 -0.0842 -0.1450
  845MOL0     N13991  10.844   1.878  11.870 -0.0014 -0.6322 -1.0583
  845MOL0     C13992   9.761   2.323  11.433 -1.2563  1.9015 -0.2721
  845MOL0     C13993   9.719   2.353  11.301  0.0181  0.4620 -1.1337
  845MOL0     C13994   9.690   2.290  10.835 -0.2534  0.1953 -0.5243
  845MOL0     C13995   9.655   2.147  10.822  0.0584 -0.2684  0.5277
  845MOL0     C13996   9.566   2.096  10.718 -0.4668  0.4350  0.3718
  845MOL0     C13997   9.525   2.189  10.623 -0.0685 -0.3456 -0.8071
  845MOL0     O13998   9.456   2.150  10.508 -0.0779 -0.4332  0.6562
  845MOL0     C13999   9.500   2.033  10.436  0.5642 -0.6959  0.3285
  845MOL0     C14000   9.375   1.957  10.374  0.6163  0.8103  0.4453
  845MOL0     C14001   9.292   1.877  10.473 -0.4945  0.8742 -0.5940
  845MOL0     C14002   9.167   1.813  10.408  0.9103  0.6230  0.4700
  845MOL0     C14003   9.190   1.709  10.310 -0.0591 -0.2886  0.3102
  845MOL0     C14004   9.201   1.607  10.242 -0.5376 -0.8858 -0.4724
  845MOL0     C14005   9.542   2.325  10.648  0.5333 -0.6611 -0.9374
  845MOL0     C14006   9.632   2.379  10.743 -0.3008 -0.1528 -0.3665
  845MOL0     C14007   9.679   2.525  10.746  0.6196  0.5495  0.3577
  845MOL0     H14008   9.876   2.116  11.118  1.4277 -0.1823  0.6241
  845MOL0     H14009   9.927   2.040  11.318 -1.2227 -1.0148 -0.4590
  845MOL0     H14010   9.896   2.013  11.717 -1.0895  3.3983  0.2145
  845MOL0     H14011   9.889   1.972  11.544  2.0314 -0.8484  0.2390
  845MOL0     H14012  10.108   2.072  11.705  1.5509  3.3353 -2.1952
  845MOL0     H14013  10.115   2.123  11.545  2.7527 -0.2563 -0.3544
  845MOL0     H14014  10.145   1.906  11.459 -1.2443  0.9192 -0.0794
  845MOL0     H14015  10.081   1.826  11.605 -1.1397 -0.0332  0.8632
  845MOL0     H14016  10.344   1.993  11.594 -2.1231  1.7373 -2.2841
  845MOL0     H14017  10.282   1.885  11.729  1.7544 -1.7989  0.4006
  845MOL0     H14018  10.269   1.703  11.538  0.2783 -0.1342  1.1395
  845MOL0     H14019  10.380   1.819  11.451 -0.3409  2.8674  1.4056
  845MOL0     H14020  10.434   1.688  11.724  1.9269 -1.5813 -0.1038
  845MOL0     H14021  10.503   1.629  11.574  0.0414  0.8142 -1.6038
  845MOL0     H14022  10.544   1.893  11.729  2.5476  0.9587  0.4788
  845MOL0     H14023  10.613   1.863  11.569 -0.6153  2.0100  0.6028
  845MOL0     H14024  10.667   1.700  11.836  2.5324 -2.2420 -0.4535
  845MOL0     H14025  10.730   1.658  11.680 -0.5070  1.2972 -0.7632
  845MOL0     H14026  10.881   1.788  11.564 -0.6841 -1.8298  0.6794
  845MOL0     H14027  11.107   1.981  11.566  0.8876 -0.6823  0.4129
  845MOL0     H14028  11.170   2.029  11.720 -0.0825  0.1481  1.3313
  845MOL0     H14029  11.215   1.767  11.766  0.1780 -0.1801  0.6225
  845MOL0     H14030  11.179   1.755  11.587 -1.3164 -0.9867  1.5516
  845MOL0     H14031  11.408   1.898  11.731  2.0504 -0.2986 -0.5691
  845MOL0     H14032  11.365   1.932  11.560 -1.6958  0.3779  0.9175
  845MOL0     H14033  11.368   1.687  11.507  0.9719 -0.0741  0.6469
  845MOL0     H14034  11.452   1.653  11.658 -3.1532  0.2891  1.0890
  845MOL0     H14035  11.794   1.805  11.458 -1.8661  0.7862  0.3395
  845MOL0     H14036  11.980   1.620  11.426  1.0473 -1.5139  1.2766
  845MOL0     H14037  12.280   1.380  11.451  0.2716  0.3722 -1.1359
  845MOL0     H14038  12.461   1.222  11.407 -1.2358  1.9718  0.7671
  845MOL0     H14039  12.326   0.904  11.316  0.6819 -1.1869  2.6523
  845MOL0     H14040  12.475   0.840  11.234  2.2807  0.4232 -0.3510
  845MOL0     H14041  12.609   0.997  11.398 -0.9104  0.2716 -2.2428
  845MOL0     H14042  12.462   0.985  11.502  0.1331  0.1254  0.0014
  845MOL0     H14043  12.625   0.760  11.366 -2.8693  1.3809 -1.5917
  845MOL0     H14044  12.656   0.813  11.541 -1.5852 -2.4492  1.6354
  845MOL0     H14045  12.509   0.590  11.466 -0.9315  0.0163  2.0054
  845MOL0     H14046  12.386   0.723  11.462 -1.7501 -1.0839  2.7534
  845MOL0     H14047  12.437   0.790  11.686 -0.8573  0.2391 -0.8837
  845MOL0     H14048  12.566   0.683  11.721 -1.1958 -0.1039  1.2399
  845MOL0     H14049  12.354   0.599  11.800 -0.1123 -0.3816  1.2962
  845MOL0     H14050  12.301   0.559  11.646  1.6620  0.1621 -2.0001
  845MOL0     H14051  12.457   0.399  11.815 -2.5645 -2.4755  0.0084
  845MOL0     H14052  12.569   0.455  11.690 -1.2919  1.6100 -1.0987
  845MOL0     H14053  12.291   0.313  11.641  0.4161  2.1818 -0.6778
  845MOL0     H14054  12.389   0.360  11.501 -0.4820 -3.3039 -2.0845
  845MOL0     H14055  12.215   1.078  11.069 -1.4890  0.2308 -0.2949
  845MOL0     H14056  12.047   1.227  11.133  0.5155 -1.1832 -0.6665
  845MOL0     H14057  11.674   1.342  11.377  1.1627  0.0791 -0.8888
  845MOL0     H14058  11.496   1.513  11.451 -0.4237  0.0505 -1.5945
  845MOL0     H14059   9.739   2.391  11.515 -4.4798  0.1176  0.5445
  845MOL0     H14060   9.649   2.435  11.295 -1.9287 -1.0909 -0.8215
  845MOL0     H14061   9.703   2.080  10.893  0.2308 -0.1481  0.5261
  845MOL0     H14062   9.529   1.994  10.714 -1.0406  0.5894 -4.6432
  845MOL0     H14063   9.552   1.954  10.492  0.6806 -1.7605 -1.2354
  845MOL0     H14064   9.562   2.069  10.354 -2.7354  0.8846 -1.6603
  845MOL0     H14065   9.409   1.900  10.287  1.1072 -2.3054  2.5404
  845MOL0     H14066   9.319   2.045  10.338  1.6020  2.7704  3.3216
  845MOL0     H14067   9.263   1.936  10.560  0.5819  0.7886 -0.1739
  845MOL0     H14068   9.355   1.803  10.523 -1.0211  1.1688  0.5357
  845MOL0     H14069   9.111   1.765  10.489  3.1585 -1.9349  0.6446
  845MOL0     H14070   9.106   1.889  10.357 -0.2034 -1.5309 -1.6332
  845MOL0     H14071   9.210   1.517  10.185 -3.2640 -2.2078  0.9730
  845MOL0     H14072   9.493   2.400  10.587  1.1848  1.6396  1.1908
  845MOL0     H14073   9.605   2.594  10.705  2.0489  3.1392  1.8719
  845MOL0     H14074   9.689   2.554  10.851 -6.0961 -1.3061  2.0057
  845MOL0     H14075   9.773   2.542  10.691 -0.4996  1.4573 -1.3730
  846MOL0     O14076   9.178   5.798   8.681  0.2490 -0.2170  0.5671
  846MOL0     C14077   9.121   5.697   8.648  0.3853 -1.0603 -0.1534
  846MOL0     O14078   9.175   5.585   8.590  0.8373  0.2650  0.3928
  846MOL0     C14079   9.314   5.569   8.593  0.0488 -0.2856  0.4959
  846MOL0     C14080   9.372   5.522   8.711  0.4525  0.6926 -1.0341
  846MOL0     C14081   9.512   5.498   8.718 -0.0097 -0.8423 -0.0084
  846MOL0     C14082   9.585   5.527   8.601  0.6275  0.3902  0.5100
  846MOL0     O14083   9.714   5.485   8.606 -0.1861 -0.0364 -0.3151
  846MOL0     C14084   9.806   5.524   8.501 -0.2294  0.3143 -0.4786
  846MOL0     C14085   9.948   5.473   8.521  0.7555  0.6368 -0.0356
  846MOL0     C14086  10.038   5.524   8.411  0.4309 -0.2715 -0.0401
  846MOL0     C14087  10.174   5.461   8.430  0.0451  0.2251 -0.2225
  846MOL0     C14088  10.269   5.495   8.321  0.3386 -0.2059 -0.1097
  846MOL0     C14089  10.263   5.408   8.196 -0.3368 -0.7371  0.2776
  846MOL0     C14090  10.333   5.481   8.080 -0.3620 -0.6338  0.0343
  846MOL0     C14091  10.480   5.538   8.105  0.1133 -0.4865  0.3194
  846MOL0     N14092  10.523   5.605   7.984 -0.4452 -0.5682 -1.0502
  846MOL0     C14093  10.572   5.732   7.983 -0.1092 -0.7097  0.3477
  846MOL0     C14094  10.626   5.748   7.865  0.3443 -0.4850 -0.2775
  846MOL0     C14095  10.687   5.879   7.812 -0.1933 -0.7287  0.2413
  846MOL0     C14096  10.582   5.985   7.769 -0.3115  0.1208 -0.0994
  846MOL0     C14097  10.508   5.930   7.642  0.3553  0.6139  0.0320
  846MOL0     C14098  10.575   5.961   7.517  0.6508 -0.1386 -0.0621
  846MOL0     O14099  10.592   6.105   7.507 -0.0475  0.4694  0.2550
  846MOL0     C14100  10.680   6.144   7.410 -0.3841  0.0175  0.5108
  846MOL0     C14101  10.723   6.072   7.293  0.6107  0.3202 -0.3713
  846MOL0     C14102  10.821   6.119   7.194  0.9993 -0.4190  0.2588
  846MOL0     C14103  10.855   6.252   7.201 -0.5067 -0.7338  0.4796
  846MOL0     C14104  10.953   6.310   7.109 -0.7648 -0.0420  0.0081
  846MOL0     O14105  10.977   6.445   7.123 -0.0476  0.1944 -0.0513
  846MOL0     C14106  11.087   6.499   7.054 -0.2305  0.6601 -0.1691
  846MOL0     C14107  11.071   6.640   7.029 -0.1465 -0.3056  0.1454
  846MOL0     C14108  11.174   6.710   6.962 -0.1431  0.3321 -0.6507
  846MOL0     C14109  11.295   6.652   6.919 -0.3064  0.1297  0.4313
  846MOL0     O14110  11.381   6.726   6.849  0.3857 -0.2177  0.3239
  846MOL0     C14111  11.495   6.662   6.790  0.0804  1.0172  0.9346
  846MOL0     C14112  11.594   6.766   6.737  0.5028 -0.3547  0.3575
  846MOL0     C14113  11.693   6.719   6.632 -1.3302  0.7243  0.8998
  846MOL0     C14114  11.782   6.835   6.570  0.1901 -0.6404  0.3002
  846MOL0     C14115  11.892   6.791   6.471  0.3671 -0.0749  0.0023
  846MOL0     C14116  11.987   6.911   6.445 -0.1030 -0.3855  0.5996
  846MOL0     C14117  12.090   6.856   6.341  0.3615 -0.3099 -0.2546
  846MOL0     C14118  12.192   6.960   6.321  0.3722  0.7043  0.2595
  846MOL0    Cl14119  12.139   7.101   6.226  0.0281 -0.3731  0.5664
  846MOL0     C14120  11.306   6.512   6.948  0.6546 -1.0388  0.1699
  846MOL0     C14121  11.196   6.436   7.005  0.0101  0.6678 -0.4466
  846MOL0     O14122  11.010   6.238   7.033  0.3770  0.5100  0.1750
  846MOL0     C14123  10.801   6.322   7.318  0.4292  0.8461 -0.2890
  846MOL0     C14124  10.724   6.278   7.424  0.7197  0.3654 -0.3389
  846MOL0     N14125  10.597   5.637   7.785  0.0312 -0.4115  0.2699
  846MOL0     N14126  10.541   5.553   7.859  0.1779  0.8589  0.3225
  846MOL0     C14127   9.531   5.591   8.494  0.0411  0.6267 -0.3733
  846MOL0     C14128   9.390   5.614   8.487  0.5113  0.4891 -0.9322
  846MOL0     C14129   8.971   5.685   8.680 -0.2811 -0.7478 -0.4104
  846MOL0     C14130   8.907   5.576   8.638 -0.0721 -0.1235  0.2890
  846MOL0     C14131   8.774   5.549   8.663  0.0237 -0.9290 -0.1568
  846MOL0     C14132   8.696   5.640   8.737  0.5202 -0.1874  0.5427
  846MOL0     O14133   8.561   5.640   8.747 -0.0265  0.0634 -0.3470
  846MOL0     C14134   8.479   5.519   8.736 -0.6815  0.1398  0.4160
  846MOL0     C14135   8.338   5.548   8.715 -0.8049 -0.4111  0.3001
  846MOL0     C14136   8.259   5.424   8.688  0.8930 -0.6162 -0.3826
  846MOL0     C14137   8.111   5.446   8.670 -0.1501  0.7543 -0.1350
  846MOL0     C14138   8.044   5.312   8.662  0.1601 -0.8802  0.4176
  846MOL0     C14139   7.993   5.204   8.662  0.0951  0.0809  0.1798
  846MOL0     C14140   8.760   5.752   8.775  0.1779 -0.4064 -0.0480
  846MOL0     C14141   8.899   5.784   8.753  0.6586 -0.1173 -0.5423
  846MOL0     C14142   8.944   5.917   8.817  0.3906 -0.3028 -1.0442
  846MOL0     H14143   9.314   5.498   8.799 -0.2605  2.6327 -0.9215
  846MOL0     H14144   9.553   5.461   8.811  1.4781  0.1791 -0.2165
  846MOL0     H14145   9.763   5.496   8.404  0.8478  0.7916 -1.1079
  846MOL0     H14146   9.810   5.634   8.495 -1.0573  0.5612  2.1106
  846MOL0     H14147   9.936   5.365   8.514 -0.0875  0.7622 -0.7203
  846MOL0     H14148   9.986   5.490   8.622 -1.0367 -1.4650  1.0569
  846MOL0     H14149  10.031   5.633   8.404  2.0303 -0.2446 -1.8385
  846MOL0     H14150  10.009   5.490   8.311  2.0067  0.2327 -0.6891
  846MOL0     H14151  10.213   5.494   8.527 -0.7883  0.6077 -0.0147
  846MOL0     H14152  10.169   5.353   8.444 -1.4217  0.1750 -1.0429
  846MOL0     H14153  10.243   5.598   8.296  1.3857  0.4590  1.3569
  846MOL0     H14154  10.372   5.506   8.357  0.5661 -0.0150 -0.8086
  846MOL0     H14155  10.299   5.305   8.209  2.6188  0.1793  0.0835
  846MOL0     H14156  10.162   5.391   8.159 -0.8081 -2.3427  2.1391
  846MOL0     H14157  10.267   5.561   8.047  0.1750 -0.5038 -0.7653
  846MOL0     H14158  10.337   5.420   7.989 -1.0568 -0.6255 -0.0074
  846MOL0     H14159  10.476   5.602   8.193  0.1331 -1.0799  0.7615
  846MOL0     H14160  10.547   5.453   8.123 -1.0515 -1.5437 -0.1688
  846MOL0     H14161  10.567   5.804   8.064  1.5231 -0.1951  0.0334
  846MOL0     H14162  10.751   5.914   7.894 -0.4103 -0.3143  0.2369
  846MOL0     H14163  10.745   5.859   7.721 -1.1084 -4.2114  0.2843
  846MOL0     H14164  10.523   6.006   7.858 -1.2690  1.9976 -1.1071
  846MOL0     H14165  10.631   6.081   7.749 -1.4618  0.4570 -1.4483
  846MOL0     H14166  10.413   5.983   7.642  0.1885  0.3235 -0.6553
  846MOL0     H14167  10.486   5.823   7.650 -0.5365  0.8432  0.9146
  846MOL0     H14168  10.511   5.919   7.439  0.2441 -1.1836  0.8058
  846MOL0     H14169  10.675   5.916   7.515  0.7215 -0.0318  0.6779
  846MOL0     H14170  10.685   5.971   7.279 -0.9656  0.8560 -0.1177
  846MOL0     H14171  10.856   6.060   7.110  2.0280  2.5467 -1.5537
  846MOL0     H14172  10.986   6.700   7.059  0.5313  0.2314  1.0574
  846MOL0     H14173  11.156   6.813   6.932  2.0325  0.7936 -0.5143
  846MOL0     H14174  11.545   6.611   6.873 -0.6296 -1.5836 -0.1547
  846MOL0     H14175  11.469   6.594   6.709  1.2830  1.4622  0.1525
  846MOL0     H14176  11.528   6.847   6.705  1.0046 -0.6135 -1.4593
  846MOL0     H14177  11.656   6.808   6.817  2.6415 -0.9912 -0.8728
  846MOL0     H14178  11.753   6.640   6.677  0.0907  1.4699  0.3785
  846MOL0     H14179  11.638   6.680   6.546 -1.4277  1.1794  0.7490
  846MOL0     H14180  11.819   6.903   6.647  1.4907 -0.9234 -0.0504
  846MOL0     H14181  11.710   6.892   6.511 -0.4949 -1.0579  0.7128
  846MOL0     H14182  11.850   6.751   6.378  1.5082 -3.9234  0.9251
  846MOL0     H14183  11.959   6.714   6.512  0.5191 -0.0854 -0.2627
  846MOL0     H14184  11.944   7.009   6.422 -2.4934 -1.4454  0.3023
  846MOL0     H14185  12.035   6.928   6.541  0.1399 -1.7085  0.7362
  846MOL0     H14186  12.037   6.843   6.246 -0.3588  0.9621 -0.0428
  846MOL0     H14187  12.144   6.763   6.360  0.7636 -0.1032 -0.3681
  846MOL0     H14188  12.222   6.991   6.422  1.4931 -0.7753  0.4228
  846MOL0     H14189  12.278   6.907   6.278 -0.2638 -0.5378  0.4520
  846MOL0     H14190  11.398   6.458   6.926  1.4231  1.1675 -2.8378
  846MOL0     H14191  11.208   6.337   7.049 -1.2369  1.4149  1.7220
  846MOL0     H14192  10.813   6.430   7.324 -1.6670  1.1483 -0.5520
  846MOL0     H14193  10.688   6.344   7.502  0.3055  0.8825 -0.9604
  846MOL0     H14194   9.598   5.628   8.418 -0.5690 -0.3472 -1.4231
  846MOL0     H14195   9.354   5.663   8.397 -1.5762  1.2723  0.2515
  846MOL0     H14196   8.939   5.493   8.577 -1.6110 -1.3790  1.1081
  846MOL0     H14197   8.747   5.449   8.631 -0.4465 -0.8861  0.0911
  846MOL0     H14198   8.488   5.444   8.814 -1.6826 -1.5117 -0.9890
  846MOL0     H14199   8.514   5.476   8.642  2.3925 -0.9959  1.9413
  846MOL0     H14200   8.328   5.628   8.640  2.1162 -0.4956 -0.3128
  846MOL0     H14201   8.313   5.607   8.804  0.7194  0.6812  0.0493
  846MOL0     H14202   8.280   5.354   8.770 -0.5543 -0.4054  0.2032
  846MOL0     H14203   8.296   5.375   8.597 -1.0929  1.6681 -2.5839
  846MOL0     H14204   8.078   5.499   8.759  0.3661 -0.0389  0.5473
  846MOL0     H14205   8.079   5.495   8.578  1.2404 -2.2834 -2.4208
  846MOL0     H14206   7.957   5.103   8.666  0.7020 -0.2009 -1.0356
  846MOL0     H14207   8.716   5.842   8.817  1.5692  1.0697 -1.6250
  846MOL0     H14208   8.872   5.960   8.887 -0.2408  3.5776 -3.7677
  846MOL0     H14209   9.041   5.903   8.866 -0.3412  2.0864  1.3127
  846MOL0     H14210   8.949   6.005   8.752 -2.8601 -1.2346 -2.8039
  847MOL0     O14211   7.101   1.956   5.396 -0.7472  0.3738 -0.3395
  847MOL0     C14212   7.126   1.841   5.391  0.7871  0.4673  0.1244
  847MOL0     O14213   7.247   1.779   5.375  0.8779  0.3012  0.6282
  847MOL0     C14214   7.359   1.850   5.389 -1.0446  0.3915  0.2950
  847MOL0     C14215   7.380   1.970   5.461  0.7538  0.9820  0.3394
  847MOL0     C14216   7.484   2.056   5.444  0.1720  0.1740 -0.0967
  847MOL0     C14217   7.588   2.008   5.364 -0.5622  0.5993  0.5239
  847MOL0     O14218   7.694   2.096   5.353 -0.0125 -0.6211  0.0736
  847MOL0     C14219   7.811   2.047   5.285 -0.1380  1.2482  0.0411
  847MOL0     C14220   7.930   2.150   5.315 -0.4163 -0.1689  0.0008
  847MOL0     C14221   8.073   2.128   5.251 -0.5528  0.3745 -0.3416
  847MOL0     C14222   8.197   2.146   5.354  0.7507  0.1101 -0.0621
  847MOL0     C14223   8.324   2.118   5.286  0.1004 -0.1796  0.3756
  847MOL0     C14224   8.448   2.124   5.373  0.1368  0.3099  1.5205
  847MOL0     C14225   8.583   2.103   5.282  0.3198  0.1989  0.3817
  847MOL0     C14226   8.703   2.034   5.344 -0.0791 -1.0936 -0.4345
  847MOL0     N14227   8.752   2.103   5.467  0.0941  0.3032 -0.2992
  847MOL0     C14228   8.723   2.054   5.597 -0.5275 -0.8005  0.9373
  847MOL0     C14229   8.737   2.156   5.680  0.1413 -0.7306  0.0848
  847MOL0     C14230   8.710   2.174   5.826 -1.0132  0.2300  0.3181
  847MOL0     C14231   8.835   2.228   5.907 -0.2036 -0.0172  0.4499
  847MOL0     C14232   8.784   2.267   6.045 -0.7635  0.8253  0.4644
  847MOL0     C14233   8.756   2.409   6.051 -0.1018 -1.2499 -0.3072
  847MOL0     O14234   8.875   2.485   6.039 -0.2390 -0.3566 -0.3175
  847MOL0     C14235   8.950   2.515   6.151  0.3510 -0.3715 -0.1455
  847MOL0     C14236   9.040   2.625   6.143  0.1015 -0.2018  0.6068
  847MOL0     C14237   9.136   2.656   6.235 -0.7415 -0.1938 -0.5401
  847MOL0     C14238   9.139   2.582   6.361  0.1917 -0.2028  0.1961
  847MOL0     C14239   9.233   2.615   6.468 -0.3024  0.4116  0.9322
  847MOL0     O14240   9.290   2.734   6.465 -0.9065 -0.4387 -0.3798
  847MOL0     C14241   9.392   2.767   6.550 -0.5718 -0.1891 -0.3048
  847MOL0     C14242   9.502   2.688   6.601  1.2191 -0.0987  0.1901
  847MOL0     C14243   9.601   2.744   6.680  0.4663  0.5005  0.1718
  847MOL0     C14244   9.600   2.874   6.726 -1.4710 -0.3506  0.2063
  847MOL0     O14245   9.688   2.911   6.828 -0.2703  1.0260  0.1938
  847MOL0     C14246   9.673   3.029   6.897  0.3539  0.3873  0.6113
  847MOL0     C14247   9.798   3.074   6.974  0.2848 -0.7259  0.1734
  847MOL0     C14248   9.759   3.177   7.087  0.3099 -0.3128 -0.4099
  847MOL0     C14249   9.879   3.242   7.149  0.1146  0.6190 -0.5165
  847MOL0     C14250   9.826   3.366   7.235 -0.5206 -0.7336 -1.2746
  847MOL0     C14251   9.942   3.451   7.305  0.3992 -0.9504  0.1258
  847MOL0     C14252  10.033   3.518   7.201  0.0950  0.1244 -0.2490
  847MOL0     C14253  10.146   3.604   7.272 -0.1786  0.4103  0.4811
  847MOL0    Cl14254  10.254   3.672   7.141 -0.0384 -0.1051  0.1908
  847MOL0     C14255   9.491   2.945   6.685  0.5884 -0.7647  0.2391
  847MOL0     C14256   9.395   2.892   6.598  0.1315 -0.3893  0.0345
  847MOL0     O14257   9.244   2.541   6.564  0.8708 -0.6606  0.8159
  847MOL0     C14258   9.043   2.480   6.381 -0.2154 -0.0621 -0.3323
  847MOL0     C14259   8.957   2.452   6.279  0.7644  0.0731  0.5883
  847MOL0     N14260   8.773   2.263   5.602  0.6799 -0.0018  0.8084
  847MOL0     N14261   8.799   2.230   5.476  0.4848  0.5206 -0.3856
  847MOL0     C14262   7.572   1.889   5.285 -1.0132 -0.5453 -0.3306
  847MOL0     C14263   7.460   1.817   5.291  0.8939 -0.1492 -1.0651
  847MOL0     C14264   7.015   1.750   5.413  0.3590 -0.3922 -0.3968
  847MOL0     C14265   7.014   1.633   5.345 -0.5790 -0.4299  0.0552
  847MOL0     C14266   6.920   1.532   5.360 -0.0828  0.1798 -0.4723
  847MOL0     C14267   6.825   1.542   5.460 -0.7417 -0.1739  0.6791
  847MOL0     O14268   6.733   1.446   5.485  0.1186 -0.6989  1.1995
  847MOL0     C14269   6.673   1.420   5.614  0.7051 -0.8629  0.1027
  847MOL0     C14270   6.675   1.271   5.652  0.7714  0.1063  0.3216
  847MOL0     C14271   6.544   1.201   5.587 -0.3862 -0.4795 -0.0840
  847MOL0     C14272   6.565   1.052   5.559 -0.3156 -0.5017  0.9171
  847MOL0     C14273   6.529   0.979   5.678 -0.4677  0.1233  0.8353
  847MOL0     C14274   6.506   0.939   5.790 -0.4803 -0.5822 -0.4477
  847MOL0     C14275   6.827   1.660   5.536 -0.5460 -0.2189 -0.2239
  847MOL0     C14276   6.920   1.765   5.516  0.9259 -0.6301 -0.3233
  847MOL0     C14277   6.922   1.895   5.600  0.5227  0.2899  0.2219
  847MOL0     H14278   7.305   1.992   5.537  0.6010 -1.3101  0.9373
  847MOL0     H14279   7.481   2.144   5.507 -1.6165  0.8770 -1.0795
  847MOL0     H14280   7.851   1.959   5.336  1.0221  1.3912 -0.5919
  847MOL0     H14281   7.800   2.042   5.176 -0.2370  0.7056  0.0754
  847MOL0     H14282   7.935   2.151   5.425 -0.9267 -2.1464  0.0711
  847MOL0     H14283   7.900   2.251   5.286  0.6745  0.2311  0.2453
  847MOL0     H14284   8.094   2.197   5.170 -1.4425 -2.3316 -3.0704
  847MOL0     H14285   8.065   2.032   5.200 -2.0378  1.6506 -2.6681
  847MOL0     H14286   8.190   2.247   5.395 -0.0056  0.0884 -0.1270
  847MOL0     H14287   8.176   2.082   5.440 -0.9193  0.2760 -0.3218
  847MOL0     H14288   8.321   2.021   5.234  3.1970 -0.7193  1.0122
  847MOL0     H14289   8.343   2.199   5.215  0.3127 -0.5345  0.0234
  847MOL0     H14290   8.457   2.221   5.424  2.4854  0.5058  0.8132
  847MOL0     H14291   8.439   2.043   5.446  0.5048 -1.9617 -0.8263
  847MOL0     H14292   8.613   2.207   5.261 -2.7788  0.7942 -1.8536
  847MOL0     H14293   8.555   2.054   5.188  0.5455 -3.0834  1.9173
  847MOL0     H14294   8.666   1.941   5.387  0.1569 -0.6208  0.8222
  847MOL0     H14295   8.777   2.037   5.264  2.3344  2.1100  1.6546
  847MOL0     H14296   8.695   1.953   5.625 -1.4090 -0.6935  0.4772
  847MOL0     H14297   8.614   2.227   5.831 -3.0287 -2.9752 -1.1267
  847MOL0     H14298   8.686   2.074   5.863  0.0421  0.2402  1.0661
  847MOL0     H14299   8.913   2.153   5.916  0.9970  1.1602  0.1371
  847MOL0     H14300   8.884   2.308   5.850 -1.3244 -0.4890 -1.2357
  847MOL0     H14301   8.852   2.244   6.128 -2.4620  1.9942  2.2738
  847MOL0     H14302   8.693   2.210   6.063 -1.8272  2.3628  0.1092
  847MOL0     H14303   8.709   2.430   6.147  0.4140  1.9225 -0.6354
  847MOL0     H14304   8.691   2.431   5.966 -0.3689  0.7086  0.3741
  847MOL0     H14305   9.041   2.677   6.048  0.3473  1.2940  1.4004
  847MOL0     H14306   9.202   2.741   6.222  2.4259 -2.5908 -1.4516
  847MOL0     H14307   9.500   2.583   6.576  0.5084 -0.0190 -0.1155
  847MOL0     H14308   9.674   2.673   6.718 -1.6395 -2.2018 -0.5105
  847MOL0     H14309   9.643   3.111   6.831  1.0340 -0.1780 -0.4223
  847MOL0     H14310   9.586   3.008   6.960 -0.1463  1.6299  0.3676
  847MOL0     H14311   9.854   2.991   7.018  2.7041  0.4284 -0.5492
  847MOL0     H14312   9.868   3.122   6.906 -2.9333  0.5229 -2.5442
  847MOL0     H14313   9.697   3.252   7.037 -0.0658 -0.0521  0.4305
  847MOL0     H14314   9.713   3.127   7.172  1.6788  2.2676  1.9966
  847MOL0     H14315   9.951   3.280   7.076  0.4932 -1.6852 -1.4102
  847MOL0     H14316   9.940   3.174   7.209  1.7698 -0.5223 -3.3460
  847MOL0     H14317   9.767   3.316   7.313 -0.4448  0.0042 -0.7318
  847MOL0     H14318   9.761   3.433   7.178  0.3120 -0.2853 -1.6997
  847MOL0     H14319   9.914   3.539   7.363  0.4798 -1.1716  0.5044
  847MOL0     H14320  10.001   3.392   7.375  1.2197 -0.4649 -0.1426
  847MOL0     H14321   9.972   3.573   7.129 -0.2833 -0.0819 -0.0878
  847MOL0     H14322  10.079   3.439   7.141 -2.0167 -1.4286  0.0457
  847MOL0     H14323  10.107   3.685   7.334 -1.1504  0.9028 -0.7209
  847MOL0     H14324  10.216   3.546   7.333  2.3238  3.1922  0.4614
  847MOL0     H14325   9.482   3.052   6.699  0.9050 -0.5368 -1.1249
  847MOL0     H14326   9.303   2.933   6.558 -0.0345 -2.3000 -1.6718
  847MOL0     H14327   9.048   2.409   6.463 -0.4639 -1.4317 -1.4736
  847MOL0     H14328   8.880   2.378   6.295  0.3972  0.7666  2.2028
  847MOL0     H14329   7.641   1.847   5.213  0.0305 -0.3337  0.5181
  847MOL0     H14330   7.443   1.732   5.225  2.2157  0.3323 -2.0682
  847MOL0     H14331   7.093   1.611   5.274  0.7012  0.8574  1.0232
  847MOL0     H14332   6.945   1.436   5.316 -1.6504 -1.0547  1.1558
  847MOL0     H14333   6.572   1.462   5.617  1.6431  1.7986 -1.4174
  847MOL0     H14334   6.730   1.465   5.696  0.7606  0.1057 -0.4482
  847MOL0     H14335   6.663   1.257   5.760  0.4608 -0.5447  0.2041
  847MOL0     H14336   6.762   1.213   5.620 -0.8569 -2.3777  0.1036
  847MOL0     H14337   6.522   1.258   5.497 -2.7409  0.7827  1.2091
  847MOL0     H14338   6.459   1.219   5.653  0.0666 -0.8558  0.6219
  847MOL0     H14339   6.501   1.005   5.484  2.9956 -3.1572 -0.4900
  847MOL0     H14340   6.665   1.034   5.519 -0.3074 -2.7895  1.8227
  847MOL0     H14341   6.498   0.903   5.891  1.6346  0.5644  0.1978
  847MOL0     H14342   6.760   1.665   5.621 -0.9317  0.0328 -0.5346
  847MOL0     H14343   6.911   1.988   5.544  0.4290  0.3480  0.3366
  847MOL0     H14344   6.839   1.887   5.670 -0.0125 -0.4063 -0.4822
  847MOL0     H14345   7.012   1.897   5.663  1.1772 -0.8546 -0.6425
  848MOL0     O14346   9.397  11.038   7.271  0.9156  0.4068  0.7315
  848MOL0     C14347   9.350  11.121   7.185  0.0181 -0.2228 -0.0887
  848MOL0     O14348   9.420  11.171   7.077 -0.7015  0.2523  0.0665
  848MOL0     C14349   9.551  11.144   7.070 -0.3180 -0.2434  0.0605
  848MOL0     C14350   9.640  11.154   7.178  0.6091  0.3770  0.1932
  848MOL0     C14351   9.772  11.158   7.160  0.3967 -1.3140  0.1350
  848MOL0     C14352   9.823  11.153   7.032 -0.4042  0.6032  0.1049
  848MOL0     O14353   9.960  11.154   7.007  0.1372  0.1386 -0.2108
  848MOL0     C14354  10.038  11.244   7.088  0.5114 -0.0599  0.7113
  848MOL0     C14355  10.168  11.278   7.019  0.4686  0.2287  1.0591
  848MOL0     C14356  10.252  11.149   6.991 -0.0957  0.8320  0.7907
  848MOL0     C14357  10.336  11.087   7.104  0.4336 -0.3653 -0.5003
  848MOL0     C14358  10.433  10.975   7.062 -0.6638 -0.0480  0.0483
  848MOL0     C14359  10.540  10.948   7.175 -0.2827 -0.3023 -0.4942
  848MOL0     C14360  10.622  10.820   7.154 -0.2925 -0.2450  0.6202
  848MOL0     C14361  10.707  10.783   7.270  0.2561 -0.2609  0.3018
  848MOL0     N14362  10.818  10.694   7.242 -0.4676  0.1948  1.8733
  848MOL0     C14363  10.802  10.560   7.222  0.7152 -0.4142  0.0552
  848MOL0     C14364  10.922  10.520   7.180  0.1084 -0.8234  0.0756
  848MOL0     C14365  10.959  10.375   7.138  0.7556 -0.1036  0.4125
  848MOL0     C14366  10.936  10.368   6.982  0.0666 -0.3513 -0.3128
  848MOL0     C14367  11.066  10.387   6.905 -0.3806 -0.3261 -0.8683
  848MOL0     C14368  11.104  10.534   6.886 -0.0006  0.3661  0.4720
  848MOL0     O14369  11.196  10.551   6.782 -0.3110 -0.5885  0.1276
  848MOL0     C14370  11.310  10.470   6.785  0.1121  0.1787  1.2228
  848MOL0     C14371  11.363  10.440   6.662 -0.5318  1.3889  1.0264
  848MOL0     C14372  11.467  10.348   6.639  0.2047 -0.7087  0.4689
  848MOL0     C14373  11.529  10.296   6.756 -0.7763  0.5855 -0.3641
  848MOL0     C14374  11.641  10.203   6.741 -0.9701  0.4160  0.4833
  848MOL0     O14375  11.694  10.149   6.854  0.2396 -0.0177 -0.1718
  848MOL0     C14376  11.808  10.078   6.832 -0.2668  0.3139 -0.0252
  848MOL0     C14377  11.927  10.141   6.826  0.1560 -0.5822 -0.1394
  848MOL0     C14378  12.041  10.075   6.822 -0.6153  0.6509  0.1611
  848MOL0     C14379  12.059   9.935   6.827  0.1217 -0.9540  0.0720
  848MOL0     O14380  12.190   9.895   6.826 -0.2661  0.1202  0.4830
  848MOL0     C14381  12.212   9.760   6.862 -0.5362 -0.5516 -0.0588
  848MOL0     C14382  12.205   9.658   6.747 -0.2813 -0.3155 -0.0509
  848MOL0     C14383  12.255   9.522   6.788  0.0519 -0.2139  0.1760
  848MOL0     C14384  12.247   9.419   6.675  0.4802  0.1829 -0.2690
  848MOL0     C14385  12.366   9.331   6.625  0.3903 -0.0621  0.0499
  848MOL0     C14386  12.475   9.422   6.573 -0.0163 -0.2214 -0.0099
  848MOL0     C14387  12.560   9.360   6.464 -0.4939 -0.0835  0.7388
  848MOL0     C14388  12.644   9.236   6.502 -0.5820  0.6687  0.7470
  848MOL0    Cl14389  12.693   9.245   6.659 -0.7030  0.0483  0.2098
  848MOL0     C14390  11.938   9.870   6.846  0.6708 -0.1485  0.3977
  848MOL0     C14391  11.809   9.939   6.842  0.0766  0.0182 -0.2337
  848MOL0     O14392  11.688  10.178   6.629  0.1624  0.1499 -0.2476
  848MOL0     C14393  11.477  10.322   6.886  1.0210 -0.2610 -0.0757
  848MOL0     C14394  11.371  10.416   6.899  0.2059  0.4283 -0.7624
  848MOL0     N14395  11.011  10.619   7.180 -0.3932 -1.0133  0.4369
  848MOL0     N14396  10.948  10.729   7.209  0.0095 -0.1495 -0.2282
  848MOL0     C14397   9.741  11.114   6.921 -0.8031  0.0729  0.1688
  848MOL0     C14398   9.598  11.111   6.943  1.3174 -0.3619  0.4951
  848MOL0     C14399   9.205  11.168   7.193  0.5943  0.2164 -0.1550
  848MOL0     C14400   9.166  11.269   7.110  0.0093 -0.5438 -0.2733
  848MOL0     C14401   9.037  11.321   7.096 -0.6753  1.0138  0.9579
  848MOL0     C14402   8.933  11.269   7.162 -0.6839 -0.0530 -0.1145
  848MOL0     O14403   8.803  11.320   7.157  0.2838 -0.0891 -0.7234
  848MOL0     C14404   8.765  11.438   7.076 -0.0792 -0.5240  0.6041
  848MOL0     C14405   8.632  11.494   7.131  0.1683 -0.9137  0.4731
  848MOL0     C14406   8.598  11.628   7.060 -0.3666  0.0814 -0.0184
  848MOL0     C14407   8.462  11.685   7.091  0.2657  0.4542  0.5794
  848MOL0     C14408   8.416  11.773   6.984  0.1576 -0.4133  0.4954
  848MOL0     C14409   8.366  11.850   6.904 -0.0182  1.0211 -0.0282
  848MOL0     C14410   8.965  11.148   7.236 -0.4067 -0.0722 -0.1926
  848MOL0     C14411   9.100  11.097   7.255  0.2307 -0.1105 -0.1058
  848MOL0     C14412   9.123  10.970   7.334  0.3089  0.5207 -0.2982
  848MOL0     H14413   9.605  11.182   7.277  1.3101 -1.1027  0.9029
  848MOL0     H14414   9.836  11.159   7.248 -2.4313 -4.0179  2.4652
  848MOL0     H14415   9.982  11.336   7.109  1.9034  1.2356 -0.9687
  848MOL0     H14416  10.071  11.181   7.171  2.1423 -0.1540  0.0303
  848MOL0     H14417  10.230  11.348   7.076 -1.0838  2.5189  0.0566
  848MOL0     H14418  10.155  11.337   6.929  5.2191  1.3800  0.8517
  848MOL0     H14419  10.323  11.174   6.912 -2.2717  2.7376 -0.6956
  848MOL0     H14420  10.189  11.067   6.954 -0.5299  2.5237 -2.5780
  848MOL0     H14421  10.385  11.170   7.155 -1.7423  0.1790  0.8066
  848MOL0     H14422  10.262  11.046   7.173  1.4019  0.5505  1.1592
  848MOL0     H14423  10.383  10.879   7.052  3.0096 -2.0540 -0.9932
  848MOL0     H14424  10.480  10.995   6.966 -0.7219 -0.8585 -0.1542
  848MOL0     H14425  10.596  11.042   7.177 -0.8246  0.3427 -4.7615
  848MOL0     H14426  10.493  10.945   7.273 -0.1764 -0.5391 -0.4504
  848MOL0     H14427  10.680  10.830   7.062 -1.2408  1.6251  0.1633
  848MOL0     H14428  10.555  10.735   7.148 -0.2427 -0.4662  2.5753
  848MOL0     H14429  10.747  10.879   7.303 -0.8523  0.6297 -0.8325
  848MOL0     H14430  10.642  10.736   7.345  0.3120 -1.8996 -0.6356
  848MOL0     H14431  10.715  10.495   7.225  0.7222 -0.3878  1.5100
  848MOL0     H14432  11.065  10.367   7.164  0.3361 -2.8846  1.5822
  848MOL0     H14433  10.899  10.304   7.196  2.1994  1.5998  4.3409
  848MOL0     H14434  10.892  10.270   6.963  3.4770 -1.7171 -1.7888
  848MOL0     H14435  10.863  10.446   6.957 -2.3340 -2.7924 -1.3451
  848MOL0     H14436  11.044  10.340   6.809  1.1168  0.4254 -1.6289
  848MOL0     H14437  11.146  10.323   6.944  1.8275  0.8687 -3.1094
  848MOL0     H14438  11.144  10.570   6.981  0.6503 -0.4940  0.5387
  848MOL0     H14439  11.007  10.584   6.880 -0.7412 -0.9643  0.8033
  848MOL0     H14440  11.334  10.503   6.578  1.7885  0.3490 -0.6524
  848MOL0     H14441  11.504  10.332   6.539 -2.6209 -0.5659 -0.7049
  848MOL0     H14442  11.939  10.249   6.833 -2.4551 -0.3346  2.2574
  848MOL0     H14443  12.136  10.125   6.807 -0.3421  2.2265  5.2446
  848MOL0     H14444  12.311   9.758   6.908 -0.8314  1.7697  0.7976
  848MOL0     H14445  12.141   9.734   6.942  0.0055  0.6035  0.8196
  848MOL0     H14446  12.101   9.651   6.715 -0.4056  0.9301  0.0232
  848MOL0     H14447  12.276   9.693   6.672  1.8434 -0.3178  1.8399
  848MOL0     H14448  12.362   9.537   6.803 -0.2012  2.7688 -0.2908
  848MOL0     H14449  12.192   9.501   6.875 -1.8133 -1.7492 -1.4452
  848MOL0     H14450  12.208   9.460   6.581 -1.5731  3.2453  1.7190
  848MOL0     H14451  12.177   9.344   6.711 -0.0520 -0.1594 -1.9704
  848MOL0     H14452  12.325   9.269   6.545  0.3835  1.1569 -0.9365
  848MOL0     H14453  12.396   9.277   6.715  1.3388  0.0836 -0.1597
  848MOL0     H14454  12.429   9.508   6.523  0.9322  0.3384  0.0423
  848MOL0     H14455  12.528   9.462   6.660  0.1419  0.5888 -0.4675
  848MOL0     H14456  12.623   9.443   6.429 -0.4560 -0.4798 -0.1632
  848MOL0     H14457  12.488   9.330   6.388 -0.2223  0.4382  0.2636
  848MOL0     H14458  12.592   9.142   6.482 -4.3784  2.7228  0.0646
  848MOL0     H14459  12.737   9.238   6.443 -1.6934 -0.2361 -1.1331
  848MOL0     H14460  11.934   9.764   6.867 -1.1499 -0.8685 -2.9852
  848MOL0     H14461  11.722   9.880   6.865  1.5992 -2.1788  0.2182
  848MOL0     H14462  11.529  10.274   6.968 -0.0496 -3.1725 -0.9538
  848MOL0     H14463  11.335  10.432   7.000  0.8840  1.5669 -0.6712
  848MOL0     H14464   9.797  11.081   6.834  0.6458  0.5942  0.8787
  848MOL0     H14465   9.530  11.083   6.863  1.1985 -0.4387  0.6233
  848MOL0     H14466   9.245  11.328   7.064  0.0980  2.1717  2.9944
  848MOL0     H14467   9.021  11.406   7.032 -1.4077  1.3311  1.5518
  848MOL0     H14468   8.766  11.406   6.972  1.3888  1.9149 -0.2273
  848MOL0     H14469   8.848  11.510   7.079 -1.4432  1.5696 -3.7507
  848MOL0     H14470   8.630  11.505   7.239 -1.1834 -1.3444  0.5149
  848MOL0     H14471   8.555  11.418   7.110 -1.1317  0.2930  0.7428
  848MOL0     H14472   8.611  11.610   6.953 -1.4452  0.4802 -0.2270
  848MOL0     H14473   8.670  11.706   7.087 -1.4818  1.9553 -2.1301
  848MOL0     H14474   8.392  11.601   7.089  1.9947 -1.0431 -0.2334
  848MOL0     H14475   8.464  11.740   7.185 -0.2969 -0.7193  1.3100
  848MOL0     H14476   8.340  11.908   6.817 -2.1297 -2.0482 -1.6605
  848MOL0     H14477   8.900  11.086   7.297 -0.6594  1.9561  1.7262
  848MOL0     H14478   9.032  10.939   7.386  0.7148  0.3266  0.3057
  848MOL0     H14479   9.155  10.887   7.270  0.0003  0.7127 -0.7050
  848MOL0     H14480   9.191  10.989   7.417 -0.9601 -0.4876  1.0215
  849MOL0     O14481   3.358   1.332   8.278 -0.2680 -0.0432  0.2079
  849MOL0     C14482   3.311   1.221   8.248  0.3986 -0.0538 -0.4853
  849MOL0     O14483   3.204   1.193   8.176  0.2627 -0.2969  0.2479
  849MOL0     C14484   3.101   1.283   8.161 -0.3340  0.1680  0.8766
  849MOL0     C14485   3.073   1.394   8.244  0.0688 -0.3746 -1.2294
  849MOL0     C14486   2.977   1.491   8.221  0.5275  0.5169  0.0386
  849MOL0     C14487   2.892   1.465   8.117  0.3305  0.2122  0.0043
  849MOL0     O14488   2.796   1.562   8.101 -0.0818 -0.2329 -0.1486
  849MOL0     C14489   2.731   1.579   7.974  0.3582  0.0523  1.2289
  849MOL0     C14490   2.627   1.690   7.975 -0.7320  0.7588 -0.1275
  849MOL0     C14491   2.674   1.833   7.958  0.6723  0.4988  0.0206
  849MOL0     C14492   2.719   1.866   7.817 -0.3740 -0.5607 -0.5454
  849MOL0     C14493   2.767   2.007   7.820 -0.3436  0.4457 -0.5805
  849MOL0     C14494   2.829   2.046   7.689  0.7020 -0.5980  0.3899
  849MOL0     C14495   2.913   2.180   7.697  0.4119  0.0485  0.4495
  849MOL0     C14496   2.866   2.280   7.806  0.5408 -0.8296 -0.0952
  849MOL0     N14497   2.969   2.379   7.822  0.4640  0.4554 -0.3732
  849MOL0     C14498   2.983   2.495   7.749 -0.0467  0.6801 -0.5850
  849MOL0     C14499   3.091   2.555   7.795 -0.7274 -0.0170 -0.3980
  849MOL0     C14500   3.134   2.688   7.747 -0.3918 -0.7089  0.0215
  849MOL0     C14501   3.158   2.781   7.867 -1.0509 -1.4907 -0.4451
  849MOL0     C14502   3.261   2.885   7.812 -0.8772 -0.6698 -0.1252
  849MOL0     C14503   3.198   2.974   7.703 -0.9983 -1.0077  0.4704
  849MOL0     O14504   3.070   3.028   7.759  0.5490  0.8343  0.1790
  849MOL0     C14505   2.951   2.998   7.700  0.0933  1.0544 -0.8941
  849MOL0     C14506   2.939   2.991   7.566  0.9483 -0.2537  0.7189
  849MOL0     C14507   2.818   2.967   7.498  1.4515  1.1672  0.1430
  849MOL0     C14508   2.706   2.926   7.578 -0.8990 -0.1086 -1.2126
  849MOL0     C14509   2.575   2.886   7.520 -0.1632 -0.6854  0.1524
  849MOL0     O14510   2.476   2.851   7.609  0.2114 -0.7875  0.4618
  849MOL0     C14511   2.362   2.801   7.556 -0.6169  0.3775  0.2906
  849MOL0     C14512   2.366   2.675   7.499 -0.7308 -0.0633 -0.7115
  849MOL0     C14513   2.250   2.618   7.449 -0.3796 -0.1521  0.0582
  849MOL0     C14514   2.129   2.691   7.461 -0.1108  0.3154 -0.3858
  849MOL0     O14515   2.017   2.629   7.419 -0.0163  0.2615 -0.4357
  849MOL0     C14516   2.012   2.632   7.273 -0.4296  0.0283  0.0538
  849MOL0     C14517   1.872   2.684   7.229  0.1503 -0.3177  0.3736
  849MOL0     C14518   1.835   2.821   7.281  0.1413  0.7346 -0.4018
  849MOL0     C14519   1.696   2.863   7.249 -1.1004 -0.6257  0.8889
  849MOL0     C14520   1.670   3.003   7.309 -0.1031  0.7033  0.1646
  849MOL0     C14521   1.551   3.065   7.228  0.4280  0.8924 -0.1205
  849MOL0     C14522   1.513   3.210   7.280  0.2537  0.2758 -0.0367
  849MOL0     C14523   1.574   3.315   7.194 -0.1462 -1.1238  0.2763
  849MOL0    Cl14524   1.508   3.312   7.028  0.4973  0.3063 -0.1043
  849MOL0     C14525   2.128   2.817   7.513 -0.6493  0.5968 -0.3097
  849MOL0     C14526   2.247   2.875   7.557  0.1792  0.2326  0.0541
  849MOL0     O14527   2.558   2.876   7.403 -0.2249 -0.0417 -0.0475
  849MOL0     C14528   2.724   2.948   7.719  0.3235  0.6337  0.4990
  849MOL0     C14529   2.843   2.983   7.777  1.0876  1.1564 -0.2650
  849MOL0     N14530   3.155   2.471   7.886  0.5772  0.2582  0.1117
  849MOL0     N14531   3.071   2.373   7.909 -0.1155  1.2450 -0.5604
  849MOL0     C14532   2.895   1.345   8.050  0.3498  1.0031  0.4373
  849MOL0     C14533   3.004   1.258   8.065 -0.5631 -0.6520  0.1373
  849MOL0     C14534   3.407   1.104   8.281  0.5002  0.4195  0.8035
  849MOL0     C14535   3.370   0.981   8.228  1.4692 -0.1492  0.1776
  849MOL0     C14536   3.452   0.869   8.238 -1.3769  0.1793 -0.4216
  849MOL0     C14537   3.573   0.873   8.305 -0.0440  0.6053  0.3940
  849MOL0     O14538   3.660   0.769   8.322 -0.2414 -0.0512  0.0461
  849MOL0     C14539   3.590   0.641   8.343 -0.4172  0.1784 -0.1859
  849MOL0     C14540   3.697   0.547   8.411 -0.0642  0.0703 -0.2131
  849MOL0     C14541   3.770   0.610   8.538 -1.2312 -0.4118 -0.4903
  849MOL0     C14542   3.916   0.659   8.498  0.8517 -0.2817  0.5966
  849MOL0     C14543   4.013   0.549   8.479 -0.0986  0.3336 -0.0655
  849MOL0     C14544   4.093   0.468   8.439 -0.3911  0.6533 -0.9282
  849MOL0     C14545   3.599   0.992   8.369 -0.1021  0.7084 -0.3612
  849MOL0     C14546   3.527   1.108   8.355  0.7927 -0.0535 -0.0351
  849MOL0     C14547   3.580   1.229   8.419  0.1683 -0.2805 -0.2933
  849MOL0     H14548   3.143   1.414   8.323  0.0615 -0.4602 -1.2013
  849MOL0     H14549   2.976   1.578   8.286 -0.7556  0.8971 -0.4696
  849MOL0     H14550   2.804   1.600   7.895 -0.2970 -1.3818  0.1993
  849MOL0     H14551   2.676   1.489   7.945 -2.0648  1.9322 -0.3342
  849MOL0     H14552   2.581   1.690   8.074  0.7337  4.8811  0.7687
  849MOL0     H14553   2.543   1.678   7.906 -0.1313  1.8117 -1.0955
  849MOL0     H14554   2.756   1.858   8.027  0.4479 -1.1075  0.9223
  849MOL0     H14555   2.594   1.904   7.981  0.5071  0.3482 -0.0920
  849MOL0     H14556   2.797   1.796   7.784  3.4443  2.0942  2.0039
  849MOL0     H14557   2.633   1.853   7.752 -1.2737 -0.1217  0.5264
  849MOL0     H14558   2.673   2.061   7.834  0.2676  1.3192  0.3102
  849MOL0     H14559   2.834   2.023   7.905 -0.8908 -1.4575  0.2726
  849MOL0     H14560   2.897   1.965   7.662  0.5295  0.0078 -2.1156
  849MOL0     H14561   2.755   2.055   7.609 -0.1757 -1.6475  1.0508
  849MOL0     H14562   2.897   2.232   7.602  1.9258  0.6522  0.4902
  849MOL0     H14563   3.016   2.154   7.724  0.1836 -0.8212  0.5071
  849MOL0     H14564   2.770   2.323   7.777 -0.2384 -1.0922  1.9106
  849MOL0     H14565   2.861   2.224   7.900  2.2892  1.2989  1.3775
  849MOL0     H14566   2.909   2.530   7.678 -1.4066 -2.6715 -1.0118
  849MOL0     H14567   3.222   2.658   7.689 -0.2665 -1.5541  0.6259
  849MOL0     H14568   3.065   2.728   7.673 -1.9305  1.0017  2.2306
  849MOL0     H14569   3.068   2.826   7.909  0.1225  1.9122 -1.2526
  849MOL0     H14570   3.204   2.722   7.946  1.6431  2.2562  1.0753
  849MOL0     H14571   3.350   2.844   7.763 -0.4802  0.0258 -0.0072
  849MOL0     H14572   3.299   2.950   7.891  1.3837 -2.0450  0.0054
  849MOL0     H14573   3.184   2.925   7.606  3.0588  0.9638 -1.3510
  849MOL0     H14574   3.261   3.062   7.685 -2.4406 -0.3300 -1.7795
  849MOL0     H14575   3.026   3.016   7.506  0.2061  2.0196  0.4776
  849MOL0     H14576   2.829   2.957   7.390  0.9611  3.1500 -0.1346
  849MOL0     H14577   2.464   2.629   7.504  0.4284  2.3941  2.2036
  849MOL0     H14578   2.255   2.525   7.393 -0.7488  0.2539 -0.6638
  849MOL0     H14579   2.086   2.700   7.227  0.3033 -0.6764  0.1689
  849MOL0     H14580   2.032   2.530   7.240 -4.4718 -0.1997 -2.2941
  849MOL0     H14581   1.877   2.678   7.120 -0.6834 -1.7698  0.4021
  849MOL0     H14582   1.801   2.606   7.256 -2.7482  0.6865 -3.5039
  849MOL0     H14583   1.852   2.819   7.389 -2.0982  0.6537 -0.0072
  849MOL0     H14584   1.890   2.900   7.229 -1.5064  2.5758  0.5271
  849MOL0     H14585   1.630   2.790   7.297 -3.1149  1.8190  2.0463
  849MOL0     H14586   1.679   2.865   7.141  0.1875  0.5728  0.6805
  849MOL0     H14587   1.753   3.073   7.296 -0.8476  1.2897 -1.7919
  849MOL0     H14588   1.650   2.992   7.416 -0.8644 -0.5538 -0.0990
  849MOL0     H14589   1.586   3.073   7.125  0.8189 -2.1615 -0.3023
  849MOL0     H14590   1.463   3.000   7.231  0.1789  1.2222 -0.2804
  849MOL0     H14591   1.554   3.220   7.380  0.0368 -2.0968  0.3511
  849MOL0     H14592   1.404   3.223   7.286  0.2469  1.9678 -2.2119
  849MOL0     H14593   1.561   3.416   7.235  2.5365 -0.8740  0.6687
  849MOL0     H14594   1.682   3.302   7.196  0.0239  0.2952  1.9131
  849MOL0     H14595   2.033   2.869   7.502 -0.6496  0.4408 -1.1142
  849MOL0     H14596   2.231   2.970   7.607  1.6469  0.8743 -0.6215
  849MOL0     H14597   2.646   2.917   7.788  1.9838 -1.8446  1.3971
  849MOL0     H14598   2.847   2.994   7.885  0.5192 -0.5005 -0.0464
  849MOL0     H14599   2.819   1.321   7.976  0.4002 -1.0371  0.9848
  849MOL0     H14600   3.020   1.174   7.998  2.2655  0.5150 -0.8411
  849MOL0     H14601   3.276   0.971   8.175  1.7333  0.6351 -0.4640
  849MOL0     H14602   3.427   0.774   8.193  0.5520 -0.3309 -0.5099
  849MOL0     H14603   3.566   0.595   8.247 -0.1798  2.2137 -1.2854
  849MOL0     H14604   3.504   0.655   8.409  0.5867 -0.2907  1.2849
  849MOL0     H14605   3.776   0.529   8.337 -0.7609  0.7385 -1.1459
  849MOL0     H14606   3.653   0.453   8.444 -1.0478  0.4427 -0.4479
  849MOL0     H14607   3.770   0.545   8.626 -3.3675  0.9033  0.5693
  849MOL0     H14608   3.706   0.694   8.567  1.5787  1.4659  0.7030
  849MOL0     H14609   3.911   0.732   8.417 -1.8829  1.8887  2.5374
  849MOL0     H14610   3.945   0.718   8.585 -1.9527  1.7677  0.3035
  849MOL0     H14611   4.152   0.384   8.407  0.5969  0.5602  1.0083
  849MOL0     H14612   3.693   0.990   8.422 -0.4566 -2.4393  0.3576
  849MOL0     H14613   3.609   1.304   8.345 -0.2796 -2.1482 -2.5173
  849MOL0     H14614   3.504   1.265   8.489  0.9683  1.1710 -0.1396
  849MOL0     H14615   3.669   1.193   8.471  1.1563  2.4745  0.0376
  850MOL0     O14616   4.218   2.809  11.290 -0.3513  0.9362  0.5066
  850MOL0     C14617   4.235   2.785  11.413 -0.2185 -0.2298 -0.2343
  850MOL0     O14618   4.353   2.754  11.471 -0.5221  0.3293  0.5958
  850MOL0     C14619   4.484   2.781  11.425  0.4299  0.0411 -0.2944
  850MOL0     C14620   4.587   2.734  11.501 -0.5343 -0.0102 -0.1715
  850MOL0     C14621   4.722   2.780  11.478 -0.7012  0.5974 -0.3587
  850MOL0     C14622   4.753   2.854  11.363  0.2604 -0.5810 -0.6156
  850MOL0     O14623   4.885   2.877  11.350  0.4293 -0.1436 -0.4649
  850MOL0     C14624   4.928   2.934  11.220 -0.6754 -0.1638 -0.5774
  850MOL0     C14625   5.068   2.879  11.192 -0.5658 -0.3000  0.2532
  850MOL0     C14626   5.175   2.940  11.294 -0.0311 -0.1543  0.2953
  850MOL0     C14627   5.319   2.912  11.249 -0.1068  0.1663  0.6928
  850MOL0     C14628   5.358   2.762  11.258 -0.0663  0.2553  0.9895
  850MOL0     C14629   5.495   2.740  11.185  0.7869  0.1209 -0.3230
  850MOL0     C14630   5.604   2.852  11.228 -0.7111  0.3266  0.4895
  850MOL0     C14631   5.615   2.978  11.136  0.1671 -0.3976  0.5330
  850MOL0     N14632   5.625   2.949  10.992 -0.0586  0.6751 -0.2705
  850MOL0     C14633   5.745   2.946  10.920  0.5242  0.1267  1.1605
  850MOL0     C14634   5.704   2.952  10.786  0.6859 -0.3194  0.2938
  850MOL0     C14635   5.779   2.947  10.658 -0.2986 -0.2698 -0.2675
  850MOL0     C14636   5.769   3.078  10.582 -0.0527  0.2612 -0.3077
  850MOL0     C14637   5.896   3.122  10.511  0.7595 -0.1559 -0.3212
  850MOL0     C14638   5.980   3.212  10.594 -0.1049 -0.6402  0.3698
  850MOL0     O14639   6.100   3.242  10.519  0.3964 -0.6775  0.0736
  850MOL0     C14640   6.188   3.340  10.551 -0.1916 -0.4152  0.4358
  850MOL0     C14641   6.304   3.345  10.475  0.6599 -0.0074  0.0255
  850MOL0     C14642   6.412   3.428  10.508  0.0027 -0.5672 -0.4175
  850MOL0     C14643   6.408   3.511  10.619 -0.1281 -0.3792  0.1775
  850MOL0     C14644   6.518   3.590  10.654  0.2580 -0.2741 -0.0810
  850MOL0     O14645   6.523   3.655  10.773 -0.5086 -0.0081  0.1391
  850MOL0     C14646   6.627   3.742  10.799 -0.7098  0.2846 -0.5529
  850MOL0     C14647   6.664   3.743  10.931 -0.4147 -0.4024 -0.2385
  850MOL0     C14648   6.782   3.792  10.976  0.0726 -0.0244 -0.9591
  850MOL0     C14649   6.869   3.863  10.892  0.6458  0.1340  0.0837
  850MOL0     O14650   6.985   3.920  10.931 -0.7922 -0.6748  0.2127
  850MOL0     C14651   7.001   4.066  10.917 -0.8564 -0.3663 -0.4632
  850MOL0     C14652   6.887   4.153  10.978  0.4137  0.8099 -0.1512
  850MOL0     C14653   6.926   4.290  10.993  0.2557 -0.4751  0.1873
  850MOL0     C14654   6.821   4.380  11.064 -0.0914 -0.4586  0.0995
  850MOL0     C14655   6.757   4.478  10.969 -0.2846 -0.9405  0.2650
  850MOL0     C14656   6.860   4.581  10.919 -0.7705  0.1119  0.4732
  850MOL0     C14657   6.787   4.708  10.864 -0.7687 -0.7397  0.7250
  850MOL0     C14658   6.898   4.807  10.852 -0.5761 -0.1814 -0.3778
  850MOL0    Cl14659   6.863   4.941  10.732  0.1543 -0.3944 -0.1224
  850MOL0     C14660   6.836   3.871  10.757 -0.0041 -0.1090  0.0548
  850MOL0     C14661   6.712   3.812  10.708 -0.0790 -0.6517 -0.4247
  850MOL0     O14662   6.614   3.577  10.579  0.6183  0.0817 -0.4268
  850MOL0     C14663   6.289   3.506  10.697  0.4875  0.7488 -0.4271
  850MOL0     C14664   6.182   3.423  10.667 -0.1469  0.0806  0.5380
  850MOL0     N14665   5.564   2.981  10.783 -0.3124  0.4229  0.2183
  850MOL0     N14666   5.520   2.974  10.905 -0.5977 -1.0248 -0.0601
  850MOL0     C14667   4.644   2.888  11.280  0.7110 -0.6617 -0.0672
  850MOL0     C14668   4.513   2.852  11.306  0.2922 -0.2017 -0.3122
  850MOL0     C14669   4.105   2.773  11.491  1.3032  0.5008  0.0057
  850MOL0     C14670   4.113   2.721  11.624 -0.3200 -0.8685  0.5521
  850MOL0     C14671   4.000   2.691  11.708  0.1603 -0.3816 -0.3315
  850MOL0     C14672   3.872   2.706  11.655  0.1400 -0.6525  0.0748
  850MOL0     O14673   3.776   2.666  11.746  0.2969 -0.1103  0.6408
  850MOL0     C14674   3.635   2.691  11.709 -0.4088 -0.3356  0.8957
  850MOL0     C14675   3.541   2.676  11.831 -0.6296 -0.6084 -0.1146
  850MOL0     C14676   3.414   2.754  11.812 -0.4541  0.3242 -0.4551
  850MOL0     C14677   3.334   2.759  11.951 -0.4306  0.7492  0.4860
  850MOL0     C14678   3.193   2.737  11.905 -0.2621  0.0265 -0.0606
  850MOL0     C14679   3.081   2.729  11.857 -0.6791  0.0887  0.4164
  850MOL0     C14680   3.854   2.745  11.519  0.2114 -0.6153 -0.4780
  850MOL0     C14681   3.972   2.786  11.442  0.3826 -0.5376 -0.7479
  850MOL0     C14682   3.944   2.848  11.302  0.2475  0.6799  0.2710
  850MOL0     H14683   4.578   2.672  11.589  0.0989 -0.4225 -0.3844
  850MOL0     H14684   4.804   2.760  11.546 -1.2253 -0.4810 -0.0117
  850MOL0     H14685   4.853   2.902  11.146 -1.0277 -2.4235  0.6819
  850MOL0     H14686   4.943   3.042  11.230  1.4774 -0.3886 -0.9923
  850MOL0     H14687   5.104   2.901  11.091 -0.8205  3.2730  0.8006
  850MOL0     H14688   5.062   2.770  11.196 -3.5011 -0.1734  2.6531
  850MOL0     H14689   5.161   2.881  11.385  0.5656  1.2662  1.3355
  850MOL0     H14690   5.155   3.045  11.316  0.5468 -0.0426  0.2829
  850MOL0     H14691   5.329   2.952  11.147 -0.4567  1.3049  1.0865
  850MOL0     H14692   5.388   2.970  11.310  1.9500  0.0807 -1.4340
  850MOL0     H14693   5.366   2.740  11.365  0.9186 -1.3736  0.6221
  850MOL0     H14694   5.291   2.686  11.215  0.2519  0.4607  0.0984
  850MOL0     H14695   5.521   2.637  11.211 -1.1902  0.7381  5.5971
  850MOL0     H14696   5.483   2.744  11.076 -1.2364  1.7493 -0.1021
  850MOL0     H14697   5.697   2.803  11.200 -1.5589 -0.4170 -1.1582
  850MOL0     H14698   5.598   2.885  11.332 -1.4030  1.7879  0.0180
  850MOL0     H14699   5.522   3.035  11.148  0.2239  0.1317 -1.2587
  850MOL0     H14700   5.698   3.041  11.167  0.3684 -1.6689  2.8016
  850MOL0     H14701   5.847   2.942  10.957  0.3625  1.0451  1.7313
  850MOL0     H14702   5.885   2.943  10.683 -0.1024 -1.7608 -1.1902
  850MOL0     H14703   5.747   2.861  10.599 -0.4401  0.5592 -1.4548
  850MOL0     H14704   5.696   3.052  10.504  0.7442 -0.3321 -0.8799
  850MOL0     H14705   5.707   3.153  10.631 -0.5114 -1.2275  1.5228
  850MOL0     H14706   5.879   3.178  10.419  2.4304 -0.7158 -1.0225
  850MOL0     H14707   5.945   3.029  10.482  3.3139  0.6541  1.0436
  850MOL0     H14708   5.997   3.161  10.689 -1.7536 -4.6613 -1.2636
  850MOL0     H14709   5.919   3.299  10.620  1.5442  0.4140  0.7891
  850MOL0     H14710   6.315   3.277  10.392 -1.3648 -0.3779  0.0175
  850MOL0     H14711   6.493   3.410  10.437  0.1558 -1.3774 -0.0463
  850MOL0     H14712   6.600   3.685  10.997 -1.5190  0.9988 -0.0236
  850MOL0     H14713   6.794   3.779  11.083 -1.2968 -2.4913 -1.0586
  850MOL0     H14714   7.102   4.091  10.951 -1.2814 -0.7147  1.1192
  850MOL0     H14715   6.996   4.085  10.809 -1.8068 -1.4581 -0.6324
  850MOL0     H14716   6.804   4.145  10.907  0.6105  2.4518 -0.5896
  850MOL0     H14717   6.850   4.116  11.075  0.0666  0.0677 -0.5568
  850MOL0     H14718   7.018   4.290  11.052 -0.3867  0.9620  1.2555
  850MOL0     H14719   6.948   4.327  10.893 -0.2008 -2.6390 -0.7608
  850MOL0     H14720   6.863   4.433  11.150  1.6365 -1.2371 -0.2154
  850MOL0     H14721   6.744   4.314  11.105  1.3638 -1.9543  0.5603
  850MOL0     H14722   6.679   4.532  11.022  1.4149  1.8990  0.0922
  850MOL0     H14723   6.706   4.435  10.882 -1.3863 -1.1226  0.9946
  850MOL0     H14724   6.926   4.610  11.001 -1.3321  0.4043  0.8260
  850MOL0     H14725   6.938   4.549  10.849 -0.8740  2.3880 -0.7665
  850MOL0     H14726   6.706   4.750  10.924  0.5642  0.0082  2.0576
  850MOL0     H14727   6.759   4.681  10.762  3.6796 -0.3819 -0.7856
  850MOL0     H14728   6.916   4.853  10.949 -1.2799  3.4784 -1.8430
  850MOL0     H14729   6.988   4.754  10.817  0.8192  1.2765  0.8595
  850MOL0     H14730   6.899   3.934  10.695  0.1988  1.2710  1.5947
  850MOL0     H14731   6.695   3.825  10.601  0.3568 -0.6859 -0.4989
  850MOL0     H14732   6.273   3.575  10.780 -2.4726  4.0241 -3.3388
  850MOL0     H14733   6.084   3.421  10.713 -1.1692 -0.0731 -1.5348
  850MOL0     H14734   4.645   2.965  11.204 -0.5636 -0.9874 -0.4432
  850MOL0     H14735   4.449   2.890  11.227 -1.7419 -4.1052 -0.7510
  850MOL0     H14736   4.213   2.696  11.660 -0.0280  1.1823  1.3063
  850MOL0     H14737   4.006   2.662  11.812  0.0704  3.3152  0.8258
  850MOL0     H14738   3.604   2.637  11.619  0.1092  0.0710  0.4687
  850MOL0     H14739   3.630   2.794  11.672  1.9145 -0.9503 -1.3857
  850MOL0     H14740   3.601   2.709  11.916 -0.1756 -1.3295 -0.1484
  850MOL0     H14741   3.519   2.575  11.866 -0.8677 -0.1815  0.9867
  850MOL0     H14742   3.348   2.717  11.733  0.3864 -0.2503 -0.8924
  850MOL0     H14743   3.434   2.857  11.783  1.8049 -0.4872 -2.0427
  850MOL0     H14744   3.364   2.678  12.018 -1.4941 -0.2965 -0.2516
  850MOL0     H14745   3.335   2.853  12.006 -2.0750 -0.5747  2.9948
  850MOL0     H14746   2.982   2.732  11.817 -0.8556 -0.6864  0.7786
  850MOL0     H14747   3.755   2.755  11.474  0.1623 -1.7682 -0.6675
  850MOL0     H14748   3.977   2.952  11.313  0.8198  0.7328 -1.6157
  850MOL0     H14749   3.992   2.795  11.220 -0.2024 -1.5289  1.3708
  850MOL0     H14750   3.836   2.855  11.289  0.0121 -2.1824  0.0659
  851MOL0     O14751   2.148   3.372   5.451 -0.1493  0.0570 -0.1701
  851MOL0     C14752   2.254   3.382   5.388  0.5042 -0.7462 -0.4845
  851MOL0     O14753   2.369   3.299   5.409  0.2034 -0.0543  0.1875
  851MOL0     C14754   2.330   3.184   5.478 -0.4931 -0.0813  0.4886
  851MOL0     C14755   2.373   3.168   5.612 -0.1152  0.6142  0.3651
  851MOL0     C14756   2.351   3.043   5.685  0.2777 -0.8270  0.8072
  851MOL0     C14757   2.324   2.932   5.617  1.0217  0.0514  0.4259
  851MOL0     O14758   2.327   2.805   5.678  0.1066  1.0507 -0.2515
  851MOL0     C14759   2.338   2.683   5.607 -0.7870  0.0830 -0.9902
  851MOL0     C14760   2.487   2.684   5.561  0.1026 -0.3190  0.2747
  851MOL0     C14761   2.518   2.551   5.486  0.4261 -0.9373  0.9595
  851MOL0     C14762   2.660   2.567   5.429 -0.1393 -0.4561  1.0026
  851MOL0     C14763   2.695   2.445   5.352 -0.6778  0.9861 -0.2669
  851MOL0     C14764   2.835   2.462   5.291 -0.3516 -0.3368 -0.0586
  851MOL0     C14765   2.954   2.443   5.395 -1.1954  0.3189 -1.0396
  851MOL0     C14766   3.098   2.473   5.336  0.5666  0.0416  0.1243
  851MOL0     N14767   3.162   2.364   5.257  0.0327  0.2023 -0.0835
  851MOL0     C14768   3.299   2.340   5.245  0.1315 -0.3293  0.4264
  851MOL0     C14769   3.307   2.276   5.131 -0.6863 -0.3501  0.6707
  851MOL0     C14770   3.436   2.212   5.071 -0.4102 -0.0408  0.5814
  851MOL0     C14771   3.563   2.205   5.157 -0.3924 -0.1577 -0.3934
  851MOL0     C14772   3.684   2.128   5.083  0.8458 -0.5293 -0.1594
  851MOL0     C14773   3.815   2.129   5.181 -0.4939  0.4816  0.3246
  851MOL0     O14774   3.870   2.255   5.152  0.2666 -0.0483 -0.0092
  851MOL0     C14775   4.014   2.248   5.151  0.1716 -0.3543 -0.6695
  851MOL0     C14776   4.099   2.175   5.066  0.5745  0.0599 -0.2420
  851MOL0     C14777   4.238   2.189   5.068  0.4305 -0.3830  0.0647
  851MOL0     C14778   4.302   2.276   5.161  0.9242 -0.3575  0.7467
  851MOL0     C14779   4.446   2.279   5.177  0.9138 -0.8577 -1.0120
  851MOL0     O14780   4.501   2.315   5.296  0.0349  0.0621 -0.1725
  851MOL0     C14781   4.637   2.298   5.296 -0.1801  0.8267 -0.8005
  851MOL0     C14782   4.705   2.182   5.348 -0.0427  0.3648 -0.3320
  851MOL0     C14783   4.843   2.179   5.346 -0.4319 -0.1601 -0.0783
  851MOL0     C14784   4.925   2.276   5.278  0.1645 -0.0764  0.4660
  851MOL0     O14785   5.063   2.272   5.284 -0.2703 -0.1152 -0.2304
  851MOL0     C14786   5.136   2.391   5.252  0.9586  0.9425 -0.4479
  851MOL0     C14787   5.284   2.389   5.291 -0.2858  0.1104  0.0160
  851MOL0     C14788   5.309   2.329   5.427 -0.2812 -0.5329 -0.4845
  851MOL0     C14789   5.458   2.317   5.471  0.6907  0.7818  0.0658
  851MOL0     C14790   5.547   2.246   5.370  0.2940 -0.5192  0.8025
  851MOL0     C14791   5.634   2.352   5.294  0.4322 -0.2428 -0.6054
  851MOL0     C14792   5.760   2.394   5.369 -0.5945  0.1245 -0.1390
  851MOL0     C14793   5.852   2.482   5.287  0.5846  0.3699  0.0698
  851MOL0    Cl14794   5.909   2.397   5.145 -0.6442  0.0499 -0.3032
  851MOL0     C14795   4.847   2.383   5.216  0.1418 -0.1336 -0.1856
  851MOL0     C14796   4.710   2.402   5.238  0.3548 -0.0867  0.0049
  851MOL0     O14797   4.505   2.234   5.082  0.1483 -0.7860 -0.4556
  851MOL0     C14798   4.222   2.337   5.253 -0.1109  0.7108 -0.2742
  851MOL0     C14799   4.078   2.330   5.247 -0.8984  0.0784  0.1306
  851MOL0     N14800   3.181   2.258   5.079  0.1630  0.1656 -0.0212
  851MOL0     N14801   3.092   2.319   5.150 -0.0465  0.2769  0.4599
  851MOL0     C14802   2.291   2.943   5.482 -0.5581  0.4248  0.9353
  851MOL0     C14803   2.293   3.062   5.404  0.2413  0.6575  0.6008
  851MOL0     C14804   2.266   3.501   5.294 -1.1070  0.2202  0.0796
  851MOL0     C14805   2.161   3.595   5.293 -0.2118 -0.2282  0.2423
  851MOL0     C14806   2.160   3.697   5.198  0.4232  0.1462  0.8666
  851MOL0     C14807   2.260   3.713   5.109 -0.2026 -0.0051  0.0870
  851MOL0     O14808   2.233   3.809   5.006 -0.3464 -0.1063 -0.0434
  851MOL0     C14809   2.336   3.851   4.916  0.0378 -0.2914 -0.2188
  851MOL0     C14810   2.447   3.929   4.986 -0.3924  0.7139 -0.2540
  851MOL0     C14811   2.556   3.988   4.898 -0.3561 -0.3803  0.3022
  851MOL0     C14812   2.524   4.127   4.845  0.6046  0.1131  0.9823
  851MOL0     C14813   2.531   4.218   4.957 -0.2667 -0.1168  0.2120
  851MOL0     C14814   2.542   4.298   5.046  0.5503  0.5576 -0.1734
  851MOL0     C14815   2.367   3.629   5.113 -0.2091 -0.5830 -0.0975
  851MOL0     C14816   2.368   3.522   5.203 -0.8675  0.5614  0.2234
  851MOL0     C14817   2.504   3.443   5.212  0.7829  0.1144 -0.3094
  851MOL0     H14818   2.411   3.258   5.659 -0.1148  0.2192  1.1315
  851MOL0     H14819   2.387   3.025   5.786  0.1478 -1.0299  0.8196
  851MOL0     H14820   2.316   2.595   5.668 -1.1622 -0.5150 -1.9546
  851MOL0     H14821   2.274   2.673   5.519  0.7912  2.5055 -2.5213
  851MOL0     H14822   2.555   2.689   5.646  0.2654 -1.3786  0.2202
  851MOL0     H14823   2.504   2.772   5.498 -4.4563  1.9890  1.8404
  851MOL0     H14824   2.449   2.542   5.402  0.7823 -0.8454  0.6515
  851MOL0     H14825   2.514   2.463   5.551 -2.1021 -2.0384 -0.5255
  851MOL0     H14826   2.657   2.660   5.370  0.4812 -0.3050  1.2028
  851MOL0     H14827   2.733   2.578   5.510  1.6472  0.0708 -0.6072
  851MOL0     H14828   2.687   2.350   5.406 -0.6785 -0.1625 -2.1979
  851MOL0     H14829   2.635   2.421   5.265 -0.7641 -4.7943  0.9928
  851MOL0     H14830   2.845   2.382   5.217  1.6597 -0.9809  0.8328
  851MOL0     H14831   2.847   2.560   5.243 -0.4539  0.2475  1.0676
  851MOL0     H14832   2.950   2.341   5.433 -1.8645  0.2096 -1.3925
  851MOL0     H14833   2.937   2.512   5.479  0.6534 -0.6050  0.1606
  851MOL0     H14834   3.100   2.566   5.279  0.6563 -0.5564 -0.8663
  851MOL0     H14835   3.162   2.485   5.423 -0.4221  0.0253  0.8763
  851MOL0     H14836   3.389   2.355   5.303  2.5737 -3.6941 -2.1280
  851MOL0     H14837   3.413   2.109   5.044  0.3500 -0.2307  0.6424
  851MOL0     H14838   3.453   2.272   4.981  0.7724 -0.2171  0.6700
  851MOL0     H14839   3.599   2.308   5.166  0.9219 -0.7121  1.3399
  851MOL0     H14840   3.524   2.165   5.251 -3.9773  1.7923 -0.8911
  851MOL0     H14841   3.708   2.163   4.983  0.0964 -1.6061 -0.7380
  851MOL0     H14842   3.643   2.027   5.070  0.0950 -0.1349 -0.9555
  851MOL0     H14843   3.879   2.047   5.147  0.9150  1.4144  0.6035
  851MOL0     H14844   3.793   2.111   5.286 -3.0173  1.3663  0.0023
  851MOL0     H14845   4.044   2.109   5.000  3.6055 -1.9500 -0.9730
  851MOL0     H14846   4.298   2.124   5.005  3.1568  1.6869  0.3815
  851MOL0     H14847   4.652   2.100   5.396 -2.5516  2.4472  0.6525
  851MOL0     H14848   4.887   2.092   5.394 -0.2684 -0.6741 -1.1397
  851MOL0     H14849   5.133   2.413   5.145  1.8135 -1.8012 -1.1174
  851MOL0     H14850   5.094   2.483   5.294  0.0488 -0.3466  1.6267
  851MOL0     H14851   5.336   2.339   5.209  0.1791  0.8305 -0.1325
  851MOL0     H14852   5.315   2.494   5.295 -1.2721  0.3959  3.2320
  851MOL0     H14853   5.268   2.398   5.502  0.7405  0.0091 -0.4057
  851MOL0     H14854   5.255   2.234   5.425 -0.1057 -0.6833  0.8740
  851MOL0     H14855   5.456   2.268   5.568  0.8776 -1.0692 -0.8263
  851MOL0     H14856   5.497   2.419   5.482  0.5568  0.9196 -0.6611
  851MOL0     H14857   5.498   2.180   5.298  2.4704 -1.5485  0.1984
  851MOL0     H14858   5.618   2.183   5.423  0.8450 -0.6083 -0.0364
  851MOL0     H14859   5.666   2.289   5.210  0.9712 -1.2884  0.3631
  851MOL0     H14860   5.584   2.441   5.253 -0.4250  0.8238  2.5066
  851MOL0     H14861   5.816   2.312   5.414 -1.8564 -0.2863  0.7365
  851MOL0     H14862   5.725   2.433   5.465 -4.3422 -3.4241  0.1967
  851MOL0     H14863   5.807   2.575   5.251  2.9866  0.2975 -3.6540
  851MOL0     H14864   5.944   2.502   5.342  1.7048  0.8922 -1.8986
  851MOL0     H14865   4.894   2.467   5.166  1.3847  0.1355  1.3839
  851MOL0     H14866   4.649   2.480   5.194 -1.0298 -1.2023 -0.1486
  851MOL0     H14867   4.273   2.410   5.315  0.5895  0.8034 -0.9461
  851MOL0     H14868   4.012   2.372   5.322 -2.4271 -0.4929 -0.8286
  851MOL0     H14869   2.287   2.850   5.427 -1.2389  0.7645  0.3808
  851MOL0     H14870   2.281   3.048   5.297 -0.9352  3.5280  0.2470
  851MOL0     H14871   2.068   3.596   5.348 -0.8593  1.1200 -0.7929
  851MOL0     H14872   2.082   3.773   5.200  0.5493  0.2920  0.3288
  851MOL0     H14873   2.283   3.920   4.850 -1.0136  1.3241  2.1471
  851MOL0     H14874   2.366   3.769   4.851 -0.1736 -1.2184  0.8210
  851MOL0     H14875   2.503   3.854   5.042 -0.5249 -0.6536 -1.8614
  851MOL0     H14876   2.407   4.007   5.052 -0.8226 -0.3986  0.8234
  851MOL0     H14877   2.578   3.922   4.813  1.1667  1.7713 -1.0792
  851MOL0     H14878   2.649   4.010   4.951 -0.0988 -0.5404 -0.0798
  851MOL0     H14879   2.595   4.165   4.771 -1.2704  1.2216 -0.3608
  851MOL0     H14880   2.426   4.132   4.797  1.3040 -1.6038 -0.7445
  851MOL0     H14881   2.582   4.380   5.102 -0.6346  1.7532 -1.0096
  851MOL0     H14882   2.458   3.652   5.060 -1.4973  0.1596 -2.0992
  851MOL0     H14883   2.587   3.472   5.147  1.2754 -0.9957 -0.1921
  851MOL0     H14884   2.542   3.472   5.311 -6.0669  4.4240  1.8211
  851MOL0     H14885   2.498   3.335   5.198  3.2646 -0.3548  1.4853
  852MOL0     O14886   8.376   3.348   9.946  0.3005 -0.5179 -0.4203
  852MOL0     C14887   8.351   3.246   9.885  0.4330  0.1332  0.5911
  852MOL0     O14888   8.443   3.165   9.822  0.3203  0.0336  0.2891
  852MOL0     C14889   8.574   3.209   9.815  0.6648 -0.6404 -0.4965
  852MOL0     C14890   8.657   3.221   9.930  1.1255 -0.5131 -0.1762
  852MOL0     C14891   8.794   3.249   9.919  0.8322  0.5640  0.0506
  852MOL0     C14892   8.852   3.259   9.795 -0.0702 -0.6554  0.2816
  852MOL0     O14893   8.989   3.283   9.787 -0.0417 -0.5573  0.1755
  852MOL0     C14894   9.061   3.235   9.678  0.1115  0.8130  0.3544
  852MOL0     C14895   9.062   3.357   9.584 -0.2771 -0.6985 -0.0372
  852MOL0     C14896   9.095   3.325   9.429  1.0342  0.4524  0.0950
  852MOL0     C14897   9.232   3.251   9.411 -0.2212 -0.3001 -0.2268
  852MOL0     C14898   9.279   3.243   9.269  0.8379  0.0576  0.2262
  852MOL0     C14899   9.432   3.256   9.256 -0.6286  0.0407 -0.4235
  852MOL0     C14900   9.491   3.124   9.315 -0.3894 -0.0374  0.0237
  852MOL0     C14901   9.636   3.121   9.293  0.2783  0.3487  0.6989
  852MOL0     N14902   9.735   3.186   9.383  0.5486  0.1334 -0.4716
  852MOL0     C14903   9.741   3.164   9.523  0.5847 -1.8554 -0.4333
  852MOL0     C14904   9.853   3.227   9.572 -0.5766 -0.5518 -0.3641
  852MOL0     C14905   9.890   3.222   9.715 -0.4741  0.1723 -0.4681
  852MOL0     C14906   9.922   3.355   9.791 -0.4667 -0.3486  0.2590
  852MOL0     C14907  10.076   3.397   9.780 -0.2023  0.5847  1.4974
  852MOL0     C14908  10.111   3.492   9.880 -0.0900 -0.2190 -0.4001
  852MOL0     O14909  10.254   3.531   9.868  0.0584  0.2322  0.0120
  852MOL0     C14910  10.326   3.526   9.984 -0.6039 -1.1126 -0.1007
  852MOL0     C14911  10.383   3.637  10.039 -0.5185 -0.7588  0.5255
  852MOL0     C14912  10.459   3.631  10.158  0.2733  0.4642 -0.0451
  852MOL0     C14913  10.490   3.508  10.224  0.3155 -0.2961  0.6282
  852MOL0     C14914  10.587   3.506  10.344  0.5433  1.3322  0.8231
  852MOL0     O14915  10.627   3.386  10.376  0.3084  0.2170 -0.0633
  852MOL0     C14916  10.728   3.386  10.476  0.5197  0.3089 -0.1865
  852MOL0     C14917  10.847   3.458  10.488  0.4384  0.9302 -1.0776
  852MOL0     C14918  10.936   3.439  10.595 -0.2959 -0.0933 -0.5873
  852MOL0     C14919  10.906   3.356  10.706  0.8703  0.2811  0.8910
  852MOL0     O14920  10.982   3.321  10.821  0.3231  0.2911 -0.5749
  852MOL0     C14921  11.118   3.376  10.814  0.5322 -0.5287  0.0569
  852MOL0     C14922  11.177   3.353  10.950 -0.7548 -0.1110 -0.6151
  852MOL0     C14923  11.314   3.422  10.958 -0.7022  0.5004 -0.6637
  852MOL0     C14924  11.396   3.384  11.085 -0.3121 -0.1157  0.3191
  852MOL0     C14925  11.538   3.446  11.086 -0.6015  0.0180 -0.0806
  852MOL0     C14926  11.535   3.603  11.072 -0.0047 -0.9148 -0.0658
  852MOL0     C14927  11.664   3.680  11.101  0.4048  0.5169  0.8431
  852MOL0     C14928  11.637   3.825  11.114  1.1534 -0.2397  0.5767
  852MOL0    Cl14929  11.588   3.895  10.963  0.2883 -0.1268 -0.2324
  852MOL0     C14930  10.783   3.283  10.692 -0.9503 -0.0605 -0.0757
  852MOL0     C14931  10.698   3.294  10.581 -0.4087  0.2129  0.5585
  852MOL0     O14932  10.605   3.608  10.408 -0.1839 -0.0618  0.0759
  852MOL0     C14933  10.435   3.392  10.160 -1.1114  0.6089 -0.5157
  852MOL0     C14934  10.359   3.403  10.045  0.4378  0.0902  0.2167
  852MOL0     N14935   9.909   3.300   9.471 -0.1752 -0.2227  0.2472
  852MOL0     N14936   9.848   3.263   9.354  0.2614  0.2481 -0.0650
  852MOL0     C14937   8.769   3.240   9.681  0.0355 -0.0155 -0.0641
  852MOL0     C14938   8.639   3.214   9.695  0.5054  0.5482  0.2894
  852MOL0     C14939   8.210   3.189   9.888 -0.2691  0.6827 -0.8736
  852MOL0     C14940   8.176   3.084   9.975  0.1805 -0.1299 -0.0629
  852MOL0     C14941   8.042   3.042   9.992  0.0521  0.4157  0.0987
  852MOL0     C14942   7.946   3.096   9.910 -0.1296 -0.4124 -0.6666
  852MOL0     O14943   7.820   3.051   9.923  0.2396 -0.2360  0.4739
  852MOL0     C14944   7.735   3.137   9.993 -0.7101  0.4042 -0.8829
  852MOL0     C14945   7.593   3.095   9.961 -0.6162 -0.0362 -0.0849
  852MOL0     C14946   7.558   3.059   9.818  0.6221  0.8695  0.8372
  852MOL0     C14947   7.405   3.038   9.806  0.2582  1.0050 -0.0163
  852MOL0     C14948   7.375   3.006   9.671  0.5884 -0.6952  0.8576
  852MOL0     C14949   7.351   2.971   9.559 -0.5041 -0.7292  0.5133
  852MOL0     C14950   7.974   3.202   9.827  0.0250 -0.2374  0.5309
  852MOL0     C14951   8.107   3.249   9.817 -0.3713 -0.6077 -0.3792
  852MOL0     C14952   8.128   3.378   9.741 -0.0232 -0.4682  0.1322
  852MOL0     H14953   8.624   3.197  10.031  2.6218 -1.5535  0.0985
  852MOL0     H14954   8.863   3.249  10.003 -0.0818  1.5307  0.8335
  852MOL0     H14955   9.164   3.220   9.711  0.1844  3.1099  1.4090
  852MOL0     H14956   9.017   3.152   9.622 -0.8369  1.4718  0.0939
  852MOL0     H14957   9.140   3.426   9.618 -0.3767  1.1310 -3.1367
  852MOL0     H14958   8.965   3.404   9.600  0.2332 -0.2076  1.8782
  852MOL0     H14959   9.094   3.412   9.363  2.1409  1.4491  1.3355
  852MOL0     H14960   9.019   3.254   9.396  2.6938 -0.9289 -0.8960
  852MOL0     H14961   9.315   3.297   9.465 -0.5908  0.4769 -0.3132
  852MOL0     H14962   9.220   3.149   9.449  2.6847 -0.5751  0.1952
  852MOL0     H14963   9.235   3.154   9.223  2.6993 -0.2464 -1.0641
  852MOL0     H14964   9.232   3.327   9.216 -1.9472 -2.1718 -1.1409
  852MOL0     H14965   9.453   3.258   9.149  0.7946  2.0462 -0.1795
  852MOL0     H14966   9.479   3.343   9.304  0.9101 -2.4397  2.9921
  852MOL0     H14967   9.436   3.041   9.271 -2.3483  0.4327  1.4857
  852MOL0     H14968   9.462   3.114   9.420  1.1854  0.5189  0.5564
  852MOL0     H14969   9.669   3.016   9.297 -0.4165  0.1624  1.9314
  852MOL0     H14970   9.656   3.158   9.192 -2.6076  0.3496  0.0387
  852MOL0     H14971   9.676   3.100   9.583  1.8115 -1.5657  1.2618
  852MOL0     H14972   9.818   3.168   9.777 -1.7023  1.5271 -0.6559
  852MOL0     H14973   9.978   3.157   9.722 -2.2673 -2.6969 -2.3015
  852MOL0     H14974   9.861   3.444   9.776 -0.5655 -0.1357  1.7175
  852MOL0     H14975   9.908   3.332   9.897  1.2563 -0.7269  0.4399
  852MOL0     H14976  10.086   3.439   9.679 -0.1746 -1.5455  0.5666
  852MOL0     H14977  10.136   3.307   9.791  0.7198  1.1649  1.3503
  852MOL0     H14978  10.104   3.436   9.973 -0.4411 -2.8526 -1.9164
  852MOL0     H14979  10.041   3.576   9.878 -0.8383 -0.6506  2.6470
  852MOL0     H14980  10.379   3.729   9.982 -1.3257  0.5758  2.6418
  852MOL0     H14981  10.497   3.729  10.186  2.2780 -0.2141 -0.2305
  852MOL0     H14982  10.873   3.536  10.417 -0.8869  2.9175  0.4827
  852MOL0     H14983  11.032   3.489  10.592 -1.3964  2.2036  0.0844
  852MOL0     H14984  11.181   3.330  10.738  1.9149  0.6364  0.4593
  852MOL0     H14985  11.110   3.484  10.803 -4.0113 -0.8606 -2.1923
  852MOL0     H14986  11.114   3.394  11.030  1.1165 -2.3356  2.2598
  852MOL0     H14987  11.182   3.247  10.979 -2.3423 -0.4026 -1.3038
  852MOL0     H14988  11.367   3.377  10.873 -1.2388 -1.0044 -0.2361
  852MOL0     H14989  11.309   3.528  10.935 -2.2386  0.8981  1.2718
  852MOL0     H14990  11.410   3.276  11.091  1.5954  0.1671  2.1326
  852MOL0     H14991  11.341   3.423  11.171  0.3290  0.8775  0.2986
  852MOL0     H14992  11.606   3.412  11.008  0.6434 -2.1654  1.8144
  852MOL0     H14993  11.585   3.423  11.183 -2.8279  0.0067  1.0580
  852MOL0     H14994  11.506   3.629  10.970 -0.6816  1.9656  0.7729
  852MOL0     H14995  11.458   3.640  11.141  2.6349 -0.6627  2.9884
  852MOL0     H14996  11.743   3.651  11.031 -0.5356 -0.5081  0.1791
  852MOL0     H14997  11.685   3.640  11.201 -3.6662 -0.8844  1.3310
  852MOL0     H14998  11.563   3.837  11.193  1.2749 -1.1047  0.8316
  852MOL0     H14999  11.735   3.856  11.151  2.6304 -1.5659 -1.9292
  852MOL0     H15000  10.765   3.211  10.771  0.9163  0.3223  0.7619
  852MOL0     H15001  10.612   3.228  10.589  0.0431 -0.1661  2.9761
  852MOL0     H15002  10.464   3.291  10.187  0.3743  1.4522  1.3174
  852MOL0     H15003  10.305   3.314  10.013  0.0679  0.8877 -1.4761
  852MOL0     H15004   8.825   3.228   9.588 -0.1364 -1.7650  0.0238
  852MOL0     H15005   8.577   3.199   9.607  1.2817 -2.4601  0.1270
  852MOL0     H15006   8.251   3.028  10.029 -0.6732  0.4829  1.8583
  852MOL0     H15007   8.011   2.967  10.065 -1.7196  0.1444 -0.8860
  852MOL0     H15008   7.744   3.241   9.960 -0.8043  0.4751 -0.6866
  852MOL0     H15009   7.755   3.141  10.101 -1.7272 -0.2348 -0.6466
  852MOL0     H15010   7.527   3.175   9.999 -1.3685 -1.2931  1.3508
  852MOL0     H15011   7.586   3.006  10.023  3.0130  1.7066  3.2651
  852MOL0     H15012   7.604   2.967   9.781 -0.0756  2.3031 -4.2912
  852MOL0     H15013   7.586   3.138   9.748  0.2501  1.4974  1.3917
  852MOL0     H15014   7.372   2.954   9.869 -1.8202  0.6427 -1.4877
  852MOL0     H15015   7.363   3.132   9.841 -1.3616  1.0433 -1.8943
  852MOL0     H15016   7.330   2.946   9.457  1.1310 -0.3299  0.0485
  852MOL0     H15017   7.896   3.252   9.772 -0.7947 -2.4601 -0.4152
  852MOL0     H15018   8.127   3.469   9.801 -1.9467  0.0259 -0.5541
  852MOL0     H15019   8.220   3.374   9.682  0.2494 -5.6977  0.4010
  852MOL0     H15020   8.043   3.396   9.674  0.6701  1.5272 -0.2772
  853MOL0     O15021   3.714   6.084   6.101  0.4916 -0.4541 -0.1820
  853MOL0     C15022   3.722   6.086   5.973 -0.0339  0.1204 -0.2022
  853MOL0     O15023   3.831   6.049   5.896  0.0369  0.3120 -0.5034
  853MOL0     C15024   3.938   6.011   5.968  0.2247  0.4432  0.4398
  853MOL0     C15025   4.057   6.066   5.923  0.5716  0.4609 -0.8985
  853MOL0     C15026   4.178   6.004   5.959 -0.0365  0.2715 -0.4215
  853MOL0     C15027   4.180   5.903   6.057  0.0618 -0.5325 -0.8098
  853MOL0     O15028   4.300   5.869   6.103 -0.2395 -0.1249 -0.0069
  853MOL0     C15029   4.336   5.871   6.245  0.1484 -0.4952  0.6550
  853MOL0     C15030   4.466   5.956   6.264  0.1965 -0.4259 -0.0025
  853MOL0     C15031   4.490   5.981   6.409  0.6553  0.0953 -0.2088
  853MOL0     C15032   4.622   6.051   6.447 -0.2638  0.1991 -1.3096
  853MOL0     C15033   4.627   6.100   6.593  0.2529  0.6445  0.2340
  853MOL0     C15034   4.691   5.991   6.679  0.1764  0.4992 -0.5994
  853MOL0     C15035   4.752   6.053   6.809 -0.2486  0.9983 -0.3968
  853MOL0     C15036   4.904   6.067   6.784 -0.1817  0.4313  0.4848
  853MOL0     N15037   4.962   5.930   6.785 -0.3368  1.0028  0.2512
  853MOL0     C15038   5.028   5.862   6.894  0.0742  0.4328 -0.4193
  853MOL0     C15039   5.092   5.754   6.845 -0.0405  0.0957  0.3637
  853MOL0     C15040   5.174   5.658   6.924  0.2635  0.7183 -0.8601
  853MOL0     C15041   5.323   5.671   6.892  1.0702  0.4398 -0.0137
  853MOL0     C15042   5.407   5.557   6.970  0.3717 -0.0265  0.6018
  853MOL0     C15043   5.553   5.552   6.926  0.8622  0.2990  0.2147
  853MOL0     O15044   5.602   5.671   6.995  0.2472  0.0788  0.0788
  853MOL0     C15045   5.736   5.691   7.022 -0.4766 -0.4676 -0.2846
  853MOL0     C15046   5.764   5.817   7.075  0.0254  0.6667  0.8562
  853MOL0     C15047   5.895   5.850   7.093  0.3755 -0.1551 -0.0667
  853MOL0     C15048   6.001   5.764   7.064 -0.4591 -0.5649 -0.0839
  853MOL0     C15049   6.137   5.807   7.100  0.0697  0.2694 -0.1825
  853MOL0     O15050   6.233   5.706   7.096  0.1358 -0.1345  0.8994
  853MOL0     C15051   6.342   5.727   7.176 -0.4773  0.1960 -0.3430
  853MOL0     C15052   6.342   5.729   7.320  0.8069  0.5568  0.4631
  853MOL0     C15053   6.465   5.731   7.389  0.0893 -0.7982 -0.9208
  853MOL0     C15054   6.592   5.741   7.322  0.4272  0.5723 -0.3994
  853MOL0     O15055   6.708   5.718   7.390  0.5610 -0.1887  0.0596
  853MOL0     C15056   6.832   5.785   7.351 -0.2074  0.8483 -1.0862
  853MOL0     C15057   6.919   5.700   7.262 -0.0446  0.4683 -0.2146
  853MOL0     C15058   6.975   5.573   7.327  0.4474  0.3147 -0.9844
  853MOL0     C15059   7.075   5.608   7.438  0.0661 -0.2900  0.4501
  853MOL0     C15060   7.143   5.476   7.476 -0.9422 -0.2178 -0.1203
  853MOL0     C15061   7.066   5.366   7.555  0.3896 -0.4342 -0.1544
  853MOL0     C15062   7.168   5.283   7.630  0.6453 -1.5091 -0.3035
  853MOL0     C15063   7.104   5.157   7.688 -0.2858 -0.7512  0.3584
  853MOL0    Cl15064   7.013   5.199   7.837  0.2670  0.4660 -0.2248
  853MOL0     C15065   6.587   5.747   7.180  0.2398 -0.1142  0.2334
  853MOL0     C15066   6.465   5.734   7.111 -0.0183  0.0190  0.3930
  853MOL0     O15067   6.164   5.920   7.141 -0.1054  0.6760 -0.9100
  853MOL0     C15068   5.977   5.639   7.009 -0.2733 -0.5165 -0.3922
  853MOL0     C15069   5.842   5.598   6.988  1.1607 -0.3832  0.4046
  853MOL0     N15070   5.067   5.755   6.709 -0.4722 -0.2572  0.3638
  853MOL0     N15071   4.994   5.856   6.672  0.5195  0.2875  0.4334
  853MOL0     C15072   4.061   5.848   6.099  0.3545  0.3645 -0.8446
  853MOL0     C15073   3.937   5.899   6.048 -0.7315  0.7201  0.6241
  853MOL0     C15074   3.593   6.110   5.900  1.4714  0.4025  0.1631
  853MOL0     C15075   3.488   6.173   5.979 -0.7765 -0.2477 -0.2041
  853MOL0     C15076   3.361   6.187   5.916 -0.0496  0.7563 -0.0132
  853MOL0     C15077   3.331   6.152   5.787  0.5736  0.1022 -0.4460
  853MOL0     O15078   3.211   6.183   5.738 -0.5573  0.1774 -0.5131
  853MOL0     C15079   3.142   6.079   5.679 -0.3209  1.0734 -0.1152
  853MOL0     C15080   3.029   6.136   5.593  0.0017 -0.9023 -0.2827
  853MOL0     C15081   2.946   6.033   5.516 -0.1059  0.0956  0.5952
  853MOL0     C15082   2.824   6.108   5.445  0.6670 -1.2608  0.3344
  853MOL0     C15083   2.742   6.004   5.375 -0.7566  0.1303  0.6681
  853MOL0     C15084   2.691   5.911   5.313  0.1700  0.8989 -0.1903
  853MOL0     C15085   3.432   6.104   5.708 -0.1937  1.0743  0.5424
  853MOL0     C15086   3.561   6.074   5.761  0.2717 -0.0225  0.2895
  853MOL0     C15087   3.668   6.034   5.665 -0.8562  1.2083 -0.0433
  853MOL0     H15088   4.047   6.155   5.862 -3.7133 -0.2050 -1.5526
  853MOL0     H15089   4.263   6.055   5.915 -0.2171 -2.4409 -4.5359
  853MOL0     H15090   4.250   5.910   6.300 -0.5233 -0.6613 -0.2627
  853MOL0     H15091   4.361   5.771   6.283 -0.4687 -0.9924 -0.2059
  853MOL0     H15092   4.447   6.057   6.225  1.3033  0.0717  0.6914
  853MOL0     H15093   4.557   5.924   6.213  1.2396  0.2226  1.3884
  853MOL0     H15094   4.487   5.878   6.445 -1.8194 -0.6188 -2.1775
  853MOL0     H15095   4.402   6.026   6.455 -0.2767 -2.5557  0.8139
  853MOL0     H15096   4.697   5.975   6.420 -1.3721 -1.2758 -0.3772
  853MOL0     H15097   4.628   6.139   6.382 -0.5697  0.9905 -0.2914
  853MOL0     H15098   4.678   6.196   6.597 -0.4795  0.9945  2.5262
  853MOL0     H15099   4.531   6.125   6.638  2.0864 -0.3238  5.3938
  853MOL0     H15100   4.617   5.917   6.710  0.4836  0.2474 -0.4663
  853MOL0     H15101   4.759   5.940   6.611  1.6537  0.5657  0.7611
  853MOL0     H15102   4.733   5.993   6.898 -0.1372  1.6641  0.0825
  853MOL0     H15103   4.717   6.155   6.830  3.7302  2.6102 -0.7061
  853MOL0     H15104   4.924   6.117   6.689 -2.3974  0.3940 -0.0655
  853MOL0     H15105   4.956   6.119   6.865  0.1034 -1.1806  1.3925
  853MOL0     H15106   5.018   5.890   6.999 -1.6227 -1.9006  0.1168
  853MOL0     H15107   5.145   5.680   7.027 -0.5643  2.0160 -1.3519
  853MOL0     H15108   5.143   5.557   6.895  2.5111 -0.2380 -0.1714
  853MOL0     H15109   5.337   5.652   6.785 -0.2154 -6.8196  0.5429
  853MOL0     H15110   5.345   5.769   6.934  1.0097 -0.3428  1.9257
  853MOL0     H15111   5.368   5.462   6.933  3.5895  0.5755 -5.7971
  853MOL0     H15112   5.403   5.566   7.079 -0.8244  0.0321  0.5599
  853MOL0     H15113   5.563   5.567   6.818  3.2591  3.7338  0.7278
  853MOL0     H15114   5.593   5.455   6.958  1.9038  0.3925 -0.7392
  853MOL0     H15115   5.681   5.885   7.094  2.1685  3.3694  1.2031
  853MOL0     H15116   5.910   5.945   7.144  1.4514  0.2441 -1.0762
  853MOL0     H15117   6.244   5.733   7.368  1.0654  1.7325  0.9194
  853MOL0     H15118   6.467   5.733   7.498 -3.6962 -3.7040 -0.6042
  853MOL0     H15119   6.814   5.875   7.291 -0.2329  0.4270 -1.7073
  853MOL0     H15120   6.873   5.817   7.448 -0.0890  1.1135 -1.2216
  853MOL0     H15121   6.849   5.679   7.180 -0.9806 -1.7346  1.0794
  853MOL0     H15122   7.003   5.764   7.233 -1.1352  2.6919  1.2985
  853MOL0     H15123   6.891   5.517   7.371 -1.1375  3.1104 -0.2299
  853MOL0     H15124   7.028   5.515   7.251 -0.6270  0.3151 -1.7650
  853MOL0     H15125   7.015   5.643   7.522 -1.6665 -0.1772 -0.7780
  853MOL0     H15126   7.138   5.690   7.401  0.1784  0.9325  3.1178
  853MOL0     H15127   7.225   5.502   7.543 -1.1248 -0.7804  0.3261
  853MOL0     H15128   7.196   5.440   7.387  1.1274  0.4578  0.7907
  853MOL0     H15129   6.997   5.418   7.623  0.9863  0.6052 -0.3220
  853MOL0     H15130   7.004   5.308   7.487 -3.1897  1.6153  1.0615
  853MOL0     H15131   7.196   5.350   7.712 -2.9712  0.0620 -0.1704
  853MOL0     H15132   7.248   5.247   7.565  1.0591 -1.0575 -0.0500
  853MOL0     H15133   7.029   5.109   7.623 -2.1581  0.1117  1.7776
  853MOL0     H15134   7.184   5.082   7.697  1.8113  1.2698 -0.5846
  853MOL0     H15135   6.679   5.748   7.123 -0.4919  0.3196 -0.9903
  853MOL0     H15136   6.450   5.721   7.004 -3.2441  0.3405  0.7198
  853MOL0     H15137   6.056   5.569   6.985 -1.2158 -2.5505  2.0526
  853MOL0     H15138   5.830   5.499   6.946 -1.4286  0.8573 -2.1938
  853MOL0     H15139   4.051   5.763   6.166  0.7600 -1.2430 -2.7418
  853MOL0     H15140   3.848   5.849   6.085 -0.5631 -0.4326 -0.4581
  853MOL0     H15141   3.511   6.207   6.080 -2.1410  0.9840 -0.2873
  853MOL0     H15142   3.279   6.221   5.978  0.9336 -0.1090  1.8189
  853MOL0     H15143   3.103   6.017   5.760  1.6748 -4.0769 -2.6531
  853MOL0     H15144   3.203   6.013   5.617 -2.9997 -0.0560 -1.7089
  853MOL0     H15145   3.076   6.199   5.517 -1.1517 -2.6585 -2.5836
  853MOL0     H15146   2.970   6.196   5.662  2.4186  1.0915  0.2148
  853MOL0     H15147   2.912   5.962   5.591  0.2706 -0.6756  0.0504
  853MOL0     H15148   3.019   5.986   5.449 -1.2545 -0.7237 -0.1041
  853MOL0     H15149   2.757   6.142   5.525 -1.9834  2.0456 -2.9765
  853MOL0     H15150   2.859   6.181   5.372 -1.5597 -1.4444 -1.0267
  853MOL0     H15151   2.635   5.834   5.263  0.8489  1.6236 -2.1342
  853MOL0     H15152   3.414   6.087   5.602 -1.1417 -1.5533  1.0455
  853MOL0     H15153   3.636   6.000   5.566  0.2324  1.8470 -0.6237
  853MOL0     H15154   3.731   6.120   5.646  0.2552  0.1055 -1.5615
  853MOL0     H15155   3.720   5.954   5.719 -3.9153 -0.5382  0.5735
  854MOL0     O15156   9.693   2.335   8.040  1.0147 -0.0663  0.0158
  854MOL0     C15157   9.716   2.315   8.160  1.1237  0.1966 -0.3292
  854MOL0     O15158   9.637   2.230   8.241 -0.3997  0.3339 -0.5481
  854MOL0     C15159   9.525   2.177   8.174 -0.8113 -1.0989 -0.0967
  854MOL0     C15160   9.507   2.042   8.187  0.6186 -0.0185  1.0194
  854MOL0     C15161   9.394   1.972   8.156  0.1052  0.6874  0.2487
  854MOL0     C15162   9.284   2.041   8.102 -0.3448  0.4142 -0.2671
  854MOL0     O15163   9.169   1.969   8.061 -0.5583 -0.6254  0.3089
  854MOL0     C15164   9.071   2.035   7.973  0.2778  0.4943 -0.2448
  854MOL0     C15165   8.954   1.926   7.965 -0.6991  0.1640 -0.1067
  854MOL0     C15166   8.836   1.994   7.906  0.7776  0.8133  0.6524
  854MOL0     C15167   8.711   1.898   7.910  0.1105 -0.5138 -0.0865
  854MOL0     C15168   8.600   1.970   7.824 -0.4937  0.0842 -0.3663
  854MOL0     C15169   8.489   1.878   7.803 -0.3883 -0.1499  0.3284
  854MOL0     C15170   8.418   1.913   7.673 -0.2681  0.3566  0.3157
  854MOL0     C15171   8.291   1.837   7.656 -0.6296  0.3164 -0.5521
  854MOL0     N15172   8.302   1.697   7.613  0.1270  0.1106 -0.6871
  854MOL0     C15173   8.195   1.619   7.585  0.4721  0.6429 -0.6910
  854MOL0     C15174   8.252   1.520   7.517 -0.7047  0.6309 -0.0140
  854MOL0     C15175   8.167   1.416   7.449 -0.1713  0.3984  0.3077
  854MOL0     C15176   8.217   1.266   7.459 -0.3860  0.3315  0.0623
  854MOL0     C15177   8.180   1.221   7.605 -0.0570  1.0620 -0.8163
  854MOL0     C15178   8.199   1.073   7.629 -0.4586 -0.9590 -0.7707
  854MOL0     O15179   8.333   1.039   7.606 -0.0183 -0.7284 -0.3573
  854MOL0     C15180   8.417   1.023   7.705 -0.0959  0.5055  0.1017
  854MOL0     C15181   8.521   1.123   7.714  1.0319 -0.4516  0.0842
  854MOL0     C15182   8.634   1.088   7.788  0.5998  0.0711  0.3295
  854MOL0     C15183   8.642   0.980   7.872  0.1039 -0.3081 -0.5387
  854MOL0     C15184   8.762   0.960   7.953 -0.0735 -0.3867 -0.0699
  854MOL0     O15185   8.857   1.065   7.940 -0.0178 -0.1311 -0.3866
  854MOL0     C15186   8.987   1.063   7.976  0.1758  0.7220 -0.4011
  854MOL0     C15187   9.058   1.187   7.971  0.8490  0.3501  0.5432
  854MOL0     C15188   9.195   1.188   7.995 -0.9392  0.4173  0.0217
  854MOL0     C15189   9.264   1.079   8.049 -0.3621  0.6810 -0.6636
  854MOL0     O15190   9.393   1.091   8.083 -0.3249  0.7902 -0.3475
  854MOL0     C15191   9.434   1.192   8.176  0.7047  0.0351 -0.4469
  854MOL0     C15192   9.574   1.159   8.221 -0.4692  0.0402 -1.3763
  854MOL0     C15193   9.675   1.179   8.108  0.5990  0.0900  0.1255
  854MOL0     C15194   9.732   1.323   8.097 -0.1556  0.3933  0.6163
  854MOL0     C15195   9.839   1.332   7.991  0.7723  0.0345 -0.8112
  854MOL0     C15196   9.974   1.355   8.060  0.0985 -0.0420 -0.0410
  854MOL0     C15197  10.092   1.344   7.975  0.5890 -0.1787 -0.6273
  854MOL0     C15198  10.219   1.377   8.050 -0.1289 -0.7118 -0.5150
  854MOL0    Cl15199  10.217   1.516   8.148 -0.5447 -0.1804  0.3302
  854MOL0     C15200   9.202   0.957   8.065  0.6367 -0.5244  0.2027
  854MOL0     C15201   9.059   0.946   8.036 -0.4028 -0.2272  0.0176
  854MOL0     O15202   8.777   0.858   8.017  0.3626 -0.0605  0.6178
  854MOL0     C15203   8.530   0.891   7.874  0.2995  0.2601 -0.6502
  854MOL0     C15204   8.424   0.908   7.783  0.4775 -0.3038 -0.5900
  854MOL0     N15205   8.383   1.538   7.502 -0.5960  0.5439  0.1404
  854MOL0     N15206   8.410   1.648   7.554 -0.5367 -1.7284 -0.2513
  854MOL0     C15207   9.302   2.180   8.084 -0.1321 -0.5487 -0.8195
  854MOL0     C15208   9.416   2.251   8.126  0.4406  0.1776  0.7463
  854MOL0     C15209   9.825   2.381   8.227 -0.1903  0.3762 -0.0046
  854MOL0     C15210   9.817   2.384   8.365  0.0339  0.4255 -0.7910
  854MOL0     C15211   9.909   2.445   8.453  0.2964  0.5119  0.2542
  854MOL0     C15212  10.028   2.489   8.403  0.0270  0.4554 -0.9380
  854MOL0     O15213  10.115   2.543   8.498  0.4979  0.4805 -0.2865
  854MOL0     C15214  10.234   2.605   8.451  0.6590 -0.2474  0.2772
  854MOL0     C15215  10.335   2.608   8.569 -0.3424  0.2652  1.0562
  854MOL0     C15216  10.307   2.720   8.668  0.8548  0.0305 -0.3635
  854MOL0     C15217  10.371   2.693   8.807 -0.7361  0.3496 -0.2488
  854MOL0     C15218  10.520   2.698   8.799  0.2034 -0.2287 -0.8040
  854MOL0     C15219  10.641   2.711   8.793 -0.4302  0.9306  0.6347
  854MOL0     C15220  10.047   2.476   8.265  0.6592  0.2943 -0.2885
  854MOL0     C15221   9.946   2.428   8.176 -0.9023 -0.1323  0.2510
  854MOL0     C15222   9.979   2.443   8.031 -0.8851 -0.3720 -0.2854
  854MOL0     H15223   9.588   1.975   8.214 -0.2132 -0.9010  1.3805
  854MOL0     H15224   9.387   1.864   8.169  6.0183  0.2142  2.3285
  854MOL0     H15225   9.034   2.132   8.007 -1.1968 -0.4346  0.8916
  854MOL0     H15226   9.108   2.046   7.870 -1.5016  0.5443 -0.9112
  854MOL0     H15227   8.940   1.881   8.063 -1.0200 -0.8578 -0.6102
  854MOL0     H15228   8.991   1.840   7.909 -2.9544 -3.1504  3.0635
  854MOL0     H15229   8.857   2.032   7.806 -1.0417 -1.0754 -0.5170
  854MOL0     H15230   8.799   2.075   7.970 -3.1561  0.5764 -1.0404
  854MOL0     H15231   8.742   1.805   7.861  0.8997  0.4179 -1.4282
  854MOL0     H15232   8.687   1.869   8.013  3.4515 -0.4356  0.8423
  854MOL0     H15233   8.563   2.056   7.881  1.1895  1.2627 -0.9809
  854MOL0     H15234   8.646   2.014   7.735 -0.3011  5.5831  2.0589
  854MOL0     H15235   8.529   1.776   7.802  2.3595  0.7886  2.5209
  854MOL0     H15236   8.414   1.891   7.881 -0.2444 -0.9072  0.6087
  854MOL0     H15237   8.480   1.908   7.583  1.4618  0.2808  1.4646
  854MOL0     H15238   8.388   2.018   7.679 -0.0435  0.6782 -2.6326
  854MOL0     H15239   8.247   1.829   7.756 -0.8336  2.9206 -0.3815
  854MOL0     H15240   8.218   1.901   7.606 -0.6570  0.2664 -0.5747
  854MOL0     H15241   8.091   1.644   7.604  0.7371  0.8921  0.4683
  854MOL0     H15242   8.075   1.425   7.508  0.2409 -1.3418  1.2791
  854MOL0     H15243   8.160   1.448   7.344 -0.1699  0.1540  0.2330
  854MOL0     H15244   8.160   1.211   7.384 -1.5419 -0.1098  1.2348
  854MOL0     H15245   8.326   1.253   7.450 -0.6611 -1.3277 -1.4510
  854MOL0     H15246   8.081   1.245   7.643 -0.8589 -1.5339 -1.0403
  854MOL0     H15247   8.247   1.284   7.664  0.0575  3.6971 -3.4950
  854MOL0     H15248   8.131   1.011   7.570 -1.6763 -1.1499  0.7610
  854MOL0     H15249   8.170   1.055   7.733 -0.9953 -1.7573 -1.0514
  854MOL0     H15250   8.519   1.208   7.646 -0.4173 -1.2085 -0.8760
  854MOL0     H15251   8.717   1.158   7.778  0.1613  0.4904 -0.5007
  854MOL0     H15252   9.012   1.280   7.938  4.1052  2.1437  0.7504
  854MOL0     H15253   9.249   1.282   7.983  0.0133 -0.0260  0.7028
  854MOL0     H15254   9.424   1.295   8.141  2.6746  0.9494  1.4394
  854MOL0     H15255   9.363   1.198   8.260  1.1184 -0.2320 -0.0722
  854MOL0     H15256   9.605   1.234   8.294 -0.3924  0.1575 -1.5292
  854MOL0     H15257   9.579   1.064   8.276  0.5683  1.1552  0.5848
  854MOL0     H15258   9.767   1.120   8.118  0.9186  0.0049 -2.5916
  854MOL0     H15259   9.634   1.148   8.011 -2.8452  2.1183  0.7739
  854MOL0     H15260   9.772   1.355   8.194  1.0322 -2.0151  1.0024
  854MOL0     H15261   9.657   1.399   8.074  1.9188  1.8763 -1.8519
  854MOL0     H15262   9.812   1.413   7.923 -2.9135  0.0476  0.4190
  854MOL0     H15263   9.837   1.248   7.921 -0.4655  0.9511 -1.9149
  854MOL0     H15264   9.969   1.449   8.116 -1.5382  0.7330 -1.3877
  854MOL0     H15265   9.980   1.285   8.144 -0.9892  1.8691  1.7638
  854MOL0     H15266  10.086   1.419   7.896  2.2151  0.9953  0.2963
  854MOL0     H15267  10.090   1.241   7.938  0.1327  0.6381 -3.0281
  854MOL0     H15268  10.228   1.290   8.115  1.9510  1.4348  2.3387
  854MOL0     H15269  10.306   1.378   7.984 -1.3332  1.0369 -2.2031
  854MOL0     H15270   9.256   0.873   8.106  0.4381  0.0372  1.6821
  854MOL0     H15271   8.998   0.860   8.063 -1.1655  0.6905  1.3174
  854MOL0     H15272   8.525   0.801   7.933 -0.5642  0.1192 -0.9328
  854MOL0     H15273   8.339   0.840   7.781  0.0401  0.1632  1.1124
  854MOL0     H15274   9.231   2.234   8.022  1.5969  1.0407 -1.5150
  854MOL0     H15275   9.426   2.358   8.113 -3.1917  0.6161  0.3863
  854MOL0     H15276   9.733   2.340   8.418 -0.1100  0.2952 -1.1240
  854MOL0     H15277   9.885   2.453   8.558 -0.6593 -0.7615  0.1562
  854MOL0     H15278  10.219   2.709   8.422 -0.4030 -0.7610 -1.1331
  854MOL0     H15279  10.266   2.548   8.363  0.7941 -2.0370  1.4240
  854MOL0     H15280  10.432   2.629   8.524 -0.4077 -0.2802  0.6529
  854MOL0     H15281  10.341   2.512   8.621  2.0873 -2.1310 -3.0993
  854MOL0     H15282  10.199   2.730   8.685  0.5006 -2.0747 -1.0576
  854MOL0     H15283  10.348   2.815   8.632  3.3382 -0.8102  0.0974
  854MOL0     H15284  10.325   2.762   8.879 -2.6008 -0.7325 -0.3237
  854MOL0     H15285  10.345   2.599   8.857 -0.8842 -0.2497 -1.4209
  854MOL0     H15286  10.747   2.727   8.782 -0.1386 -0.0821  1.6895
  854MOL0     H15287  10.144   2.498   8.221 -1.0873  1.7981 -3.7799
  854MOL0     H15288  10.084   2.468   8.015 -0.8260 -1.2470 -1.4150
  854MOL0     H15289   9.943   2.359   7.970  1.4633 -1.4861 -0.2204
  854MOL0     H15290   9.927   2.532   7.995 -2.8780 -0.8749  1.1384
  855MOL0     O15291   0.755  10.100  10.073 -0.1830 -0.3668 -0.2311
  855MOL0     C15292   0.756  10.181  10.162  0.2627 -0.0753 -1.2087
  855MOL0     O15293   0.776  10.309  10.144  0.0015  0.3600 -0.0480
  855MOL0     C15294   0.874  10.329  10.050 -0.1743 -0.7157 -0.1438
  855MOL0     C15295   0.849  10.368   9.917  0.0406 -0.1972 -0.8238
  855MOL0     C15296   0.941  10.363   9.809  0.0191 -0.0011 -0.1981
  855MOL0     C15297   1.071  10.317   9.833 -0.1652  0.8832 -0.6189
  855MOL0     O15298   1.149  10.304   9.723 -0.7551  0.4576  0.1212
  855MOL0     C15299   1.287  10.306   9.755 -0.7232 -0.7804 -0.6349
  855MOL0     C15300   1.358  10.428   9.805  0.6252 -0.4929  0.3301
  855MOL0     C15301   1.514  10.405   9.799  0.3593 -0.8580  0.5287
  855MOL0     C15302   1.600  10.517   9.863 -0.3694  0.1404 -0.5245
  855MOL0     C15303   1.749  10.471   9.847 -0.8115 -0.0268  0.8293
  855MOL0     C15304   1.835  10.593   9.863 -0.2925 -0.2049 -0.7384
  855MOL0     C15305   1.974  10.603   9.798 -0.2346  0.3095  0.2267
  855MOL0     C15306   2.043  10.743   9.824 -0.1542 -0.1238  0.0533
  855MOL0     N15307   2.067  10.764   9.962 -0.0031  0.2527  0.0593
  855MOL0     C15308   2.174  10.705  10.021  0.2333 -1.3991  0.5401
  855MOL0     C15309   2.179  10.756  10.152 -0.1745  0.0367 -0.9110
  855MOL0     C15310   2.292  10.730  10.252  0.6658  0.3083  0.6711
  855MOL0     C15311   2.218  10.690  10.385  0.4430 -0.7092 -0.2031
  855MOL0     C15312   2.310  10.637  10.498 -0.8730  1.0175 -0.1497
  855MOL0     C15313   2.386  10.740  10.584 -0.6461 -0.9006  1.1219
  855MOL0     O15314   2.484  10.813  10.518  0.1796 -0.1234  0.5282
  855MOL0     C15315   2.606  10.754  10.511  0.0726  0.5267  0.9710
  855MOL0     C15316   2.683  10.784  10.396 -0.5706  0.4601  0.0350
  855MOL0     C15317   2.808  10.723  10.375  0.2951  0.6727 -1.1418
  855MOL0     C15318   2.870  10.638  10.475 -0.1473  0.1849  0.5628
  855MOL0     C15319   3.008  10.581  10.454 -0.1179 -0.2899  0.0297
  855MOL0     O15320   3.048  10.595  10.327 -0.2694  0.7483  0.3468
  855MOL0     C15321   3.151  10.505  10.283 -0.0809  0.8714  0.6620
  855MOL0     C15322   3.274  10.571  10.250  1.0820  0.2818  0.6469
  855MOL0     C15323   3.375  10.499  10.195 -0.0975  0.3479 -0.8360
  855MOL0     C15324   3.367  10.360  10.181 -0.1707  0.5094  0.1379
  855MOL0     O15325   3.477  10.284  10.136  0.3068 -1.2234  0.3987
  855MOL0     C15326   3.493  10.149  10.184  0.7827  0.8568 -0.7423
  855MOL0     C15327   3.640  10.100  10.176  0.4987  0.5676  0.8991
  855MOL0     C15328   3.694  10.091  10.029 -0.3259 -0.5297  0.4039
  855MOL0     C15329   3.845  10.104  10.033 -0.5925  0.4651  0.4159
  855MOL0     C15330   3.922   9.994  10.111 -0.6260 -0.6733  0.4694
  855MOL0     C15331   4.063  10.044  10.142 -0.3994  1.5233 -0.0936
  855MOL0     C15332   4.142   9.942  10.233 -0.5282  0.2946 -0.7134
  855MOL0     C15333   4.289   9.975  10.245  0.4585  0.3826 -0.0857
  855MOL0    Cl15334   4.344   9.834  10.329  0.1888 -0.1642  0.5501
  855MOL0     C15335   3.251  10.294  10.214  0.3833  0.4470 -1.3985
  855MOL0     C15336   3.139  10.362  10.263 -0.1740 -1.1140  0.1420
  855MOL0     O15337   3.062  10.506  10.542 -0.4879  0.4379  0.2771
  855MOL0     C15338   2.798  10.608  10.589 -0.0329 -0.1893  0.3479
  855MOL0     C15339   2.669  10.657  10.600  0.4626  1.0462  1.0354
  855MOL0     N15340   2.070  10.837  10.166 -0.3626  0.1780  0.0082
  855MOL0     N15341   1.998  10.833  10.056 -0.2806 -0.0702  0.4991
  855MOL0     C15342   1.104  10.291   9.970 -0.5220 -0.1829  0.1191
  855MOL0     C15343   1.008  10.311  10.078 -0.1412  0.3597  0.3121
  855MOL0     C15344   0.715  10.135  10.295  0.1960  0.3481 -0.7655
  855MOL0     C15345   0.693  10.237  10.393 -0.3336 -0.3383  0.4920
  855MOL0     C15346   0.670  10.206  10.531  0.6527 -0.2655 -0.3654
  855MOL0     C15347   0.676  10.073  10.577 -0.4410 -0.1384  0.6144
  855MOL0     O15348   0.649  10.048  10.709 -0.0162 -1.3182  0.2663
  855MOL0     C15349   0.639   9.913  10.762  0.2978 -0.1231 -0.1366
  855MOL0     C15350   0.502   9.852  10.735 -0.3224  0.8715 -0.2889
  855MOL0     C15351   0.387   9.928  10.802 -0.7988 -1.4493 -0.0335
  855MOL0     C15352   0.257   9.877  10.730  0.4966 -0.4654  0.3620
  855MOL0     C15353   0.139   9.933  10.802  0.1945 -0.5017 -0.2477
  855MOL0     C15354   0.065   9.995  10.870  0.8639 -0.2923  1.0184
  855MOL0     C15355   0.702   9.978  10.477  0.4474 -0.8453 -1.0436
  855MOL0     C15356   0.706  10.002  10.343 -1.4931 -1.1548  0.5319
  855MOL0     C15357   0.725   9.893  10.246  0.5984 -0.2251  0.0866
  855MOL0     H15358   0.751  10.405   9.889  0.0362  1.1326  0.7911
  855MOL0     H15359   0.907  10.386   9.708 -0.1737  0.5323 -0.0145
  855MOL0     H15360   1.328  10.227   9.818  1.2116  1.5775  1.2878
  855MOL0     H15361   1.334  10.284   9.658 -1.6658 -0.4009 -1.1868
  855MOL0     H15362   1.327  10.451   9.908  0.9356  0.1421  0.2878
  855MOL0     H15363   1.326  10.520   9.755  0.5931 -0.7297 -0.0849
  855MOL0     H15364   1.540  10.406   9.693 -2.4188 -0.0864 -0.2340
  855MOL0     H15365   1.538  10.311   9.851  1.8606  0.3777  2.1726
  855MOL0     H15366   1.577  10.606   9.804  0.4680  1.5787  1.1868
  855MOL0     H15367   1.579  10.539   9.968  1.8406  0.4699 -0.0912
  855MOL0     H15368   1.783  10.390   9.912 -0.1116  0.8486  1.5942
  855MOL0     H15369   1.762  10.436   9.744 -0.7110 -1.0553  1.1787
  855MOL0     H15370   1.784  10.687   9.840  1.6703  1.3439  0.8526
  855MOL0     H15371   1.856  10.588   9.970 -1.2040 -0.2735 -0.5611
  855MOL0     H15372   1.955  10.594   9.691 -3.8031 -1.2611  0.8387
  855MOL0     H15373   2.028  10.515   9.834 -0.6849 -0.6399 -1.3171
  855MOL0     H15374   2.139  10.738   9.770  1.6186 -1.2966  3.0583
  855MOL0     H15375   1.980  10.821   9.780 -0.4216 -0.6659 -0.5377
  855MOL0     H15376   2.250  10.639   9.980  1.0863 -0.9073  1.2883
  855MOL0     H15377   2.347  10.646  10.209  0.6813  1.0476 -0.8086
  855MOL0     H15378   2.360  10.813  10.270  0.1362  0.8365  0.2660
  855MOL0     H15379   2.157  10.775  10.419  2.1625  0.1138  0.9686
  855MOL0     H15380   2.142  10.615  10.360  0.5678  0.1652 -3.8095
  855MOL0     H15381   2.383  10.574  10.446  0.4810  3.2008 -1.0436
  855MOL0     H15382   2.251  10.570  10.561 -0.4650  1.2356  0.4708
  855MOL0     H15383   2.422  10.689  10.674 -1.2816 -0.8625  1.4017
  855MOL0     H15384   2.303  10.806  10.611 -0.6568  0.8880 -2.7262
  855MOL0     H15385   2.642  10.858  10.328 -1.2613  1.3932  1.4318
  855MOL0     H15386   2.868  10.743  10.286  0.3573 -0.7428 -1.4478
  855MOL0     H15387   3.272  10.679  10.256  3.9692  0.4431  0.0028
  855MOL0     H15388   3.471  10.544  10.175 -0.0825  1.1163  0.7794
  855MOL0     H15389   3.469  10.140  10.290  1.2944  1.2460 -0.5865
  855MOL0     H15390   3.434  10.074  10.131  0.2204 -0.6591  1.8648
  855MOL0     H15391   3.690  10.180  10.231 -2.4447  0.1754  4.5966
  855MOL0     H15392   3.651  10.003  10.226 -1.5001 -0.0743  0.2335
  855MOL0     H15393   3.682   9.989   9.991 -1.0348 -1.5391  3.0966
  855MOL0     H15394   3.656  10.159   9.953 -0.0256 -1.1642 -0.3244
  855MOL0     H15395   3.874  10.204  10.065  0.3749 -0.9694  4.5953
  855MOL0     H15396   3.888  10.087   9.933  1.3258 -3.6394  1.7235
  855MOL0     H15397   3.920   9.899  10.058  2.8505 -1.0976  0.8827
  855MOL0     H15398   3.873   9.969  10.206 -3.3345  0.7845 -0.4370
  855MOL0     H15399   4.102  10.059  10.040 -2.8910  0.9917 -1.1863
  855MOL0     H15400   4.058  10.146  10.181 -0.0827  1.1694  0.8906
  855MOL0     H15401   4.146   9.840  10.192  3.0117  0.3264 -0.7710
  855MOL0     H15402   4.092   9.929  10.329 -1.8261  2.4516 -1.0252
  855MOL0     H15403   4.343   9.995  10.152 -2.9047  1.0562 -2.0371
  855MOL0     H15404   4.292  10.060  10.314  1.2819 -0.4327  0.9162
  855MOL0     H15405   3.251  10.186  10.212 -1.5836  0.1326  3.2331
  855MOL0     H15406   3.051  10.312  10.304 -0.7024  0.9865  1.7097
  855MOL0     H15407   2.842  10.530  10.651  3.9078  2.1837  0.8595
  855MOL0     H15408   2.617  10.624  10.689 -2.1446 -1.1570 -1.1266
  855MOL0     H15409   1.211  10.288   9.990 -0.3117  3.5611  0.2306
  855MOL0     H15410   1.028  10.289  10.182 -1.5626 -1.0627  0.3242
  855MOL0     H15411   0.691  10.342  10.364 -2.7995 -0.3106  0.5568
  855MOL0     H15412   0.650  10.287  10.601  0.0104 -1.6974  1.1765
  855MOL0     H15413   0.654   9.917  10.871 -1.7017  2.6091  0.1504
  855MOL0     H15414   0.717   9.848  10.720  1.8004  0.7160  1.2157
  855MOL0     H15415   0.490   9.749  10.770 -2.6621  1.0553 -0.3866
  855MOL0     H15416   0.490   9.842  10.627  0.1868  0.0670 -0.2800
  855MOL0     H15417   0.395  10.035  10.782 -0.3801 -1.3360  0.6728
  855MOL0     H15418   0.376   9.906  10.909  0.2313  0.0454  0.4180
  855MOL0     H15419   0.256   9.912  10.627 -1.0148  1.5827  0.9980
  855MOL0     H15420   0.247   9.769  10.745 -0.5546 -0.0938  2.9336
  855MOL0     H15421  -0.005  10.048  10.931 -0.3511  0.1596 -0.7002
  855MOL0     H15422   0.707   9.872  10.499  0.7353 -0.4403  1.0398
  855MOL0     H15423   0.656   9.891  10.161  0.1376 -0.0424  0.4539
  855MOL0     H15424   0.830   9.880  10.220  0.8034 -3.2239  1.9411
  855MOL0     H15425   0.691   9.802  10.297 -0.5232  0.4960  0.6649
  856MOL0     O15426   0.848   0.466   0.616  0.5672  0.3513 -0.0549
  856MOL0     C15427   0.757   0.532   0.659 -0.6440 -1.3746 -0.8756
  856MOL0     O15428   0.772   0.645   0.739  0.0068  0.3748 -0.4213
  856MOL0     C15429   0.887   0.719   0.730 -0.3998 -0.4999  0.3529
  856MOL0     C15430   1.010   0.656   0.769 -0.0342 -0.0302  0.8738
  856MOL0     C15431   1.129   0.731   0.762 -0.5430  0.8999 -0.5445
  856MOL0     C15432   1.126   0.865   0.737 -0.5472  1.0038  0.8380
  856MOL0     O15433   1.247   0.932   0.752 -0.9542 -0.9176  0.4977
  856MOL0     C15434   1.270   1.061   0.683  0.0369 -0.3368  0.4433
  856MOL0     C15435   1.411   1.107   0.707 -0.2000  0.4342 -0.1109
  856MOL0     C15436   1.431   1.243   0.637 -0.3979  0.3558  0.4342
  856MOL0     C15437   1.341   1.351   0.709 -0.5027 -0.0721  0.2376
  856MOL0     C15438   1.380   1.497   0.705  0.2129  0.1102  0.2359
  856MOL0     C15439   1.391   1.553   0.568  0.5242 -0.2738 -0.8865
  856MOL0     C15440   1.401   1.702   0.549 -0.4527  0.2693 -0.0158
  856MOL0     C15441   1.524   1.753   0.628  0.0720 -0.7869  0.0331
  856MOL0     N15442   1.647   1.692   0.603  0.1830 -0.2273  0.1374
  856MOL0     C15443   1.726   1.709   0.488  0.1550 -0.0032 -0.0107
  856MOL0     C15444   1.839   1.633   0.520  0.7970  0.6489  0.3837
  856MOL0     C15445   1.959   1.615   0.429  0.1815 -0.5328  0.0592
  856MOL0     C15446   1.928   1.519   0.315  0.0207  0.4554 -0.5097
  856MOL0     C15447   1.836   1.566   0.205  0.2264  0.2149 -1.0496
  856MOL0     C15448   1.816   1.455   0.085  0.6102 -0.0392 -0.0202
  856MOL0     O15449   1.934   1.432   0.003  0.1969  0.4675  0.3444
  856MOL0     C15450   1.984   1.532  -0.069  0.2225 -0.4309  1.3953
  856MOL0     C15451   1.922   1.658  -0.088 -0.1075  0.3038 -0.1891
  856MOL0     C15452   1.987   1.761  -0.153 -0.0377 -0.2008 -0.2008
  856MOL0     C15453   2.115   1.751  -0.213 -0.6843  0.9662  0.4085
  856MOL0     C15454   2.199   1.860  -0.258 -0.2985 -0.4246  0.7295
  856MOL0     O15455   2.300   1.832  -0.344 -0.5779 -0.8257 -0.1816
  856MOL0     C15456   2.385   1.939  -0.383 -0.4463  0.4428 -0.4590
  856MOL0     C15457   2.450   2.019  -0.288  0.0472  0.1632  0.1226
  856MOL0     C15458   2.552   2.099  -0.327  0.2585 -0.1877 -0.4276
  856MOL0     C15459   2.598   2.110  -0.456  0.6314 -0.5114  0.7484
  856MOL0     O15460   2.710   2.188  -0.475  0.6461  0.5409 -0.6341
  856MOL0     C15461   2.792   2.166  -0.584 -0.2219  0.4030  0.4496
  856MOL0     C15462   2.893   2.049  -0.562 -0.3195  0.0881 -0.0487
  856MOL0     C15463   3.012   2.062  -0.661 -0.4999 -0.2798  0.7788
  856MOL0     C15464   3.116   1.949  -0.642 -0.6683 -0.4951 -0.3341
  856MOL0     C15465   3.223   1.951  -0.746  0.4837  0.4389  0.4449
  856MOL0     C15466   3.271   1.802  -0.766  0.2189 -0.1322 -0.1581
  856MOL0     C15467   3.394   1.812  -0.862 -0.6562  0.4267  0.1443
  856MOL0     C15468   3.443   1.673  -0.904 -0.0036  0.1242 -0.2290
  856MOL0    Cl15469   3.577   1.702  -1.025  0.3727 -0.2149 -0.0289
  856MOL0     C15470   2.537   2.034  -0.552  0.0231  0.2251 -1.4109
  856MOL0     C15471   2.439   1.947  -0.512  0.6622  0.8998 -0.6182
  856MOL0     O15472   2.169   1.969  -0.217 -0.3148 -0.2593  0.6796
  856MOL0     C15473   2.177   1.617  -0.204  0.5046 -0.2737 -0.1245
  856MOL0     C15474   2.110   1.509  -0.137  0.5649 -0.2525  0.5736
  856MOL0     N15475   1.810   1.563   0.639 -0.4826 -0.3384  0.2276
  856MOL0     N15476   1.699   1.606   0.688 -0.5853  0.2709 -0.0272
  856MOL0     C15477   1.003   0.929   0.706 -0.3998  0.2500  0.6458
  856MOL0     C15478   0.888   0.860   0.700 -0.3495 -0.0129 -0.6305
  856MOL0     C15479   0.627   0.505   0.603 -0.4117  0.8259  0.0166
  856MOL0     C15480   0.603   0.376   0.570 -0.0441  0.9698 -0.2323
  856MOL0     C15481   0.483   0.323   0.521  0.2709 -1.1140  0.6890
  856MOL0     C15482   0.372   0.407   0.522  0.1046 -0.3125  0.0667
  856MOL0     O15483   0.236   0.374   0.484 -0.0601 -0.4696 -0.0639
  856MOL0     C15484   0.191   0.242   0.451  0.1464  0.0935 -0.6120
  856MOL0     C15485   0.222   0.229   0.303  0.2824 -0.0698  0.0257
  856MOL0     C15486   0.136   0.131   0.225 -0.0260  0.3222  0.2460
  856MOL0     C15487   0.154  -0.010   0.279  0.4396  0.0540  0.2788
  856MOL0     C15488   0.079  -0.122   0.211  0.8101 -1.0961 -0.0781
  856MOL0     C15489   0.024  -0.220   0.162 -0.5542 -0.3004 -0.1828
  856MOL0     C15490   0.391   0.546   0.554  0.4008 -0.1492 -0.1254
  856MOL0     C15491   0.516   0.588   0.599  0.3067 -0.4093  0.1436
  856MOL0     C15492   0.525   0.733   0.621 -0.4223  0.3260 -0.5610
  856MOL0     H15493   1.016   0.549   0.790  1.4574 -0.5767 -1.8575
  856MOL0     H15494   1.231   0.697   0.777  0.6583  4.0848 -0.7118
  856MOL0     H15495   1.243   1.039   0.579  1.8229  0.2668 -0.1963
  856MOL0     H15496   1.203   1.142   0.711  2.1524  2.0316 -0.8903
  856MOL0     H15497   1.477   1.025   0.678 -0.1587  0.3537  0.2070
  856MOL0     H15498   1.441   1.113   0.812  1.0867  0.1240 -0.4421
  856MOL0     H15499   1.403   1.238   0.531  1.3634  0.0341 -0.0424
  856MOL0     H15500   1.536   1.272   0.644 -0.1938 -0.0792 -0.6665
  856MOL0     H15501   1.238   1.339   0.674 -0.5165  0.2292  0.1729
  856MOL0     H15502   1.327   1.332   0.816 -0.5148  1.5800  0.5406
  856MOL0     H15503   1.309   1.554   0.765 -1.2405 -0.6546 -0.7004
  856MOL0     H15504   1.473   1.508   0.762 -0.8457  0.8253  1.9149
  856MOL0     H15505   1.468   1.501   0.511  1.6721 -0.5893  0.8545
  856MOL0     H15506   1.304   1.523   0.509 -2.0324  1.1502  1.8645
  856MOL0     H15507   1.305   1.747   0.576 -1.1059  0.0699 -1.9013
  856MOL0     H15508   1.417   1.711   0.441  0.3354 -4.0850 -0.4121
  856MOL0     H15509   1.533   1.860   0.610  0.9730 -1.0809 -1.4845
  856MOL0     H15510   1.518   1.750   0.737  0.3094 -0.3999  0.0575
  856MOL0     H15511   1.724   1.776   0.403  3.6264 -1.0396 -1.0725
  856MOL0     H15512   1.990   1.706   0.377  0.1856 -0.1364  0.7456
  856MOL0     H15513   2.036   1.577   0.496  1.4074 -0.6546 -1.3772
  856MOL0     H15514   2.023   1.491   0.268  1.2175 -0.3161  2.1562
  856MOL0     H15515   1.890   1.426   0.356 -2.0386  1.1366 -0.7942
  856MOL0     H15516   1.875   1.660   0.164 -0.2002  0.7200 -0.3095
  856MOL0     H15517   1.736   1.587   0.244  0.4755 -2.0040  0.9796
  856MOL0     H15518   1.728   1.483   0.026  1.2493  2.7431  0.2185
  856MOL0     H15519   1.797   1.359   0.135  5.8675 -0.4570  1.8519
  856MOL0     H15520   1.822   1.678  -0.052 -1.3419  0.0656 -3.2103
  856MOL0     H15521   1.945   1.861  -0.157 -2.4216 -1.0853  1.0485
  856MOL0     H15522   2.420   2.007  -0.185 -1.9805  4.3178  0.2432
  856MOL0     H15523   2.601   2.160  -0.252  1.0392 -1.2747 -0.0342
  856MOL0     H15524   2.745   2.148  -0.681  2.3527 -0.2289 -0.7642
  856MOL0     H15525   2.857   2.253  -0.601  1.5062 -0.8956  0.1679
  856MOL0     H15526   2.936   2.066  -0.462  0.9789  1.4212 -0.7844
  856MOL0     H15527   2.845   1.952  -0.551  2.9712 -1.5481  1.8004
  856MOL0     H15528   2.966   2.063  -0.760 -1.3850  0.9470  1.1809
  856MOL0     H15529   3.057   2.161  -0.652 -2.7406  0.9618 -0.7082
  856MOL0     H15530   3.061   1.854  -0.649  1.0458 -1.5643 -0.0046
  856MOL0     H15531   3.158   1.960  -0.542  1.1712 -1.7104 -0.9136
  856MOL0     H15532   3.308   2.013  -0.715  1.5944  0.0906 -1.6795
  856MOL0     H15533   3.189   2.000  -0.838 -0.3123 -1.7756 -0.5233
  856MOL0     H15534   3.304   1.765  -0.669  0.3410 -1.5756 -0.7250
  856MOL0     H15535   3.196   1.742  -0.819  1.5834  0.1924 -2.6225
  856MOL0     H15536   3.470   1.876  -0.817  0.2101 -0.7052  0.3328
  856MOL0     H15537   3.369   1.861  -0.956 -3.1554 -0.8573  0.0409
  856MOL0     H15538   3.479   1.626  -0.812 -0.4044 -1.6009 -0.9268
  856MOL0     H15539   3.354   1.620  -0.941 -1.8803  1.3549  2.2249
  856MOL0     H15540   2.571   2.057  -0.652 -2.1575  3.3212 -1.5990
  856MOL0     H15541   2.398   1.868  -0.573  1.6303 -0.8886  0.9231
  856MOL0     H15542   2.278   1.599  -0.240  0.4446 -1.2915  0.1886
  856MOL0     H15543   2.150   1.408  -0.127 -1.5607 -0.9120  4.4531
  856MOL0     H15544   0.998   1.033   0.676  0.3604 -0.0955 -0.7971
  856MOL0     H15545   0.797   0.911   0.669 -0.6895  0.2242  0.7236
  856MOL0     H15546   0.681   0.302   0.589 -1.2615 -0.7148 -1.4747
  856MOL0     H15547   0.468   0.216   0.508  1.0723 -1.0096 -1.5303
  856MOL0     H15548   0.084   0.223   0.467  0.2039 -0.5137 -0.9517
  856MOL0     H15549   0.233   0.170   0.521 -2.5136 -1.4824 -0.4806
  856MOL0     H15550   0.328   0.205   0.294  0.7240  2.3850 -2.9589
  856MOL0     H15551   0.212   0.322   0.246  0.1421 -1.2933 -2.0749
  856MOL0     H15552   0.160   0.142   0.119 -1.6955  1.0573 -0.0916
  856MOL0     H15553   0.031   0.161   0.228 -0.2679 -0.5354  2.0934
  856MOL0     H15554   0.258  -0.042   0.266  0.1866 -1.1269  0.9920
  856MOL0     H15555   0.122  -0.016   0.383  0.9263 -2.1953  0.3630
  856MOL0     H15556  -0.007  -0.307   0.109  0.2431 -0.9386  0.3638
  856MOL0     H15557   0.300   0.605   0.552  0.8080  0.4662 -0.5890
  856MOL0     H15558   0.467   0.778   0.540  0.4139  0.4601 -1.1023
  856MOL0     H15559   0.485   0.768   0.716 -2.6880  0.0238 -1.3541
  856MOL0     H15560   0.627   0.773   0.610 -1.2716  2.7781 -0.1479
  857MOL0     O15561   2.868   4.334   9.590  0.4517 -0.4310 -0.0995
  857MOL0     C15562   2.956   4.326   9.504 -0.7334  0.0980  0.7310
  857MOL0     O15563   3.015   4.433   9.444  0.3511 -0.2819  0.5044
  857MOL0     C15564   2.966   4.561   9.449  0.4493  0.0177 -0.2079
  857MOL0     C15565   3.055   4.673   9.429  0.0624 -0.2620 -0.4270
  857MOL0     C15566   3.009   4.800   9.443 -0.0689  0.5193  0.0920
  857MOL0     C15567   2.873   4.835   9.457 -0.4780  0.4425 -0.2155
  857MOL0     O15568   2.827   4.963   9.490 -0.0201  0.8608  0.6775
  857MOL0     C15569   2.904   5.052   9.562 -0.2603 -0.1151  1.1076
  857MOL0     C15570   2.810   5.158   9.628  0.3459  0.7523  0.2930
  857MOL0     C15571   2.728   5.095   9.742  0.9630 -0.0917  0.3524
  857MOL0     C15572   2.642   5.198   9.811  0.5103 -0.5612  0.8549
  857MOL0     C15573   2.578   5.165   9.945  0.0933 -0.6455 -1.0591
  857MOL0     C15574   2.484   5.037   9.951 -0.9587 -1.0689 -0.2228
  857MOL0     C15575   2.426   4.978  10.082 -0.7675 -0.3248 -0.4374
  857MOL0     C15576   2.300   5.050  10.131 -1.0278 -0.6682  0.1452
  857MOL0     N15577   2.326   5.171  10.215  0.1700  0.3184 -0.3256
  857MOL0     C15578   2.316   5.298  10.169 -0.0774 -0.0693 -0.4516
  857MOL0     C15579   2.306   5.369  10.288  0.3030 -0.1190 -0.1595
  857MOL0     C15580   2.268   5.515  10.300 -0.5475  0.0470 -0.4451
  857MOL0     C15581   2.391   5.603  10.324 -0.2748  0.7392  0.2707
  857MOL0     C15582   2.480   5.606  10.198  0.2839  0.0572  0.3966
  857MOL0     C15583   2.618   5.680  10.212 -0.7437  0.4531  0.3914
  857MOL0     O15584   2.686   5.666  10.086  0.3914  0.1258  0.0743
  857MOL0     C15585   2.817   5.688  10.067 -0.7401 -0.2268  0.1073
  857MOL0     C15586   2.863   5.762   9.953  0.2930  0.1388  0.0719
  857MOL0     C15587   2.997   5.784   9.931  0.4402 -0.3100 -0.1872
  857MOL0     C15588   3.097   5.726  10.003 -0.2805  0.3173 -0.0235
  857MOL0     C15589   3.238   5.733   9.960 -0.0394  0.3839 -0.4731
  857MOL0     O15590   3.268   5.807   9.850  0.0356  0.5651 -0.3162
  857MOL0     C15591   3.393   5.849   9.817 -0.3161  0.8647 -0.6887
  857MOL0     C15592   3.434   5.855   9.680  0.3592  0.4807 -0.4604
  857MOL0     C15593   3.555   5.909   9.637  0.6982 -0.1893  0.3158
  857MOL0     C15594   3.649   5.957   9.737  0.0298 -0.4943 -0.1617
  857MOL0     O15595   3.772   5.996   9.692 -0.4068  0.0190  0.5081
  857MOL0     C15596   3.879   5.988   9.793  0.9655  0.7230 -0.6715
  857MOL0     C15597   4.020   5.969   9.719  0.1355  0.7772  0.2026
  857MOL0     C15598   4.013   5.874   9.593 -0.9567 -0.1187 -0.0822
  857MOL0     C15599   4.145   5.846   9.524 -0.9191 -0.5392  0.3981
  857MOL0     C15600   4.268   5.815   9.617  0.8545 -0.5062 -0.1780
  857MOL0     C15601   4.234   5.691   9.708 -1.2924  0.4647 -0.7025
  857MOL0     C15602   4.333   5.690   9.827  0.1957 -0.0276  0.2657
  857MOL0     C15603   4.479   5.656   9.798 -0.1743  0.3730 -0.3315
  857MOL0    Cl15604   4.568   5.758   9.681 -0.2907 -0.4033 -0.1961
  857MOL0     C15605   3.604   5.952   9.876  0.3505  0.1439 -0.0564
  857MOL0     C15606   3.484   5.893   9.911  0.4375  0.7760  0.4044
  857MOL0     O15607   3.316   5.673  10.032 -0.5582 -0.3650 -0.5520
  857MOL0     C15608   3.055   5.649  10.119  0.2221 -1.3421  0.4865
  857MOL0     C15609   2.916   5.637  10.150  0.7215 -0.0735  1.1701
  857MOL0     N15610   2.305   5.284  10.403  0.8216  0.0205 -0.1900
  857MOL0     N15611   2.312   5.170  10.350 -0.5230  0.4556 -0.8144
  857MOL0     C15612   2.779   4.725   9.461  0.3744 -0.1673  0.9835
  857MOL0     C15613   2.826   4.586   9.458 -0.6012 -0.5198  0.0340
  857MOL0     C15614   3.011   4.192   9.473 -0.2290 -0.2515  0.7089
  857MOL0     C15615   3.150   4.173   9.443 -0.4098  0.2544  0.5921
  857MOL0     C15616   3.192   4.047   9.409 -0.0000  0.4704 -0.3463
  857MOL0     C15617   3.111   3.931   9.421  0.3119 -0.7197 -0.8046
  857MOL0     O15618   3.146   3.811   9.385  1.1857 -0.0035  0.7778
  857MOL0     C15619   3.229   3.801   9.269 -0.7260  0.5529  0.3147
  857MOL0     C15620   3.261   3.655   9.246  0.2084  0.0050 -0.7909
  857MOL0     C15621   3.371   3.609   9.342 -0.3039 -0.5771 -0.2641
  857MOL0     C15622   3.421   3.473   9.296  0.4626 -1.0258 -0.3408
  857MOL0     C15623   3.533   3.434   9.378  0.4589 -0.2560  0.1075
  857MOL0     C15624   3.627   3.394   9.441  0.1466 -0.3680  0.1532
  857MOL0     C15625   2.980   3.956   9.458  0.8975 -0.6931  0.3203
  857MOL0     C15626   2.923   4.078   9.474  0.4870  0.1669 -0.5653
  857MOL0     C15627   2.770   4.081   9.508 -0.1488 -0.1839  0.8875
  857MOL0     H15628   3.156   4.639   9.409 -0.5877 -0.9746 -2.8560
  857MOL0     H15629   3.076   4.886   9.451  1.1748 -0.3568 -0.5854
  857MOL0     H15630   2.964   4.996   9.635 -1.1340 -0.6800  1.4054
  857MOL0     H15631   2.986   5.103   9.510  1.0561 -0.7729  2.4430
  857MOL0     H15632   2.753   5.203   9.546 -0.0645 -0.2381  0.0221
  857MOL0     H15633   2.862   5.244   9.671  2.0096  0.0970 -0.2996
  857MOL0     H15634   2.794   5.044   9.812  0.2171 -2.2970 -0.4674
  857MOL0     H15635   2.673   5.011   9.700  2.3751 -0.4595 -0.8720
  857MOL0     H15636   2.708   5.285   9.820 -0.8544  0.7640 -1.0870
  857MOL0     H15637   2.560   5.233   9.747  3.2180  0.7941 -2.1661
  857MOL0     H15638   2.655   5.157  10.023  1.7383 -0.0174 -2.5427
  857MOL0     H15639   2.507   5.244   9.969 -1.4467 -2.4265  0.5661
  857MOL0     H15640   2.411   5.041   9.869  0.1684  0.0803 -1.2150
  857MOL0     H15641   2.551   4.955   9.924 -0.2461  0.4957 -3.8888
  857MOL0     H15642   2.499   4.994  10.162 -2.0028  2.5926  0.2493
  857MOL0     H15643   2.404   4.872  10.066  0.1454 -0.2347 -2.6399
  857MOL0     H15644   2.236   5.077  10.047 -0.6146  0.2729  0.1239
  857MOL0     H15645   2.239   4.982  10.191 -1.2095 -0.5050  0.1475
  857MOL0     H15646   2.300   5.356  10.079 -0.6225  4.9037  2.4597
  857MOL0     H15647   2.216   5.538  10.207  2.2327 -0.5719 -2.2955
  857MOL0     H15648   2.203   5.536  10.385  1.9261  3.0348  0.9016
  857MOL0     H15649   2.351   5.705  10.333  1.7822  1.6882 -0.7324
  857MOL0     H15650   2.451   5.560  10.405 -0.8404  1.3210  1.0226
  857MOL0     H15651   2.435   5.656  10.113 -2.3413  1.6172  2.5512
  857MOL0     H15652   2.507   5.504  10.170  3.0489  0.5911  0.7663
  857MOL0     H15653   2.670   5.621  10.288 -1.2890 -4.0420 -2.2984
  857MOL0     H15654   2.603   5.783  10.245 -0.3471  0.6381  0.0093
  857MOL0     H15655   2.791   5.806   9.885 -2.3324 -1.2136  1.8014
  857MOL0     H15656   3.018   5.851   9.849 -0.2135  3.1488  2.2656
  857MOL0     H15657   3.370   5.814   9.603  1.5595  1.7613 -2.2261
  857MOL0     H15658   3.572   5.893   9.531 -0.5020  0.2826  0.0427
  857MOL0     H15659   3.887   6.077   9.856  1.0570 -0.5511  1.1746
  857MOL0     H15660   3.857   5.908   9.864  0.0114  0.9704 -0.6681
  857MOL0     H15661   4.050   6.067   9.682 -0.0880 -0.1315 -2.6330
  857MOL0     H15662   4.088   5.924   9.792 -0.5755 -1.6382 -0.5244
  857MOL0     H15663   3.971   5.779   9.627 -3.2214  1.1404  0.9235
  857MOL0     H15664   3.939   5.921   9.527 -1.8777  0.9162  1.6110
  857MOL0     H15665   4.162   5.934   9.460 -3.7959 -1.5234 -1.9371
  857MOL0     H15666   4.134   5.762   9.455  0.2560  0.8255 -1.5764
  857MOL0     H15667   4.290   5.903   9.679 -1.1264 -1.2566  1.7310
  857MOL0     H15668   4.359   5.789   9.561  0.4253  1.1197 -1.7437
  857MOL0     H15669   4.136   5.688   9.756  0.8431  2.3640  4.4655
  857MOL0     H15670   4.238   5.600   9.647 -0.6163  1.0048 -1.4824
  857MOL0     H15671   4.289   5.621   9.899 -0.4536 -0.7654 -0.7958
  857MOL0     H15672   4.329   5.788   9.876 -1.5751 -0.2344  0.6016
  857MOL0     H15673   4.536   5.673   9.890  0.9210  1.1445 -1.1378
  857MOL0     H15674   4.492   5.554   9.761 -1.1935  0.0930  0.0430
  857MOL0     H15675   3.670   6.004   9.945 -0.1057  0.9209 -0.1928
  857MOL0     H15676   3.453   5.892  10.015  0.7891 -4.5152  0.7633
  857MOL0     H15677   3.128   5.602  10.184 -1.2642 -1.1686  2.3631
  857MOL0     H15678   2.882   5.587  10.240 -2.1173  0.4862  0.5228
  857MOL0     H15679   2.672   4.742   9.463  0.4167  0.0820  3.0970
  857MOL0     H15680   2.750   4.510   9.469 -2.6584  1.4322  0.0886
  857MOL0     H15681   3.220   4.255   9.437  1.0704 -1.0707 -1.6708
  857MOL0     H15682   3.295   4.026   9.382 -0.2045 -0.3806 -0.5226
  857MOL0     H15683   3.329   3.846   9.269 -1.1167  1.6010 -2.2295
  857MOL0     H15684   3.185   3.835   9.175 -0.0365  3.2425  0.8971
  857MOL0     H15685   3.288   3.640   9.141  0.5524  0.6044 -0.7954
  857MOL0     H15686   3.167   3.604   9.267 -0.6257  2.7945  3.4794
  857MOL0     H15687   3.316   3.601   9.437 -2.4714  0.3322 -1.3596
  857MOL0     H15688   3.441   3.692   9.354 -4.1043  3.2738 -1.9440
  857MOL0     H15689   3.331   3.411   9.305  0.0759 -0.2708  1.3425
  857MOL0     H15690   3.453   3.475   9.191  0.2281  4.3316 -0.6128
  857MOL0     H15691   3.712   3.386   9.505  3.0031 -1.1351 -3.3857
  857MOL0     H15692   2.911   3.873   9.450 -1.4707  1.1143  0.8077
  857MOL0     H15693   2.720   3.984   9.497 -0.2164 -0.2193  1.4578
  857MOL0     H15694   2.761   4.111   9.613  0.3006  0.5482  0.7242
  857MOL0     H15695   2.705   4.147   9.449  0.8025 -0.9355 -1.0970
  858MOL0     O15696   1.616   2.835   1.970 -0.2263 -0.1793 -0.4451
  858MOL0     C15697   1.688   2.781   2.053  0.3569 -0.0607  0.2873
  858MOL0     O15698   1.648   2.713   2.160  0.8981  0.5689  0.7432
  858MOL0     C15699   1.515   2.734   2.197 -0.1321  0.6370 -0.7257
  858MOL0     C15700   1.401   2.692   2.121 -0.0820 -0.3597  0.0593
  858MOL0     C15701   1.272   2.704   2.176 -0.1622  0.2482  0.4434
  858MOL0     C15702   1.252   2.771   2.293  0.1691 -0.5227 -0.0620
  858MOL0     O15703   1.118   2.776   2.333  0.4868 -0.0706  0.2533
  858MOL0     C15704   1.081   2.884   2.412 -0.0065  0.6555 -0.6406
  858MOL0     C15705   0.928   2.872   2.436  0.6571  0.2861  0.0378
  858MOL0     C15706   0.855   2.905   2.302  0.0504  0.0770  0.3421
  858MOL0     C15707   0.708   2.882   2.299 -1.0422 -0.5755  0.4684
  858MOL0     C15708   0.636   2.945   2.186  0.4225 -0.4152 -0.1815
  858MOL0     C15709   0.484   2.924   2.210  0.8638 -0.0353  0.7473
  858MOL0     C15710   0.387   2.995   2.108 -0.5667 -0.3996 -0.3623
  858MOL0     C15711   0.376   2.927   1.974 -0.0754 -1.0209 -0.0875
  858MOL0     N15712   0.290   2.997   1.875  0.0955 -0.9139 -0.7034
  858MOL0     C15713   0.201   3.101   1.905  0.6074  0.3382  0.4905
  858MOL0     C15714   0.134   3.123   1.781 -0.1354 -0.9465 -1.4400
  858MOL0     C15715   0.021   3.218   1.770 -0.7807  0.4598 -0.9961
  858MOL0     C15716   0.026   3.284   1.633 -0.5967  0.5176  0.4716
  858MOL0     C15717  -0.106   3.346   1.591 -0.9886  0.1961  0.2812
  858MOL0     C15718  -0.244   3.303   1.635 -0.7861  0.1404  0.8958
  858MOL0     O15719  -0.327   3.418   1.595 -0.0290  0.0579  0.7740
  858MOL0     C15720  -0.445   3.398   1.532 -0.3770  0.1850  0.4543
  858MOL0     C15721  -0.497   3.291   1.464  0.1909 -0.1742  0.7380
  858MOL0     C15722  -0.631   3.288   1.416  0.5706  0.4064 -1.6166
  858MOL0     C15723  -0.716   3.399   1.443  1.1374 -0.2078  0.0533
  858MOL0     C15724  -0.858   3.398   1.395  0.2259  0.2354 -0.3400
  858MOL0     O15725  -0.895   3.317   1.287 -1.0023  0.4682  0.1389
  858MOL0     C15726  -1.018   3.328   1.227 -0.1112  0.3352 -0.0093
  858MOL0     C15727  -1.081   3.210   1.202 -0.4166  0.0777  0.0352
  858MOL0     C15728  -1.211   3.196   1.141 -0.4093  0.4912  0.6888
  858MOL0     C15729  -1.267   3.306   1.089 -0.8600  0.1799  0.0005
  858MOL0     O15730  -1.390   3.293   1.021  0.1492 -0.1901  1.0961
  858MOL0     C15731  -1.479   3.394   1.015 -0.3268 -0.1454  0.5740
  858MOL0     C15732  -1.616   3.329   0.975 -0.1531 -0.4422 -0.0328
  858MOL0     C15733  -1.739   3.414   1.023  0.7407 -0.9715  0.3756
  858MOL0     C15734  -1.769   3.543   0.933  0.1563  0.4569 -0.3810
  858MOL0     C15735  -1.865   3.643   1.003 -0.0153  0.0900 -0.4191
  858MOL0     C15736  -1.889   3.762   0.913 -0.2665  0.2111 -0.1455
  858MOL0     C15737  -1.969   3.723   0.791  0.0771 -0.5355 -0.0932
  858MOL0     C15738  -2.059   3.834   0.734 -0.0779  0.3318  0.1770
  858MOL0    Cl15739  -2.187   3.899   0.840  0.1092  0.1033  0.3436
  858MOL0     C15740  -1.208   3.435   1.104  0.2200 -0.7535 -0.7332
  858MOL0     C15741  -1.085   3.441   1.178  0.0795 -0.2467 -0.2283
  858MOL0     O15742  -0.925   3.492   1.445  1.0239  0.1055 -0.3154
  858MOL0     C15743  -0.662   3.506   1.514 -0.2781  1.2568  0.4694
  858MOL0     C15744  -0.525   3.508   1.553  0.1295 -0.3002  0.8053
  858MOL0     N15745   0.198   3.042   1.689  0.1576  0.7500 -0.4231
  858MOL0     N15746   0.292   2.972   1.746  0.4181 -0.3329  0.7095
  858MOL0     C15747   1.362   2.812   2.368 -0.0014 -0.0458 -0.2106
  858MOL0     C15748   1.493   2.788   2.326 -0.2018 -1.3526 -0.1723
  858MOL0     C15749   1.840   2.790   2.047 -0.0294 -0.2162  0.7697
  858MOL0     C15750   1.915   2.780   2.163 -0.7005 -0.9313 -0.1127
  858MOL0     C15751   2.055   2.780   2.150  0.4036  0.7609  0.0856
  858MOL0     C15752   2.124   2.807   2.036 -0.1849 -0.4488  0.7979
  858MOL0     O15753   2.257   2.823   2.045 -0.2443  0.0836  0.3745
  858MOL0     C15754   2.339   2.831   1.926  0.0858  0.1326  0.6440
  858MOL0     C15755   2.487   2.798   1.960 -0.1878  0.2781 -0.1404
  858MOL0     C15756   2.501   2.645   1.984  0.3812 -0.0284  0.0961
  858MOL0     C15757   2.647   2.591   1.987 -0.6016 -0.0660  0.5197
  858MOL0     C15758   2.703   2.638   2.115 -0.7199  0.5010 -0.5058
  858MOL0     C15759   2.730   2.707   2.213 -0.7041  0.9405 -0.1457
  858MOL0     C15760   2.045   2.826   1.922 -0.5434  0.0797 -0.5842
  858MOL0     C15761   1.907   2.823   1.924  0.1018 -1.0399 -0.1966
  858MOL0     C15762   1.847   2.862   1.790  0.4532 -0.0725  0.0208
  858MOL0     H15763   1.409   2.636   2.028 -0.5914 -0.4512  0.0657
  858MOL0     H15764   1.194   2.661   2.114 -2.4306  3.1365  1.0440
  858MOL0     H15765   1.133   2.887   2.508 -2.7254 -0.0897  0.9750
  858MOL0     H15766   1.109   2.980   2.368  0.4270  0.0660 -1.6815
  858MOL0     H15767   0.893   2.936   2.517 -1.2770 -0.3719 -0.2307
  858MOL0     H15768   0.900   2.770   2.466  0.7455 -0.1825 -1.3674
  858MOL0     H15769   0.901   2.845   2.223 -1.0301  0.8122 -0.8663
  858MOL0     H15770   0.865   3.008   2.267 -0.5579  0.7087  1.9049
  858MOL0     H15771   0.702   2.776   2.327  1.5911  0.1344  4.6881
  858MOL0     H15772   0.672   2.941   2.385  1.5106  1.7889  0.0573
  858MOL0     H15773   0.659   3.052   2.182  0.6804 -0.4163  1.0784
  858MOL0     H15774   0.661   2.896   2.091 -1.6135 -1.5347 -0.1991
  858MOL0     H15775   0.442   2.824   2.226 -1.1286  0.8843  1.6810
  858MOL0     H15776   0.461   2.969   2.308  2.8163 -1.0938  1.7561
  858MOL0     H15777   0.431   3.094   2.097  0.4193 -0.6268  1.1945
  858MOL0     H15778   0.289   3.014   2.151 -1.2256 -0.2773 -1.8687
  858MOL0     H15779   0.475   2.915   1.929 -0.2604 -0.3063 -0.6990
  858MOL0     H15780   0.327   2.833   2.001 -2.0789  0.5533  2.1753
  858MOL0     H15781   0.175   3.150   1.998  0.9517  5.0723 -1.5793
  858MOL0     H15782  -0.068   3.154   1.781  0.3013 -1.2574 -1.7672
  858MOL0     H15783   0.022   3.296   1.846  0.5119 -0.7828  0.3401
  858MOL0     H15784   0.101   3.361   1.618 -1.1395  0.6284 -2.0764
  858MOL0     H15785   0.044   3.212   1.552 -1.1115 -1.1327  1.7489
  858MOL0     H15786  -0.111   3.345   1.481 -0.7021  3.7295  0.1260
  858MOL0     H15787  -0.098   3.452   1.616 -2.8163  0.6732 -0.9356
  858MOL0     H15788  -0.226   3.293   1.742  1.4753 -2.2993  0.3563
  858MOL0     H15789  -0.257   3.201   1.600  1.1553 -1.3768  4.1113
  858MOL0     H15790  -0.435   3.204   1.443  2.4226  1.5283 -0.1175
  858MOL0     H15791  -0.675   3.207   1.358  0.9552 -0.1654 -1.1237
  858MOL0     H15792  -1.037   3.117   1.236  1.9621  1.0721 -0.1580
  858MOL0     H15793  -1.263   3.101   1.142  0.3227  0.0268 -1.0033
  858MOL0     H15794  -1.490   3.437   1.115 -1.0473 -0.2047  0.5296
  858MOL0     H15795  -1.455   3.472   0.942 -2.6663 -0.1386 -0.2951
  858MOL0     H15796  -1.612   3.323   0.865  2.6497 -0.0809 -0.0320
  858MOL0     H15797  -1.632   3.227   1.011  0.6214 -1.2029 -1.7224
  858MOL0     H15798  -1.825   3.347   1.022  0.2477 -0.3809  1.5576
  858MOL0     H15799  -1.721   3.443   1.127  2.4071  0.1103 -0.1730
  858MOL0     H15800  -1.812   3.514   0.837 -1.1865  2.1571 -0.3480
  858MOL0     H15801  -1.672   3.592   0.920  1.2575 -1.4400  0.2201
  858MOL0     H15802  -1.835   3.673   1.103  0.2284 -0.0025 -0.4656
  858MOL0     H15803  -1.958   3.591   1.029  1.3505 -1.8102  0.8604
  858MOL0     H15804  -1.958   3.832   0.961 -2.2090 -1.8095  0.1628
  858MOL0     H15805  -1.793   3.812   0.893  1.3755 -1.7089  2.3231
  858MOL0     H15806  -2.029   3.635   0.816 -0.6999 -0.0209 -0.1144
  858MOL0     H15807  -1.901   3.676   0.718 -3.3591 -3.6510 -1.6260
  858MOL0     H15808  -1.997   3.919   0.703 -1.9284  1.5791 -0.3132
  858MOL0     H15809  -2.103   3.789   0.645  2.4887 -0.9616 -0.5379
  858MOL0     H15810  -1.257   3.518   1.054 -2.9793 -0.8500  1.8294
  858MOL0     H15811  -1.046   3.540   1.198  0.0321 -0.9505  4.1502
  858MOL0     H15812  -0.722   3.592   1.543  0.3905  1.8090  0.2154
  858MOL0     H15813  -0.492   3.595   1.608 -0.7110  0.2023  0.5237
  858MOL0     H15814   1.355   2.865   2.462  2.0619  0.8410 -0.4843
  858MOL0     H15815   1.577   2.822   2.385  1.2013 -3.2502 -0.9611
  858MOL0     H15816   1.875   2.764   2.262 -3.2316  0.6159 -0.8022
  858MOL0     H15817   2.117   2.744   2.231  0.3291 -1.9737 -0.9853
  858MOL0     H15818   2.333   2.932   1.885 -0.0469  0.1097  0.6071
  858MOL0     H15819   2.299   2.761   1.853 -0.9643 -0.7455  2.0071
  858MOL0     H15820   2.526   2.852   2.047  0.5360  0.2476 -0.4456
  858MOL0     H15821   2.543   2.824   1.870 -1.7545  0.7020 -1.0471
  858MOL0     H15822   2.451   2.595   1.900  1.7735 -2.7199  0.7544
  858MOL0     H15823   2.444   2.622   2.074 -0.9517  2.4049 -0.0471
  858MOL0     H15824   2.646   2.482   1.997  0.6864  0.0486  2.2869
  858MOL0     H15825   2.708   2.611   1.899  0.2036 -3.0812  0.2773
  858MOL0     H15826   2.759   2.756   2.304 -3.0067  1.5395  0.3306
  858MOL0     H15827   2.089   2.847   1.825 -1.2525  1.4564 -0.6385
  858MOL0     H15828   1.818   2.769   1.741  0.2855 -0.4767  0.8666
  858MOL0     H15829   1.759   2.926   1.804  1.5331  1.5867 -0.5032
  858MOL0     H15830   1.913   2.916   1.722 -0.0582  1.4946  0.6947
  859MOL0     O15831   0.462   6.861  10.137 -0.5298  0.7805  0.2870
  859MOL0     C15832   0.379   6.867  10.230  0.8275  0.1881 -0.2105
  859MOL0     O15833   0.344   6.974  10.309 -0.5289 -0.6891 -0.1910
  859MOL0     C15834   0.404   7.092  10.299  0.1156  0.5015  1.1639
  859MOL0     C15835   0.544   7.095  10.330  0.7659 -0.4018 -0.2372
  859MOL0     C15836   0.606   7.213  10.315 -0.4130 -0.9226 -0.3451
  859MOL0     C15837   0.549   7.328  10.272 -0.2819  0.2334  0.3595
  859MOL0     O15838   0.614   7.446  10.267 -0.4742  0.3640 -0.2294
  859MOL0     C15839   0.536   7.569  10.276  0.3281 -0.3196 -0.0581
  859MOL0     C15840   0.528   7.616  10.126  0.3660 -0.3257  0.1897
  859MOL0     C15841   0.409   7.710  10.112  0.1948  0.3629 -0.3962
  859MOL0     C15842   0.348   7.680   9.979  0.4672  0.6737 -0.6545
  859MOL0     C15843   0.249   7.799   9.947  0.5094  0.1261  0.3847
  859MOL0     C15844   0.120   7.788  10.031 -0.1639 -0.3157  0.4335
  859MOL0     C15845   0.034   7.918  10.024 -0.7287  0.2766 -0.0216
  859MOL0     C15846  -0.023   7.933   9.879  0.2967 -0.4727 -0.2914
  859MOL0     N15847  -0.121   7.833   9.850 -0.7408  0.2450 -0.0280
  859MOL0     C15848  -0.091   7.729   9.767 -0.2262  0.4346  0.3669
  859MOL0     C15849  -0.201   7.644   9.774 -0.1738 -0.2162 -0.6259
  859MOL0     C15850  -0.217   7.513   9.704  0.6632  0.5988 -0.3875
  859MOL0     C15851  -0.307   7.410   9.781  0.0336 -0.5804  0.6395
  859MOL0     C15852  -0.264   7.352   9.916 -0.0183  0.0986 -0.6475
  859MOL0     C15853  -0.336   7.235   9.954  0.5026  0.5402 -0.9573
  859MOL0     O15854  -0.296   7.126   9.879  0.1628 -0.2266  0.4450
  859MOL0     C15855  -0.372   7.016   9.878  0.3250  1.1284  0.4769
  859MOL0     C15856  -0.447   6.964   9.982 -0.3510  0.3084  0.2271
  859MOL0     C15857  -0.526   6.847   9.959 -0.8231 -0.4986  0.2496
  859MOL0     C15858  -0.545   6.799   9.828 -0.4581  0.1557 -0.0929
  859MOL0     C15859  -0.634   6.676   9.816 -1.3776 -0.1971 -0.2972
  859MOL0     O15860  -0.726   6.654   9.921 -0.0182  0.1632 -0.1525
  859MOL0     C15861  -0.795   6.534   9.925  0.6088  0.6660  0.2998
  859MOL0     C15862  -0.884   6.493   9.825 -0.0045  0.1033 -1.2029
  859MOL0     C15863  -0.952   6.370   9.843  0.4640 -0.7587 -0.6097
  859MOL0     C15864  -0.941   6.299   9.966 -0.6624 -0.4511  0.7670
  859MOL0     O15865  -1.007   6.187   9.972  1.0544 -0.5551 -0.5192
  859MOL0     C15866  -0.938   6.071  10.004 -0.2855  0.0741  1.0615
  859MOL0     C15867  -1.034   5.951  10.035 -0.4211  0.4387 -0.9406
  859MOL0     C15868  -1.156   5.995  10.124 -0.8032 -0.1790 -0.2977
  859MOL0     C15869  -1.108   6.014  10.266 -0.0779 -0.5148 -0.6470
  859MOL0     C15870  -1.222   6.036  10.368 -1.0270  0.5701  0.1424
  859MOL0     C15871  -1.183   6.056  10.505  0.1248 -0.1323 -0.0330
  859MOL0     C15872  -1.097   6.182  10.535  0.9616  1.3801 -0.9112
  859MOL0     C15873  -1.033   6.164  10.665  0.0248 -0.0542  0.1400
  859MOL0    Cl15874  -1.131   6.100  10.803 -0.0537 -0.1407 -0.1185
  859MOL0     C15875  -0.848   6.345  10.061  0.5191  0.0956  0.0227
  859MOL0     C15876  -0.770   6.457  10.037 -0.0440  0.2323  0.0716
  859MOL0     O15877  -0.609   6.601   9.725  0.0640  0.1815  0.2236
  859MOL0     C15878  -0.472   6.859   9.727 -0.1262  0.3879  0.2051
  859MOL0     C15879  -0.389   6.964   9.754 -0.0718  0.1457 -0.1120
  859MOL0     N15880  -0.287   7.701   9.860  0.7443 -0.3207  0.2830
  859MOL0     N15881  -0.240   7.813   9.906  0.1742 -0.6944  0.7647
  859MOL0     C15882   0.415   7.318  10.226 -0.7823 -0.1831 -0.2054
  859MOL0     C15883   0.341   7.207  10.242  0.4699  1.0582 -0.5484
  859MOL0     C15884   0.307   6.739  10.264 -1.3561 -0.1978 -0.2442
  859MOL0     C15885   0.234   6.739  10.387  0.2844  0.1611 -0.4996
  859MOL0     C15886   0.163   6.619  10.435 -0.5564 -0.0421  0.2825
  859MOL0     C15887   0.169   6.507  10.359 -0.5307  0.0227  0.2574
  859MOL0     O15888   0.095   6.400  10.399 -0.4449 -0.0313 -0.1309
  859MOL0     C15889   0.102   6.354  10.528 -0.3800  0.6026 -0.9750
  859MOL0     C15890  -0.041   6.331  10.594  0.6308 -0.3454 -0.7754
  859MOL0     C15891  -0.128   6.448  10.556 -0.0246  0.2342  0.1137
  859MOL0     C15892  -0.273   6.419  10.597  0.9655 -0.1972  0.0663
  859MOL0     C15893  -0.363   6.540  10.586 -0.3497  0.8002  0.6719
  859MOL0     C15894  -0.435   6.636  10.568  0.2630  0.0064 -0.3700
  859MOL0     C15895   0.247   6.507  10.239  0.7281  1.3418 -0.3984
  859MOL0     C15896   0.317   6.617  10.190 -0.8464  0.5189 -0.5814
  859MOL0     C15897   0.386   6.605  10.062 -0.8499  0.1175 -0.0501
  859MOL0     H15898   0.595   7.008  10.369  2.5379  0.8575  0.4235
  859MOL0     H15899   0.702   7.217  10.365 -2.0771  0.7413  3.0578
  859MOL0     H15900   0.437   7.556  10.320  1.3595  0.2276  2.6066
  859MOL0     H15901   0.581   7.645  10.340 -0.3965  0.4448 -0.4489
  859MOL0     H15902   0.518   7.524  10.067 -0.9627 -0.5617  0.7527
  859MOL0     H15903   0.622   7.669  10.107  0.3282 -0.3423 -0.0384
  859MOL0     H15904   0.436   7.815  10.103 -0.6022  0.4379 -2.5340
  859MOL0     H15905   0.345   7.692  10.199  0.1259 -1.0520 -0.7058
  859MOL0     H15906   0.420   7.700   9.900  0.6363  0.1214 -0.6433
  859MOL0     H15907   0.304   7.580   9.973  3.7861 -0.8711 -1.0902
  859MOL0     H15908   0.303   7.894   9.949  2.0205 -0.7029  2.3942
  859MOL0     H15909   0.217   7.774   9.845 -2.5376  0.5073  1.1343
  859MOL0     H15910   0.061   7.700  10.005  1.5214 -0.9956 -1.3835
  859MOL0     H15911   0.150   7.770  10.135 -2.9112 -0.3582  1.3048
  859MOL0     H15912   0.094   8.004  10.057 -2.7428  1.2755  1.2446
  859MOL0     H15913  -0.058   7.912  10.083 -0.0337  1.5519  1.2630
  859MOL0     H15914  -0.078   8.027   9.874 -0.9346 -0.7150  4.3375
  859MOL0     H15915   0.063   7.925   9.811 -0.2636 -3.2224 -0.7899
  859MOL0     H15916   0.002   7.707   9.716  0.4008  1.0823  1.1911
  859MOL0     H15917  -0.261   7.536   9.606 -1.9355  2.6948  1.0980
  859MOL0     H15918  -0.124   7.458   9.696 -0.8256 -2.7359  2.6562
  859MOL0     H15919  -0.410   7.444   9.798  0.2713  0.2552  0.4192
  859MOL0     H15920  -0.313   7.316   9.726 -0.5331  0.5109 -1.2607
  859MOL0     H15921  -0.280   7.425   9.996  2.9169  1.1211 -0.8526
  859MOL0     H15922  -0.158   7.330   9.902 -0.0100  0.8064 -1.7788
  859MOL0     H15923  -0.443   7.255   9.953  0.2114 -0.4643  1.6400
  859MOL0     H15924  -0.325   7.218  10.061 -1.7028 -1.2891 -0.9413
  859MOL0     H15925  -0.438   6.999  10.085  2.0318  0.7545 -0.0711
  859MOL0     H15926  -0.572   6.817  10.053  0.1817 -0.4163  0.7785
  859MOL0     H15927  -0.903   6.568   9.749 -0.1748 -1.7876 -3.1109
  859MOL0     H15928  -1.029   6.333   9.776 -1.3837  0.3663  0.7936
  859MOL0     H15929  -0.874   6.053   9.917  1.4800  0.5362  2.2103
  859MOL0     H15930  -0.868   6.096  10.085  1.9175  2.3288 -1.3701
  859MOL0     H15931  -1.066   5.913   9.938  0.8791 -0.3906 -1.0850
  859MOL0     H15932  -0.986   5.865  10.083 -2.8842 -0.5570 -0.0975
  859MOL0     H15933  -1.192   6.091  10.086 -2.8874 -1.9010 -3.0989
  859MOL0     H15934  -1.240   5.926  10.117 -1.4410  0.5773 -0.2652
  859MOL0     H15935  -1.025   6.085  10.275 -0.2737 -0.3998  0.2785
  859MOL0     H15936  -1.061   5.918  10.287  2.0436  1.0485  2.4808
  859MOL0     H15937  -1.281   5.944  10.366 -0.4006  0.0753  2.1385
  859MOL0     H15938  -1.285   6.125  10.354 -0.6493  0.6688 -1.0183
  859MOL0     H15939  -1.268   6.049  10.573  0.9707 -0.4103  1.0243
  859MOL0     H15940  -1.118   5.974  10.536  0.3423 -0.0056 -0.1509
  859MOL0     H15941  -1.157   6.272  10.552  0.5841  0.6500  2.3815
  859MOL0     H15942  -1.019   6.196  10.459  2.7268  0.6769  0.6808
  859MOL0     H15943  -0.955   6.087  10.664 -1.4287 -1.5935  0.4394
  859MOL0     H15944  -0.983   6.258  10.692  1.2128  0.3904 -3.1194
  859MOL0     H15945  -0.848   6.297  10.158 -0.2932 -4.4032 -1.9596
  859MOL0     H15946  -0.697   6.481  10.113  4.1393 -0.8377 -3.1915
  859MOL0     H15947  -0.493   6.821   9.628  2.2079  1.8859 -0.9504
  859MOL0     H15948  -0.324   7.013   9.681  0.5332  2.5777  1.9291
  859MOL0     H15949   0.361   7.408  10.196 -0.0845  0.1336 -0.5249
  859MOL0     H15950   0.238   7.214  10.209 -0.1739 -2.4202  0.2986
  859MOL0     H15951   0.219   6.828  10.447 -1.5883  0.5076 -1.3994
  859MOL0     H15952   0.099   6.621  10.522 -0.8061  0.2632  0.0923
  859MOL0     H15953   0.162   6.419  10.593  1.1910 -0.3198 -1.4556
  859MOL0     H15954   0.152   6.257  10.517  1.3819  1.1273  1.5007
  859MOL0     H15955  -0.036   6.320  10.702  0.4462 -1.0853 -0.8436
  859MOL0     H15956  -0.082   6.240  10.549 -1.2380  0.8928 -1.6973
  859MOL0     H15957  -0.130   6.478  10.451  2.4630 -1.3589 -0.4628
  859MOL0     H15958  -0.096   6.526  10.625 -1.7128  0.9688  0.1237
  859MOL0     H15959  -0.327   6.341  10.542  1.4111 -0.1757 -0.4065
  859MOL0     H15960  -0.282   6.386  10.701 -2.0310 -2.6183 -0.8258
  859MOL0     H15961  -0.519   6.698  10.544 -1.2971 -1.8785 -0.0514
  859MOL0     H15962   0.245   6.414  10.184  1.1003  0.3512  1.1750
  859MOL0     H15963   0.352   6.693  10.007 -4.3079 -0.6931  0.5896
  859MOL0     H15964   0.495   6.599  10.074 -1.0714 -2.8677  1.3533
  859MOL0     H15965   0.347   6.528   9.996  0.9213 -3.0949  2.3609
  860MOL0     O15966  11.277   8.587  10.990 -0.8294  0.3587 -0.0144
  860MOL0     C15967  11.255   8.474  11.043  0.0187  0.4662  0.3030
  860MOL0     O15968  11.336   8.401  11.134  0.4215 -0.7778  0.8031
  860MOL0     C15969  11.444   8.469  11.169  0.4161  0.4053 -1.0424
  860MOL0     C15970  11.460   8.531  11.291  0.8402  0.3958  0.1120
  860MOL0     C15971  11.574   8.603  11.326 -0.4148 -0.4794 -0.0102
  860MOL0     C15972  11.683   8.602  11.242  0.0761  0.1950  0.1634
  860MOL0     O15973  11.804   8.661  11.277  0.6089 -0.1368  0.2027
  860MOL0     C15974  11.808   8.750  11.394  0.0086 -0.4053 -0.3134
  860MOL0     C15975  11.947   8.810  11.397 -1.2017  0.2370 -0.4490
  860MOL0     C15976  12.062   8.710  11.434  0.6986  0.3591 -0.9512
  860MOL0     C15977  12.143   8.659  11.316  0.5571 -0.0494 -0.5502
  860MOL0     C15978  12.267   8.587  11.371 -0.3990 -0.3739  0.4334
  860MOL0     C15979  12.348   8.498  11.269  1.0796 -0.4029 -0.1211
  860MOL0     C15980  12.265   8.376  11.221 -0.9192 -0.1435 -0.0430
  860MOL0     C15981  12.370   8.293  11.141  0.0366 -0.3711 -0.7163
  860MOL0     N15982  12.325   8.156  11.108 -0.3846  0.2698 -0.1158
  860MOL0     C15983  12.278   8.064  11.196  0.0331  0.6495  0.2149
  860MOL0     C15984  12.246   7.956  11.126  0.4739 -0.6707  0.0331
  860MOL0     C15985  12.193   7.826  11.170 -0.9744 -1.0104 -0.0549
  860MOL0     C15986  12.282   7.754  11.265 -0.0920 -0.1694  0.0604
  860MOL0     C15987  12.409   7.696  11.197  0.7765 -0.1995 -0.0046
  860MOL0     C15988  12.490   7.615  11.309  0.0328 -0.0933 -0.4521
  860MOL0     O15989  12.414   7.508  11.375  0.3987 -0.4655 -0.5549
  860MOL0     C15990  12.479   7.424  11.465  0.1605  0.6909  0.2075
  860MOL0     C15991  12.409   7.307  11.500  0.1993  0.0404  0.7265
  860MOL0     C15992  12.466   7.210  11.589 -0.1949 -0.7915 -0.4686
  860MOL0     C15993  12.582   7.243  11.665  0.2208 -0.2488  0.0645
  860MOL0     C15994  12.646   7.137  11.757 -0.4311 -0.8554 -0.1134
  860MOL0     O15995  12.612   7.005  11.722 -0.6957  0.0429 -0.4554
  860MOL0     C15996  12.652   6.890  11.792  0.6159  0.8952  0.1808
  860MOL0     C15997  12.743   6.871  11.898 -0.4611  0.1730 -0.0037
  860MOL0     C15998  12.766   6.732  11.940  0.2810 -1.6553 -0.0264
  860MOL0     C15999  12.702   6.625  11.888  0.4161  0.3744 -0.5200
  860MOL0     O16000  12.708   6.494  11.936  0.5250 -0.2010 -0.0266
  860MOL0     C16001  12.795   6.460  12.054  0.3548 -0.4047 -0.6354
  860MOL0     C16002  12.944   6.447  12.015  0.0106 -0.2742  0.0989
  860MOL0     C16003  13.011   6.460  12.151 -0.0122 -0.2284  0.4266
  860MOL0     C16004  13.155   6.424  12.130  0.5039 -0.5328 -1.2879
  860MOL0     C16005  13.237   6.539  12.062  0.2901 -0.3226 -0.2707
  860MOL0     C16006  13.268   6.658  12.158  0.0358  0.1339  0.7866
  860MOL0     C16007  13.349   6.610  12.283  0.2179  0.2227 -0.0362
  860MOL0     C16008  13.398   6.730  12.367  0.4855  0.4096  0.3377
  860MOL0    Cl16009  13.442   6.675  12.530  0.0856 -0.2820 -0.2505
  860MOL0     C16010  12.604   6.650  11.794 -0.2889  0.6211  0.4237
  860MOL0     C16011  12.587   6.778  11.735  0.1045 -0.5376  0.4940
  860MOL0     O16012  12.705   7.180  11.857 -0.3471  0.6189 -0.4156
  860MOL0     C16013  12.638   7.373  11.641  0.0180  0.8336 -0.5209
  860MOL0     C16014  12.602   7.455  11.532  0.1157 -0.2381 -0.5160
  860MOL0     N16015  12.262   7.978  10.997  0.2323 -0.5199 -0.3742
  860MOL0     N16016  12.324   8.100  10.983  0.7200  0.1902  0.0002
  860MOL0     C16017  11.669   8.538  11.121  0.1718  0.3524 -0.0582
  860MOL0     C16018  11.557   8.465  11.090  0.2855 -0.2431  0.1906
  860MOL0     C16019  11.115   8.419  11.025 -0.2389 -0.5681 -0.0612
  860MOL0     C16020  11.059   8.346  11.132  0.1677 -0.1266  0.3485
  860MOL0     C16021  10.924   8.326  11.127  0.2608  0.8715 -0.3469
  860MOL0     C16022  10.838   8.352  11.023  0.3946 -0.3407  0.3758
  860MOL0     O16023  10.703   8.325  11.023  0.3628 -0.5077  0.5825
  860MOL0     C16024  10.651   8.281  11.145 -0.1754 -0.0779  0.1788
  860MOL0     C16025  10.504   8.312  11.115  0.7228  0.2618 -0.5724
  860MOL0     C16026  10.409   8.267  11.230 -0.6129 -0.3224  0.4007
  860MOL0     C16027  10.377   8.384  11.320  0.7481  0.3895 -1.0735
  860MOL0     C16028  10.310   8.325  11.439 -0.7666 -0.3145 -0.4541
  860MOL0     C16029  10.255   8.263  11.532 -0.3862 -0.0313 -0.5587
  860MOL0     C16030  10.902   8.396  10.908  0.3467 -0.4082 -0.2183
  860MOL0     C16031  11.038   8.440  10.906 -0.1112 -0.3244 -0.0332
  860MOL0     C16032  11.090   8.507  10.786 -0.0183 -0.7816 -0.0481
  860MOL0     H16033  11.385   8.517  11.368  2.9838 -3.1687  1.7918
  860MOL0     H16034  11.581   8.648  11.424  3.1818  2.9881 -1.5896
  860MOL0     H16035  11.736   8.832  11.390 -1.0574 -1.3814 -1.9446
  860MOL0     H16036  11.788   8.688  11.482 -1.3785  0.1026 -0.2444
  860MOL0     H16037  11.944   8.885  11.477 -3.2435  0.3280 -0.5677
  860MOL0     H16038  11.975   8.867  11.308  0.3588 -0.3633 -0.3682
  860MOL0     H16039  12.021   8.619  11.478  1.2901 -0.9316 -2.9105
  860MOL0     H16040  12.129   8.747  11.512 -0.0246  0.1867 -0.2332
  860MOL0     H16041  12.083   8.588  11.258  2.8941 -2.1098 -0.6290
  860MOL0     H16042  12.165   8.742  11.248 -0.0234 -0.3545 -1.1247
  860MOL0     H16043  12.333   8.666  11.410 -1.6428  1.1373 -0.3946
  860MOL0     H16044  12.247   8.527  11.461  2.3050 -0.3149  1.1595
  860MOL0     H16045  12.377   8.556  11.181  1.7158  1.1428  1.0721
  860MOL0     H16046  12.436   8.457  11.321  0.7303 -0.8888  0.0926
  860MOL0     H16047  12.183   8.405  11.155  1.0153  1.8941 -1.6970
  860MOL0     H16048  12.252   8.315  11.310  1.2342 -0.3471  0.1959
  860MOL0     H16049  12.384   8.344  11.045  0.9419  2.7902  0.9392
  860MOL0     H16050  12.462   8.284  11.199 -1.1741 -1.6533  1.1263
  860MOL0     H16051  12.258   8.071  11.302 -4.6377  0.5720 -0.4462
  860MOL0     H16052  12.100   7.850  11.225  1.2485  3.9280  2.2496
  860MOL0     H16053  12.181   7.757  11.086  2.0474 -1.5900 -0.1097
  860MOL0     H16054  12.323   7.821  11.341  3.7474 -1.7817 -0.3429
  860MOL0     H16055  12.221   7.678  11.314  0.9842 -2.1471 -1.4991
  860MOL0     H16056  12.467   7.775  11.149 -1.0427  1.9469  1.1230
  860MOL0     H16057  12.372   7.635  11.114 -1.7804  0.3131  0.6746
  860MOL0     H16058  12.509   7.684  11.392 -2.4898  3.2894 -2.4040
  860MOL0     H16059  12.583   7.577  11.265 -0.5287 -0.8792 -0.9782
  860MOL0     H16060  12.312   7.290  11.455  0.0952  0.6476  0.7244
  860MOL0     H16061  12.427   7.110  11.603  0.6718 -1.6890 -3.7415
  860MOL0     H16062  12.790   6.958  11.944 -2.1698  1.6133 -0.8415
  860MOL0     H16063  12.832   6.719  12.025  0.3687 -3.3736 -0.3294
  860MOL0     H16064  12.788   6.529  12.139 -1.3231  1.0690 -1.9092
  860MOL0     H16065  12.764   6.362  12.092  0.5919 -0.2043  0.1025
  860MOL0     H16066  12.968   6.353  11.964 -2.2785 -1.2222  0.6320
  860MOL0     H16067  12.967   6.529  11.947  2.1352 -1.5480 -0.8185
  860MOL0     H16068  12.995   6.561  12.188  2.1541  0.2617  0.1310
  860MOL0     H16069  12.967   6.382  12.214 -1.3704  0.1048 -0.0728
  860MOL0     H16070  13.163   6.343  12.058 -3.1814 -1.2053 -1.1586
  860MOL0     H16071  13.201   6.392  12.224  0.4786 -1.3573 -1.5527
  860MOL0     H16072  13.185   6.579  11.974  0.4555  0.0088 -0.2189
  860MOL0     H16073  13.329   6.490  12.029  1.1886 -0.2602  1.9655
  860MOL0     H16074  13.315   6.742  12.106  0.6487 -0.7028 -0.0595
  860MOL0     H16075  13.175   6.703  12.192 -0.9328 -0.0102 -1.5215
  860MOL0     H16076  13.431   6.545  12.250 -2.1389 -1.7708 -2.4102
  860MOL0     H16077  13.288   6.545  12.346  1.2714  0.2097  1.0187
  860MOL0     H16078  13.483   6.777  12.317  1.1525  1.5349  2.4389
  860MOL0     H16079  13.330   6.816  12.372  1.7482  1.4538  0.0190
  860MOL0     H16080  12.544   6.563  11.767 -1.3838  0.3500  3.3883
  860MOL0     H16081  12.516   6.793  11.653  0.4871 -0.6911  0.1330
  860MOL0     H16082  12.727   7.399  11.698 -0.7190  0.6603  0.7676
  860MOL0     H16083  12.657   7.543  11.500 -1.6157  0.8124 -0.7616
  860MOL0     H16084  11.754   8.533  11.054  0.8040  1.1638  0.6699
  860MOL0     H16085  11.534   8.400  11.006  0.4839 -2.3934  1.7123
  860MOL0     H16086  11.115   8.313  11.218 -1.8417 -1.5159  1.2272
  860MOL0     H16087  10.887   8.283  11.220 -2.4743  0.6232 -1.4532
  860MOL0     H16088  10.676   8.341  11.233 -0.0384 -1.4404  1.0991
  860MOL0     H16089  10.688   8.179  11.158  1.9365  0.3451 -1.8837
  860MOL0     H16090  10.477   8.273  11.016  2.9003  2.2199 -2.0446
  860MOL0     H16091  10.486   8.420  11.111 -2.6701 -0.2405 -1.7191
  860MOL0     H16092  10.453   8.193  11.297 -0.9155 -1.1031 -0.2589
  860MOL0     H16093  10.325   8.221  11.178 -0.2466  1.5885 -2.1106
  860MOL0     H16094  10.464   8.449  11.332  0.2191  0.7380  1.4010
  860MOL0     H16095  10.300   8.450  11.280  0.8872  1.6765  0.6779
  860MOL0     H16096  10.218   8.211  11.618  0.3473 -0.8018 -0.6941
  860MOL0     H16097  10.851   8.402  10.812 -1.6060 -0.9874  0.7456
  860MOL0     H16098  11.193   8.476  10.767 -0.0438 -1.6717  1.1432
  860MOL0     H16099  11.027   8.492  10.698 -2.1488  2.0371  0.8312
  860MOL0     H16100  11.085   8.616  10.794 -1.4152 -0.4673 -3.4588
  861MOL0     O16101   5.835   5.945   2.802 -0.4041 -0.2358  0.0262
  861MOL0     C16102   5.835   5.980   2.681  0.1843  0.2579  0.4051
  861MOL0     O16103   5.947   5.996   2.603  0.4009 -0.8444 -0.0760
  861MOL0     C16104   6.064   5.998   2.673 -0.4941  1.1377  0.3699
  861MOL0     C16105   6.122   6.110   2.735 -0.1197  0.4524 -0.6244
  861MOL0     C16106   6.240   6.093   2.805  0.6405 -0.5544 -0.6364
  861MOL0     C16107   6.311   5.975   2.809  0.4940 -0.2563 -0.2232
  861MOL0     O16108   6.421   5.978   2.885  0.3004 -0.0171 -0.8517
  861MOL0     C16109   6.528   5.907   2.826 -0.1940 -1.1014  0.3278
  861MOL0     C16110   6.655   5.907   2.908  1.2420 -0.3775 -0.1130
  861MOL0     C16111   6.757   5.831   2.828  0.3722  0.8463 -0.3577
  861MOL0     C16112   6.842   5.910   2.731 -0.0797  0.0925 -0.4017
  861MOL0     C16113   6.878   5.835   2.607 -0.4473  0.3761  0.1172
  861MOL0     C16114   6.964   5.707   2.627 -0.1761 -0.8256  0.0091
  861MOL0     C16115   7.088   5.704   2.536  0.3428  0.4974  0.2390
  861MOL0     C16116   7.205   5.773   2.594 -0.7145  0.8389 -0.5268
  861MOL0     N16117   7.323   5.739   2.508  1.1909  0.9210 -0.8744
  861MOL0     C16118   7.384   5.817   2.413 -0.7346 -0.5118 -0.1499
  861MOL0     C16119   7.488   5.745   2.363  0.7573 -0.0758 -0.0531
  861MOL0     C16120   7.584   5.791   2.254  0.3231  0.3301  0.9531
  861MOL0     C16121   7.730   5.771   2.302  0.7630  0.8035  0.6399
  861MOL0     C16122   7.829   5.848   2.218  0.5827 -0.1584  0.1386
  861MOL0     C16123   7.975   5.819   2.255  0.1678 -0.4176 -0.4629
  861MOL0     O16124   7.993   5.847   2.395  0.0216  0.2619  0.3683
  861MOL0     C16125   8.123   5.840   2.448  0.9051  0.0043 -0.0224
  861MOL0     C16126   8.231   5.808   2.366  0.9621 -0.1709 -0.1321
  861MOL0     C16127   8.353   5.796   2.421 -0.5242  0.5089  1.1834
  861MOL0     C16128   8.378   5.824   2.556 -0.1816  0.9961  0.4883
  861MOL0     C16129   8.515   5.818   2.620  0.3371  0.0148 -0.1557
  861MOL0     O16130   8.523   5.806   2.756 -0.1555 -0.2538 -0.5949
  861MOL0     C16131   8.653   5.822   2.814  0.7497 -0.2821  0.4441
  861MOL0     C16132   8.678   5.776   2.944  0.1248  1.3075 -0.0089
  861MOL0     C16133   8.805   5.763   2.997 -0.4715 -0.8046  0.1326
  861MOL0     C16134   8.908   5.821   2.936 -1.2097 -0.7110  0.1470
  861MOL0     O16135   9.031   5.812   3.002 -0.8582  0.0223  0.0164
  861MOL0     C16136   9.139   5.760   2.921 -0.2445 -0.6656 -0.0980
  861MOL0     C16137   9.281   5.804   2.958  0.3158  0.2561 -0.6367
  861MOL0     C16138   9.310   5.767   3.105  0.5811  0.6758  0.3105
  861MOL0     C16139   9.465   5.774   3.121 -0.0803 -0.0167  0.3127
  861MOL0     C16140   9.500   5.703   3.256 -0.5371  0.0834 -0.3555
  861MOL0     C16141   9.651   5.670   3.284 -0.0006  0.4056  0.3383
  861MOL0     C16142   9.729   5.801   3.310 -0.1224  0.0190 -0.8589
  861MOL0     C16143   9.873   5.789   3.297  0.1109 -0.2144 -0.5597
  861MOL0    Cl16144   9.949   5.958   3.342 -0.8082  0.2081 -0.0781
  861MOL0     C16145   8.891   5.891   2.820  0.8863  0.7068  0.3971
  861MOL0     C16146   8.763   5.885   2.752  0.9186 -0.1774 -0.2334
  861MOL0     O16147   8.607   5.807   2.536  0.2066  0.3474  0.2797
  861MOL0     C16148   8.264   5.841   2.635  0.5297  0.3949  0.2804
  861MOL0     C16149   8.136   5.856   2.581 -0.4350 -0.2873  0.0101
  861MOL0     N16150   7.489   5.627   2.430 -0.1732 -0.5873 -0.2343
  861MOL0     N16151   7.393   5.620   2.521 -0.8511 -0.0702 -0.4028
  861MOL0     C16152   6.259   5.860   2.740 -0.0356  0.3254  0.4177
  861MOL0     C16153   6.141   5.875   2.664  0.1273 -0.2718 -0.1241
  861MOL0     C16154   5.705   5.997   2.612 -0.4916  0.3264  0.6819
  861MOL0     C16155   5.707   6.013   2.472 -0.2519  0.1750  0.5802
  861MOL0     C16156   5.583   5.999   2.405 -0.2464 -0.2662 -0.0965
  861MOL0     C16157   5.461   5.971   2.463 -0.0044  0.7328  0.1793
  861MOL0     O16158   5.351   5.960   2.376 -0.3153 -0.5696 -0.2242
  861MOL0     C16159   5.224   5.922   2.431  0.3198  0.0336  0.6776
  861MOL0     C16160   5.223   5.789   2.510 -0.3247  0.6508 -1.0915
  861MOL0     C16161   5.161   5.678   2.417 -0.2169  1.2434  0.0495
  861MOL0     C16162   5.012   5.651   2.446  0.0634 -0.4454 -0.7443
  861MOL0     C16163   4.942   5.591   2.337  0.2954  0.6246 -0.0510
  861MOL0     C16164   4.876   5.550   2.241 -0.4729 -0.3722 -0.2003
  861MOL0     C16165   5.452   5.970   2.601 -0.9903  0.2481 -0.5108
  861MOL0     C16166   5.577   5.981   2.679 -0.0303  0.1574 -0.5950
  861MOL0     C16167   5.555   5.987   2.835 -0.5838  0.5922  0.7130
  861MOL0     H16168   6.082   6.210   2.724  1.2239  0.8983 -1.8420
  861MOL0     H16169   6.278   6.179   2.859 -2.4375  1.6591 -1.6973
  861MOL0     H16170   6.498   5.802   2.814 -0.5582 -1.0819  1.0356
  861MOL0     H16171   6.565   5.942   2.729  0.3810 -1.2174  0.5048
  861MOL0     H16172   6.657   5.867   3.010  3.5047  2.6433  1.1607
  861MOL0     H16173   6.686   6.011   2.923 -0.8534  0.2701  0.0501
  861MOL0     H16174   6.719   5.750   2.765  0.0137  1.0192 -0.3679
  861MOL0     H16175   6.822   5.782   2.900 -0.0808  0.6187 -0.0998
  861MOL0     H16176   6.795   6.007   2.713  1.5744  1.3675  1.6874
  861MOL0     H16177   6.934   5.944   2.780  0.4495 -1.4076 -0.2985
  861MOL0     H16178   6.784   5.798   2.564  0.0179 -0.5389 -0.1471
  861MOL0     H16179   6.935   5.911   2.553  0.8418  1.2043  2.5098
  861MOL0     H16180   6.991   5.703   2.733  0.7463 -0.0967 -0.1811
  861MOL0     H16181   6.897   5.621   2.616 -0.7997 -0.1164 -2.2427
  861MOL0     H16182   7.058   5.733   2.435 -1.2012 -2.2755 -0.1927
  861MOL0     H16183   7.108   5.596   2.529  0.9867  0.7023 -2.3106
  861MOL0     H16184   7.193   5.881   2.587  0.3005  0.8779 -2.0320
  861MOL0     H16185   7.219   5.741   2.698 -0.1621  1.3100 -0.4534
  861MOL0     H16186   7.356   5.917   2.383 -1.6221  0.0687  2.3648
  861MOL0     H16187   7.566   5.725   2.168  0.3185  0.8191  0.5760
  861MOL0     H16188   7.567   5.891   2.214  0.5612 -0.1266 -0.3471
  861MOL0     H16189   7.758   5.795   2.405  4.7148  1.2300 -0.3774
  861MOL0     H16190   7.744   5.663   2.288 -3.1459  0.3769 -1.7494
  861MOL0     H16191   7.802   5.954   2.225 -1.1902 -0.6588  1.6288
  861MOL0     H16192   7.803   5.825   2.114 -1.4320 -2.1041  1.0024
  861MOL0     H16193   8.037   5.878   2.186  1.2899 -0.5492  0.3908
  861MOL0     H16194   7.989   5.713   2.235 -3.5281 -1.3985  1.3515
  861MOL0     H16195   8.231   5.774   2.263  1.5706 -0.2209 -0.1147
  861MOL0     H16196   8.430   5.773   2.349 -1.3204 -0.5275  0.6299
  861MOL0     H16197   8.585   5.736   2.986 -1.6375  4.4170 -0.6769
  861MOL0     H16198   8.817   5.709   3.091  0.5544  1.0652  1.1642
  861MOL0     H16199   9.126   5.652   2.906  0.1792 -0.8343  0.6916
  861MOL0     H16200   9.131   5.795   2.818 -0.6921 -0.1612  0.1011
  861MOL0     H16201   9.352   5.762   2.887  0.0364 -0.8173 -0.3135
  861MOL0     H16202   9.294   5.912   2.949  3.7121 -0.2145 -3.7863
  861MOL0     H16203   9.262   5.838   3.173  0.5200  1.7080 -0.7786
  861MOL0     H16204   9.279   5.666   3.130  0.9859  0.5567  0.3428
  861MOL0     H16205   9.495   5.879   3.114 -0.9488  0.1230 -3.1757
  861MOL0     H16206   9.526   5.727   3.043  0.1952  1.8519 -0.6458
  861MOL0     H16207   9.446   5.608   3.262 -2.2521  1.0795  1.6007
  861MOL0     H16208   9.464   5.761   3.342  2.4197  1.8674 -0.2109
  861MOL0     H16209   9.649   5.599   3.367 -0.4231 -1.2265 -1.0059
  861MOL0     H16210   9.705   5.620   3.203  0.7674  3.9775 -1.5374
  861MOL0     H16211   9.712   5.828   3.415 -3.5444 -1.5376 -0.8600
  861MOL0     H16212   9.696   5.883   3.246 -0.3947  0.5946  0.0022
  861MOL0     H16213   9.921   5.718   3.365  0.1005  1.7375  1.6346
  861MOL0     H16214   9.905   5.774   3.194  1.2228  2.2385 -0.6475
  861MOL0     H16215   8.973   5.945   2.772 -2.0716  1.6049 -4.3696
  861MOL0     H16216   8.758   5.936   2.656 -0.8053 -3.4463 -2.0392
  861MOL0     H16217   8.279   5.864   2.740 -0.3457 -1.7383  0.9357
  861MOL0     H16218   8.054   5.862   2.652 -0.5584 -3.2158  0.2592
  861MOL0     H16219   6.298   5.759   2.741 -0.7243  0.0035 -1.6224
  861MOL0     H16220   6.092   5.790   2.617  0.4519 -1.0113  0.8196
  861MOL0     H16221   5.802   6.011   2.421 -0.6387 -2.1643 -0.1673
  861MOL0     H16222   5.590   6.015   2.297 -0.8733 -0.9366 -0.2393
  861MOL0     H16223   5.148   5.934   2.354 -1.7099  0.1883  2.6015
  861MOL0     H16224   5.200   5.995   2.509 -1.2677  1.5267 -1.1016
  861MOL0     H16225   5.169   5.797   2.605  1.4318 -1.0692  0.1500
  861MOL0     H16226   5.323   5.752   2.537 -1.4523 -0.7679  1.6624
  861MOL0     H16227   5.203   5.579   2.438 -1.5575  0.9283  1.4308
  861MOL0     H16228   5.169   5.700   2.310 -2.3648 -1.2731 -0.7371
  861MOL0     H16229   4.987   5.591   2.534 -1.2485  4.1322  2.3664
  861MOL0     H16230   4.970   5.748   2.475  0.9200  0.2097 -1.6417
  861MOL0     H16231   4.832   5.512   2.150 -0.2460 -1.9133  0.3006
  861MOL0     H16232   5.354   5.973   2.649 -0.8405 -0.6840 -0.1416
  861MOL0     H16233   5.462   6.042   2.848 -2.4484 -2.0786 -0.5313
  861MOL0     H16234   5.536   5.887   2.874 -2.9736 -0.0643 -1.8566
  861MOL0     H16235   5.636   6.046   2.881 -0.7311  0.1655  1.5360
  862MOL0     O16236   5.554   8.843   2.663 -1.3670  1.3754  0.0897
  862MOL0     C16237   5.470   8.763   2.689  0.5780 -0.6630  1.0932
  862MOL0     O16238   5.481   8.645   2.764 -0.3353 -0.8588 -0.2849
  862MOL0     C16239   5.602   8.647   2.842 -1.2284 -0.1793 -0.0075
  862MOL0     C16240   5.616   8.739   2.949  0.5692  0.1154 -0.3680
  862MOL0     C16241   5.731   8.725   3.036 -0.4673 -0.6380 -0.2493
  862MOL0     C16242   5.834   8.632   3.006 -0.1088  0.5206 -0.0379
  862MOL0     O16243   5.951   8.611   3.083 -0.3349  1.5495 -0.5435
  862MOL0     C16244   5.959   8.675   3.208  0.3669  0.6708  0.2797
  862MOL0     C16245   6.095   8.645   3.266  1.2217  0.5835 -0.6840
  862MOL0     C16246   6.215   8.706   3.182  0.2457 -0.0610  0.5392
  862MOL0     C16247   6.338   8.617   3.199  0.6382  0.9498  0.0125
  862MOL0     C16248   6.447   8.644   3.090  0.3188  0.5561 -0.1489
  862MOL0     C16249   6.572   8.568   3.120 -0.8052 -0.8222  0.0718
  862MOL0     C16250   6.680   8.601   3.017  0.5860  0.9202 -0.4888
  862MOL0     C16251   6.818   8.539   3.060 -1.0797  0.2568 -1.2722
  862MOL0     N16252   6.876   8.619   3.174 -0.0311 -0.1817 -0.1957
  862MOL0     C16253   6.982   8.711   3.165  0.1916 -1.0431  0.2995
  862MOL0     C16254   6.993   8.761   3.287  0.9134  0.2416 -0.2336
  862MOL0     C16255   7.073   8.883   3.330 -0.1130  0.2019 -0.3304
  862MOL0     C16256   7.220   8.841   3.367  0.8496 -0.0763 -0.1454
  862MOL0     C16257   7.298   8.772   3.266 -0.0353 -0.3775  0.9529
  862MOL0     C16258   7.455   8.794   3.292 -0.8599 -0.5667 -0.1538
  862MOL0     O16259   7.495   8.785   3.152 -0.0414 -0.3652 -0.2849
  862MOL0     C16260   7.565   8.675   3.113  0.2062 -0.5965  0.1040
  862MOL0     C16261   7.698   8.664   3.145  1.2596  0.2870 -0.2979
  862MOL0     C16262   7.766   8.539   3.137 -0.1881  0.3910 -0.6971
  862MOL0     C16263   7.690   8.423   3.092  0.2250 -0.3627 -0.1608
  862MOL0     C16264   7.762   8.298   3.088 -0.0430 -0.6290 -0.4524
  862MOL0     O16265   7.876   8.299   3.162  0.1681 -0.8336 -0.4976
  862MOL0     C16266   7.986   8.220   3.140  0.0347 -0.1319  0.2539
  862MOL0     C16267   8.068   8.202   3.250 -0.0493 -0.1760 -0.2733
  862MOL0     C16268   8.180   8.116   3.238 -0.0110 -0.5456  0.5216
  862MOL0     C16269   8.212   8.055   3.116  0.4388  0.6050 -0.2758
  862MOL0     O16270   8.314   7.965   3.100 -0.4659  0.0920  0.1182
  862MOL0     C16271   8.396   7.922   3.215  0.7918  0.2277 -0.1031
  862MOL0     C16272   8.496   7.814   3.164  0.7975 -0.2069  0.5702
  862MOL0     C16273   8.637   7.865   3.148 -0.4191  0.2907  0.0761
  862MOL0     C16274   8.739   7.751   3.111  0.0913  0.0099  0.1749
  862MOL0     C16275   8.868   7.805   3.046 -1.1949  0.1040  0.4958
  862MOL0     C16276   8.961   7.883   3.143  0.1711 -0.1669 -0.0378
  862MOL0     C16277   9.067   7.967   3.071  0.3645  0.5947  0.4407
  862MOL0     C16278   9.151   8.043   3.183  0.5520 -1.4737  0.1328
  862MOL0    Cl16279   9.257   7.926   3.256  0.3451  0.4993  0.1070
  862MOL0     C16280   8.122   8.072   3.007  0.5036  0.2051 -0.3295
  862MOL0     C16281   8.012   8.149   3.017  0.6930 -0.4845  0.8203
  862MOL0     O16282   7.717   8.198   3.032 -0.3668  0.4664 -0.6186
  862MOL0     C16283   7.560   8.430   3.040  0.7161  0.1685  0.3284
  862MOL0     C16284   7.496   8.556   3.058 -0.6777  0.8456  0.6045
  862MOL0     N16285   6.901   8.708   3.371 -0.9266  0.3011 -0.2122
  862MOL0     N16286   6.835   8.613   3.306  0.4439 -0.3084  0.0464
  862MOL0     C16287   5.825   8.557   2.880  0.1024  0.6769  0.0913
  862MOL0     C16288   5.712   8.573   2.800 -0.5723  0.2054 -0.4377
  862MOL0     C16289   5.339   8.794   2.620 -0.0189  0.6985 -0.4089
  862MOL0     C16290   5.334   8.887   2.515  0.0624  0.0375  0.6724
  862MOL0     C16291   5.217   8.924   2.450  0.6233  0.3285 -0.0722
  862MOL0     C16292   5.099   8.860   2.481 -0.3460  0.8105 -1.2031
  862MOL0     O16293   4.986   8.896   2.406 -0.0660 -0.2501 -0.7734
  862MOL0     C16294   4.850   8.871   2.443  0.0405  0.4349  0.6354
  862MOL0     C16295   4.805   8.970   2.552 -0.7693 -0.4957 -0.0467
  862MOL0     C16296   4.789   9.111   2.509  0.2268 -0.3127 -0.4521
  862MOL0     C16297   4.646   9.124   2.433  0.6018 -0.5639 -0.1335
  862MOL0     C16298   4.538   9.123   2.532 -0.0937 -0.5040 -0.0330
  862MOL0     C16299   4.453   9.148   2.616 -0.5525  0.7436 -0.8762
  862MOL0     C16300   5.103   8.751   2.572 -0.9243 -0.1635  0.6868
  862MOL0     C16301   5.225   8.712   2.640  0.7683 -0.7550 -0.2097
  862MOL0     C16302   5.222   8.595   2.733 -0.4667  0.6195  0.1012
  862MOL0     H16303   5.537   8.814   2.951  0.8331  0.6397 -3.6993
  862MOL0     H16304   5.727   8.796   3.118 -1.7137 -1.1876  0.1897
  862MOL0     H16305   5.943   8.783   3.204 -0.9110  0.6701  2.9786
  862MOL0     H16306   5.878   8.649   3.277  1.6126 -0.4962  1.3675
  862MOL0     H16307   6.107   8.537   3.276 -1.4342  0.4268  3.1566
  862MOL0     H16308   6.113   8.681   3.368 -3.5713 -4.9934  2.7785
  862MOL0     H16309   6.231   8.809   3.215 -0.6729  0.3751 -0.3195
  862MOL0     H16310   6.184   8.711   3.077  1.4149 -1.8175  0.0710
  862MOL0     H16311   6.390   8.638   3.294  0.5293  2.4629 -0.2429
  862MOL0     H16312   6.303   8.513   3.193 -1.0145  1.5539 -1.6180
  862MOL0     H16313   6.406   8.625   2.990 -3.2623  0.8295  1.1217
  862MOL0     H16314   6.472   8.751   3.090  0.8906  0.5081 -3.0665
  862MOL0     H16315   6.612   8.603   3.216  2.5505 -1.3484 -1.0324
  862MOL0     H16316   6.559   8.460   3.123  3.9658 -1.5806  1.3846
  862MOL0     H16317   6.684   8.710   3.007 -0.7050  1.4816  3.3108
  862MOL0     H16318   6.650   8.549   2.926 -1.4578 -4.5733  2.7731
  862MOL0     H16319   6.795   8.439   3.096  2.3624 -0.1170  0.3529
  862MOL0     H16320   6.891   8.533   2.979 -1.8220 -0.6712 -1.8845
  862MOL0     H16321   7.030   8.732   3.070  2.4873  1.2255  1.8452
  862MOL0     H16322   7.058   8.966   3.261 -3.9522 -0.9319 -1.1035
  862MOL0     H16323   7.026   8.915   3.423  1.5349 -1.2274  1.0575
  862MOL0     H16324   7.265   8.938   3.390  0.4096 -0.0810  0.7593
  862MOL0     H16325   7.225   8.782   3.459 -2.6031 -1.7605 -0.8736
  862MOL0     H16326   7.261   8.797   3.166 -1.7989 -1.8174  1.1880
  862MOL0     H16327   7.289   8.663   3.273  2.4478 -0.7748 -0.9144
  862MOL0     H16328   7.492   8.708   3.349  2.3988  0.2091 -0.8670
  862MOL0     H16329   7.477   8.890   3.339 -2.4647 -0.9526  1.4910
  862MOL0     H16330   7.751   8.743   3.198  2.3908 -0.9779  0.5063
  862MOL0     H16331   7.869   8.530   3.168  0.1411  0.4167 -1.7229
  862MOL0     H16332   8.051   8.245   3.348 -0.5689  3.0978 -1.6664
  862MOL0     H16333   8.240   8.091   3.325 -0.0309  0.9841  0.9958
  862MOL0     H16334   8.446   8.001   3.271 -1.5592  2.0237 -0.3646
  862MOL0     H16335   8.329   7.867   3.283 -2.4507  0.5955 -2.7369
  862MOL0     H16336   8.490   7.743   3.247  1.2067 -0.1700  0.6319
  862MOL0     H16337   8.470   7.771   3.067 -0.4232 -1.9837  1.6240
  862MOL0     H16338   8.644   7.947   3.076 -0.0602 -0.2286 -0.4990
  862MOL0     H16339   8.667   7.916   3.240 -0.8601 -2.2393  1.7038
  862MOL0     H16340   8.690   7.687   3.038 -1.9469  2.9928 -1.2822
  862MOL0     H16341   8.756   7.696   3.204  0.7751 -0.5442 -0.2714
  862MOL0     H16342   8.842   7.869   2.961  0.0718  1.1131  0.8546
  862MOL0     H16343   8.928   7.720   3.011 -3.7456 -1.0916 -1.3601
  862MOL0     H16344   8.901   7.952   3.202  1.5371  1.0744 -0.0557
  862MOL0     H16345   9.011   7.820   3.218 -3.5511 -1.7261  1.3960
  862MOL0     H16346   9.007   8.039   3.014  0.4842  0.7157  0.4682
  862MOL0     H16347   9.118   7.902   2.998  0.4322  0.3497  0.7060
  862MOL0     H16348   9.209   8.121   3.133  0.9974 -1.4224  0.7097
  862MOL0     H16349   9.087   8.095   3.255  2.5134 -1.1613  1.7638
  862MOL0     H16350   8.128   7.995   2.932 -1.4634 -0.1892 -0.1386
  862MOL0     H16351   7.950   8.159   2.928  0.1327  0.6030  1.3036
  862MOL0     H16352   7.501   8.347   3.003 -0.2449  0.1202  1.8672
  862MOL0     H16353   7.388   8.564   3.059 -0.7545 -0.1111  1.0754
  862MOL0     H16354   5.897   8.487   2.838 -0.2073 -0.3134  1.1447
  862MOL0     H16355   5.708   8.530   2.701 -3.9811 -0.6536 -0.0422
  862MOL0     H16356   5.420   8.949   2.492 -0.6321  1.0758  0.8057
  862MOL0     H16357   5.222   8.997   2.369  0.4862  0.1225 -0.2691
  862MOL0     H16358   4.849   8.772   2.488  0.0594 -0.5061 -1.3346
  862MOL0     H16359   4.770   8.879   2.369  0.4838  0.6045  0.1683
  862MOL0     H16360   4.875   8.971   2.636 -1.0118  0.5261  0.1569
  862MOL0     H16361   4.711   8.943   2.601 -0.7122  2.5744  2.0612
  862MOL0     H16362   4.868   9.140   2.438  0.9047 -3.4849 -1.1394
  862MOL0     H16363   4.798   9.179   2.594 -0.9329  1.0221 -1.3467
  862MOL0     H16364   4.639   9.221   2.381 -1.6272 -1.6218 -2.0035
  862MOL0     H16365   4.628   9.049   2.355 -3.6581  1.0354 -0.9928
  862MOL0     H16366   4.381   9.166   2.694 -1.5116 -1.5113 -1.1527
  862MOL0     H16367   5.013   8.692   2.581  0.3419 -2.1957  0.5594
  862MOL0     H16368   5.277   8.508   2.696  1.1365  1.2041  1.0396
  862MOL0     H16369   5.246   8.624   2.836 -0.2538 -1.4113  0.6792
  862MOL0     H16370   5.124   8.550   2.753 -0.0197  0.6514  2.7972
  863MOL0     O16371   7.503   0.361   0.872 -0.5379 -0.6825  0.2989
  863MOL0     C16372   7.562   0.445   0.810  0.0585  0.2021  0.6152
  863MOL0     O16373   7.695   0.447   0.783  0.2784 -0.5481 -0.4510
  863MOL0     C16374   7.775   0.380   0.874  0.6636 -0.1576  0.2976
  863MOL0     C16375   7.887   0.325   0.817  0.2694 -0.1316  0.6418
  863MOL0     C16376   7.982   0.262   0.897 -0.3743 -0.0474 -0.8616
  863MOL0     C16377   7.969   0.256   1.034  0.1866 -0.5600  1.1864
  863MOL0     O16378   8.065   0.195   1.104 -0.3529  0.7546 -0.0472
  863MOL0     C16379   8.111   0.253   1.226 -0.5498 -0.9535  0.3050
  863MOL0     C16380   8.259   0.224   1.249 -0.5043  0.2463  0.7165
  863MOL0     C16381   8.283   0.082   1.285 -0.0703  0.3711  0.2907
  863MOL0     C16382   8.434   0.066   1.312  0.9765  0.6869  0.1948
  863MOL0     C16383   8.433  -0.064   1.397 -0.6634 -0.3220 -0.6669
  863MOL0     C16384   8.396  -0.191   1.318  0.9053  0.0703  0.9452
  863MOL0     C16385   8.398  -0.306   1.417  0.7910  0.6688 -0.6540
  863MOL0     C16386   8.397  -0.439   1.353  0.1736  0.2035 -0.9474
  863MOL0     N16387   8.361  -0.546   1.454 -0.4416  0.8924 -0.6312
  863MOL0     C16388   8.226  -0.569   1.467  0.1481 -0.5632  0.0586
  863MOL0     C16389   8.210  -0.679   1.548  0.0178  0.0457 -0.7681
  863MOL0     C16390   8.095  -0.765   1.562  0.5986 -0.1492 -0.0908
  863MOL0     C16391   7.997  -0.712   1.667 -0.9598  0.5752 -0.0469
  863MOL0     C16392   7.860  -0.798   1.670 -0.3041  0.2169  0.0479
  863MOL0     C16393   7.745  -0.711   1.722  0.4446 -0.5184  0.2733
  863MOL0     O16394   7.704  -0.620   1.617 -0.3968  0.1893 -0.0382
  863MOL0     C16395   7.579  -0.563   1.614 -0.9688  0.2371 -0.1474
  863MOL0     C16396   7.480  -0.583   1.710 -0.4980  0.1558 -0.0308
  863MOL0     C16397   7.360  -0.513   1.709  0.6988 -1.5855 -0.0907
  863MOL0     C16398   7.329  -0.423   1.605 -0.0123 -0.6286 -0.1211
  863MOL0     C16399   7.203  -0.354   1.596  0.7421 -0.0582  0.2262
  863MOL0     O16400   7.116  -0.388   1.688  1.5199 -0.5344 -0.3239
  863MOL0     C16401   6.988  -0.321   1.683 -0.6465  0.6254 -0.2733
  863MOL0     C16402   6.929  -0.300   1.802 -0.0082 -0.8288  0.2714
  863MOL0     C16403   6.805  -0.220   1.812  0.5782  0.0181  1.1964
  863MOL0     C16404   6.733  -0.195   1.693  0.4578 -1.4836  0.2991
  863MOL0     O16405   6.617  -0.119   1.690  0.2390 -0.1715  0.5167
  863MOL0     C16406   6.547  -0.073   1.807  0.6266  0.6095 -0.3259
  863MOL0     C16407   6.430   0.014   1.747  0.2917  0.4190 -0.7990
  863MOL0     C16408   6.470   0.146   1.695 -0.0844  0.9369 -0.8432
  863MOL0     C16409   6.352   0.215   1.622 -0.2910  0.8180  0.0498
  863MOL0     C16410   6.256   0.265   1.725 -0.0588 -0.1699  1.0402
  863MOL0     C16411   6.172   0.358   1.648  0.4996 -0.2537 -0.5763
  863MOL0     C16412   6.055   0.390   1.736 -0.0584 -0.2073  0.3670
  863MOL0     C16413   5.950   0.492   1.679  0.8859  0.2847 -0.0409
  863MOL0    Cl16414   5.812   0.491   1.794 -0.4732  0.2394  0.5728
  863MOL0     C16415   6.781  -0.239   1.566  0.5391 -0.3081 -0.3354
  863MOL0     C16416   6.903  -0.307   1.564  0.6089 -0.8068 -0.5575
  863MOL0     O16417   7.196  -0.254   1.519 -0.1844  0.5452 -0.2532
  863MOL0     C16418   7.438  -0.400   1.513  0.1918 -0.3744 -1.2865
  863MOL0     C16419   7.558  -0.470   1.516 -0.1679  0.5559 -0.0952
  863MOL0     N16420   8.343  -0.711   1.585 -0.5781 -0.1081  0.3583
  863MOL0     N16421   8.427  -0.633   1.532 -0.8611  0.9768 -0.6063
  863MOL0     C16422   7.855   0.316   1.088 -0.7498  0.3915 -0.4823
  863MOL0     C16423   7.754   0.380   1.016 -0.0503  0.0248 -0.4159
  863MOL0     C16424   7.500   0.561   0.747 -0.5328 -0.0343 -0.5918
  863MOL0     C16425   7.541   0.589   0.616  0.3579 -0.7213 -0.2635
  863MOL0     C16426   7.475   0.694   0.549 -1.0746  0.1656 -0.7628
  863MOL0     C16427   7.378   0.770   0.617  0.1192 -0.2435 -0.6209
  863MOL0     O16428   7.316   0.867   0.540  0.2020 -0.0232  0.1723
  863MOL0     C16429   7.397   0.961   0.466 -0.2249  1.2901 -0.6555
  863MOL0     C16430   7.376   1.104   0.511 -0.0829 -0.2898  0.8522
  863MOL0     C16431   7.243   1.158   0.452  0.7929 -0.4165  0.4346
  863MOL0     C16432   7.176   1.266   0.536 -0.6143 -0.1399 -0.4563
  863MOL0     C16433   7.254   1.376   0.591 -0.1507 -1.0301  0.4224
  863MOL0     C16434   7.321   1.464   0.647  0.0086 -0.4773 -0.2080
  863MOL0     C16435   7.338   0.735   0.744 -0.6463  0.3547 -0.2458
  863MOL0     C16436   7.400   0.634   0.817  0.4977  0.1834 -0.6784
  863MOL0     C16437   7.359   0.615   0.959  0.0380  0.2249 -0.2125
  863MOL0     H16438   7.893   0.308   0.710  0.8510  0.0701  0.6375
  863MOL0     H16439   8.075   0.218   0.862 -0.1239 -1.9528  1.8888
  863MOL0     H16440   8.110   0.362   1.222  0.4446 -0.9226  0.7533
  863MOL0     H16441   8.063   0.215   1.317  0.4671  0.5208  1.4913
  863MOL0     H16442   8.301   0.284   1.330  0.5586  0.9754 -0.3427
  863MOL0     H16443   8.320   0.226   1.159  0.2281 -0.7202  1.1726
  863MOL0     H16444   8.260   0.016   1.200 -0.2719 -0.8075  1.2386
  863MOL0     H16445   8.219   0.052   1.368 -2.7220  0.3813 -1.6070
  863MOL0     H16446   8.487   0.044   1.219  0.7162  0.0792  0.1805
  863MOL0     H16447   8.472   0.153   1.365 -0.7967  0.6902  1.5617
  863MOL0     H16448   8.540  -0.074   1.414 -0.4982  0.9831 -0.7996
  863MOL0     H16449   8.370  -0.057   1.487 -1.6484 -4.0061 -0.9285
  863MOL0     H16450   8.298  -0.185   1.270  1.4069 -0.6537 -0.2179
  863MOL0     H16451   8.471  -0.210   1.241 -1.6223 -0.9908 -1.4377
  863MOL0     H16452   8.317  -0.291   1.490 -1.5190  1.1782 -3.1589
  863MOL0     H16453   8.498  -0.308   1.460  1.6157  0.9364 -2.5078
  863MOL0     H16454   8.326  -0.435   1.270 -1.2611  2.1827  0.2994
  863MOL0     H16455   8.502  -0.449   1.321  0.7213  0.5378  0.6561
  863MOL0     H16456   8.147  -0.515   1.416 -2.1034 -3.6538 -0.0114
  863MOL0     H16457   8.043  -0.770   1.466  1.6396  1.1074 -0.7447
  863MOL0     H16458   8.127  -0.866   1.591 -0.9092 -0.4857  0.4719
  863MOL0     H16459   8.043  -0.708   1.766 -0.9407  0.8257 -0.0646
  863MOL0     H16460   7.976  -0.606   1.650 -0.1063  0.9780  1.2725
  863MOL0     H16461   7.872  -0.879   1.743  0.2973  0.3120  0.0604
  863MOL0     H16462   7.839  -0.841   1.572  1.2702 -0.5101 -0.0017
  863MOL0     H16463   7.766  -0.667   1.820 -0.8765 -2.8148  1.6729
  863MOL0     H16464   7.661  -0.778   1.743 -2.1542  2.2179 -0.6682
  863MOL0     H16465   7.513  -0.642   1.794  1.2303  1.2298  0.0940
  863MOL0     H16466   7.288  -0.517   1.790 -0.5812  0.4948 -1.0364
  863MOL0     H16467   6.978  -0.326   1.894  0.8429 -4.1650 -1.0005
  863MOL0     H16468   6.779  -0.176   1.908 -1.8908  0.9232  0.2051
  863MOL0     H16469   6.513  -0.166   1.852 -1.6544  2.2755  1.6437
  863MOL0     H16470   6.611  -0.017   1.877  0.7429  0.8513 -0.6241
  863MOL0     H16471   6.366  -0.030   1.670 -0.8457 -0.2056  0.4440
  863MOL0     H16472   6.374   0.039   1.838  0.9479 -0.6231 -0.0977
  863MOL0     H16473   6.500   0.212   1.778 -1.1001 -0.9726  1.1579
  863MOL0     H16474   6.553   0.125   1.628  0.4333 -3.7600  0.8609
  863MOL0     H16475   6.292   0.154   1.554  2.6927 -2.4109  0.0214
  863MOL0     H16476   6.388   0.297   1.560 -2.1566  1.0489 -0.7921
  863MOL0     H16477   6.310   0.320   1.804  2.2982  1.0106 -1.2442
  863MOL0     H16478   6.197   0.184   1.769  1.1082 -1.6218  0.0253
  863MOL0     H16479   6.230   0.448   1.625  1.0552  0.1553  2.1761
  863MOL0     H16480   6.128   0.319   1.556 -0.8370 -2.0331  0.7544
  863MOL0     H16481   6.070   0.416   1.841 -2.2546  2.9273  0.0432
  863MOL0     H16482   6.010   0.290   1.737 -0.1134 -0.1811  0.8030
  863MOL0     H16483   5.984   0.592   1.649 -1.6326  0.5736 -2.3974
  863MOL0     H16484   5.920   0.442   1.586 -3.7052 -1.6635  2.1685
  863MOL0     H16485   6.725  -0.223   1.474 -1.6130  1.2299  1.1353
  863MOL0     H16486   6.942  -0.353   1.475  2.0980 -1.6372  0.4827
  863MOL0     H16487   7.405  -0.337   1.431 -1.9314  0.1368 -0.1209
  863MOL0     H16488   7.639  -0.441   1.449  0.3112 -1.8476 -0.6387
  863MOL0     H16489   7.846   0.315   1.196  0.7847 -2.8430 -0.2781
  863MOL0     H16490   7.665   0.423   1.060  0.2588 -0.7078  0.9835
  863MOL0     H16491   7.609   0.524   0.562  3.5052  1.0404  1.2979
  863MOL0     H16492   7.482   0.707   0.442 -1.5999  3.2066 -0.5332
  863MOL0     H16493   7.370   0.943   0.362  2.1898  1.3359 -1.3569
  863MOL0     H16494   7.501   0.930   0.474 -1.1592 -2.4424 -1.3497
  863MOL0     H16495   7.452   1.174   0.471 -0.3127 -1.6209 -2.2203
  863MOL0     H16496   7.380   1.105   0.620  1.3010  1.2820  0.8346
  863MOL0     H16497   7.164   1.083   0.443  0.4640 -0.0994  0.6328
  863MOL0     H16498   7.266   1.199   0.353  0.9050  0.6534  0.8873
  863MOL0     H16499   7.091   1.304   0.478 -1.5747 -2.1462 -0.4414
  863MOL0     H16500   7.125   1.216   0.619 -1.3089  0.5569 -0.4393
  863MOL0     H16501   7.376   1.540   0.697 -2.2464 -0.5285  2.6660
  863MOL0     H16502   7.262   0.797   0.791 -1.1481 -1.1028  0.9619
  863MOL0     H16503   7.443   0.591   1.024 -2.5392 -4.0159  1.9850
  863MOL0     H16504   7.301   0.699   0.999  1.3327  0.8474  0.4086
  863MOL0     H16505   7.307   0.519   0.963  2.7076 -1.4557 -2.5459
  864MOL0     O16506   6.924   8.349  10.081 -0.2778 -0.2505  0.1431
  864MOL0     C16507   7.023   8.409  10.120 -0.2793 -0.2072  1.0966
  864MOL0     O16508   7.115   8.361  10.199  0.2567 -0.4174 -0.2803
  864MOL0     C16509   7.093   8.238  10.249  0.4053  0.8112  0.3492
  864MOL0     C16510   7.120   8.227  10.384  0.4139 -0.7030  0.9106
  864MOL0     C16511   7.110   8.101  10.450 -0.6447 -0.4130 -0.9472
  864MOL0     C16512   7.084   7.986  10.377  0.2747  0.0942  0.2045
  864MOL0     O16513   7.077   7.870  10.442  0.1755 -0.6864  0.0276
  864MOL0     C16514   7.085   7.746  10.370  0.5988  0.3589 -0.2772
  864MOL0     C16515   7.062   7.621  10.454  0.1775  0.1533  0.1885
  864MOL0     C16516   7.082   7.502  10.355  0.5302 -0.4122  0.0291
  864MOL0     C16517   7.025   7.361  10.395 -0.9499 -0.2712  0.0622
  864MOL0     C16518   6.881   7.354  10.447 -0.0706 -0.2087 -1.0998
  864MOL0     C16519   6.784   7.354  10.326  0.2951 -0.3025  0.7128
  864MOL0     C16520   6.635   7.335  10.374  0.0979  0.2186  0.0067
  864MOL0     C16521   6.536   7.281  10.263 -0.8111 -0.6529  0.0461
  864MOL0     N16522   6.425   7.216  10.342 -0.1056  0.1389  0.9018
  864MOL0     C16523   6.455   7.097  10.389  0.8690 -0.5859 -0.5192
  864MOL0     C16524   6.337   7.047  10.431 -0.7725  0.0427  0.6478
  864MOL0     C16525   6.311   6.923  10.517 -0.3284  0.6432  0.1288
  864MOL0     C16526   6.260   6.800  10.432  0.2116 -0.3134 -0.4033
  864MOL0     C16527   6.250   6.665  10.505 -0.8651  0.0685  0.7442
  864MOL0     C16528   6.218   6.556  10.411  0.8260  0.1803  0.2481
  864MOL0     O16529   6.076   6.556  10.373  0.0689  0.7753  0.0221
  864MOL0     C16530   6.051   6.542  10.237 -0.8508  0.2332 -0.0225
  864MOL0     C16531   6.009   6.649  10.158  0.1789 -0.5783  0.4550
  864MOL0     C16532   5.970   6.633  10.021  0.3594 -0.7516 -0.0597
  864MOL0     C16533   5.982   6.508   9.964  0.4365  0.6265  0.5831
  864MOL0     C16534   5.958   6.493   9.817 -0.5852 -0.6907 -0.5847
  864MOL0     O16535   5.942   6.365   9.776 -0.7889  0.0779  1.0256
  864MOL0     C16536   5.955   6.335   9.641  0.8855  0.2803 -0.0345
  864MOL0     C16537   6.027   6.412   9.549  0.4980 -0.7449  0.0450
  864MOL0     C16538   6.052   6.369   9.419  0.5475 -0.1221  0.5567
  864MOL0     C16539   5.997   6.243   9.372  0.7833 -0.8382 -0.0480
  864MOL0     O16540   6.015   6.213   9.237  0.3174 -0.2610 -0.5019
  864MOL0     C16541   5.931   6.112   9.202  0.2518  0.4961  0.0591
  864MOL0     C16542   5.915   6.081   9.054  0.2076  0.3153 -0.2765
  864MOL0     C16543   5.863   6.193   8.967  0.4787 -0.6080  0.5446
  864MOL0     C16544   5.934   6.328   8.980  0.1707 -0.3326 -0.2624
  864MOL0     C16545   5.870   6.439   8.887  0.7430 -0.4792 -0.0341
  864MOL0     C16546   5.939   6.573   8.904 -0.2806 -0.4954  0.3326
  864MOL0     C16547   5.877   6.690   8.813  0.3090  0.0673 -0.0795
  864MOL0     C16548   5.975   6.816   8.811  0.3338  0.3440 -0.0450
  864MOL0    Cl16549   5.970   6.907   8.976 -0.2720 -0.0016 -0.3669
  864MOL0     C16550   5.914   6.171   9.466 -1.0295 -0.8232 -0.7262
  864MOL0     C16551   5.895   6.216   9.599  0.4045  1.0215  0.5722
  864MOL0     O16552   5.954   6.593   9.753 -0.7771  0.0827  0.1547
  864MOL0     C16553   6.038   6.402  10.045  1.8889  0.4110  1.0395
  864MOL0     C16554   6.072   6.422  10.178 -0.9916  0.3435 -0.0679
  864MOL0     N16555   6.239   7.139  10.391  0.2587 -0.2803 -0.3938
  864MOL0     N16556   6.292   7.240  10.332 -0.5518 -0.3373  0.7489
  864MOL0     C16557   7.069   7.999  10.237  0.1085 -0.7523 -0.0758
  864MOL0     C16558   7.081   8.123  10.176  0.5178  0.9783  0.2019
  864MOL0     C16559   7.044   8.547  10.072 -0.5008  1.1825 -0.2807
  864MOL0     C16560   7.177   8.588  10.033  0.3969  0.2006  0.3501
  864MOL0     C16561   7.201   8.721  10.000  0.1482  0.2614  0.6336
  864MOL0     C16562   7.100   8.819  10.015  0.2781 -0.2122 -0.4637
  864MOL0     O16563   7.112   8.954   9.989 -0.6326  0.3004 -0.0958
  864MOL0     C16564   7.180   8.984   9.873 -0.2407  0.1522  0.0707
  864MOL0     C16565   7.325   9.012   9.910  0.8596 -0.5154  0.3558
  864MOL0     C16566   7.332   9.126  10.017  0.3192  0.2390 -0.0153
  864MOL0     C16567   7.471   9.119  10.068  0.1184  0.2619  0.1054
  864MOL0     C16568   7.589   9.122   9.975  0.8439 -0.8996 -0.4122
  864MOL0     C16569   7.686   9.147   9.901  0.5773 -0.8904  0.6777
  864MOL0     C16570   6.977   8.780  10.067  0.1572 -0.4996 -0.1505
  864MOL0     C16571   6.945   8.647  10.080  0.2834  0.3495  0.5103
  864MOL0     C16572   6.799   8.614  10.128 -0.4785 -1.2139  0.5230
  864MOL0     H16573   7.142   8.314  10.445 -2.9914  0.7662  0.2450
  864MOL0     H16574   7.117   8.078  10.555  2.5449 -1.2186 -1.2344
  864MOL0     H16575   7.006   7.748  10.294 -0.3325 -2.0793  0.5466
  864MOL0     H16576   7.186   7.731  10.331 -0.4704  1.0505 -3.6720
  864MOL0     H16577   6.956   7.625  10.479 -0.8943  3.1927 -3.8381
  864MOL0     H16578   7.129   7.638  10.539  1.8861 -4.8251  0.1774
  864MOL0     H16579   7.189   7.487  10.338  1.1617 -1.2684  3.7573
  864MOL0     H16580   7.037   7.519  10.257 -1.5335 -2.3319  0.5573
  864MOL0     H16581   7.041   7.292  10.311  0.4314 -2.1079  1.7265
  864MOL0     H16582   7.094   7.330  10.473 -0.3848 -0.6460 -0.5701
  864MOL0     H16583   6.860   7.258  10.494  1.2835 -0.2695 -0.5731
  864MOL0     H16584   6.868   7.433  10.522  0.6519 -1.2649  0.1777
  864MOL0     H16585   6.801   7.445  10.268  2.4457 -1.6519 -0.9058
  864MOL0     H16586   6.810   7.267  10.264  0.5396 -2.6344  3.8383
  864MOL0     H16587   6.601   7.429  10.419 -1.1488  0.8235 -2.0784
  864MOL0     H16588   6.639   7.257  10.450 -1.2791 -0.1534 -0.2764
  864MOL0     H16589   6.498   7.360  10.196  1.7228 -0.4987 -1.3599
  864MOL0     H16590   6.593   7.208  10.204 -0.1095 -0.0074 -0.1081
  864MOL0     H16591   6.553   7.050  10.398  2.6479  2.5020 -2.1532
  864MOL0     H16592   6.403   6.886  10.564 -0.2094 -0.7562 -1.1165
  864MOL0     H16593   6.250   6.948  10.604  0.1266 -0.3741  0.7631
  864MOL0     H16594   6.156   6.822  10.406  0.9571  1.7155 -1.9433
  864MOL0     H16595   6.311   6.792  10.335 -0.0578  4.3843 -1.1496
  864MOL0     H16596   6.175   6.675  10.584 -2.0750  0.0432 -0.3599
  864MOL0     H16597   6.348   6.669  10.554 -2.2308  5.2796  3.8607
  864MOL0     H16598   6.250   6.469  10.469  1.3006  0.7137  0.7951
  864MOL0     H16599   6.282   6.556  10.322 -0.7707  1.8385 -0.9650
  864MOL0     H16600   5.996   6.745  10.208 -2.8822 -0.9264  0.5113
  864MOL0     H16601   5.930   6.717   9.966 -0.0535  0.3246  1.8094
  864MOL0     H16602   6.079   6.505   9.572  0.3747 -0.6439 -0.0881
  864MOL0     H16603   6.101   6.438   9.351 -0.3318 -0.8419 -0.8431
  864MOL0     H16604   5.979   6.024   9.247  1.2145  0.1977 -1.4807
  864MOL0     H16605   5.827   6.116   9.238  1.4247  0.3136  3.8856
  864MOL0     H16606   6.005   6.047   9.001  0.2289  1.3266 -0.9207
  864MOL0     H16607   5.846   5.997   9.047  0.6822 -0.3607  2.2810
  864MOL0     H16608   5.876   6.166   8.862 -0.3904 -0.2260  0.3267
  864MOL0     H16609   5.760   6.211   8.998 -0.1756 -4.8430  1.2990
  864MOL0     H16610   6.033   6.313   8.937 -0.0163 -0.8414 -0.5187
  864MOL0     H16611   5.918   6.351   9.086  0.7095 -2.5631  0.3515
  864MOL0     H16612   5.764   6.446   8.912  1.0755  1.5541  1.0459
  864MOL0     H16613   5.878   6.407   8.783 -2.2445  2.0909 -1.1966
  864MOL0     H16614   5.937   6.610   9.007  2.0552 -0.0679  0.2783
  864MOL0     H16615   6.045   6.565   8.878  0.2818  0.2782  2.1458
  864MOL0     H16616   5.777   6.720   8.848 -0.3285 -0.7606 -1.1056
  864MOL0     H16617   5.862   6.657   8.710  0.0983  2.5945 -0.9258
  864MOL0     H16618   6.073   6.781   8.779  0.0051 -2.2589  1.5177
  864MOL0     H16619   5.943   6.887   8.734 -1.1312  0.4411  0.6198
  864MOL0     H16620   5.863   6.080   9.435 -0.3265 -0.5202 -2.9282
  864MOL0     H16621   5.828   6.155   9.659  1.2356 -0.9630 -0.4347
  864MOL0     H16622   6.041   6.307   9.994 -3.1774 -0.1065  1.2204
  864MOL0     H16623   6.114   6.343  10.240  1.4605  2.4543  1.1568
  864MOL0     H16624   7.048   7.919  10.166  1.0969 -1.1841  0.1043
  864MOL0     H16625   7.074   8.138  10.069 -4.2558  1.6473  0.4069
  864MOL0     H16626   7.257   8.518  10.012 -0.2834 -0.8110  1.0137
  864MOL0     H16627   7.293   8.743   9.946 -2.7103  4.3233 -3.4097
  864MOL0     H16628   7.127   9.069   9.830  1.3414  0.2216 -1.8806
  864MOL0     H16629   7.171   8.915   9.789 -0.7388  0.6926 -0.3247
  864MOL0     H16630   7.374   9.053   9.821 -3.5027  2.0161 -1.1890
  864MOL0     H16631   7.375   8.922   9.947  1.2158  0.0825  1.3591
  864MOL0     H16632   7.252   9.122  10.091 -1.1925  0.4193 -1.5759
  864MOL0     H16633   7.327   9.226   9.972 -0.1607  1.4108  2.4854
  864MOL0     H16634   7.474   9.205  10.136 -1.7406 -0.5408  1.2646
  864MOL0     H16635   7.481   9.033  10.135  0.1037  0.2908  0.1455
  864MOL0     H16636   7.761   9.158   9.826 -2.2551 -0.0662 -2.2368
  864MOL0     H16637   6.899   8.854  10.080  0.1223 -0.1440 -2.1684
  864MOL0     H16638   6.747   8.561  10.047 -1.7032  0.6303  0.0502
  864MOL0     H16639   6.805   8.563  10.224  0.7825 -1.3122  0.4137
  864MOL0     H16640   6.753   8.713  10.131 -2.0126 -1.6706 -2.7764
  865MOL0     O16641   6.509   7.080   6.572  0.4756  0.2088 -0.3191
  865MOL0     C16642   6.484   7.039   6.678  0.1187  0.4203 -0.4629
  865MOL0     O16643   6.567   6.978   6.765 -0.0489  0.3162  0.0824
  865MOL0     C16644   6.706   6.996   6.765 -0.9823  0.1303  0.3598
  865MOL0     C16645   6.789   7.010   6.654 -0.6107  0.1138  0.6037
  865MOL0     C16646   6.913   6.961   6.656 -0.1297 -0.1638  0.0325
  865MOL0     C16647   6.977   6.900   6.771 -0.6273  0.0879 -0.0724
  865MOL0     O16648   7.106   6.848   6.761  0.4611  0.3538 -0.4008
  865MOL0     C16649   7.140   6.752   6.858 -0.1515 -0.0647 -0.2596
  865MOL0     C16650   7.197   6.820   6.984 -0.1707 -0.3545  0.6051
  865MOL0     C16651   7.308   6.730   7.041 -0.1500  0.3734  0.2180
  865MOL0     C16652   7.342   6.803   7.175  0.7957  0.0155 -0.1000
  865MOL0     C16653   7.451   6.722   7.249  0.1597  0.8457 -0.0091
  865MOL0     C16654   7.489   6.784   7.379  0.1040 -0.8686  0.4476
  865MOL0     C16655   7.643   6.760   7.418 -0.0291 -0.6024  0.7569
  865MOL0     C16656   7.665   6.827   7.554  0.4830 -0.0495 -0.4372
  865MOL0     N16657   7.809   6.826   7.582 -0.4365 -0.3342 -0.2604
  865MOL0     C16658   7.901   6.721   7.587 -0.7893  0.1069 -1.3216
  865MOL0     C16659   8.012   6.781   7.635  0.2928 -0.0573  0.6251
  865MOL0     C16660   8.147   6.727   7.693 -0.5410  0.4702 -0.8335
  865MOL0     C16661   8.253   6.684   7.590 -0.1218  1.2290 -0.2809
  865MOL0     C16662   8.380   6.648   7.666 -0.6161 -0.4275  0.3759
  865MOL0     C16663   8.500   6.633   7.562  0.6106  1.0234 -0.1991
  865MOL0     O16664   8.630   6.615   7.632 -0.7411 -0.1923  1.6272
  865MOL0     C16665   8.741   6.567   7.559  0.6067 -0.9770 -1.2777
  865MOL0     C16666   8.852   6.527   7.641  0.2101  0.4887  0.6378
  865MOL0     C16667   8.970   6.473   7.584  0.2262 -0.0337  0.0082
  865MOL0     C16668   8.975   6.442   7.446  0.1768  0.1332  0.5721
  865MOL0     C16669   9.086   6.364   7.392  0.2311 -0.1405  0.0909
  865MOL0     O16670   9.183   6.328   7.476 -0.3986 -0.4804 -0.6316
  865MOL0     C16671   9.294   6.258   7.441  1.1069 -0.2416 -0.1268
  865MOL0     C16672   9.290   6.134   7.375 -0.6000  0.1463 -0.9988
  865MOL0     C16673   9.413   6.071   7.340 -0.8887 -0.2489 -0.3560
  865MOL0     C16674   9.540   6.133   7.379 -0.0651 -0.4309  0.6203
  865MOL0     O16675   9.661   6.073   7.359 -0.2236  0.0483  0.3615
  865MOL0     C16676   9.671   5.925   7.354 -0.0182 -0.5991  0.4840
  865MOL0     C16677   9.822   5.890   7.352  0.2998 -0.2562  1.4890
  865MOL0     C16678   9.904   5.991   7.430 -0.7089  0.4136  0.2334
  865MOL0     C16679   9.871   6.001   7.585 -0.2191 -1.1142 -0.1692
  865MOL0     C16680   9.937   6.112   7.662  0.4072 -1.6500 -0.4776
  865MOL0     C16681  10.084   6.091   7.700  0.1744 -0.0115 -0.3662
  865MOL0     C16682  10.105   6.163   7.837  0.0446  0.4975 -0.0507
  865MOL0     C16683  10.250   6.148   7.876  0.9918  0.5292 -0.1347
  865MOL0    Cl16684  10.309   6.266   8.004 -0.1868 -1.0268 -0.1405
  865MOL0     C16685   9.534   6.254   7.445 -0.9868  0.6780 -0.6966
  865MOL0     C16686   9.413   6.319   7.475  0.2112  0.0097  0.4786
  865MOL0     O16687   9.081   6.336   7.269  0.7854 -0.4981  0.3249
  865MOL0     C16688   8.864   6.480   7.364 -0.2180 -0.3947 -0.0029
  865MOL0     C16689   8.755   6.543   7.421  0.2646 -0.1454  0.2158
  865MOL0     N16690   7.992   6.919   7.630 -0.6348  0.2580 -0.0937
  865MOL0     N16691   7.865   6.949   7.607  0.3639  0.0035 -0.2531
  865MOL0     C16692   6.894   6.889   6.889  0.3822 -0.2437  0.4680
  865MOL0     C16693   6.761   6.943   6.882 -0.5908 -0.0166  0.2424
  865MOL0     C16694   6.347   7.058   6.730  0.1320 -0.2796 -0.1938
  865MOL0     C16695   6.313   6.985   6.854 -0.3645 -0.2788  0.4836
  865MOL0     C16696   6.181   6.965   6.892 -0.0940 -1.5773 -0.2133
  865MOL0     C16697   6.080   7.021   6.818  0.0630 -0.2298  0.0771
  865MOL0     O16698   5.944   6.997   6.836 -0.3187 -0.2500 -0.2812
  865MOL0     C16699   5.889   6.935   6.956 -0.8880  0.1878 -0.1912
  865MOL0     C16700   5.882   7.034   7.080  0.1863  0.8207  0.1318
  865MOL0     C16701   5.776   7.134   7.049 -0.8803  1.0573  0.4808
  865MOL0     C16702   5.739   7.228   7.172 -0.8512  0.1920 -0.2520
  865MOL0     C16703   5.730   7.151   7.293  0.9388 -0.0832 -0.2303
  865MOL0     C16704   5.711   7.078   7.390  0.5516 -0.2038 -0.1222
  865MOL0     C16705   6.115   7.106   6.714  1.4124 -0.6701  0.3854
  865MOL0     C16706   6.242   7.127   6.663 -0.3517 -0.1921  0.2915
  865MOL0     C16707   6.253   7.228   6.543  0.9242 -0.2594 -0.8079
  865MOL0     H16708   6.747   7.057   6.566 -0.8351  1.7013  1.5146
  865MOL0     H16709   6.960   6.985   6.561 -0.0002  2.6078  0.6914
  865MOL0     H16710   7.056   6.694   6.898 -0.1690 -0.1226 -0.3807
  865MOL0     H16711   7.208   6.678   6.816 -0.5841 -1.0499  0.7490
  865MOL0     H16712   7.122   6.835   7.062 -1.9806  2.9169 -1.5246
  865MOL0     H16713   7.247   6.914   6.957 -0.0286 -0.3185  0.9837
  865MOL0     H16714   7.396   6.725   6.976  1.3349 -1.7619  2.2375
  865MOL0     H16715   7.276   6.626   7.051 -4.1126  1.3764 -0.3089
  865MOL0     H16716   7.370   6.907   7.155 -0.2380  0.6008  1.3360
  865MOL0     H16717   7.247   6.810   7.229  0.5934 -1.4354 -0.2167
  865MOL0     H16718   7.402   6.627   7.273 -1.4906  2.4855  4.0989
  865MOL0     H16719   7.543   6.716   7.190 -0.5769  1.7860 -1.3095
  865MOL0     H16720   7.480   6.893   7.373 -0.9615 -0.9796 -0.0522
  865MOL0     H16721   7.422   6.764   7.463  1.7678 -2.4275  1.4970
  865MOL0     H16722   7.710   6.797   7.341  1.6327 -4.6008  0.0594
  865MOL0     H16723   7.661   6.653   7.426 -0.5901 -1.0629 -2.7728
  865MOL0     H16724   7.626   6.929   7.554 -1.8655 -0.8568  0.8772
  865MOL0     H16725   7.615   6.781   7.640 -0.7226  4.1778  1.3829
  865MOL0     H16726   7.891   6.613   7.575 -1.5863  0.0790 -0.5716
  865MOL0     H16727   8.181   6.812   7.752  0.9464 -0.0989 -0.8284
  865MOL0     H16728   8.118   6.649   7.764  3.4546  0.3712  0.8880
  865MOL0     H16729   8.230   6.584   7.550  2.0493  0.4586  0.2846
  865MOL0     H16730   8.265   6.756   7.510 -0.2404  0.2578 -1.2025
  865MOL0     H16731   8.370   6.552   7.718 -1.2866 -1.4850 -1.5846
  865MOL0     H16732   8.415   6.721   7.739  0.2617 -2.3731  2.0026
  865MOL0     H16733   8.512   6.725   7.504  0.8114  0.8295 -0.4708
  865MOL0     H16734   8.485   6.550   7.492 -0.3881  0.3845  0.7462
  865MOL0     H16735   8.851   6.547   7.747  1.5252 -1.8474  1.1704
  865MOL0     H16736   9.053   6.456   7.652 -1.2052 -0.0381  1.8388
  865MOL0     H16737   9.193   6.098   7.344 -1.3148  2.3417 -1.4977
  865MOL0     H16738   9.407   5.972   7.294 -1.1996  1.7785 -5.3739
  865MOL0     H16739   9.627   5.878   7.442 -2.3613  1.2226  0.3721
  865MOL0     H16740   9.616   5.880   7.271  1.6590  0.7933 -1.4763
  865MOL0     H16741   9.828   5.790   7.396 -1.3688 -1.0335  0.0557
  865MOL0     H16742   9.858   5.878   7.250 -2.3686  0.9208  0.3359
  865MOL0     H16743  10.003   5.944   7.425 -0.0286  1.7958  0.2880
  865MOL0     H16744   9.904   6.089   7.382 -2.2464 -0.5383 -1.8703
  865MOL0     H16745   9.884   5.902   7.630 -2.0863  0.2560  3.8087
  865MOL0     H16746   9.764   6.023   7.592 -0.3785 -2.1551  1.0460
  865MOL0     H16747   9.879   6.127   7.753 -0.9082  0.6466 -1.6270
  865MOL0     H16748   9.914   6.201   7.604  1.4655 -0.5507  0.7275
  865MOL0     H16749  10.107   5.986   7.720 -0.3929  0.4167  3.2210
  865MOL0     H16750  10.145   6.146   7.627  3.1144  0.0607  1.9357
  865MOL0     H16751  10.041   6.119   7.915  0.4389 -1.2017 -0.6439
  865MOL0     H16752  10.086   6.270   7.835  0.7762  0.6132 -1.1542
  865MOL0     H16753  10.280   6.045   7.897  2.3007  0.5615 -1.6580
  865MOL0     H16754  10.316   6.162   7.790  1.1690 -1.7891 -0.4461
  865MOL0     H16755   9.628   6.306   7.461 -0.2308 -0.2298 -1.9488
  865MOL0     H16756   9.429   6.417   7.519 -0.4666  0.9921 -1.3221
  865MOL0     H16757   8.855   6.464   7.257  2.6639 -0.2449 -0.3565
  865MOL0     H16758   8.675   6.558   7.349  0.8056  0.4556 -0.2677
  865MOL0     H16759   6.932   6.847   6.982  0.8170  1.6748  1.2180
  865MOL0     H16760   6.690   6.932   6.963  0.0151  3.6929  1.4555
  865MOL0     H16761   6.399   6.947   6.909  0.6784 -0.3954 -1.1519
  865MOL0     H16762   6.164   6.904   6.981  1.3157  0.3738  1.5058
  865MOL0     H16763   5.950   6.849   6.983 -0.7986  0.5862  0.8955
  865MOL0     H16764   5.789   6.897   6.931  0.1332 -3.6000  0.7289
  865MOL0     H16765   5.984   7.072   7.092  0.6608 -0.7002  1.2257
  865MOL0     H16766   5.852   6.975   7.167 -0.4990  2.2786  0.9102
  865MOL0     H16767   5.692   7.078   7.008  0.7768  0.1691 -1.8744
  865MOL0     H16768   5.822   7.188   6.966  2.0597  0.8762  1.8449
  865MOL0     H16769   5.815   7.306   7.177  2.2592 -2.6354 -0.1573
  865MOL0     H16770   5.636   7.264   7.166 -2.5292 -3.4297  3.1254
  865MOL0     H16771   5.685   7.015   7.472 -0.2668  1.5424  1.0140
  865MOL0     H16772   6.037   7.155   6.656 -0.2854 -0.9864  2.3119
  865MOL0     H16773   6.161   7.287   6.536  2.1119  1.8215  0.1231
  865MOL0     H16774   6.332   7.300   6.569 -1.0102  1.3583  1.0063
  865MOL0     H16775   6.269   7.178   6.447  1.3906  0.2384 -0.9965
  866MOL0     O16776  10.721   3.142   5.094  0.2776 -0.7699  1.0531
  866MOL0     C16777  10.606   3.097   5.058 -0.3202  0.0948  0.6125
  866MOL0     O16778  10.581   2.986   4.980  0.5013  0.6004  0.3670
  866MOL0     C16779  10.678   2.900   4.952 -0.6426  0.8960  0.1850
  866MOL0     C16780  10.711   2.861   4.815  0.7814  0.7007 -0.9509
  866MOL0     C16781  10.828   2.782   4.785  0.6646  0.5081  0.2730
  866MOL0     C16782  10.900   2.728   4.883  0.4328  0.2376  0.3388
  866MOL0     O16783  11.000   2.644   4.839  0.3673  0.2212 -0.4763
  866MOL0     C16784  11.083   2.587   4.940  0.0861  0.2812 -0.4305
  866MOL0     C16785  11.181   2.701   4.993  0.1750 -0.5506 -0.4964
  866MOL0     C16786  11.288   2.641   5.087  0.3614 -1.2064  1.5380
  866MOL0     C16787  11.404   2.722   5.116 -0.3561 -0.5052 -0.0197
  866MOL0     C16788  11.503   2.638   5.200 -0.1596  1.0998 -0.4911
  866MOL0     C16789  11.635   2.708   5.218  0.2636  0.1099 -0.0092
  866MOL0     C16790  11.627   2.798   5.329  0.2821 -0.2246 -1.5813
  866MOL0     C16791  11.749   2.876   5.352 -0.1192  0.4687 -0.0856
  866MOL0     N16792  11.867   2.792   5.372  0.3448  0.3630 -0.2915
  866MOL0     C16793  11.946   2.746   5.278  0.1045 -0.5839 -0.8035
  866MOL0     C16794  12.030   2.658   5.337  0.1396  0.8956  0.4798
  866MOL0     C16795  12.130   2.562   5.278  0.0115 -0.4897  1.3314
  866MOL0     C16796  12.242   2.646   5.203 -0.3957 -0.7840 -0.2439
  866MOL0     C16797  12.339   2.728   5.291  0.8861 -0.2093 -0.1433
  866MOL0     C16798  12.479   2.722   5.233 -0.1765  0.1355 -0.0054
  866MOL0     O16799  12.565   2.811   5.310 -0.5745  0.1608 -0.9498
  866MOL0     C16800  12.695   2.789   5.313 -0.1425  0.5888  0.4166
  866MOL0     C16801  12.772   2.737   5.204 -0.1032 -0.0219  0.9879
  866MOL0     C16802  12.906   2.713   5.213 -0.0677  0.0907 -0.5528
  866MOL0     C16803  12.971   2.737   5.327 -0.5046  0.5102 -0.0162
  866MOL0     C16804  13.123   2.708   5.336 -0.5515  0.6023 -0.3651
  866MOL0     O16805  13.188   2.676   5.223 -1.0951  0.0718  0.5687
  866MOL0     C16806  13.316   2.620   5.241  0.0835  0.3667 -0.0323
  866MOL0     C16807  13.352   2.496   5.309 -0.2134 -0.1743  0.7970
  866MOL0     C16808  13.480   2.454   5.313 -0.7239  0.0295  0.4826
  866MOL0     C16809  13.587   2.523   5.246 -0.2988 -1.1494 -0.4479
  866MOL0     O16810  13.709   2.467   5.255 -0.0913  0.3572  0.8035
  866MOL0     C16811  13.801   2.456   5.146  0.2646 -1.5698  0.2733
  866MOL0     C16812  13.830   2.307   5.140  0.0079 -0.1258 -0.0654
  866MOL0     C16813  13.925   2.270   5.031  0.5191  0.0750  0.6484
  866MOL0     C16814  14.000   2.137   5.061 -0.0293 -0.7028  0.3790
  866MOL0     C16815  14.082   2.074   4.946  0.0842  0.8357  0.0951
  866MOL0     C16816  14.163   1.961   5.006  0.4397  0.4828 -0.4555
  866MOL0     C16817  14.273   1.919   4.915  1.2027 -1.0188 -0.7623
  866MOL0     C16818  14.385   2.014   4.926 -0.0428  0.1419 -0.5455
  866MOL0    Cl16819  14.506   1.981   4.806 -0.4186  0.1550  0.0136
  866MOL0     C16820  13.546   2.635   5.173  0.1943  0.4908  0.6543
  866MOL0     C16821  13.420   2.691   5.181 -0.4738 -0.6791  0.5020
  866MOL0     O16822  13.177   2.716   5.446  0.3083 -0.2224  0.0389
  866MOL0     C16823  12.897   2.798   5.438  0.4297  0.4893  0.0544
  866MOL0     C16824  12.760   2.829   5.423 -0.4138 -0.0573 -0.7508
  866MOL0     N16825  12.013   2.665   5.470 -0.5173  0.4301  0.5975
  866MOL0     N16826  11.915   2.751   5.492 -0.0083  0.0177 -0.1362
  866MOL0     C16827  10.860   2.755   5.018 -0.5218  0.4478 -0.4848
  866MOL0     C16828  10.751   2.833   5.052 -0.4300  0.3013 -0.7981
  866MOL0     C16829  10.492   3.177   5.086  0.3454  0.0996 -0.2785
  866MOL0     C16830  10.373   3.157   5.012  0.9726  0.5813  0.7729
  866MOL0     C16831  10.267   3.247   5.030 -0.2777 -0.5545 -1.2000
  866MOL0     C16832  10.268   3.353   5.124  0.0142 -0.2600  0.3913
  866MOL0     O16833  10.154   3.424   5.143 -0.7808  0.0953  0.2379
  866MOL0     C16834  10.122   3.496   5.262 -0.7634  0.0273  0.1983
  866MOL0     C16835   9.974   3.481   5.298 -0.4075  0.5666 -0.1040
  866MOL0     C16836   9.917   3.340   5.314  0.2988  0.4449 -0.7840
  866MOL0     C16837   9.781   3.331   5.380  0.1522  0.4460  0.0092
  866MOL0     C16838   9.678   3.375   5.290  0.4407 -0.7184 -0.0622
  866MOL0     C16839   9.590   3.398   5.209 -0.6113 -0.3614  0.4329
  866MOL0     C16840  10.384   3.376   5.197  0.4275  1.2272 -0.0191
  866MOL0     C16841  10.494   3.285   5.183  0.4154  0.8582  0.5146
  866MOL0     C16842  10.609   3.303   5.282  0.5684 -0.2316 -0.1733
  866MOL0     H16843  10.644   2.914   4.748 -2.3583 -0.3085  1.1597
  866MOL0     H16844  10.864   2.762   4.684  1.8348  2.2196  0.3104
  866MOL0     H16845  11.041   2.525   5.020  0.2138  1.7156  0.7832
  866MOL0     H16846  11.145   2.518   4.881  2.9460  3.2291 -1.1930
  866MOL0     H16847  11.130   2.782   5.046  2.2751 -0.2256  1.1918
  866MOL0     H16848  11.215   2.763   4.909  0.2245  2.2835  1.4521
  866MOL0     H16849  11.333   2.556   5.034 -0.0353 -0.4983 -0.0170
  866MOL0     H16850  11.235   2.612   5.178 -1.1288 -1.1639  0.7125
  866MOL0     H16851  11.453   2.753   5.023 -0.2307  0.9541  0.5053
  866MOL0     H16852  11.374   2.811   5.172  0.1204 -0.1431 -0.3338
  866MOL0     H16853  11.454   2.615   5.295  2.3510 -2.9629  0.0693
  866MOL0     H16854  11.516   2.547   5.140  0.4468  0.6607  0.2897
  866MOL0     H16855  11.703   2.630   5.251  1.0854  1.5241  1.8073
  866MOL0     H16856  11.665   2.771   5.133 -3.5192  1.2798 -0.6761
  866MOL0     H16857  11.598   2.747   5.421  0.4712  1.3035 -0.6423
  866MOL0     H16858  11.542   2.865   5.314 -2.0937 -2.5584  0.5433
  866MOL0     H16859  11.774   2.933   5.262  2.3613 -2.4366 -1.4025
  866MOL0     H16860  11.730   2.948   5.433  1.0461  1.3379 -0.5452
  866MOL0     H16861  11.934   2.769   5.173 -3.6569  1.6793 -0.0654
  866MOL0     H16862  12.158   2.486   5.351 -0.4777 -2.5778 -0.5313
  866MOL0     H16863  12.083   2.511   5.193  1.5898  2.2565 -1.3728
  866MOL0     H16864  12.294   2.583   5.131 -0.6918 -0.6120 -0.6134
  866MOL0     H16865  12.192   2.717   5.137 -1.8896  0.0206  1.6441
  866MOL0     H16866  12.333   2.684   5.391 -0.2709  0.7570  0.2355
  866MOL0     H16867  12.303   2.831   5.293 -1.9864 -1.1095 -0.5227
  866MOL0     H16868  12.486   2.757   5.129  1.1574 -1.2610 -0.4336
  866MOL0     H16869  12.518   2.620   5.236  3.1920  1.3328  0.7018
  866MOL0     H16870  12.726   2.707   5.110  2.5715  2.8442 -1.4424
  866MOL0     H16871  12.948   2.663   5.127 -1.5955 -0.5421 -0.9741
  866MOL0     H16872  13.269   2.444   5.354  0.1442 -0.4337  1.1669
  866MOL0     H16873  13.502   2.359   5.359 -1.7365 -0.3507  0.2052
  866MOL0     H16874  13.769   2.503   5.053  0.5749  0.8164  1.3137
  866MOL0     H16875  13.893   2.505   5.179 -0.3138 -0.1028 -0.2382
  866MOL0     H16876  13.872   2.266   5.232 -0.4443  0.5613  0.4526
  866MOL0     H16877  13.739   2.247   5.133  0.2378 -1.0441  3.2154
  866MOL0     H16878  13.872   2.268   4.936  1.4747  1.2177  0.0684
  866MOL0     H16879  14.009   2.339   5.025  0.1936  0.3317 -3.2300
  866MOL0     H16880  13.932   2.058   5.096 -0.1785 -0.4512  0.6680
  866MOL0     H16881  14.066   2.145   5.148 -0.1085  2.5679  0.2739
  866MOL0     H16882  14.156   2.144   4.905  2.4614 -1.0753  0.8962
  866MOL0     H16883  14.025   2.034   4.862  0.6252 -2.2823  1.0833
  866MOL0     H16884  14.204   1.992   5.102  3.3976 -0.4919 -1.3097
  866MOL0     H16885  14.100   1.871   5.011  1.1294  0.0447  0.5281
  866MOL0     H16886  14.241   1.917   4.810  1.5590 -0.9391 -0.8725
  866MOL0     H16887  14.306   1.818   4.941 -0.2776 -2.1556 -2.9699
  866MOL0     H16888  14.358   2.119   4.912  1.3295  0.8368  1.4608
  866MOL0     H16889  14.433   2.004   5.024 -2.0380 -0.4594  0.4275
  866MOL0     H16890  13.631   2.695   5.141 -0.6033  2.1751  1.5200
  866MOL0     H16891  13.402   2.792   5.146  3.4482  0.2334  0.6627
  866MOL0     H16892  12.942   2.814   5.536 -0.0375 -2.0543  0.7489
  866MOL0     H16893  12.702   2.881   5.499 -0.7244  2.0945 -2.3374
  866MOL0     H16894  10.914   2.698   5.093  0.6031  0.9683 -0.8679
  866MOL0     H16895  10.724   2.861   5.153  0.3133  4.2070 -1.5106
  866MOL0     H16896  10.373   3.074   4.942  0.6951 -0.3478  1.8416
  866MOL0     H16897  10.171   3.233   4.983 -0.4553  1.2573 -1.4594
  866MOL0     H16898  10.159   3.597   5.245  1.1039 -0.8781 -1.6335
  866MOL0     H16899  10.184   3.459   5.345  1.6329  1.9503 -0.6162
  866MOL0     H16900   9.917   3.528   5.218  0.9884 -0.2115 -1.6250
  866MOL0     H16901   9.972   3.543   5.389 -0.6316  2.2280 -1.1954
  866MOL0     H16902   9.987   3.279   5.370 -0.8412  0.9555  1.2948
  866MOL0     H16903   9.920   3.298   5.212  0.5200 -0.0319 -0.5834
  866MOL0     H16904   9.769   3.224   5.400  3.7623 -0.3632 -1.4000
  866MOL0     H16905   9.773   3.397   5.467 -1.8220 -0.5731  0.6773
  866MOL0     H16906   9.505   3.423   5.148 -0.8658 -0.3412  0.7892
  866MOL0     H16907  10.403   3.462   5.260 -0.0947  1.0545  0.3815
  866MOL0     H16908  10.695   3.340   5.226  0.2338  0.9699  0.0662
  866MOL0     H16909  10.589   3.375   5.362 -0.0931 -1.7219  1.0631
  866MOL0     H16910  10.623   3.207   5.333 -0.3765 -0.1178  0.3298
  867MOL0     O16911   0.861   4.170   5.330 -0.5577 -0.4083 -0.1646
  867MOL0     C16912   0.818   4.147   5.215  0.3597 -0.6096  1.3351
  867MOL0     O16913   0.897   4.104   5.108 -0.4741 -0.0133  0.0998
  867MOL0     C16914   1.033   4.079   5.117  0.6498 -1.2699  0.0166
  867MOL0     C16915   1.091   3.998   5.224 -0.3489 -0.2034 -0.1309
  867MOL0     C16916   1.236   3.992   5.230  0.2391  0.3171 -0.1498
  867MOL0     C16917   1.321   4.054   5.135 -0.3278  0.7136 -0.1094
  867MOL0     O16918   1.459   4.039   5.125 -0.0356 -0.5586 -0.1601
  867MOL0     C16919   1.540   3.973   5.225  0.3640  0.0792 -0.1902
  867MOL0     C16920   1.692   4.010   5.187  0.6836 -0.5048 -0.3762
  867MOL0     C16921   1.734   4.159   5.179 -0.4943  0.9198  0.2179
  867MOL0     C16922   1.884   4.177   5.136 -0.3523  0.3932  0.1257
  867MOL0     C16923   1.992   4.138   5.238  0.9797 -0.5071 -0.2893
  867MOL0     C16924   2.128   4.187   5.190  0.0488  0.8065  0.6446
  867MOL0     C16925   2.241   4.199   5.292 -0.3503  0.6799  0.1801
  867MOL0     C16926   2.263   4.066   5.373  0.2111 -0.1638 -0.4214
  867MOL0     N16927   2.158   4.031   5.461  0.1089  0.6584 -0.1422
  867MOL0     C16928   2.105   4.109   5.558  0.2908 -0.6964 -0.4234
  867MOL0     C16929   2.011   4.027   5.615  0.3584  0.4960 -0.4292
  867MOL0     C16930   1.921   4.066   5.727 -0.8747  0.4222 -0.5296
  867MOL0     C16931   1.782   4.131   5.703 -0.0809  0.2209  0.1340
  867MOL0     C16932   1.695   4.024   5.618 -0.3328 -0.6089 -0.4727
  867MOL0     C16933   1.548   4.010   5.648  0.3572  0.2040 -0.7671
  867MOL0     O16934   1.489   3.900   5.578 -0.1565 -0.1382 -0.1776
  867MOL0     C16935   1.355   3.861   5.599  0.5398 -0.1848 -0.7731
  867MOL0     C16936   1.313   3.731   5.566 -0.0386 -0.6393 -0.2815
  867MOL0     C16937   1.181   3.698   5.566  0.3828  0.2826  0.5741
  867MOL0     C16938   1.079   3.792   5.600 -0.0422 -0.1254 -1.0003
  867MOL0     C16939   0.938   3.751   5.594 -0.0443 -0.6441  0.2371
  867MOL0     O16940   0.851   3.848   5.615  0.5836  0.1658 -0.8048
  867MOL0     C16941   0.724   3.846   5.558 -0.4018 -0.4283  0.2487
  867MOL0     C16942   0.638   3.732   5.555 -0.1968 -1.1847  0.0748
  867MOL0     C16943   0.519   3.729   5.489 -0.4125 -0.4741  0.3028
  867MOL0     C16944   0.461   3.847   5.438 -0.7424  0.0425  0.3514
  867MOL0     O16945   0.334   3.852   5.370 -0.9447 -0.4577  0.1840
  867MOL0     C16946   0.263   3.726   5.352  0.1511  0.5632 -0.0366
  867MOL0     C16947   0.195   3.681   5.482  0.2382 -0.4916 -0.7200
  867MOL0     C16948   0.124   3.545   5.465  0.5035 -0.2698  0.0321
  867MOL0     C16949  -0.028   3.555   5.488  0.4237  0.7753  0.2594
  867MOL0     C16950  -0.098   3.430   5.437  0.3808  0.8385  0.3951
  867MOL0     C16951  -0.244   3.452   5.440  0.7423  0.2272  0.6398
  867MOL0     C16952  -0.327   3.329   5.395 -0.1594  0.0861 -0.5599
  867MOL0     C16953  -0.479   3.345   5.418  0.5759  0.5654 -0.2557
  867MOL0    Cl16954  -0.514   3.318   5.591 -0.2481 -0.3003 -0.1480
  867MOL0     C16955   0.543   3.964   5.435  0.9696 -0.8015 -0.7316
  867MOL0     C16956   0.670   3.956   5.492 -0.3974 -0.3257 -0.0601
  867MOL0     O16957   0.919   3.645   5.532 -0.7769 -0.2067 -0.0025
  867MOL0     C16958   1.119   3.928   5.635  0.4778  0.1861  0.3887
  867MOL0     C16959   1.255   3.957   5.631 -0.1341 -0.7153 -0.6908
  867MOL0     N16960   2.028   3.896   5.562 -0.3244  0.2249 -0.2282
  867MOL0     N16961   2.127   3.905   5.478  0.8823  0.2362  0.4851
  867MOL0     C16962   1.263   4.138   5.055  0.6900  1.8350  0.4982
  867MOL0     C16963   1.127   4.142   5.032 -0.1718 -0.3685 -0.8010
  867MOL0     C16964   0.676   4.169   5.176  0.2850 -0.7302  0.1030
  867MOL0     C16965   0.611   4.092   5.071 -0.3583  0.5547  0.3164
  867MOL0     C16966   0.473   4.106   5.051 -0.5086  0.7462  0.4512
  867MOL0     C16967   0.405   4.201   5.120  0.0529 -0.3958 -0.6988
  867MOL0     O16968   0.275   4.233   5.104 -0.0562 -0.2815 -0.9925
  867MOL0     C16969   0.235   4.285   4.979  1.0162 -0.2423 -0.3222
  867MOL0     C16970   0.231   4.434   4.981  0.2791 -0.1865  0.1284
  867MOL0     C16971   0.149   4.480   4.858  0.1943 -0.8469  0.0369
  867MOL0     C16972   0.225   4.484   4.729 -0.2520 -0.3455 -0.1920
  867MOL0     C16973   0.336   4.586   4.727  0.3314  0.1424  0.4486
  867MOL0     C16974   0.430   4.662   4.719 -0.2258  0.2692 -0.5208
  867MOL0     C16975   0.470   4.287   5.211  0.6351  0.0513 -0.0897
  867MOL0     C16976   0.603   4.279   5.229 -1.3069  0.1417  0.9455
  867MOL0     C16977   0.666   4.400   5.299  0.0787  0.0893  0.4389
  867MOL0     H16978   1.038   3.967   5.314  0.5249  5.3016  2.7691
  867MOL0     H16979   1.277   3.931   5.311 -0.3974  0.8118  0.5631
  867MOL0     H16980   1.511   4.006   5.326 -2.8680  2.7224 -1.7852
  867MOL0     H16981   1.517   3.867   5.218  1.9851 -0.3332  0.2941
  867MOL0     H16982   1.717   3.963   5.092  4.0858 -1.6182  0.9055
  867MOL0     H16983   1.758   3.961   5.260  2.8079  0.7749 -1.3460
  867MOL0     H16984   1.720   4.191   5.282  2.9437  3.5945  0.0315
  867MOL0     H16985   1.667   4.214   5.112 -0.2270 -0.9452 -1.7081
  867MOL0     H16986   1.897   4.126   5.040  0.6341 -4.1285  2.4371
  867MOL0     H16987   1.897   4.284   5.114 -2.9964  0.7298 -0.1525
  867MOL0     H16988   1.969   4.186   5.333  2.3463 -2.4278  1.0824
  867MOL0     H16989   1.987   4.030   5.256 -0.8751 -0.3550  0.2398
  867MOL0     H16990   2.152   4.111   5.114 -3.9215  0.6398 -0.6850
  867MOL0     H16991   2.123   4.284   5.140 -1.5494  0.9477  1.0177
  867MOL0     H16992   2.217   4.286   5.354  0.5715  1.2543 -0.2363
  867MOL0     H16993   2.339   4.216   5.245 -0.2117  2.3147  0.9728
  867MOL0     H16994   2.292   3.983   5.309  1.0242 -0.5549  0.4256
  867MOL0     H16995   2.343   4.081   5.446 -1.0502  0.1520  0.9589
  867MOL0     H16996   2.118   4.213   5.589 -1.0502 -0.5917 -0.1431
  867MOL0     H16997   1.891   3.979   5.786 -2.4552  0.4516 -1.2338
  867MOL0     H16998   1.989   4.129   5.786  0.0566 -2.2888  1.5081
  867MOL0     H16999   1.731   4.152   5.797  1.2628  1.2597  0.6549
  867MOL0     H17000   1.794   4.223   5.645  2.0049  0.7544  1.3253
  867MOL0     H17001   1.724   3.919   5.622  0.6130 -0.3222  0.8102
  867MOL0     H17002   1.704   4.052   5.512 -3.9268  0.4320 -0.6370
  867MOL0     H17003   1.496   4.104   5.628  0.2154  0.5120  0.8662
  867MOL0     H17004   1.531   3.984   5.753  0.0470  1.4316 -0.5008
  867MOL0     H17005   1.390   3.661   5.532 -0.5450 -2.0298  1.2649
  867MOL0     H17006   1.146   3.596   5.551  1.3320 -0.2666  1.8895
  867MOL0     H17007   0.667   3.641   5.605  2.5352  1.4864  3.9181
  867MOL0     H17008   0.462   3.637   5.488 -1.9479  0.4442 -0.0031
  867MOL0     H17009   0.187   3.746   5.276 -1.8972  2.4109  2.3266
  867MOL0     H17010   0.328   3.643   5.321  1.8621  2.3151 -1.4313
  867MOL0     H17011   0.265   3.672   5.566 -1.3916 -1.3285  0.6206
  867MOL0     H17012   0.123   3.756   5.516 -1.9002 -3.5929  2.2842
  867MOL0     H17013   0.133   3.506   5.363  0.0479 -0.2211 -0.0297
  867MOL0     H17014   0.170   3.460   5.517  0.6358 -0.2974 -0.1324
  867MOL0     H17015  -0.068   3.643   5.438 -3.0226 -0.5304  0.4396
  867MOL0     H17016  -0.057   3.557   5.594 -1.7724  2.1495 -0.3136
  867MOL0     H17017  -0.069   3.340   5.493  0.3829  0.1958 -0.6096
  867MOL0     H17018  -0.066   3.405   5.335  0.9595  2.1522  0.2391
  867MOL0     H17019  -0.261   3.475   5.546  0.9843  0.6585  0.5867
  867MOL0     H17020  -0.272   3.542   5.385  0.3763  0.5516  1.3389
  867MOL0     H17021  -0.295   3.235   5.440  0.7258 -0.0921 -1.5296
  867MOL0     H17022  -0.313   3.309   5.288 -3.5540 -1.3158 -0.8828
  867MOL0     H17023  -0.509   3.448   5.394  0.7549  0.2734 -1.8655
  867MOL0     H17024  -0.542   3.285   5.351  1.5582  0.2200 -0.8943
  867MOL0     H17025   0.506   4.063   5.410 -1.2600 -0.9750  1.4569
  867MOL0     H17026   0.728   4.048   5.496  0.4343 -0.8961  2.5162
  867MOL0     H17027   1.045   4.003   5.664 -1.4643 -1.7436  0.7344
  867MOL0     H17028   1.288   4.056   5.663  2.6145 -1.9137  0.4670
  867MOL0     H17029   1.323   4.195   4.984  2.1304 -0.3330 -0.1459
  867MOL0     H17030   1.091   4.195   4.945 -1.2747  1.8992  0.9272
  867MOL0     H17031   0.659   4.012   5.016 -0.5450  0.7105 -0.0820
  867MOL0     H17032   0.408   4.041   4.994  3.1205 -2.5718 -0.2930
  867MOL0     H17033   0.142   4.237   4.947  1.7168 -1.6337 -0.3009
  867MOL0     H17034   0.309   4.257   4.904  1.2802 -0.2097 -0.0784
  867MOL0     H17035   0.327   4.486   4.995 -0.1474  0.3916  1.0327
  867MOL0     H17036   0.175   4.452   5.073 -1.0663 -0.2832 -0.6486
  867MOL0     H17037   0.126   4.585   4.878  1.1769 -0.3082 -1.5448
  867MOL0     H17038   0.053   4.429   4.850 -0.5081  0.2304  1.2141
  867MOL0     H17039   0.270   4.385   4.718  1.3111 -0.3026  4.0548
  867MOL0     H17040   0.157   4.507   4.646  0.7923 -0.5084 -1.1187
  867MOL0     H17041   0.507   4.736   4.713  1.2128 -0.9224  1.7488
  867MOL0     H17042   0.420   4.359   5.275 -1.2642 -2.6903  1.7279
  867MOL0     H17043   0.609   4.487   5.265 -4.2677 -2.4935  0.3861
  867MOL0     H17044   0.640   4.388   5.404 -0.6415  1.0935  0.3899
  867MOL0     H17045   0.772   4.418   5.279  0.2341 -0.3186  0.8888
  868MOL0     O17046   1.612   9.817   2.181  0.1044 -0.4226  0.4606
  868MOL0     C17047   1.694   9.751   2.113  0.8165  0.1137  0.2913
  868MOL0     O17048   1.722   9.784   1.983 -0.1149 -0.3632 -0.0086
  868MOL0     C17049   1.636   9.868   1.923 -0.1584  0.1366  0.3726
  868MOL0     C17050   1.682   9.987   1.868  0.9360 -0.9505  0.0531
  868MOL0     C17051   1.603  10.063   1.788 -0.2974 -0.2400 -0.1677
  868MOL0     C17052   1.475  10.024   1.743  0.0983  0.2263 -1.1907
  868MOL0     O17053   1.424  10.102   1.640 -0.0764 -0.3439  0.3439
  868MOL0     C17054   1.461  10.054   1.508 -0.0481 -0.0777 -0.2895
  868MOL0     C17055   1.379   9.923   1.466 -0.6519  0.3581  0.2579
  868MOL0     C17056   1.231   9.940   1.443  0.3102  0.1667 -0.2627
  868MOL0     C17057   1.192  10.046   1.334  0.7127 -0.0846  0.4054
  868MOL0     C17058   1.066  10.113   1.380 -0.3781 -0.2607 -0.8059
  868MOL0     C17059   0.943  10.018   1.372 -0.6656 -0.3917 -0.7297
  868MOL0     C17060   0.826  10.110   1.414  0.3702 -1.1687 -0.7235
  868MOL0     C17061   0.694  10.043   1.380  0.4816  0.0531 -0.5223
  868MOL0     N17062   0.672   9.899   1.406  0.9179 -0.6162  0.1774
  868MOL0     C17063   0.579   9.856   1.495  0.3161 -0.9136  1.1731
  868MOL0     C17064   0.582   9.719   1.478  0.8279 -0.4309 -0.0361
  868MOL0     C17065   0.507   9.620   1.557  0.6116 -0.1321 -0.1207
  868MOL0     C17066   0.355   9.596   1.530  0.0303  0.2382  0.0065
  868MOL0     C17067   0.273   9.657   1.650 -0.4025 -0.1778  0.4270
  868MOL0     C17068   0.113   9.638   1.640 -0.5170  0.4214 -0.2865
  868MOL0     O17069   0.085   9.491   1.634  0.6741 -0.6205 -0.1071
  868MOL0     C17070  -0.044   9.466   1.662  0.8720  0.4927  0.3874
  868MOL0     C17071  -0.071   9.329   1.684 -0.0604 -0.0477 -1.2358
  868MOL0     C17072  -0.204   9.285   1.722 -0.2146  0.1676  0.1885
  868MOL0     C17073  -0.312   9.379   1.729  0.7356  0.6855 -0.2411
  868MOL0     C17074  -0.455   9.327   1.767 -0.4054 -0.4934 -0.6350
  868MOL0     O17075  -0.574   9.393   1.741 -0.4093  0.4567  0.1110
  868MOL0     C17076  -0.692   9.321   1.736 -0.6682  0.1770 -0.6371
  868MOL0     C17077  -0.715   9.198   1.676  0.1301  0.4295  0.8846
  868MOL0     C17078  -0.845   9.148   1.683  0.0711  0.0030  0.6271
  868MOL0     C17079  -0.957   9.206   1.742  0.1229 -0.3186 -0.1457
  868MOL0     O17080  -1.082   9.142   1.752 -0.0540 -0.4310  0.0752
  868MOL0     C17081  -1.128   9.107   1.885 -0.3334 -0.3308 -0.1388
  868MOL0     C17082  -1.275   9.062   1.872  0.4112  0.0198 -0.2155
  868MOL0     C17083  -1.374   9.180   1.862 -0.1094 -0.7041  0.0328
  868MOL0     C17084  -1.507   9.115   1.859 -0.2961  0.2889  0.1598
  868MOL0     C17085  -1.612   9.211   1.911  0.3108  0.2281  0.7435
  868MOL0     C17086  -1.749   9.150   1.880 -0.6730  0.0606 -0.5001
  868MOL0     C17087  -1.861   9.243   1.938 -0.2662  0.4360 -0.1621
  868MOL0     C17088  -1.994   9.172   1.933  0.9814  1.5000  0.6408
  868MOL0    Cl17089  -2.036   9.046   2.044 -0.3350  0.4790 -0.0445
  868MOL0     C17090  -0.925   9.334   1.797 -0.3305 -0.5942 -0.4313
  868MOL0     C17091  -0.802   9.389   1.793  0.4985  0.2667  0.5543
  868MOL0     O17092  -0.444   9.229   1.846  0.1740  0.2251  0.0788
  868MOL0     C17093  -0.285   9.512   1.710 -0.3436  0.4209 -0.4383
  868MOL0     C17094  -0.155   9.553   1.672  0.4592 -0.4072 -0.2402
  868MOL0     N17095   0.663   9.696   1.370 -0.2362 -0.4066 -0.7077
  868MOL0     N17096   0.717   9.805   1.332 -0.2711 -0.0275 -0.3702
  868MOL0     C17097   1.418   9.907   1.807 -0.0095 -0.3875  0.7156
  868MOL0     C17098   1.497   9.833   1.895 -0.2722 -0.4530  0.3982
  868MOL0     C17099   1.773   9.654   2.191 -0.0281 -0.7105  0.1937
  868MOL0     C17100   1.901   9.636   2.139  0.9439 -0.3872 -0.0615
  868MOL0     C17101   1.991   9.560   2.214 -0.5572 -0.3974 -0.1392
  868MOL0     C17102   1.961   9.495   2.332 -0.0561  0.4112  0.1347
  868MOL0     O17103   2.033   9.399   2.405  0.2696 -0.0293 -0.3133
  868MOL0     C17104   2.167   9.366   2.363 -0.1170  0.3183  0.2005
  868MOL0     C17105   2.233   9.249   2.427 -0.5914  0.4291  0.1655
  868MOL0     C17106   2.322   9.162   2.338 -0.1305  0.2815  0.0624
  868MOL0     C17107   2.465   9.219   2.300 -0.2069  0.3502  0.1305
  868MOL0     C17108   2.559   9.192   2.405  0.1112  0.5681  0.3096
  868MOL0     C17109   2.635   9.186   2.500 -0.4640 -0.1540 -0.0230
  868MOL0     C17110   1.833   9.512   2.378  0.2780 -0.5839 -0.4731
  868MOL0     C17111   1.742   9.599   2.314  0.0398 -0.3963 -1.4448
  868MOL0     C17112   1.613   9.627   2.393 -0.4265  0.9006  0.0519
  868MOL0     H17113   1.784  10.017   1.892  0.5766 -0.2855  0.7896
  868MOL0     H17114   1.644  10.158   1.757  0.5191 -0.4050  0.3666
  868MOL0     H17115   1.423  10.132   1.441 -1.1224 -1.2006 -1.0274
  868MOL0     H17116   1.570  10.046   1.510  0.1875  2.4324  0.6737
  868MOL0     H17117   1.393   9.854   1.550 -2.3195 -0.4320 -0.0795
  868MOL0     H17118   1.430   9.883   1.377 -2.5715 -4.7357  1.1345
  868MOL0     H17119   1.191   9.971   1.540  0.9170 -0.9319  0.3597
  868MOL0     H17120   1.189   9.843   1.417  1.1814 -0.0500 -0.9077
  868MOL0     H17121   1.264  10.124   1.308  0.5114 -0.4558 -1.3989
  868MOL0     H17122   1.174   9.991   1.241  1.0833  0.6680 -0.1236
  868MOL0     H17123   1.085  10.151   1.481 -1.9697  1.7070 -1.1831
  868MOL0     H17124   1.043  10.186   1.301 -0.3206 -0.7904 -1.3243
  868MOL0     H17125   0.933   9.983   1.269 -0.2288  0.3842 -1.0471
  868MOL0     H17126   0.952   9.940   1.448  3.8856  1.1571  0.6685
  868MOL0     H17127   0.824  10.200   1.352 -0.1480 -1.5370 -1.2564
  868MOL0     H17128   0.843  10.132   1.519 -1.7352  1.8974 -0.9032
  868MOL0     H17129   0.614  10.106   1.419 -0.1233 -0.4790 -0.8713
  868MOL0     H17130   0.681  10.037   1.271  0.7951 -0.3281 -0.5414
  868MOL0     H17131   0.519   9.920   1.560 -0.6337  1.3147 -1.6964
  868MOL0     H17132   0.556   9.522   1.561  1.7914  0.3789 -1.2561
  868MOL0     H17133   0.531   9.650   1.660 -0.8888  0.8125 -0.0201
  868MOL0     H17134   0.312   9.643   1.442  0.0387  1.3750  0.5950
  868MOL0     H17135   0.341   9.488   1.518  0.6762 -0.1855  2.4711
  868MOL0     H17136   0.297   9.763   1.664  4.0038 -0.4548 -2.6684
  868MOL0     H17137   0.298   9.609   1.746 -0.7199  2.5987  1.9973
  868MOL0     H17138   0.081   9.690   1.549 -2.4187 -0.5220 -0.2031
  868MOL0     H17139   0.061   9.673   1.729  0.5529 -2.8500  1.8090
  868MOL0     H17140   0.012   9.259   1.676  0.6823  0.9097 -2.0444
  868MOL0     H17141  -0.224   9.178   1.734  0.9811 -0.1505 -0.5011
  868MOL0     H17142  -0.640   9.159   1.608 -1.4297 -1.1155  0.0001
  868MOL0     H17143  -0.870   9.054   1.636 -1.5995  0.8923 -0.3417
  868MOL0     H17144  -1.069   9.024   1.926 -1.9995 -1.8327 -0.6428
  868MOL0     H17145  -1.116   9.198   1.944  2.4929  0.5413 -1.8754
  868MOL0     H17146  -1.278   8.998   1.783  1.0385  0.6903 -0.7309
  868MOL0     H17147  -1.309   9.002   1.956 -2.5148  0.5051 -0.9403
  868MOL0     H17148  -1.369   9.255   1.941 -3.4714  2.9773 -2.8317
  868MOL0     H17149  -1.370   9.250   1.778 -0.4299 -2.2166 -1.2799
  868MOL0     H17150  -1.509   9.022   1.918  0.5472  1.3486  1.9403
  868MOL0     H17151  -1.537   9.086   1.758 -0.9721 -3.6038  1.2760
  868MOL0     H17152  -1.603   9.304   1.854 -0.7025  1.3469  2.3085
  868MOL0     H17153  -1.609   9.223   2.020  0.0905  2.0461  0.5850
  868MOL0     H17154  -1.766   9.128   1.774 -2.4247  1.2862 -0.5107
  868MOL0     H17155  -1.744   9.058   1.940 -0.2226  1.5875  1.9413
  868MOL0     H17156  -1.867   9.332   1.875  0.3915  0.4527 -0.2056
  868MOL0     H17157  -1.854   9.263   2.045  1.3942 -1.0943  0.0515
  868MOL0     H17158  -2.074   9.246   1.945 -0.6773 -0.0664 -0.2627
  868MOL0     H17159  -2.001   9.130   1.832  2.1993 -0.3684  1.2838
  868MOL0     H17160  -1.003   9.392   1.845 -0.1253 -0.6845  0.0179
  868MOL0     H17161  -0.794   9.486   1.841 -0.6253  0.7115 -0.1224
  868MOL0     H17162  -0.369   9.579   1.726 -0.7158 -0.1096 -0.1437
  868MOL0     H17163  -0.140   9.656   1.641  2.1481 -0.4272  0.3758
  868MOL0     H17164   1.323   9.865   1.775  0.1025  0.8379 -1.4591
  868MOL0     H17165   1.466   9.748   1.954 -1.6563 -0.6798 -0.5936
  868MOL0     H17166   1.924   9.674   2.040 -2.1267  1.3771 -0.2164
  868MOL0     H17167   2.091   9.544   2.175 -0.5791  0.2762 -0.4938
  868MOL0     H17168   2.228   9.455   2.379 -0.2071  0.4746 -0.3035
  868MOL0     H17169   2.180   9.354   2.255  0.7562 -1.5016  0.4610
  868MOL0     H17170   2.157   9.180   2.464  0.7408 -0.5893  1.0953
  868MOL0     H17171   2.290   9.275   2.516  0.1993  1.5095 -0.6222
  868MOL0     H17172   2.278   9.117   2.248  2.0417 -0.2577 -0.7866
  868MOL0     H17173   2.335   9.078   2.407 -1.6333 -1.9569 -2.2245
  868MOL0     H17174   2.488   9.165   2.208 -0.3174 -0.8604  0.7974
  868MOL0     H17175   2.456   9.328   2.287 -1.5015  0.1776 -0.6165
  868MOL0     H17176   2.706   9.165   2.577 -0.7225 -1.3834 -0.0874
  868MOL0     H17177   1.818   9.477   2.480 -1.8448  0.9376 -0.1846
  868MOL0     H17178   1.533   9.576   2.339 -0.6155 -1.8620  2.6964
  868MOL0     H17179   1.618   9.580   2.492 -0.4237 -0.0173 -0.3710
  868MOL0     H17180   1.598   9.734   2.408 -0.1827  0.7059  1.8936
  869MOL0     O17181  10.611   0.375  11.072 -0.3187  0.8042 -0.0975
  869MOL0     C17182  10.691   0.295  11.125  0.0077 -0.4853 -0.0742
  869MOL0     O17183  10.672   0.230  11.242  1.0928 -1.0010  0.5183
  869MOL0     C17184  10.553   0.227  11.307 -0.5758 -0.5754 -0.1235
  869MOL0     C17185  10.483   0.349  11.335  0.1049  0.7801 -0.0908
  869MOL0     C17186  10.380   0.353  11.433  0.6073  0.4417 -0.2488
  869MOL0     C17187  10.338   0.231  11.500  0.4664  1.1690  1.3568
  869MOL0     O17188  10.233   0.216  11.581  0.1708 -0.6959  0.2412
  869MOL0     C17189  10.161   0.337  11.635  0.2666 -0.4856  0.7165
  869MOL0     C17190  10.077   0.279  11.746  0.2791  0.0897  0.1668
  869MOL0     C17191   9.999   0.382  11.824  0.5939  0.1631 -0.2009
  869MOL0     C17192   9.855   0.346  11.861  0.2544 -0.6274 -0.1031
  869MOL0     C17193   9.802   0.438  11.968 -0.1288  0.6304 -0.0923
  869MOL0     C17194   9.651   0.407  11.983  0.8354 -0.4839 -0.2446
  869MOL0     C17195   9.587   0.517  12.071  0.2259  0.6002  0.2777
  869MOL0     C17196   9.440   0.476  12.111  0.0856  0.0020  0.1089
  869MOL0     N17197   9.348   0.475  11.996  0.1605 -0.0168  1.1114
  869MOL0     C17198   9.299   0.370  11.926 -0.0306 -0.7612 -0.1342
  869MOL0     C17199   9.236   0.423  11.825 -0.4626 -1.6497  0.4992
  869MOL0     C17200   9.159   0.340  11.719 -0.0974 -0.4474  0.6110
  869MOL0     C17201   9.235   0.217  11.664  0.0387 -0.7057 -0.5149
  869MOL0     C17202   9.367   0.252  11.611  0.5193 -0.3235  0.1110
  869MOL0     C17203   9.464   0.136  11.597 -0.1152  0.2382  0.6392
  869MOL0     O17204   9.513   0.110  11.729 -0.0744 -0.0552 -0.1469
  869MOL0     C17205   9.625   0.037  11.746 -0.0077  0.3696  0.3299
  869MOL0     C17206   9.702  -0.036  11.648  0.0642 -0.0237 -0.1609
  869MOL0     C17207   9.817  -0.091  11.686  0.3745  0.8815 -0.2512
  869MOL0     C17208   9.863  -0.082  11.820 -0.2817  0.4075  0.4859
  869MOL0     C17209  10.001  -0.118  11.843  0.2359  0.0238 -0.0394
  869MOL0     O17210  10.055  -0.082  11.959  0.0209 -0.5580  0.1084
  869MOL0     C17211  10.190  -0.087  11.964 -0.7530  0.1805  0.0559
  869MOL0     C17212  10.252  -0.147  12.064 -0.3145  0.6856 -0.1181
  869MOL0     C17213  10.387  -0.143  12.091 -0.0717  0.5599 -0.0276
  869MOL0     C17214  10.470  -0.073  11.994 -0.0619  0.4259 -1.0188
  869MOL0     O17215  10.602  -0.065  12.005  0.3181 -0.1970 -0.3128
  869MOL0     C17216  10.681  -0.107  12.121  1.1121  0.6750 -0.2414
  869MOL0     C17217  10.776  -0.002  12.161 -1.4596  0.2651  0.2724
  869MOL0     C17218  10.871  -0.048  12.275  0.5161 -0.6031  0.5649
  869MOL0     C17219  10.946   0.068  12.334 -1.0417 -0.5215 -0.3922
  869MOL0     C17220  11.009   0.032  12.463 -0.5182  0.0977 -1.7942
  869MOL0     C17221  11.058   0.160  12.526 -0.0803  0.7333 -0.6804
  869MOL0     C17222  11.046   0.173  12.684  0.6910  0.1784  0.3966
  869MOL0     C17223  11.164   0.100  12.746  0.7289  0.3334  0.3486
  869MOL0    Cl17224  11.323   0.191  12.737 -0.1054 -0.1787  0.0630
  869MOL0     C17225  10.408  -0.015  11.884 -0.2529 -0.2185  0.5108
  869MOL0     C17226  10.270  -0.024  11.867  0.3383  0.3668 -0.0553
  869MOL0     O17227  10.050  -0.204  11.767 -0.2020 -0.1788 -0.3019
  869MOL0     C17228   9.781  -0.026  11.918  0.0506  0.0383 -0.1540
  869MOL0     C17229   9.657   0.029  11.882  0.2456 -0.6249 -0.3945
  869MOL0     N17230   9.244   0.565  11.832 -0.3532 -0.0724  0.6289
  869MOL0     N17231   9.317   0.590  11.941 -0.1227  0.5014  1.0733
  869MOL0     C17232  10.412   0.118  11.469 -0.3823  0.6402 -0.9882
  869MOL0     C17233  10.515   0.117  11.376 -0.2959 -0.7967 -0.3466
  869MOL0     C17234  10.818   0.270  11.040  1.4040  0.0574 -0.7250
  869MOL0     C17235  10.860   0.366  10.947  0.2955  0.6508 -0.2453
  869MOL0     C17236  10.983   0.366  10.880 -0.3285  0.6247 -0.0749
  869MOL0     C17237  11.072   0.259  10.908  0.8435  0.8865 -0.3949
  869MOL0     O17238  11.200   0.256  10.851  0.7732 -0.4309 -1.0578
  869MOL0     C17239  11.232   0.339  10.738  0.4237  0.2861 -0.3716
  869MOL0     C17240  11.371   0.297  10.687 -0.7690 -0.5256 -0.6027
  869MOL0     C17241  11.370   0.151  10.638  0.5105 -0.4450  0.1915
  869MOL0     C17242  11.513   0.098  10.655  0.6691  0.1290 -0.7481
  869MOL0     C17243  11.509  -0.040  10.625 -0.2365  0.7011  0.7939
  869MOL0     C17244  11.516  -0.158  10.587  0.1524  0.2833 -0.0450
  869MOL0     C17245  11.022   0.158  10.994  0.2231 -0.1091  0.1028
  869MOL0     C17246  10.899   0.153  11.059  0.6506 -0.0519  1.1177
  869MOL0     C17247  10.859   0.033  11.142 -0.3164 -0.8900  0.4129
  869MOL0     H17248  10.528   0.436  11.289 -0.2065  2.3960  2.4602
  869MOL0     H17249  10.335   0.451  11.445  0.7398  0.6348 -1.2760
  869MOL0     H17250  10.218   0.424  11.669 -1.4330  0.9401  0.1236
  869MOL0     H17251  10.088   0.380  11.565  0.4784  2.0738  1.9473
  869MOL0     H17252  10.141   0.229  11.819  1.4119  1.4965  0.1854
  869MOL0     H17253  10.004   0.207  11.709 -2.3129  1.1247  2.8329
  869MOL0     H17254  10.007   0.481  11.779 -0.9088  0.5191  0.2499
  869MOL0     H17255  10.056   0.388  11.917  0.1335 -2.1958  0.2977
  869MOL0     H17256   9.788   0.346  11.775 -1.0723  2.6126  0.7936
  869MOL0     H17257   9.863   0.246  11.906 -2.5267 -0.3240  1.2909
  869MOL0     H17258   9.842   0.424  12.069 -1.3219 -0.0894  0.3000
  869MOL0     H17259   9.812   0.541  11.931 -0.2012  0.4102 -0.7353
  869MOL0     H17260   9.610   0.411  11.882  1.0515 -2.6863 -0.4661
  869MOL0     H17261   9.630   0.310  12.029 -0.1057 -0.2473 -0.1530
  869MOL0     H17262   9.588   0.614  12.021  0.5354  1.4107  1.7703
  869MOL0     H17263   9.643   0.533  12.164 -0.7318  1.5936  0.7160
  869MOL0     H17264   9.434   0.373  12.147 -1.2338  1.2474  3.8161
  869MOL0     H17265   9.389   0.536  12.186  0.2281 -0.2328  0.3935
  869MOL0     H17266   9.303   0.264  11.949 -0.3893 -0.6383  0.5125
  869MOL0     H17267   9.058   0.315  11.755 -0.5418 -1.6383 -1.3222
  869MOL0     H17268   9.141   0.403  11.632  3.7972  0.8095  0.5257
  869MOL0     H17269   9.257   0.166  11.759 -1.6700 -0.0523  0.2772
  869MOL0     H17270   9.178   0.157  11.594  1.6288  1.4359 -3.9110
  869MOL0     H17271   9.412   0.320  11.685  1.3731 -1.2058  0.4266
  869MOL0     H17272   9.353   0.299  11.513  0.1136 -0.6838 -0.0043
  869MOL0     H17273   9.539   0.159  11.520  0.0098 -2.4598 -0.1724
  869MOL0     H17274   9.414   0.047  11.557 -2.1578 -0.2958  4.0022
  869MOL0     H17275   9.673  -0.040  11.544  0.0029 -3.2497 -0.1244
  869MOL0     H17276   9.869  -0.147  11.608 -1.1562 -1.2641  0.1464
  869MOL0     H17277  10.185  -0.203  12.128 -1.2605 -0.3158 -1.8932
  869MOL0     H17278  10.427  -0.215  12.162 -0.2338  0.4566 -0.0379
  869MOL0     H17279  10.628  -0.135  12.213  0.2964  0.8796 -0.6424
  869MOL0     H17280  10.742  -0.192  12.088  1.0605  0.3067  0.5854
  869MOL0     H17281  10.830   0.021  12.069 -0.6548 -0.2781  0.5911
  869MOL0     H17282  10.730   0.087  12.205 -0.3673 -0.1758  2.4939
  869MOL0     H17283  10.816  -0.116  12.340  1.3207 -1.1608  0.6771
  869MOL0     H17284  10.950  -0.113  12.236 -1.8622 -1.9134 -2.5244
  869MOL0     H17285  10.876   0.149  12.353 -0.4132  0.0084 -0.2675
  869MOL0     H17286  11.025   0.095  12.263 -0.3312 -0.7517  0.2909
  869MOL0     H17287  11.092  -0.038  12.458 -0.3076  0.3873 -2.7062
  869MOL0     H17288  10.939  -0.013  12.534 -0.4237  0.0698 -1.7200
  869MOL0     H17289  11.164   0.175  12.502  0.2276 -1.2817 -0.7074
  869MOL0     H17290  10.994   0.245  12.501 -2.2795  0.7269  3.9677
  869MOL0     H17291  10.955   0.120  12.714 -1.0771  1.2138 -2.7030
  869MOL0     H17292  11.036   0.280  12.705 -2.1908  0.2301 -0.6724
  869MOL0     H17293  11.142   0.082  12.852 -1.5571  0.2253 -0.0807
  869MOL0     H17294  11.170   0.005  12.691 -0.7889  1.1443 -1.3240
  869MOL0     H17295  10.461   0.039  11.806 -1.1788  0.6680  0.4757
  869MOL0     H17296  10.235   0.025  11.777 -0.6185 -2.1156 -1.1508
  869MOL0     H17297   9.813  -0.020  12.022  0.3377  1.0591 -0.2937
  869MOL0     H17298   9.595   0.064  11.964 -1.5568 -2.7640 -0.7555
  869MOL0     H17299  10.385   0.029  11.525  0.0870  1.9812  1.4797
  869MOL0     H17300  10.579   0.030  11.361 -0.3696 -0.5484 -2.4458
  869MOL0     H17301  10.791   0.449  10.932 -1.6751 -0.8414  0.0474
  869MOL0     H17302  11.014   0.456  10.828  2.0993 -0.2906 -0.3295
  869MOL0     H17303  11.223   0.443  10.769 -2.1262 -0.4292  1.6441
  869MOL0     H17304  11.163   0.317  10.656  0.9455 -0.2059 -0.6868
  869MOL0     H17305  11.445   0.310  10.766 -0.9645 -0.0986 -0.4901
  869MOL0     H17306  11.397   0.365  10.605 -1.0754  2.1751  1.3997
  869MOL0     H17307  11.352   0.155  10.530  1.2267 -1.6694  0.0048
  869MOL0     H17308  11.298   0.090  10.693  1.1519 -1.1438  0.2746
  869MOL0     H17309  11.579   0.153  10.587  1.5387 -0.9150 -0.7632
  869MOL0     H17310  11.556   0.109  10.755 -0.1251  3.8509 -0.6617
  869MOL0     H17311  11.515  -0.262  10.560  0.1203 -0.4093  2.3352
  869MOL0     H17312  11.078   0.065  11.001  2.2884  0.8866 -1.8188
  869MOL0     H17313  10.868   0.054  11.249  1.5961 -0.6360  0.2410
  869MOL0     H17314  10.757   0.002  11.117 -2.5161  4.7064  1.0127
  869MOL0     H17315  10.921  -0.054  11.119  0.1954 -0.2821 -0.5645
  870MOL0     O17316   9.354   2.860  10.919  0.8633  0.0609  0.7107
  870MOL0     C17317   9.323   2.905  11.030 -0.2082  0.4417  0.6490
  870MOL0     O17318   9.393   2.885  11.139 -0.0572  0.8424 -0.2705
  870MOL0     C17319   9.499   2.796  11.153  0.9105 -0.7275  0.1590
  870MOL0     C17320   9.526   2.737  11.285  0.7603  0.2656  0.3864
  870MOL0     C17321   9.650   2.684  11.316 -0.9830  0.9584  0.4174
  870MOL0     C17322   9.753   2.682  11.223 -0.3839 -0.1878  0.8425
  870MOL0     O17323   9.878   2.646  11.272 -0.1134  0.5130  0.0485
  870MOL0     C17324   9.997   2.635  11.188 -0.1012  0.5854 -1.4981
  870MOL0     C17325  10.113   2.605  11.282 -0.0717  0.0676 -0.8325
  870MOL0     C17326  10.241   2.537  11.229 -0.2206 -0.1144  0.5437
  870MOL0     C17327  10.214   2.392  11.203  0.7699 -0.0725 -0.3272
  870MOL0     C17328  10.341   2.311  11.189 -0.0941 -0.3181  0.0584
  870MOL0     C17329  10.332   2.163  11.134  0.2301 -1.0416  0.2771
  870MOL0     C17330  10.469   2.100  11.114 -0.3163  0.4328 -0.2230
  870MOL0     C17331  10.543   2.101  11.249  0.1871 -0.1160 -0.3913
  870MOL0     N17332  10.655   2.011  11.246  0.0408  1.0634 -0.1999
  870MOL0     C17333  10.780   2.039  11.194 -0.1518 -0.7334  0.1434
  870MOL0     C17334  10.860   1.944  11.244  0.2232 -0.0253  0.5345
  870MOL0     C17335  11.002   1.930  11.221 -0.9302  1.0175 -1.1947
  870MOL0     C17336  11.039   1.778  11.248 -0.4984  0.9560 -0.5191
  870MOL0     C17337  11.187   1.753  11.229 -0.3828 -0.8469 -0.3028
  870MOL0     C17338  11.222   1.639  11.137 -0.0215  0.1669  0.2654
  870MOL0     O17339  11.366   1.620  11.143  0.2845  0.5876  0.4161
  870MOL0     C17340  11.423   1.517  11.065  0.1480  0.4107 -0.7548
  870MOL0     C17341  11.359   1.435  10.973 -0.0348 -1.3800 -0.4647
  870MOL0     C17342  11.413   1.334  10.902  0.5326  0.2374  0.7611
  870MOL0     C17343  11.549   1.308  10.917 -1.1490  0.0277  1.1738
  870MOL0     C17344  11.626   1.211  10.841 -0.0263  0.0200  1.0732
  870MOL0     O17345  11.761   1.230  10.825 -0.1529 -0.0209 -0.9057
  870MOL0     C17346  11.830   1.151  10.732 -0.0280  0.1742  0.1045
  870MOL0     C17347  11.928   1.075  10.790 -0.4331  0.4598 -0.2564
  870MOL0     C17348  12.014   0.996  10.713 -0.1696  0.9615  1.1747
  870MOL0     C17349  11.997   0.984  10.577 -0.6734 -0.1760  0.2790
  870MOL0     O17350  12.070   0.902  10.493  0.2284 -0.4290 -0.0397
  870MOL0     C17351  12.207   0.872  10.516 -0.7544 -0.6956  0.7698
  870MOL0     C17352  12.236   0.721  10.544 -0.3794 -0.9369 -0.1914
  870MOL0     C17353  12.171   0.650  10.666  0.9533  0.4070 -0.4261
  870MOL0     C17354  12.241   0.654  10.798  1.0247 -0.4419 -0.3246
  870MOL0     C17355  12.145   0.588  10.905  0.3459 -0.2281 -0.6177
  870MOL0     C17356  12.217   0.591  11.036 -1.1985 -0.1910  0.0122
  870MOL0     C17357  12.137   0.540  11.160  0.0282 -0.5675 -0.1838
  870MOL0     C17358  12.124   0.387  11.166 -0.2286 -0.0571 -0.4964
  870MOL0    Cl17359  12.270   0.321  11.254 -0.4705 -0.3190 -0.5494
  870MOL0     C17360  11.896   1.060  10.518 -0.1947 -0.1004  0.0312
  870MOL0     C17361  11.807   1.140  10.591 -0.2243 -0.4981  0.0044
  870MOL0     O17362  11.561   1.129  10.776 -0.0637 -0.0195  0.8182
  870MOL0     C17363  11.618   1.399  10.998 -0.8022 -0.2628  0.2721
  870MOL0     C17364  11.552   1.494  11.066 -0.2752  0.0912  0.3762
  870MOL0     N17365  10.779   1.858  11.321 -0.5890  0.1823  0.1609
  870MOL0     N17366  10.659   1.897  11.331 -0.7818 -0.7347 -0.2509
  870MOL0     C17367   9.722   2.723  11.087 -0.4781  0.4012  0.3105
  870MOL0     C17368   9.605   2.789  11.066  0.6612  0.2903  0.3060
  870MOL0     C17369   9.189   2.976  11.045  0.6381 -0.1168 -1.2094
  870MOL0     C17370   9.150   3.015  11.175 -0.4324 -1.2318 -0.6305
  870MOL0     C17371   9.036   3.087  11.194  0.2671 -1.2544 -0.5220
  870MOL0     C17372   8.947   3.117  11.103  0.5333  0.2497  1.2941
  870MOL0     O17373   8.830   3.180  11.134 -0.2388 -0.2876  0.3010
  870MOL0     C17374   8.829   3.260  11.255 -0.0492 -0.5274  0.5786
  870MOL0     C17375   8.717   3.368  11.243 -0.2930 -0.5246  0.5631
  870MOL0     C17376   8.579   3.303  11.249 -0.8472  0.8873 -1.0038
  870MOL0     C17377   8.532   3.282  11.394 -0.3096 -1.0017 -0.3030
  870MOL0     C17378   8.406   3.210  11.395 -0.0814  0.0359 -0.0676
  870MOL0     C17379   8.295   3.155  11.408  0.3011 -0.5202  0.3721
  870MOL0     C17380   8.973   3.078  10.969  0.3396  0.0059  0.0328
  870MOL0     C17381   9.095   3.006  10.937  0.4591 -0.2384 -0.1689
  870MOL0     C17382   9.125   2.975  10.795  0.1260 -1.4278  0.3605
  870MOL0     H17383   9.450   2.727  11.362  0.5769  2.6164  0.6005
  870MOL0     H17384   9.669   2.643  11.415  1.8912 -1.3597 -0.9112
  870MOL0     H17385   9.984   2.555  11.116 -0.6061 -0.2686 -0.4836
  870MOL0     H17386  10.017   2.725  11.129  1.4278 -0.6706 -2.9738
  870MOL0     H17387  10.063   2.550  11.361  0.9926 -3.8203 -2.6350
  870MOL0     H17388  10.150   2.696  11.330 -0.6625  0.3041 -0.8249
  870MOL0     H17389  10.324   2.551  11.298  0.1208 -0.3625  0.1914
  870MOL0     H17390  10.271   2.578  11.132  1.4377 -1.5271  0.4062
  870MOL0     H17391  10.160   2.353  11.289  1.5374 -1.6265 -0.5103
  870MOL0     H17392  10.162   2.385  11.107 -0.7764 -0.6391  0.5186
  870MOL0     H17393  10.395   2.357  11.107  2.3204 -1.2210  1.0508
  870MOL0     H17394  10.399   2.316  11.282  2.0730  1.8466 -1.3280
  870MOL0     H17395  10.273   2.116  11.213 -2.0211  1.0222 -0.0771
  870MOL0     H17396  10.273   2.181  11.043  0.2617  1.0616  0.6353
  870MOL0     H17397  10.536   2.164  11.055  1.5918 -0.0912  1.2831
  870MOL0     H17398  10.455   2.004  11.063  0.0123  0.2508  0.0268
  870MOL0     H17399  10.585   2.199  11.276  0.4608 -0.4364  0.3756
  870MOL0     H17400  10.472   2.080  11.330  1.7589 -1.4821  0.7101
  870MOL0     H17401  10.792   2.117  11.119  0.5494 -0.7753  0.2123
  870MOL0     H17402  11.032   1.953  11.118 -0.6952 -0.5214 -1.5019
  870MOL0     H17403  11.056   1.991  11.293 -0.4895 -0.2349 -0.4236
  870MOL0     H17404  11.011   1.766  11.353 -0.3648  2.3259 -0.3043
  870MOL0     H17405  10.988   1.709  11.180  1.1787 -0.7432 -0.1573
  870MOL0     H17406  11.223   1.741  11.331 -4.8798  1.8453  1.8906
  870MOL0     H17407  11.224   1.852  11.200 -0.4729  0.7856  4.3732
  870MOL0     H17408  11.204   1.665  11.032  0.4120  1.3454  0.4757
  870MOL0     H17409  11.159   1.552  11.156 -3.4371  2.3350 -0.2847
  870MOL0     H17410  11.255   1.453  10.949 -0.3383 -1.8280  0.4287
  870MOL0     H17411  11.357   1.275  10.830  1.8019 -0.7283  0.5433
  870MOL0     H17412  11.936   1.068  10.898  0.9104 -3.4799 -0.4651
  870MOL0     H17413  12.107   0.949  10.743 -0.3504 -2.0122 -2.2473
  870MOL0     H17414  12.270   0.914  10.438 -1.2029 -0.4202  0.5501
  870MOL0     H17415  12.249   0.933  10.596 -2.3463  3.3873 -1.2021
  870MOL0     H17416  12.207   0.663  10.457  0.6580  0.0209 -1.2153
  870MOL0     H17417  12.345   0.724  10.552 -0.3655 -0.2051 -0.4974
  870MOL0     H17418  12.070   0.692  10.672  0.2924 -0.9031 -1.7741
  870MOL0     H17419  12.157   0.543  10.647  1.5904 -0.2089  2.1333
  870MOL0     H17420  12.267   0.758  10.822  0.6100 -0.2548 -0.6821
  870MOL0     H17421  12.332   0.594  10.800  0.4216 -1.3780  1.7136
  870MOL0     H17422  12.113   0.489  10.874 -0.0954 -0.1101 -0.5412
  870MOL0     H17423  12.060   0.657  10.911  2.2104  2.0691  1.6243
  870MOL0     H17424  12.316   0.549  11.016 -0.5601  1.4251 -0.3664
  870MOL0     H17425  12.229   0.697  11.062 -0.1304 -0.4436  0.5643
  870MOL0     H17426  12.035   0.576  11.149 -0.4668 -1.3439  1.5679
  870MOL0     H17427  12.174   0.586  11.252 -0.6257  0.6673 -0.5215
  870MOL0     H17428  12.041   0.371  11.235 -1.5420 -1.2056 -2.2772
  870MOL0     H17429  12.104   0.343  11.068  0.4078  1.7856 -1.5124
  870MOL0     H17430  11.879   1.057  10.411 -1.5744 -1.9325  0.2669
  870MOL0     H17431  11.734   1.204  10.542  1.7054 -0.2617 -2.8162
  870MOL0     H17432  11.724   1.380  11.009 -1.1964 -4.3673 -1.1708
  870MOL0     H17433  11.626   1.540  11.131 -0.5970  0.3458  0.5627
  870MOL0     H17434   9.801   2.734  11.012 -0.6501 -0.1172  0.0483
  870MOL0     H17435   9.587   2.839  10.972 -3.2658 -2.1247 -0.4204
  870MOL0     H17436   9.211   2.990  11.261 -2.0651  0.2364  1.0421
  870MOL0     H17437   9.034   3.114  11.299  2.3052 -1.2900 -0.4320
  870MOL0     H17438   8.927   3.305  11.269 -0.8946  1.0116  1.8065
  870MOL0     H17439   8.803   3.196  11.341  0.9354 -0.6496  0.7939
  870MOL0     H17440   8.722   3.409  11.142  1.9413 -1.4055  0.2563
  870MOL0     H17441   8.740   3.448  11.314  5.3777 -1.3726  0.1246
  870MOL0     H17442   8.576   3.210  11.192 -0.8913 -0.1057  0.5847
  870MOL0     H17443   8.504   3.373  11.211 -0.7543  1.3846 -0.2859
  870MOL0     H17444   8.609   3.225  11.447  0.3056 -0.3391 -0.4596
  870MOL0     H17445   8.513   3.378  11.443  3.9364  0.1637 -0.5406
  870MOL0     H17446   8.206   3.099  11.427 -0.0040 -0.2915 -0.3499
  870MOL0     H17447   8.894   3.102  10.899  1.5308  1.7623 -0.7506
  870MOL0     H17448   9.032   2.985  10.738 -0.5576 -4.6596  0.7350
  870MOL0     H17449   9.204   3.045  10.766 -0.1134 -1.6979 -1.0046
  870MOL0     H17450   9.163   2.875  10.773 -1.1662 -1.4670 -2.0728
  871MOL0     O17451   0.764   2.292   3.366 -0.3615 -0.2632 -1.0475
  871MOL0     C17452   0.856   2.344   3.427 -0.0217 -0.1442 -0.5125
  871MOL0     O17453   0.981   2.349   3.383 -0.1060 -0.2187 -1.1576
  871MOL0     C17454   1.003   2.314   3.256  0.2833 -0.9759 -0.2824
  871MOL0     C17455   1.007   2.181   3.211  0.9116  0.2844  0.1036
  871MOL0     C17456   1.031   2.155   3.078 -0.3808  0.8044  0.2167
  871MOL0     C17457   1.040   2.256   2.982  0.5152 -0.0078 -0.6665
  871MOL0     O17458   1.076   2.226   2.850 -0.4647  0.1070  0.0926
  871MOL0     C17459   1.036   2.099   2.795 -0.2513  0.2942  0.3503
  871MOL0     C17460   1.093   2.088   2.654  0.6706  0.6131 -1.2224
  871MOL0     C17461   1.239   2.043   2.665 -0.3580  0.6521 -0.3613
  871MOL0     C17462   1.315   2.018   2.533 -0.2291 -0.1887 -0.5246
  871MOL0     C17463   1.469   2.000   2.587  0.5590  0.6831  0.5854
  871MOL0     C17464   1.561   1.970   2.469 -0.5835  0.7059 -0.3820
  871MOL0     C17465   1.713   1.955   2.507  0.7145 -0.7018 -0.6195
  871MOL0     C17466   1.788   1.869   2.416  0.3790  0.7265  0.1320
  871MOL0     N17467   1.927   1.894   2.432  0.1205 -0.6930 -0.9404
  871MOL0     C17468   1.980   2.011   2.383 -0.5098 -0.3344  0.4042
  871MOL0     C17469   2.111   1.991   2.410 -0.9092  0.9531  0.7098
  871MOL0     C17470   2.225   2.075   2.361  0.2572 -0.7042  0.2463
  871MOL0     C17471   2.223   2.105   2.209 -0.0693  0.4962 -0.2925
  871MOL0     C17472   2.212   1.981   2.117  0.0411  0.0861 -0.9066
  871MOL0     C17473   2.332   1.891   2.146 -0.0353  0.7002 -0.3245
  871MOL0     O17474   2.347   1.793   2.045 -0.3372  0.6763 -0.6171
  871MOL0     C17475   2.464   1.716   2.047 -0.5218 -0.1567 -1.1044
  871MOL0     C17476   2.461   1.602   1.973  0.1254  0.1636 -0.7291
  871MOL0     C17477   2.576   1.518   1.960 -0.3170  0.1746  0.0976
  871MOL0     C17478   2.699   1.556   2.030  1.1224 -0.6605  0.1662
  871MOL0     C17479   2.818   1.471   2.028 -0.7381  0.3227 -0.4720
  871MOL0     O17480   2.918   1.505   2.113  0.0706  0.0757 -0.4132
  871MOL0     C17481   3.002   1.406   2.169 -0.3416  0.4103  0.5122
  871MOL0     C17482   3.121   1.450   2.241  0.1354 -0.5658  0.6997
  871MOL0     C17483   3.211   1.363   2.291 -0.4845  0.3727 -0.7568
  871MOL0     C17484   3.188   1.227   2.292 -0.2574 -0.4693 -1.2878
  871MOL0     O17485   3.281   1.138   2.326 -0.4354  1.0935 -0.0360
  871MOL0     C17486   3.394   1.179   2.408  0.4638 -0.2834 -0.2927
  871MOL0     C17487   3.492   1.072   2.452 -1.0620 -0.4073  0.5991
  871MOL0     C17488   3.607   1.141   2.540  0.9790  0.4761 -0.2846
  871MOL0     C17489   3.695   1.236   2.458 -0.3601 -0.5926 -0.5672
  871MOL0     C17490   3.837   1.206   2.512 -0.3558 -0.2229  0.1526
  871MOL0     C17491   3.917   1.303   2.431 -0.3130 -0.5432  0.1102
  871MOL0     C17492   4.058   1.313   2.481  1.0086 -0.9050  0.1157
  871MOL0     C17493   4.143   1.432   2.417  0.3595  0.2417 -0.5434
  871MOL0    Cl17494   4.324   1.395   2.443 -0.4022 -0.0188 -0.3647
  871MOL0     C17495   3.091   1.182   2.217  0.7710  0.4634  0.9450
  871MOL0     C17496   2.984   1.267   2.169  0.5491  0.1557  0.1969
  871MOL0     O17497   2.819   1.375   1.953 -1.0321  0.4008 -0.2311
  871MOL0     C17498   2.693   1.666   2.109 -0.1807 -0.1488 -0.5049
  871MOL0     C17499   2.577   1.747   2.120  0.4880 -0.7665 -0.8870
  871MOL0     N17500   2.132   1.870   2.473  0.0623 -0.0222 -0.7932
  871MOL0     N17501   2.021   1.809   2.487 -0.5139  0.7356  1.0725
  871MOL0     C17502   1.030   2.389   3.021 -0.1289 -0.1191  0.7970
  871MOL0     C17503   1.018   2.420   3.157  1.0871  0.0730  0.3504
  871MOL0     C17504   0.830   2.402   3.566 -0.5171  1.0454 -0.1812
  871MOL0     C17505   0.933   2.433   3.655  0.2575 -0.0641 -0.4325
  871MOL0     C17506   0.909   2.489   3.781 -0.8985 -0.6582  0.6125
  871MOL0     C17507   0.780   2.503   3.826  0.6002 -0.8606 -0.4913
  871MOL0     O17508   0.757   2.570   3.953  0.0248  0.4920 -0.2523
  871MOL0     C17509   0.856   2.552   4.056  0.5535  0.3402 -0.4747
  871MOL0     C17510   0.797   2.542   4.202 -0.5569 -0.8772  0.4994
  871MOL0     C17511   0.713   2.672   4.229  0.4888 -0.0048 -0.1093
  871MOL0     C17512   0.680   2.692   4.385 -0.9695  0.1080  0.0638
  871MOL0     C17513   0.600   2.582   4.441  0.3155  0.5889  0.0744
  871MOL0     C17514   0.540   2.500   4.497  0.0258 -0.1903  0.4019
  871MOL0     C17515   0.679   2.479   3.742 -0.4064  0.1790 -0.4877
  871MOL0     C17516   0.697   2.431   3.610  0.7264  0.3910  0.0039
  871MOL0     C17517   0.570   2.436   3.528  0.0840  0.4019 -0.1777
  871MOL0     H17518   0.979   2.104   3.283 -1.7195 -0.2503 -1.3472
  871MOL0     H17519   1.035   2.049   3.057  1.0257  0.7163  0.8025
  871MOL0     H17520   1.081   2.012   2.843 -0.1629  1.9095  3.5079
  871MOL0     H17521   0.928   2.103   2.782  0.0660  0.8866 -2.8264
  871MOL0     H17522   1.091   2.192   2.620  0.5498  1.7587  1.9646
  871MOL0     H17523   1.036   2.020   2.588 -2.6085  0.4387  1.5041
  871MOL0     H17524   1.252   1.955   2.729  0.5415 -0.1144 -1.5614
  871MOL0     H17525   1.290   2.121   2.723  1.5370  0.2176 -1.3767
  871MOL0     H17526   1.291   1.923   2.483  0.3774 -0.6894  0.1260
  871MOL0     H17527   1.313   2.095   2.455  2.7113  0.3508 -0.1753
  871MOL0     H17528   1.508   2.087   2.642  0.9282  1.1872 -0.4378
  871MOL0     H17529   1.478   1.912   2.651 -0.8390 -3.2479 -4.0311
  871MOL0     H17530   1.524   1.874   2.433  0.9320 -0.2461  0.4637
  871MOL0     H17531   1.551   2.040   2.385  1.7609  0.6265 -0.8100
  871MOL0     H17532   1.725   1.923   2.611 -1.0882  0.0043 -0.1524
  871MOL0     H17533   1.754   2.056   2.493  0.6461 -0.6089 -0.1601
  871MOL0     H17534   1.749   1.768   2.428 -1.5362  1.3709 -0.3342
  871MOL0     H17535   1.754   1.894   2.315  1.8659 -0.3788 -0.6835
  871MOL0     H17536   1.917   2.086   2.337 -1.9950 -1.6510  0.2035
  871MOL0     H17537   2.216   2.173   2.408 -0.4308 -0.8217  0.3713
  871MOL0     H17538   2.322   2.035   2.394 -0.4823 -2.2203  0.6832
  871MOL0     H17539   2.148   2.183   2.196  2.9422  3.4703 -1.1664
  871MOL0     H17540   2.315   2.153   2.176  0.0618 -0.5530 -1.5262
  871MOL0     H17541   2.225   2.006   2.012 -0.1969  4.4744 -0.0931
  871MOL0     H17542   2.119   1.928   2.140  2.0588 -2.1929  3.4423
  871MOL0     H17543   2.328   1.846   2.245 -1.7019 -1.4684 -1.2857
  871MOL0     H17544   2.418   1.958   2.136  0.5156  0.0434 -0.0995
  871MOL0     H17545   2.362   1.575   1.937 -1.7727  0.6880  3.4999
  871MOL0     H17546   2.573   1.424   1.906 -1.5546 -1.2209  2.4166
  871MOL0     H17547   3.150   1.554   2.232 -1.9793  0.3375  2.9842
  871MOL0     H17548   3.293   1.409   2.346 -0.8986 -1.5488  1.6027
  871MOL0     H17549   3.455   1.261   2.369  3.1398 -1.2119  1.6971
  871MOL0     H17550   3.356   1.237   2.493 -0.5885 -1.4056  0.0274
  871MOL0     H17551   3.441   1.000   2.517  0.1608 -2.5889 -0.7364
  871MOL0     H17552   3.532   1.017   2.367  3.3544  0.0356  2.1081
  871MOL0     H17553   3.563   1.192   2.626 -4.9866 -2.4273 -1.1461
  871MOL0     H17554   3.651   1.054   2.589 -4.7117 -0.1177  4.7890
  871MOL0     H17555   3.669   1.339   2.485  2.4058  0.4605 -1.5621
  871MOL0     H17556   3.687   1.219   2.350  4.1858 -1.7089 -0.9344
  871MOL0     H17557   3.865   1.104   2.484  2.7100  0.2693  1.0574
  871MOL0     H17558   3.841   1.217   2.621  0.0835  2.7283 -0.0637
  871MOL0     H17559   3.916   1.280   2.324 -0.9058  1.5442 -0.3898
  871MOL0     H17560   3.875   1.403   2.446 -3.2572 -0.7977 -4.3685
  871MOL0     H17561   4.113   1.223   2.453 -0.2199 -0.9249 -2.4921
  871MOL0     H17562   4.061   1.322   2.590 -4.1950 -2.2478  0.6461
  871MOL0     H17563   4.120   1.432   2.310 -0.0535  1.1055 -0.4643
  871MOL0     H17564   4.112   1.533   2.444  0.8716  0.4747 -0.8105
  871MOL0     H17565   3.079   1.075   2.207 -1.5410  0.8265 -1.0893
  871MOL0     H17566   2.908   1.213   2.114  0.0155  1.2300 -0.1448
  871MOL0     H17567   2.782   1.696   2.164  1.3687 -1.4651 -2.1666
  871MOL0     H17568   2.593   1.834   2.184  2.3464 -3.2028  2.2524
  871MOL0     H17569   1.056   2.467   2.950 -0.3506 -0.2065  0.6218
  871MOL0     H17570   1.022   2.523   3.189  3.2237  0.1581 -0.0337
  871MOL0     H17571   1.033   2.427   3.614  1.1426 -1.5046  1.7398
  871MOL0     H17572   0.995   2.525   3.837 -0.7573 -0.3359  0.1973
  871MOL0     H17573   0.932   2.631   4.058  1.6015 -0.3037  5.9270
  871MOL0     H17574   0.911   2.460   4.036 -0.6084 -0.9775  2.0212
  871MOL0     H17575   0.875   2.535   4.279 -1.1651  1.3187  1.3809
  871MOL0     H17576   0.725   2.460   4.215 -1.7817  0.4326  2.4750
  871MOL0     H17577   0.622   2.657   4.170  1.1721 -0.8456 -0.9803
  871MOL0     H17578   0.767   2.764   4.200  2.3810 -0.7292  0.9252
  871MOL0     H17579   0.775   2.702   4.439 -0.2977  0.7686 -1.1993
  871MOL0     H17580   0.625   2.786   4.392  0.3401  0.7747  3.0544
  871MOL0     H17581   0.474   2.435   4.551  0.5368 -1.0493  0.0340
  871MOL0     H17582   0.588   2.508   3.795  0.6770  0.1552  1.4896
  871MOL0     H17583   0.527   2.535   3.544 -0.2888  0.2234 -0.0676
  871MOL0     H17584   0.584   2.430   3.419  0.1259 -1.0501 -0.1130
  871MOL0     H17585   0.498   2.358   3.554  0.2751  0.8291  1.8103
  872MOL0     O17586   0.889   2.516   8.610  0.0071 -0.6617 -0.1747
  872MOL0     C17587   0.865   2.579   8.713 -0.2306  1.6132  0.4634
  872MOL0     O17588   0.771   2.556   8.805  0.6326  0.4506 -0.0215
  872MOL0     C17589   0.652   2.479   8.783 -0.9039 -0.3997 -0.6656
  872MOL0     C17590   0.608   2.407   8.672  0.7180 -0.5439  0.3018
  872MOL0     C17591   0.481   2.346   8.672 -0.3642  0.9141 -0.0719
  872MOL0     C17592   0.396   2.349   8.786 -0.1324 -0.0018  1.4382
  872MOL0     O17593   0.268   2.308   8.796  0.1565 -0.0585  1.0414
  872MOL0     C17594   0.204   2.275   8.674  0.8832 -0.3508 -0.8752
  872MOL0     C17595   0.071   2.203   8.709 -0.3098 -0.1489  0.7977
  872MOL0     C17596  -0.010   2.181   8.584  0.2041  0.0513 -0.2910
  872MOL0     C17597  -0.077   2.306   8.535 -0.6056 -0.3565 -0.1837
  872MOL0     C17598  -0.215   2.297   8.469  0.3647  0.2071  0.3331
  872MOL0     C17599  -0.250   2.433   8.413 -0.0471 -0.1458 -0.5225
  872MOL0     C17600  -0.170   2.460   8.276  0.2087 -0.3466 -0.8939
  872MOL0     C17601  -0.164   2.610   8.231 -0.1482  1.6044 -0.3645
  872MOL0     N17602  -0.035   2.634   8.156  1.1662 -0.7218 -0.1133
  872MOL0     C17603   0.076   2.699   8.195 -0.1625 -0.6409 -0.2375
  872MOL0     C17604   0.147   2.720   8.082  0.6266  0.1022  0.6266
  872MOL0     C17605   0.280   2.789   8.052 -0.2529  0.0335  0.9532
  872MOL0     C17606   0.260   2.943   8.043  0.0810  1.1185 -0.3445
  872MOL0     C17607   0.382   3.010   7.969  0.3509  0.2327  0.2588
  872MOL0     C17608   0.366   3.158   7.956  1.1203 -0.3571 -0.2567
  872MOL0     O17609   0.475   3.219   7.883 -0.0013  0.8366 -0.9798
  872MOL0     C17610   0.596   3.232   7.946  0.0255  0.6822  0.4280
  872MOL0     C17611   0.689   3.303   7.867  0.1710  0.8082 -0.4059
  872MOL0     C17612   0.811   3.333   7.923 -0.2978 -0.6500 -0.3307
  872MOL0     C17613   0.849   3.297   8.057  0.1160  0.5135 -0.0057
  872MOL0     C17614   0.986   3.331   8.100  0.6238 -0.2521 -0.2915
  872MOL0     O17615   1.076   3.387   8.014  1.0085  0.6042  0.1342
  872MOL0     C17616   1.197   3.426   8.062  0.6405  0.0809 -0.6577
  872MOL0     C17617   1.303   3.360   7.994  0.5980 -0.0766  0.0507
  872MOL0     C17618   1.433   3.391   8.019  0.6282  0.0619 -0.2227
  872MOL0     C17619   1.460   3.505   8.100 -0.9326  0.3830 -0.7655
  872MOL0     O17620   1.582   3.564   8.113 -0.0973  0.9900  0.0778
  872MOL0     C17621   1.697   3.503   8.047  0.8275 -0.3636 -0.0262
  872MOL0     C17622   1.817   3.568   8.103  0.4186  0.3692  0.4227
  872MOL0     C17623   1.941   3.517   8.033 -0.5902 -1.1538  0.3394
  872MOL0     C17624   2.064   3.609   8.081  0.6833 -0.1511  0.4142
  872MOL0     C17625   2.199   3.546   8.034  0.6188  0.3454 -0.6254
  872MOL0     C17626   2.313   3.646   8.026 -1.0674 -0.4505 -0.4743
  872MOL0     C17627   2.457   3.581   8.006  0.1266  0.4063 -0.6822
  872MOL0     C17628   2.574   3.684   8.008  0.7440  0.1177  0.2484
  872MOL0    Cl17629   2.527   3.853   8.004  0.0709  0.0338 -0.1485
  872MOL0     C17630   1.366   3.573   8.173 -0.0098 -0.1484  1.1244
  872MOL0     C17631   1.226   3.535   8.153 -0.4297 -0.4946  0.3814
  872MOL0     O17632   1.014   3.301   8.214 -0.6573  0.8370  0.8136
  872MOL0     C17633   0.751   3.226   8.129 -0.1497 -0.2741 -0.2465
  872MOL0     C17634   0.629   3.185   8.078  0.0435  0.3982 -1.2189
  872MOL0     N17635   0.080   2.651   7.979 -0.2157  0.0450  0.8615
  872MOL0     N17636  -0.017   2.591   8.027 -0.1420  0.7105 -0.4154
  872MOL0     C17637   0.442   2.420   8.892 -0.6679 -1.3435 -0.1134
  872MOL0     C17638   0.568   2.485   8.898 -0.2538  0.1842 -0.0323
  872MOL0     C17639   0.956   2.683   8.753  0.3037  0.5117  0.1953
  872MOL0     C17640   1.095   2.679   8.713 -0.8507  0.5110 -0.2323
  872MOL0     C17641   1.194   2.761   8.765 -0.0625 -0.1811 -0.4746
  872MOL0     C17642   1.158   2.860   8.857  0.7077  0.7107  0.0116
  872MOL0     O17643   1.264   2.946   8.891 -0.2923  1.2539 -0.2194
  872MOL0     C17644   1.237   3.038   8.998 -0.0095 -0.0811  0.8467
  872MOL0     C17645   1.357   3.114   9.024 -0.1043 -0.2039 -0.4734
  872MOL0     C17646   1.343   3.248   8.963 -0.3631  0.4708 -0.5422
  872MOL0     C17647   1.472   3.327   8.994 -0.4405 -1.4844 -0.2603
  872MOL0     C17648   1.469   3.450   8.900  0.6043  0.7084  0.3357
  872MOL0     C17649   1.467   3.549   8.832  0.2793 -0.3245 -0.7254
  872MOL0     C17650   1.025   2.871   8.898  0.4389  0.0519  1.3524
  872MOL0     C17651   0.917   2.791   8.847 -0.5388  0.3220 -0.6947
  872MOL0     C17652   0.782   2.822   8.905  0.5090 -0.7073 -0.5649
  872MOL0     H17653   0.650   2.398   8.572 -0.0368 -1.7262  0.0589
  872MOL0     H17654   0.441   2.312   8.577 -0.0523  4.5912 -1.6662
  872MOL0     H17655   0.177   2.365   8.618  1.8395 -1.6193 -3.5578
  872MOL0     H17656   0.264   2.207   8.612  1.8313  1.6650 -2.2773
  872MOL0     H17657   0.018   2.254   8.790 -0.3878  1.9062 -0.4809
  872MOL0     H17658   0.092   2.101   8.741 -0.4397 -0.4111  0.0656
  872MOL0     H17659  -0.089   2.107   8.594 -0.8904  0.3405 -4.7775
  872MOL0     H17660   0.050   2.121   8.514  2.2256 -1.5409  2.5939
  872MOL0     H17661  -0.095   2.374   8.619 -3.6950  1.1571 -1.9141
  872MOL0     H17662  -0.009   2.365   8.472 -2.8061  1.7111 -0.7800
  872MOL0     H17663  -0.218   2.222   8.389 -2.5519  3.2911 -2.8374
  872MOL0     H17664  -0.289   2.263   8.543  0.8844  0.5293  1.0131
  872MOL0     H17665  -0.359   2.433   8.401  0.0337 -0.2353 -1.3135
  872MOL0     H17666  -0.225   2.516   8.480 -2.2215  1.2967 -1.3639
  872MOL0     H17667  -0.228   2.410   8.197 -0.3557  0.0303 -0.7288
  872MOL0     H17668  -0.069   2.420   8.278  1.0215  1.6301  0.5917
  872MOL0     H17669  -0.254   2.636   8.174 -0.0866  2.6852  0.0096
  872MOL0     H17670  -0.154   2.669   8.323  1.6291  1.3584 -0.3620
  872MOL0     H17671   0.090   2.749   8.290 -1.9405 -2.4926  1.0788
  872MOL0     H17672   0.349   2.771   8.135  1.4004 -1.3120 -0.6483
  872MOL0     H17673   0.323   2.751   7.959 -2.0918 -0.0402  0.0799
  872MOL0     H17674   0.165   2.960   7.991 -3.3923 -2.8380  3.8122
  872MOL0     H17675   0.254   2.971   8.148 -0.8536  0.1645 -0.1233
  872MOL0     H17676   0.375   2.968   7.868  0.0565 -0.0220  0.3821
  872MOL0     H17677   0.476   2.979   8.015  0.2184 -0.2159  0.2399
  872MOL0     H17678   0.382   3.201   8.055  0.7190  0.3152 -0.4781
  872MOL0     H17679   0.267   3.189   7.924  1.8044  1.3298 -0.8797
  872MOL0     H17680   0.657   3.335   7.769 -2.0862  0.5220  0.1664
  872MOL0     H17681   0.876   3.380   7.849 -2.1477  1.0760 -0.9402
  872MOL0     H17682   1.274   3.280   7.927  1.1232  0.6671 -1.0907
  872MOL0     H17683   1.512   3.331   7.975  0.7347  1.2194 -1.6795
  872MOL0     H17684   1.689   3.396   8.068 -3.1285 -0.3847 -0.7782
  872MOL0     H17685   1.686   3.525   7.940 -2.1964  2.7440  0.7318
  872MOL0     H17686   1.814   3.674   8.076 -3.0532  0.0397 -0.9080
  872MOL0     H17687   1.825   3.554   8.211  3.0457  0.9783  0.3929
  872MOL0     H17688   1.976   3.416   8.058  2.1345  0.1535  2.3636
  872MOL0     H17689   1.923   3.528   7.925  1.2916  1.7547  0.2091
  872MOL0     H17690   2.062   3.621   8.190 -2.2811 -5.3742  1.2857
  872MOL0     H17691   2.055   3.709   8.038  2.6871 -0.2102 -0.2722
  872MOL0     H17692   2.184   3.494   7.939 -0.6530  0.1009 -0.3090
  872MOL0     H17693   2.207   3.468   8.110 -2.3229  1.7859  1.3909
  872MOL0     H17694   2.290   3.718   7.947 -1.9870  0.5774  0.6982
  872MOL0     H17695   2.324   3.703   8.118 -0.9563 -2.1908  0.6454
  872MOL0     H17696   2.450   3.519   7.916  4.3901 -1.5443  0.0991
  872MOL0     H17697   2.489   3.516   8.088 -2.1466  0.4238  0.2987
  872MOL0     H17698   2.641   3.667   8.093  1.9201 -0.4685 -0.7603
  872MOL0     H17699   2.631   3.664   7.917  0.1528 -1.7368  0.2497
  872MOL0     H17700   1.402   3.648   8.243  2.4071 -1.6803  1.6390
  872MOL0     H17701   1.149   3.591   8.206  0.3523 -2.6677  4.1933
  872MOL0     H17702   0.773   3.183   8.226 -3.7172 -0.6926  0.5330
  872MOL0     H17703   0.562   3.127   8.140  1.6739 -0.9259 -0.5959
  872MOL0     H17704   0.378   2.418   8.980  1.7775  0.1410  1.8259
  872MOL0     H17705   0.589   2.539   8.990  2.0654 -1.7779  0.6849
  872MOL0     H17706   1.137   2.610   8.641 -1.0604  2.5874 -2.4736
  872MOL0     H17707   1.294   2.748   8.724  0.1067 -1.3621  0.2546
  872MOL0     H17708   1.197   2.992   9.089 -0.0884 -1.7395  0.0228
  872MOL0     H17709   1.162   3.110   8.965  0.8714  1.4820  2.1481
  872MOL0     H17710   1.445   3.059   8.989 -1.5724 -0.8987 -3.3269
  872MOL0     H17711   1.362   3.126   9.133 -2.6562  0.8824 -0.4100
  872MOL0     H17712   1.261   3.304   9.010 -0.0576 -1.7287  3.0075
  872MOL0     H17713   1.323   3.234   8.857 -0.5172  2.9582 -0.8925
  872MOL0     H17714   1.474   3.358   9.099  1.2451 -2.3712  0.0124
  872MOL0     H17715   1.561   3.269   8.966  0.8332  0.3184 -0.1375
  872MOL0     H17716   1.480   3.629   8.762 -1.1259  0.4924 -0.0990
  872MOL0     H17717   0.999   2.940   8.979  1.7855  0.8205  1.1516
  872MOL0     H17718   0.773   2.923   8.945 -0.0682 -0.8050 -0.4467
  872MOL0     H17719   0.705   2.804   8.829 -0.0914 -0.7994  0.0542
  872MOL0     H17720   0.767   2.745   8.982  1.3713  0.9553  1.3533
  873MOL0     O17721   5.256   6.824   2.083  0.0484 -0.0344 -0.1062
  873MOL0     C17722   5.328   6.877   2.162 -0.5124 -0.4201 -0.4566
  873MOL0     O17723   5.309   7.012   2.191  1.2152  0.0922 -0.6879
  873MOL0     C17724   5.371   7.072   2.304  0.4993 -0.0083 -0.4202
  873MOL0     C17725   5.335   7.030   2.435  0.7329 -0.3477  0.6789
  873MOL0     C17726   5.387   7.100   2.542  1.2853 -0.1930  0.8723
  873MOL0     C17727   5.453   7.225   2.524 -0.2642  1.0077  0.0992
  873MOL0     O17728   5.495   7.284   2.645 -0.2302  0.6683  0.1286
  873MOL0     C17729   5.605   7.383   2.647 -0.5896  0.2956  0.2415
  873MOL0     C17730   5.727   7.334   2.728 -0.4111  0.1633 -0.5004
  873MOL0     C17731   5.698   7.324   2.875  0.4379  0.1653  0.7404
  873MOL0     C17732   5.669   7.466   2.926  0.0866  0.2325  0.3284
  873MOL0     C17733   5.698   7.476   3.070 -0.6732 -0.3381 -0.5643
  873MOL0     C17734   5.845   7.458   3.111  0.5845 -0.1277 -0.3299
  873MOL0     C17735   5.870   7.502   3.254  0.1818  0.2190 -0.0319
  873MOL0     C17736   6.004   7.466   3.319  0.5446  0.2869 -0.8357
  873MOL0     N17737   6.131   7.509   3.252  0.2366  0.7029 -0.2905
  873MOL0     C17738   6.188   7.635   3.253  0.1782  0.4535 -0.1031
  873MOL0     C17739   6.287   7.630   3.151 -0.9195 -0.7938  0.4617
  873MOL0     C17740   6.382   7.741   3.138  0.0317 -0.1473  0.2820
  873MOL0     C17741   6.487   7.731   3.249  0.1023 -0.2898  0.1161
  873MOL0     C17742   6.569   7.602   3.241 -0.3277 -0.9060  1.4011
  873MOL0     C17743   6.719   7.639   3.271 -0.8932  0.4013 -0.1405
  873MOL0     O17744   6.770   7.740   3.184 -0.0934 -1.0054  0.0295
  873MOL0     C17745   6.906   7.766   3.177 -0.3073  0.6480  0.0626
  873MOL0     C17746   6.975   7.754   3.064 -0.1201 -0.1551  0.3642
  873MOL0     C17747   7.116   7.755   3.056  0.0852  0.0196  0.4254
  873MOL0     C17748   7.190   7.788   3.178 -0.5201 -0.5438  0.0171
  873MOL0     C17749   7.336   7.782   3.185 -0.2095  0.4845 -0.6361
  873MOL0     O17750   7.401   7.755   3.070 -0.1213 -0.5565 -0.3463
  873MOL0     C17751   7.538   7.748   3.070 -0.1256  0.4664 -0.0111
  873MOL0     C17752   7.600   7.646   2.997  0.1749 -0.0986 -0.8916
  873MOL0     C17753   7.741   7.631   3.002  0.2253 -0.1880 -0.7311
  873MOL0     C17754   7.826   7.718   3.079 -0.8275 -0.3225  0.4156
  873MOL0     O17755   7.960   7.717   3.068 -0.9774  0.3736 -0.5814
  873MOL0     C17756   8.025   7.587   3.030 -0.5834  0.0129  0.3947
  873MOL0     C17757   8.178   7.595   3.047 -0.7659 -0.4847 -0.4005
  873MOL0     C17758   8.243   7.455   2.993 -0.4251  0.3992 -0.4789
  873MOL0     C17759   8.394   7.462   2.996 -0.2175 -1.1832  0.8780
  873MOL0     C17760   8.450   7.328   2.937 -0.1325 -0.5236  0.1318
  873MOL0     C17761   8.449   7.216   3.043  0.0385 -0.2456  1.6702
  873MOL0     C17762   8.505   7.092   2.965  0.4898  0.3073 -0.0658
  873MOL0     C17763   8.574   7.000   3.062 -0.4418 -0.7326  0.0852
  873MOL0    Cl17764   8.448   6.943   3.180  0.2416  0.1339 -0.2828
  873MOL0     C17765   7.764   7.821   3.139  0.8849 -0.9951 -0.2397
  873MOL0     C17766   7.622   7.835   3.140 -0.1182  0.2819  0.1026
  873MOL0     O17767   7.391   7.780   3.295 -0.6255 -0.7326 -0.5255
  873MOL0     C17768   7.108   7.797   3.300 -0.6283  0.8701 -0.8374
  873MOL0     C17769   6.976   7.785   3.293  0.8139  0.8424 -1.1551
  873MOL0     N17770   6.284   7.500   3.093 -0.3657  0.2253  0.0991
  873MOL0     N17771   6.194   7.437   3.155  1.0858 -0.2350 -0.5222
  873MOL0     C17772   5.484   7.265   2.393 -0.2016 -0.2916  0.9198
  873MOL0     C17773   5.442   7.191   2.285 -0.2216 -0.0320  0.2608
  873MOL0     C17774   5.457   6.807   2.197  0.6646 -0.2076  1.0023
  873MOL0     C17775   5.570   6.867   2.161 -0.9608 -0.3664 -0.1091
  873MOL0     C17776   5.692   6.824   2.197  0.0130  0.6802  0.3913
  873MOL0     C17777   5.715   6.709   2.269 -0.4567 -0.4803  0.2619
  873MOL0     O17778   5.847   6.679   2.308  0.4438 -0.1900 -0.1919
  873MOL0     C17779   5.852   6.584   2.420 -0.4702  0.1045  0.6402
  873MOL0     C17780   6.001   6.570   2.443  1.2329  0.4889 -0.1455
  873MOL0     C17781   6.042   6.488   2.568 -0.5913  0.2404 -0.2134
  873MOL0     C17782   6.169   6.529   2.644  0.0923 -0.2018 -0.3499
  873MOL0     C17783   6.200   6.676   2.656  0.4318  0.7336  0.2003
  873MOL0     C17784   6.214   6.798   2.656 -0.5324  0.4182  0.1645
  873MOL0     C17785   5.596   6.633   2.283  0.0516  0.8610  0.2233
  873MOL0     C17786   5.462   6.677   2.257  0.8454 -0.4861 -0.5693
  873MOL0     C17787   5.335   6.610   2.306 -0.3802  0.1711  0.0455
  873MOL0     H17788   5.277   6.939   2.449  1.3594 -0.6076  1.6568
  873MOL0     H17789   5.354   7.056   2.635 -0.3339 -0.3052  0.2747
  873MOL0     H17790   5.644   7.410   2.548  0.3550  2.5818  1.1745
  873MOL0     H17791   5.582   7.480   2.692 -0.9499  1.4483 -2.2680
  873MOL0     H17792   5.812   7.397   2.703  0.4022 -1.1508 -1.1505
  873MOL0     H17793   5.762   7.235   2.699 -0.7736  0.2771 -1.3661
  873MOL0     H17794   5.789   7.284   2.921  0.3235 -3.5985 -1.8971
  873MOL0     H17795   5.623   7.251   2.907 -0.5973 -0.2516 -2.3434
  873MOL0     H17796   5.717   7.542   2.863  3.1286 -0.6971  1.3723
  873MOL0     H17797   5.561   7.485   2.918 -0.6063 -0.7511  4.7857
  873MOL0     H17798   5.667   7.576   3.102  0.9971  0.0332 -0.0349
  873MOL0     H17799   5.630   7.415   3.130  1.0178 -3.6174 -1.6871
  873MOL0     H17800   5.878   7.354   3.095 -1.2216 -0.6410 -0.9437
  873MOL0     H17801   5.903   7.512   3.035 -0.3927 -0.4284 -1.3068
  873MOL0     H17802   5.790   7.458   3.314  0.9505 -2.4537 -0.7892
  873MOL0     H17803   5.865   7.611   3.253 -3.8585  0.1826  0.0098
  873MOL0     H17804   6.017   7.489   3.425  0.2541 -1.5437 -0.3571
  873MOL0     H17805   6.017   7.357   3.322 -0.1531  0.2169  0.2178
  873MOL0     H17806   6.162   7.712   3.326 -1.9638  0.1872 -0.5264
  873MOL0     H17807   6.425   7.762   3.039 -1.5703  2.4853  0.0322
  873MOL0     H17808   6.329   7.835   3.160  1.6312  1.1257 -0.9898
  873MOL0     H17809   6.552   7.819   3.253 -0.1441  0.0204 -1.6413
  873MOL0     H17810   6.429   7.730   3.341 -2.5511 -2.3031 -1.4367
  873MOL0     H17811   6.571   7.567   3.137 -1.6115  2.6439  0.0422
  873MOL0     H17812   6.535   7.520   3.306  1.2493 -2.4977  0.3209
  873MOL0     H17813   6.790   7.559   3.248  0.4878  2.1001 -2.2336
  873MOL0     H17814   6.734   7.667   3.376 -0.7963  2.1509 -0.5903
  873MOL0     H17815   6.926   7.737   2.969  0.1949  0.0973  0.1546
  873MOL0     H17816   7.159   7.758   2.957  1.7151  0.7303  1.1078
  873MOL0     H17817   7.538   7.573   2.946 -0.3062  0.7432 -1.5486
  873MOL0     H17818   7.791   7.560   2.937 -1.2987  1.5098 -4.0219
  873MOL0     H17819   7.989   7.501   3.086 -1.0260 -0.4157 -0.5281
  873MOL0     H17820   8.000   7.557   2.928 -4.0271  0.6101  0.9446
  873MOL0     H17821   8.220   7.685   3.001 -1.5601 -0.8885 -1.9716
  873MOL0     H17822   8.207   7.597   3.153 -1.2714 -3.1109 -0.1436
  873MOL0     H17823   8.211   7.362   3.041  0.4724  0.7129  0.7731
  873MOL0     H17824   8.219   7.450   2.886 -2.4154 -1.8291  0.0031
  873MOL0     H17825   8.442   7.493   3.089 -0.9711  1.7857  0.3800
  873MOL0     H17826   8.428   7.539   2.926  0.6568 -0.8596  1.6347
  873MOL0     H17827   8.550   7.336   2.893  0.4418  0.2582  1.5081
  873MOL0     H17828   8.383   7.294   2.858  2.4245 -1.9525 -1.5914
  873MOL0     H17829   8.509   7.249   3.128  2.3977  0.9599 -0.3493
  873MOL0     H17830   8.345   7.205   3.075 -0.2266  0.0570  0.9361
  873MOL0     H17831   8.582   7.118   2.893  0.3237 -1.6264 -1.0106
  873MOL0     H17832   8.434   7.035   2.905 -0.3349  0.1125  1.0483
  873MOL0     H17833   8.624   6.919   3.008 -0.3208  0.6902 -2.0623
  873MOL0     H17834   8.651   7.052   3.120 -1.8156  0.9307  0.5049
  873MOL0     H17835   7.823   7.898   3.186  1.1436  0.9359 -3.4159
  873MOL0     H17836   7.579   7.921   3.190 -1.3162 -0.6659  0.7811
  873MOL0     H17837   7.148   7.827   3.397 -0.9610 -1.8156  0.2347
  873MOL0     H17838   6.921   7.782   3.386  1.5993  0.0118 -0.6977
  873MOL0     H17839   5.546   7.353   2.377  2.4028 -2.0342  0.9038
  873MOL0     H17840   5.447   7.214   2.179  0.5777  0.7000  0.4493
  873MOL0     H17841   5.568   6.962   2.108  0.8945  0.8236  1.7669
  873MOL0     H17842   5.779   6.888   2.186 -0.6442  1.3260 -1.5482
  873MOL0     H17843   5.804   6.487   2.401  0.7306 -0.5138  0.6353
  873MOL0     H17844   5.804   6.638   2.501 -1.4022 -0.3266  0.3840
  873MOL0     H17845   6.033   6.674   2.454  2.7471  0.4070 -2.8822
  873MOL0     H17846   6.048   6.524   2.355 -3.0297 -1.7795 -1.5059
  873MOL0     H17847   6.058   6.384   2.537  2.3111  0.4588  0.1820
  873MOL0     H17848   5.958   6.479   2.637  0.8637  4.1108  2.4619
  873MOL0     H17849   6.167   6.479   2.741 -0.9625 -2.9139 -1.6809
  873MOL0     H17850   6.256   6.490   2.590 -0.8108 -0.1577 -1.8709
  873MOL0     H17851   6.239   6.902   2.649 -0.3785  0.6110  2.6922
  873MOL0     H17852   5.601   6.535   2.330 -3.4534  1.7720  3.0073
  873MOL0     H17853   5.295   6.531   2.242 -0.9143  0.7506 -0.3466
  873MOL0     H17854   5.351   6.567   2.405  3.0356  1.5094  0.2278
  873MOL0     H17855   5.258   6.686   2.321 -0.3973  0.0304  0.6682
  874MOL0     O17856   2.149   8.043   6.755  0.1680  0.3589  0.3380
  874MOL0     C17857   2.103   7.989   6.653 -1.6915 -0.5293 -0.0269
  874MOL0     O17858   2.158   8.010   6.523 -0.7785  0.2602 -0.0523
  874MOL0     C17859   2.262   8.097   6.505  0.5063 -0.9806 -0.9370
  874MOL0     C17860   2.255   8.239   6.517  0.2897  1.2131  0.3574
  874MOL0     C17861   2.365   8.311   6.466  0.5671  0.7471 -1.0781
  874MOL0     C17862   2.482   8.255   6.423  0.0673 -0.3392 -0.5275
  874MOL0     O17863   2.592   8.328   6.408 -0.0068  0.8222 -0.4073
  874MOL0     C17864   2.588   8.452   6.334  0.9308  0.0643  0.0488
  874MOL0     C17865   2.729   8.514   6.329  0.0993 -0.1703  0.1185
  874MOL0     C17866   2.830   8.411   6.274 -0.3434 -1.1406 -0.0597
  874MOL0     C17867   2.975   8.457   6.291  0.3361 -0.1568  0.8993
  874MOL0     C17868   3.059   8.358   6.210 -0.0302 -0.0855  0.0377
  874MOL0     C17869   3.216   8.395   6.201 -0.0968 -0.0703  0.4626
  874MOL0     C17870   3.242   8.499   6.089  0.3149  0.0983  0.3219
  874MOL0     C17871   3.384   8.509   6.042 -0.5481 -0.1735 -0.7268
  874MOL0     N17872   3.461   8.573   6.148 -0.3196  0.0451  0.1796
  874MOL0     C17873   3.531   8.513   6.253  0.0525 -0.6595  0.2584
  874MOL0     C17874   3.590   8.614   6.324 -1.0866 -0.2390  0.5253
  874MOL0     C17875   3.674   8.588   6.445 -0.8715 -0.1706 -0.3409
  874MOL0     C17876   3.790   8.493   6.396  0.1937 -0.6418  0.5692
  874MOL0     C17877   3.909   8.511   6.494 -0.4220 -0.5058  0.4359
  874MOL0     C17878   3.970   8.644   6.482  0.3247  0.9276  0.7374
  874MOL0     O17879   4.071   8.645   6.577 -0.3953 -0.3189 -0.3576
  874MOL0     C17880   4.189   8.692   6.545 -0.6958 -1.0629  0.5634
  874MOL0     C17881   4.307   8.638   6.594 -0.4428 -0.2462 -1.0382
  874MOL0     C17882   4.435   8.696   6.582 -0.6911 -0.5192  0.3152
  874MOL0     C17883   4.446   8.819   6.502 -0.2150  0.7101 -0.3724
  874MOL0     C17884   4.580   8.885   6.486  1.1637  0.3664  0.2627
  874MOL0     O17885   4.681   8.810   6.540 -0.0094 -0.4038 -0.0196
  874MOL0     C17886   4.809   8.851   6.523  1.2904 -0.1530  0.5095
  874MOL0     C17887   4.895   8.825   6.621 -0.1284 -0.7619  0.4140
  874MOL0     C17888   5.027   8.876   6.610 -0.8018 -0.0551 -0.1995
  874MOL0     C17889   5.075   8.962   6.507 -0.4059 -0.0827  0.1166
  874MOL0     O17890   5.214   8.998   6.503 -0.0377 -0.5150  1.3930
  874MOL0     C17891   5.281   9.048   6.388 -0.8136 -0.7441  0.5459
  874MOL0     C17892   5.413   9.091   6.451 -0.1272 -0.4728 -0.4456
  874MOL0     C17893   5.514   9.158   6.355  0.1717 -0.7063 -0.2588
  874MOL0     C17894   5.612   9.057   6.298  0.1886  0.6602  0.4739
  874MOL0     C17895   5.715   9.113   6.212  0.0709 -0.6730 -0.6126
  874MOL0     C17896   5.816   9.003   6.166  0.0754  0.3665  0.1487
  874MOL0     C17897   5.913   9.064   6.065 -0.5085 -1.1469 -0.3882
  874MOL0     C17898   6.003   8.959   6.004  0.3620 -0.5053  0.1567
  874MOL0    Cl17899   6.076   8.854   6.138 -0.4529 -0.2541  0.3780
  874MOL0     C17900   4.983   8.982   6.404  0.6504 -0.2222  0.4308
  874MOL0     C17901   4.858   8.918   6.407 -0.2454 -0.7476 -0.1867
  874MOL0     O17902   4.584   8.998   6.436  1.5372  0.2170  0.0991
  874MOL0     C17903   4.332   8.868   6.440  0.5053  0.6705  0.3064
  874MOL0     C17904   4.205   8.805   6.460  0.3408  0.9177 -0.0961
  874MOL0     N17905   3.550   8.732   6.267 -0.5307  0.1281  0.7757
  874MOL0     N17906   3.464   8.709   6.163 -0.5362 -0.0832  0.4952
  874MOL0     C17907   2.499   8.116   6.428 -0.3774 -0.0120  1.2041
  874MOL0     C17908   2.388   8.040   6.464  0.5157  0.3112 -0.0604
  874MOL0     C17909   1.994   7.893   6.658 -0.6119 -0.5725 -0.1568
  874MOL0     C17910   1.994   7.799   6.560 -0.9673  0.9413  0.6075
  874MOL0     C17911   1.891   7.711   6.544 -0.1688 -0.3317  0.6639
  874MOL0     C17912   1.779   7.720   6.627  0.4354  0.3654 -0.9514
  874MOL0     O17913   1.669   7.635   6.616 -0.5002  0.9697 -0.4320
  874MOL0     C17914   1.692   7.499   6.662 -0.9298  0.2769 -0.8919
  874MOL0     C17915   1.645   7.491   6.805  0.3076  0.0416 -0.0917
  874MOL0     C17916   1.658   7.357   6.874  0.1578 -0.5315  0.0851
  874MOL0     C17917   1.804   7.308   6.883 -0.1615  0.2319 -0.4406
  874MOL0     C17918   1.796   7.183   6.961 -0.0278  0.2835 -0.3930
  874MOL0     C17919   1.783   7.074   7.019  0.5533 -0.1531 -0.8703
  874MOL0     C17920   1.774   7.819   6.725  1.1805 -0.6792  0.6602
  874MOL0     C17921   1.883   7.902   6.753  0.4051 -0.5205  0.3545
  874MOL0     C17922   1.864   8.016   6.852 -0.1855  0.8635 -0.3683
  874MOL0     H17923   2.161   8.280   6.552 -1.9216 -1.7479 -1.6139
  874MOL0     H17924   2.371   8.419   6.480  0.8649  0.4541  1.5864
  874MOL0     H17925   2.556   8.431   6.232 -0.9099  0.5955  0.4882
  874MOL0     H17926   2.517   8.529   6.364 -2.2125 -1.0217 -3.7837
  874MOL0     H17927   2.754   8.539   6.433 -1.2638 -4.0977  1.5839
  874MOL0     H17928   2.728   8.604   6.266  0.2248 -1.2086 -1.4021
  874MOL0     H17929   2.806   8.400   6.168  1.0633  0.0262 -0.5332
  874MOL0     H17930   2.821   8.312   6.319 -2.6566 -1.0995 -0.3201
  874MOL0     H17931   3.008   8.554   6.254  0.8201 -0.8899 -0.7405
  874MOL0     H17932   2.996   8.449   6.398  0.3566 -1.3239  0.8292
  874MOL0     H17933   3.053   8.256   6.251  0.1918 -0.8679 -1.7909
  874MOL0     H17934   3.010   8.348   6.113 -1.6685  0.7417  0.7385
  874MOL0     H17935   3.258   8.432   6.296 -0.4318  0.1509  0.5235
  874MOL0     H17936   3.278   8.307   6.182  3.2167  1.8967  1.2541
  874MOL0     H17937   3.211   8.599   6.120 -0.4303  1.0948 -3.2531
  874MOL0     H17938   3.192   8.477   5.994  1.6530  3.3022 -1.2727
  874MOL0     H17939   3.421   8.411   6.011  1.0133  0.7247 -1.8038
  874MOL0     H17940   3.394   8.572   5.953  0.1962  2.8173  1.3493
  874MOL0     H17941   3.532   8.405   6.265  0.5110 -0.4639  2.4639
  874MOL0     H17942   3.712   8.685   6.477 -0.2734 -0.6821  0.5327
  874MOL0     H17943   3.628   8.540   6.531  1.5092 -1.7337  0.1524
  874MOL0     H17944   3.757   8.389   6.392  1.0730 -0.9169 -2.3713
  874MOL0     H17945   3.820   8.520   6.294  1.7285 -1.3610  0.8001
  874MOL0     H17946   3.977   8.432   6.462 -1.4321 -1.4453  0.5352
  874MOL0     H17947   3.862   8.497   6.593 -0.3680  1.9026  0.8470
  874MOL0     H17948   3.901   8.727   6.503 -1.1974 -0.7602  2.7320
  874MOL0     H17949   4.002   8.650   6.377 -0.1402  0.9196  0.5930
  874MOL0     H17950   4.293   8.557   6.665 -1.7458  2.2653  1.8141
  874MOL0     H17951   4.516   8.655   6.642 -1.0963 -1.1328  0.4488
  874MOL0     H17952   4.861   8.773   6.710 -0.6759  0.4141  0.9191
  874MOL0     H17953   5.099   8.834   6.680  2.0253  3.6546 -0.5504
  874MOL0     H17954   5.299   8.971   6.312 -0.4553 -3.4390  3.1573
  874MOL0     H17955   5.221   9.121   6.332 -1.4143 -3.2049 -2.3252
  874MOL0     H17956   5.392   9.160   6.534  2.1081 -1.7507  1.3050
  874MOL0     H17957   5.463   9.014   6.510  0.1998  1.4780  1.9871
  874MOL0     H17958   5.473   9.206   6.265  1.7178 -0.1506 -0.7130
  874MOL0     H17959   5.562   9.239   6.411 -1.6771  2.8018 -3.2885
  874MOL0     H17960   5.563   8.969   6.256  2.3877 -0.8818  0.9453
  874MOL0     H17961   5.666   9.023   6.387 -2.4132  0.5009  2.1210
  874MOL0     H17962   5.765   9.196   6.264  1.4112 -1.9459  0.2132
  874MOL0     H17963   5.656   9.157   6.131 -1.9367 -2.0562  0.0279
  874MOL0     H17964   5.875   8.968   6.251 -0.6960 -0.6597  0.2922
  874MOL0     H17965   5.768   8.914   6.124 -3.0107  1.7576  0.3983
  874MOL0     H17966   5.974   9.134   6.122  2.1478 -4.4993  1.2594
  874MOL0     H17967   5.875   9.099   5.969 -0.0787 -2.4490 -1.0469
  874MOL0     H17968   5.950   8.902   5.928  0.8330 -0.4600 -0.2093
  874MOL0     H17969   6.088   9.016   5.965  1.9141 -2.6119  0.2795
  874MOL0     H17970   5.008   9.033   6.311 -0.7135  0.0539  0.1880
  874MOL0     H17971   4.795   8.926   6.319  0.6186  2.2989 -0.6574
  874MOL0     H17972   4.343   8.955   6.376 -0.8868  0.2368 -0.5566
  874MOL0     H17973   4.120   8.854   6.416  0.5557  0.3398 -1.1827
  874MOL0     H17974   2.593   8.078   6.392 -0.7204  0.5957 -0.4301
  874MOL0     H17975   2.384   7.935   6.434  2.0859  0.2914 -0.3121
  874MOL0     H17976   2.081   7.801   6.495 -1.5368 -1.7989 -0.3618
  874MOL0     H17977   1.902   7.641   6.462  2.4033 -1.4360  1.8494
  874MOL0     H17978   1.799   7.477   6.652 -0.2301  2.2814  1.2328
  874MOL0     H17979   1.650   7.428   6.590  0.8948 -2.8795  0.9235
  874MOL0     H17980   1.543   7.531   6.807  1.1518  2.4019 -0.9904
  874MOL0     H17981   1.704   7.550   6.876 -2.1274  1.0220  1.2518
  874MOL0     H17982   1.606   7.304   6.793  3.5621 -1.8998 -1.4039
  874MOL0     H17983   1.613   7.344   6.973  1.0039  3.8336  1.2346
  874MOL0     H17984   1.852   7.288   6.786 -1.0194 -3.5004 -0.2536
  874MOL0     H17985   1.869   7.383   6.929 -1.4740  0.6458  0.8067
  874MOL0     H17986   1.749   6.988   7.073  0.6580 -1.7283 -3.1473
  874MOL0     H17987   1.690   7.824   6.794  1.0228  0.9490  0.4043
  874MOL0     H17988   1.887   8.108   6.797 -1.4342 -0.2754 -2.9677
  874MOL0     H17989   1.764   8.025   6.894  0.2474 -1.4570  1.3612
  874MOL0     H17990   1.944   8.010   6.926 -2.6965  1.3846  2.5898
  875MOL0     O17991   3.658   4.049   6.114  0.5243  0.0200 -0.0131
  875MOL0     C17992   3.568   4.038   6.036  0.4514  0.3129  0.2325
  875MOL0     O17993   3.577   4.038   5.903 -0.2526 -0.2888 -0.6260
  875MOL0     C17994   3.693   3.980   5.853  0.8137 -0.2687 -0.6176
  875MOL0     C17995   3.752   4.031   5.739 -0.2855 -0.0267  0.3659
  875MOL0     C17996   3.873   3.978   5.698 -0.0223  0.1570  0.5900
  875MOL0     C17997   3.931   3.864   5.761 -0.1327 -0.0679 -0.4196
  875MOL0     O17998   4.041   3.792   5.722  0.5640 -0.1879  0.2511
  875MOL0     C17999   4.168   3.847   5.724 -0.3298 -0.3546  0.4438
  875MOL0     C18000   4.260   3.726   5.723  0.2011 -0.1931 -0.8835
  875MOL0     C18001   4.407   3.756   5.753  0.3446  0.1188  0.0898
  875MOL0     C18002   4.486   3.626   5.710  0.9382  0.0664 -1.2580
  875MOL0     C18003   4.637   3.636   5.751 -0.5746  0.1655 -0.8978
  875MOL0     C18004   4.708   3.518   5.678 -0.4656 -0.5153  0.0609
  875MOL0     C18005   4.845   3.502   5.708 -0.7119  0.5688 -0.4542
  875MOL0     C18006   4.932   3.609   5.635  0.6076  0.5551  0.4704
  875MOL0     N18007   5.061   3.619   5.701 -0.0467  0.3568 -0.5101
  875MOL0     C18008   5.145   3.512   5.724 -0.8751  0.0710 -0.0964
  875MOL0     C18009   5.230   3.567   5.821 -0.3238  0.6104  0.6502
  875MOL0     C18010   5.355   3.499   5.879  1.1695  0.0830  0.2091
  875MOL0     C18011   5.379   3.550   6.029  0.4727  0.5576  0.1543
  875MOL0     C18012   5.498   3.482   6.110 -0.4830  0.4474  0.6899
  875MOL0     C18013   5.504   3.328   6.086  0.1457  0.6748  0.3536
  875MOL0     O18014   5.556   3.290   5.957 -0.6991 -0.2578  0.0829
  875MOL0     C18015   5.683   3.311   5.920  0.2684 -0.8191 -0.9573
  875MOL0     C18016   5.718   3.289   5.792  0.0900  0.2747  0.4243
  875MOL0     C18017   5.849   3.318   5.747  0.1315 -0.3740  0.4563
  875MOL0     C18018   5.946   3.365   5.834 -0.9425  0.0322 -0.2985
  875MOL0     C18019   6.082   3.393   5.791 -0.2969  0.0333  0.1262
  875MOL0     O18020   6.160   3.455   5.888 -0.0383  0.2374  0.6461
  875MOL0     C18021   6.294   3.476   5.866  0.5559 -0.3349 -0.6419
  875MOL0     C18022   6.385   3.471   5.977  0.8299  0.5618 -0.4992
  875MOL0     C18023   6.526   3.508   5.968  0.6574 -0.9228  0.1690
  875MOL0     C18024   6.566   3.552   5.836 -0.3331  0.8096  0.4678
  875MOL0     O18025   6.697   3.573   5.817 -0.2494  0.1711  0.0400
  875MOL0     C18026   6.776   3.495   5.725  0.8019 -0.1578 -0.2798
  875MOL0     C18027   6.814   3.367   5.786 -0.1424  0.0899 -0.3826
  875MOL0     C18028   6.929   3.366   5.889 -0.5424 -0.4001  0.0683
  875MOL0     C18029   6.904   3.462   6.005  0.1219 -0.2719 -0.1089
  875MOL0     C18030   7.021   3.438   6.107  0.2910 -0.2930  0.4150
  875MOL0     C18031   7.151   3.494   6.056  0.1167 -1.3689  0.7103
  875MOL0     C18032   7.253   3.499   6.170  0.8170  0.2626  0.6918
  875MOL0     C18033   7.391   3.477   6.097  0.6261  0.6051 -0.4404
  875MOL0    Cl18034   7.459   3.625   6.027  0.2708  0.1014  0.0083
  875MOL0     C18035   6.474   3.563   5.738 -0.1203 -0.2515  0.5454
  875MOL0     C18036   6.339   3.522   5.748 -0.1798 -0.2693  0.5318
  875MOL0     O18037   6.121   3.351   5.676 -1.0313  0.6825 -0.0614
  875MOL0     C18038   5.911   3.379   5.970  0.0601  0.5546 -0.1569
  875MOL0     C18039   5.777   3.370   6.012 -0.4913  0.2491 -0.7668
  875MOL0     N18040   5.206   3.702   5.833 -0.3006 -0.4452  0.5135
  875MOL0     N18041   5.111   3.734   5.755  0.4577 -0.2781  0.6892
  875MOL0     C18042   3.869   3.822   5.881  0.5212  0.6191  0.2846
  875MOL0     C18043   3.749   3.873   5.921  0.0609  0.5328  0.2331
  875MOL0     C18044   3.429   4.060   6.093 -1.0478 -0.5589  0.7255
  875MOL0     C18045   3.416   4.113   6.221  0.3559 -2.1319 -0.0790
  875MOL0     C18046   3.296   4.118   6.280  0.8435  1.0791  0.5647
  875MOL0     C18047   3.183   4.074   6.215  1.0937  0.3277  0.3826
  875MOL0     O18048   3.057   4.068   6.279 -0.2852  0.1951  0.9143
  875MOL0     C18049   2.997   4.200   6.297  0.1044 -0.3448 -1.1772
  875MOL0     C18050   2.971   4.271   6.173 -0.3134 -1.0963  0.0868
  875MOL0     C18051   2.905   4.411   6.204 -1.1562  0.2801  0.8912
  875MOL0     C18052   2.881   4.496   6.081  0.3620  0.9458  0.7642
  875MOL0     C18053   2.761   4.437   6.012 -0.5669 -0.7866  1.2352
  875MOL0     C18054   2.658   4.390   5.965  0.0567 -0.2848  0.4086
  875MOL0     C18055   3.192   4.025   6.082 -0.2053  0.5913  0.5479
  875MOL0     C18056   3.317   4.005   6.026  1.1983 -0.0008 -0.6248
  875MOL0     C18057   3.318   3.917   5.898  0.6234 -0.7232  0.5606
  875MOL0     H18058   3.711   4.117   5.688 -0.5757 -0.2210  0.2668
  875MOL0     H18059   3.926   4.019   5.613 -0.2512 -1.2668 -0.2583
  875MOL0     H18060   4.186   3.908   5.636 -0.5131 -1.7358 -0.5936
  875MOL0     H18061   4.182   3.912   5.810 -1.1194  0.3369  0.0641
  875MOL0     H18062   4.245   3.677   5.627 -1.6355 -0.9082 -0.2934
  875MOL0     H18063   4.233   3.652   5.799 -0.0959 -1.2279 -1.9624
  875MOL0     H18064   4.420   3.780   5.858 -2.5316 -0.5173  0.6842
  875MOL0     H18065   4.432   3.844   5.692  2.1265 -0.2160  0.2961
  875MOL0     H18066   4.456   3.524   5.737  1.1136  0.3377  0.0570
  875MOL0     H18067   4.479   3.620   5.601  0.2216 -2.5956 -1.1396
  875MOL0     H18068   4.673   3.732   5.712 -0.0987  0.0649 -0.7054
  875MOL0     H18069   4.649   3.637   5.859 -2.5212 -0.8833 -0.6381
  875MOL0     H18070   4.656   3.425   5.700 -1.8204  0.0192 -0.7217
  875MOL0     H18071   4.692   3.535   5.571 -1.8906 -0.4697  0.2629
  875MOL0     H18072   4.860   3.397   5.680 -0.0799 -0.0483  1.9266
  875MOL0     H18073   4.850   3.507   5.817 -1.7406 -0.8336 -0.3033
  875MOL0     H18074   4.951   3.584   5.530  1.6294  2.7998  0.0553
  875MOL0     H18075   4.874   3.702   5.636 -1.2536 -0.5489  0.2981
  875MOL0     H18076   5.161   3.415   5.679  1.6101  1.0378 -1.4957
  875MOL0     H18077   5.319   3.396   5.882 -1.2728  0.7855 -1.8465
  875MOL0     H18078   5.444   3.504   5.815  3.2434 -0.9253  2.8328
  875MOL0     H18079   5.402   3.656   6.043  1.0777  0.1150  3.0933
  875MOL0     H18080   5.285   3.528   6.080 -1.5119 -0.7855 -3.6434
  875MOL0     H18081   5.476   3.490   6.216  2.1961 -3.1359  1.7158
  875MOL0     H18082   5.591   3.537   6.094 -0.4832  1.0950  2.7059
  875MOL0     H18083   5.399   3.298   6.088 -0.4152  2.3304 -1.3428
  875MOL0     H18084   5.564   3.271   6.158  1.6079 -1.1637 -2.1423
  875MOL0     H18085   5.652   3.257   5.711 -0.6827 -1.1551  1.5797
  875MOL0     H18086   5.871   3.302   5.641  1.5461 -0.0141  0.6695
  875MOL0     H18087   6.354   3.438   6.075  2.1057  1.0850  0.0918
  875MOL0     H18088   6.601   3.500   6.046  1.2024  1.5185 -0.0247
  875MOL0     H18089   6.721   3.477   5.632 -1.3792 -0.0830  0.9229
  875MOL0     H18090   6.870   3.550   5.710  0.9797 -0.0570  1.1258
  875MOL0     H18091   6.728   3.333   5.844 -0.2231  1.9873  0.7093
  875MOL0     H18092   6.839   3.285   5.718  0.5468  0.5850 -0.7416
  875MOL0     H18093   6.950   3.265   5.925  0.1182 -1.6319 -3.3847
  875MOL0     H18094   7.022   3.396   5.842 -1.8016  0.7347 -1.8167
  875MOL0     H18095   6.810   3.433   6.053  1.0198 -2.1053  0.6524
  875MOL0     H18096   6.910   3.565   5.970  0.7131 -0.8763 -1.9255
  875MOL0     H18097   7.037   3.331   6.123 -0.8254 -0.1809  2.6559
  875MOL0     H18098   6.990   3.484   6.201 -1.1473 -1.2219  0.4188
  875MOL0     H18099   7.185   3.418   5.987  1.6616  1.0253 -1.3332
  875MOL0     H18100   7.137   3.591   6.007  0.2454 -0.5859  2.1749
  875MOL0     H18101   7.224   3.431   6.251 -1.6854 -3.0872 -2.6534
  875MOL0     H18102   7.257   3.599   6.213  1.4318  1.2077 -1.4326
  875MOL0     H18103   7.463   3.454   6.176 -2.4635 -4.2056  1.4011
  875MOL0     H18104   7.381   3.394   6.025 -0.0505  0.0576  0.2734
  875MOL0     H18105   6.524   3.591   5.646 -1.9724 -1.0793 -0.7754
  875MOL0     H18106   6.276   3.535   5.661 -2.7283  1.0891  2.4402
  875MOL0     H18107   5.968   3.431   6.047 -1.7182  2.1356  0.1606
  875MOL0     H18108   5.747   3.400   6.112  2.0911 -1.9482  0.8074
  875MOL0     H18109   3.918   3.734   5.921 -0.3370 -0.5852 -1.1905
  875MOL0     H18110   3.698   3.823   6.002 -0.5431 -2.3945 -1.7905
  875MOL0     H18111   3.501   4.139   6.283 -1.0228  1.2149  0.6023
  875MOL0     H18112   3.290   4.138   6.386 -0.4332  0.7434  0.5794
  875MOL0     H18113   3.065   4.255   6.362 -0.3361  0.2874 -1.2401
  875MOL0     H18114   2.903   4.197   6.354  1.5764 -3.1974  1.3811
  875MOL0     H18115   2.889   4.222   6.120 -0.8898  1.0348 -1.0760
  875MOL0     H18116   3.059   4.283   6.109  1.0312  2.1465  2.2466
  875MOL0     H18117   2.973   4.466   6.270 -1.4121  0.6296  0.8683
  875MOL0     H18118   2.810   4.399   6.257 -0.5717  3.7989  3.0225
  875MOL0     H18119   2.857   4.601   6.103 -2.0424  0.2914  1.6106
  875MOL0     H18120   2.974   4.499   6.024  0.5282 -0.8861  0.8898
  875MOL0     H18121   2.568   4.360   5.915  1.1067  1.1080 -2.5419
  875MOL0     H18122   3.099   3.992   6.037 -1.6296  0.8779  3.0616
  875MOL0     H18123   3.220   3.895   5.855 -0.4306  2.7281  0.8731
  875MOL0     H18124   3.358   3.982   5.820 -3.7942  4.0382  1.6409
  875MOL0     H18125   3.373   3.826   5.922 -2.5270 -3.2423 -0.8672
  876MOL0     O18126   7.322  11.090  11.187  0.1533  0.3351  0.5335
  876MOL0     C18127   7.263  11.021  11.269 -0.7163  0.5328 -0.6671
  876MOL0     O18128   7.321  10.915  11.343  0.7348 -0.0840  0.0952
  876MOL0     C18129   7.458  10.897  11.325 -0.9212 -0.1684  0.5686
  876MOL0     C18130   7.504  10.771  11.304  0.3265 -0.4305 -0.7861
  876MOL0     C18131   7.637  10.745  11.268  0.0971  0.0181 -0.0499
  876MOL0     C18132   7.736  10.839  11.277 -0.4350 -0.1604  0.6295
  876MOL0     O18133   7.862  10.792  11.243 -0.1064  0.4774 -0.2814
  876MOL0     C18134   7.958  10.896  11.224  0.5944 -0.8477 -0.5839
  876MOL0     C18135   8.093  10.844  11.171 -0.8183 -0.3054 -0.2703
  876MOL0     C18136   8.092  10.815  11.015  0.7933 -0.3716 -0.2567
  876MOL0     C18137   8.228  10.763  10.984 -0.8733  0.6513 -0.5161
  876MOL0     C18138   8.215  10.616  10.951 -0.0073  1.4520 -0.5435
  876MOL0     C18139   8.345  10.569  10.901 -0.9138  0.5479  0.5788
  876MOL0     C18140   8.356  10.416  10.873 -0.5659 -0.3893 -0.1829
  876MOL0     C18141   8.471  10.380  10.777 -0.2761 -0.9304 -0.6101
  876MOL0     N18142   8.602  10.431  10.840  0.0045 -0.9079  0.8698
  876MOL0     C18143   8.634  10.414  10.974 -0.1146  0.8136  0.0967
  876MOL0     C18144   8.769  10.462  10.982  0.2091  0.1465  0.6041
  876MOL0     C18145   8.858  10.461  11.110  0.3202 -0.1463 -0.0797
  876MOL0     C18146   8.878  10.592  11.187  0.6230  1.4781  1.0497
  876MOL0     C18147   8.929  10.577  11.330 -0.5273 -0.2379  0.6640
  876MOL0     C18148   9.069  10.511  11.340  0.6035  0.1094  0.2923
  876MOL0     O18149   9.173  10.604  11.305  0.3475  0.0968  0.1877
  876MOL0     C18150   9.304  10.551  11.290  0.2550 -0.9040 -0.0113
  876MOL0     C18151   9.398  10.630  11.223 -0.1040  0.4463 -0.0977
  876MOL0     C18152   9.530  10.590  11.191  0.1499 -0.0723  0.6056
  876MOL0     C18153   9.569  10.458  11.230  1.2965  1.0775  0.0299
  876MOL0     C18154   9.710  10.408  11.216 -0.0062  0.3106  0.2150
  876MOL0     O18155   9.800  10.488  11.142 -0.0001 -0.7570  0.1514
  876MOL0     C18156   9.927  10.441  11.148  0.9458  0.1358 -0.0804
  876MOL0     C18157  10.012  10.516  11.225 -0.3059  0.1884 -0.6375
  876MOL0     C18158  10.148  10.478  11.221  0.2921  0.0982  0.0214
  876MOL0     C18159  10.194  10.371  11.147 -0.1919  0.2819  0.3934
  876MOL0     O18160  10.336  10.356  11.135  0.6268  0.2071 -0.7170
  876MOL0     C18161  10.381  10.318  11.008  0.2279 -0.2539 -0.8059
  876MOL0     C18162  10.528  10.347  11.008  0.2369 -0.4654  0.8664
  876MOL0     C18163  10.600  10.314  10.877 -0.3643 -0.2087  0.0653
  876MOL0     C18164  10.754  10.342  10.878  0.2250  0.0057 -0.5456
  876MOL0     C18165  10.828  10.255  10.773  0.1011 -0.6364  0.0690
  876MOL0     C18166  10.981  10.274  10.787  0.2705 -0.9303 -0.1289
  876MOL0     C18167  11.037  10.162  10.702 -0.3340  0.1229  0.2066
  876MOL0     C18168  11.188  10.172  10.690  0.5677  0.2070 -0.0126
  876MOL0    Cl18169  11.213  10.320  10.585  0.2240 -0.2582 -0.0169
  876MOL0     C18170  10.105  10.304  11.057  0.3961 -0.2490 -0.5487
  876MOL0     C18171   9.974  10.337  11.064  0.3613  0.2216  0.2050
  876MOL0     O18172   9.732  10.293  11.249  0.3164 -0.0120  0.4806
  876MOL0     C18173   9.478  10.381  11.297 -0.0690 -0.1188  0.7423
  876MOL0     C18174   9.349  10.428  11.321 -0.5904  0.6143 -0.6277
  876MOL0     N18175   8.811  10.500  10.854  0.2439 -0.0273 -0.2973
  876MOL0     N18176   8.713  10.472  10.778 -0.4116  0.2241 -0.7655
  876MOL0     C18177   7.698  10.970  11.305 -0.4433  0.9912  0.7346
  876MOL0     C18178   7.562  10.999  11.319  0.4260 -0.0369  0.6712
  876MOL0     C18179   7.119  11.046  11.280  0.1004  0.0195 -0.6344
  876MOL0     C18180   7.046  11.074  11.159 -0.0230  0.0093  0.2102
  876MOL0     C18181   6.906  11.096  11.164  0.1468  0.2458  0.0429
  876MOL0     C18182   6.834  11.081  11.282 -1.4393 -0.5666 -0.7826
  876MOL0     O18183   6.698  11.093  11.273  0.1053 -0.1477  0.3001
  876MOL0     C18184   6.630  11.103  11.401  0.1997  0.7078  0.1300
  876MOL0     C18185   6.477  11.119  11.382  0.4679 -0.1270 -0.3567
  876MOL0     C18186   6.418  11.262  11.368 -0.3064  0.0860 -0.6288
  876MOL0     C18187   6.458  11.324  11.236 -0.2214 -0.1345 -0.4075
  876MOL0     C18188   6.378  11.267  11.128  0.2969 -0.6590 -0.2719
  876MOL0     C18189   6.309  11.233  11.036 -0.1438 -0.4342  0.7082
  876MOL0     C18190   6.909  11.051  11.396  0.3732 -0.0255 -0.8291
  876MOL0     C18191   7.049  11.032  11.403 -0.1554 -0.0169  0.8608
  876MOL0     C18192   7.105  10.989  11.529 -0.4015  0.7885  0.6164
  876MOL0     H18193   7.431  10.691  11.304  0.2010 -0.3245 -1.4159
  876MOL0     H18194   7.672  10.651  11.227 -1.7306 -1.7536  2.1533
  876MOL0     H18195   7.914  10.966  11.152  1.4160 -0.8038 -1.0585
  876MOL0     H18196   7.965  10.944  11.322  2.5260 -0.8132 -0.7006
  876MOL0     H18197   8.120  10.751  11.222  2.1766 -1.0723 -2.9327
  876MOL0     H18198   8.166  10.920  11.199  0.4321 -1.6167  0.1354
  876MOL0     H18199   8.079  10.910  10.963 -1.4088  0.8026  2.2246
  876MOL0     H18200   8.004  10.753  10.995 -0.6403  2.2296 -2.6617
  876MOL0     H18201   8.267  10.807  10.892  0.7069  0.9038  0.2440
  876MOL0     H18202   8.296  10.767  11.069 -0.7845 -1.0439 -0.4914
  876MOL0     H18203   8.183  10.561  11.040  3.0607  1.1683  0.5007
  876MOL0     H18204   8.142  10.605  10.871 -0.9115  2.5852  0.1013
  876MOL0     H18205   8.356  10.623  10.807 -0.1836  0.2704  0.4985
  876MOL0     H18206   8.421  10.588  10.977 -0.3761 -0.2878  0.2626
  876MOL0     H18207   8.260  10.387  10.829 -0.4656  0.3847 -0.9331
  876MOL0     H18208   8.363  10.347  10.957 -1.3826 -0.3739 -0.0909
  876MOL0     H18209   8.479  10.273  10.757  1.1168 -0.7891 -0.9083
  876MOL0     H18210   8.467  10.421  10.676 -0.7916  1.6093  0.3603
  876MOL0     H18211   8.572  10.377  11.055 -1.8105  0.3007 -1.3733
  876MOL0     H18212   8.812  10.391  11.180 -2.0215  0.5280 -0.8591
  876MOL0     H18213   8.956  10.428  11.073  2.3079  3.8399  1.0664
  876MOL0     H18214   8.939  10.653  11.120  0.0871  0.1698 -0.7046
  876MOL0     H18215   8.784  10.648  11.194  1.6311  3.6007 -0.8896
  876MOL0     H18216   8.865  10.521  11.400  0.0431 -3.2310 -1.0497
  876MOL0     H18217   8.946  10.675  11.375  1.8385 -0.6356  0.7622
  876MOL0     H18218   9.076  10.433  11.264 -1.0197 -0.2892  0.5101
  876MOL0     H18219   9.080  10.470  11.441  2.3760  1.7964  0.8479
  876MOL0     H18220   9.357  10.730  11.212 -2.4027 -0.2656  1.3586
  876MOL0     H18221   9.603  10.660  11.152 -1.3191  0.3909 -1.4563
  876MOL0     H18222   9.980  10.603  11.282  0.4145  0.3043 -0.3970
  876MOL0     H18223  10.224  10.540  11.269 -0.9009  1.5276  0.1252
  876MOL0     H18224  10.367  10.210  11.001 -1.1393 -0.1396 -0.1204
  876MOL0     H18225  10.328  10.360  10.922  0.3260 -1.8286 -1.6668
  876MOL0     H18226  10.534  10.456  11.012  1.0163 -0.5162  4.5029
  876MOL0     H18227  10.577  10.305  11.096  2.5473  1.5036  0.6242
  876MOL0     H18228  10.588  10.206  10.860 -0.8696 -0.3931  1.4687
  876MOL0     H18229  10.564  10.362  10.785 -1.2659  0.1706  0.6000
  876MOL0     H18230  10.803  10.320  10.973 -2.5447 -0.5966  0.8447
  876MOL0     H18231  10.771  10.449  10.863 -1.8147  0.1146 -2.7529
  876MOL0     H18232  10.793  10.286  10.675 -2.6341 -0.4720  1.0149
  876MOL0     H18233  10.810  10.149  10.796 -0.0362 -0.9033 -1.1905
  876MOL0     H18234  11.016  10.365  10.737  0.4146 -1.3108 -0.7331
  876MOL0     H18235  11.022  10.269  10.888 -1.2833 -0.6616  0.5381
  876MOL0     H18236  10.993  10.166  10.602 -1.4475 -1.5289  0.6080
  876MOL0     H18237  11.007  10.069  10.750 -1.2612 -0.9312 -2.2662
  876MOL0     H18238  11.240  10.192  10.784  0.8080 -1.5450  0.2723
  876MOL0     H18239  11.236  10.088  10.638  3.0518  2.0725 -0.9148
  876MOL0     H18240  10.150  10.226  10.996  2.9074  0.4421  0.3023
  876MOL0     H18241   9.896  10.285  11.008 -0.4530 -0.2319  1.6961
  876MOL0     H18242   9.508  10.286  11.339  0.5823  0.4718  1.6273
  876MOL0     H18243   9.290  10.353  11.374 -0.8230  0.5616 -0.9613
  876MOL0     H18244   7.772  11.048  11.290  0.7087 -0.1550  0.2887
  876MOL0     H18245   7.543  11.105  11.333  1.8488  0.1563  1.2914
  876MOL0     H18246   7.089  11.074  11.059 -2.0027 -0.3048 -0.6958
  876MOL0     H18247   6.865  11.110  11.064  1.2700  0.5314 -0.3940
  876MOL0     H18248   6.663  11.183  11.468 -1.7121  0.5884  1.2839
  876MOL0     H18249   6.652  11.004  11.441  2.9584  1.4496  0.6895
  876MOL0     H18250   6.441  11.093  11.481  2.2992  3.9352  1.6080
  876MOL0     H18251   6.438  11.042  11.315  2.1828 -4.2538  2.9211
  876MOL0     H18252   6.467  11.330  11.439  0.5301 -0.9380 -0.1875
  876MOL0     H18253   6.310  11.265  11.385 -0.2250  3.0917 -0.1315
  876MOL0     H18254   6.444  11.432  11.240 -0.4784 -0.1931  0.5478
  876MOL0     H18255   6.561  11.292  11.219  0.6445  1.3049  1.8033
  876MOL0     H18256   6.263  11.198  10.945  2.2731 -0.1765 -0.6960
  876MOL0     H18257   6.859  11.027  11.489 -2.1448 -0.9317 -2.3267
  876MOL0     H18258   7.099  10.882  11.552 -0.1203  0.4686 -0.7179
  876MOL0     H18259   7.208  11.025  11.530 -0.1988  0.2542 -0.0916
  876MOL0     H18260   7.058  11.040  11.613  2.6511  4.0818  0.5736
  877MOL0     O18261   1.164  11.375   4.394 -0.1076 -0.0744  0.4101
  877MOL0     C18262   1.081  11.437   4.459  1.2163 -0.6798  0.3674
  877MOL0     O18263   1.102  11.559   4.505 -0.0881 -0.2544  0.1571
  877MOL0     C18264   1.223  11.627   4.483  0.4309  0.0092 -0.3862
  877MOL0     C18265   1.310  11.663   4.578  0.0506  0.0026 -0.0308
  877MOL0     C18266   1.436  11.715   4.553 -0.2222 -0.2253  0.5170
  877MOL0     C18267   1.472  11.743   4.420  0.6204  1.5335  0.4836
  877MOL0     O18268   1.594  11.786   4.381 -0.3175 -0.4074  0.3720
  877MOL0     C18269   1.697  11.820   4.476  0.6267  0.6671  0.1811
  877MOL0     C18270   1.843  11.804   4.426  0.0358  0.0256 -0.1083
  877MOL0     C18271   1.879  11.914   4.335  0.4787 -0.4863 -0.9167
  877MOL0     C18272   2.008  11.899   4.251 -0.1714 -0.0427  1.0163
  877MOL0     C18273   2.006  12.014   4.151  0.1339 -0.0246  0.5798
  877MOL0     C18274   2.114  12.125   4.168 -0.4251  0.6326 -0.4052
  877MOL0     C18275   2.259  12.076   4.165  0.1791 -0.3739  0.1105
  877MOL0     C18276   2.296  11.962   4.064  0.2649 -0.3993 -0.1357
  877MOL0     N18277   2.434  11.920   4.103  0.6909 -0.0536 -0.0333
  877MOL0     C18278   2.548  11.973   4.046 -0.6427 -0.3714  0.0600
  877MOL0     C18279   2.651  11.945   4.135  0.7443  0.3228  0.9062
  877MOL0     C18280   2.790  11.969   4.103  0.0224 -0.5440  0.3232
  877MOL0     C18281   2.868  12.016   4.231  0.6006 -0.6220  1.3715
  877MOL0     C18282   3.020  12.028   4.194 -0.4640 -0.6516 -1.0547
  877MOL0     C18283   3.057  12.146   4.097  0.4801 -0.1042 -0.1889
  877MOL0     O18284   3.191  12.158   4.076 -0.1554 -0.8053 -0.0903
  877MOL0     C18285   3.272  12.229   4.162  0.3443 -0.7286  0.0645
  877MOL0     C18286   3.383  12.294   4.103 -0.3436  0.8292  0.0024
  877MOL0     C18287   3.480  12.365   4.168  0.2789 -0.4490  0.7761
  877MOL0     C18288   3.450  12.396   4.300 -0.6521  0.0029 -0.1458
  877MOL0     C18289   3.543  12.479   4.375  0.7602 -0.2027  0.0133
  877MOL0     O18290   3.501  12.501   4.505 -0.5419 -0.3834  0.6389
  877MOL0     C18291   3.588  12.579   4.573 -0.2065  0.3971  0.5225
  877MOL0     C18292   3.539  12.684   4.641 -0.1507 -0.0948 -0.8922
  877MOL0     C18293   3.618  12.774   4.703 -0.1619  0.5145 -0.2014
  877MOL0     C18294   3.756  12.751   4.714  0.6807 -0.8097  0.4605
  877MOL0     O18295   3.832  12.851   4.770 -0.3511 -0.2754  0.2704
  877MOL0     C18296   3.960  12.821   4.816 -0.8583 -0.1211  0.6310
  877MOL0     C18297   4.001  12.914   4.918  0.0262 -0.3012 -0.1106
  877MOL0     C18298   4.131  12.892   4.996 -0.4140 -0.6971  0.1342
  877MOL0     C18299   4.250  12.926   4.903 -0.2702 -0.2765 -0.1124
  877MOL0     C18300   4.381  12.861   4.963  0.0875  1.0602 -0.1842
  877MOL0     C18301   4.502  12.866   4.869  0.4381 -0.2350  0.1046
  877MOL0     C18302   4.632  12.815   4.939  0.7504 -0.4960  0.1719
  877MOL0     C18303   4.662  12.902   5.060  0.3280  0.7934  0.5664
  877MOL0    Cl18304   4.842  12.922   5.066  0.3484 -0.0569  0.0556
  877MOL0     C18305   3.811  12.646   4.642 -0.8618 -0.0495  0.8168
  877MOL0     C18306   3.731  12.558   4.577 -0.2988 -1.1881  0.5568
  877MOL0     O18307   3.639  12.525   4.320  0.5574 -0.8650 -0.1664
  877MOL0     C18308   3.335  12.342   4.357 -0.0235  0.4725  0.5882
  877MOL0     C18309   3.245  12.258   4.301 -0.3037  0.0477  0.2168
  877MOL0     N18310   2.594  11.856   4.227  0.1368 -0.8267 -0.3688
  877MOL0     N18311   2.463  11.851   4.213  0.4177  0.2962 -0.2887
  877MOL0     C18312   1.387  11.702   4.315 -0.5019  0.4035  0.7539
  877MOL0     C18313   1.260  11.639   4.346 -0.5960 -0.0823 -0.2214
  877MOL0     C18314   0.954  11.373   4.492  0.6884 -0.5276 -0.8254
  877MOL0     C18315   0.844  11.469   4.486 -0.1903  0.4237 -0.0853
  877MOL0     C18316   0.709  11.413   4.479 -0.8024  0.2605 -0.9212
  877MOL0     C18317   0.685  11.279   4.486 -1.0397  0.3184  0.5371
  877MOL0     O18318   0.552  11.249   4.481 -0.0963 -0.2182  0.2945
  877MOL0     C18319   0.517  11.112   4.519 -0.0171 -0.2133 -0.3725
  877MOL0     C18320   0.509  11.028   4.393  0.5625 -0.1929 -0.0460
  877MOL0     C18321   0.490  10.884   4.432  0.5587  0.8524  0.3735
  877MOL0     C18322   0.468  10.798   4.305  0.1999  0.6491  0.1932
  877MOL0     C18323   0.333  10.822   4.243 -0.5384  0.6837  0.6765
  877MOL0     C18324   0.222  10.838   4.198 -0.0743  0.4754 -0.5147
  877MOL0     C18325   0.791  11.191   4.497 -0.4321  0.3361  0.1339
  877MOL0     C18326   0.923  11.236   4.499 -0.0490 -0.1941  0.6370
  877MOL0     C18327   1.030  11.133   4.490 -0.0656 -0.7217  0.0294
  877MOL0     H18328   1.274  11.649   4.679  0.4131  2.2658  0.4587
  877MOL0     H18329   1.493  11.728   4.645  1.3244 -0.2261 -0.4126
  877MOL0     H18330   1.671  11.923   4.503 -1.8797 -0.3118  1.8488
  877MOL0     H18331   1.689  11.743   4.553 -0.8899 -2.3099 -2.7027
  877MOL0     H18332   1.869  11.707   4.383  1.1584 -0.1417  0.9102
  877MOL0     H18333   1.900  11.811   4.519 -1.8826 -0.1565  1.1260
  877MOL0     H18334   1.894  12.008   4.388  1.5683 -0.7496 -0.7416
  877MOL0     H18335   1.795  11.924   4.266  0.7231  0.1585 -1.1316
  877MOL0     H18336   2.099  11.908   4.310  1.2113  0.1207 -1.0568
  877MOL0     H18337   2.009  11.800   4.204  0.5509 -0.2443  1.4439
  877MOL0     H18338   2.014  11.979   4.048 -0.9589  2.9929 -0.6561
  877MOL0     H18339   1.910  12.067   4.156  0.5878  0.7710  1.1934
  877MOL0     H18340   2.099  12.203   4.093  0.8034  0.9389 -0.3515
  877MOL0     H18341   2.097  12.168   4.267  0.8406  1.3759 -0.5024
  877MOL0     H18342   2.280  12.043   4.267 -0.9833 -1.9304 -0.1097
  877MOL0     H18343   2.322  12.160   4.133  1.3982  0.0352  3.2673
  877MOL0     H18344   2.226  11.878   4.065 -1.0463  0.6463  0.2151
  877MOL0     H18345   2.289  12.002   3.962 -2.1310 -3.5239 -1.3572
  877MOL0     H18346   2.557  12.038   3.959 -0.0667 -1.1939 -0.4992
  877MOL0     H18347   2.839  11.877   4.067  3.1850  0.5748  1.3958
  877MOL0     H18348   2.798  12.040   4.021  0.4238  0.3398  1.1145
  877MOL0     H18349   2.817  12.104   4.271 -0.6325 -0.3049 -0.7334
  877MOL0     H18350   2.866  11.934   4.304 -1.2835 -0.9285  1.0314
  877MOL0     H18351   3.061  11.934   4.156  0.8220  0.8756 -3.7359
  877MOL0     H18352   3.075  12.044   4.287 -1.6612 -0.3646 -0.3727
  877MOL0     H18353   3.026  12.239   4.146  2.0111 -0.3028  1.2392
  877MOL0     H18354   3.009  12.139   3.999  1.7869  0.3122 -0.8835
  877MOL0     H18355   3.394  12.281   3.996 -0.8217  4.0602 -0.5394
  877MOL0     H18356   3.563  12.410   4.114 -0.4713  1.5954  1.2062
  877MOL0     H18357   3.433  12.702   4.625 -0.0486  1.1477 -0.3451
  877MOL0     H18358   3.586  12.862   4.758  2.3462  0.3297  1.7316
  877MOL0     H18359   3.970  12.718   4.853  1.8076 -0.4991 -0.8639
  877MOL0     H18360   4.033  12.835   4.736  1.0294  0.7708  2.3963
  877MOL0     H18361   4.009  13.006   4.860 -1.4649 -1.9922 -3.2852
  877MOL0     H18362   3.916  12.913   4.986  1.0426  3.0812  1.4098
  877MOL0     H18363   4.147  12.947   5.089 -0.2103  0.9246 -0.8130
  877MOL0     H18364   4.133  12.785   5.021 -0.4834 -0.9129 -0.7462
  877MOL0     H18365   4.254  13.034   4.886 -0.3422 -0.1712  0.5102
  877MOL0     H18366   4.242  12.886   4.801  1.1152  1.5154 -0.9912
  877MOL0     H18367   4.361  12.754   4.974  1.0850  0.5802 -2.4375
  877MOL0     H18368   4.409  12.900   5.062  0.8748 -1.0808  0.5007
  877MOL0     H18369   4.480  12.814   4.775 -2.2105  1.7360 -0.4766
  877MOL0     H18370   4.506  12.972   4.845  2.5958 -0.2964 -0.0211
  877MOL0     H18371   4.714  12.818   4.866  0.5497 -0.4805 -0.0567
  877MOL0     H18372   4.608  12.711   4.960 -2.2441 -0.0189 -0.4434
  877MOL0     H18373   4.615  12.999   5.039  0.5155  1.2747  2.2297
  877MOL0     H18374   4.624  12.863   5.155  0.8792  3.4917  2.0201
  877MOL0     H18375   3.919  12.635   4.633 -0.9499 -0.5102  0.2494
  877MOL0     H18376   3.790  12.492   4.514  2.6576  2.2422 -0.5633
  877MOL0     H18377   3.313  12.371   4.459  2.3285  2.5978  0.5904
  877MOL0     H18378   3.157  12.229   4.358 -2.7436  0.8185 -2.8255
  877MOL0     H18379   1.409  11.706   4.209  0.1301  0.0264  0.8608
  877MOL0     H18380   1.199  11.600   4.266 -0.9026 -0.8196  0.3587
  877MOL0     H18381   0.845  11.577   4.481 -1.9095  0.4319 -1.2088
  877MOL0     H18382   0.631  11.482   4.448 -0.7885  0.5875 -0.2313
  877MOL0     H18383   0.418  11.110   4.567 -1.0520  0.6723 -2.3768
  877MOL0     H18384   0.584  11.059   4.588 -3.1601 -0.2733  2.9649
  877MOL0     H18385   0.592  11.043   4.323 -1.3233  3.3142 -1.8064
  877MOL0     H18386   0.424  11.069   4.338  2.9255  3.7772 -1.1500
  877MOL0     H18387   0.406  10.863   4.498  1.7859 -2.9799  0.9434
  877MOL0     H18388   0.579  10.843   4.480 -0.3663  1.8186  3.1088
  877MOL0     H18389   0.551  10.802   4.233  1.1497 -0.1461  1.2160
  877MOL0     H18390   0.460  10.692   4.331 -1.3963  0.9942  1.2717
  877MOL0     H18391   0.123  10.827   4.160 -1.3590 -0.9145  2.8701
  877MOL0     H18392   0.773  11.084   4.498 -0.7730  0.3874 -0.6191
  877MOL0     H18393   1.058  11.114   4.386 -0.3929  1.2129 -0.4577
  877MOL0     H18394   1.116  11.154   4.554  0.4020  0.8443 -1.0525
  877MOL0     H18395   0.985  11.039   4.524  3.7984 -3.3599 -1.4111
  878MOL0     O18396   0.059   1.496   7.313  0.2489 -0.3613 -0.6247
  878MOL0     C18397  -0.059   1.506   7.282  0.8050 -0.4336  0.4145
  878MOL0     O18398  -0.139   1.621   7.285  0.4741 -0.5119 -1.3495
  878MOL0     C18399  -0.063   1.741   7.268 -0.5234  1.0306  0.0659
  878MOL0     C18400  -0.006   1.768   7.143 -0.7396 -0.7309  0.0855
  878MOL0     C18401   0.073   1.884   7.129  0.2673  0.4289 -0.1632
  878MOL0     C18402   0.104   1.973   7.227 -0.3538 -0.9785  0.1095
  878MOL0     O18403   0.174   2.092   7.231 -0.5469 -0.4925  0.2854
  878MOL0     C18404   0.168   2.181   7.116  0.3454  0.4020  0.4976
  878MOL0     C18405   0.213   2.326   7.157 -0.1314 -0.0381 -0.7875
  878MOL0     C18406   0.100   2.394   7.245  0.7442  1.1211 -0.4445
  878MOL0     C18407   0.109   2.541   7.264 -0.3692  0.4238 -0.2945
  878MOL0     C18408   0.110   2.574   7.411  0.0823  0.1604  0.2561
  878MOL0     C18409   0.147   2.722   7.432  0.5249  0.0756 -0.2167
  878MOL0     C18410   0.164   2.747   7.585 -0.0875  0.0794  0.3360
  878MOL0     C18411   0.298   2.688   7.642 -0.1545  0.9767 -0.1774
  878MOL0     N18412   0.429   2.743   7.595  0.0822  0.1851 -0.4775
  878MOL0     C18413   0.467   2.874   7.604  0.8840 -0.1725 -0.5768
  878MOL0     C18414   0.588   2.882   7.545  0.8600  0.0868 -0.2072
  878MOL0     C18415   0.669   3.005   7.544 -0.4425 -0.1958 -0.2747
  878MOL0     C18416   0.784   2.984   7.647  0.1868  0.2183 -0.0357
  878MOL0     C18417   0.885   3.096   7.647  0.0368  0.0926  1.1797
  878MOL0     C18418   1.031   3.062   7.660  1.0003  0.6380  0.1501
  878MOL0     O18419   1.090   3.192   7.660  0.2326 -0.8574 -0.0940
  878MOL0     C18420   1.227   3.210   7.661 -0.1189 -0.5640  0.2721
  878MOL0     C18421   1.274   3.336   7.634 -0.3346 -0.2727  0.3217
  878MOL0     C18422   1.406   3.369   7.608  0.1755  0.2854  0.2968
  878MOL0     C18423   1.505   3.270   7.627  0.1738 -0.5291  0.3578
  878MOL0     C18424   1.650   3.303   7.600 -0.0918 -0.1153  0.8117
  878MOL0     O18425   1.740   3.198   7.606 -0.3069  0.1568 -0.3021
  878MOL0     C18426   1.874   3.231   7.584 -0.2124  0.1502  0.7445
  878MOL0     C18427   1.958   3.216   7.695 -0.2413 -0.3614 -0.2232
  878MOL0     C18428   2.096   3.258   7.699  0.5689  0.3461  0.0771
  878MOL0     C18429   2.153   3.305   7.577 -0.2419 -0.9133  0.0303
  878MOL0     O18430   2.286   3.326   7.590 -0.1791 -0.1730  0.9461
  878MOL0     C18431   2.361   3.360   7.475  0.3433  0.1440  0.3090
  878MOL0     C18432   2.507   3.315   7.493  0.0698  1.0628 -0.3798
  878MOL0     C18433   2.571   3.362   7.623  0.5188 -0.2313  0.0052
  878MOL0     C18434   2.639   3.254   7.697  0.6529  0.3061  0.5512
  878MOL0     C18435   2.709   3.295   7.828 -0.2770 -0.6613 -0.2316
  878MOL0     C18436   2.845   3.354   7.780 -0.6429 -0.6547 -0.1920
  878MOL0     C18437   2.938   3.409   7.885 -0.2170 -0.1883  0.6043
  878MOL0     C18438   3.074   3.455   7.831 -0.2342 -0.0805 -0.5003
  878MOL0    Cl18439   3.195   3.498   7.955  0.0268  0.1023 -0.3552
  878MOL0     C18440   2.072   3.315   7.465  0.5394  0.0054 -0.1621
  878MOL0     C18441   1.932   3.282   7.466  0.1744  0.2817  0.0856
  878MOL0     O18442   1.676   3.421   7.572  0.5598  0.2194  0.6415
  878MOL0     C18443   1.455   3.138   7.667  0.1422 -0.4318 -0.3261
  878MOL0     C18444   1.319   3.109   7.678  0.1136 -0.5003  0.1014
  878MOL0     N18445   0.632   2.751   7.508  0.2058  0.6007 -0.6885
  878MOL0     N18446   0.535   2.671   7.547 -0.3326  0.3971 -0.8626
  878MOL0     C18447   0.047   1.943   7.350  0.7292 -0.2397 -0.0305
  878MOL0     C18448  -0.033   1.835   7.372 -0.1532  0.6007  0.7078
  878MOL0     C18449  -0.143   1.383   7.255  0.4702  0.5963  0.4960
  878MOL0     C18450  -0.285   1.387   7.279 -1.0821 -0.5579 -1.0507
  878MOL0     C18451  -0.360   1.269   7.283  0.9190  0.2719 -0.2746
  878MOL0     C18452  -0.306   1.139   7.258  0.2697  0.2331 -0.3764
  878MOL0     O18453  -0.381   1.032   7.287 -0.4316  0.2973 -0.7812
  878MOL0     C18454  -0.389   0.922   7.191  1.2761 -0.4129  0.6176
  878MOL0     C18455  -0.504   0.940   7.089 -0.0500  0.7845  0.0174
  878MOL0     C18456  -0.638   0.987   7.145 -0.8319 -0.4178  0.3255
  878MOL0     C18457  -0.763   0.970   7.052  0.7873  0.3073 -0.0512
  878MOL0     C18458  -0.738   1.076   6.945  0.0892  0.2671  0.2734
  878MOL0     C18459  -0.719   1.164   6.857 -0.8314  0.5061  0.3565
  878MOL0     C18460  -0.160   1.132   7.240  2.0560  0.0260 -0.4474
  878MOL0     C18461  -0.083   1.250   7.232 -0.3259  0.4074 -0.0372
  878MOL0     C18462   0.066   1.233   7.204  0.8540  0.3789  0.5220
  878MOL0     H18463  -0.011   1.701   7.057 -3.5552 -0.2933 -0.1943
  878MOL0     H18464   0.117   1.892   7.030  0.5806 -2.0800 -0.2779
  878MOL0     H18465   0.234   2.139   7.039  2.5730  1.6222  1.6505
  878MOL0     H18466   0.064   2.176   7.081  0.6389  0.9975 -0.5101
  878MOL0     H18467   0.215   2.383   7.064  0.8432 -2.0239 -2.0648
  878MOL0     H18468   0.309   2.326   7.212 -1.2028  0.1768  1.1842
  878MOL0     H18469   0.096   2.349   7.345 -1.3909 -0.6334 -1.2591
  878MOL0     H18470   0.007   2.379   7.190  0.3251 -0.8053  0.6885
  878MOL0     H18471   0.202   2.578   7.220  0.2160  2.2795  2.2531
  878MOL0     H18472   0.027   2.591   7.212  0.5067  2.1328 -0.1113
  878MOL0     H18473   0.013   2.547   7.454 -0.3419 -1.1596 -1.3937
  878MOL0     H18474   0.186   2.507   7.452 -0.2105 -1.2090 -1.3082
  878MOL0     H18475   0.242   2.732   7.380 -0.0296 -0.1088 -1.3006
  878MOL0     H18476   0.072   2.794   7.398  0.3247 -0.8872 -1.9809
  878MOL0     H18477   0.076   2.721   7.644 -2.2847  2.4384 -1.6349
  878MOL0     H18478   0.185   2.854   7.591 -1.0026  0.3128 -0.3476
  878MOL0     H18479   0.310   2.700   7.750  1.4175 -0.3453 -0.1581
  878MOL0     H18480   0.300   2.580   7.625  0.4272  1.3207 -2.8256
  878MOL0     H18481   0.405   2.957   7.637 -0.3391 -1.1475 -0.3550
  878MOL0     H18482   0.711   3.020   7.444  0.1389  2.0731  0.2469
  878MOL0     H18483   0.605   3.090   7.571 -2.1795 -2.1221  2.0146
  878MOL0     H18484   0.740   2.965   7.746 -0.8978 -2.0801 -0.9048
  878MOL0     H18485   0.841   2.898   7.613  1.4106  1.4739 -1.3104
  878MOL0     H18486   0.857   3.172   7.721 -3.1112 -0.3647  0.6117
  878MOL0     H18487   0.879   3.147   7.550  2.9236 -1.3199  0.1246
  878MOL0     H18488   1.053   2.991   7.580  0.6564  0.0272  0.5923
  878MOL0     H18489   1.044   3.015   7.758  1.9187 -0.6837 -0.5727
  878MOL0     H18490   1.193   3.407   7.615 -0.6300 -0.3847  1.1097
  878MOL0     H18491   1.436   3.471   7.583  1.1411  1.0088  3.8218
  878MOL0     H18492   1.914   3.166   7.780 -2.0891  0.6426 -0.5387
  878MOL0     H18493   2.152   3.252   7.792 -0.3344  0.7043  0.6608
  878MOL0     H18494   2.339   3.299   7.387 -0.2154 -0.8727  1.1295
  878MOL0     H18495   2.354   3.467   7.452  3.6412  0.8984  2.1769
  878MOL0     H18496   2.517   3.207   7.482  0.4913  0.3945  4.5014
  878MOL0     H18497   2.564   3.346   7.405 -1.4242  1.8664 -1.1200
  878MOL0     H18498   2.629   3.448   7.587 -1.9546  0.6239 -2.3521
  878MOL0     H18499   2.498   3.413   7.687  1.0335 -1.2774  1.4797
  878MOL0     H18500   2.712   3.216   7.625  0.4143  1.5492 -0.3825
  878MOL0     H18501   2.578   3.166   7.719 -0.2372  1.2012  1.7887
  878MOL0     H18502   2.707   3.206   7.892 -3.5011 -0.8632 -0.4688
  878MOL0     H18503   2.655   3.364   7.893  0.5904 -1.2394  1.1606
  878MOL0     H18504   2.908   3.282   7.726 -0.2813  0.0992 -0.7994
  878MOL0     H18505   2.823   3.436   7.711 -1.8993 -0.4971  0.3729
  878MOL0     H18506   2.964   3.332   7.959  0.3559  3.0803  4.1350
  878MOL0     H18507   2.886   3.491   7.934  1.1979 -0.6685  3.1064
  878MOL0     H18508   3.118   3.382   7.762 -0.6743  1.5037 -2.5800
  878MOL0     H18509   3.049   3.550   7.782  1.0389  0.8197  0.5137
  878MOL0     H18510   2.122   3.347   7.374 -1.7763 -2.5898 -2.5363
  878MOL0     H18511   1.873   3.291   7.375  0.3965  3.1691  0.1391
  878MOL0     H18512   1.533   3.076   7.710  0.3331  0.4754  0.6943
  878MOL0     H18513   1.287   3.007   7.697  1.4966 -1.8826 -3.8831
  878MOL0     H18514   0.066   2.010   7.434  1.2424  0.1078 -0.4243
  878MOL0     H18515  -0.063   1.833   7.476 -0.8205 -0.0289  0.5123
  878MOL0     H18516  -0.335   1.481   7.297  0.9943  0.4119  0.0235
  878MOL0     H18517  -0.466   1.271   7.305  0.9318 -1.1286 -0.0266
  878MOL0     H18518  -0.404   0.825   7.241  1.1606  0.1495  1.6909
  878MOL0     H18519  -0.293   0.923   7.138  1.5085  1.5533  1.0028
  878MOL0     H18520  -0.523   0.863   7.015 -1.2752  2.0426 -1.0260
  878MOL0     H18521  -0.474   1.032   7.038  0.5385 -0.9847 -3.0890
  878MOL0     H18522  -0.620   1.091   7.176  0.7884 -1.2570  2.4580
  878MOL0     H18523  -0.663   0.928   7.234 -0.8977 -3.6429 -1.6657
  878MOL0     H18524  -0.776   0.869   7.013  0.3623 -0.5938  2.2790
  878MOL0     H18525  -0.848   0.998   7.115  2.3604  0.5240  2.1299
  878MOL0     H18526  -0.694   1.231   6.778  0.2148 -0.0533  0.2011
  878MOL0     H18527  -0.118   1.033   7.225  0.7993 -0.2151 -2.8111
  878MOL0     H18528   0.123   1.247   7.296  2.0506 -0.0335 -0.1328
  878MOL0     H18529   0.093   1.134   7.165 -1.3390 -0.7521  1.6425
  878MOL0     H18530   0.089   1.306   7.126  1.3052  2.9026  2.8689
  879MOL0     O18531   1.001   3.279   1.871  0.7001  0.2068  0.0782
  879MOL0     C18532   0.907   3.252   1.946 -0.1275  0.4540 -0.2231
  879MOL0     O18533   0.913   3.211   2.076 -0.2670 -0.0326  0.1527
  879MOL0     C18534   1.037   3.223   2.131 -0.2719 -0.2227  0.6411
  879MOL0     C18535   1.073   3.339   2.203  0.0475 -0.7694  0.1694
  879MOL0     C18536   1.204   3.346   2.257 -0.5080  0.5289  0.6175
  879MOL0     C18537   1.291   3.232   2.249  1.0230  0.1148 -0.7358
  879MOL0     O18538   1.409   3.226   2.309 -0.4312  0.7511  0.1555
  879MOL0     C18539   1.445   3.296   2.426  0.0574  0.1830 -0.4818
  879MOL0     C18540   1.594   3.266   2.463  0.3946 -0.1280 -0.7502
  879MOL0     C18541   1.617   3.118   2.526 -0.0038 -0.5893  0.3553
  879MOL0     C18542   1.757   3.105   2.593  0.3899 -0.6000  0.0283
  879MOL0     C18543   1.780   2.958   2.628  0.2879  0.2092  0.5341
  879MOL0     C18544   1.928   2.910   2.596  0.3008 -0.1452  0.7535
  879MOL0     C18545   2.028   2.992   2.665 -0.2821  0.9348 -0.2138
  879MOL0     C18546   2.018   2.996   2.816 -0.7973  0.3032 -0.0837
  879MOL0     N18547   2.047   2.856   2.865  0.8309 -0.6519 -0.2637
  879MOL0     C18548   2.155   2.783   2.847 -0.2433  0.0319 -0.7607
  879MOL0     C18549   2.142   2.662   2.902 -0.2803  0.6252 -0.1696
  879MOL0     C18550   2.248   2.557   2.899 -0.7146  0.1743  0.1289
  879MOL0     C18551   2.370   2.598   2.973 -0.6237  0.4164 -0.5871
  879MOL0     C18552   2.487   2.502   2.945  0.3731  0.3253  0.9887
  879MOL0     C18553   2.632   2.546   2.958 -0.1711 -0.0186  0.2805
  879MOL0     O18554   2.702   2.465   3.056 -0.3218  0.0681  0.7547
  879MOL0     C18555   2.834   2.490   3.081 -0.8870  0.4990 -0.5384
  879MOL0     C18556   2.906   2.601   3.036 -0.3158 -0.2451 -0.7890
  879MOL0     C18557   3.029   2.635   3.093 -0.2375 -0.0411 -0.8990
  879MOL0     C18558   3.086   2.556   3.196 -0.0341  0.0977  0.0777
  879MOL0     C18559   3.204   2.599   3.275  0.2167 -0.2329 -0.2026
  879MOL0     O18560   3.211   2.546   3.402 -0.2303  0.0246  0.3159
  879MOL0     C18561   3.288   2.610   3.492 -0.2681 -0.7288  0.1091
  879MOL0     C18562   3.397   2.540   3.547  0.0363  0.7639 -0.2795
  879MOL0     C18563   3.486   2.604   3.636 -0.4687  0.0990 -0.3670
  879MOL0     C18564   3.470   2.741   3.665  0.1023  0.0062 -0.6620
  879MOL0     O18565   3.553   2.810   3.751  0.2313  0.1693  0.0364
  879MOL0     C18566   3.677   2.752   3.782 -0.4176 -0.5467 -0.9600
  879MOL0     C18567   3.764   2.874   3.839  0.0543  0.1383  0.6907
  879MOL0     C18568   3.895   2.821   3.891  0.5641 -0.3634 -0.4466
  879MOL0     C18569   3.992   2.941   3.906  1.3426 -0.6785 -0.2254
  879MOL0     C18570   4.123   2.894   3.959 -0.4059 -0.4038  0.0682
  879MOL0     C18571   4.213   3.016   3.991  0.1489  0.2611 -0.4924
  879MOL0     C18572   4.275   3.069   3.867  0.0751  0.9690  0.4905
  879MOL0     C18573   4.390   3.166   3.908  1.3496  0.2596  0.1773
  879MOL0    Cl18574   4.544   3.074   3.937  0.4029  0.1021 -0.3231
  879MOL0     C18575   3.349   2.804   3.626  1.0461  0.6334  0.5282
  879MOL0     C18576   3.253   2.733   3.554 -0.4931 -0.2831  0.7580
  879MOL0     O18577   3.269   2.686   3.224 -0.5781  0.1593  0.0542
  879MOL0     C18578   3.012   2.434   3.232  0.3245 -0.3458 -0.1855
  879MOL0     C18579   2.887   2.405   3.182  0.0983 -0.4297  0.4411
  879MOL0     N18580   2.021   2.666   2.970 -0.2084 -0.2532 -0.6623
  879MOL0     N18581   1.965   2.782   2.940 -0.4572  0.0447 -0.9985
  879MOL0     C18582   1.247   3.113   2.189 -0.3993 -0.6207  0.0950
  879MOL0     C18583   1.119   3.113   2.129  0.0953  0.2573 -0.2477
  879MOL0     C18584   0.775   3.286   1.905  0.8042  0.7737  0.5308
  879MOL0     C18585   0.709   3.387   1.979 -0.2525  0.5778  0.3963
  879MOL0     C18586   0.571   3.410   1.955 -0.5245 -0.5367  1.0256
  879MOL0     C18587   0.507   3.357   1.838 -0.3735 -0.6186  1.0515
  879MOL0     O18588   0.380   3.389   1.809 -0.6456 -0.5653  0.3993
  879MOL0     C18589   0.310   3.505   1.866  0.6113  0.8405  0.0989
  879MOL0     C18590   0.377   3.636   1.823 -0.3673 -0.7264 -1.1164
  879MOL0     C18591   0.405   3.653   1.671 -0.3277 -0.1845 -0.0244
  879MOL0     C18592   0.290   3.612   1.576 -0.4980 -0.3072  0.2046
  879MOL0     C18593   0.163   3.666   1.623  0.7794  0.1922  0.2241
  879MOL0     C18594   0.060   3.705   1.663 -0.2345  0.5268  0.6955
  879MOL0     C18595   0.573   3.251   1.762 -0.0466 -0.4767 -0.8198
  879MOL0     C18596   0.711   3.214   1.797  0.2697  0.0080  1.0401
  879MOL0     C18597   0.790   3.122   1.701  0.1061  0.5801  0.2830
  879MOL0     H18598   1.008   3.425   2.208  0.7442 -0.0986 -1.6313
  879MOL0     H18599   1.243   3.433   2.308  0.6676 -0.1220  0.8708
  879MOL0     H18600   1.426   3.403   2.414 -4.3274 -0.5099 -1.3748
  879MOL0     H18601   1.390   3.263   2.515  3.4610 -0.1600  1.6828
  879MOL0     H18602   1.631   3.344   2.529 -0.9018  0.3824 -0.6139
  879MOL0     H18603   1.658   3.277   2.375  2.9460  2.0782  1.2288
  879MOL0     H18604   1.611   3.048   2.443 -0.0851 -0.2517  0.0715
  879MOL0     H18605   1.540   3.114   2.603  0.5677 -1.3672  0.9017
  879MOL0     H18606   1.839   3.151   2.537  0.5420 -1.1081 -0.1706
  879MOL0     H18607   1.747   3.155   2.690  1.2282  0.8990 -0.6329
  879MOL0     H18608   1.749   2.947   2.733  1.8858 -3.5416  0.7756
  879MOL0     H18609   1.724   2.892   2.562  1.4829  0.9681 -1.3186
  879MOL0     H18610   1.934   2.806   2.630 -1.0896  0.1844  2.1288
  879MOL0     H18611   1.954   2.917   2.490  1.8986 -2.0584  0.9603
  879MOL0     H18612   2.038   3.093   2.624  3.8417  0.2532 -1.3985
  879MOL0     H18613   2.129   2.960   2.635  1.4260  1.9121  3.8626
  879MOL0     H18614   2.100   3.060   2.849 -1.6308  1.0890  0.5086
  879MOL0     H18615   1.925   3.032   2.859  0.5953  1.2166  2.3644
  879MOL0     H18616   2.239   2.815   2.785  0.0434 -1.9541 -1.4756
  879MOL0     H18617   2.211   2.464   2.942  4.6734 -2.1249  0.5199
  879MOL0     H18618   2.270   2.531   2.795 -2.6561 -2.2091  0.2232
  879MOL0     H18619   2.404   2.694   2.933  0.9130  1.1230  2.1431
  879MOL0     H18620   2.362   2.596   3.082 -0.4055  0.9405 -0.5598
  879MOL0     H18621   2.481   2.464   2.843 -1.0847  0.4395  1.0033
  879MOL0     H18622   2.478   2.418   3.014  2.8356 -0.1644  0.7828
  879MOL0     H18623   2.643   2.647   3.000  0.0931 -0.4609  1.3047
  879MOL0     H18624   2.684   2.536   2.862 -0.6543  1.2643 -0.1298
  879MOL0     H18625   2.871   2.670   2.960 -0.3581  0.6821  0.0585
  879MOL0     H18626   3.093   2.717   3.063  0.6940 -0.2033  0.5838
  879MOL0     H18627   3.409   2.434   3.526 -1.5377 -0.0656  2.5026
  879MOL0     H18628   3.570   2.555   3.684  0.3343  2.2326  0.5404
  879MOL0     H18629   3.660   2.681   3.863  1.3236  2.4298  2.3085
  879MOL0     H18630   3.730   2.714   3.694  0.7788  0.9308 -0.9200
  879MOL0     H18631   3.779   2.934   3.748  1.9439 -2.5743 -0.9447
  879MOL0     H18632   3.717   2.928   3.921  1.1586 -0.2726  1.6151
  879MOL0     H18633   3.882   2.757   3.980  3.9676 -1.9621 -0.9432
  879MOL0     H18634   3.939   2.763   3.809 -2.2746  0.5440 -2.7685
  879MOL0     H18635   3.953   3.013   3.978 -1.8210 -2.2413 -0.1954
  879MOL0     H18636   3.992   2.991   3.809 -0.2566  0.3151  0.2428
  879MOL0     H18637   4.172   2.821   3.893 -1.6643 -0.3375 -0.9764
  879MOL0     H18638   4.103   2.841   4.053 -2.8417 -0.8023 -0.6196
  879MOL0     H18639   4.148   3.084   4.048 -1.6451 -0.6087 -1.4564
  879MOL0     H18640   4.299   2.984   4.051  1.6535  0.5970 -2.3949
  879MOL0     H18641   4.200   3.117   3.805 -0.0686  0.3458  0.1829
  879MOL0     H18642   4.316   2.988   3.807  1.0230 -0.8287  3.3233
  879MOL0     H18643   4.412   3.232   3.824 -2.8823 -2.1286 -3.2366
  879MOL0     H18644   4.348   3.221   3.993  0.3186 -1.4411  0.8233
  879MOL0     H18645   3.333   2.900   3.674  1.8762  1.6639 -1.1949
  879MOL0     H18646   3.159   2.779   3.526  0.3039  1.1327  0.3016
  879MOL0     H18647   3.049   2.376   3.315 -0.0477 -1.3182 -0.6887
  879MOL0     H18648   2.841   2.317   3.226 -1.7796 -0.2708 -1.1024
  879MOL0     H18649   1.312   3.027   2.195  3.4683  2.0858  0.1928
  879MOL0     H18650   1.082   3.021   2.085 -1.0970 -0.3827  1.9005
  879MOL0     H18651   0.759   3.433   2.064  2.3827 -2.0707  0.4246
  879MOL0     H18652   0.514   3.472   2.023  1.0917  0.2747  1.7122
  879MOL0     H18653   0.303   3.487   1.974 -2.4350 -0.7349 -0.2349
  879MOL0     H18654   0.208   3.494   1.827  0.4967  1.6112  0.1691
  879MOL0     H18655   0.466   3.647   1.885 -0.1843  1.4353 -1.6932
  879MOL0     H18656   0.314   3.717   1.860  1.0727 -1.4766  3.6393
  879MOL0     H18657   0.495   3.599   1.639  0.6025  0.0369  2.0617
  879MOL0     H18658   0.432   3.758   1.658 -3.6639  1.0305  1.8991
  879MOL0     H18659   0.308   3.660   1.479  2.6243  1.1618  1.3678
  879MOL0     H18660   0.280   3.503   1.571 -2.1919 -0.1145 -2.4462
  879MOL0     H18661  -0.041   3.737   1.682 -0.7934  2.0635 -3.8111
  879MOL0     H18662   0.524   3.206   1.677 -1.6350 -0.3964  0.0122
  879MOL0     H18663   0.836   3.174   1.617 -0.9345  3.0123  1.1249
  879MOL0     H18664   0.860   3.053   1.748  1.3581 -0.4114 -2.8277
  879MOL0     H18665   0.722   3.052   1.651 -1.3390  0.2777  2.5063
  880MOL0     O18666   0.359   9.701  10.356  0.1611 -0.0159 -0.4461
  880MOL0     C18667   0.299   9.607  10.308 -0.6361  0.8027 -0.3449
  880MOL0     O18668   0.369   9.495  10.288  0.4873  0.4579 -0.2780
  880MOL0     C18669   0.509   9.495  10.291  0.5331  0.4102 -0.7758
  880MOL0     C18670   0.575   9.444  10.183 -0.0644  0.6138  0.5283
  880MOL0     C18671   0.715   9.435  10.182  0.2167  0.4278  0.6869
  880MOL0     C18672   0.792   9.495  10.285  0.2133 -0.3065 -0.1643
  880MOL0     O18673   0.928   9.467  10.289  0.1264 -0.4268  0.7010
  880MOL0     C18674   0.993   9.555  10.194  0.0418  0.4413 -0.1521
  880MOL0     C18675   1.103   9.636  10.267 -0.6269  0.1612  0.0329
  880MOL0     C18676   1.048   9.704  10.392  0.2397  0.1333  0.0395
  880MOL0     C18677   1.145   9.805  10.443  0.5563 -0.6023 -0.6552
  880MOL0     C18678   1.066   9.905  10.537  0.1201 -0.4565  0.1649
  880MOL0     C18679   1.166   9.986  10.616  0.0957 -0.7566  0.6421
  880MOL0     C18680   1.292  10.047  10.544  0.1638 -0.2902  0.6873
  880MOL0     C18681   1.256  10.165  10.448 -0.5441  0.0863 -0.0252
  880MOL0     N18682   1.360  10.239  10.374 -0.9903 -0.3341 -0.0876
  880MOL0     C18683   1.474  10.292  10.426 -0.6033 -0.1933 -0.0378
  880MOL0     C18684   1.518  10.362  10.311 -0.4758  0.1315  0.0245
  880MOL0     C18685   1.642  10.442  10.296 -0.1106 -0.0500 -0.1278
  880MOL0     C18686   1.776  10.357  10.316 -0.4492 -0.2817 -0.2409
  880MOL0     C18687   1.896  10.430  10.246  0.3064  0.7415 -0.0446
  880MOL0     C18688   2.025  10.346  10.219  0.0099 -0.1932  0.5281
  880MOL0     O18689   2.133  10.430  10.173  0.5699  0.2028 -0.6225
  880MOL0     C18690   2.256  10.380  10.166 -0.0214  0.8361  0.4802
  880MOL0     C18691   2.327  10.340  10.280  0.4892  0.4697 -0.5344
  880MOL0     C18692   2.457  10.292  10.274 -0.5647 -0.6720 -0.2387
  880MOL0     C18693   2.515  10.265  10.149 -0.6705  0.0042  1.0181
  880MOL0     C18694   2.651  10.197  10.138  0.1863 -0.4142  0.0983
  880MOL0     O18695   2.685  10.119  10.028  0.3612 -0.5833  0.5714
  880MOL0     C18696   2.816  10.076  10.015 -0.2623 -0.0730  0.4037
  880MOL0     C18697   2.880  10.091   9.892 -0.6779  0.0502  0.3871
  880MOL0     C18698   3.017  10.051   9.872  0.2462 -0.3772 -0.0324
  880MOL0     C18699   3.085   9.997   9.979 -0.4346 -0.3868 -0.5093
  880MOL0     O18700   3.213   9.950   9.966 -0.4161  0.0341  0.2393
  880MOL0     C18701   3.245   9.823  10.035  0.4608 -0.5544  1.0254
  880MOL0     C18702   3.399   9.789  10.010  0.4674  0.4415  0.5603
  880MOL0     C18703   3.428   9.643  10.044 -0.4538  0.0508  0.9424
  880MOL0     C18704   3.582   9.621  10.037  0.2569  0.3511 -0.0823
  880MOL0     C18705   3.652   9.655   9.910  0.9543 -0.3345  0.6995
  880MOL0     C18706   3.800   9.621   9.900  0.0409  0.5178  0.0952
  880MOL0     C18707   3.855   9.676   9.762 -1.4087  0.5417  0.0793
  880MOL0     C18708   4.006   9.655   9.748 -0.1797  0.3548  0.2847
  880MOL0    Cl18709   4.050   9.637   9.579 -0.4233 -0.4977 -0.1242
  880MOL0     C18710   3.014   9.984  10.103  0.1307 -0.6213  0.6749
  880MOL0     C18711   2.882  10.020  10.119  0.3225 -0.8865 -0.2246
  880MOL0     O18712   2.720  10.209  10.238  0.5368  0.2904 -0.8176
  880MOL0     C18713   2.441  10.286  10.029  0.1460 -0.3633 -0.0402
  880MOL0     C18714   2.311  10.340  10.043  0.7233 -0.3651  0.3086
  880MOL0     N18715   1.424  10.354  10.213  0.1444 -0.0809 -0.0011
  880MOL0     N18716   1.329  10.289  10.259 -0.2666 -1.0606  0.1153
  880MOL0     C18717   0.728   9.557  10.386  0.9412 -0.0182 -0.5358
  880MOL0     C18718   0.587   9.547  10.395 -0.0691  0.6537 -0.3753
  880MOL0     C18719   0.148   9.604  10.292 -0.4025 -0.1221 -0.3176
  880MOL0     C18720   0.103   9.523  10.192 -0.6961  0.0752  0.1585
  880MOL0     C18721  -0.033   9.503  10.162 -0.0700  0.9594  0.0734
  880MOL0     C18722  -0.127   9.569  10.237  0.0641 -0.1904 -0.0660
  880MOL0     O18723  -0.259   9.552  10.202 -0.1664  0.1549  0.6792
  880MOL0     C18724  -0.360   9.597  10.285  0.8006 -0.9730 -0.1518
  880MOL0     C18725  -0.486   9.537  10.226 -0.3507  0.2184 -0.1220
  880MOL0     C18726  -0.601   9.552  10.320 -0.3491  0.2473 -0.4012
  880MOL0     C18727  -0.716   9.448  10.295 -0.1691  0.7524  0.8310
  880MOL0     C18728  -0.777   9.454  10.159  0.4900 -0.5093  0.2731
  880MOL0     C18729  -0.821   9.443  10.046  0.6572 -0.1557  0.4473
  880MOL0     C18730  -0.087   9.643  10.346  0.4122 -0.2465 -0.5856
  880MOL0     C18731   0.048   9.666  10.370  0.4551  1.0482  0.0590
  880MOL0     C18732   0.080   9.763  10.481 -0.4956  0.0148 -0.3640
  880MOL0     H18733   0.524   9.395  10.100  1.6480 -1.1629  0.4571
  880MOL0     H18734   0.769   9.380  10.105 -1.5557  1.7592 -1.6581
  880MOL0     H18735   1.030   9.499  10.107  1.2728  1.3552 -0.2368
  880MOL0     H18736   0.928   9.636  10.160 -0.1248  0.7590  0.8919
  880MOL0     H18737   1.138   9.708  10.192  1.1771 -0.8720 -0.1643
  880MOL0     H18738   1.187   9.571  10.290  0.3907 -0.2066 -3.9975
  880MOL0     H18739   1.016   9.635  10.471 -1.3575 -0.2568 -0.9048
  880MOL0     H18740   0.957   9.761  10.374 -1.5501 -1.3801  3.3257
  880MOL0     H18741   1.213   9.743  10.501 -0.6383  0.1572  1.6940
  880MOL0     H18742   1.192   9.870  10.369 -0.2080  1.1776  0.3466
  880MOL0     H18743   1.009   9.977  10.477 -0.6175 -1.3436 -0.2210
  880MOL0     H18744   0.997   9.858  10.608 -0.1660 -0.6388 -0.2309
  880MOL0     H18745   1.113  10.074  10.653 -1.3639 -1.4312  0.2322
  880MOL0     H18746   1.200   9.923  10.699 -1.6501 -0.4085  1.6851
  880MOL0     H18747   1.352   9.981  10.481  2.0376  1.6881  0.2895
  880MOL0     H18748   1.365  10.082  10.618  0.1493 -2.0758  1.6169
  880MOL0     H18749   1.171  10.147  10.381 -1.3772  0.0435  1.0211
  880MOL0     H18750   1.212  10.229  10.525 -0.1187 -0.9784  1.1558
  880MOL0     H18751   1.524  10.269  10.519 -2.5104 -1.3879  0.7447
  880MOL0     H18752   1.648  10.473  10.191 -1.3582 -0.1877 -0.2525
  880MOL0     H18753   1.642  10.529  10.362  1.7398  0.7533 -1.1267
  880MOL0     H18754   1.795  10.325  10.419 -2.4199 -3.5659 -0.7398
  880MOL0     H18755   1.771  10.256  10.273  0.8708 -0.8469  0.8531
  880MOL0     H18756   1.919  10.506  10.322  0.7339 -2.4920  3.3339
  880MOL0     H18757   1.864  10.480  10.154  1.9664  3.4833  0.7460
  880MOL0     H18758   2.000  10.263  10.152 -0.3692  3.0015 -3.7476
  880MOL0     H18759   2.048  10.293  10.312 -1.3958  0.0171  1.0171
  880MOL0     H18760   2.286  10.360  10.378  1.7624 -1.3768  0.4232
  880MOL0     H18761   2.506  10.287  10.371 -1.8903 -0.7143  0.4399
  880MOL0     H18762   2.836  10.135   9.803  0.7857 -0.8983 -0.8628
  880MOL0     H18763   3.065  10.077   9.778 -1.3602 -0.1300 -0.8170
  880MOL0     H18764   3.233   9.827  10.144  1.1040  1.2220  1.0677
  880MOL0     H18765   3.175   9.745  10.004  2.2107 -2.6192  1.9656
  880MOL0     H18766   3.421   9.817   9.907 -1.4695 -0.9914 -0.3254
  880MOL0     H18767   3.462   9.848  10.077  1.0380  0.6569 -0.1568
  880MOL0     H18768   3.391   9.624  10.145  2.4672  1.2152  2.3437
  880MOL0     H18769   3.383   9.578   9.969  0.3516  2.7474 -2.1158
  880MOL0     H18770   3.609   9.517  10.058  3.3696  1.5117  2.5172
  880MOL0     H18771   3.623   9.675  10.123 -1.1799 -1.0949  1.6089
  880MOL0     H18772   3.643   9.764   9.897  0.9602 -0.3126  0.8904
  880MOL0     H18773   3.584   9.603   9.842  2.2045  0.1164 -0.9534
  880MOL0     H18774   3.841   9.665   9.991 -2.1461  2.1313  0.3727
  880MOL0     H18775   3.816   9.513   9.908 -0.9014  0.4250  0.9891
  880MOL0     H18776   3.825   9.780   9.746 -1.3768  0.8381  1.8027
  880MOL0     H18777   3.817   9.613   9.681 -1.1702 -1.5269  1.5142
  880MOL0     H18778   4.066   9.744   9.772  0.8989 -0.6487  1.4545
  880MOL0     H18779   4.039   9.568   9.804 -1.1792 -1.4798 -1.8286
  880MOL0     H18780   3.071   9.941  10.185  2.7214  0.4105 -0.4667
  880MOL0     H18781   2.829   9.995  10.210 -2.2349  1.1944 -0.9968
  880MOL0     H18782   2.471  10.260   9.928 -3.0268 -0.5637 -1.0289
  880MOL0     H18783   2.261  10.359   9.949  0.9409 -0.8286  0.0939
  880MOL0     H18784   0.781   9.606  10.467 -2.6639 -0.9731  2.6833
  880MOL0     H18785   0.545   9.596  10.482 -2.8783 -2.0687  0.0005
  880MOL0     H18786   0.176   9.476  10.128 -0.7850 -0.8535  0.7128
  880MOL0     H18787  -0.070   9.442  10.080  0.8132  1.4225 -0.6922
  880MOL0     H18788  -0.362   9.703  10.313 -0.5518 -1.1460  0.4830
  880MOL0     H18789  -0.356   9.556  10.387  2.7942  0.7199  0.5302
  880MOL0     H18790  -0.472   9.430  10.210 -0.7529  0.6517 -4.7963
  880MOL0     H18791  -0.523   9.585  10.134  0.3912  1.7832  0.3535
  880MOL0     H18792  -0.645   9.652  10.322 -0.8291  0.1764  3.9901
  880MOL0     H18793  -0.564   9.525  10.420 -2.3811 -0.5858  0.1925
  880MOL0     H18794  -0.675   9.348  10.310 -0.3253  0.2651 -1.5718
  880MOL0     H18795  -0.797   9.474  10.364  0.5603  1.1088  1.5641
  880MOL0     H18796  -0.859   9.420   9.949  3.2626  1.5827 -1.0986
  880MOL0     H18797  -0.152   9.672  10.428  0.2092 -1.3078 -0.3588
  880MOL0     H18798   0.185   9.756  10.511 -0.2764 -0.1802 -1.1461
  880MOL0     H18799   0.043   9.858  10.442 -0.1475  0.0886 -0.5180
  880MOL0     H18800   0.024   9.728  10.568 -1.8108 -0.6179 -1.4353
  881MOL0     O18801   7.432   6.370   7.004 -0.5513 -0.4321 -0.1190
  881MOL0     C18802   7.478   6.294   6.919  0.3516 -0.0862 -0.2893
  881MOL0     O18803   7.433   6.296   6.784  0.0883  0.7311  0.0075
  881MOL0     C18804   7.302   6.324   6.766  0.8361  0.7981  0.2929
  881MOL0     C18805   7.196   6.286   6.850 -0.4258  0.9454 -0.5484
  881MOL0     C18806   7.065   6.330   6.824 -0.6456 -0.3590 -0.3714
  881MOL0     C18807   7.035   6.395   6.709  0.1148 -0.5566  0.3713
  881MOL0     O18808   6.901   6.436   6.681 -0.3437  0.4186 -0.1058
  881MOL0     C18809   6.809   6.470   6.791 -0.6155 -0.2140  1.3065
  881MOL0     C18810   6.669   6.529   6.743 -0.1422 -1.2507 -0.2298
  881MOL0     C18811   6.588   6.430   6.663  0.2887  0.4323  0.5951
  881MOL0     C18812   6.447   6.486   6.625  0.6551  0.1134  0.0598
  881MOL0     C18813   6.447   6.631   6.563 -0.1717  1.1751  0.2435
  881MOL0     C18814   6.326   6.655   6.473 -0.0895 -0.1185  0.2363
  881MOL0     C18815   6.309   6.810   6.447 -0.1949  0.0152  0.0227
  881MOL0     C18816   6.214   6.838   6.330 -0.2869  0.4857  0.4411
  881MOL0     N18817   6.069   6.803   6.355 -0.4356  0.3816 -0.1424
  881MOL0     C18818   5.980   6.865   6.438  0.2894  0.7740 -0.5869
  881MOL0     C18819   5.861   6.794   6.423 -0.7808  0.6642  0.1388
  881MOL0     C18820   5.728   6.825   6.491  0.2220 -0.7634 -0.1000
  881MOL0     C18821   5.734   6.783   6.640 -0.3482  0.2802  0.2122
  881MOL0     C18822   5.690   6.637   6.648 -0.5251  0.7264  0.2082
  881MOL0     C18823   5.721   6.558   6.774  0.2223  0.3324 -0.8392
  881MOL0     O18824   5.646   6.625   6.884  0.7211  0.2695  0.3530
  881MOL0     C18825   5.674   6.637   7.011 -0.3864 -0.1771 -0.0557
  881MOL0     C18826   5.597   6.717   7.088  1.2216  0.9556 -0.6373
  881MOL0     C18827   5.629   6.733   7.226 -0.5878 -0.2511 -0.4018
  881MOL0     C18828   5.740   6.671   7.278  0.3063  0.5710 -1.2162
  881MOL0     C18829   5.758   6.674   7.427  0.3182  0.7883  0.1126
  881MOL0     O18830   5.885   6.619   7.468  0.9051 -0.2769 -0.6142
  881MOL0     C18831   5.909   6.594   7.607 -0.0323 -0.5277 -0.3474
  881MOL0     C18832   5.840   6.501   7.684 -0.6737 -0.2540  0.7648
  881MOL0     C18833   5.878   6.469   7.813 -0.1297  0.6149  0.1291
  881MOL0     C18834   5.990   6.528   7.875  0.3885  0.3540  0.3590
  881MOL0     O18835   6.021   6.519   8.011 -1.1113  0.3221  0.4325
  881MOL0     C18836   5.936   6.443   8.105 -0.3778 -1.3271  0.8150
  881MOL0     C18837   5.951   6.464   8.257 -0.4932 -0.5947  1.0154
  881MOL0     C18838   6.095   6.443   8.307 -0.1521  0.1170 -0.3427
  881MOL0     C18839   6.106   6.454   8.461 -0.2087  0.8992  0.9353
  881MOL0     C18840   6.258   6.435   8.507  0.4424  0.2867  0.6192
  881MOL0     C18841   6.295   6.448   8.659  0.1276  0.4238  0.5837
  881MOL0     C18842   6.237   6.326   8.729  0.5129  0.8708  0.0560
  881MOL0     C18843   6.300   6.307   8.866  0.5762  1.0904  0.0032
  881MOL0    Cl18844   6.245   6.143   8.907 -0.1960 -0.0737  0.2625
  881MOL0     C18845   6.074   6.617   7.802  0.0344  0.9764  0.1317
  881MOL0     C18846   6.022   6.651   7.674 -0.1193 -0.4303 -0.6093
  881MOL0     O18847   5.667   6.700   7.504  0.0774  0.0069 -0.0907
  881MOL0     C18848   5.825   6.601   7.196  1.1382  0.1670  0.4108
  881MOL0     C18849   5.793   6.580   7.065  0.1891  0.6097  0.2384
  881MOL0     N18850   5.887   6.699   6.327  0.2865 -0.1886  0.0752
  881MOL0     N18851   6.009   6.703   6.295 -0.2434  0.0227  0.3016
  881MOL0     C18852   7.134   6.414   6.613 -0.6032  0.0975  0.8534
  881MOL0     C18853   7.267   6.374   6.646  0.1638 -0.5315  0.2625
  881MOL0     C18854   7.588   6.198   6.955  0.1566  1.0228 -0.6766
  881MOL0     C18855   7.691   6.171   6.867 -0.0046 -0.8371 -0.0787
  881MOL0     C18856   7.789   6.083   6.897 -0.3965  0.6141 -0.8684
  881MOL0     C18857   7.798   6.017   7.020  1.4637  0.1958  0.6302
  881MOL0     O18858   7.887   5.909   7.047 -1.1795  0.1222  0.3727
  881MOL0     C18859   7.950   5.844   6.934  0.0902 -0.0534  0.0353
  881MOL0     C18860   8.042   5.732   6.987 -0.3317 -0.1119  0.7543
  881MOL0     C18861   8.119   5.675   6.860  0.0486 -0.1410  0.3788
  881MOL0     C18862   8.047   5.555   6.800 -0.6947  0.0485  0.4864
  881MOL0     C18863   8.118   5.486   6.693  0.7033  0.0128  0.4250
  881MOL0     C18864   8.173   5.425   6.604 -0.0650 -0.7167  0.6525
  881MOL0     C18865   7.705   6.058   7.118  0.2951  0.5319  0.7362
  881MOL0     C18866   7.600   6.141   7.088 -0.0074 -0.3140 -0.0702
  881MOL0     C18867   7.525   6.188   7.209 -0.1481  0.3903 -0.4421
  881MOL0     H18868   7.212   6.211   6.927  0.4331 -0.7359 -2.2724
  881MOL0     H18869   6.981   6.306   6.889  1.0297 -4.5405  0.6237
  881MOL0     H18870   6.780   6.382   6.848 -3.9362 -0.2739 -0.2132
  881MOL0     H18871   6.852   6.549   6.852  0.2017 -0.4085  0.9953
  881MOL0     H18872   6.683   6.621   6.687 -0.5397  0.7174  2.6758
  881MOL0     H18873   6.616   6.562   6.833  1.9731  5.2549 -0.8820
  881MOL0     H18874   6.573   6.337   6.719 -0.9467 -0.3715 -0.9764
  881MOL0     H18875   6.643   6.412   6.571  1.1413  3.9548  0.2886
  881MOL0     H18876   6.409   6.418   6.549  2.2046 -0.7226  0.0026
  881MOL0     H18877   6.386   6.482   6.716  0.0925  2.0426 -0.1712
  881MOL0     H18878   6.447   6.704   6.644 -0.3385 -1.2124  2.5562
  881MOL0     H18879   6.544   6.627   6.512 -0.1669  1.7158  0.2073
  881MOL0     H18880   6.338   6.606   6.376 -2.1960 -2.8668  1.2250
  881MOL0     H18881   6.228   6.625   6.513 -3.1860  4.7291 -2.6095
  881MOL0     H18882   6.406   6.857   6.427 -0.5131  0.4962 -0.4122
  881MOL0     H18883   6.262   6.867   6.528  1.2230 -0.9702  1.5914
  881MOL0     H18884   6.239   6.940   6.300 -0.1668  0.4386  0.3774
  881MOL0     H18885   6.244   6.780   6.242 -0.0138  2.9955 -1.2141
  881MOL0     H18886   5.993   6.951   6.502  1.5730 -1.9408  3.2083
  881MOL0     H18887   5.723   6.934   6.491  0.5514 -0.7464 -0.2535
  881MOL0     H18888   5.649   6.775   6.435  1.1553 -0.8703 -1.3850
  881MOL0     H18889   5.835   6.794   6.679  0.6587 -0.9528 -1.8658
  881MOL0     H18890   5.661   6.843   6.694  0.0989  0.7149  0.3384
  881MOL0     H18891   5.737   6.581   6.567  0.3638  2.0359 -0.2157
  881MOL0     H18892   5.582   6.646   6.631 -0.2293  0.9547 -1.7207
  881MOL0     H18893   5.829   6.553   6.787  0.3501 -1.8940 -2.2130
  881MOL0     H18894   5.680   6.458   6.755  2.9115 -0.1837 -5.2150
  881MOL0     H18895   5.504   6.746   7.042  0.0118  1.0887  1.7172
  881MOL0     H18896   5.559   6.776   7.297  1.0729  1.2389  0.4004
  881MOL0     H18897   5.751   6.458   7.637  1.7590 -2.9700 -1.7990
  881MOL0     H18898   5.831   6.383   7.861  1.6239 -0.6638 -0.3257
  881MOL0     H18899   5.833   6.460   8.072 -0.4726 -2.8701  0.2117
  881MOL0     H18900   5.960   6.337   8.088  1.6638 -0.5794 -1.6154
  881MOL0     H18901   5.912   6.563   8.282 -0.6390 -0.4103  0.0937
  881MOL0     H18902   5.891   6.388   8.308 -4.0315  0.1803 -1.6185
  881MOL0     H18903   6.132   6.347   8.270  0.9408 -0.3986  1.9381
  881MOL0     H18904   6.159   6.515   8.255 -0.0113  0.9182  0.9142
  881MOL0     H18905   6.036   6.386   8.510  0.1691 -1.8442 -2.0288
  881MOL0     H18906   6.077   6.555   8.493 -1.5325  1.8431 -2.7636
  881MOL0     H18907   6.317   6.510   8.453 -1.3810  2.0091  0.8763
  881MOL0     H18908   6.290   6.338   8.467 -3.2433 -1.3538  1.2293
  881MOL0     H18909   6.404   6.458   8.662  0.3968 -1.7431  0.1041
  881MOL0     H18910   6.242   6.534   8.702 -2.1305  1.8321 -4.3032
  881MOL0     H18911   6.269   6.238   8.671 -4.4696  0.0600 -1.9487
  881MOL0     H18912   6.128   6.334   8.724  0.4912  1.1928  0.9122
  881MOL0     H18913   6.409   6.306   8.854  0.8506 -1.6508  1.7681
  881MOL0     H18914   6.282   6.383   8.942 -0.1054 -0.0621  1.0377
  881MOL0     H18915   6.163   6.664   7.843  0.3653  0.0050  0.5568
  881MOL0     H18916   6.084   6.711   7.607  3.1604  0.0150  2.4797
  881MOL0     H18917   5.909   6.537   7.222  1.8209  1.3495  1.2707
  881MOL0     H18918   5.856   6.523   6.997 -0.5737 -1.5985  1.2984
  881MOL0     H18919   7.107   6.471   6.524 -0.1763  0.3771  0.8989
  881MOL0     H18920   7.350   6.403   6.582  0.9697 -0.9294  1.1039
  881MOL0     H18921   7.682   6.226   6.774 -2.4644  1.0616  1.1796
  881MOL0     H18922   7.864   6.050   6.827 -1.1510 -3.5648  0.0424
  881MOL0     H18923   8.016   5.916   6.886  3.2262 -1.9777  1.1251
  881MOL0     H18924   7.871   5.802   6.871  0.4544 -1.3213  0.3978
  881MOL0     H18925   7.985   5.658   7.043 -1.7408 -1.1592 -1.8653
  881MOL0     H18926   8.122   5.779   7.045  0.3881 -0.3685 -0.0122
  881MOL0     H18927   8.216   5.641   6.896 -0.4486  0.1809  2.1367
  881MOL0     H18928   8.132   5.753   6.784  0.9155 -0.8590 -0.2177
  881MOL0     H18929   8.035   5.474   6.873  2.0399  0.6179  1.6718
  881MOL0     H18930   7.950   5.594   6.768 -1.7957 -2.5645  0.3192
  881MOL0     H18931   8.221   5.371   6.525 -2.0927 -1.1589 -0.3439
  881MOL0     H18932   7.724   6.018   7.217  1.6681  0.3725  0.4329
  881MOL0     H18933   7.542   6.296   7.218  2.4140 -0.0700  1.2322
  881MOL0     H18934   7.424   6.147   7.202 -0.0643  0.1616 -0.3347
  881MOL0     H18935   7.570   6.154   7.303  4.1609  0.7928 -2.1314
  882MOL0     O18936   1.846   4.940   4.022 -0.1739  0.4469 -0.7812
  882MOL0     C18937   1.858   4.910   4.139  0.1390 -0.5696  0.2243
  882MOL0     O18938   1.824   4.995   4.245 -0.2650 -0.3551 -0.3599
  882MOL0     C18939   1.771   5.122   4.220 -0.7583  0.1913 -0.1380
  882MOL0     C18940   1.823   5.225   4.297 -0.0465 -1.0736  0.0114
  882MOL0     C18941   1.766   5.350   4.283 -1.0628 -0.1557 -0.4856
  882MOL0     C18942   1.675   5.387   4.186 -0.0847 -0.2140 -0.2291
  882MOL0     O18943   1.628   5.519   4.169 -0.3936  0.7067  0.9117
  882MOL0     C18944   1.524   5.559   4.260  0.1216  0.7088  0.3266
  882MOL0     C18945   1.487   5.707   4.237  0.4011  0.1625  0.4565
  882MOL0     C18946   1.598   5.802   4.271 -0.1890  0.5116  0.3876
  882MOL0     C18947   1.537   5.937   4.252 -0.1548 -0.3754  0.6043
  882MOL0     C18948   1.638   6.042   4.294  1.2593  0.0990 -0.1290
  882MOL0     C18949   1.751   6.060   4.202  0.5403  0.0555 -0.9466
  882MOL0     C18950   1.838   6.171   4.266  0.4003 -0.0171 -0.2330
  882MOL0     C18951   1.986   6.163   4.216 -0.6784  0.5521  0.3971
  882MOL0     N18952   2.051   6.044   4.264  0.3185 -0.1673  0.6948
  882MOL0     C18953   2.070   6.006   4.394  0.2935 -0.3440 -0.2892
  882MOL0     C18954   2.093   5.871   4.389 -0.0895 -0.3798 -0.1795
  882MOL0     C18955   2.083   5.767   4.496  0.1530  0.0788 -0.0707
  882MOL0     C18956   2.069   5.619   4.443  0.7540  0.4340 -0.1686
  882MOL0     C18957   2.215   5.585   4.402 -0.3281 -0.2283 -0.6050
  882MOL0     C18958   2.306   5.542   4.524  0.1405 -0.1959 -0.1297
  882MOL0     O18959   2.365   5.659   4.593 -0.8192 -0.4296  0.8377
  882MOL0     C18960   2.446   5.642   4.694  0.0822  0.4860 -0.4639
  882MOL0     C18961   2.505   5.519   4.733  0.1216 -0.1702  0.0913
  882MOL0     C18962   2.601   5.527   4.837 -0.8596 -0.4322  0.0515
  882MOL0     C18963   2.629   5.649   4.906 -0.4467  0.3366 -0.2155
  882MOL0     C18964   2.730   5.631   5.023  0.0626 -1.4562  0.6733
  882MOL0     O18965   2.732   5.513   5.090  0.4578 -0.1443 -0.2552
  882MOL0     C18966   2.834   5.485   5.175 -0.2394 -0.3029 -0.4345
  882MOL0     C18967   2.969   5.538   5.149  0.4136 -0.3271  0.4576
  882MOL0     C18968   3.064   5.508   5.249 -0.6834  0.7785 -0.3240
  882MOL0     C18969   3.043   5.426   5.360 -0.0389 -0.4900 -0.1154
  882MOL0     O18970   3.132   5.400   5.457 -0.3882  1.0790 -0.0737
  882MOL0     C18971   3.268   5.358   5.414 -0.2100  0.5326 -0.2241
  882MOL0     C18972   3.366   5.378   5.523 -0.5155 -0.6617 -0.2936
  882MOL0     C18973   3.408   5.236   5.572  0.2078 -0.8304  0.2605
  882MOL0     C18974   3.539   5.254   5.649 -0.9774  0.1479  0.4939
  882MOL0     C18975   3.568   5.133   5.740 -1.4105 -0.2809 -0.1355
  882MOL0     C18976   3.715   5.131   5.790  0.0827  0.0916 -0.3624
  882MOL0     C18977   3.752   5.004   5.871 -0.8892  0.7035  0.4128
  882MOL0     C18978   3.910   4.996   5.886  0.1567  0.0160 -0.3495
  882MOL0    Cl18979   3.984   5.125   5.984 -0.2548  0.3108 -0.0409
  882MOL0     C18980   2.918   5.364   5.376  0.1821 -0.0304 -0.0696
  882MOL0     C18981   2.812   5.405   5.291 -0.8561  1.2438 -0.2801
  882MOL0     O18982   2.788   5.734   5.063  0.5129  0.0605 -0.0542
  882MOL0     C18983   2.561   5.765   4.868 -1.1726  0.3630 -0.8811
  882MOL0     C18984   2.476   5.762   4.760  0.0455 -0.2618 -0.8516
  882MOL0     N18985   2.113   5.842   4.255  0.2318  0.7408  0.3267
  882MOL0     N18986   2.092   5.946   4.181 -1.1874  0.4276 -1.0498
  882MOL0     C18987   1.629   5.288   4.104 -0.1834  0.9764 -0.0211
  882MOL0     C18988   1.679   5.152   4.121  0.0535 -0.0722  0.1936
  882MOL0     C18989   1.893   4.757   4.173  0.6921 -0.6475 -0.1297
  882MOL0     C18990   1.889   4.721   4.306 -0.6148 -0.5486  0.8186
  882MOL0     C18991   1.924   4.600   4.360  0.0653 -0.2928  0.1874
  882MOL0     C18992   1.945   4.497   4.271  0.8707 -0.1641 -0.0739
  882MOL0     O18993   1.965   4.374   4.322 -0.7331  0.4901 -0.5747
  882MOL0     C18994   1.947   4.260   4.235 -0.1734  0.1098 -0.3170
  882MOL0     C18995   1.931   4.126   4.316  0.1928 -0.1454  0.1905
  882MOL0     C18996   2.035   4.093   4.433 -0.3493 -0.6383 -0.2471
  882MOL0     C18997   2.063   3.945   4.438 -0.6381  0.8497  0.1269
  882MOL0     C18998   2.192   3.910   4.501  0.7925  0.0423 -0.6070
  882MOL0     C18999   2.297   3.894   4.558  0.3195  0.2865  0.7479
  882MOL0     C19000   1.944   4.527   4.136  0.3639  1.1283  0.0619
  882MOL0     C19001   1.918   4.653   4.081  0.5178 -1.1239  0.9669
  882MOL0     C19002   1.917   4.679   3.934 -0.4385  0.1471  0.3433
  882MOL0     H19003   1.894   5.214   4.378 -0.8291 -0.4459  0.7993
  882MOL0     H19004   1.814   5.437   4.328  2.9480 -1.1302 -2.4286
  882MOL0     H19005   1.437   5.496   4.240  1.6032 -1.0580 -0.8154
  882MOL0     H19006   1.564   5.543   4.360  2.2354 -0.4421 -0.6312
  882MOL0     H19007   1.409   5.730   4.310  0.4625  0.4230  0.4398
  882MOL0     H19008   1.443   5.727   4.138 -4.3106 -0.9868  2.0574
  882MOL0     H19009   1.688   5.784   4.212 -0.6391  0.1589 -0.2080
  882MOL0     H19010   1.631   5.798   4.375  2.9523  0.0277 -0.5187
  882MOL0     H19011   1.505   5.946   4.148 -1.3280 -0.0253  0.9849
  882MOL0     H19012   1.442   5.953   4.304 -0.8954  0.5655 -0.9842
  882MOL0     H19013   1.589   6.139   4.310  0.6626 -0.1808 -0.2360
  882MOL0     H19014   1.675   6.019   4.395  2.6642  0.6243 -0.4989
  882MOL0     H19015   1.821   5.980   4.176  3.0669  2.2450 -1.2806
  882MOL0     H19016   1.719   6.093   4.103  0.6675 -1.4745 -1.5321
  882MOL0     H19017   1.847   6.160   4.375  2.9704 -2.9008 -0.6268
  882MOL0     H19018   1.792   6.269   4.250  1.0759  1.0322  3.2845
  882MOL0     H19019   2.000   6.169   4.108  0.5947 -0.1070  0.5042
  882MOL0     H19020   2.036   6.252   4.254  1.0605  0.0717 -0.6842
  882MOL0     H19021   2.031   6.053   4.484 -1.5653  3.7155 -2.9116
  882MOL0     H19022   2.167   5.782   4.564  0.5473 -3.0896  0.2849
  882MOL0     H19023   1.989   5.792   4.546 -0.3821  0.5592 -1.2525
  882MOL0     H19024   2.033   5.564   4.530  2.8258  1.5384  1.4764
  882MOL0     H19025   1.991   5.622   4.366  0.7257 -0.5878 -0.1963
  882MOL0     H19026   2.259   5.669   4.347 -0.4047  1.4876  1.7657
  882MOL0     H19027   2.209   5.506   4.327 -1.6702  1.4935 -2.4026
  882MOL0     H19028   2.382   5.479   4.476  0.3906 -2.0998  2.5820
  882MOL0     H19029   2.248   5.469   4.580  1.1750 -0.5744  0.4801
  882MOL0     H19030   2.483   5.421   4.692 -1.9752  0.7444 -1.0770
  882MOL0     H19031   2.664   5.443   4.861 -2.6098 -1.0542  2.8642
  882MOL0     H19032   2.990   5.607   5.068 -2.1116  1.5878  1.3135
  882MOL0     H19033   3.161   5.555   5.236 -0.9317  1.4929  0.3280
  882MOL0     H19034   3.261   5.252   5.389 -1.4865  0.3418  0.8168
  882MOL0     H19035   3.309   5.400   5.322 -0.0237  1.0496  0.0857
  882MOL0     H19036   3.454   5.427   5.479 -0.5934  0.4090  0.7179
  882MOL0     H19037   3.325   5.443   5.599 -0.7514 -0.8464 -0.2605
  882MOL0     H19038   3.323   5.199   5.629 -0.5003 -2.5401 -1.7760
  882MOL0     H19039   3.436   5.167   5.491  1.0689 -1.2881  0.9326
  882MOL0     H19040   3.546   5.351   5.700 -1.4074  0.6194 -0.3300
  882MOL0     H19041   3.619   5.257   5.575 -0.8791 -0.9655  0.5379
  882MOL0     H19042   3.558   5.042   5.680  1.2298 -0.7690  0.0495
  882MOL0     H19043   3.498   5.121   5.822  0.4969 -1.6515  1.3771
  882MOL0     H19044   3.774   5.145   5.699  1.9298  1.8498  1.0247
  882MOL0     H19045   3.735   5.224   5.843 -2.5360  1.5073 -1.6421
  882MOL0     H19046   3.731   4.911   5.817  4.3537  0.3634 -1.6592
  882MOL0     H19047   3.698   5.000   5.966  0.2471 -3.5755  1.0956
  882MOL0     H19048   3.931   4.900   5.934  3.9000  0.6257 -0.4824
  882MOL0     H19049   3.944   4.996   5.782 -1.4578  3.3579 -1.0077
  882MOL0     H19050   2.903   5.314   5.472  0.5033  3.7925  2.1807
  882MOL0     H19051   2.712   5.373   5.315 -0.7097 -0.8755 -2.1792
  882MOL0     H19052   2.580   5.848   4.936  1.7153 -0.1248 -0.9645
  882MOL0     H19053   2.432   5.852   4.718  0.3732  0.1775 -0.2540
  882MOL0     H19054   1.562   5.305   4.020  0.9473  2.2946 -0.6949
  882MOL0     H19055   1.628   5.079   4.059 -2.0171  1.5737 -0.1585
  882MOL0     H19056   1.846   4.794   4.373 -1.2788 -0.0522 -0.1254
  882MOL0     H19057   1.920   4.575   4.465  1.3102 -1.1889  0.0353
  882MOL0     H19058   2.030   4.257   4.163  2.2976  3.9224  2.0256
  882MOL0     H19059   1.855   4.279   4.179 -0.2731  0.6598  0.0348
  882MOL0     H19060   1.947   4.046   4.243 -0.6912 -1.0551  0.9609
  882MOL0     H19061   1.835   4.115   4.367 -2.0067  0.1221 -3.4837
  882MOL0     H19062   1.985   4.126   4.525 -2.7696  0.5788 -1.8867
  882MOL0     H19063   2.130   4.141   4.408  0.2049 -1.3006  0.5377
  882MOL0     H19064   1.990   3.895   4.502 -0.0270  0.5831  0.6230
  882MOL0     H19065   2.042   3.900   4.341  0.2819 -1.6351  1.0274
  882MOL0     H19066   2.392   3.867   4.599  0.1801 -3.4174 -0.9731
  882MOL0     H19067   1.962   4.449   4.063  3.3004  1.4019  0.3844
  882MOL0     H19068   1.824   4.697   3.880 -0.3175  3.7934  1.1200
  882MOL0     H19069   1.994   4.756   3.923 -1.9933  1.8776  1.0060
  882MOL0     H19070   1.955   4.586   3.890 -0.4779  0.9302 -1.4161
  883MOL0     O19071   9.665   7.925  10.275  1.2426 -0.2714  0.5443
  883MOL0     C19072   9.562   7.984  10.228 -0.4767  0.0272 -0.2057
  883MOL0     O19073   9.444   7.924  10.193  0.1551 -0.4366 -0.1704
  883MOL0     C19074   9.451   7.801  10.129 -0.1203 -0.0531  0.3762
  883MOL0     C19075   9.341   7.719  10.120  0.6217 -0.4450 -0.3750
  883MOL0     C19076   9.339   7.601  10.062  0.3069  0.0738 -0.8872
  883MOL0     C19077   9.451   7.557   9.995 -1.1334 -0.0296  0.8364
  883MOL0     O19078   9.467   7.439   9.920  0.2769 -0.0357  0.0292
  883MOL0     C19079   9.358   7.386   9.842  0.6362  0.1293  0.2804
  883MOL0     C19080   9.365   7.431   9.690 -0.2668  0.2799 -0.4685
  883MOL0     C19081   9.262   7.375   9.588 -0.2432 -0.4140 -0.1805
  883MOL0     C19082   9.256   7.461   9.467  0.7089 -0.3905  0.8746
  883MOL0     C19083   9.196   7.378   9.351 -0.3887  0.2708 -1.0170
  883MOL0     C19084   9.176   7.454   9.219 -0.5355  0.4046  0.1150
  883MOL0     C19085   9.125   7.369   9.100  0.4592 -0.3214 -0.2597
  883MOL0     C19086   9.229   7.294   9.022  0.3194 -0.5447  0.3430
  883MOL0     N19087   9.208   7.147   9.010  0.3302 -0.8945 -0.2404
  883MOL0     C19088   9.141   7.090   8.899  0.0400 -0.7301  0.2957
  883MOL0     C19089   9.131   6.957   8.925 -0.4620 -0.8351  1.1378
  883MOL0     C19090   9.064   6.856   8.842 -0.6710  1.1145 -0.1527
  883MOL0     C19091   9.020   6.905   8.695 -0.3657  1.0567 -0.2018
  883MOL0     C19092   8.943   6.795   8.619  0.4493  0.1095 -0.5565
  883MOL0     C19093   8.870   6.841   8.489  0.3529 -0.6919  0.1703
  883MOL0     O19094   8.730   6.870   8.508  0.3648 -0.6792  0.0636
  883MOL0     C19095   8.667   6.929   8.402  0.0581  0.6762 -0.1184
  883MOL0     C19096   8.520   6.932   8.416 -0.0171 -0.1545  0.3366
  883MOL0     C19097   8.442   6.970   8.311 -0.6673 -0.1637 -0.0148
  883MOL0     C19098   8.497   7.026   8.199  0.6497 -0.1519  0.3188
  883MOL0     C19099   8.399   7.088   8.108 -0.5925  0.5216  0.7183
  883MOL0     O19100   8.259   7.087   8.139  0.4667  0.3557  0.4047
  883MOL0     C19101   8.160   7.135   8.055 -0.1230 -0.1086 -0.0313
  883MOL0     C19102   8.043   7.188   8.115  0.0045  0.3447  1.0722
  883MOL0     C19103   7.945   7.233   8.034  0.1768  0.5501 -0.4771
  883MOL0     C19104   7.952   7.236   7.891  0.2313  0.4273  0.1434
  883MOL0     O19105   7.847   7.281   7.822 -0.3030  0.0539  0.4258
  883MOL0     C19106   7.718   7.227   7.829  0.0598  0.4738  0.4930
  883MOL0     C19107   7.621   7.330   7.758  1.0009  0.0194 -0.1315
  883MOL0     C19108   7.468   7.278   7.739 -0.3459  0.7904  0.2062
  883MOL0     C19109   7.412   7.187   7.850  0.2247 -1.0618  0.2933
  883MOL0     C19110   7.262   7.167   7.829 -0.5271  0.5078  0.2606
  883MOL0     C19111   7.214   7.122   7.684  0.3877  0.2641 -0.3634
  883MOL0     C19112   7.067   7.082   7.685  0.1877 -0.6802 -0.5661
  883MOL0     C19113   6.962   7.195   7.702 -0.3760 -0.2541  0.0579
  883MOL0    Cl19114   6.808   7.135   7.628  0.2380  0.3449  0.0106
  883MOL0     C19115   8.067   7.176   7.839 -0.0162  0.3920 -0.1714
  883MOL0     C19116   8.170   7.126   7.916 -1.4394 -0.9263 -1.2673
  883MOL0     O19117   8.447   7.147   8.016  0.0243  0.2264  0.1088
  883MOL0     C19118   8.629   7.040   8.188  0.2795  0.5311  1.1197
  883MOL0     C19119   8.722   6.987   8.275  0.2210 -0.2017 -0.0825
  883MOL0     N19120   9.202   6.934   9.040 -0.1836 -0.8145 -0.5279
  883MOL0     N19121   9.234   7.046   9.094 -0.1912 -0.3213 -0.1221
  883MOL0     C19122   9.562   7.640   9.992 -0.4757 -0.6084  0.0744
  883MOL0     C19123   9.560   7.766  10.046  0.3781 -0.3328 -0.0950
  883MOL0     C19124   9.567   8.134  10.231 -0.0410 -0.1117 -0.3100
  883MOL0     C19125   9.688   8.202  10.245 -0.9994 -0.0715 -0.6011
  883MOL0     C19126   9.703   8.339  10.251 -0.2935 -0.2744  0.6994
  883MOL0     C19127   9.592   8.420  10.223 -0.5833  1.6561 -0.1090
  883MOL0     O19128   9.597   8.557  10.222  0.2135 -0.0399 -0.4523
  883MOL0     C19129   9.697   8.618  10.306 -0.3058  0.1476  0.5455
  883MOL0     C19130   9.657   8.763  10.340  0.7088 -0.6239  0.3693
  883MOL0     C19131   9.675   8.859  10.223 -0.9821  0.3695 -0.1446
  883MOL0     C19132   9.555   8.954  10.200  0.4550  0.2003 -0.0787
  883MOL0     C19133   9.594   9.074  10.124  0.3464  0.8648 -0.4116
  883MOL0     C19134   9.638   9.181  10.078  0.2424 -0.6361  0.1055
  883MOL0     C19135   9.469   8.359  10.190 -0.0781  0.3604  0.3405
  883MOL0     C19136   9.462   8.220  10.198  1.2743 -0.3067 -0.1841
  883MOL0     C19137   9.325   8.170  10.165  0.5689 -0.8321 -0.0026
  883MOL0     H19138   9.251   7.757  10.166  0.6984 -0.6563 -0.0507
  883MOL0     H19139   9.251   7.538  10.059 -1.2488  2.1720 -1.6888
  883MOL0     H19140   9.355   7.277   9.852  2.4917  0.0772  0.6241
  883MOL0     H19141   9.255   7.403   9.875 -0.5771 -0.7206 -2.6959
  883MOL0     H19142   9.467   7.418   9.652 -0.6748  1.7052 -2.1850
  883MOL0     H19143   9.347   7.537   9.708 -1.9896 -0.4400  2.6500
  883MOL0     H19144   9.166   7.374   9.639  0.3048  0.1993  0.9119
  883MOL0     H19145   9.292   7.275   9.557 -1.5236 -0.3283 -1.8619
  883MOL0     H19146   9.196   7.551   9.485 -2.4422 -2.4974  1.7472
  883MOL0     H19147   9.360   7.488   9.449 -0.0155  1.3449 -1.0088
  883MOL0     H19148   9.267   7.295   9.339 -1.4132 -0.9553  0.8867
  883MOL0     H19149   9.108   7.325   9.388 -0.7573  0.4596 -1.6079
  883MOL0     H19150   9.113   7.542   9.238 -0.4071  0.4729  0.2257
  883MOL0     H19151   9.273   7.500   9.196  0.4914 -0.7679  1.9004
  883MOL0     H19152   9.082   7.445   9.035 -1.3785  1.6433  2.9469
  883MOL0     H19153   9.045   7.300   9.130  3.2273 -3.0232  1.6070
  883MOL0     H19154   9.224   7.348   8.927  2.0089  1.2944  1.2278
  883MOL0     H19155   9.333   7.302   9.058  0.4893  1.0027 -0.4352
  883MOL0     H19156   9.110   7.148   8.812  0.6269 -1.2454 -0.2666
  883MOL0     H19157   9.118   6.763   8.825 -3.0164 -0.4729  0.6078
  883MOL0     H19158   8.972   6.826   8.895  0.9351  2.5110  3.8542
  883MOL0     H19159   8.938   6.976   8.705 -2.1763 -1.0815  1.0027
  883MOL0     H19160   9.098   6.935   8.625 -0.0995  0.6824 -0.0700
  883MOL0     H19161   8.870   6.737   8.677  0.1290  0.8364 -0.2121
  883MOL0     H19162   9.018   6.719   8.595  1.7961  0.2753  2.5864
  883MOL0     H19163   8.872   6.756   8.420 -1.3871 -0.2075 -0.5412
  883MOL0     H19164   8.924   6.919   8.435  1.9380 -1.4811  0.5716
  883MOL0     H19165   8.472   6.901   8.508  1.4620 -0.5701  0.9907
  883MOL0     H19166   8.338   6.965   8.340 -0.2982 -1.0190  1.2981
  883MOL0     H19167   8.034   7.199   8.223  1.7280 -1.2824  1.4552
  883MOL0     H19168   7.856   7.273   8.083  0.4155 -0.5838  0.9532
  883MOL0     H19169   7.706   7.133   7.773  2.8441 -0.1406  0.8223
  883MOL0     H19170   7.682   7.209   7.931 -0.7814 -0.2141  0.0950
  883MOL0     H19171   7.606   7.424   7.811 -2.3650 -0.3048 -0.2844
  883MOL0     H19172   7.663   7.361   7.662  0.0471 -2.7875 -1.5865
  883MOL0     H19173   7.400   7.363   7.735 -0.9052  0.3557  0.4658
  883MOL0     H19174   7.458   7.233   7.640  2.0665  0.3180  0.0990
  883MOL0     H19175   7.428   7.246   7.941 -0.8895  0.0087 -0.1880
  883MOL0     H19176   7.462   7.090   7.863 -1.9323 -2.1860  0.7533
  883MOL0     H19177   7.207   7.260   7.841  1.1717  2.1714 -3.4444
  883MOL0     H19178   7.221   7.095   7.901 -0.6853 -0.4552 -0.7712
  883MOL0     H19179   7.235   7.201   7.612 -0.5318  2.0480  1.2553
  883MOL0     H19180   7.268   7.031   7.657  1.0726  0.7694 -0.7265
  883MOL0     H19181   7.050   7.006   7.762 -1.1523 -2.2515 -2.3241
  883MOL0     H19182   7.044   7.031   7.591  1.8347 -1.2730 -0.6907
  883MOL0     H19183   6.952   7.228   7.806  0.7098  0.9692 -0.1912
  883MOL0     H19184   7.004   7.284   7.654 -0.7817  0.4451  0.9634
  883MOL0     H19185   8.081   7.150   7.734  1.1619  0.1519  0.0330
  883MOL0     H19186   8.259   7.080   7.876  1.0500  1.4689  1.0996
  883MOL0     H19187   8.664   7.073   8.091 -1.7618 -1.8976 -0.5659
  883MOL0     H19188   8.826   6.997   8.247  0.2569 -0.7522 -0.1573
  883MOL0     H19189   9.654   7.610   9.942 -0.4867 -2.8598  1.2407
  883MOL0     H19190   9.650   7.826  10.046  0.1555  0.0438 -1.4763
  883MOL0     H19191   9.780   8.154  10.276 -1.0430  2.0203  3.4485
  883MOL0     H19192   9.805   8.375  10.265 -1.0314  1.1750  2.7488
  883MOL0     H19193   9.796   8.605  10.260 -0.7377 -0.6847 -0.1886
  883MOL0     H19194   9.708   8.569  10.403  1.3751  0.5400  0.5943
  883MOL0     H19195   9.716   8.810  10.419 -1.4457  2.0314  0.5659
  883MOL0     H19196   9.557   8.763  10.385  1.1760 -0.2240  1.4548
  883MOL0     H19197   9.694   8.798  10.135  0.0338 -0.4558  0.6270
  883MOL0     H19198   9.766   8.919  10.237 -1.8378  1.5023  0.9016
  883MOL0     H19199   9.484   8.912  10.129  0.2608 -0.5809  0.5562
  883MOL0     H19200   9.496   8.981  10.288 -0.9925 -1.7963 -0.3610
  883MOL0     H19201   9.676   9.275  10.043  2.9065 -1.4575  0.5594
  883MOL0     H19202   9.392   8.431  10.162 -1.0800 -0.5821  0.6265
  883MOL0     H19203   9.252   8.250  10.146  2.0720  0.3784 -0.9103
  883MOL0     H19204   9.336   8.108  10.076  0.2375  0.6056 -1.0943
  883MOL0     H19205   9.292   8.122  10.257  1.1840 -0.0676  0.6344
  884MOL0     O19206   7.189   9.085   8.983 -0.2788  0.3049 -0.1328
  884MOL0     C19207   7.179   9.148   9.085  0.0819 -0.0210 -0.0634
  884MOL0     O19208   7.276   9.224   9.144 -0.1961 -0.1401 -0.2616
  884MOL0     C19209   7.383   9.260   9.066  0.4205 -0.6670 -0.7925
  884MOL0     C19210   7.499   9.191   9.056 -0.2267 -0.2543 -0.3310
  884MOL0     C19211   7.610   9.230   8.987  0.4329 -0.1026  0.3513
  884MOL0     C19212   7.599   9.335   8.899 -0.6895 -0.0344 -0.9196
  884MOL0     O19213   7.709   9.360   8.827  1.2547  0.1402  0.8582
  884MOL0     C19214   7.692   9.464   8.721 -0.1077  0.2401 -0.0615
  884MOL0     C19215   7.819   9.499   8.649 -0.8464  1.1591 -0.3180
  884MOL0     C19216   7.913   9.592   8.739 -0.8507  0.0046  0.5071
  884MOL0     C19217   8.057   9.587   8.674 -1.0716  0.2049 -0.5545
  884MOL0     C19218   8.130   9.708   8.713  0.0473 -0.3658  0.0742
  884MOL0     C19219   8.275   9.705   8.680 -1.5977  0.0542 -0.1385
  884MOL0     C19220   8.338   9.841   8.720  0.9320  0.3051 -0.1717
  884MOL0     C19221   8.485   9.852   8.709  0.7872 -0.2874 -0.7786
  884MOL0     N19222   8.528   9.980   8.771 -0.7875 -0.2238 -0.0083
  884MOL0     C19223   8.618  10.068   8.716 -0.1067  0.0152  0.8801
  884MOL0     C19224   8.634  10.170   8.801 -0.1696 -0.3890  0.6053
  884MOL0     C19225   8.749  10.267   8.788 -0.3252 -0.0452 -0.3024
  884MOL0     C19226   8.883  10.211   8.749  0.6673  0.4799 -0.2613
  884MOL0     C19227   8.954  10.155   8.870  0.1663  0.9285  0.4186
  884MOL0     C19228   9.011  10.271   8.956  0.5282 -0.0594 -0.3510
  884MOL0     O19229   9.044  10.228   9.083 -0.4372 -0.9145  0.3934
  884MOL0     C19230   9.110  10.323   9.160 -0.5920  0.3790 -0.5458
  884MOL0     C19231   9.055  10.432   9.228  0.2687  0.1819 -0.5064
  884MOL0     C19232   9.131  10.516   9.312 -0.2459 -0.3346 -0.7043
  884MOL0     C19233   9.273  10.494   9.341  0.6609 -0.2247 -0.3773
  884MOL0     C19234   9.349  10.585   9.433  0.6685  0.2158  0.5409
  884MOL0     O19235   9.303  10.712   9.474 -0.1599 -0.1769  0.3330
  884MOL0     C19236   9.372  10.794   9.562 -0.3129 -0.2769  0.7522
  884MOL0     C19237   9.286  10.874   9.644 -0.7258 -0.3226 -1.2258
  884MOL0     C19238   9.347  10.974   9.719  0.1700 -1.0355  0.3373
  884MOL0     C19239   9.482  10.992   9.719 -0.6214  0.2568 -0.0378
  884MOL0     O19240   9.556  11.084   9.787  0.3880 -0.0831  0.4947
  884MOL0     C19241   9.481  11.155   9.888 -1.0449 -0.0616 -0.1603
  884MOL0     C19242   9.582  11.244   9.954  0.2773  0.1991  0.4880
  884MOL0     C19243   9.519  11.314  10.069  0.6801  0.0741  0.0786
  884MOL0     C19244   9.617  11.407  10.143 -0.5807 -0.2409 -0.0995
  884MOL0     C19245   9.551  11.474  10.271 -0.8847 -0.2236  0.5494
  884MOL0     C19246   9.637  11.584  10.340  0.6432  0.8371 -0.1530
  884MOL0     C19247   9.559  11.678  10.426  0.1730  0.4377 -0.7225
  884MOL0     C19248   9.649  11.782  10.476 -1.0851  0.2391  0.1982
  884MOL0    Cl19249   9.783  11.705  10.573 -0.1644 -0.1829 -0.0407
  884MOL0     C19250   9.564  10.914   9.634 -0.2717  0.4117 -0.6040
  884MOL0     C19251   9.509  10.814   9.552  0.0985 -0.0880 -0.8495
  884MOL0     O19252   9.466  10.546   9.446  0.3185 -0.5705  0.7103
  884MOL0     C19253   9.318  10.372   9.284 -0.1809  0.6588 -0.1257
  884MOL0     C19254   9.243  10.289   9.201  0.0703  0.1716 -0.0146
  884MOL0     N19255   8.557  10.148   8.914 -0.6346 -0.6045  0.4441
  884MOL0     N19256   8.487  10.036   8.894 -0.0393  0.0749  0.8208
  884MOL0     C19257   7.475   9.410   8.901 -0.1711  0.5073  0.4072
  884MOL0     C19258   7.366   9.374   8.987 -0.0993  0.3921 -0.3206
  884MOL0     C19259   7.053   9.142   9.165 -0.0462 -0.7910 -0.0283
  884MOL0     C19260   7.041   9.214   9.290 -0.4037 -0.5456 -0.5199
  884MOL0     C19261   6.921   9.213   9.368 -0.2687 -0.5703  0.5292
  884MOL0     C19262   6.811   9.139   9.324  1.0507 -0.1546 -0.0005
  884MOL0     O19263   6.688   9.113   9.391 -0.1725  0.7193 -0.5833
  884MOL0     C19264   6.667   9.185   9.513  0.3137  0.2529  0.4493
  884MOL0     C19265   6.516   9.165   9.547  0.9560 -0.1358 -0.6366
  884MOL0     C19266   6.442   9.245   9.443 -0.0558  0.0196 -0.7683
  884MOL0     C19267   6.287   9.245   9.459 -0.0152  0.3443  0.3233
  884MOL0     C19268   6.256   9.310   9.589 -0.1398 -0.0625  0.2780
  884MOL0     C19269   6.228   9.341   9.701 -0.1673 -0.5335  0.9613
  884MOL0     C19270   6.821   9.080   9.196 -0.2285  0.2368  0.6860
  884MOL0     C19271   6.935   9.079   9.113 -0.2470  0.1354 -0.8546
  884MOL0     C19272   6.918   9.025   8.969 -0.7940 -0.4708 -0.7742
  884MOL0     H19273   7.503   9.094   9.104  1.5078  0.6524  1.5432
  884MOL0     H19274   7.694   9.161   8.981 -1.7911 -2.9828 -0.2081
  884MOL0     H19275   7.615   9.434   8.650 -0.6267  1.2752  0.0445
  884MOL0     H19276   7.653   9.551   8.774  3.7595  2.5647 -0.6231
  884MOL0     H19277   7.798   9.560   8.560 -0.2502  0.9755 -0.5946
  884MOL0     H19278   7.882   9.418   8.612  3.8304  4.7991 -1.3483
  884MOL0     H19279   7.912   9.539   8.834 -2.7861  2.3637  1.9212
  884MOL0     H19280   7.878   9.696   8.744 -0.4568  0.0716  2.6164
  884MOL0     H19281   8.102   9.503   8.727 -1.4908  1.1508  1.3983
  884MOL0     H19282   8.040   9.562   8.569 -2.1074 -0.0368 -0.3425
  884MOL0     H19283   8.090   9.789   8.652  0.1254 -0.1169  0.3511
  884MOL0     H19284   8.118   9.737   8.818 -0.9910  3.3854 -0.9196
  884MOL0     H19285   8.319   9.617   8.728 -0.3340  0.5230 -0.4147
  884MOL0     H19286   8.289   9.693   8.573 -1.0979 -1.5968  0.0865
  884MOL0     H19287   8.308   9.867   8.822 -2.3881  2.9022 -1.6139
  884MOL0     H19288   8.280   9.907   8.655 -2.4336 -1.7439  0.4633
  884MOL0     H19289   8.530   9.766   8.759  2.0808  1.8991  2.1351
  884MOL0     H19290   8.513   9.832   8.605  0.5951 -1.8128 -0.5618
  884MOL0     H19291   8.685  10.039   8.636 -1.5396 -3.1703  0.6829
  884MOL0     H19292   8.729  10.342   8.711  0.3840 -0.1768 -0.6170
  884MOL0     H19293   8.760  10.318   8.884  1.5654 -0.5695 -0.1975
  884MOL0     H19294   8.869  10.130   8.678 -0.0546 -0.1540  0.5908
  884MOL0     H19295   8.944  10.294   8.711  0.2911  2.3380  2.8100
  884MOL0     H19296   9.027  10.086   8.827  0.1779 -0.0771  1.9721
  884MOL0     H19297   8.872  10.098   8.914  0.7150 -0.9771 -0.9228
  884MOL0     H19298   8.939  10.353   8.962  1.2838  0.5505  4.6871
  884MOL0     H19299   9.092  10.322   8.904  1.3247  1.2267  2.0034
  884MOL0     H19300   8.961  10.474   9.194 -0.1980  1.5393  2.1642
  884MOL0     H19301   9.087  10.610   9.344  2.2878  1.0783 -1.0946
  884MOL0     H19302   9.179  10.866   9.658 -0.4535  1.3328  3.4035
  884MOL0     H19303   9.279  11.028   9.784 -2.3498 -0.6705 -2.3742
  884MOL0     H19304   9.396  11.209   9.847  1.4113  2.8192 -1.9268
  884MOL0     H19305   9.441  11.073   9.949  4.1346 -2.5506  0.4943
  884MOL0     H19306   9.673  11.192   9.985 -0.2399  0.4094  2.4857
  884MOL0     H19307   9.614  11.321   9.883  4.8985 -1.5326  0.3320
  884MOL0     H19308   9.438  11.378  10.034 -0.7804  1.1426  4.7308
  884MOL0     H19309   9.486  11.247  10.149  0.8202 -1.3745 -1.0332
  884MOL0     H19310   9.643  11.493  10.080  3.8335 -0.1911  1.4061
  884MOL0     H19311   9.708  11.350  10.164 -0.7501 -1.5769 -2.6768
  884MOL0     H19312   9.542  11.397  10.348 -0.2370 -0.8888 -0.0241
  884MOL0     H19313   9.452  11.513  10.245 -0.6713 -0.5538 -0.8128
  884MOL0     H19314   9.696  11.519  10.406 -1.6690 -1.2143  0.0396
  884MOL0     H19315   9.704  11.636  10.270 -1.0856  1.1354 -1.6652
  884MOL0     H19316   9.515  11.623  10.509 -2.0265 -0.2465 -2.2655
  884MOL0     H19317   9.480  11.732  10.373 -0.3677  2.2838  1.7756
  884MOL0     H19318   9.691  11.831  10.387 -0.9583 -3.1815 -1.7709
  884MOL0     H19319   9.592  11.862  10.525 -0.1543  1.8718 -1.2327
  884MOL0     H19320   9.671  10.932   9.632 -0.3256  0.8287  0.1565
  884MOL0     H19321   9.571  10.763   9.480  0.9847  0.4083 -0.4613
  884MOL0     H19322   9.415  10.341   9.321 -0.0490  0.0920 -0.9333
  884MOL0     H19323   9.298  10.199   9.175  0.9776 -0.6134  3.9424
  884MOL0     H19324   7.457   9.508   8.856  0.8274  0.6816  0.3563
  884MOL0     H19325   7.276   9.434   8.998  0.9014  1.7723  0.7005
  884MOL0     H19326   7.128   9.261   9.334 -1.0536 -0.2338  0.4658
  884MOL0     H19327   6.930   9.264   9.463 -0.4056 -1.1079  0.8395
  884MOL0     H19328   6.698   9.289   9.503 -2.4940  1.8454  5.1526
  884MOL0     H19329   6.729   9.143   9.593  1.1915  1.0354  0.1987
  884MOL0     H19330   6.485   9.188   9.650 -1.6835 -0.9151 -1.1759
  884MOL0     H19331   6.487   9.061   9.534 -0.1377 -0.3409  2.4933
  884MOL0     H19332   6.469   9.206   9.344  0.4447 -0.4846 -0.4413
  884MOL0     H19333   6.480   9.347   9.452  3.1689 -0.8342 -2.9061
  884MOL0     H19334   6.249   9.303   9.375  1.5527  1.4729  0.3416
  884MOL0     H19335   6.245   9.144   9.458 -1.6567  0.9554 -2.4337
  884MOL0     H19336   6.205   9.373   9.801  1.3260 -0.9245  1.4453
  884MOL0     H19337   6.728   9.037   9.162 -0.0359  2.0358 -2.6340
  884MOL0     H19338   6.820   8.975   8.966 -2.1941  1.9384  0.9947
  884MOL0     H19339   6.905   9.103   8.894  1.9960 -0.7662 -1.6615
  884MOL0     H19340   6.996   8.959   8.929  0.0422  1.1120 -1.8336
  885MOL0     O19341   1.978   8.815   8.076  0.3264  0.1025 -0.1693
  885MOL0     C19342   2.032   8.892   7.999 -0.0581 -0.2278  0.0475
  885MOL0     O19343   1.971   9.008   7.941  0.2078  0.5291 -0.0905
  885MOL0     C19344   1.856   9.050   8.011 -0.1664 -0.8063  0.1093
  885MOL0     C19345   1.875   9.142   8.112  0.0456 -0.0021 -0.9164
  885MOL0     C19346   1.766   9.188   8.182  1.2196 -0.2624 -0.6875
  885MOL0     C19347   1.638   9.146   8.158  0.0337  1.2270 -0.1301
  885MOL0     O19348   1.523   9.170   8.226  0.1061 -0.4313 -0.2039
  885MOL0     C19349   1.523   9.240   8.339 -0.1565 -0.1161 -0.1032
  885MOL0     C19350   1.383   9.257   8.392  0.6026  0.7845 -0.1828
  885MOL0     C19351   1.304   9.130   8.424  0.4082  0.0711  0.0608
  885MOL0     C19352   1.178   9.160   8.499  0.7433 -0.0071 -0.3262
  885MOL0     C19353   1.189   9.183   8.643  0.9582  0.4952  0.3178
  885MOL0     C19354   1.068   9.237   8.702  0.5383  0.0057 -0.8195
  885MOL0     C19355   1.096   9.273   8.855 -0.1781 -0.1142  0.5238
  885MOL0     C19356   0.969   9.341   8.904 -0.8010 -0.1340 -0.3956
  885MOL0     N19357   1.007   9.389   9.035 -0.2382 -0.2441 -1.1329
  885MOL0     C19358   0.982   9.322   9.156 -0.4790 -0.5249 -0.1939
  885MOL0     C19359   1.010   9.415   9.252  0.3154  0.7923  0.6227
  885MOL0     C19360   1.006   9.397   9.408 -0.0188  0.1706  0.3267
  885MOL0     C19361   0.861   9.403   9.456 -0.2395  0.0208 -0.0083
  885MOL0     C19362   0.795   9.540   9.423  0.1903  0.0514  0.7904
  885MOL0     C19363   0.638   9.527   9.422  0.2306  0.6911  0.6979
  885MOL0     O19364   0.579   9.435   9.326 -0.6896  0.0887  0.0382
  885MOL0     C19365   0.452   9.381   9.343  0.5208 -0.6232  0.5976
  885MOL0     C19366   0.376   9.386   9.459 -0.0446 -0.6774  0.0115
  885MOL0     C19367   0.253   9.325   9.474  0.8565  0.6183  0.1534
  885MOL0     C19368   0.204   9.244   9.362 -0.6140  0.4416  0.3533
  885MOL0     C19369   0.077   9.178   9.373 -0.2892  1.2300  0.2805
  885MOL0     O19370   0.007   9.174   9.489 -0.1507 -0.8851 -0.2923
  885MOL0     C19371  -0.117   9.120   9.489  0.4374 -0.1135 -0.0263
  885MOL0     C19372  -0.214   9.216   9.501  0.0036  0.5906 -0.1104
  885MOL0     C19373  -0.350   9.175   9.523  0.0572  0.1480  0.4948
  885MOL0     C19374  -0.383   9.034   9.522  0.4951  0.6193  0.0013
  885MOL0     O19375  -0.509   8.983   9.541  0.2693  0.0601 -0.2657
  885MOL0     C19376  -0.613   9.076   9.580  0.0628  0.0747 -0.3072
  885MOL0     C19377  -0.740   9.001   9.563  0.0934  0.4706  0.6647
  885MOL0     C19378  -0.856   9.088   9.611  0.2055  0.6124  0.6097
  885MOL0     C19379  -0.862   9.096   9.768  0.0456  0.3494  0.0763
  885MOL0     C19380  -0.946   8.986   9.824  0.3575  0.5498  0.4932
  885MOL0     C19381  -0.957   9.004   9.981 -0.2811  0.1618  0.4574
  885MOL0     C19382  -1.044   9.122  10.018 -0.7758 -0.3719  0.6201
  885MOL0     C19383  -1.030   9.149  10.167  0.5057 -0.6403 -0.1032
  885MOL0    Cl19384  -1.116   9.298  10.207  0.5360  0.3706  0.0475
  885MOL0     C19385  -0.281   8.936   9.519 -0.3014 -0.1865 -0.2217
  885MOL0     C19386  -0.148   8.984   9.495  0.2235 -1.1245  0.4361
  885MOL0     O19387   0.030   9.129   9.270 -0.3729  0.3161 -0.9340
  885MOL0     C19388   0.286   9.229   9.248 -0.1162 -0.2808 -0.5324
  885MOL0     C19389   0.401   9.303   9.234  0.5887  0.6560 -0.3367
  885MOL0     N19390   1.055   9.530   9.186  0.4239 -0.3885  0.3103
  885MOL0     N19391   1.056   9.515   9.056 -0.0669  0.6426 -0.8431
  885MOL0     C19392   1.621   9.057   8.049  0.5047 -0.0107  0.5535
  885MOL0     C19393   1.729   9.008   7.979  0.2727  0.3186  0.7653
  885MOL0     C19394   2.164   8.867   7.945 -0.4368  0.0653  0.5144
  885MOL0     C19395   2.183   8.891   7.803  0.5098 -0.2469 -0.2238
  885MOL0     C19396   2.315   8.864   7.753 -0.1183  0.0929 -0.3268
  885MOL0     C19397   2.412   8.827   7.835 -0.9787 -0.2368 -0.4501
  885MOL0     O19398   2.536   8.803   7.776 -0.2268 -0.5585 -0.0917
  885MOL0     C19399   2.614   8.694   7.836  0.0855  0.3216  0.6563
  885MOL0     C19400   2.543   8.559   7.809 -0.6163 -1.4297 -0.6404
  885MOL0     C19401   2.587   8.424   7.882  0.5917 -0.2428 -0.4239
  885MOL0     C19402   2.575   8.421   8.041 -0.8445  0.5601 -0.8992
  885MOL0     C19403   2.680   8.495   8.109  0.5334  0.5593 -0.3775
  885MOL0     C19404   2.765   8.542   8.179 -0.2997  0.5001 -0.7123
  885MOL0     C19405   2.395   8.817   7.971 -0.4782 -0.4917 -0.1474
  885MOL0     C19406   2.277   8.834   8.028 -0.3090  0.0777 -0.4686
  885MOL0     C19407   2.261   8.836   8.180  0.6114  0.7671  0.0877
  885MOL0     H19408   1.966   9.177   8.158 -0.7935 -2.3183  2.8956
  885MOL0     H19409   1.779   9.254   8.267 -0.2957  2.0266 -2.1269
  885MOL0     H19410   1.585   9.195   8.417 -0.0490  0.9446  0.4371
  885MOL0     H19411   1.569   9.334   8.307  0.1480  0.9413  3.0845
  885MOL0     H19412   1.333   9.323   8.321 -1.7195  0.9690  1.5489
  885MOL0     H19413   1.393   9.307   8.488  2.1157  2.0667 -0.9528
  885MOL0     H19414   1.362   9.051   8.474  0.6598  0.8393  1.0040
  885MOL0     H19415   1.274   9.091   8.327  0.8903  0.8282 -0.3963
  885MOL0     H19416   1.132   9.242   8.443  1.4754  0.7187  0.1016
  885MOL0     H19417   1.111   9.075   8.489 -0.9945  1.4394 -1.6774
  885MOL0     H19418   1.209   9.085   8.689 -0.2748 -0.2013 -0.5525
  885MOL0     H19419   1.271   9.248   8.673 -1.2358  1.7124  4.4337
  885MOL0     H19420   1.045   9.332   8.654  1.4794  0.0482 -1.2230
  885MOL0     H19421   0.986   9.165   8.693  1.3764 -1.1194  0.1944
  885MOL0     H19422   1.183   9.338   8.869  1.1763 -1.2248 -2.1351
  885MOL0     H19423   1.101   9.181   8.915 -0.0137  0.2373  1.0620
  885MOL0     H19424   0.931   9.419   8.838  0.0191 -0.1454 -0.9000
  885MOL0     H19425   0.887   9.271   8.886 -2.0539  1.5148 -1.3917
  885MOL0     H19426   0.956   9.220   9.183 -1.2463  0.3094  2.6276
  885MOL0     H19427   1.039   9.294   9.424 -3.4884 -1.5065 -2.1201
  885MOL0     H19428   1.049   9.477   9.469 -1.6729  1.1217  0.3176
  885MOL0     H19429   0.816   9.320   9.401  0.1909 -1.2859  1.5357
  885MOL0     H19430   0.848   9.394   9.564  3.1357  1.0329  0.6131
  885MOL0     H19431   0.835   9.587   9.333 -0.7452  1.7536  1.2242
  885MOL0     H19432   0.814   9.610   9.505  2.6252  1.0447 -0.5227
  885MOL0     H19433   0.580   9.619   9.428 -2.3365 -0.8573  1.4748
  885MOL0     H19434   0.614   9.484   9.520 -1.5097  1.1559  0.4919
  885MOL0     H19435   0.417   9.437   9.545  2.1644 -1.9043 -0.2438
  885MOL0     H19436   0.193   9.327   9.564  0.8460 -3.7460  0.4817
  885MOL0     H19437  -0.192   9.322   9.506 -1.8328  0.9394  2.3411
  885MOL0     H19438  -0.422   9.253   9.545 -0.1272 -0.3421  1.6800
  885MOL0     H19439  -0.602   9.092   9.687  1.3231  1.4296 -0.6163
  885MOL0     H19440  -0.613   9.173   9.529  2.4948  0.6109  0.6134
  885MOL0     H19441  -0.758   8.973   9.459 -3.2603 -1.4842  1.5941
  885MOL0     H19442  -0.726   8.903   9.609  1.9034 -0.7863 -2.2860
  885MOL0     H19443  -0.837   9.187   9.567  0.5289  0.3776  0.2169
  885MOL0     H19444  -0.952   9.051   9.576 -0.3010 -0.6340  3.0697
  885MOL0     H19445  -0.895   9.196   9.797 -1.9877 -0.8709  2.4216
  885MOL0     H19446  -0.763   9.079   9.812 -1.0103 -0.8060  2.1717
  885MOL0     H19447  -0.900   8.895   9.786 -1.3845  0.4441 -1.5199
  885MOL0     H19448  -1.049   8.995   9.788 -0.0232  0.2483  1.4752
  885MOL0     H19449  -0.985   8.905  10.019  0.2489 -0.6871 -1.2448
  885MOL0     H19450  -0.851   9.020  10.005  0.0998  0.5980 -1.3643
  885MOL0     H19451  -1.152   9.114  10.004 -0.8580 -1.3565  1.6404
  885MOL0     H19452  -1.018   9.214   9.966 -2.9987 -0.6025 -1.0600
  885MOL0     H19453  -1.056   9.063  10.229 -0.4810 -0.9232 -0.8858
  885MOL0     H19454  -0.923   9.159  10.188  0.4795 -2.1400  0.8315
  885MOL0     H19455  -0.317   8.833   9.516 -0.4638 -0.1321 -2.9206
  885MOL0     H19456  -0.067   8.912   9.486  0.8644 -0.2492 -6.7003
  885MOL0     H19457   0.249   9.156   9.177 -3.7988  0.6345  0.2320
  885MOL0     H19458   0.446   9.273   9.139  1.2960 -3.0020  0.9729
  885MOL0     H19459   1.516   9.035   8.032 -0.3789  0.8903  3.9676
  885MOL0     H19460   1.710   8.934   7.901  1.0823  1.4088 -0.5118
  885MOL0     H19461   2.101   8.921   7.738  0.4240 -1.8746 -0.9073
  885MOL0     H19462   2.325   8.859   7.645  0.4427  1.7759 -0.3650
  885MOL0     H19463   2.637   8.712   7.941  2.8218  2.7714 -0.2465
  885MOL0     H19464   2.718   8.687   7.803 -0.0143  1.3616  0.1034
  885MOL0     H19465   2.546   8.543   7.701  1.1324 -1.4630 -0.6189
  885MOL0     H19466   2.438   8.585   7.821 -0.3022  0.8898 -2.3263
  885MOL0     H19467   2.689   8.394   7.856  0.9767 -0.1807  0.9443
  885MOL0     H19468   2.534   8.339   7.837  1.1961 -1.2248  0.6595
  885MOL0     H19469   2.475   8.453   8.071 -0.4904 -1.0729  2.5379
  885MOL0     H19470   2.584   8.313   8.062  1.5417  0.4409 -2.1675
  885MOL0     H19471   2.844   8.578   8.242 -1.2049  1.5388 -0.1413
  885MOL0     H19472   2.488   8.819   8.027 -0.0253 -1.9860 -0.8039
  885MOL0     H19473   2.176   8.774   8.211  1.9493 -0.9879  0.4079
  885MOL0     H19474   2.342   8.780   8.227  1.0175  0.6256 -0.7591
  885MOL0     H19475   2.259   8.942   8.207  5.3104  0.7281  1.4588
  886MOL0     O19476   0.957   7.439   4.223  0.7206  0.2704  0.2756
  886MOL0     C19477   0.939   7.521   4.320 -1.2386 -0.0418  0.0415
  886MOL0     O19478   1.041   7.608   4.371  0.3575  0.3785  0.0468
  886MOL0     C19479   1.162   7.604   4.315 -0.5308  0.8468  1.0837
  886MOL0     C19480   1.214   7.724   4.265 -0.0144 -0.3742 -0.1917
  886MOL0     C19481   1.337   7.741   4.204 -0.3494 -1.0458 -0.2837
  886MOL0     C19482   1.416   7.624   4.184 -0.0517  0.9370 -0.9249
  886MOL0     O19483   1.542   7.618   4.127 -0.0495  0.1454 -0.0986
  886MOL0     C19484   1.608   7.744   4.100 -0.1417  0.5815 -0.2914
  886MOL0     C19485   1.735   7.730   4.015  0.0989  0.3605  0.4360
  886MOL0     C19486   1.801   7.855   3.966 -1.0721 -0.5995  0.4356
  886MOL0     C19487   1.936   7.819   3.900 -0.3185 -0.4919  0.6737
  886MOL0     C19488   2.000   7.950   3.844  0.7759 -0.6341  0.3739
  886MOL0     C19489   2.142   7.927   3.787 -0.0095 -0.0110 -0.2096
  886MOL0     C19490   2.176   8.049   3.702 -0.3298 -0.5507  0.1508
  886MOL0     C19491   2.327   8.058   3.672 -0.2524 -0.0164  0.4745
  886MOL0     N19492   2.422   8.052   3.788  0.4545 -0.4987  0.2354
  886MOL0     C19493   2.425   8.149   3.885 -0.6979 -0.2693  0.5794
  886MOL0     C19494   2.481   8.090   3.990 -1.1892 -0.4538 -0.3095
  886MOL0     C19495   2.508   8.141   4.128  0.4074  0.1836 -0.1532
  886MOL0     C19496   2.394   8.101   4.208 -0.7494  0.2166 -0.7001
  886MOL0     C19497   2.372   7.945   4.238  0.0880  0.4978  1.0041
  886MOL0     C19498   2.495   7.868   4.296  0.2613 -0.4085  0.3333
  886MOL0     O19499   2.508   7.895   4.439  0.0798  0.3561 -0.1842
  886MOL0     C19500   2.400   7.855   4.517 -0.3552  0.7352 -0.3038
  886MOL0     C19501   2.356   7.727   4.513  0.0098  0.4023 -0.8219
  886MOL0     C19502   2.246   7.684   4.600 -0.8157  0.0183  0.5734
  886MOL0     C19503   2.188   7.769   4.688 -0.1797  0.0520  0.0144
  886MOL0     C19504   2.082   7.725   4.770  0.6526  0.7726 -0.4738
  886MOL0     O19505   2.049   7.593   4.750  0.4537 -0.6095 -0.1465
  886MOL0     C19506   1.930   7.541   4.794 -0.3182 -0.0434  0.2337
  886MOL0     C19507   1.890   7.424   4.724  0.6945 -0.1212 -0.5815
  886MOL0     C19508   1.778   7.344   4.761 -0.5771  0.4481 -0.7283
  886MOL0     C19509   1.695   7.398   4.861 -0.2910  0.9586 -0.0604
  886MOL0     O19510   1.585   7.327   4.884 -0.1997  1.0938  0.3027
  886MOL0     C19511   1.590   7.205   4.956  0.1287 -0.0309 -0.4170
  886MOL0     C19512   1.516   7.204   5.095  0.9942 -0.1416 -0.2945
  886MOL0     C19513   1.365   7.237   5.079  0.0868  0.5297 -0.3870
  886MOL0     C19514   1.280   7.116   5.079  0.1791 -0.5184  0.4928
  886MOL0     C19515   1.228   7.075   5.214 -0.6150  1.1241 -1.2172
  886MOL0     C19516   1.113   7.148   5.273  0.8675  0.0660 -0.5353
  886MOL0     C19517   1.070   7.081   5.404 -0.3007  1.3988 -0.4048
  886MOL0     C19518   1.181   7.014   5.491 -0.3096  0.4038  0.6514
  886MOL0    Cl19519   1.096   6.938   5.621 -0.0866 -0.1596  0.4140
  886MOL0     C19520   1.734   7.508   4.940 -0.1885  0.0434 -0.0840
  886MOL0     C19521   1.849   7.580   4.909 -0.6996  0.2535  0.9488
  886MOL0     O19522   2.017   7.801   4.834 -0.3122  0.6637  0.2330
  886MOL0     C19523   2.230   7.903   4.684  0.3417 -0.3315  0.7887
  886MOL0     C19524   2.331   7.946   4.593 -0.5628 -0.2833  0.1922
  886MOL0     N19525   2.523   7.964   3.948 -0.1917  0.2213 -0.2171
  886MOL0     N19526   2.491   7.946   3.825 -0.0945  0.9854 -0.0769
  886MOL0     C19527   1.363   7.501   4.233  0.3741 -0.6725 -0.3388
  886MOL0     C19528   1.236   7.487   4.292 -0.1784 -0.3192  1.6288
  886MOL0     C19529   0.804   7.536   4.382 -0.1880  0.0230 -0.1446
  886MOL0     C19530   0.788   7.658   4.455  0.2287 -0.4181  0.1591
  886MOL0     C19531   0.677   7.691   4.527 -0.2390 -0.0405  0.6575
  886MOL0     C19532   0.572   7.589   4.526 -0.9709 -0.3257 -0.0975
  886MOL0     O19533   0.471   7.604   4.606  0.8405  0.2809 -0.2404
  886MOL0     C19534   0.495   7.581   4.746  0.0938  0.1750 -1.1245
  886MOL0     C19535   0.492   7.716   4.821 -0.7554  0.6219 -0.5715
  886MOL0     C19536   0.507   7.690   4.979 -0.3077 -0.2013 -0.4521
  886MOL0     C19537   0.397   7.753   5.067 -0.7977  0.3835  0.0614
  886MOL0     C19538   0.420   7.697   5.202 -0.1712 -0.1081  0.1617
  886MOL0     C19539   0.440   7.679   5.321 -0.0032  0.1067  0.5097
  886MOL0     C19540   0.580   7.476   4.446 -0.2399 -0.4462 -0.5597
  886MOL0     C19541   0.694   7.447   4.373  0.0501  0.3561  0.5391
  886MOL0     C19542   0.710   7.320   4.294  0.0170  0.6008 -0.8628
  886MOL0     H19543   1.159   7.817   4.273 -2.0009 -1.6546  2.0052
  886MOL0     H19544   1.373   7.837   4.171  1.9373 -1.3514  1.0938
  886MOL0     H19545   1.541   7.807   4.042  2.3521  1.3527 -2.5752
  886MOL0     H19546   1.628   7.795   4.195  2.4804  0.4251 -0.6750
  886MOL0     H19547   1.718   7.673   3.923  2.2078  0.3076  0.0154
  886MOL0     H19548   1.812   7.682   4.078 -0.2550  2.3815  2.5329
  886MOL0     H19549   1.808   7.928   4.047 -0.5023 -0.8784  0.6431
  886MOL0     H19550   1.734   7.901   3.893 -1.1939  1.0919  1.5447
  886MOL0     H19551   1.998   7.779   3.981 -0.3908 -0.3152  0.8186
  886MOL0     H19552   1.932   7.741   3.825  0.2723  0.6717 -0.6067
  886MOL0     H19553   1.929   8.003   3.780 -0.2008  1.6138  3.0813
  886MOL0     H19554   2.013   8.017   3.930  0.1360 -2.2110  1.7407
  886MOL0     H19555   2.216   7.905   3.865  1.2793 -0.7645 -1.5912
  886MOL0     H19556   2.139   7.837   3.725  0.6285 -0.3439  0.2255
  886MOL0     H19557   2.152   8.139   3.760 -0.5184 -1.7422  1.9996
  886MOL0     H19558   2.117   8.056   3.610 -1.8359 -1.5179  1.0067
  886MOL0     H19559   2.350   7.971   3.610  3.0795 -0.5032  2.1163
  886MOL0     H19560   2.345   8.147   3.611  0.8302  0.9360  2.1179
  886MOL0     H19561   2.370   8.242   3.889  1.8121  1.3437 -0.2748
  886MOL0     H19562   2.605   8.106   4.163  1.0340  2.0495  0.1203
  886MOL0     H19563   2.521   8.249   4.111  1.0302 -0.0568 -1.3799
  886MOL0     H19564   2.411   8.159   4.299 -3.6802 -1.3067  0.9736
  886MOL0     H19565   2.304   8.142   4.161 -0.6448  2.3842  0.8065
  886MOL0     H19566   2.354   7.892   4.143 -2.2072  3.0744 -0.1303
  886MOL0     H19567   2.281   7.938   4.297 -0.4012  0.0896  0.2258
  886MOL0     H19568   2.586   7.898   4.243 -0.7103  2.0669 -0.0473
  886MOL0     H19569   2.471   7.762   4.280 -1.0705  0.1674 -1.9114
  886MOL0     H19570   2.392   7.650   4.446 -1.0350 -0.9952  0.1582
  886MOL0     H19571   2.226   7.577   4.592 -0.4237  0.1010 -2.0561
  886MOL0     H19572   1.949   7.393   4.638  4.0068  0.8127  1.1800
  886MOL0     H19573   1.748   7.250   4.717 -1.8634 -0.3843  1.7262
  886MOL0     H19574   1.541   7.133   4.890  1.8840  0.2058 -2.0750
  886MOL0     H19575   1.693   7.171   4.969  0.9877  1.6990 -2.2230
  886MOL0     H19576   1.530   7.108   5.147 -0.8036 -0.1374  0.2397
  886MOL0     H19577   1.546   7.283   5.165  1.3526 -3.6421  3.9374
  886MOL0     H19578   1.338   7.304   5.162 -1.8533  1.5810 -1.7795
  886MOL0     H19579   1.345   7.283   4.982 -2.7975 -1.9771 -1.1203
  886MOL0     H19580   1.334   7.030   5.036  0.9100  0.2815 -0.2370
  886MOL0     H19581   1.196   7.133   5.011  2.2506  0.3607 -2.0580
  886MOL0     H19582   1.306   7.093   5.288 -1.1007  0.5411 -0.5561
  886MOL0     H19583   1.200   6.970   5.209  1.7924  0.3435  0.1115
  886MOL0     H19584   1.133   7.255   5.281 -0.4567  0.4948 -2.3178
  886MOL0     H19585   1.029   7.142   5.203 -0.2224  3.6331  0.2659
  886MOL0     H19586   1.004   6.999   5.374  2.9818 -1.1954 -1.1221
  886MOL0     H19587   1.014   7.151   5.467 -1.3220 -1.2682  1.8982
  886MOL0     H19588   1.254   6.950   5.440 -0.5476  2.3286 -2.3170
  886MOL0     H19589   1.240   7.093   5.538  1.9472  1.3589 -3.3353
  886MOL0     H19590   1.662   7.531   5.018 -1.7430 -2.9597 -0.4645
  886MOL0     H19591   1.888   7.658   4.974 -1.7040  1.6662 -0.0529
  886MOL0     H19592   2.183   7.970   4.756 -0.4964 -0.0745  0.0249
  886MOL0     H19593   2.370   8.047   4.593  3.3611 -1.6240  0.5141
  886MOL0     H19594   1.413   7.407   4.212  2.9893  0.7967 -1.2406
  886MOL0     H19595   1.188   7.394   4.321  0.1499 -0.3592  2.0668
  886MOL0     H19596   0.864   7.736   4.453 -2.2460  2.1826 -2.4481
  886MOL0     H19597   0.667   7.787   4.577  0.6482  0.8013 -0.7060
  886MOL0     H19598   0.591   7.530   4.758  1.0109  1.5348 -2.2531
  886MOL0     H19599   0.420   7.513   4.787  1.5683 -0.3471  0.8385
  886MOL0     H19600   0.400   7.771   4.799  0.1805  2.6256  0.3476
  886MOL0     H19601   0.576   7.777   4.786  1.2555 -1.1929  0.8062
  886MOL0     H19602   0.601   7.737   5.010  0.1077 -0.2555 -1.5545
  886MOL0     H19603   0.511   7.581   4.994 -0.6636 -0.3950 -1.6184
  886MOL0     H19604   0.413   7.859   5.047 -3.0002  0.2102 -3.3406
  886MOL0     H19605   0.301   7.722   5.026 -0.4103 -1.5793  0.5294
  886MOL0     H19606   0.465   7.671   5.425  3.0377  1.5782  0.0112
  886MOL0     H19607   0.493   7.412   4.451  0.6902 -1.6502  2.8519
  886MOL0     H19608   0.619   7.259   4.301 -0.5449  1.2487 -2.2316
  886MOL0     H19609   0.724   7.343   4.188 -1.9495  2.4031 -0.7989
  886MOL0     H19610   0.784   7.260   4.348 -0.3873  0.5333 -0.3815
  887MOL0     O19611   6.558   9.895   5.507 -0.7788  0.1174 -0.4509
  887MOL0     C19612   6.450   9.940   5.469 -1.2131 -0.1923  0.5489
  887MOL0     O19613   6.434  10.033   5.367 -0.4192 -0.0978 -0.1138
  887MOL0     C19614   6.548  10.076   5.296 -0.0385  0.2881 -0.6017
  887MOL0     C19615   6.531  10.094   5.158  0.8092 -0.8426  0.8405
  887MOL0     C19616   6.621  10.155   5.074 -0.3996  0.4578  0.5215
  887MOL0     C19617   6.737  10.215   5.134 -0.1016 -0.2415 -0.0874
  887MOL0     O19618   6.840  10.296   5.074 -0.5737 -0.0136  0.1283
  887MOL0     C19619   6.808  10.332   4.941  0.7852 -0.3528 -1.1169
  887MOL0     C19620   6.903  10.427   4.882 -0.4642  0.3236  0.5201
  887MOL0     C19621   7.042  10.380   4.910  0.0348 -0.1150 -0.0227
  887MOL0     C19622   7.141  10.466   4.836  0.1837 -0.0156 -0.9072
  887MOL0     C19623   7.288  10.428   4.881  0.6246 -0.5316  0.1518
  887MOL0     C19624   7.384  10.502   4.796  0.7340  0.4942  0.4578
  887MOL0     C19625   7.367  10.489   4.638  0.5349  0.1746 -0.4436
  887MOL0     C19626   7.389  10.353   4.582  0.1946  0.2611 -0.2812
  887MOL0     N19627   7.372  10.359   4.443  0.2999 -0.3041 -0.0221
  887MOL0     C19628   7.252  10.332   4.381 -0.6611  0.7219 -0.2549
  887MOL0     C19629   7.278  10.342   4.250  0.5462 -0.1364  0.2634
  887MOL0     C19630   7.193  10.273   4.143 -0.5733  0.4112 -0.1317
  887MOL0     C19631   7.165  10.368   4.023 -0.0768 -0.6652 -0.4512
  887MOL0     C19632   7.214  10.317   3.882 -0.4917  0.2668 -0.7832
  887MOL0     C19633   7.367  10.308   3.891 -0.0696 -0.5672  0.1490
  887MOL0     O19634   7.420  10.225   3.785  0.2057 -0.4344 -0.3067
  887MOL0     C19635   7.557  10.219   3.781  0.1554  0.1996  0.3776
  887MOL0     C19636   7.653  10.232   3.884  0.5897 -0.1872 -0.6749
  887MOL0     C19637   7.785  10.199   3.864 -1.2637  0.4368  0.0088
  887MOL0     C19638   7.832  10.154   3.735 -0.5202 -0.4705 -0.1155
  887MOL0     C19639   7.976  10.146   3.705 -0.1015 -0.4073  0.6305
  887MOL0     O19640   8.021  10.116   3.582  0.2222  0.0307  0.7323
  887MOL0     C19641   8.152  10.145   3.557 -0.1497 -0.3495 -0.9877
  887MOL0     C19642   8.251  10.039   3.570  0.5793 -1.1688  0.7540
  887MOL0     C19643   8.390  10.057   3.539  0.2996  0.0532  1.0129
  887MOL0     C19644   8.430  10.176   3.483 -0.1089 -0.4029 -0.1398
  887MOL0     O19645   8.556  10.188   3.428 -0.3901  0.3060  0.2763
  887MOL0     C19646   8.618  10.314   3.439  0.5147 -0.7124  0.1658
  887MOL0     C19647   8.765  10.288   3.434 -0.5996 -0.1952 -0.5832
  887MOL0     C19648   8.815  10.223   3.300 -0.4555  1.0771 -0.7342
  887MOL0     C19649   8.926  10.126   3.333 -0.4709  0.3307  0.0211
  887MOL0     C19650   9.007  10.097   3.211 -0.0096 -0.2563  1.1046
  887MOL0     C19651   9.136  10.002   3.241 -0.0742 -0.4537  0.2331
  887MOL0     C19652   9.216   9.989   3.118 -0.5650  0.1881  0.6740
  887MOL0     C19653   9.355   9.928   3.159 -0.3323 -1.4079  0.9485
  887MOL0    Cl19654   9.356   9.760   3.167 -0.4007 -0.3930  0.2761
  887MOL0     C19655   8.339  10.284   3.472  0.4228 -0.3524  0.0448
  887MOL0     C19656   8.202  10.267   3.509 -0.3796 -0.1630  0.6191
  887MOL0     O19657   8.049  10.194   3.796  0.7775 -0.0522  0.1834
  887MOL0     C19658   7.739  10.151   3.621  0.2721 -0.4171  0.0500
  887MOL0     C19659   7.600  10.161   3.654  0.3063  0.4485 -0.4016
  887MOL0     N19660   7.405  10.393   4.231  0.1385  0.0935 -0.4013
  887MOL0     N19661   7.454  10.403   4.353 -0.2389  0.5461  1.0716
  887MOL0     C19662   6.757  10.194   5.270 -0.0569 -0.1193  0.2173
  887MOL0     C19663   6.670  10.114   5.345 -0.2387 -0.8086 -0.0645
  887MOL0     C19664   6.328   9.916   5.550 -1.1335 -0.4320 -0.6077
  887MOL0     C19665   6.326   9.964   5.681  0.5799  0.2637  0.5526
  887MOL0     C19666   6.204   9.960   5.758  0.7495 -0.5182 -0.3338
  887MOL0     C19667   6.084   9.919   5.691  0.0265  0.3159 -0.3581
  887MOL0     O19668   5.961   9.901   5.748 -0.5077 -0.3157 -0.1115
  887MOL0     C19669   5.950   9.964   5.881  0.0130 -0.7284 -0.8943
  887MOL0     C19670   5.806   9.952   5.919 -0.1703 -0.2653  0.0548
  887MOL0     C19671   5.765  10.019   6.052 -0.1951 -0.9779  0.3615
  887MOL0     C19672   5.610  10.010   6.081  0.6946 -0.7147 -0.2232
  887MOL0     C19673   5.575  10.081   6.202 -0.1695  0.4342  0.0908
  887MOL0     C19674   5.532  10.135   6.308  0.2591  0.0464 -1.1280
  887MOL0     C19675   6.093   9.877   5.555  0.4712 -0.1443 -0.3319
  887MOL0     C19676   6.214   9.877   5.488 -0.0192  0.2004  0.4492
  887MOL0     C19677   6.209   9.822   5.343 -0.2579 -0.5399 -0.6966
  887MOL0     H19678   6.438  10.057   5.115  0.6822  2.2730 -1.9658
  887MOL0     H19679   6.595  10.149   4.969 -2.4640  0.3482  1.0030
  887MOL0     H19680   6.802  10.244   4.876 -0.0117 -2.0406  1.0979
  887MOL0     H19681   6.715  10.390   4.936  0.1957 -1.1057  0.3223
  887MOL0     H19682   6.876  10.525   4.922 -0.1352  0.5990  0.0877
  887MOL0     H19683   6.882  10.420   4.775  1.2784 -0.4596  0.1801
  887MOL0     H19684   7.064  10.274   4.891 -1.4616  0.1314 -4.2338
  887MOL0     H19685   7.058  10.386   5.018 -0.9503  1.6223  0.0610
  887MOL0     H19686   7.116  10.452   4.731 -0.6004  2.8238 -1.1863
  887MOL0     H19687   7.123  10.569   4.869 -3.3929 -1.4527  2.5480
  887MOL0     H19688   7.297  10.449   4.988 -0.4549 -0.4356  0.2390
  887MOL0     H19689   7.305  10.323   4.857  2.5415  0.3636 -2.9582
  887MOL0     H19690   7.390  10.606   4.832  3.4725  0.1660  1.2238
  887MOL0     H19691   7.486  10.467   4.816  0.1391 -1.0846  0.7826
  887MOL0     H19692   7.438  10.563   4.598 -1.1370  2.4943  0.6379
  887MOL0     H19693   7.265  10.515   4.609 -0.5536 -0.4549  2.4192
  887MOL0     H19694   7.491  10.321   4.606  0.0907 -0.5025 -0.8344
  887MOL0     H19695   7.315  10.287   4.629  0.0031 -0.3858 -1.4594
  887MOL0     H19696   7.159  10.292   4.418 -0.1343 -0.7166 -0.4308
  887MOL0     H19697   7.256  10.188   4.116 -1.0008  0.8473 -2.7723
  887MOL0     H19698   7.103  10.239   4.197  1.1387 -4.7909  0.0340
  887MOL0     H19699   7.055  10.371   4.020 -0.0706  1.3173 -0.1239
  887MOL0     H19700   7.204  10.470   4.030 -3.7744  1.0284 -1.8781
  887MOL0     H19701   7.182  10.392   3.809 -3.4528 -1.2826 -1.2534
  887MOL0     H19702   7.177  10.218   3.851 -0.7214  0.4385 -1.0643
  887MOL0     H19703   7.401  10.271   3.988 -1.0393  1.5681  1.3757
  887MOL0     H19704   7.421  10.403   3.888 -1.0407  0.0278  1.0025
  887MOL0     H19705   7.613  10.254   3.982 -3.1508 -1.6037 -1.7108
  887MOL0     H19706   7.847  10.208   3.953  0.3708  1.5864 -1.1940
  887MOL0     H19707   8.215   9.938   3.591  1.8089 -1.6883  0.4544
  887MOL0     H19708   8.449   9.968   3.561  1.6787  1.1782  1.9791
  887MOL0     H19709   8.590  10.395   3.371 -0.9354  0.7256  2.3546
  887MOL0     H19710   8.590  10.350   3.538  1.9804  3.8860 -0.8729
  887MOL0     H19711   8.814  10.385   3.452 -2.0409  0.2318  1.3207
  887MOL0     H19712   8.786  10.228   3.523 -0.6784  0.6181 -0.0015
  887MOL0     H19713   8.739  10.155   3.259  1.0034  0.1091 -1.9179
  887MOL0     H19714   8.849  10.296   3.225 -0.3473  0.5770 -1.1744
  887MOL0     H19715   8.874  10.037   3.371  0.2346  0.4714  1.3781
  887MOL0     H19716   8.994  10.164   3.410  0.7794  1.9268 -1.7915
  887MOL0     H19717   9.042  10.190   3.165 -0.4556  1.8497  4.6875
  887MOL0     H19718   8.939  10.048   3.140  1.7098  1.8950 -2.3331
  887MOL0     H19719   9.189  10.049   3.323 -1.7171  1.1348  0.4363
  887MOL0     H19720   9.100   9.903   3.271 -2.8453  0.8567  1.5587
  887MOL0     H19721   9.232  10.085   3.069  0.0342 -0.3454 -0.2040
  887MOL0     H19722   9.173   9.918   3.047  1.6085 -1.6790  1.0930
  887MOL0     H19723   9.436   9.971   3.100 -0.1817 -0.6380  1.6901
  887MOL0     H19724   9.380   9.961   3.260 -2.1386 -0.4322  1.1215
  887MOL0     H19725   8.363  10.381   3.429 -0.3332 -1.1239 -2.3014
  887MOL0     H19726   8.141  10.354   3.488 -1.4087 -0.3051  2.7984
  887MOL0     H19727   7.781  10.113   3.528 -1.6133 -0.6451 -0.7630
  887MOL0     H19728   7.523  10.149   3.578 -0.0823  1.3682 -0.1649
  887MOL0     H19729   6.855  10.219   5.310  1.9353 -3.8065 -1.7920
  887MOL0     H19730   6.704  10.094   5.446  1.5244  1.8679 -0.0181
  887MOL0     H19731   6.414  10.005   5.731  1.6714  0.1899 -1.1965
  887MOL0     H19732   6.210   9.998   5.860  2.4761 -1.5163 -0.0161
  887MOL0     H19733   5.969  10.071   5.884 -1.2045 -0.5146  0.2574
  887MOL0     H19734   6.007   9.917   5.962  0.3522  0.8018 -0.2148
  887MOL0     H19735   5.788   9.844   5.922 -0.0115 -0.2806  0.4256
  887MOL0     H19736   5.737   9.994   5.844 -0.7558  0.9762  1.2530
  887MOL0     H19737   5.794  10.125   6.042 -2.0520 -0.4712 -0.0127
  887MOL0     H19738   5.825   9.975   6.133 -0.1786 -2.3655 -0.3754
  887MOL0     H19739   5.546  10.055   6.004 -2.0342 -1.2370  1.6024
  887MOL0     H19740   5.574   9.907   6.088 -2.0061 -0.1010 -2.7432
  887MOL0     H19741   5.530  10.173   6.407 -0.5285 -0.1963 -1.0377
  887MOL0     H19742   6.003   9.841   5.506 -0.3739  1.0452  0.3014
  887MOL0     H19743   6.238   9.901   5.273  3.5250  2.5019  3.6328
  887MOL0     H19744   6.281   9.740   5.332  1.1955  0.0623  2.9397
  887MOL0     H19745   6.108   9.800   5.309 -1.6248 -1.7083  3.4819
  888MOL0     O19746   8.634  10.449   7.316  0.9612  0.5039 -0.3338
  888MOL0     C19747   8.587  10.558   7.354 -1.1918  0.1881 -0.5625
  888MOL0     O19748   8.654  10.639   7.451  0.5673 -0.1629  0.8941
  888MOL0     C19749   8.781  10.629   7.477 -0.2280 -0.7316 -0.2283
  888MOL0     C19750   8.882  10.680   7.392  0.6101  1.3577 -0.4757
  888MOL0     C19751   9.024  10.652   7.424  0.2863 -0.8881 -0.1354
  888MOL0     C19752   9.045  10.594   7.548 -0.2690  0.1415  0.1067
  888MOL0     O19753   9.162  10.559   7.604  0.9983 -0.0897 -0.8245
  888MOL0     C19754   9.284  10.593   7.530 -0.8062  0.5265  0.1315
  888MOL0     C19755   9.406  10.561   7.619  0.1348 -0.0726  0.6949
  888MOL0     C19756   9.387  10.641   7.750 -0.8814 -0.0136  0.1285
  888MOL0     C19757   9.526  10.647   7.817  0.3856 -0.0945  0.1908
  888MOL0     C19758   9.508  10.731   7.942  0.1137 -0.0899 -0.9230
  888MOL0     C19759   9.635  10.783   8.001  0.7060  0.4004  0.4317
  888MOL0     C19760   9.616  10.885   8.109 -0.2535 -0.1697 -0.4645
  888MOL0     C19761   9.752  10.936   8.171  0.4810 -0.0347  0.1182
  888MOL0     N19762   9.814  11.049   8.093  1.1919 -1.1150  0.3122
  888MOL0     C19763   9.939  11.117   8.120 -0.8535  0.6547  0.3818
  888MOL0     C19764   9.985  11.162   7.999  0.7242  0.2270 -1.0064
  888MOL0     C19765  10.115  11.242   7.975 -0.8152 -0.2439 -0.0476
  888MOL0     C19766  10.141  11.295   7.835  0.3144 -0.0851 -0.4296
  888MOL0     C19767  10.153  11.187   7.734  0.4255 -0.0236  1.0562
  888MOL0     C19768  10.195  11.228   7.590  0.2542  0.2893 -0.1183
  888MOL0     O19769  10.077  11.277   7.518 -0.1736  0.5522  0.0212
  888MOL0     C19770  10.083  11.370   7.428  0.4861 -0.7621 -0.0087
  888MOL0     C19771  10.198  11.430   7.364 -0.0373  0.2783 -1.3034
  888MOL0     C19772  10.188  11.539   7.274  0.0835 -0.1459  0.5755
  888MOL0     C19773  10.056  11.589   7.249 -1.0451  0.5836  1.1289
  888MOL0     C19774  10.031  11.716   7.172  0.6676 -0.2542  0.1537
  888MOL0     O19775   9.907  11.726   7.113  0.5330 -0.6223  0.1158
  888MOL0     C19776   9.874  11.825   7.021 -0.4901  0.2251 -0.0777
  888MOL0     C19777   9.950  11.862   6.913 -0.4305  0.1373 -0.0603
  888MOL0     C19778   9.907  11.957   6.820 -0.2920 -0.5760  0.5850
  888MOL0     C19779   9.782  12.013   6.834 -0.3438 -0.8959  0.7261
  888MOL0     O19780   9.737  12.109   6.753  0.5747 -0.6288  0.3334
  888MOL0     C19781   9.817  12.180   6.653 -0.2380 -0.3127  0.1240
  888MOL0     C19782   9.848  12.322   6.717 -0.2791  0.5008  0.0512
  888MOL0     C19783   9.982  12.336   6.792  0.6814 -0.2895 -0.5803
  888MOL0     C19784   9.995  12.489   6.827  0.0427 -0.1321 -0.9821
  888MOL0     C19785  10.132  12.532   6.881  1.2820 -0.1657 -0.2177
  888MOL0     C19786  10.146  12.676   6.925  0.4357 -0.4371 -0.3480
  888MOL0     C19787  10.294  12.718   6.974 -0.7255 -0.3069 -0.0660
  888MOL0     C19788  10.290  12.854   7.032  0.3498 -0.6777  0.2810
  888MOL0    Cl19789  10.206  12.964   6.913  0.0269  0.2690  0.2631
  888MOL0     C19790   9.704  11.974   6.942 -0.2406  0.0855  0.9915
  888MOL0     C19791   9.752  11.879   7.029  0.3369 -0.7636  0.0561
  888MOL0     O19792  10.133  11.778   7.136  0.0774  0.5096  0.2018
  888MOL0     C19793   9.948  11.518   7.302 -0.7044  0.3296  0.8324
  888MOL0     C19794   9.958  11.410   7.389  0.3304 -0.5860  0.9876
  888MOL0     N19795   9.886  11.117   7.907  0.6154  0.6302 -0.4987
  888MOL0     N19796   9.786  11.071   7.964 -0.2788 -0.0438 -1.1084
  888MOL0     C19797   8.939  10.557   7.627  0.6402 -0.0034 -0.2927
  888MOL0     C19798   8.806  10.571   7.597 -0.0117  0.5288  0.3314
  888MOL0     C19799   8.456  10.600   7.296  0.1735  0.2724  0.0863
  888MOL0     C19800   8.363  10.500   7.272 -0.0156  0.3463 -0.0918
  888MOL0     C19801   8.250  10.526   7.205 -0.2173 -1.2723  0.2205
  888MOL0     C19802   8.219  10.654   7.165  0.9030 -0.1420 -0.5260
  888MOL0     O19803   8.097  10.678   7.090 -0.3029 -0.6536 -0.6892
  888MOL0     C19804   8.016  10.572   7.053  0.7000 -0.5899 -0.2064
  888MOL0     C19805   7.917  10.629   6.958 -0.0032  0.1631 -0.1890
  888MOL0     C19806   7.791  10.690   7.034 -0.7405  1.1367  0.3869
  888MOL0     C19807   7.699  10.767   6.948 -0.4858 -0.4081  0.1602
  888MOL0     C19808   7.581  10.811   7.009 -0.1214  0.7371 -1.2002
  888MOL0     C19809   7.481  10.845   7.075  0.0512  0.9803 -0.5241
  888MOL0     C19810   8.311  10.755   7.195  0.2888  0.6150  0.8047
  888MOL0     C19811   8.429  10.732   7.260 -0.3672 -0.4939  0.3819
  888MOL0     C19812   8.517  10.847   7.290  0.1365 -0.5951 -0.4896
  888MOL0     H19813   8.850  10.735   7.303 -2.6708 -0.1987 -0.3692
  888MOL0     H19814   9.110  10.672   7.361 -0.5754  0.4902 -0.9325
  888MOL0     H19815   9.284  10.525   7.444 -4.1918 -1.0564  1.2036
  888MOL0     H19816   9.291  10.695   7.491  1.3708 -1.4821 -5.8284
  888MOL0     H19817   9.493  10.606   7.571 -0.5663  1.6407  0.9438
  888MOL0     H19818   9.411  10.454   7.640 -1.8454 -0.2206  0.6592
  888MOL0     H19819   9.307  10.597   7.811 -2.2645 -0.5193 -1.9660
  888MOL0     H19820   9.348  10.739   7.721 -0.4875  0.2999  0.6251
  888MOL0     H19821   9.569  10.549   7.841  1.0810 -0.0754 -0.9062
  888MOL0     H19822   9.589  10.701   7.745  0.1457  1.9024  1.4124
  888MOL0     H19823   9.442  10.817   7.925 -2.6164 -1.2363  2.5715
  888MOL0     H19824   9.451  10.680   8.020  1.1371  0.6396  0.3552
  888MOL0     H19825   9.686  10.701   8.053 -1.0614  0.6564  2.7311
  888MOL0     H19826   9.693  10.825   7.919  0.3379  2.5655  1.2300
  888MOL0     H19827   9.547  10.832   8.176 -1.5095  1.9721  0.0249
  888MOL0     H19828   9.563  10.972   8.070 -0.5260 -0.6814 -1.2665
  888MOL0     H19829   9.733  10.970   8.273  2.4074 -2.2315  1.3213
  888MOL0     H19830   9.818  10.849   8.179 -1.5476 -1.5654  1.2523
  888MOL0     H19831   9.981  11.138   8.218 -2.8446  0.0939  1.3928
  888MOL0     H19832  10.120  11.325   8.046 -0.8906 -2.3201  2.5309
  888MOL0     H19833  10.206  11.191   8.009 -0.6820 -0.6166 -0.9401
  888MOL0     H19834  10.060  11.365   7.812  0.3346 -0.1615 -0.7289
  888MOL0     H19835  10.238  11.344   7.846  0.3631 -0.4180  0.7173
  888MOL0     H19836  10.066  11.123   7.717 -2.1173  3.7193 -1.6136
  888MOL0     H19837  10.242  11.132   7.764  1.4389 -0.9465 -3.0625
  888MOL0     H19838  10.224  11.137   7.537  0.6363 -1.6191  3.0987
  888MOL0     H19839  10.272  11.305   7.587  0.4358  0.1615  0.9394
  888MOL0     H19840  10.289  11.379   7.394 -1.7129  0.0091  4.7229
  888MOL0     H19841  10.271  11.580   7.217  0.6420  2.1659  2.8657
  888MOL0     H19842  10.040  11.802   6.898  0.0513 -0.4429  3.9218
  888MOL0     H19843   9.981  11.976   6.743 -1.2968  1.7809  0.1026
  888MOL0     H19844   9.917  12.141   6.629 -0.1976  0.7828 -1.6915
  888MOL0     H19845   9.757  12.189   6.562 -0.2477  0.9530  0.2381
  888MOL0     H19846   9.854  12.392   6.633  1.0726 -0.9804 -1.1351
  888MOL0     H19847   9.762  12.356   6.776 -1.4879 -0.7101 -0.9379
  888MOL0     H19848   9.993  12.278   6.885  3.5859  2.1749  0.8046
  888MOL0     H19849  10.062  12.299   6.728 -0.7398 -2.0280 -1.4350
  888MOL0     H19850   9.918  12.524   6.896  0.4745  0.2775 -0.7079
  888MOL0     H19851   9.987  12.541   6.731 -0.4153  2.4214  0.3566
  888MOL0     H19852  10.201  12.519   6.797  1.7731  0.5043  0.0768
  888MOL0     H19853  10.154  12.464   6.964  0.7628 -1.8426 -1.3936
  888MOL0     H19854  10.100  12.744   6.852 -0.9194 -0.3559  0.5515
  888MOL0     H19855  10.076  12.691   7.008 -1.4494  0.3816 -2.0050
  888MOL0     H19856  10.363  12.724   6.889 -1.1866  2.2014 -0.3304
  888MOL0     H19857  10.324  12.652   7.056  0.1367  4.9649  4.4874
  888MOL0     H19858  10.236  12.847   7.126 -2.1169 -0.1098 -0.9935
  888MOL0     H19859  10.390  12.891   7.052  1.3177 -3.3437  0.7223
  888MOL0     H19860   9.601  12.007   6.935 -0.0514  0.3765 -3.4148
  888MOL0     H19861   9.681  11.847   7.105 -0.7996 -1.2265 -1.1527
  888MOL0     H19862   9.848  11.541   7.268 -0.3917 -1.4545 -1.5367
  888MOL0     H19863   9.866  11.369   7.430 -1.0363  0.4701 -0.8656
  888MOL0     H19864   8.967  10.513   7.723 -0.9902 -2.5708 -0.9070
  888MOL0     H19865   8.728  10.530   7.660  0.8350  0.3929  1.3082
  888MOL0     H19866   8.381  10.399   7.305  1.0421  1.1908  2.1081
  888MOL0     H19867   8.196  10.435   7.181  0.1178 -1.2509 -0.6303
  888MOL0     H19868   7.966  10.525   7.138 -2.2541  0.2991 -1.3336
  888MOL0     H19869   8.083  10.504   6.999  0.9774 -0.7741  0.3531
  888MOL0     H19870   7.885  10.540   6.903  0.0427  0.0496 -0.0327
  888MOL0     H19871   7.953  10.700   6.883 -1.7560 -0.4059 -1.6466
  888MOL0     H19872   7.825  10.750   7.119 -0.0984  0.5197  0.5712
  888MOL0     H19873   7.748  10.600   7.081  2.5805  0.1658  1.8825
  888MOL0     H19874   7.754  10.851   6.906 -2.5880 -1.0011 -4.2970
  888MOL0     H19875   7.674  10.702   6.864 -2.1470 -1.4076  1.3486
  888MOL0     H19876   7.392  10.861   7.134 -1.7370 -0.3308 -2.6997
  888MOL0     H19877   8.281  10.853   7.158 -1.1745 -0.1267 -0.0856
  888MOL0     H19878   8.471  10.943   7.265  1.8142  0.5481  0.5791
  888MOL0     H19879   8.526  10.860   7.398  1.7125 -1.1075 -0.5250
  888MOL0     H19880   8.615  10.838   7.242 -0.6546  1.7966 -2.8007
  889MOL0     O19881   1.937   1.932   6.680 -0.3356 -1.2356 -0.4955
  889MOL0     C19882   1.920   1.823   6.735 -0.3833  0.2214  0.4077
  889MOL0     O19883   2.022   1.751   6.775 -0.2365  0.0387 -0.8649
  889MOL0     C19884   2.134   1.810   6.831  0.0746  0.1225 -0.3705
  889MOL0     C19885   2.253   1.733   6.805  0.0265  0.2683  0.1586
  889MOL0     C19886   2.374   1.778   6.862 -0.3391  0.1059  0.4652
  889MOL0     C19887   2.376   1.893   6.945 -0.0682  0.0738  0.1832
  889MOL0     O19888   2.490   1.944   6.999  0.5515 -0.0210  0.5193
  889MOL0     C19889   2.602   1.860   7.035  0.1403 -0.2656 -0.0150
  889MOL0     C19890   2.664   1.923   7.159 -0.7024  0.0013 -0.7570
  889MOL0     C19891   2.728   2.061   7.122 -0.3799 -0.1442  0.5248
  889MOL0     C19892   2.884   2.066   7.115  0.9204  0.9094  0.1314
  889MOL0     C19893   2.927   2.209   7.066  0.6714  0.6846  0.3606
  889MOL0     C19894   3.075   2.223   7.064  0.0306 -0.5787 -0.9663
  889MOL0     C19895   3.126   2.355   7.006 -0.3334 -0.9167  0.4094
  889MOL0     C19896   3.275   2.383   7.030 -0.3412  1.0687  0.6622
  889MOL0     N19897   3.382   2.300   6.968  0.3864  0.1199  0.8850
  889MOL0     C19898   3.451   2.330   6.853  0.1089 -0.0852 -0.7621
  889MOL0     C19899   3.538   2.226   6.852 -0.3986 -0.6682 -0.6534
  889MOL0     C19900   3.653   2.211   6.754  0.0373  0.0502 -0.5000
  889MOL0     C19901   3.781   2.196   6.823  0.0930  0.2757 -0.5243
  889MOL0     C19902   3.904   2.201   6.725 -0.4264 -0.4396  0.6908
  889MOL0     C19903   4.037   2.207   6.807 -1.0854 -1.3553 -0.3035
  889MOL0     O19904   4.034   2.319   6.899  0.2167 -0.0581  0.2681
  889MOL0     C19905   4.137   2.314   6.999 -0.1508 -0.4683 -0.0754
  889MOL0     C19906   4.261   2.377   6.964  0.9840 -0.2781  0.5017
  889MOL0     C19907   4.366   2.379   7.046 -0.1125  0.1424 -0.1775
  889MOL0     C19908   4.353   2.334   7.171 -0.0832 -0.0235 -0.4217
  889MOL0     C19909   4.464   2.364   7.263  0.1807  0.4172  0.8279
  889MOL0     O19910   4.461   2.292   7.377  0.5331 -0.4665  0.2467
  889MOL0     C19911   4.563   2.308   7.469 -0.5392 -0.2313 -0.8865
  889MOL0     C19912   4.699   2.284   7.447  0.2395 -0.1178  0.7393
  889MOL0     C19913   4.801   2.318   7.546  0.5093  0.5689  0.6354
  889MOL0     C19914   4.771   2.376   7.666  0.0991 -0.2182 -0.7632
  889MOL0     O19915   4.873   2.416   7.755 -0.0857 -0.4386 -0.0745
  889MOL0     C19916   4.841   2.475   7.888  1.1086  0.3327  0.6535
  889MOL0     C19917   4.969   2.517   7.953  0.2793  0.2052 -0.7774
  889MOL0     C19918   5.080   2.408   7.981 -0.0444  0.3996 -0.5477
  889MOL0     C19919   5.206   2.472   8.056 -0.4519  0.0739 -0.1565
  889MOL0     C19920   5.290   2.366   8.117 -0.7300  0.4631  0.6984
  889MOL0     C19921   5.402   2.431   8.202  0.5517 -0.6679  1.0249
  889MOL0     C19922   5.473   2.326   8.280  0.3165  0.2380  0.2968
  889MOL0     C19923   5.590   2.390   8.363 -0.4556  0.1829  0.3141
  889MOL0    Cl19924   5.632   2.278   8.493 -0.1243 -0.2591 -0.3594
  889MOL0     C19925   4.638   2.409   7.688 -0.1582  1.3448  0.8624
  889MOL0     C19926   4.536   2.379   7.595  0.5770  0.0981 -0.5818
  889MOL0     O19927   4.558   2.438   7.226 -1.0552 -0.1253 -0.6606
  889MOL0     C19928   4.225   2.275   7.215  0.0950  0.7027 -0.3461
  889MOL0     C19929   4.124   2.261   7.124  1.0804 -0.2088  1.2334
  889MOL0     N19930   3.522   2.143   6.959  1.2669 -0.4087 -0.0895
  889MOL0     N19931   3.420   2.187   7.032  0.5237 -0.4257 -0.0560
  889MOL0     C19932   2.262   1.967   6.961  1.1561 -0.1464  0.8349
  889MOL0     C19933   2.139   1.926   6.912  0.1953  0.2670  1.2861
  889MOL0     C19934   1.789   1.769   6.741 -0.8072 -0.3470  1.1258
  889MOL0     C19935   1.778   1.630   6.723 -0.2952 -0.5322  0.2331
  889MOL0     C19936   1.660   1.570   6.739  0.4068  0.2860 -0.2359
  889MOL0     C19937   1.543   1.640   6.758 -0.1794 -0.2366 -1.0224
  889MOL0     O19938   1.429   1.563   6.753 -0.2451 -0.6420  0.3877
  889MOL0     C19939   1.305   1.631   6.754  0.8303 -0.1921 -0.1666
  889MOL0     C19940   1.182   1.537   6.737  0.0448 -0.3578 -1.0637
  889MOL0     C19941   1.054   1.611   6.760  0.9442 -0.1191  0.4200
  889MOL0     C19942   0.951   1.505   6.804  0.2476 -0.8424  0.4052
  889MOL0     C19943   0.809   1.545   6.824  0.0662  0.1781 -0.1464
  889MOL0     C19944   0.689   1.547   6.852 -0.2671 -1.2566  0.8059
  889MOL0     C19945   1.547   1.783   6.773  0.0338  0.4448  0.4867
  889MOL0     C19946   1.670   1.844   6.771 -0.1544 -0.2030 -0.3068
  889MOL0     C19947   1.674   1.997   6.803  0.0044  0.7431  0.7364
  889MOL0     H19948   2.246   1.638   6.753 -1.9427  0.0200  0.8105
  889MOL0     H19949   2.465   1.727   6.831 -0.5209  0.7352 -1.1863
  889MOL0     H19950   2.568   1.758   7.054 -2.3225  0.6124  0.6504
  889MOL0     H19951   2.684   1.859   6.962  1.4906 -0.2624  1.4388
  889MOL0     H19952   2.736   1.854   7.203 -1.2214  0.8981  1.6525
  889MOL0     H19953   2.585   1.936   7.233  1.6886 -1.3328  2.2477
  889MOL0     H19954   2.694   2.129   7.201 -1.6974 -1.5600  1.2286
  889MOL0     H19955   2.682   2.100   7.031  0.8346  2.0456  0.7689
  889MOL0     H19956   2.909   2.048   7.220 -1.2420 -0.3744  0.4728
  889MOL0     H19957   2.928   1.987   7.053 -1.0771 -0.0227 -0.1730
  889MOL0     H19958   2.890   2.237   6.967 -1.6448  0.8088  1.2020
  889MOL0     H19959   2.888   2.292   7.126  0.9172  1.7115 -0.8635
  889MOL0     H19960   3.103   2.219   7.170 -1.9313 -3.1769 -0.4479
  889MOL0     H19961   3.118   2.148   6.998  0.8598  0.0124 -1.1188
  889MOL0     H19962   3.071   2.443   7.040 -0.3760 -0.3361 -1.0820
  889MOL0     H19963   3.108   2.358   6.898  0.1992  0.4019  0.3349
  889MOL0     H19964   3.280   2.486   6.995 -0.3760  2.3297  3.9985
  889MOL0     H19965   3.295   2.387   7.137 -1.2128  1.1312  0.8346
  889MOL0     H19966   3.451   2.410   6.781 -0.4801  0.1794 -0.4726
  889MOL0     H19967   3.632   2.117   6.701  0.8067 -0.8320  0.6960
  889MOL0     H19968   3.656   2.285   6.674  1.4004 -1.2964 -1.7657
  889MOL0     H19969   3.780   2.284   6.887 -1.3870  0.0476 -0.2085
  889MOL0     H19970   3.779   2.105   6.884 -1.0964  1.2783  1.0056
  889MOL0     H19971   3.895   2.296   6.671 -4.8477 -0.1502  1.5330
  889MOL0     H19972   3.906   2.114   6.659 -0.5651  1.2143 -1.6219
  889MOL0     H19973   4.124   2.211   6.741  0.9864  2.4054  2.3273
  889MOL0     H19974   4.049   2.116   6.867  4.1124 -0.9433 -0.3349
  889MOL0     H19975   4.264   2.419   6.864 -3.8841 -0.7261 -0.0513
  889MOL0     H19976   4.448   2.438   7.005 -2.1982  3.9972  0.6970
  889MOL0     H19977   4.717   2.260   7.342 -1.1781 -2.3265  0.9294
  889MOL0     H19978   4.897   2.287   7.507 -0.7600 -0.8340 -1.5976
  889MOL0     H19979   4.766   2.555   7.885 -1.3685 -1.8778  0.2453
  889MOL0     H19980   4.794   2.398   7.950 -3.6617  4.1784  2.5251
  889MOL0     H19981   5.013   2.596   7.892 -0.1716  1.3307  0.3035
  889MOL0     H19982   4.951   2.565   8.050  2.2795  1.0928 -0.7856
  889MOL0     H19983   5.032   2.330   8.041 -2.8485  1.0850 -1.7498
  889MOL0     H19984   5.102   2.365   7.883  1.7705  1.4491 -0.6519
  889MOL0     H19985   5.164   2.524   8.143  0.9952  0.4037  0.3734
  889MOL0     H19986   5.266   2.538   7.994  1.1502 -0.4388  0.7902
  889MOL0     H19987   5.334   2.300   8.042  3.1477  2.4617  1.0061
  889MOL0     H19988   5.222   2.309   8.181  1.3392 -0.9131  1.7855
  889MOL0     H19989   5.465   2.485   8.131 -0.1235  1.4543  1.9539
  889MOL0     H19990   5.360   2.511   8.264  1.9758  2.4833 -1.7681
  889MOL0     H19991   5.520   2.258   8.208 -0.7146  0.9466 -1.0928
  889MOL0     H19992   5.412   2.276   8.356  1.6689 -1.5133  0.2899
  889MOL0     H19993   5.670   2.421   8.296 -1.5457  0.5612 -0.8612
  889MOL0     H19994   5.551   2.477   8.416 -2.1556 -1.2451  1.5361
  889MOL0     H19995   4.606   2.472   7.771 -0.7937  0.2382  1.4736
  889MOL0     H19996   4.442   2.403   7.643  0.4929 -0.5889 -0.3889
  889MOL0     H19997   4.211   2.241   7.317  0.4973 -0.6783 -0.7354
  889MOL0     H19998   4.033   2.206   7.147  1.4314 -3.6086 -3.8946
  889MOL0     H19999   2.259   2.054   7.025  3.8851 -0.7620  1.9684
  889MOL0     H20000   2.039   1.965   6.927 -0.3904 -0.6321 -0.0694
  889MOL0     H20001   1.867   1.578   6.691  1.3753  1.1440  1.9063
  889MOL0     H20002   1.654   1.465   6.711 -0.2372 -0.0067  0.9383
  889MOL0     H20003   1.304   1.711   6.679  1.2445  0.9939  1.0335
  889MOL0     H20004   1.291   1.687   6.847 -2.3475  1.5221 -1.5146
  889MOL0     H20005   1.178   1.462   6.817 -0.5209  1.5584  0.7962
  889MOL0     H20006   1.164   1.476   6.648 -1.5316 -2.4557  0.5845
  889MOL0     H20007   1.034   1.660   6.664 -1.3716 -3.8232 -1.2625
  889MOL0     H20008   1.072   1.682   6.841  0.9742  1.8502 -1.2332
  889MOL0     H20009   0.939   1.433   6.723  0.9437 -0.3545 -0.1461
  889MOL0     H20010   0.979   1.459   6.899 -1.9162 -0.8800  1.0760
  889MOL0     H20011   0.586   1.557   6.881 -0.6306 -3.2939  0.3409
  889MOL0     H20012   1.457   1.842   6.783 -2.5149 -2.8468 -0.8766
  889MOL0     H20013   1.669   2.049   6.707 -5.5381 -2.8508 -1.4192
  889MOL0     H20014   1.588   2.023   6.865 -1.6349 -0.3502 -0.9629
  889MOL0     H20015   1.766   2.017   6.858 -1.8357  3.8056  2.9755
  890MOL0     O20016   5.994  11.270   6.294 -0.8407  0.3839  0.3911
  890MOL0     C20017   5.914  11.322   6.219 -0.3594 -0.7814  0.0884
  890MOL0     O20018   5.804  11.252   6.172  0.0425  0.1127  0.2656
  890MOL0     C20019   5.788  11.120   6.201 -0.3116 -0.1063 -0.4802
  890MOL0     C20020   5.664  11.068   6.246 -0.8191 -1.0651 -0.4945
  890MOL0     C20021   5.643  10.933   6.269 -0.6761 -0.7092 -0.6803
  890MOL0     C20022   5.756  10.847   6.254 -0.0731 -0.4855  0.2563
  890MOL0     O20023   5.735  10.719   6.293 -0.7322 -0.0471 -0.0109
  890MOL0     C20024   5.836  10.655   6.383 -0.2545 -0.1708 -0.1325
  890MOL0     C20025   5.769  10.531   6.451  0.0774 -0.4636  0.0394
  890MOL0     C20026   5.768  10.410   6.354 -0.8918 -0.9649  0.1465
  890MOL0     C20027   5.901  10.341   6.379 -0.6084  0.2422 -0.9217
  890MOL0     C20028   5.924  10.212   6.295 -0.1365 -0.6434 -0.1914
  890MOL0     C20029   6.027  10.112   6.330  0.4027  1.0406  0.5122
  890MOL0     C20030   5.965  10.043   6.455  0.3206 -0.3447 -0.2211
  890MOL0     C20031   6.046   9.921   6.490  0.3040 -0.7019  0.3938
  890MOL0     N20032   6.194   9.937   6.494  0.7704  0.2750  0.1221
  890MOL0     C20033   6.279  10.007   6.582  0.4449 -0.3157  0.1217
  890MOL0     C20034   6.395  10.026   6.521 -0.6068  0.0585 -0.8325
  890MOL0     C20035   6.499  10.108   6.577  0.5138 -0.4360  0.1754
  890MOL0     C20036   6.605  10.017   6.613 -0.1408 -0.8053  0.8698
  890MOL0     C20037   6.721  10.082   6.684 -0.6106  0.9163  0.1197
  890MOL0     C20038   6.851   9.990   6.678  0.5299 -0.4195 -0.4378
  890MOL0     O20039   6.900   9.989   6.546  0.4314  0.0689 -0.3615
  890MOL0     C20040   7.013   9.939   6.519 -0.0897 -0.4794  0.5451
  890MOL0     C20041   7.058   9.943   6.389  0.4243 -0.1064  0.8261
  890MOL0     C20042   7.180   9.890   6.348 -0.0560  0.3778 -0.1323
  890MOL0     C20043   7.260   9.827   6.446  0.7199 -0.1323 -0.3910
  890MOL0     C20044   7.391   9.766   6.410 -0.1702  0.8501  0.4309
  890MOL0     O20045   7.413   9.748   6.274  0.7786  0.0087  0.1906
  890MOL0     C20046   7.535   9.710   6.231 -0.2571 -0.2994 -0.3843
  890MOL0     C20047   7.647   9.791   6.257 -0.1535  0.4197  0.3654
  890MOL0     C20048   7.768   9.759   6.182  0.4047 -0.3627 -0.3790
  890MOL0     C20049   7.781   9.642   6.111  0.4988  1.0515  0.9282
  890MOL0     O20050   7.881   9.611   6.024  0.1039  0.4566  0.3456
  890MOL0     C20051   7.978   9.711   5.988  1.0206 -0.3407 -0.0524
  890MOL0     C20052   8.065   9.663   5.865 -0.1816  0.2853  0.8094
  890MOL0     C20053   7.993   9.591   5.753  0.6579 -0.6899 -0.1660
  890MOL0     C20054   8.084   9.569   5.623 -0.2365  0.5676 -0.6602
  890MOL0     C20055   8.036   9.468   5.520  0.2802  0.6791 -0.7779
  890MOL0     C20056   7.890   9.491   5.478 -0.2887 -0.5378 -0.3720
  890MOL0     C20057   7.842   9.376   5.391 -0.0892  0.1401 -0.3901
  890MOL0     C20058   7.759   9.417   5.274  1.2547 -1.3574 -0.0973
  890MOL0    Cl20059   7.623   9.522   5.328  0.3271 -0.1547 -0.0498
  890MOL0     C20060   7.672   9.551   6.106  0.2556 -0.0481  0.3630
  890MOL0     C20061   7.551   9.590   6.159  1.1642  0.3463 -0.1895
  890MOL0     O20062   7.468   9.731   6.497 -0.5199  0.7748 -0.0766
  890MOL0     C20063   7.219   9.813   6.580  0.1906 -0.0308 -0.0040
  890MOL0     C20064   7.099   9.867   6.610  0.1290  0.3373  0.2502
  890MOL0     N20065   6.390   9.953   6.406  0.1417  0.4830 -0.0716
  890MOL0     N20066   6.271   9.894   6.388  0.8286 -0.5700 -0.4496
  890MOL0     C20067   5.877  10.892   6.216  0.0838  0.6251 -0.3472
  890MOL0     C20068   5.886  11.028   6.186  0.4749 -0.3092 -0.3726
  890MOL0     C20069   5.927  11.467   6.166 -0.9008  0.1888 -0.2960
  890MOL0     C20070   5.855  11.518   6.052 -0.2709  0.0996  0.3049
  890MOL0     C20071   5.852  11.649   6.010  0.3535  0.4341  0.1239
  890MOL0     C20072   5.933  11.736   6.078 -0.9445  0.4883  0.8037
  890MOL0     O20073   5.956  11.872   6.045 -0.5474 -0.2655 -0.0690
  890MOL0     C20074   5.880  11.928   5.938  0.4334  0.0727  0.1825
  890MOL0     C20075   5.911  12.064   5.890 -0.3326 -0.1784 -0.5443
  890MOL0     C20076   6.058  12.086   5.881  0.1008  1.0468  0.0920
  890MOL0     C20077   6.100  12.227   5.841 -0.0690 -0.0927  0.2230
  890MOL0     C20078   6.139  12.318   5.948 -0.4554  0.3184  0.2755
  890MOL0     C20079   6.193  12.366   6.037 -0.0614 -0.2839 -0.4132
  890MOL0     C20080   6.013  11.688   6.177  0.3854  0.0428 -0.6341
  890MOL0     C20081   6.020  11.555   6.224  0.9101 -0.6399 -0.5273
  890MOL0     C20082   6.110  11.534   6.343  0.6838 -0.0002 -0.0444
  890MOL0     H20083   5.578  11.132   6.256 -1.3781 -1.8754 -0.0163
  890MOL0     H20084   5.554  10.880   6.304  0.4040 -1.9332  0.3269
  890MOL0     H20085   5.912  10.608   6.320  0.0858 -4.2139  2.9203
  890MOL0     H20086   5.892  10.714   6.455  0.7294 -0.5975 -0.5288
  890MOL0     H20087   5.669  10.546   6.494  0.0613 -1.8755  0.5372
  890MOL0     H20088   5.836  10.511   6.535 -2.2508  0.5086  2.2967
  890MOL0     H20089   5.767  10.440   6.249 -0.7545  0.9048  0.6377
  890MOL0     H20090   5.684  10.346   6.382 -1.7735  0.4399  0.7697
  890MOL0     H20091   5.996  10.392   6.360  1.3493 -2.0694  1.7814
  890MOL0     H20092   5.903  10.323   6.487 -0.5080 -0.6499 -1.0721
  890MOL0     H20093   5.828  10.159   6.293  0.5503 -2.0032  1.1367
  890MOL0     H20094   5.952  10.243   6.194 -0.7881 -2.2428 -0.8960
  890MOL0     H20095   6.041  10.041   6.249 -0.8509  0.9379  0.3648
  890MOL0     H20096   6.126  10.158   6.342  2.0051 -1.8594 -0.7709
  890MOL0     H20097   5.868  10.012   6.417  0.0035  0.2385  0.0885
  890MOL0     H20098   5.960  10.104   6.547  0.4627 -1.3751  0.4853
  890MOL0     H20099   6.019   9.893   6.592  0.2875  1.6668  1.1068
  890MOL0     H20100   6.030   9.844   6.414  3.6490 -2.8896  1.6863
  890MOL0     H20101   6.250  10.038   6.682 -1.8600 -0.9729 -0.2656
  890MOL0     H20102   6.525  10.187   6.507  0.1657 -1.4231 -1.1113
  890MOL0     H20103   6.462  10.155   6.669  0.5254 -0.5056  0.2161
  890MOL0     H20104   6.558   9.946   6.681 -1.0681 -1.8854 -0.8229
  890MOL0     H20105   6.648   9.962   6.529  1.5919 -0.4644  1.4864
  890MOL0     H20106   6.695  10.104   6.788 -0.1642  1.7355  0.0655
  890MOL0     H20107   6.737  10.174   6.628 -2.5467 -0.2241 -2.5295
  890MOL0     H20108   6.817   9.889   6.702 -0.3360 -0.3571 -1.3827
  890MOL0     H20109   6.925  10.028   6.750  0.5267 -0.4867 -0.3995
  890MOL0     H20110   6.991   9.985   6.315 -0.9467 -0.0276  2.0559
  890MOL0     H20111   7.215   9.905   6.247  2.2744  0.7227  0.6695
  890MOL0     H20112   7.645   9.867   6.334  1.1261 -1.1474  2.0343
  890MOL0     H20113   7.846   9.834   6.177 -1.8898  2.0660 -2.5764
  890MOL0     H20114   7.923   9.804   5.972 -1.0355 -1.2754  1.0909
  890MOL0     H20115   8.046   9.718   6.073  1.8329  1.8396 -0.8105
  890MOL0     H20116   8.119   9.751   5.832  0.1117  0.1740  0.9844
  890MOL0     H20117   8.139   9.591   5.901  0.0770  0.2072  0.1245
  890MOL0     H20118   7.952   9.497   5.791 -0.7107  0.6017  1.8220
  890MOL0     H20119   7.911   9.662   5.735 -0.8397 -0.5803  5.2447
  890MOL0     H20120   8.178   9.526   5.658 -0.9597 -0.2706  0.3028
  890MOL0     H20121   8.112   9.667   5.584  4.1458  0.0850  0.7544
  890MOL0     H20122   8.034   9.374   5.577 -2.1161 -1.0291 -3.4220
  890MOL0     H20123   8.100   9.454   5.433 -1.7264  2.3145 -2.6081
  890MOL0     H20124   7.822   9.510   5.561  0.2489 -2.3745  0.5444
  890MOL0     H20125   7.891   9.584   5.420 -3.0363 -0.6083 -0.6858
  890MOL0     H20126   7.792   9.306   5.458  1.6574 -0.9886 -0.2059
  890MOL0     H20127   7.939   9.339   5.358  1.1528  3.1780 -0.4611
  890MOL0     H20128   7.819   9.476   5.204 -4.0983 -1.7062 -5.8490
  890MOL0     H20129   7.722   9.331   5.217  1.6156 -0.5367 -1.6123
  890MOL0     H20130   7.693   9.465   6.044  0.8552  1.3155 -1.4220
  890MOL0     H20131   7.460   9.531   6.146  1.5683 -0.5637  0.9240
  890MOL0     H20132   7.280   9.765   6.655  3.3446  3.5177  0.0316
  890MOL0     H20133   7.080   9.855   6.716 -0.7516  0.5193  0.1177
  890MOL0     H20134   5.961  10.827   6.195  1.6882  2.1483  1.0844
  890MOL0     H20135   5.980  11.064   6.147 -0.4544 -0.4703 -2.9066
  890MOL0     H20136   5.802  11.443   5.993 -0.0210  1.6392 -2.0268
  890MOL0     H20137   5.800  11.685   5.921  0.2915  1.1784  0.4491
  890MOL0     H20138   5.774  11.927   5.962  0.1207 -0.0946 -1.1275
  890MOL0     H20139   5.896  11.866   5.850  3.4526 -2.1171  2.0522
  890MOL0     H20140   5.879  12.137   5.965 -2.8459 -1.2575 -0.4860
  890MOL0     H20141   5.860  12.085   5.795 -0.2294 -0.2065 -0.6063
  890MOL0     H20142   6.095  12.016   5.806  0.0684  2.8751 -1.7228
  890MOL0     H20143   6.101  12.062   5.979  0.3047  3.0065  0.5194
  890MOL0     H20144   6.191  12.232   5.781 -0.1408  3.8269  0.1554
  890MOL0     H20145   6.022  12.267   5.776 -0.2996 -0.4796  0.2584
  890MOL0     H20146   6.255  12.406   6.115  0.3302 -1.6700  0.0182
  890MOL0     H20147   6.077  11.765   6.219 -0.9714  0.9207 -0.1340
  890MOL0     H20148   6.060  11.482   6.425  3.5808 -1.1412  1.1309
  890MOL0     H20149   6.199  11.475   6.321  0.8798  0.1950  0.2174
  890MOL0     H20150   6.138  11.638   6.365 -0.7065  0.2417  0.6713
  891MOL0     O20151   4.366   2.338   1.722  0.0581 -0.4670  0.1351
  891MOL0     C20152   4.300   2.288   1.630 -1.1737  0.1566  0.1731
  891MOL0     O20153   4.336   2.293   1.497  0.0278 -0.0995  0.6707
  891MOL0     C20154   4.461   2.312   1.449  0.5312 -0.2897  1.1479
  891MOL0     C20155   4.583   2.335   1.512  0.0047  0.4106 -0.3277
  891MOL0     C20156   4.699   2.354   1.444  0.1193 -0.0050  0.0984
  891MOL0     C20157   4.709   2.351   1.303  0.2782  0.8868  0.0814
  891MOL0     O20158   4.825   2.347   1.227  0.3021 -0.8837 -0.0566
  891MOL0     C20159   4.953   2.384   1.288  0.3131 -0.4818 -0.1457
  891MOL0     C20160   5.010   2.261   1.351  0.4994 -0.0000  0.3895
  891MOL0     C20161   5.086   2.169   1.249 -0.3645  0.7786 -0.3651
  891MOL0     C20162   4.989   2.099   1.144  0.0690 -0.3558 -0.1773
  891MOL0     C20163   5.081   2.019   1.044 -0.2545 -0.5282  0.1360
  891MOL0     C20164   5.152   1.899   1.094  0.7294  0.3680  0.2616
  891MOL0     C20165   5.204   1.804   0.983 -0.1474  0.4561 -0.4532
  891MOL0     C20166   5.209   1.645   1.015  1.0225  1.0156  0.4784
  891MOL0     N20167   5.085   1.582   1.065 -0.0068 -0.1873 -0.1525
  891MOL0     C20168   5.063   1.523   1.186  0.0322  0.6683 -0.9961
  891MOL0     C20169   4.961   1.439   1.178 -0.4126  0.7745 -1.1344
  891MOL0     C20170   4.893   1.350   1.283  0.0436  0.1306  0.0119
  891MOL0     C20171   4.939   1.205   1.257 -0.2513  1.3335  0.8268
  891MOL0     C20172   5.038   1.148   1.361  0.0064 -0.6119  0.2661
  891MOL0     C20173   5.064   1.003   1.338 -0.9127 -0.7026 -0.2631
  891MOL0     O20174   5.131   0.983   1.214 -0.8737 -0.7107  0.2893
  891MOL0     C20175   5.268   1.002   1.210  0.8011 -0.4648  0.0002
  891MOL0     C20176   5.355   1.015   1.316 -0.0056  0.1051 -0.6880
  891MOL0     C20177   5.491   1.046   1.294 -0.1552 -0.8797  0.6003
  891MOL0     C20178   5.540   1.057   1.156  0.1021 -0.5512 -0.0120
  891MOL0     C20179   5.680   1.068   1.122 -0.8032  0.0278 -0.3427
  891MOL0     O20180   5.710   1.097   0.989 -0.0809 -0.4880  0.3309
  891MOL0     C20181   5.846   1.097   0.951 -0.4359  0.4157 -0.4661
  891MOL0     C20182   5.943   0.991   0.964  0.2105 -0.4759 -0.3334
  891MOL0     C20183   6.083   1.015   0.947  0.3673 -0.4971  0.4595
  891MOL0     C20184   6.123   1.135   0.892  0.2501 -1.0485  0.2070
  891MOL0     O20185   6.256   1.146   0.863  0.1455  0.0060  0.0564
  891MOL0     C20186   6.271   1.143   0.719  0.4674  0.3837 -0.0725
  891MOL0     C20187   6.414   1.118   0.689  1.0520 -0.5101 -0.3095
  891MOL0     C20188   6.453   0.973   0.701  0.7579 -0.0018 -0.9247
  891MOL0     C20189   6.435   0.908   0.561  0.3495  0.8913 -0.0428
  891MOL0     C20190   6.482   0.752   0.567 -0.3593 -0.1922  0.1373
  891MOL0     C20191   6.458   0.698   0.424  1.3486 -0.3435 -0.8189
  891MOL0     C20192   6.522   0.562   0.391 -0.6490 -0.0694 -0.3348
  891MOL0     C20193   6.677   0.566   0.406  0.1795 -0.6236  0.0919
  891MOL0    Cl20194   6.751   0.722   0.337 -0.1018 -0.2512 -0.2008
  891MOL0     C20195   6.030   1.240   0.873  0.2555  0.7958 -0.1570
  891MOL0     C20196   5.895   1.224   0.918  0.5136  0.7970  0.2169
  891MOL0     O20197   5.758   1.073   1.218 -0.7145 -0.4301  0.9230
  891MOL0     C20198   5.446   1.050   1.051 -0.0664 -0.4148 -0.4250
  891MOL0     C20199   5.316   1.014   1.081  0.3208  0.5139  0.1415
  891MOL0     N20200   4.924   1.446   1.042 -0.5566  0.2818  0.1725
  891MOL0     N20201   4.996   1.535   0.988  0.2279  0.5260  0.7582
  891MOL0     C20202   4.583   2.329   1.238  1.1544 -0.4624  0.7292
  891MOL0     C20203   4.467   2.308   1.306 -0.5945 -0.4915  0.6661
  891MOL0     C20204   4.179   2.216   1.667  0.3279  0.2097  0.0981
  891MOL0     C20205   4.097   2.280   1.762 -1.4809  0.6339  0.0391
  891MOL0     C20206   3.984   2.217   1.810 -0.2677  0.2200 -0.3167
  891MOL0     C20207   3.951   2.091   1.768 -0.8688  0.5117  0.3689
  891MOL0     O20208   3.824   2.049   1.813 -0.8372 -0.0866  0.2238
  891MOL0     C20209   3.763   1.936   1.739  0.1913  1.7472 -0.6315
  891MOL0     C20210   3.720   1.954   1.599  0.5709 -0.1164  0.4448
  891MOL0     C20211   3.671   2.102   1.578 -0.2855  0.1206  0.1556
  891MOL0     C20212   3.546   2.139   1.657 -0.0835  0.0907  0.4259
  891MOL0     C20213   3.436   2.048   1.606 -0.2229 -0.8254  0.9976
  891MOL0     C20214   3.356   1.968   1.569  0.4726  0.7397  0.1110
  891MOL0     C20215   4.027   2.026   1.668 -0.5077 -0.5705 -0.1351
  891MOL0     C20216   4.155   2.079   1.632  0.4072 -0.0369 -0.0006
  891MOL0     C20217   4.253   2.004   1.545 -0.0726 -0.9406 -1.2232
  891MOL0     H20218   4.603   2.337   1.619  2.3235  2.6071 -0.6933
  891MOL0     H20219   4.793   2.381   1.492 -0.0332  1.9711 -0.6243
  891MOL0     H20220   5.027   2.415   1.213  0.5166  0.3238  0.3730
  891MOL0     H20221   4.947   2.473   1.352 -0.6520 -0.2130 -0.5939
  891MOL0     H20222   4.923   2.212   1.394 -1.2862  3.4152  1.0434
  891MOL0     H20223   5.074   2.300   1.430  1.0652  4.5231 -1.9408
  891MOL0     H20224   5.144   2.105   1.316  3.3925  4.6827  0.5336
  891MOL0     H20225   5.159   2.230   1.194  0.2851 -1.1899 -1.8160
  891MOL0     H20226   4.928   2.031   1.203 -1.7212  0.8607 -0.5576
  891MOL0     H20227   4.929   2.166   1.082 -1.4261  0.4403  2.0081
  891MOL0     H20228   5.013   1.984   0.966 -1.1273  0.3011  0.5056
  891MOL0     H20229   5.151   2.086   0.992 -1.7752 -0.4072 -1.8641
  891MOL0     H20230   5.238   1.924   1.157  0.0068 -0.3054  1.5528
  891MOL0     H20231   5.074   1.856   1.158  1.8757  0.2468  1.6259
  891MOL0     H20232   5.305   1.821   0.945  1.0767 -2.0609  1.3788
  891MOL0     H20233   5.131   1.814   0.902 -2.7788  0.9746  1.8431
  891MOL0     H20234   5.241   1.586   0.929  0.2805  1.7079 -0.2917
  891MOL0     H20235   5.281   1.628   1.096 -1.5262 -0.8591  2.5571
  891MOL0     H20236   5.119   1.550   1.275 -0.1493 -0.8528 -0.3876
  891MOL0     H20237   4.925   1.381   1.383 -0.1941  0.2571  0.0472
  891MOL0     H20238   4.787   1.360   1.261  0.2684  2.8927 -0.0771
  891MOL0     H20239   4.851   1.140   1.268  1.5222 -1.5635 -1.0032
  891MOL0     H20240   4.967   1.198   1.152  0.2455  0.2914  1.0086
  891MOL0     H20241   4.984   1.155   1.457 -0.6276  0.1043 -0.1264
  891MOL0     H20242   5.123   1.217   1.364  0.2500 -0.9337  1.1155
  891MOL0     H20243   4.966   0.954   1.345 -0.9327 -0.4388  3.4498
  891MOL0     H20244   5.126   0.962   1.418  0.5229 -2.3636 -2.1245
  891MOL0     H20245   5.315   1.027   1.416  0.4942 -0.5519 -0.4022
  891MOL0     H20246   5.557   1.075   1.376 -2.1441  3.5505  0.9348
  891MOL0     H20247   5.909   0.889   0.980  0.3261 -0.5125 -0.3229
  891MOL0     H20248   6.149   0.932   0.970 -1.4732 -2.0089  0.4382
  891MOL0     H20249   6.220   1.065   0.662  0.7461  0.9655 -1.1551
  891MOL0     H20250   6.247   1.241   0.676  0.6113  0.5926  0.3258
  891MOL0     H20251   6.417   1.141   0.582  0.0258 -0.4947 -0.3382
  891MOL0     H20252   6.483   1.184   0.743  1.9546 -1.8944  0.2986
  891MOL0     H20253   6.559   0.967   0.728  0.2159 -5.3153  1.2198
  891MOL0     H20254   6.394   0.918   0.775 -0.4911 -2.6689 -3.6755
  891MOL0     H20255   6.491   0.963   0.485 -0.3343  0.0716 -1.1673
  891MOL0     H20256   6.330   0.908   0.530  0.0284  2.6113  0.9184
  891MOL0     H20257   6.425   0.693   0.639  0.1086 -5.0850 -3.0069
  891MOL0     H20258   6.588   0.745   0.595 -0.5276 -0.1860  0.7775
  891MOL0     H20259   6.351   0.701   0.402  1.0219 -1.3041  0.5035
  891MOL0     H20260   6.503   0.770   0.355  2.3181 -1.6225 -1.5862
  891MOL0     H20261   6.497   0.541   0.287 -1.0158  1.8119 -0.6568
  891MOL0     H20262   6.476   0.481   0.450  1.7808  0.5213  2.6614
  891MOL0     H20263   6.702   0.572   0.512  3.6265 -1.9257 -0.5225
  891MOL0     H20264   6.722   0.475   0.366  2.7646 -0.8458  3.1289
  891MOL0     H20265   6.070   1.326   0.821 -0.5629  0.1910 -1.8736
  891MOL0     H20266   5.821   1.302   0.907  1.3751  1.3362 -2.4610
  891MOL0     H20267   5.475   1.060   0.947 -1.6319 -1.6490 -1.0451
  891MOL0     H20268   5.240   0.997   1.005  1.7428 -1.3896 -0.9612
  891MOL0     H20269   4.589   2.333   1.129  0.7612 -0.1715  0.7177
  891MOL0     H20270   4.381   2.314   1.240  0.9167  0.9766 -1.2679
  891MOL0     H20271   4.127   2.378   1.797  1.0669  0.2779 -0.9824
  891MOL0     H20272   3.924   2.273   1.882 -3.8913  0.0090 -2.8853
  891MOL0     H20273   3.676   1.912   1.801 -1.2609  3.5050 -1.8663
  891MOL0     H20274   3.836   1.856   1.743  0.5954  2.0521 -1.5895
  891MOL0     H20275   3.651   1.877   1.564  0.8879  0.2955 -1.1437
  891MOL0     H20276   3.804   1.932   1.532 -1.6148 -1.5127 -2.0066
  891MOL0     H20277   3.653   2.119   1.471  2.6730  0.6788 -0.3363
  891MOL0     H20278   3.752   2.167   1.611 -2.4904  2.1868  1.8245
  891MOL0     H20279   3.567   2.116   1.762  2.1014  0.8977  0.2306
  891MOL0     H20280   3.529   2.246   1.641  2.6075  0.7448  1.3203
  891MOL0     H20281   3.288   1.890   1.544  1.4516 -0.6352  1.5531
  891MOL0     H20282   3.997   1.930   1.628 -0.4897 -0.1320 -1.2405
  891MOL0     H20283   4.346   1.992   1.602 -0.8103  0.9195  0.5101
  891MOL0     H20284   4.202   1.911   1.520 -3.4469  0.8524 -1.5805
  891MOL0     H20285   4.267   2.059   1.452 -1.2916 -1.0013 -1.4580
  892MOL0     O20286   8.384   1.635   8.579 -0.0630 -0.4105 -0.3493
  892MOL0     C20287   8.364   1.515   8.588  0.3672  0.1797 -0.5017
  892MOL0     O20288   8.459   1.433   8.627 -0.4369  0.2020  0.0178
  892MOL0     C20289   8.595   1.476   8.654  0.3841 -0.4828 -0.5970
  892MOL0     C20290   8.650   1.459   8.777  0.5496  0.4548  0.5370
  892MOL0     C20291   8.781   1.504   8.805 -0.5971 -0.5136 -0.0567
  892MOL0     C20292   8.862   1.563   8.698  0.7519  0.0478  0.1552
  892MOL0     O20293   8.985   1.621   8.715  0.6538 -0.1507  0.2492
  892MOL0     C20294   9.039   1.648   8.840  0.1895  0.2561  0.7356
  892MOL0     C20295   9.143   1.752   8.822 -1.1155 -0.6056  0.1076
  892MOL0     C20296   9.274   1.710   8.746 -0.3204  0.9569 -0.6053
  892MOL0     C20297   9.358   1.618   8.839  0.4146 -0.1425 -0.2147
  892MOL0     C20298   9.496   1.566   8.778 -0.8827  0.2152  0.2102
  892MOL0     C20299   9.470   1.427   8.738 -0.1605  0.7776  0.3881
  892MOL0     C20300   9.578   1.378   8.647 -1.1561  0.5535 -0.0565
  892MOL0     C20301   9.573   1.229   8.608 -0.4443  0.8352  0.5392
  892MOL0     N20302   9.707   1.188   8.558 -0.1403 -0.1181  0.0437
  892MOL0     C20303   9.796   1.266   8.489 -0.2054  0.0804  0.1195
  892MOL0     C20304   9.920   1.211   8.500 -0.0379  0.0346 -0.2777
  892MOL0     C20305  10.050   1.280   8.446  1.2763 -0.7479  0.4566
  892MOL0     C20306  10.179   1.251   8.531 -0.1151  0.3461  0.0382
  892MOL0     C20307  10.290   1.324   8.461 -0.3930 -0.3211  0.0150
  892MOL0     C20308  10.294   1.473   8.503  0.1493 -0.7172 -0.6945
  892MOL0     O20309  10.410   1.538   8.449 -0.4287 -0.7413  0.4300
  892MOL0     C20310  10.487   1.620   8.529 -0.3302 -0.0610  0.4507
  892MOL0     C20311  10.601   1.683   8.461 -0.1494  0.0656  0.1104
  892MOL0     C20312  10.690   1.770   8.526 -0.2720  0.5372  0.6511
  892MOL0     C20313  10.673   1.813   8.655 -0.8693  0.1690 -0.2851
  892MOL0     C20314  10.753   1.914   8.720  0.2676  0.2200  0.3532
  892MOL0     O20315  10.819   2.009   8.636  0.4042 -0.7345 -0.5706
  892MOL0     C20316  10.902   2.099   8.706  1.6695 -0.4406  0.1695
  892MOL0     C20317  10.859   2.234   8.702 -0.0730 -0.3170 -0.1152
  892MOL0     C20318  10.940   2.330   8.754  0.3346  0.6004 -0.3871
  892MOL0     C20319  11.070   2.298   8.804  0.1612  0.2472 -0.3742
  892MOL0     O20320  11.155   2.393   8.858  0.2005  0.1844 -0.7980
  892MOL0     C20321  11.124   2.538   8.843 -0.1563  0.9452 -0.3107
  892MOL0     C20322  11.240   2.615   8.917 -0.8436  0.3561  0.7222
  892MOL0     C20323  11.367   2.604   8.841 -0.3277  0.4941  0.0400
  892MOL0     C20324  11.385   2.682   8.707  0.0419  0.5124 -0.5721
  892MOL0     C20325  11.522   2.663   8.639 -0.3473 -0.7941  0.8829
  892MOL0     C20326  11.634   2.686   8.730 -0.3286 -0.1894 -0.2617
  892MOL0     C20327  11.632   2.807   8.821 -0.2856 -0.5509 -1.0306
  892MOL0     C20328  11.741   2.786   8.927  0.6696  0.3115 -0.4199
  892MOL0    Cl20329  11.707   2.899   9.056  0.2157  0.1903  0.5529
  892MOL0     C20330  11.106   2.170   8.808 -0.5985  0.9920  1.0017
  892MOL0     C20331  11.029   2.068   8.762 -0.0969 -1.0169 -0.0106
  892MOL0     O20332  10.758   1.911   8.838 -0.5835  0.7455 -0.5070
  892MOL0     C20333  10.565   1.759   8.714  1.0021 -0.0393  0.6988
  892MOL0     C20334  10.473   1.678   8.651 -0.4246 -0.2625  0.2459
  892MOL0     N20335   9.909   1.101   8.583  1.0563  0.1328  0.0471
  892MOL0     N20336   9.781   1.088   8.617  0.4105  0.3038  0.3906
  892MOL0     C20337   8.805   1.567   8.570  0.8464 -0.1316 -0.4063
  892MOL0     C20338   8.672   1.530   8.553 -0.0692 -0.8015  0.2253
  892MOL0     C20339   8.223   1.469   8.590  1.2246 -0.4450  0.3225
  892MOL0     C20340   8.184   1.367   8.684 -1.0843  0.5547 -0.1255
  892MOL0     C20341   8.052   1.326   8.693 -0.2173  0.0364  0.3268
  892MOL0     C20342   7.952   1.387   8.624  0.5663 -0.3334 -0.3032
  892MOL0     O20343   7.826   1.342   8.643 -0.0708 -0.3410  0.4259
  892MOL0     C20344   7.767   1.437   8.730  0.0698  0.6652  0.8158
  892MOL0     C20345   7.635   1.366   8.781  0.9715 -0.5625 -0.1713
  892MOL0     C20346   7.676   1.249   8.879 -0.2725  0.4048 -0.0454
  892MOL0     C20347   7.698   1.119   8.796  0.4302  0.1708  0.5862
  892MOL0     C20348   7.729   1.016   8.893 -0.5207 -0.9069 -0.2220
  892MOL0     C20349   7.735   0.922   8.973  0.0747  0.2840 -0.4368
  892MOL0     C20350   7.986   1.484   8.523  0.1680 -1.3424 -0.7536
  892MOL0     C20351   8.128   1.516   8.498 -1.0716 -0.5568  0.3429
  892MOL0     C20352   8.148   1.594   8.367 -0.6792 -0.1034 -0.3711
  892MOL0     H20353   8.612   1.400   8.860 -1.0404 -0.1114 -0.5410
  892MOL0     H20354   8.827   1.477   8.900  3.5911  0.5293 -1.5656
  892MOL0     H20355   8.966   1.688   8.911  0.0651 -2.3272  2.1571
  892MOL0     H20356   9.088   1.562   8.886 -0.5347 -0.3731  0.3596
  892MOL0     H20357   9.165   1.794   8.921 -4.6397 -1.1357  1.2360
  892MOL0     H20358   9.092   1.832   8.768 -2.0790 -1.0023  0.4102
  892MOL0     H20359   9.327   1.792   8.699  0.3562  0.3239 -0.9655
  892MOL0     H20360   9.240   1.650   8.661 -3.2276  2.5572 -0.7279
  892MOL0     H20361   9.393   1.681   8.922  3.9959  1.5166 -2.7428
  892MOL0     H20362   9.314   1.531   8.890  2.2096  0.0114  1.7548
  892MOL0     H20363   9.522   1.630   8.693  0.4063 -2.2269 -1.3275
  892MOL0     H20364   9.580   1.587   8.845 -0.6529 -1.3061  0.4197
  892MOL0     H20365   9.463   1.369   8.831 -1.2613  0.7615  0.3080
  892MOL0     H20366   9.374   1.426   8.686  0.2345  1.0789 -0.3669
  892MOL0     H20367   9.673   1.387   8.700  0.1028  0.4578 -2.2121
  892MOL0     H20368   9.573   1.442   8.558 -5.0752  1.1841  0.4292
  892MOL0     H20369   9.538   1.170   8.693  0.2600  2.4335  1.9939
  892MOL0     H20370   9.499   1.221   8.528  0.3508  2.8457 -0.4728
  892MOL0     H20371   9.782   1.364   8.444 -1.5322  0.7544  1.8843
  892MOL0     H20372  10.072   1.260   8.341 -0.1858  3.3508 -0.8411
  892MOL0     H20373  10.039   1.389   8.447  4.6856 -0.2823 -0.4238
  892MOL0     H20374  10.174   1.287   8.635 -0.3834 -0.9059  0.4780
  892MOL0     H20375  10.193   1.143   8.528 -0.3311  0.0451  4.0275
  892MOL0     H20376  10.281   1.332   8.353 -0.7134 -1.6799 -0.0785
  892MOL0     H20377  10.391   1.287   8.485 -0.0989  0.7091  0.4348
  892MOL0     H20378  10.291   1.488   8.611 -4.5792 -2.9000 -0.2939
  892MOL0     H20379  10.205   1.530   8.474 -3.0438 -2.9407  3.6497
  892MOL0     H20380  10.613   1.653   8.358  0.9038  1.2579 -0.1372
  892MOL0     H20381  10.770   1.802   8.460  0.2482  0.0287  1.0304
  892MOL0     H20382  10.770   2.268   8.650  0.6322  0.0605 -1.0993
  892MOL0     H20383  10.914   2.435   8.746 -2.0298  0.0089 -1.0278
  892MOL0     H20384  11.123   2.562   8.736 -0.6371 -0.9516 -0.7744
  892MOL0     H20385  11.026   2.572   8.877  1.0266  3.2434  1.0667
  892MOL0     H20386  11.213   2.721   8.912 -3.1782 -0.2416 -1.7102
  892MOL0     H20387  11.227   2.580   9.020  1.3056 -0.4112  0.7804
  892MOL0     H20388  11.438   2.641   8.915 -0.1624  1.0817 -0.4060
  892MOL0     H20389  11.399   2.500   8.829 -0.2174  0.5400 -0.0680
  892MOL0     H20390  11.389   2.791   8.716  2.7018  0.3976  0.4009
  892MOL0     H20391  11.307   2.665   8.632 -0.3818  0.3941 -0.1126
  892MOL0     H20392  11.517   2.736   8.557 -1.8101  0.5242  2.0577
  892MOL0     H20393  11.525   2.562   8.597 -4.4512 -1.0637  0.7622
  892MOL0     H20394  11.641   2.592   8.785  0.6162  0.5437  0.9428
  892MOL0     H20395  11.733   2.687   8.682  1.4577  1.3645  3.1308
  892MOL0     H20396  11.533   2.815   8.866 -0.0753 -1.8374 -0.2963
  892MOL0     H20397  11.659   2.898   8.766 -0.8651 -1.4033 -2.7823
  892MOL0     H20398  11.721   2.686   8.968 -1.5181  0.5821 -0.7323
  892MOL0     H20399  11.844   2.793   8.891 -0.0326 -0.4341 -2.7124
  892MOL0     H20400  11.202   2.150   8.856 -0.2395 -1.3278 -0.5101
  892MOL0     H20401  11.077   1.970   8.760 -1.3668 -1.7509  2.0121
  892MOL0     H20402  10.544   1.795   8.815 -0.2304 -1.3594  0.9455
  892MOL0     H20403  10.385   1.659   8.711 -0.7959 -2.6166 -0.8916
  892MOL0     H20404   8.859   1.596   8.481 -0.0055  0.5096 -0.7263
  892MOL0     H20405   8.624   1.536   8.456  2.1170 -1.0978 -0.9270
  892MOL0     H20406   8.263   1.325   8.745 -2.0432  2.5731  2.7080
  892MOL0     H20407   8.024   1.262   8.776  0.7614  0.8780  1.3267
  892MOL0     H20408   7.729   1.514   8.662 -2.0287 -0.5410  0.5406
  892MOL0     H20409   7.823   1.463   8.820 -1.9471 -0.7331  2.6007
  892MOL0     H20410   7.568   1.342   8.698  2.5875  0.2192 -1.7828
  892MOL0     H20411   7.579   1.436   8.844  1.8774  1.5526 -1.5653
  892MOL0     H20412   7.594   1.242   8.951 -0.0503 -1.1477  0.0805
  892MOL0     H20413   7.766   1.269   8.938 -0.6105 -0.8799  0.9468
  892MOL0     H20414   7.600   1.090   8.757 -0.1870  0.8325  1.6003
  892MOL0     H20415   7.773   1.125   8.717  0.1921 -2.1467  0.1084
  892MOL0     H20416   7.743   0.852   9.054 -1.3654 -0.2781 -0.7454
  892MOL0     H20417   7.905   1.531   8.469 -0.5431  0.5199  1.7500
  892MOL0     H20418   8.091   1.687   8.375 -1.9327 -0.9437  0.9243
  892MOL0     H20419   8.251   1.629   8.355 -0.6517 -0.6494 -1.9649
  892MOL0     H20420   8.119   1.526   8.286  2.1656 -0.6338 -1.0874
  893MOL0     O20421   4.277   7.806   4.656  0.1416 -0.4654 -0.2118
  893MOL0     C20422   4.232   7.825   4.766  0.7487 -0.3941  0.5625
  893MOL0     O20423   4.293   7.788   4.883 -0.4883  0.1303 -0.3484
  893MOL0     C20424   4.410   7.717   4.868 -0.1391  0.1875  0.9697
  893MOL0     C20425   4.416   7.587   4.891 -0.3884  0.0994 -0.5482
  893MOL0     C20426   4.544   7.513   4.878  0.3103  0.5005 -0.0883
  893MOL0     C20427   4.657   7.585   4.847  0.2893  0.6674  0.6682
  893MOL0     O20428   4.775   7.519   4.836 -0.7030 -0.6069 -0.1356
  893MOL0     C20429   4.784   7.383   4.785  0.3231  0.6992  0.2199
  893MOL0     C20430   4.922   7.355   4.724 -0.4043  0.0288  0.0583
  893MOL0     C20431   5.043   7.385   4.821  0.8415 -0.4804  0.9889
  893MOL0     C20432   5.160   7.296   4.784 -0.0648 -1.2943  0.7521
  893MOL0     C20433   5.282   7.328   4.866 -0.9206  0.2491  0.5911
  893MOL0     C20434   5.399   7.237   4.824 -0.4491 -0.1830 -0.0171
  893MOL0     C20435   5.527   7.259   4.908 -0.8782  0.4609  0.0800
  893MOL0     C20436   5.642   7.160   4.867 -0.0042  0.0687  0.8434
  893MOL0     N20437   5.757   7.188   4.946  0.2360 -0.2996 -0.5028
  893MOL0     C20438   5.763   7.147   5.076  0.0778 -0.4030 -0.4658
  893MOL0     C20439   5.895   7.160   5.109  0.3958 -0.6311  0.7617
  893MOL0     C20440   5.948   7.139   5.244 -0.2136 -0.6030  0.2159
  893MOL0     C20441   5.990   6.996   5.268 -0.2672 -0.0134  0.7542
  893MOL0     C20442   6.122   6.952   5.209 -0.6771  1.0939  0.2549
  893MOL0     C20443   6.158   6.808   5.234  0.2579 -0.8313  0.1792
  893MOL0     O20444   6.142   6.777   5.378 -0.1809  0.1410  0.6908
  893MOL0     C20445   6.124   6.643   5.409 -0.6822 -0.3333  0.1015
  893MOL0     C20446   6.051   6.612   5.533 -0.6036  0.9338 -0.8275
  893MOL0     C20447   6.046   6.476   5.575 -0.0559  0.2983  0.1726
  893MOL0     C20448   6.118   6.380   5.501  0.5898 -1.0955  0.5576
  893MOL0     C20449   6.133   6.237   5.550 -0.8165  0.6416  0.5112
  893MOL0     O20450   6.135   6.217   5.686  0.1461 -0.6097  0.6838
  893MOL0     C20451   6.164   6.095   5.730 -0.0209 -0.4334  0.2761
  893MOL0     C20452   6.088   5.981   5.699 -0.1903  0.8791 -0.1741
  893MOL0     C20453   6.123   5.864   5.757  0.3268  0.2255 -0.0867
  893MOL0     C20454   6.226   5.849   5.845  0.6765 -0.9876  0.1708
  893MOL0     O20455   6.246   5.728   5.900  1.0539 -1.3987  0.1988
  893MOL0     C20456   6.318   5.716   6.021 -0.1357  0.2463 -0.1219
  893MOL0     C20457   6.288   5.574   6.083 -1.2327 -0.3776  1.4041
  893MOL0     C20458   6.151   5.569   6.151 -0.0949  0.0862 -0.2789
  893MOL0     C20459   6.129   5.439   6.232 -0.4267 -0.4098 -0.4879
  893MOL0     C20460   5.977   5.418   6.240  0.4867 -0.1888 -0.2731
  893MOL0     C20461   5.909   5.519   6.322 -0.3845  0.6678 -0.8875
  893MOL0     C20462   5.758   5.494   6.327  0.3376 -0.0825 -0.2648
  893MOL0     C20463   5.685   5.528   6.203  0.2749  0.7992 -0.3607
  893MOL0    Cl20464   5.512   5.525   6.232 -0.7494 -0.0535  0.4049
  893MOL0     C20465   6.296   5.964   5.881  0.4397  0.7615  0.9737
  893MOL0     C20466   6.270   6.090   5.818  0.7525 -0.0867  0.2194
  893MOL0     O20467   6.156   6.146   5.461  0.3663  0.3847 -0.3289
  893MOL0     C20468   6.174   6.412   5.379 -0.1743  0.1117  0.0914
  893MOL0     C20469   6.188   6.543   5.336  0.0317 -0.4472 -0.1115
  893MOL0     N20470   5.970   7.199   4.988 -0.3289  0.5879  0.4033
  893MOL0     N20471   5.885   7.217   4.892  0.6503 -0.5474 -0.5844
  893MOL0     C20472   4.642   7.721   4.824 -1.0904  0.1886  0.1222
  893MOL0     C20473   4.518   7.789   4.826 -0.4908  0.0503 -0.3114
  893MOL0     C20474   4.097   7.877   4.780 -0.8731  0.4061 -0.1285
  893MOL0     C20475   4.064   7.921   4.906  0.6933 -0.8495  0.4692
  893MOL0     C20476   3.930   7.961   4.927 -0.6192 -0.0866 -0.0681
  893MOL0     C20477   3.836   7.967   4.826  0.1902  0.3486  0.4838
  893MOL0     O20478   3.709   8.022   4.859  0.4555  0.0386 -0.4425
  893MOL0     C20479   3.619   8.046   4.755 -0.5261 -0.3884 -0.4404
  893MOL0     C20480   3.488   8.106   4.812 -0.7712  0.5177 -0.3674
  893MOL0     C20481   3.500   8.243   4.870  0.6256 -0.3176 -0.4033
  893MOL0     C20482   3.512   8.347   4.768  0.0590 -0.0468  1.0216
  893MOL0     C20483   3.520   8.481   4.829 -0.1524 -0.6366  0.2538
  893MOL0     C20484   3.515   8.589   4.892  0.1817 -0.5182 -0.1167
  893MOL0     C20485   3.874   7.920   4.705  0.0659 -0.5746 -1.0061
  893MOL0     C20486   4.000   7.873   4.676  0.3794 -0.0200 -0.5856
  893MOL0     C20487   4.017   7.813   4.537  0.8371 -0.1852  0.2343
  893MOL0     H20488   4.328   7.533   4.926  0.4335 -1.4045 -0.7041
  893MOL0     H20489   4.542   7.405   4.889 -2.3548  0.4082 -0.8264
  893MOL0     H20490   4.749   7.323   4.870  0.1241 -0.5938 -0.7424
  893MOL0     H20491   4.713   7.367   4.704  0.6059  0.3779  0.0327
  893MOL0     H20492   4.930   7.410   4.630  0.7189 -0.5148 -0.1750
  893MOL0     H20493   4.919   7.251   4.694  1.2693 -0.2440  0.7141
  893MOL0     H20494   5.011   7.373   4.925  0.7467  0.3269  1.0658
  893MOL0     H20495   5.074   7.489   4.806  0.9062 -0.8968 -2.6577
  893MOL0     H20496   5.125   7.193   4.796  0.5967 -1.9293 -2.1110
  893MOL0     H20497   5.196   7.320   4.683  3.9220  2.9486  2.7677
  893MOL0     H20498   5.316   7.431   4.856 -2.0786  0.5239 -0.7221
  893MOL0     H20499   5.271   7.315   4.974  0.0720  1.5786  0.8758
  893MOL0     H20500   5.367   7.132   4.829  1.8964 -0.9710 -0.4908
  893MOL0     H20501   5.423   7.253   4.719  1.0661 -3.1309 -0.2194
  893MOL0     H20502   5.502   7.243   5.013 -0.8337 -2.8327 -0.3056
  893MOL0     H20503   5.573   7.358   4.900  2.8336 -1.0616  0.6854
  893MOL0     H20504   5.615   7.060   4.903  3.4520 -0.3141  2.8468
  893MOL0     H20505   5.662   7.167   4.760  1.4117  1.5556  1.1645
  893MOL0     H20506   5.676   7.119   5.135 -0.6266 -1.4445 -1.9483
  893MOL0     H20507   6.039   7.194   5.272 -0.5914 -0.2360  0.7464
  893MOL0     H20508   5.868   7.152   5.317 -1.6880 -2.7511 -0.9225
  893MOL0     H20509   5.992   6.988   5.377 -2.0761  0.9314  0.8961
  893MOL0     H20510   5.911   6.926   5.238  0.7516 -0.9426  0.1549
  893MOL0     H20511   6.207   7.011   5.245 -0.2870  1.0860 -0.6231
  893MOL0     H20512   6.124   6.953   5.100  2.1113  0.4709  0.2217
  893MOL0     H20513   6.262   6.791   5.207 -0.3388 -2.3849 -1.3592
  893MOL0     H20514   6.095   6.742   5.173 -0.8573 -1.1348  1.6110
  893MOL0     H20515   6.021   6.696   5.596  0.0712  2.5297 -2.5304
  893MOL0     H20516   6.008   6.445   5.671 -0.5107 -0.2650 -0.1824
  893MOL0     H20517   6.001   5.972   5.635 -1.2438  1.7537  1.0567
  893MOL0     H20518   6.059   5.779   5.734  0.3808  0.1247  0.1352
  893MOL0     H20519   6.423   5.736   5.998  0.5468 -0.1147  2.4069
  893MOL0     H20520   6.295   5.788   6.099 -1.6286 -0.8678  0.5233
  893MOL0     H20521   6.299   5.504   6.000  1.0662 -0.0318  1.3563
  893MOL0     H20522   6.363   5.542   6.156 -1.2699 -3.1105  0.3592
  893MOL0     H20523   6.130   5.658   6.212 -0.3891  0.1334 -0.4495
  893MOL0     H20524   6.076   5.579   6.072 -0.6169  1.1512  0.3248
  893MOL0     H20525   6.169   5.458   6.332  2.2714  0.7562 -1.6775
  893MOL0     H20526   6.178   5.349   6.194 -0.6427 -2.1138  2.8540
  893MOL0     H20527   5.964   5.325   6.297 -3.0339  0.9873  1.1527
  893MOL0     H20528   5.929   5.414   6.142 -0.5777 -0.3846  0.2419
  893MOL0     H20529   5.951   5.518   6.423  3.3004  1.4101 -2.2695
  893MOL0     H20530   5.927   5.619   6.280  0.6683  0.1776 -1.6308
  893MOL0     H20531   5.713   5.556   6.404 -1.2053  0.3602 -1.4577
  893MOL0     H20532   5.738   5.391   6.358 -1.8070  0.5504  0.6876
  893MOL0     H20533   5.712   5.630   6.176  0.9313  0.2105 -2.1442
  893MOL0     H20534   5.703   5.462   6.117 -3.8549  2.0163 -2.4658
  893MOL0     H20535   6.358   5.953   5.970 -0.9222  0.1788  1.8725
  893MOL0     H20536   6.326   6.180   5.841  0.2093  0.3668 -0.1949
  893MOL0     H20537   6.240   6.346   5.323  1.0027  2.0151 -0.8691
  893MOL0     H20538   6.252   6.573   5.254  0.3584  0.9923  0.6361
  893MOL0     H20539   4.739   7.767   4.807  1.1526 -2.9084  3.0873
  893MOL0     H20540   4.500   7.896   4.821 -2.6732 -0.3163 -2.0856
  893MOL0     H20541   4.126   7.918   4.994 -1.2601 -0.8231  1.9115
  893MOL0     H20542   3.915   7.995   5.029 -1.8995  0.5678 -0.4556
  893MOL0     H20543   3.600   7.953   4.701  0.7704 -0.4101 -0.8745
  893MOL0     H20544   3.662   8.118   4.685 -0.2256  1.2494  1.3336
  893MOL0     H20545   3.450   8.041   4.891 -0.6397  0.4459 -0.3632
  893MOL0     H20546   3.423   8.098   4.724  2.2263 -2.5410 -2.5568
  893MOL0     H20547   3.590   8.243   4.931  1.7743 -4.3744 -1.7729
  893MOL0     H20548   3.412   8.278   4.925 -0.2154 -1.3501 -1.0446
  893MOL0     H20549   3.596   8.331   4.699 -2.8795 -2.1395 -2.4322
  893MOL0     H20550   3.429   8.345   4.697  0.8222 -0.2387  0.1123
  893MOL0     H20551   3.509   8.682   4.944  3.7362 -0.4433  0.4330
  893MOL0     H20552   3.801   7.922   4.625  0.0276 -2.6635 -1.0669
  893MOL0     H20553   3.927   7.805   4.474  2.1499 -3.2621 -1.5232
  893MOL0     H20554   4.095   7.870   4.485 -0.9153  0.9689 -1.2961
  893MOL0     H20555   4.047   7.708   4.537  1.5230 -0.0067 -0.7314
  894MOL0     O20556   1.083   6.073   1.050  0.1184  0.1521 -0.5386
  894MOL0     C20557   1.161   6.168   1.048 -0.1489  1.1348  0.2840
  894MOL0     O20558   1.155   6.279   1.136 -0.1144  0.5704  0.3669
  894MOL0     C20559   1.064   6.270   1.244  1.3272  0.3609 -0.4625
  894MOL0     C20560   0.937   6.339   1.246 -0.8581  0.2762  0.3286
  894MOL0     C20561   0.848   6.324   1.354  0.0436 -0.5852  0.1035
  894MOL0     C20562   0.886   6.265   1.470 -0.5893  1.1375 -0.1422
  894MOL0     O20563   0.798   6.276   1.575 -0.5078 -0.0544  0.3092
  894MOL0     C20564   0.813   6.203   1.698 -0.3489  0.2849  0.8275
  894MOL0     C20565   0.807   6.045   1.681 -0.3524  0.0052  0.2345
  894MOL0     C20566   0.675   5.999   1.627  1.2037 -0.2739  0.6745
  894MOL0     C20567   0.666   5.850   1.620  0.6923  0.0646  0.5268
  894MOL0     C20568   0.525   5.806   1.581 -0.9270 -0.7628  1.6039
  894MOL0     C20569   0.518   5.654   1.575 -0.1957  0.2737 -0.3448
  894MOL0     C20570   0.372   5.621   1.602  0.3091 -0.6674  0.5628
  894MOL0     C20571   0.332   5.486   1.661 -0.0295 -0.4893  0.3334
  894MOL0     N20572   0.186   5.474   1.644  0.2085 -0.5414  0.1129
  894MOL0     C20573   0.098   5.455   1.753  0.6722 -0.2067 -0.3096
  894MOL0     C20574  -0.028   5.464   1.694 -0.3627 -0.0998  1.1653
  894MOL0     C20575  -0.162   5.461   1.759  0.3831 -0.0621  0.4222
  894MOL0     C20576  -0.221   5.592   1.803  0.4795  0.1626  0.2368
  894MOL0     C20577  -0.160   5.653   1.927 -0.7016 -1.2223  0.2021
  894MOL0     C20578  -0.026   5.735   1.911 -1.0183  0.0383  0.7659
  894MOL0     O20579   0.084   5.659   1.957  0.3600 -0.8981  0.8259
  894MOL0     C20580   0.206   5.716   1.955 -0.3187 -0.0787 -0.7449
  894MOL0     C20581   0.237   5.857   1.939  0.4294  0.4638 -0.3879
  894MOL0     C20582   0.358   5.914   1.961 -0.7477  0.2642  0.1098
  894MOL0     C20583   0.466   5.825   1.991  0.0467 -0.8785 -1.2425
  894MOL0     C20584   0.604   5.884   2.019 -0.5884 -0.1329  0.0022
  894MOL0     O20585   0.691   5.808   2.096  0.7705 -0.2195 -0.1301
  894MOL0     C20586   0.808   5.848   2.141 -0.2303  0.0915  0.4743
  894MOL0     C20587   0.818   5.921   2.259 -0.0443 -1.0810  0.0582
  894MOL0     C20588   0.945   5.960   2.304  0.3163 -0.1002 -0.8666
  894MOL0     C20589   1.058   5.913   2.231 -0.1323 -0.3947  0.0954
  894MOL0     O20590   1.178   5.926   2.287  0.5523  0.1003 -0.2273
  894MOL0     C20591   1.247   5.803   2.308 -0.2117 -0.5077 -0.4983
  894MOL0     C20592   1.364   5.835   2.401 -0.0941  0.3761 -1.0547
  894MOL0     C20593   1.459   5.954   2.365 -0.4741  0.4282 -0.4808
  894MOL0     C20594   1.523   5.939   2.228 -0.8418 -0.1742 -0.3948
  894MOL0     C20595   1.630   6.043   2.214  0.4188  0.8563 -0.0166
  894MOL0     C20596   1.676   6.076   2.071  0.4678 -0.5696  0.1433
  894MOL0     C20597   1.754   5.954   2.022  0.6335  0.3595  0.4778
  894MOL0     C20598   1.823   5.961   1.886  0.6866 -0.5307  1.1119
  894MOL0    Cl20599   1.965   6.064   1.865 -0.2953 -0.1183  0.2929
  894MOL0     C20600   1.039   5.860   2.099 -0.9879  0.2251  0.2181
  894MOL0     C20601   0.920   5.816   2.064 -0.0222  0.5087 -0.2846
  894MOL0     O20602   0.637   5.992   1.965  0.3623 -0.0582  0.4555
  894MOL0     C20603   0.445   5.690   2.002 -0.0330  0.5364  0.3236
  894MOL0     C20604   0.314   5.635   1.989  0.9390 -0.0805  0.1362
  894MOL0     N20605  -0.021   5.495   1.560 -1.1208  0.0596 -0.0823
  894MOL0     N20606   0.102   5.487   1.532 -0.0442 -0.8385  0.4577
  894MOL0     C20607   1.014   6.213   1.477  0.2369  0.0993 -0.6950
  894MOL0     C20608   1.105   6.211   1.364  1.4878  0.2845  0.5647
  894MOL0     C20609   1.268   6.151   0.955 -0.3462 -0.4339  0.7257
  894MOL0     C20610   1.400   6.127   1.013  0.8627 -0.4507  0.7759
  894MOL0     C20611   1.508   6.097   0.932 -0.2481 -1.0552  0.0701
  894MOL0     C20612   1.485   6.104   0.787 -0.2111 -0.0455 -0.3004
  894MOL0     O20613   1.592   6.099   0.694  0.5706  0.6149 -0.7868
  894MOL0     C20614   1.694   6.005   0.731  0.1327 -0.6914  0.3820
  894MOL0     C20615   1.642   5.864   0.752  0.3804  0.0051 -0.0855
  894MOL0     C20616   1.753   5.761   0.800  0.0917  0.7648  0.4943
  894MOL0     C20617   1.796   5.776   0.946 -1.2426  0.4425  0.1043
  894MOL0     C20618   1.842   5.643   1.008 -0.1478 -0.5169 -0.2939
  894MOL0     C20619   1.866   5.537   1.059  0.1104 -0.3420 -0.8267
  894MOL0     C20620   1.365   6.138   0.733 -0.1867 -0.6049 -0.3727
  894MOL0     C20621   1.249   6.151   0.812 -0.1877  0.0735 -1.0391
  894MOL0     C20622   1.116   6.150   0.744  0.5491  0.8427  0.4446
  894MOL0     H20623   0.937   6.414   1.167  1.2481  1.4718  1.3771
  894MOL0     H20624   0.746   6.360   1.354 -0.8760 -2.9471  1.9126
  894MOL0     H20625   0.913   6.229   1.733 -0.7206  3.6061 -0.2205
  894MOL0     H20626   0.744   6.237   1.777 -1.6179  0.7530 -0.4339
  894MOL0     H20627   0.824   5.997   1.778 -2.4254  0.4955  0.8992
  894MOL0     H20628   0.883   6.003   1.615  0.1635 -0.6219  1.2187
  894MOL0     H20629   0.663   6.040   1.526 -1.2535 -1.7113  0.2896
  894MOL0     H20630   0.596   6.038   1.692  1.3588 -1.7472  1.7869
  894MOL0     H20631   0.740   5.810   1.551  0.7508  0.3916  0.3949
  894MOL0     H20632   0.671   5.820   1.725  0.9237  0.9206  0.7758
  894MOL0     H20633   0.461   5.848   1.659 -1.3420  1.6856  0.0483
  894MOL0     H20634   0.490   5.848   1.486  0.6292 -0.5675  1.0900
  894MOL0     H20635   0.546   5.613   1.477 -0.1551  1.9259 -1.0576
  894MOL0     H20636   0.580   5.615   1.656 -0.8128 -0.6327 -0.2912
  894MOL0     H20637   0.315   5.640   1.511  1.3014  0.7714  0.2084
  894MOL0     H20638   0.322   5.697   1.663  2.4202  1.3986 -0.1575
  894MOL0     H20639   0.389   5.413   1.602  1.2339  1.2358 -0.6806
  894MOL0     H20640   0.363   5.465   1.764 -0.6652 -3.6067 -0.0004
  894MOL0     H20641   0.118   5.438   1.859 -1.0179  1.3793  0.3228
  894MOL0     H20642  -0.230   5.434   1.678  0.1173 -0.2318  0.6979
  894MOL0     H20643  -0.163   5.381   1.833 -0.3213  0.5464  1.0890
  894MOL0     H20644  -0.229   5.665   1.722 -2.3059 -1.0614 -0.7071
  894MOL0     H20645  -0.327   5.570   1.818  0.3242  1.5607  1.4498
  894MOL0     H20646  -0.155   5.589   2.015 -0.1552  1.2504  2.0741
  894MOL0     H20647  -0.230   5.733   1.952 -2.0662 -1.3375 -2.7553
  894MOL0     H20648  -0.027   5.825   1.972  1.0377  0.7606 -0.1646
  894MOL0     H20649  -0.009   5.762   1.806 -0.4170 -0.1006  0.8280
  894MOL0     H20650   0.164   5.928   1.901  1.0024 -0.4303 -3.4233
  894MOL0     H20651   0.386   6.018   1.952  3.5250 -0.5934  1.3384
  894MOL0     H20652   0.742   5.963   2.324  0.6905  1.3733 -0.5728
  894MOL0     H20653   0.968   6.014   2.395 -0.9686  0.0838 -0.6206
  894MOL0     H20654   1.178   5.734   2.357 -1.0104  0.8801  0.4022
  894MOL0     H20655   1.277   5.757   2.213 -0.7197  0.5109 -1.1853
  894MOL0     H20656   1.316   5.847   2.498  1.4289 -1.0929 -0.0568
  894MOL0     H20657   1.434   5.751   2.394 -2.1188 -1.7095  1.6984
  894MOL0     H20658   1.417   6.055   2.376 -2.5245 -0.3442 -0.6454
  894MOL0     H20659   1.542   5.951   2.436 -1.2384 -0.4757  0.4034
  894MOL0     H20660   1.437   5.960   2.163 -3.5030 -0.1590  2.8482
  894MOL0     H20661   1.564   5.838   2.239  3.5487  1.4844  0.1552
  894MOL0     H20662   1.721   6.019   2.270  0.5817 -1.0837 -1.0127
  894MOL0     H20663   1.581   6.134   2.249 -2.7468 -0.0888 -1.5903
  894MOL0     H20664   1.586   6.102   2.014  0.8775 -0.1823 -0.3515
  894MOL0     H20665   1.752   6.155   2.081 -0.5906  0.4010  0.7096
  894MOL0     H20666   1.682   5.873   2.029 -0.4903  1.3798  1.1379
  894MOL0     H20667   1.838   5.930   2.087 -1.0388 -0.0463  2.5713
  894MOL0     H20668   1.859   5.863   1.856  1.8097 -0.4637  2.1531
  894MOL0     H20669   1.750   5.982   1.807 -1.8477  2.7978  3.9742
  894MOL0     H20670   1.126   5.848   2.036 -2.3044  1.3573 -1.9342
  894MOL0     H20671   0.909   5.754   1.975  3.5806 -1.3207  0.3469
  894MOL0     H20672   0.527   5.626   2.032 -0.6209 -0.8599 -0.9168
  894MOL0     H20673   0.305   5.528   2.010 -0.1671 -0.1943 -0.8710
  894MOL0     H20674   1.044   6.166   1.570 -1.2066  0.4256 -0.0388
  894MOL0     H20675   1.204   6.170   1.381  0.9848 -0.1933  2.6152
  894MOL0     H20676   1.420   6.140   1.119 -1.2774 -2.0554  1.4318
  894MOL0     H20677   1.606   6.093   0.980 -0.1190  1.2759  0.1140
  894MOL0     H20678   1.744   6.053   0.815 -2.9174  2.9683  0.3793
  894MOL0     H20679   1.771   6.000   0.653  0.6658 -0.8006  0.9103
  894MOL0     H20680   1.589   5.832   0.662 -0.6842  0.4038  0.3775
  894MOL0     H20681   1.556   5.866   0.820  0.1010  0.9336 -0.4478
  894MOL0     H20682   1.847   5.772   0.746  0.6166 -1.3586  0.8851
  894MOL0     H20683   1.729   5.658   0.772  1.7215  0.4410  0.1786
  894MOL0     H20684   1.873   5.853   0.945 -1.7583  0.9627 -0.0067
  894MOL0     H20685   1.715   5.818   1.006 -0.7629  0.7847  0.5121
  894MOL0     H20686   1.878   5.436   1.093  1.1294 -0.2036 -0.7449
  894MOL0     H20687   1.358   6.134   0.625 -2.7334  0.0105 -0.2947
  894MOL0     H20688   1.057   6.211   0.813  0.1660  0.4784  0.4371
  894MOL0     H20689   1.130   6.208   0.652  1.1617  0.5987  0.3762
  894MOL0     H20690   1.068   6.054   0.724  0.6821  1.1358 -1.4494
  895MOL0     O20691   0.017   0.989   4.591 -1.1334 -0.7359  0.8789
  895MOL0     C20692   0.020   0.893   4.666  0.8985 -0.3556 -0.7458
  895MOL0     O20693  -0.082   0.801   4.678 -0.5735 -0.5638 -0.1613
  895MOL0     C20694  -0.198   0.822   4.602 -0.3128 -0.0438 -0.2866
  895MOL0     C20695  -0.207   0.812   4.461 -0.1711 -0.0851  0.3066
  895MOL0     C20696  -0.325   0.821   4.395  0.9633  0.5030  0.7043
  895MOL0     C20697  -0.446   0.828   4.465  0.2772  0.9254  0.1682
  895MOL0     O20698  -0.569   0.815   4.402 -0.3787  0.1729  0.3647
  895MOL0     C20699  -0.603   0.932   4.320 -0.5838 -0.2671  0.4335
  895MOL0     C20700  -0.746   0.947   4.272  0.1491 -0.4860 -0.7322
  895MOL0     C20701  -0.845   0.954   4.388  0.4864  0.2713  0.2661
  895MOL0     C20702  -0.977   1.023   4.351 -0.7090 -0.7782  1.0254
  895MOL0     C20703  -1.035   0.989   4.212  0.2293  0.8006 -0.1159
  895MOL0     C20704  -1.059   0.838   4.179  0.1605  0.3232  0.3217
  895MOL0     C20705  -1.099   0.824   4.033 -0.1119 -0.0908 -0.7298
  895MOL0     C20706  -0.997   0.852   3.925 -1.2938  0.2999 -1.5795
  895MOL0     N20707  -1.039   0.814   3.789  0.6797  1.2198 -0.5336
  895MOL0     C20708  -1.143   0.857   3.713 -0.0909  0.5149 -0.6251
  895MOL0     C20709  -1.136   0.781   3.600 -0.6792 -0.1216 -0.3170
  895MOL0     C20710  -1.236   0.800   3.484  0.0215  0.0100 -0.5573
  895MOL0     C20711  -1.162   0.833   3.350 -1.1261 -0.4141  0.1858
  895MOL0     C20712  -1.161   0.713   3.254  0.1788  0.7236  0.2273
  895MOL0     C20713  -1.289   0.677   3.188  0.2296  0.1565 -0.2087
  895MOL0     O20714  -1.324   0.784   3.100  1.0126 -0.8594 -0.1473
  895MOL0     C20715  -1.454   0.781   3.049 -0.9900  1.0042 -0.4285
  895MOL0     C20716  -1.536   0.662   3.047  0.8770  0.5511 -0.0335
  895MOL0     C20717  -1.661   0.659   2.975  0.7440  0.0193 -0.1564
  895MOL0     C20718  -1.697   0.777   2.908 -0.7746 -0.5380  0.7516
  895MOL0     C20719  -1.830   0.787   2.835 -0.4883  1.3836  0.2385
  895MOL0     O20720  -1.857   0.894   2.760 -0.6755  0.7062 -0.4065
  895MOL0     C20721  -1.967   0.918   2.691 -0.2087 -0.8271 -0.5301
  895MOL0     C20722  -2.091   0.868   2.734  0.5105 -0.3332  0.1264
  895MOL0     C20723  -2.211   0.880   2.648 -0.2547 -0.7540 -0.1659
  895MOL0     C20724  -2.202   0.941   2.519  0.1179  0.2903  0.1041
  895MOL0     O20725  -2.303   0.957   2.430  0.2938 -0.4124 -0.3195
  895MOL0     C20726  -2.431   0.918   2.473 -0.1074 -0.6818 -0.1352
  895MOL0     C20727  -2.530   0.947   2.363  0.2333 -0.5457 -0.2900
  895MOL0     C20728  -2.593   1.085   2.367  0.3582 -0.5637  0.2970
  895MOL0     C20729  -2.699   1.116   2.258  0.2788  0.5493  0.0195
  895MOL0     C20730  -2.774   1.249   2.288 -0.3089 -0.4194  0.1390
  895MOL0     C20731  -2.903   1.261   2.205  1.3344  1.4397 -0.3370
  895MOL0     C20732  -2.953   1.395   2.172  0.3363  0.5579  0.1270
  895MOL0     C20733  -3.002   1.458   2.304 -0.7822 -0.1538  0.5629
  895MOL0    Cl20734  -3.107   1.603   2.272  0.2079  0.2434 -0.3369
  895MOL0     C20735  -2.078   0.996   2.493 -0.2949 -0.1018 -0.1438
  895MOL0     C20736  -1.963   0.991   2.573 -0.5281  0.1944 -0.6241
  895MOL0     O20737  -1.908   0.693   2.844  0.2000  0.3798 -0.8451
  895MOL0     C20738  -1.609   0.889   2.899 -0.3431  0.3195  0.5581
  895MOL0     C20739  -1.490   0.891   2.967  0.7834 -0.7267  0.0851
  895MOL0     N20740  -1.019   0.704   3.600 -0.7326  0.0352  0.2439
  895MOL0     N20741  -0.964   0.724   3.719 -0.2027 -0.2512  0.4339
  895MOL0     C20742  -0.440   0.829   4.604  0.6237 -0.7914  0.0616
  895MOL0     C20743  -0.319   0.835   4.675  0.4751  0.1085 -0.6478
  895MOL0     C20744   0.123   0.881   4.767  0.1736  1.1240 -0.5241
  895MOL0     C20745   0.080   0.833   4.895 -0.0835 -0.1219  0.8740
  895MOL0     C20746   0.172   0.832   5.001  0.0754 -0.6640 -0.1114
  895MOL0     C20747   0.303   0.885   4.988 -0.1588 -0.7663 -0.5333
  895MOL0     O20748   0.393   0.891   5.085  0.2109  0.0885 -0.5469
  895MOL0     C20749   0.360   0.911   5.221  0.3559 -0.0781  0.1263
  895MOL0     C20750   0.320   1.060   5.235  0.2460  0.3163 -0.3038
  895MOL0     C20751   0.258   1.086   5.372  0.4942 -0.1755 -0.2326
  895MOL0     C20752   0.188   1.222   5.390 -0.5814 -0.4955 -0.0581
  895MOL0     C20753   0.053   1.234   5.329 -0.5315 -0.2750 -0.4833
  895MOL0     C20754  -0.053   1.251   5.279 -0.2615 -0.3916  0.0896
  895MOL0     C20755   0.343   0.930   4.858 -0.6088 -0.7768 -0.2345
  895MOL0     C20756   0.252   0.930   4.750 -0.7556 -0.2227 -0.4139
  895MOL0     C20757   0.304   0.979   4.615 -0.0863  0.2466 -0.1663
  895MOL0     H20758  -0.129   0.786   4.391 -0.9050 -1.7652  0.0581
  895MOL0     H20759  -0.323   0.805   4.288 -2.5501 -1.1783  0.7453
  895MOL0     H20760  -0.570   1.016   4.381 -0.7483  0.3506 -0.3208
  895MOL0     H20761  -0.538   0.931   4.232 -1.7270 -1.6796 -0.4572
  895MOL0     H20762  -0.759   0.865   4.200  2.1181  0.3492 -2.1461
  895MOL0     H20763  -0.749   1.038   4.211 -0.5823  1.2735  1.7894
  895MOL0     H20764  -0.795   0.998   4.475 -1.6481  2.3199  0.5584
  895MOL0     H20765  -0.869   0.851   4.415 -0.6843  0.4968  0.1648
  895MOL0     H20766  -1.044   0.988   4.430 -0.5779 -1.1591  0.9703
  895MOL0     H20767  -0.948   1.128   4.358  1.9501 -1.4163  0.6359
  895MOL0     H20768  -1.133   1.033   4.193 -1.5805 -3.2357 -1.2083
  895MOL0     H20769  -0.964   1.013   4.132  0.7415 -3.4540 -1.1790
  895MOL0     H20770  -0.963   0.786   4.185  0.6232  1.3039  2.1451
  895MOL0     H20771  -1.119   0.798   4.261  2.4870  2.4860  3.2792
  895MOL0     H20772  -1.179   0.896   4.018  1.5817  1.5049 -2.8131
  895MOL0     H20773  -1.131   0.720   4.019  0.1550 -0.2055 -0.5056
  895MOL0     H20774  -0.972   0.958   3.915 -0.3814  0.1424 -1.1100
  895MOL0     H20775  -0.907   0.798   3.956 -0.7772  1.3712 -1.1409
  895MOL0     H20776  -1.225   0.926   3.730 -0.6626 -0.0918 -0.8921
  895MOL0     H20777  -1.305   0.714   3.484  1.7490 -1.4348 -0.2696
  895MOL0     H20778  -1.308   0.878   3.509  1.6251  1.0003  1.1861
  895MOL0     H20779  -1.198   0.932   3.321 -1.9199  0.5157  3.8604
  895MOL0     H20780  -1.057   0.843   3.379 -0.6100 -2.4030 -0.7771
  895MOL0     H20781  -1.127   0.624   3.308  0.4341  0.7665  0.1403
  895MOL0     H20782  -1.089   0.742   3.177  1.5994  4.5393  2.7174
  895MOL0     H20783  -1.371   0.659   3.258 -1.6990 -0.8160 -2.5726
  895MOL0     H20784  -1.287   0.589   3.122 -0.9040 -1.2042  1.4820
  895MOL0     H20785  -1.520   0.576   3.112  1.9412  0.7545 -0.0140
  895MOL0     H20786  -1.737   0.582   2.986  1.6368 -0.6662  1.6292
  895MOL0     H20787  -2.096   0.823   2.833  4.0445 -0.4438  0.3804
  895MOL0     H20788  -2.308   0.846   2.683 -0.5540  1.3435  1.2262
  895MOL0     H20789  -2.433   0.811   2.495 -1.7631 -0.7151 -0.3121
  895MOL0     H20790  -2.458   0.960   2.570 -1.4381 -1.0895 -0.3044
  895MOL0     H20791  -2.490   0.924   2.264  0.5383 -2.4588  0.2424
  895MOL0     H20792  -2.612   0.876   2.371 -1.4318  1.3513  0.5552
  895MOL0     H20793  -2.640   1.089   2.465 -1.1573 -2.0789 -0.3127
  895MOL0     H20794  -2.506   1.151   2.357  2.9214 -3.8702 -1.1536
  895MOL0     H20795  -2.765   1.029   2.261 -1.6687  1.9940  1.7342
  895MOL0     H20796  -2.651   1.128   2.160 -0.9226  2.2234 -0.4075
  895MOL0     H20797  -2.702   1.326   2.259 -0.4040 -0.6664 -0.7887
  895MOL0     H20798  -2.797   1.260   2.395 -1.3179  0.3057 -0.1419
  895MOL0     H20799  -2.876   1.209   2.113 -0.5799  1.7221 -1.0906
  895MOL0     H20800  -2.990   1.203   2.238  0.5704  1.3581 -2.3504
  895MOL0     H20801  -3.039   1.385   2.105  1.1917 -1.4694 -0.7508
  895MOL0     H20802  -2.875   1.458   2.127 -1.1582  2.2807 -0.1786
  895MOL0     H20803  -3.048   1.387   2.374 -3.8510  0.9427 -0.1757
  895MOL0     H20804  -2.921   1.504   2.362 -0.6097 -0.2274  0.3808
  895MOL0     H20805  -2.077   1.034   2.391  1.4028 -2.8108 -1.2414
  895MOL0     H20806  -1.870   1.040   2.545 -0.3174  0.6675  0.7923
  895MOL0     H20807  -1.634   0.974   2.837  2.4793 -0.1619 -1.4043
  895MOL0     H20808  -1.422   0.975   2.955 -0.9864  1.7021  4.6608
  895MOL0     H20809  -0.532   0.824   4.661  1.2783  0.1345  1.2340
  895MOL0     H20810  -0.318   0.846   4.783  2.7114  2.2195 -0.7821
  895MOL0     H20811  -0.016   0.787   4.914  1.7053 -4.4539  0.6205
  895MOL0     H20812   0.153   0.791   5.099  4.8379  0.3706  1.5273
  895MOL0     H20813   0.443   0.894   5.289 -0.1097 -3.1570  0.0683
  895MOL0     H20814   0.279   0.844   5.253  1.7792 -2.1553 -0.4008
  895MOL0     H20815   0.249   1.092   5.159 -0.8029 -1.1867  0.0112
  895MOL0     H20816   0.402   1.132   5.225 -0.1740  0.8599  0.1385
  895MOL0     H20817   0.334   1.083   5.450 -0.3707  0.3617  0.6556
  895MOL0     H20818   0.191   1.008   5.409  0.9278  0.0129  1.0075
  895MOL0     H20819   0.165   1.234   5.496 -1.6391 -1.8289 -0.1055
  895MOL0     H20820   0.263   1.295   5.357  0.6738 -0.5018  2.5568
  895MOL0     H20821  -0.149   1.275   5.237 -0.0252  1.8061  0.6526
  895MOL0     H20822   0.446   0.959   4.837 -0.7412  0.5020  0.7162
  895MOL0     H20823   0.412   0.968   4.603  0.4886  2.0248  2.3547
  895MOL0     H20824   0.253   0.925   4.535 -3.0739 -2.8836  3.4558
  895MOL0     H20825   0.283   1.086   4.628  3.3012  0.8559  1.1796
  896MOL0     O20826   2.998   6.326  10.799  0.4638 -0.7540  0.0118
  896MOL0     C20827   3.024   6.331  10.681  0.6367  0.0565 -0.1796
  896MOL0     O20828   3.061   6.227  10.613 -0.1149 -0.1365 -0.3297
  896MOL0     C20829   3.088   6.108  10.678  0.2054  0.0925 -0.1765
  896MOL0     C20830   3.218   6.068  10.717  0.0497 -0.3303 -1.2840
  896MOL0     C20831   3.247   5.950  10.788 -1.0518  0.6589  0.0949
  896MOL0     C20832   3.142   5.858  10.804  0.1594  0.0005  0.3111
  896MOL0     O20833   3.148   5.744  10.878 -0.0249  0.0329  0.0569
  896MOL0     C20834   3.257   5.725  10.967 -0.0153  0.2450 -0.5796
  896MOL0     C20835   3.213   5.593  11.039 -0.5047  0.7998  0.5562
  896MOL0     C20836   3.328   5.547  11.143  0.9120 -0.3674  0.9896
  896MOL0     C20837   3.253   5.448  11.240 -1.3652  0.4042 -0.0430
  896MOL0     C20838   3.354   5.380  11.340  0.5017  0.0128  0.0688
  896MOL0     C20839   3.461   5.288  11.279 -0.5456 -0.5309 -0.6190
  896MOL0     C20840   3.584   5.284  11.365  0.0894 -0.0572 -0.7970
  896MOL0     C20841   3.688   5.194  11.312 -0.4436 -0.3710 -0.1167
  896MOL0     N20842   3.803   5.190  11.399 -0.5997  0.1043  0.4209
  896MOL0     C20843   3.899   5.292  11.434  0.2756  0.1302 -0.1076
  896MOL0     C20844   3.973   5.238  11.539  0.0182 -0.4724 -0.0222
  896MOL0     C20845   4.059   5.304  11.637 -0.2361 -0.2322 -0.5107
  896MOL0     C20846   4.214   5.291  11.608  0.1179 -0.1534  0.4583
  896MOL0     C20847   4.302   5.354  11.719 -0.6545  0.2833 -0.4531
  896MOL0     C20848   4.451   5.348  11.697  1.1753  0.0862  0.3891
  896MOL0     O20849   4.497   5.226  11.748  0.4276  0.5735 -0.9489
  896MOL0     C20850   4.635   5.204  11.746  0.0759 -0.4143  0.4290
  896MOL0     C20851   4.695   5.115  11.843 -0.7375  0.9017  0.2943
  896MOL0     C20852   4.829   5.092  11.843 -0.6957 -0.1464 -0.5355
  896MOL0     C20853   4.905   5.149  11.746 -0.4412 -0.0399 -0.0888
  896MOL0     C20854   5.064   5.144  11.750  0.0506  0.1357 -0.0310
  896MOL0     O20855   5.131   5.046  11.834  1.0438 -0.8336  0.3075
  896MOL0     C20856   5.264   5.055  11.849 -0.9663  0.2292 -0.1544
  896MOL0     C20857   5.312   5.102  11.972  0.7961 -0.1113 -0.6299
  896MOL0     C20858   5.441   5.111  12.004  1.0455 -0.5366 -0.4161
  896MOL0     C20859   5.537   5.065  11.909  0.1201 -0.1736  0.2472
  896MOL0     O20860   5.667   5.069  11.938 -0.4293  0.0769 -0.8928
  896MOL0     C20861   5.718   5.099  12.072 -0.0682  0.6182 -0.2014
  896MOL0     C20862   5.860   5.046  12.069  0.2639 -0.4435  0.0239
  896MOL0     C20863   5.952   5.127  11.980 -0.4055  0.5750 -0.3836
  896MOL0     C20864   6.084   5.056  11.959 -0.5594  0.1297  0.5617
  896MOL0     C20865   6.191   5.161  11.920 -0.3697 -0.3489  0.1924
  896MOL0     C20866   6.308   5.104  11.847  0.7120  0.1091  0.0710
  896MOL0     C20867   6.399   5.020  11.940  0.6695  0.5501 -0.2991
  896MOL0     C20868   6.527   4.980  11.879 -0.2689  0.2390 -0.2266
  896MOL0    Cl20869   6.636   4.895  12.000  0.5742 -0.4147  0.1986
  896MOL0     C20870   5.498   5.025  11.786  0.2122 -0.4704  0.1578
  896MOL0     C20871   5.360   5.021  11.748 -0.3459  0.4137  0.2728
  896MOL0     O20872   5.121   5.223  11.669  0.5112  0.5075 -0.1904
  896MOL0     C20873   4.848   5.227  11.643 -0.3170  0.2788 -1.0615
  896MOL0     C20874   4.715   5.263  11.654 -0.4854 -0.6052  0.1886
  896MOL0     N20875   3.935   5.105  11.550 -0.3686 -0.7453  0.0601
  896MOL0     N20876   3.841   5.071  11.467 -0.0329  0.0304  0.7396
  896MOL0     C20877   3.013   5.896  10.768 -0.5387  0.2836 -0.4346
  896MOL0     C20878   2.987   6.016  10.706 -0.3701  0.5063 -0.0949
  896MOL0     C20879   3.011   6.455  10.599  0.8492  0.3594 -0.6453
  896MOL0     C20880   2.947   6.448  10.474 -0.6706 -0.1219 -0.2047
  896MOL0     C20881   2.938   6.552  10.393  0.2004 -0.0885 -0.5094
  896MOL0     C20882   2.997   6.675  10.426 -0.4734 -0.1657  0.4403
  896MOL0     O20883   2.987   6.788  10.345 -0.2539 -0.1155  0.0586
  896MOL0     C20884   2.978   6.781  10.202 -0.0929 -0.2213  0.1732
  896MOL0     C20885   2.837   6.765  10.151 -0.5651 -0.6324 -0.3898
  896MOL0     C20886   2.759   6.896  10.172  0.1973  0.5688 -0.6058
  896MOL0     C20887   2.613   6.881  10.134  0.1004  0.2417 -0.7479
  896MOL0     C20888   2.527   6.930  10.233  0.0470 -0.0274 -0.1411
  896MOL0     C20889   2.480   6.972  10.335  1.6676 -0.2052 -0.0787
  896MOL0     C20890   3.042   6.693  10.551  0.3083  1.0192  0.5303
  896MOL0     C20891   3.048   6.583  10.642 -0.2797 -0.3159 -0.0226
  896MOL0     C20892   3.094   6.607  10.781  0.0123 -0.2436 -0.0403
  896MOL0     H20893   3.302   6.134  10.695  0.1987  0.6528  1.7384
  896MOL0     H20894   3.347   5.929  10.826 -1.9190 -0.9244  1.6614
  896MOL0     H20895   3.345   5.704  10.906 -0.3463  2.5737 -1.9894
  896MOL0     H20896   3.260   5.797  11.049  0.9936 -0.6954  0.2510
  896MOL0     H20897   3.203   5.512  10.967 -0.8472  1.2805  0.0522
  896MOL0     H20898   3.127   5.618  11.102 -1.1800  1.9809 -0.7717
  896MOL0     H20899   3.370   5.630  11.200  0.7297  0.1254  0.4197
  896MOL0     H20900   3.406   5.501  11.082 -0.9070 -1.8604 -0.3757
  896MOL0     H20901   3.187   5.510  11.301  1.6510  0.8903  3.0033
  896MOL0     H20902   3.200   5.371  11.182  0.4148  0.1067 -1.3640
  896MOL0     H20903   3.406   5.462  11.389  2.7310 -2.1685  1.5564
  896MOL0     H20904   3.301   5.325  11.418  0.6830 -2.6805 -1.5946
  896MOL0     H20905   3.432   5.184  11.265  0.2582 -0.5576 -2.4348
  896MOL0     H20906   3.492   5.318  11.178 -1.3970  1.5392 -0.3160
  896MOL0     H20907   3.549   5.245  11.461  0.9293  1.3807  0.1306
  896MOL0     H20908   3.616   5.388  11.372 -1.1960  0.2336  1.4096
  896MOL0     H20909   3.659   5.091  11.289  0.4364 -1.0634  1.7005
  896MOL0     H20910   3.733   5.220  11.215  1.3677 -0.2757  0.7134
  896MOL0     H20911   3.912   5.392  11.394  3.4674 -0.8603 -1.9081
  896MOL0     H20912   4.042   5.411  11.645  0.9212 -0.1408  1.2056
  896MOL0     H20913   4.046   5.250  11.731 -1.1801 -1.6548 -1.4090
  896MOL0     H20914   4.239   5.185  11.595 -3.5971 -1.3329  1.6266
  896MOL0     H20915   4.246   5.346  11.518 -1.0354 -0.3632 -0.0975
  896MOL0     H20916   4.280   5.317  11.820 -0.3243 -1.9210 -1.1155
  896MOL0     H20917   4.284   5.461  11.726  1.6525  0.6782  0.5340
  896MOL0     H20918   4.485   5.447  11.729 -1.9709  1.7594 -0.9884
  896MOL0     H20919   4.461   5.341  11.589 -0.6213  0.8317  0.1359
  896MOL0     H20920   4.632   5.077  11.923 -0.8625 -0.2693 -0.3481
  896MOL0     H20921   4.878   5.029  11.917 -3.5522 -0.7317  1.0155
  896MOL0     H20922   5.245   5.124  12.055  3.6361  0.8430  1.5685
  896MOL0     H20923   5.479   5.148  12.099  1.5961 -2.4187  0.1432
  896MOL0     H20924   5.706   5.205  12.099 -1.4767  0.8105 -1.3882
  896MOL0     H20925   5.662   5.038  12.143  0.1221 -0.5851 -1.0583
  896MOL0     H20926   5.912   5.036  12.166  1.3156  0.1605 -0.4583
  896MOL0     H20927   5.858   4.943  12.033  1.3422 -0.9979  1.4275
  896MOL0     H20928   5.908   5.154  11.884 -1.7261 -3.3996 -1.0612
  896MOL0     H20929   5.968   5.224  12.028  0.3362  0.0693  0.4152
  896MOL0     H20930   6.077   4.990  11.872  1.2367  3.0559 -1.9597
  896MOL0     H20931   6.125   5.008  12.049 -0.8729  0.1907  0.7394
  896MOL0     H20932   6.234   5.202  12.012  1.0417  0.0285 -0.5996
  896MOL0     H20933   6.139   5.236  11.859 -0.0315  0.3927  0.7937
  896MOL0     H20934   6.268   5.039  11.768 -1.2726  1.3896 -0.0708
  896MOL0     H20935   6.359   5.181  11.788  0.8191 -0.1065 -0.1203
  896MOL0     H20936   6.341   4.932  11.969 -1.6437  1.6392 -1.3553
  896MOL0     H20937   6.414   5.080  12.030  1.6127  1.6602 -1.1524
  896MOL0     H20938   6.520   4.917  11.790 -0.2748 -0.2150  0.0924
  896MOL0     H20939   6.582   5.071  11.854 -1.3098  1.1948  0.8694
  896MOL0     H20940   5.568   5.006  11.705 -2.5567  1.8994 -3.1035
  896MOL0     H20941   5.341   4.983  11.648  0.6893 -0.6116  0.4381
  896MOL0     H20942   4.912   5.280  11.573  2.3068 -1.6367 -0.2701
  896MOL0     H20943   4.680   5.329  11.575  0.0797  2.7301  2.5252
  896MOL0     H20944   2.934   5.822  10.783 -2.0253  2.1445  1.6337
  896MOL0     H20945   2.890   6.060  10.685 -1.9203 -3.1750 -1.4405
  896MOL0     H20946   2.929   6.351  10.429  1.8086 -0.7869  0.0722
  896MOL0     H20947   2.902   6.524  10.294 -4.9153  2.0173  0.3947
  896MOL0     H20948   3.048   6.713  10.152 -1.9441 -1.0560 -1.4376
  896MOL0     H20949   2.998   6.884  10.172  1.1598 -0.5922 -0.3058
  896MOL0     H20950   2.778   6.684  10.195 -0.3557  0.2761  1.7114
  896MOL0     H20951   2.850   6.751  10.043 -0.5551 -2.6889 -0.1522
  896MOL0     H20952   2.802   6.979  10.115  4.4318 -0.9464 -0.0248
  896MOL0     H20953   2.764   6.926  10.277 -0.7391  0.7201 -0.6002
  896MOL0     H20954   2.603   6.936  10.040  0.5602  2.7655  0.5774
  896MOL0     H20955   2.583   6.776  10.127  0.2406  0.2351 -1.2243
  896MOL0     H20956   2.444   7.012  10.428  0.3369  2.3879 -1.6023
  896MOL0     H20957   3.064   6.792  10.587  1.6361 -0.0978  3.0867
  896MOL0     H20958   3.193   6.561  10.783 -0.8788 -2.2787 -0.5426
  896MOL0     H20959   3.079   6.711  10.811 -0.4644 -0.1571 -0.5726
  896MOL0     H20960   3.037   6.542  10.847  0.7313 -2.2349 -1.2796
  897MOL0     O20961   8.200   9.723   4.173  0.4651  0.5101  0.5888
  897MOL0     C20962   8.104   9.644   4.171 -0.6680 -0.3131 -0.3373
  897MOL0     O20963   8.117   9.523   4.215 -0.0110  0.5239  0.6881
  897MOL0     C20964   8.243   9.463   4.264  0.7661 -0.9228 -0.5571
  897MOL0     C20965   8.346   9.532   4.316 -0.8037  0.1078 -0.4907
  897MOL0     C20966   8.466   9.472   4.357 -0.4084 -0.3287 -0.0763
  897MOL0     C20967   8.472   9.332   4.352  0.3863 -1.1153  0.4236
  897MOL0     O20968   8.591   9.272   4.382 -0.2412  0.0350 -0.1104
  897MOL0     C20969   8.707   9.313   4.308  0.6094 -0.1917  0.0581
  897MOL0     C20970   8.828   9.223   4.354 -0.8570  0.2057  0.4708
  897MOL0     C20971   8.963   9.253   4.294 -0.7227 -0.2614 -0.2232
  897MOL0     C20972   9.081   9.188   4.373  0.2112  0.0901 -0.4569
  897MOL0     C20973   9.210   9.279   4.364  0.8633 -0.4339  0.7416
  897MOL0     C20974   9.241   9.325   4.217  0.2363 -0.6090 -0.2240
  897MOL0     C20975   9.395   9.360   4.223  0.6224  0.2670  0.6659
  897MOL0     C20976   9.475   9.232   4.188  0.3646  0.9565  0.5009
  897MOL0     N20977   9.619   9.258   4.181 -0.3941  0.1131  0.2002
  897MOL0     C20978   9.685   9.324   4.082 -0.1424 -0.6279 -0.3829
  897MOL0     C20979   9.817   9.285   4.102 -0.8649 -1.4323 -0.2852
  897MOL0     C20980   9.928   9.318   4.014  0.2350 -0.4696 -0.2176
  897MOL0     C20981  10.071   9.278   4.060  0.0402  0.3642  0.3445
  897MOL0     C20982  10.173   9.337   3.960 -0.2460  0.4226  0.4247
  897MOL0     C20983  10.318   9.314   4.014  0.1440 -0.2535  0.7866
  897MOL0     O20984  10.417   9.394   3.948  0.3723 -0.4973  0.4828
  897MOL0     C20985  10.553   9.388   3.977 -0.9539 -0.9522 -0.0433
  897MOL0     C20986  10.641   9.474   3.911  0.5614 -0.2101  0.2648
  897MOL0     C20987  10.770   9.495   3.936  0.1257 -0.4374 -0.8471
  897MOL0     C20988  10.826   9.436   4.049  0.9887 -0.4041  0.2328
  897MOL0     C20989  10.973   9.457   4.078  0.2686  0.5879 -0.4397
  897MOL0     O20990  11.043   9.558   4.015  0.3994 -0.5470 -0.2400
  897MOL0     C20991  11.176   9.578   4.045 -0.4810 -1.5638 -0.3192
  897MOL0     C20992  11.224   9.691   4.105  0.0634  0.3317  0.1623
  897MOL0     C20993  11.362   9.698   4.147  0.2404  0.2667 -0.9389
  897MOL0     C20994  11.449   9.594   4.116 -0.5114 -0.2027 -0.2640
  897MOL0     O20995  11.579   9.617   4.129 -0.0799  0.7215  0.8057
  897MOL0     C20996  11.676   9.520   4.086  0.1825  0.9167 -0.2609
  897MOL0     C20997  11.805   9.602   4.090  0.3239 -0.4124 -0.0992
  897MOL0     C20998  11.923   9.511   4.063  0.5806 -0.5984 -0.7660
  897MOL0     C20999  12.052   9.601   4.080  0.1714  0.6504  0.4776
  897MOL0     C21000  12.181   9.526   4.049  0.5794  0.1615  0.5981
  897MOL0     C21001  12.186   9.384   4.089 -1.0646  0.9593 -0.5809
  897MOL0     C21002  12.297   9.299   4.026 -0.9586  0.2979  0.0282
  897MOL0     C21003  12.270   9.171   3.945 -0.5531  0.4230  0.4228
  897MOL0    Cl21004  12.188   9.053   4.051 -0.2475  0.2063  0.7311
  897MOL0     C21005  11.393   9.479   4.056 -1.0963  0.0282 -0.2367
  897MOL0     C21006  11.261   9.470   4.025  0.1493 -0.4552 -0.2369
  897MOL0     O21007  11.013   9.374   4.164  0.6832  0.2503  0.5064
  897MOL0     C21008  10.754   9.336   4.116  1.4558 -0.1702 -0.8501
  897MOL0     C21009  10.611   9.316   4.085  1.3535 -0.4432 -0.0663
  897MOL0     N21010   9.831   9.206   4.221 -0.9852  0.4702  0.6247
  897MOL0     N21011   9.711   9.195   4.264  0.4631  0.1954  0.1521
  897MOL0     C21012   8.370   9.256   4.286 -0.8714 -0.3625 -0.7361
  897MOL0     C21013   8.255   9.323   4.235  0.3618  0.0753  0.1546
  897MOL0     C21014   7.977   9.690   4.108 -1.0590 -0.3243 -0.3003
  897MOL0     C21015   7.865   9.616   4.137  0.0104  0.2674 -0.0838
  897MOL0     C21016   7.735   9.636   4.084 -0.5751  0.2371  0.3054
  897MOL0     C21017   7.724   9.743   3.993  0.1981 -0.8719 -0.3819
  897MOL0     O21018   7.591   9.775   3.946 -0.6674 -0.6729 -0.3902
  897MOL0     C21019   7.587   9.863   3.839 -0.1268  0.6242 -0.5106
  897MOL0     C21020   7.464   9.832   3.773 -0.0469  0.3689  0.6576
  897MOL0     C21021   7.478   9.719   3.666  1.0409 -1.0511  0.4756
  897MOL0     C21022   7.516   9.766   3.526  0.4205  0.1408  0.0669
  897MOL0     C21023   7.424   9.863   3.472 -0.8424 -0.3871 -0.0759
  897MOL0     C21024   7.366   9.967   3.453  0.2626  0.0366  0.6448
  897MOL0     C21025   7.836   9.820   3.968  0.9713 -0.5838  0.0420
  897MOL0     C21026   7.961   9.809   4.027  0.4934  1.9695  0.3262
  897MOL0     C21027   8.079   9.886   3.979  0.0574 -0.6628  0.6644
  897MOL0     H21028   8.335   9.639   4.332  0.8920  0.0925  1.2492
  897MOL0     H21029   8.550   9.525   4.401 -1.0008 -0.3336  1.0758
  897MOL0     H21030   8.692   9.303   4.201 -1.9032  0.8524  0.2362
  897MOL0     H21031   8.724   9.419   4.329 -3.2753  0.9432 -1.6702
  897MOL0     H21032   8.806   9.118   4.331  0.8808 -0.1174  0.0963
  897MOL0     H21033   8.857   9.231   4.459  5.0343 -1.8547 -0.6202
  897MOL0     H21034   8.974   9.362   4.294  1.9667 -0.3872  2.9283
  897MOL0     H21035   8.962   9.219   4.190 -0.8133  1.1407 -0.6973
  897MOL0     H21036   9.068   9.186   4.482  2.5494  1.1288 -0.0879
  897MOL0     H21037   9.093   9.086   4.335 -1.0221  0.6118 -2.3397
  897MOL0     H21038   9.185   9.366   4.425  1.1945 -0.2509  0.6220
  897MOL0     H21039   9.298   9.229   4.406 -0.2022 -0.3988  3.1676
  897MOL0     H21040   9.212   9.252   4.140 -2.1231 -0.1429  0.1660
  897MOL0     H21041   9.192   9.422   4.203  0.2012 -0.5833  0.0869
  897MOL0     H21042   9.437   9.404   4.314 -2.0154  1.0037  1.6338
  897MOL0     H21043   9.404   9.436   4.144 -1.9992 -1.1422 -1.1231
  897MOL0     H21044   9.449   9.159   4.265  0.6295 -1.0569 -1.2378
  897MOL0     H21045   9.427   9.209   4.093 -0.1629  1.8009  0.5563
  897MOL0     H21046   9.643   9.384   4.002 -1.6743  1.9604  2.1828
  897MOL0     H21047   9.904   9.290   3.911  2.5729  0.5851 -1.1233
  897MOL0     H21048   9.935   9.427   4.011  0.9285 -0.2798  3.5518
  897MOL0     H21049  10.087   9.321   4.159  0.4857  3.4303 -0.9462
  897MOL0     H21050  10.077   9.169   4.074  0.8697  0.2317 -0.9297
  897MOL0     H21051  10.159   9.446   3.954 -0.9683  0.2531 -1.5390
  897MOL0     H21052  10.142   9.297   3.863 -0.0474  2.2514 -0.4547
  897MOL0     H21053  10.352   9.210   4.011  2.6306  0.5069 -0.8617
  897MOL0     H21054  10.335   9.342   4.118  2.5216  1.7230 -0.0104
  897MOL0     H21055  10.591   9.532   3.834  0.1100 -0.4839  0.3441
  897MOL0     H21056  10.836   9.563   3.882  0.7450 -1.7229 -1.7467
  897MOL0     H21057  11.159   9.776   4.124 -0.5137 -0.2794  1.0255
  897MOL0     H21058  11.403   9.780   4.205 -0.7666 -0.4831  0.9138
  897MOL0     H21059  11.688   9.445   4.165 -0.1354 -1.4103 -2.3044
  897MOL0     H21060  11.660   9.477   3.987 -0.7298  3.5559 -1.3453
  897MOL0     H21061  11.797   9.690   4.026 -3.0728  0.6391  1.5157
  897MOL0     H21062  11.819   9.642   4.191  0.2096 -0.6846  0.0253
  897MOL0     H21063  11.920   9.434   4.140  1.7567 -0.7758 -0.8888
  897MOL0     H21064  11.931   9.467   3.963 -1.8838 -1.8033 -0.5186
  897MOL0     H21065  12.059   9.645   4.180  1.7222  0.1369  0.6150
  897MOL0     H21066  12.047   9.676   4.001  1.2940  0.0204 -0.2265
  897MOL0     H21067  12.269   9.575   4.093  0.9072  0.6958 -0.6040
  897MOL0     H21068  12.182   9.519   3.939  0.2316 -3.1212  0.7116
  897MOL0     H21069  12.189   9.372   4.197 -3.6099 -3.6094 -0.8026
  897MOL0     H21070  12.092   9.334   4.066 -1.1852 -0.2893  2.1984
  897MOL0     H21071  12.352   9.261   4.112 -2.9185  0.8023  1.5877
  897MOL0     H21072  12.369   9.359   3.970 -0.9022 -0.5045 -0.7832
  897MOL0     H21073  12.210   9.202   3.859  0.5942  1.2097 -0.1139
  897MOL0     H21074  12.363   9.136   3.900 -0.9291  2.4671 -2.1728
  897MOL0     H21075  11.464   9.397   4.055 -0.4500  0.5634  0.5366
  897MOL0     H21076  11.243   9.375   3.975  2.0462 -2.4070  2.5208
  897MOL0     H21077  10.788   9.277   4.201  1.0367 -0.9595 -1.2157
  897MOL0     H21078  10.548   9.243   4.134  0.9497  1.6608  2.8164
  897MOL0     H21079   8.396   9.154   4.260 -0.0494  0.0264 -1.5029
  897MOL0     H21080   8.184   9.266   4.176 -0.3731  1.9611 -0.8854
  897MOL0     H21081   7.876   9.527   4.198  2.2336 -1.7952 -3.1797
  897MOL0     H21082   7.650   9.584   4.127 -0.9768  2.1979  2.0570
  897MOL0     H21083   7.675   9.861   3.774  1.1373 -2.8914  1.0649
  897MOL0     H21084   7.581   9.966   3.877  2.1756  0.3707  0.7248
  897MOL0     H21085   7.434   9.927   3.728  1.6887  0.6192 -0.0251
  897MOL0     H21086   7.396   9.798   3.852 -1.3150  2.3515  0.4852
  897MOL0     H21087   7.384   9.665   3.663  1.1582 -1.2876 -3.1293
  897MOL0     H21088   7.551   9.646   3.703 -0.9167 -3.0134  0.6513
  897MOL0     H21089   7.609   9.819   3.548 -0.9765  2.5938  0.4313
  897MOL0     H21090   7.539   9.686   3.454  1.8928  0.3434  0.2835
  897MOL0     H21091   7.313  10.059   3.443  1.3914  0.8240  1.6238
  897MOL0     H21092   7.814   9.910   3.912 -1.7764  0.2509  2.2260
  897MOL0     H21093   8.136   9.822   3.911 -1.7881  2.2433 -4.1345
  897MOL0     H21094   8.040   9.973   3.925 -0.0399 -2.1112 -1.6976
  897MOL0     H21095   8.147   9.918   4.059 -0.2627  0.5448  0.4770
  898MOL0     O21096   4.156  10.640   9.700 -0.0111  0.0905  0.6092
  898MOL0     C21097   4.082  10.575   9.775 -0.7415  0.7824 -0.0597
  898MOL0     O21098   4.133  10.490   9.879 -0.1696  0.6092 -0.1770
  898MOL0     C21099   4.267  10.461   9.890 -0.2788  0.4285  0.4012
  898MOL0     C21100   4.307  10.419  10.018 -0.3840 -0.0821 -0.3458
  898MOL0     C21101   4.440  10.377  10.055 -0.3845 -0.2751  1.0592
  898MOL0     C21102   4.532  10.377   9.955  0.4999 -0.5170 -0.0174
  898MOL0     O21103   4.665  10.339   9.966 -0.0262  0.4079  0.4826
  898MOL0     C21104   4.710  10.276  10.086 -0.2484 -0.4552 -0.7916
  898MOL0     C21105   4.755  10.377  10.193  0.5450  0.7400  0.1831
  898MOL0     C21106   4.884  10.447  10.151 -0.4427 -0.7737 -0.3899
  898MOL0     C21107   4.953  10.525  10.266  0.1833 -0.1614  0.2309
  898MOL0     C21108   5.086  10.604  10.219  0.4490  0.0212 -0.1423
  898MOL0     C21109   5.188  10.611  10.332  1.0103  0.2962  0.1431
  898MOL0     C21110   5.286  10.733  10.331 -0.3390 -0.1390  0.7115
  898MOL0     C21111   5.326  10.776  10.187 -0.1957  0.8905  0.4464
  898MOL0     N21112   5.400  10.668  10.118  0.4222  0.1122  0.3288
  898MOL0     C21113   5.506  10.597  10.160  0.0236 -0.2868  0.4592
  898MOL0     C21114   5.537  10.514  10.058 -0.0007 -0.0275  0.1097
  898MOL0     C21115   5.659  10.432  10.031 -0.5611 -0.3693  0.0511
  898MOL0     C21116   5.784  10.510   9.977 -0.0743  0.7162  0.1167
  898MOL0     C21117   5.899  10.412   9.955  0.1248  0.2955 -0.6342
  898MOL0     C21118   6.009  10.489   9.874  0.7146 -0.0870  0.0193
  898MOL0     O21119   6.088  10.399   9.794 -0.4893  0.0549  0.2449
  898MOL0     C21120   6.206  10.342   9.844  0.0640 -0.8461  0.6787
  898MOL0     C21121   6.293  10.262   9.763  0.7591 -0.2689 -0.5625
  898MOL0     C21122   6.412  10.202   9.800 -0.0867 -0.4714 -0.7876
  898MOL0     C21123   6.461  10.231   9.927  0.8768 -0.4130 -1.1650
  898MOL0     C21124   6.592  10.178   9.977  1.0550 -0.1992 -0.6293
  898MOL0     O21125   6.697  10.161   9.892 -0.3303  0.6840  0.0958
  898MOL0     C21126   6.796  10.079   9.913  0.2968  0.5506 -1.1720
  898MOL0     C21127   6.784   9.941   9.936 -0.8295  0.9415  0.6113
  898MOL0     C21128   6.893   9.845   9.946  0.7321 -0.2431 -0.8161
  898MOL0     C21129   7.023   9.898   9.950 -0.3773 -0.1007  0.0888
  898MOL0     O21130   7.142   9.831   9.970 -0.5161 -0.3417  0.2149
  898MOL0     C21131   7.134   9.701  10.029 -0.0009 -0.1487 -0.5447
  898MOL0     C21132   7.114   9.726  10.181 -1.0934  0.8732  1.0551
  898MOL0     C21133   7.063   9.602  10.247  0.5137 -0.5574 -0.2594
  898MOL0     C21134   7.173   9.492  10.246 -0.5953  0.3959 -0.5849
  898MOL0     C21135   7.133   9.368  10.316 -0.9709  0.0034 -1.0878
  898MOL0     C21136   7.014   9.300  10.245 -0.0626 -0.0811  0.2494
  898MOL0     C21137   6.979   9.174  10.325  0.2125  1.4839 -1.0231
  898MOL0     C21138   6.922   9.201  10.459  0.6379  0.3565 -0.7749
  898MOL0    Cl21139   6.794   9.330  10.445 -0.2700  0.5198  0.1908
  898MOL0     C21140   7.036  10.038   9.917 -0.4723 -0.0939 -0.0267
  898MOL0     C21141   6.925  10.130   9.903  0.4038 -0.2668 -0.7157
  898MOL0     O21142   6.588  10.150  10.098  0.4436 -0.3799  0.0766
  898MOL0     C21143   6.372  10.295  10.013  0.5529  0.4912 -0.7222
  898MOL0     C21144   6.246  10.343   9.979  0.3238  0.2032  0.4085
  898MOL0     N21145   5.443  10.527   9.958 -0.1505 -0.2954 -0.2241
  898MOL0     N21146   5.358  10.616  10.000 -0.2498  0.5345  0.0700
  898MOL0     C21147   4.494  10.415   9.824 -1.4910  1.7964  0.4496
  898MOL0     C21148   4.361  10.445   9.787 -1.1411 -0.2890 -0.4402
  898MOL0     C21149   3.943  10.601   9.758  0.5473  0.4234 -0.9094
  898MOL0     C21150   3.864  10.593   9.868 -0.3349  0.7445 -1.8559
  898MOL0     C21151   3.724  10.585   9.865 -0.5884 -0.0787 -0.3484
  898MOL0     C21152   3.659  10.626   9.749 -0.8178 -0.6020  0.0638
  898MOL0     O21153   3.516  10.630   9.748  0.0440 -0.3751 -0.4359
  898MOL0     C21154   3.456  10.502   9.710 -0.0887 -0.2748  0.4036
  898MOL0     C21155   3.314  10.489   9.748 -0.1362  0.1980  0.2972
  898MOL0     C21156   3.274  10.495   9.899 -0.0021  0.0379  0.7643
  898MOL0     C21157   3.120  10.496   9.926  1.0461  0.1889 -0.1546
  898MOL0     C21158   3.075  10.625   9.873 -0.3923  0.0826 -0.0931
  898MOL0     C21159   3.019  10.725   9.829  0.0352  0.0721 -0.2080
  898MOL0     C21160   3.742  10.643   9.628  0.5115 -0.1074  0.0984
  898MOL0     C21161   3.880  10.637   9.630 -0.3093  1.1676 -0.3288
  898MOL0     C21162   3.945  10.641   9.493  0.3576 -0.7214  0.2833
  898MOL0     H21163   4.229  10.407  10.092  0.4266  0.3485  0.6028
  898MOL0     H21164   4.447  10.345  10.158  0.0871  2.0502  1.7992
  898MOL0     H21165   4.644  10.208  10.141 -0.8130  1.3927  0.9721
  898MOL0     H21166   4.800  10.218  10.064  2.3074  1.9548  2.3416
  898MOL0     H21167   4.776  10.330  10.289  0.8526  1.4992  0.4897
  898MOL0     H21168   4.680  10.456  10.205 -1.5906 -1.1848  0.2533
  898MOL0     H21169   4.881  10.523  10.073 -1.9825  1.0076  1.3119
  898MOL0     H21170   4.962  10.379  10.116  0.6261 -1.3267  2.7099
  898MOL0     H21171   4.884  10.604  10.296 -1.0352 -0.8994 -0.5513
  898MOL0     H21172   4.969  10.462  10.355  0.2456  0.1526  0.4440
  898MOL0     H21173   5.136  10.566  10.129 -0.3659 -0.7372 -0.3019
  898MOL0     H21174   5.056  10.707  10.199 -3.0871 -0.7810  0.3279
  898MOL0     H21175   5.128  10.614  10.423  1.7600 -0.2185  0.6590
  898MOL0     H21176   5.252  10.524  10.347  1.3947  0.7192  1.0273
  898MOL0     H21177   5.381  10.714  10.382  1.2084 -0.3030 -2.0036
  898MOL0     H21178   5.232  10.823  10.361 -0.2910  1.6558 -3.8416
  898MOL0     H21179   5.236  10.808  10.135 -0.5627 -2.3372 -1.2153
  898MOL0     H21180   5.394  10.861  10.192 -0.2145  0.8252  2.2006
  898MOL0     H21181   5.573  10.616  10.243 -1.4365  2.5612  1.1385
  898MOL0     H21182   5.683  10.386  10.127 -1.0523 -0.5722  0.0755
  898MOL0     H21183   5.632  10.363   9.951  1.9096 -0.9284 -0.3852
  898MOL0     H21184   5.746  10.548   9.881 -2.5288  0.4436  0.8970
  898MOL0     H21185   5.806  10.591  10.047 -4.2434 -0.4390  3.1796
  898MOL0     H21186   5.854  10.324   9.908  1.4228 -0.4730 -0.4844
  898MOL0     H21187   5.951  10.375  10.043  1.8390 -0.4900 -1.9137
  898MOL0     H21188   6.065  10.560   9.936  1.0808  0.0724 -0.4881
  898MOL0     H21189   5.951  10.550   9.804  1.5691  0.4033 -0.2806
  898MOL0     H21190   6.268  10.254   9.658  1.1150 -0.4791 -0.6318
  898MOL0     H21191   6.464  10.129   9.739  2.1078 -0.5808  1.0759
  898MOL0     H21192   6.687   9.893   9.932 -0.0164 -1.1340  2.9945
  898MOL0     H21193   6.871   9.739   9.954  4.7119 -1.1941 -0.1316
  898MOL0     H21194   7.058   9.642   9.979 -1.6630  3.6226 -2.8572
  898MOL0     H21195   7.234   9.659  10.014  1.0875  1.2520  2.0650
  898MOL0     H21196   7.210   9.768  10.213  1.3113 -2.4454 -1.1175
  898MOL0     H21197   7.043   9.809  10.188  1.0071  3.0418 -1.0205
  898MOL0     H21198   7.035   9.612  10.353  5.4056 -3.0664  1.5989
  898MOL0     H21199   6.976   9.565  10.191  1.7804 -1.5725 -1.6187
  898MOL0     H21200   7.267   9.535  10.283  0.8151 -1.4910 -1.8107
  898MOL0     H21201   7.205   9.457  10.148  1.2941 -0.0449  0.1460
  898MOL0     H21202   7.112   9.389  10.421 -1.9777 -1.3609 -0.9990
  898MOL0     H21203   7.219   9.301  10.307 -1.5553 -1.2662  1.8235
  898MOL0     H21204   6.927   9.363  10.228 -0.6545 -1.2113 -1.0974
  898MOL0     H21205   7.049   9.268  10.147  5.7307  1.7220  1.3163
  898MOL0     H21206   7.062   9.104  10.335 -1.1151 -0.2576 -1.5551
  898MOL0     H21207   6.905   9.120  10.265  1.3408 -1.5973  0.1378
  898MOL0     H21208   6.884   9.108  10.502 -0.0547  1.1986  0.5072
  898MOL0     H21209   7.003   9.236  10.523  0.9383 -2.6333  0.6640
  898MOL0     H21210   7.131  10.083   9.943 -1.5460  1.7679  0.8497
  898MOL0     H21211   6.939  10.234   9.875  1.5299 -0.0150  0.6545
  898MOL0     H21212   6.411  10.314  10.113 -1.6915  2.0869 -0.0427
  898MOL0     H21213   6.178  10.376  10.058  0.3887 -0.5126  0.7714
  898MOL0     H21214   4.581  10.421   9.759 -0.2069  1.6258  2.0847
  898MOL0     H21215   4.325  10.450   9.685  0.0876 -1.2477 -0.9485
  898MOL0     H21216   3.919  10.576   9.961 -2.5410 -2.2018 -0.9155
  898MOL0     H21217   3.657  10.574   9.950  1.3250 -1.4001  1.0490
  898MOL0     H21218   3.503  10.411   9.749  2.1503  0.4518 -0.4024
  898MOL0     H21219   3.478  10.507   9.603  1.8858 -0.4242  0.7612
  898MOL0     H21220   3.284  10.389   9.715 -0.9463  1.2715 -2.4326
  898MOL0     H21221   3.260  10.562   9.687  0.7540 -1.9109 -3.3148
  898MOL0     H21222   3.314  10.586   9.944 -1.5673  1.2793 -0.2456
  898MOL0     H21223   3.312  10.410   9.957  0.2315 -0.7763 -0.5239
  898MOL0     H21224   3.061  10.415   9.882 -1.8602  0.9268  2.0654
  898MOL0     H21225   3.111  10.487  10.034  0.2415 -1.3580 -0.3318
  898MOL0     H21226   2.960  10.812   9.805  0.1606  0.5530  1.1415
  898MOL0     H21227   3.687  10.649   9.534  0.0866 -2.6717  0.0928
  898MOL0     H21228   4.041  10.588   9.491  0.3681 -0.6978  0.1276
  898MOL0     H21229   3.886  10.585   9.421  0.1327  2.3006 -2.0819
  898MOL0     H21230   3.969  10.738   9.448  0.6647 -1.2382 -0.6916
  899MOL0     O21231  11.307   1.790   4.835  0.8150  0.6698  0.1106
  899MOL0     C21232  11.351   1.703   4.760 -0.7220 -0.5872 -0.8716
  899MOL0     O21233  11.440   1.612   4.798 -0.7950 -0.1324  0.6155
  899MOL0     C21234  11.523   1.643   4.902  0.6250 -0.6438 -0.1867
  899MOL0     C21235  11.481   1.630   5.033 -0.5052  0.1183  0.3043
  899MOL0     C21236  11.559   1.660   5.144 -0.4551  0.7093  0.6470
  899MOL0     C21237  11.687   1.699   5.116  0.5678 -0.9512 -0.6888
  899MOL0     O21238  11.782   1.734   5.215  0.4484  0.2599  0.0137
  899MOL0     C21239  11.779   1.657   5.341  0.0401  0.0891  0.0295
  899MOL0     C21240  11.883   1.691   5.445 -0.6549 -0.0565  0.1105
  899MOL0     C21241  11.918   1.842   5.449 -0.1920 -0.2542 -0.7365
  899MOL0     C21242  11.801   1.929   5.480  0.1408 -0.8642  0.2305
  899MOL0     C21243  11.737   1.901   5.611  0.1456 -0.4374  0.0577
  899MOL0     C21244  11.832   1.902   5.738  0.8010  0.0749 -0.3110
  899MOL0     C21245  11.743   1.904   5.862  0.0617 -0.0569  0.7249
  899MOL0     C21246  11.803   1.947   6.001  0.8989 -0.1899 -0.4779
  899MOL0     N21247  11.921   1.864   6.025 -0.3292  0.2962 -0.0163
  899MOL0     C21248  12.050   1.890   5.989 -1.4894  0.0902  0.0063
  899MOL0     C21249  12.124   1.797   6.042 -0.0099 -0.4869  0.6983
  899MOL0     C21250  12.269   1.779   6.046  0.3102  0.1501  0.4227
  899MOL0     C21251  12.322   1.740   5.902 -0.4237 -0.8406 -0.1617
  899MOL0     C21252  12.308   1.593   5.864 -0.6981  0.7988  0.3643
  899MOL0     C21253  12.395   1.558   5.739 -0.0356 -0.1791  1.0904
  899MOL0     O21254  12.341   1.615   5.618 -0.6970  0.3042  0.1425
  899MOL0     C21255  12.388   1.565   5.492 -0.8094 -0.3947  0.8282
  899MOL0     C21256  12.312   1.607   5.383  0.2131  1.0983 -0.4470
  899MOL0     C21257  12.346   1.556   5.261 -0.0140 -0.6912  0.2864
  899MOL0     C21258  12.457   1.479   5.238  0.1424 -0.6648  0.1939
  899MOL0     C21259  12.496   1.436   5.108 -0.2185  0.8477  0.2835
  899MOL0     O21260  12.608   1.349   5.091  0.2288 -0.1497 -0.4509
  899MOL0     C21261  12.643   1.293   4.974  0.4342 -0.8699 -0.1388
  899MOL0     C21262  12.774   1.333   4.935  0.0535  0.1595  0.6649
  899MOL0     C21263  12.819   1.264   4.823 -0.5812 -0.0827  0.1893
  899MOL0     C21264  12.748   1.176   4.742 -0.0591 -0.0317 -0.1347
  899MOL0     O21265  12.805   1.129   4.628 -0.6422  0.0473 -0.2955
  899MOL0     C21266  12.798   0.998   4.585  0.0985  0.2673  0.3308
  899MOL0     C21267  12.890   0.988   4.459 -0.5104  0.3216  0.2617
  899MOL0     C21268  13.042   0.989   4.488 -0.7566  0.6626  0.3925
  899MOL0     C21269  13.138   0.973   4.367 -0.6843  0.2988  0.8146
  899MOL0     C21270  13.281   1.036   4.382 -0.1080 -1.6731  0.1815
  899MOL0     C21271  13.372   1.046   4.260  0.3272 -0.3094  0.4050
  899MOL0     C21272  13.467   1.163   4.295 -0.3555  0.8657  0.0520
  899MOL0     C21273  13.409   1.304   4.304 -0.8179  0.1573  0.3349
  899MOL0    Cl21274  13.496   1.424   4.201 -0.1484  0.2511  0.1717
  899MOL0     C21275  12.615   1.144   4.787 -0.4696  0.3116 -0.0165
  899MOL0     C21276  12.562   1.211   4.897  0.0358  0.2531  0.8961
  899MOL0     O21277  12.436   1.480   5.016 -0.5538  0.1225  0.1374
  899MOL0     C21278  12.540   1.441   5.349 -0.9169 -0.5412  0.7158
  899MOL0     C21279  12.500   1.481   5.472  0.2733  0.1742 -0.5875
  899MOL0     N21280  12.040   1.705   6.107 -0.9028  0.2000  0.7364
  899MOL0     N21281  11.917   1.750   6.101 -0.1084  0.7355 -0.2209
  899MOL0     C21282  11.737   1.719   4.994 -0.6015 -0.6272 -0.1708
  899MOL0     C21283  11.651   1.697   4.879 -0.2032  1.6009 -0.5598
  899MOL0     C21284  11.297   1.699   4.623  0.4341 -0.8482 -0.3609
  899MOL0     C21285  11.271   1.579   4.556  0.0213 -0.1449 -0.3028
  899MOL0     C21286  11.199   1.574   4.436  0.2345 -0.4991 -0.0272
  899MOL0     C21287  11.177   1.696   4.368  0.4802  0.1861 -0.0534
  899MOL0     O21288  11.101   1.706   4.251 -0.4419 -0.2539  0.1934
  899MOL0     C21289  11.068   1.589   4.182 -1.5276  0.1002  0.6307
  899MOL0     C21290  11.029   1.623   4.038  0.0464  0.4982  0.2232
  899MOL0     C21291  11.067   1.506   3.944  0.4186 -0.2928 -0.2861
  899MOL0     C21292  11.100   1.575   3.812 -0.3786  0.8534  0.2044
  899MOL0     C21293  11.165   1.475   3.727  0.5790 -0.7503 -0.2200
  899MOL0     C21294  11.222   1.392   3.665  1.2892 -0.6964 -0.4951
  899MOL0     C21295  11.229   1.819   4.419 -0.2554  1.3620 -0.4290
  899MOL0     C21296  11.288   1.820   4.551  0.1580  1.0975  0.7567
  899MOL0     C21297  11.331   1.956   4.594 -0.1451  0.1931 -0.0524
  899MOL0     H21298  11.383   1.587   5.052 -1.4441  2.4658  1.1767
  899MOL0     H21299  11.520   1.634   5.241 -1.3679 -1.9980 -0.3550
  899MOL0     H21300  11.687   1.700   5.382  0.5745  2.1483 -0.7681
  899MOL0     H21301  11.758   1.551   5.329  2.8817 -0.3607 -1.7266
  899MOL0     H21302  11.976   1.634   5.433  0.1403  0.6904  2.1879
  899MOL0     H21303  11.850   1.645   5.539 -1.2924 -0.4201 -0.2847
  899MOL0     H21304  11.965   1.872   5.355  1.8597 -1.3977 -0.1224
  899MOL0     H21305  11.998   1.874   5.517  0.0539  2.2765 -2.0809
  899MOL0     H21306  11.827   2.034   5.465 -1.2628 -0.2726  1.6479
  899MOL0     H21307  11.724   1.918   5.403 -0.3311 -0.5368  0.6464
  899MOL0     H21308  11.666   1.983   5.624  2.4216  1.7258 -0.3475
  899MOL0     H21309  11.668   1.816   5.612 -0.3991 -0.0049 -0.1025
  899MOL0     H21310  11.896   1.813   5.740  1.6293  0.6671  1.0393
  899MOL0     H21311  11.903   1.985   5.731  0.4317  0.6585  2.0383
  899MOL0     H21312  11.696   1.806   5.876  0.6187 -0.3825  0.3680
  899MOL0     H21313  11.669   1.981   5.842  0.0107 -0.5209 -1.1168
  899MOL0     H21314  11.832   2.052   5.987 -1.2637  0.2031 -2.7201
  899MOL0     H21315  11.727   1.936   6.078  0.5365  0.6660 -0.7051
  899MOL0     H21316  12.080   1.985   5.947 -0.7071  0.8898  2.2293
  899MOL0     H21317  12.317   1.870   6.083  1.1585 -0.1047 -0.0461
  899MOL0     H21318  12.304   1.710   6.123  0.6743  0.5462  0.6191
  899MOL0     H21319  12.267   1.804   5.832  0.9465 -0.7996 -1.2587
  899MOL0     H21320  12.427   1.769   5.885 -0.2348 -1.8699 -0.8826
  899MOL0     H21321  12.207   1.555   5.847 -1.4338  2.2547  1.3400
  899MOL0     H21322  12.336   1.532   5.950  1.8043  0.0741 -0.8382
  899MOL0     H21323  12.397   1.449   5.725  1.6742  0.2335 -5.6445
  899MOL0     H21324  12.496   1.590   5.768  0.5543 -2.2767  1.5301
  899MOL0     H21325  12.223   1.670   5.379 -0.7689 -0.2858 -2.7923
  899MOL0     H21326  12.286   1.606   5.186 -0.3571 -2.1095 -0.4234
  899MOL0     H21327  12.829   1.400   5.001  0.4842 -1.4278  1.9761
  899MOL0     H21328  12.922   1.278   4.791 -0.9468 -2.4567 -2.3312
  899MOL0     H21329  12.834   0.930   4.663  2.4161  1.4965  0.4110
  899MOL0     H21330  12.694   0.974   4.562 -0.1621  0.4776  1.2344
  899MOL0     H21331  12.867   0.892   4.412 -2.8262 -0.5815  2.9246
  899MOL0     H21332  12.856   1.066   4.390  0.4313 -1.3427 -2.2296
  899MOL0     H21333  13.066   1.090   4.524  2.9530 -0.3954  1.3195
  899MOL0     H21334  13.068   0.912   4.560 -0.0352  0.6644  0.1412
  899MOL0     H21335  13.096   1.013   4.274 -1.3681 -0.5874  0.7239
  899MOL0     H21336  13.145   0.865   4.351 -2.2643  0.3972 -0.9017
  899MOL0     H21337  13.337   0.978   4.457  1.0681 -2.5767 -1.3258
  899MOL0     H21338  13.262   1.134   4.427 -1.0520 -2.1530  0.8765
  899MOL0     H21339  13.432   0.955   4.250  0.5936  0.0804 -2.4467
  899MOL0     H21340  13.317   1.065   4.167 -1.0682  0.2823  1.3009
  899MOL0     H21341  13.525   1.170   4.203  1.0186 -1.4491  0.6496
  899MOL0     H21342  13.533   1.127   4.375 -3.3449 -3.4698  0.9141
  899MOL0     H21343  13.302   1.311   4.281 -1.3117  0.6300  2.5450
  899MOL0     H21344  13.423   1.329   4.410  1.0727  1.1496 -0.1225
  899MOL0     H21345  12.555   1.075   4.729 -0.5479  1.0718 -0.8726
  899MOL0     H21346  12.472   1.168   4.939 -1.3181  1.9740 -0.1235
  899MOL0     H21347  12.628   1.377   5.353 -0.4469 -0.2128 -2.1650
  899MOL0     H21348  12.558   1.455   5.560 -1.5952 -1.2200  0.3152
  899MOL0     H21349  11.841   1.743   4.975 -0.5813 -0.1433  0.5347
  899MOL0     H21350  11.695   1.709   4.780  2.0834  0.7785  0.2751
  899MOL0     H21351  11.285   1.483   4.606 -4.9514 -0.2608  1.3614
  899MOL0     H21352  11.170   1.478   4.395 -2.1230  1.3199 -3.0183
  899MOL0     H21353  10.987   1.540   4.237 -1.4801 -0.9423 -0.1888
  899MOL0     H21354  11.162   1.532   4.178 -0.8898  1.1714 -0.4702
  899MOL0     H21355  11.076   1.716   4.006 -0.7783  0.4101 -1.3482
  899MOL0     H21356  10.920   1.634   4.044 -0.1890 -1.3875 -0.0387
  899MOL0     H21357  10.985   1.434   3.936 -0.7554  1.0586 -0.7804
  899MOL0     H21358  11.154   1.452   3.984 -1.3848 -2.9224  0.3345
  899MOL0     H21359  11.015   1.613   3.754  0.2660  1.3446 -0.4509
  899MOL0     H21360  11.170   1.658   3.829  1.3591 -1.0898  3.5399
  899MOL0     H21361  11.271   1.317   3.606 -1.5921 -2.4359 -0.8265
  899MOL0     H21362  11.211   1.910   4.363 -0.5344  1.8483  0.4213
  899MOL0     H21363  11.422   1.951   4.654 -1.1545  0.3740  1.5495
  899MOL0     H21364  11.337   2.017   4.503 -1.8305 -1.4429 -1.3523
  899MOL0     H21365  11.247   1.986   4.658  0.6852  0.9416  0.7225
  900MOL0     O21366   5.208   0.668   2.404 -1.0321  0.1456 -0.7479
  900MOL0     C21367   5.135   0.745   2.470  1.2565  0.1217 -0.2443
  900MOL0     O21368   5.163   0.884   2.495  0.4204 -0.0753  0.6152
  900MOL0     C21369   5.292   0.931   2.487 -0.3263 -1.3550  0.3932
  900MOL0     C21370   5.344   0.992   2.596 -0.4202  0.0144  0.1036
  900MOL0     C21371   5.471   1.051   2.584 -0.8508 -0.3214  0.1978
  900MOL0     C21372   5.539   1.061   2.455  0.6294 -0.5202 -0.0143
  900MOL0     O21373   5.652   1.145   2.454 -0.0210  0.4769  0.2897
  900MOL0     C21374   5.681   1.210   2.332  0.3485 -0.3361 -1.1232
  900MOL0     C21375   5.814   1.280   2.343 -0.7819 -0.4180 -0.1366
  900MOL0     C21376   5.820   1.377   2.463 -0.2440 -0.6905  0.6442
  900MOL0     C21377   5.960   1.430   2.466  0.4137  0.0424  0.0462
  900MOL0     C21378   5.991   1.530   2.571  0.0850 -0.2067  0.1366
  900MOL0     C21379   5.898   1.655   2.570  0.6274 -0.7059  0.1530
  900MOL0     C21380   5.953   1.764   2.672  0.2244  0.7321 -0.1169
  900MOL0     C21381   6.059   1.858   2.614 -0.8741  0.1756  0.1780
  900MOL0     N21382   5.993   1.966   2.547 -0.7716 -0.0797  0.5833
  900MOL0     C21383   5.905   2.057   2.597 -0.9015 -0.7945  0.5536
  900MOL0     C21384   5.879   2.143   2.501  0.0971 -0.4614 -0.2202
  900MOL0     C21385   5.800   2.267   2.531 -0.1230 -0.0942 -0.2808
  900MOL0     C21386   5.667   2.241   2.607 -0.5131  0.7441 -0.8284
  900MOL0     C21387   5.553   2.321   2.551  0.6637  0.1798 -0.6598
  900MOL0     C21388   5.416   2.271   2.599  0.5524  0.1772  0.0853
  900MOL0     O21389   5.314   2.338   2.531 -0.0807 -0.4139 -0.2492
  900MOL0     C21390   5.179   2.316   2.561 -0.0090 -0.6934  0.0362
  900MOL0     C21391   5.088   2.423   2.538 -0.4838 -0.1687  0.5842
  900MOL0     C21392   4.953   2.413   2.560  0.6139  0.8148 -0.5466
  900MOL0     C21393   4.890   2.293   2.603 -0.0125 -0.6790  0.0923
  900MOL0     C21394   4.741   2.262   2.616 -0.7579 -0.7095  0.5404
  900MOL0     O21395   4.715   2.145   2.670  0.2718 -0.3061 -0.5409
  900MOL0     C21396   4.599   2.108   2.735  0.3049 -0.5533  0.7491
  900MOL0     C21397   4.505   2.193   2.785  0.2129  0.2311 -0.8053
  900MOL0     C21398   4.386   2.155   2.837  0.3232 -0.3601 -0.3749
  900MOL0     C21399   4.361   2.016   2.856  0.1002 -0.1006 -0.6621
  900MOL0     O21400   4.239   1.977   2.900 -0.1211  0.6813  0.2088
  900MOL0     C21401   4.155   2.057   2.983  0.1293 -0.2057 -0.5090
  900MOL0     C21402   4.059   1.960   3.052  0.4370 -0.2145  0.3615
  900MOL0     C21403   3.933   2.027   3.115  0.6477 -0.7213 -0.1124
  900MOL0     C21404   3.911   2.003   3.263  0.5022 -0.7077 -0.6948
  900MOL0     C21405   3.807   2.084   3.346 -0.0896 -0.6211  0.2051
  900MOL0     C21406   3.664   2.065   3.291 -0.4816  0.4765 -0.0414
  900MOL0     C21407   3.557   2.159   3.359  0.1160 -1.0896  0.5377
  900MOL0     C21408   3.417   2.114   3.322  0.7426  0.9931 -0.4565
  900MOL0    Cl21409   3.296   2.232   3.399  0.1515  0.2689  0.3792
  900MOL0     C21410   4.451   1.922   2.802  0.6202 -0.3502 -1.2481
  900MOL0     C21411   4.569   1.971   2.742  0.0573 -0.2735  0.3331
  900MOL0     O21412   4.656   2.339   2.579  0.2352 -0.3715  0.0569
  900MOL0     C21413   4.989   2.192   2.627 -0.2310 -0.1127 -0.0024
  900MOL0     C21414   5.128   2.199   2.606 -0.0366 -0.4564 -1.7113
  900MOL0     N21415   5.941   2.096   2.382  0.1035  0.3585  0.0427
  900MOL0     N21416   6.018   1.997   2.417  0.2703 -0.5283  0.0714
  900MOL0     C21417   5.485   0.993   2.347  0.0600 -0.1029 -0.2124
  900MOL0     C21418   5.367   0.925   2.362 -0.0693 -0.7480 -0.3497
  900MOL0     C21419   4.998   0.692   2.497 -0.4863 -0.1306  0.4669
  900MOL0     C21420   4.948   0.580   2.416  0.6019 -0.0875 -0.4002
  900MOL0     C21421   4.817   0.560   2.402  0.8278  0.5727  0.2786
  900MOL0     C21422   4.721   0.628   2.491  0.0503  0.6251  0.3837
  900MOL0     O21423   4.590   0.614   2.485 -0.0496 -0.2857  0.3731
  900MOL0     C21424   4.545   0.481   2.456  0.7893  0.2075  0.1523
  900MOL0     C21425   4.396   0.454   2.468 -0.8027 -0.0332  0.2558
  900MOL0     C21426   4.368   0.320   2.391  0.1331  1.0188  0.3449
  900MOL0     C21427   4.223   0.296   2.360  0.0504 -1.1448 -0.4609
  900MOL0     C21428   4.139   0.262   2.475  0.6794  0.5079 -0.3256
  900MOL0     C21429   4.070   0.228   2.570  0.5482  0.0291 -0.1572
  900MOL0     C21430   4.768   0.731   2.567 -0.0659  0.2136 -0.3201
  900MOL0     C21431   4.905   0.762   2.578 -0.2142  0.1588  0.5538
  900MOL0     C21432   4.939   0.869   2.676  0.0703  0.3443  0.1591
  900MOL0     H21433   5.278   1.004   2.682  0.0687  0.5692  0.4082
  900MOL0     H21434   5.514   1.102   2.670 -1.6660  0.6388  0.0542
  900MOL0     H21435   5.700   1.136   2.254  2.9689 -0.4893 -0.4551
  900MOL0     H21436   5.606   1.285   2.306 -0.1202 -0.4568 -0.1742
  900MOL0     H21437   5.843   1.317   2.244  1.0664 -1.9245 -0.2272
  900MOL0     H21438   5.893   1.207   2.359  1.6406  2.1520  0.4838
  900MOL0     H21439   5.790   1.335   2.560  0.9565  0.2387  1.4354
  900MOL0     H21440   5.762   1.465   2.433  0.9753 -0.3667 -0.8306
  900MOL0     H21441   6.024   1.344   2.490 -0.7254 -1.3142 -1.5886
  900MOL0     H21442   5.993   1.471   2.370  2.0338  1.2970  1.0752
  900MOL0     H21443   5.994   1.487   2.671 -2.9194 -2.0761 -0.4475
  900MOL0     H21444   6.089   1.577   2.566 -0.7278  1.6097  0.3542
  900MOL0     H21445   5.888   1.695   2.469  1.0284 -0.6623  0.1291
  900MOL0     H21446   5.797   1.622   2.596  0.7662 -0.2648  1.2956
  900MOL0     H21447   6.002   1.707   2.752  2.3337  1.1724 -1.0142
  900MOL0     H21448   5.871   1.824   2.714  0.9512  1.4780  0.2726
  900MOL0     H21449   6.133   1.898   2.684 -0.3533 -1.4578  0.6088
  900MOL0     H21450   6.118   1.800   2.542  0.1311 -0.8171  1.7095
  900MOL0     H21451   5.889   2.066   2.703  2.5383 -2.7069  1.4013
  900MOL0     H21452   5.856   2.345   2.584  0.9073 -1.9707  1.5572
  900MOL0     H21453   5.789   2.306   2.430 -1.6587  1.0193  0.2704
  900MOL0     H21454   5.645   2.134   2.614 -1.5483  1.0455  1.0568
  900MOL0     H21455   5.689   2.280   2.707  1.8211  0.0913 -1.0176
  900MOL0     H21456   5.558   2.315   2.442 -0.1802 -2.7237 -0.6241
  900MOL0     H21457   5.571   2.427   2.568 -4.5356  1.1053  0.9404
  900MOL0     H21458   5.406   2.274   2.707  0.1704 -1.0667  0.1033
  900MOL0     H21459   5.419   2.162   2.589  1.0247 -0.1102  2.6603
  900MOL0     H21460   5.138   2.519   2.523 -1.4003  0.0455 -1.2512
  900MOL0     H21461   4.900   2.507   2.547  1.1773  0.9612 -1.9240
  900MOL0     H21462   4.523   2.300   2.781 -5.4213  1.4585 -1.1932
  900MOL0     H21463   4.311   2.223   2.876 -1.9291 -2.4293 -0.7916
  900MOL0     H21464   4.216   2.123   3.046  1.0699 -2.4513  1.1030
  900MOL0     H21465   4.087   2.122   2.928 -0.5975  0.1081  0.7337
  900MOL0     H21466   4.026   1.885   2.981 -0.4721  0.1934  0.3376
  900MOL0     H21467   4.117   1.902   3.125  2.9192  1.3830 -0.2168
  900MOL0     H21468   3.943   2.135   3.107  1.6106 -0.5799  2.2345
  900MOL0     H21469   3.838   2.002   3.068  0.0423 -0.2823  0.8576
  900MOL0     H21470   4.011   2.040   3.289 -0.6025  2.1292 -0.2124
  900MOL0     H21471   3.915   1.899   3.298 -1.6240 -0.2120  1.2527
  900MOL0     H21472   3.838   2.188   3.333  3.2909 -1.4771  0.6004
  900MOL0     H21473   3.824   2.062   3.452  4.2328  3.1621  0.6083
  900MOL0     H21474   3.664   2.074   3.182  0.3979 -2.4278 -0.3689
  900MOL0     H21475   3.640   1.960   3.305  1.3426  0.1739  1.1794
  900MOL0     H21476   3.563   2.260   3.318  0.8620 -1.8083 -1.2033
  900MOL0     H21477   3.562   2.155   3.469 -1.4109 -0.6359  0.6476
  900MOL0     H21478   3.410   2.096   3.215 -0.8297  0.5044 -0.2964
  900MOL0     H21479   3.402   2.018   3.371 -0.7720 -0.0676 -2.8621
  900MOL0     H21480   4.419   1.819   2.795 -1.8749  0.4180 -2.1547
  900MOL0     H21481   4.640   1.905   2.694  1.1987 -0.9247  2.7820
  900MOL0     H21482   4.958   2.095   2.665  1.3893  0.7990  4.3025
  900MOL0     H21483   5.187   2.109   2.624  3.3556  1.8913 -0.0670
  900MOL0     H21484   5.542   0.995   2.254 -0.6459 -3.2732 -0.8340
  900MOL0     H21485   5.324   0.873   2.277 -0.9406 -1.8426  0.7149
  900MOL0     H21486   5.019   0.528   2.354  0.5732 -0.5231 -0.0685
  900MOL0     H21487   4.787   0.488   2.327  2.3672  0.3329 -0.1489
  900MOL0     H21488   4.609   0.416   2.518  1.0980  1.5334  1.2660
  900MOL0     H21489   4.577   0.458   2.354 -0.2673 -0.7136  0.0154
  900MOL0     H21490   4.341   0.543   2.437 -1.7776 -0.4124  0.8394
  900MOL0     H21491   4.368   0.439   2.573  0.1814 -3.1237  0.1885
  900MOL0     H21492   4.394   0.232   2.451 -2.0943  1.2355  1.7970
  900MOL0     H21493   4.425   0.308   2.299 -2.5242  0.9425 -1.3914
  900MOL0     H21494   4.179   0.374   2.297  1.2630 -2.0455 -2.4972
  900MOL0     H21495   4.217   0.204   2.302  0.2240 -0.4382 -1.6254
  900MOL0     H21496   4.018   0.196   2.657  0.9325  0.2364  0.1527
  900MOL0     H21497   4.702   0.767   2.646  2.2042  0.8201  1.3951
  900MOL0     H21498   4.926   0.964   2.622  0.7776  0.6096  0.4462
  900MOL0     H21499   4.871   0.864   2.762  0.7169  0.5784  0.6881
  900MOL0     H21500   5.041   0.846   2.708  1.3067 -0.5005 -3.9136
  901MOL0     O21501   8.188   4.983   9.841  0.3079 -0.2893 -0.0193
  901MOL0     C21502   8.275   5.003   9.754  0.1363 -0.3307  0.5407
  901MOL0     O21503   8.264   4.984   9.623 -0.2727 -0.1476 -0.2736
  901MOL0     C21504   8.140   5.017   9.563  0.7271  0.4626  0.8667
  901MOL0     C21505   8.059   4.904   9.548  0.9177 -0.7253 -0.2625
  901MOL0     C21506   7.931   4.918   9.490  0.3378 -0.1919  0.5115
  901MOL0     C21507   7.875   5.043   9.449 -0.2014 -0.0652 -0.0935
  901MOL0     O21508   7.766   5.050   9.371 -0.2579 -0.2570  0.5460
  901MOL0     C21509   7.646   5.044   9.451  0.6807  0.5908  0.2963
  901MOL0     C21510   7.595   5.183   9.481 -1.1944  0.3124 -0.8802
  901MOL0     C21511   7.453   5.186   9.532  0.3505  0.3742  0.3670
  901MOL0     C21512   7.408   5.328   9.527 -0.1419  0.5218 -0.0375
  901MOL0     C21513   7.263   5.361   9.577  0.2033 -0.0383 -0.1233
  901MOL0     C21514   7.213   5.504   9.544  0.2308 -0.0350  0.6310
  901MOL0     C21515   7.269   5.601   9.638 -0.0801  0.0091 -0.1834
  901MOL0     C21516   7.227   5.749   9.612  0.0959 -0.1516  0.0798
  901MOL0     N21517   7.302   5.815   9.502  0.1609  0.6262  0.7256
  901MOL0     C21518   7.439   5.826   9.484  0.5838  0.4062 -0.6613
  901MOL0     C21519   7.453   5.886   9.370 -0.3169  0.1078  0.6707
  901MOL0     C21520   7.587   5.920   9.303  0.4415  0.2471 -0.3580
  901MOL0     C21521   7.678   5.792   9.275  0.5703 -0.4649 -0.5774
  901MOL0     C21522   7.615   5.672   9.204  0.0042  0.1666  0.2842
  901MOL0     C21523   7.698   5.535   9.221  0.1367 -0.2587 -0.5126
  901MOL0     O21524   7.691   5.495   9.363 -0.2824 -0.0725  0.2937
  901MOL0     C21525   7.794   5.516   9.452 -0.3168  0.0517  0.0993
  901MOL0     C21526   7.768   5.500   9.589  0.2561 -0.2678 -0.5846
  901MOL0     C21527   7.876   5.509   9.683 -0.5690 -0.3676  0.4580
  901MOL0     C21528   8.008   5.552   9.647  0.0809  0.3013  0.0346
  901MOL0     C21529   8.126   5.545   9.744  0.1547  0.4554 -0.0595
  901MOL0     O21530   8.095   5.530   9.880  0.0610 -0.4609  0.3626
  901MOL0     C21531   8.206   5.545   9.958 -0.3806  0.7997  1.1957
  901MOL0     C21532   8.275   5.436   9.992  0.0392  0.2921  0.5378
  901MOL0     C21533   8.378   5.434  10.080 -0.4565 -0.3095 -0.9100
  901MOL0     C21534   8.409   5.549  10.158 -0.6320  0.4801 -0.3424
  901MOL0     O21535   8.492   5.552  10.269  0.7000 -0.0711  0.2006
  901MOL0     C21536   8.596   5.467  10.287 -0.0402 -0.0643  0.3081
  901MOL0     C21537   8.717   5.540  10.224 -0.4534  1.1965 -0.1569
  901MOL0     C21538   8.844   5.450  10.227 -0.0233 -0.7700  0.4453
  901MOL0     C21539   8.887   5.412  10.365 -0.9647  0.2825 -0.5380
  901MOL0     C21540   9.045   5.385  10.380 -0.2479 -0.4594  0.4156
  901MOL0     C21541   9.092   5.255  10.317 -0.0742 -0.2571 -1.0246
  901MOL0     C21542   9.237   5.224  10.359  0.4345 -0.2292  0.2108
  901MOL0     C21543   9.276   5.081  10.314  1.9075 -0.5833  0.1565
  901MOL0    Cl21544   9.300   5.082  10.137  0.3993 -0.0088  0.1264
  901MOL0     C21545   8.332   5.671  10.124 -0.1980 -0.5055 -0.8401
  901MOL0     C21546   8.232   5.661  10.025  0.5925 -0.1933  0.1070
  901MOL0     O21547   8.236   5.555   9.692  0.8699  0.1899  0.7349
  901MOL0     C21548   8.028   5.585   9.510 -0.3695  0.3050  0.0979
  901MOL0     C21549   7.918   5.568   9.415 -0.5556  0.8924 -0.5485
  901MOL0     N21550   7.332   5.935   9.329  0.9329 -0.6641  0.4604
  901MOL0     N21551   7.239   5.882   9.397  0.0324 -0.0792 -0.8329
  901MOL0     C21552   7.953   5.157   9.462  1.2074  0.1590  0.1528
  901MOL0     C21553   8.079   5.145   9.533 -0.2832 -0.6218  0.4127
  901MOL0     C21554   8.412   5.020   9.812 -0.1426 -0.3203  0.4047
  901MOL0     C21555   8.458   4.930   9.908  0.1208 -0.2654 -0.6967
  901MOL0     C21556   8.574   4.945   9.978 -1.0288  0.6691 -0.4977
  901MOL0     C21557   8.647   5.059   9.951  0.7238  0.7059  0.8202
  901MOL0     O21558   8.771   5.098  10.004 -0.6406 -0.5694  0.6540
  901MOL0     C21559   8.828   5.015  10.106 -1.1408 -0.3565  0.4714
  901MOL0     C21560   8.928   4.904  10.075 -0.1665  0.7771 -0.7145
  901MOL0     C21561   8.988   4.830  10.204  0.3849 -0.6560  0.7140
  901MOL0     C21562   9.065   4.710  10.152 -0.1906  0.0821 -0.6583
  901MOL0     C21563   9.132   4.645  10.271 -0.2367 -0.0164  1.0035
  901MOL0     C21564   9.186   4.581  10.355 -0.4767 -0.2108 -0.2459
  901MOL0     C21565   8.603   5.146   9.848  0.6077  0.2565  0.0556
  901MOL0     C21566   8.486   5.123   9.773  0.8140 -0.1266 -0.3237
  901MOL0     C21567   8.442   5.231   9.667 -0.5938 -0.9685 -0.3876
  901MOL0     H21568   8.085   4.802   9.574 -1.1516 -0.5869  2.8355
  901MOL0     H21569   7.875   4.831   9.455 -0.0092 -0.1114  0.8524
  901MOL0     H21570   7.571   4.981   9.402  1.9924 -1.0558  0.3155
  901MOL0     H21571   7.678   4.996   9.543  0.9665  0.9746  0.3996
  901MOL0     H21572   7.599   5.227   9.381  1.6032  3.2279  0.3256
  901MOL0     H21573   7.668   5.235   9.544 -0.8550 -1.9613  0.7246
  901MOL0     H21574   7.427   5.128   9.621 -0.0649 -0.5793 -0.3558
  901MOL0     H21575   7.392   5.149   9.448  0.6066  1.2924 -0.2363
  901MOL0     H21576   7.478   5.397   9.576 -1.2585  0.5835  1.5410
  901MOL0     H21577   7.410   5.358   9.422  1.5431  2.0421  0.3573
  901MOL0     H21578   7.194   5.311   9.508  2.3005 -0.7266 -1.8572
  901MOL0     H21579   7.235   5.339   9.680 -0.7384  2.3302  0.1817
  901MOL0     H21580   7.252   5.520   9.443 -4.5150  1.4847 -1.2675
  901MOL0     H21581   7.103   5.507   9.545  0.1184 -2.1553  2.3799
  901MOL0     H21582   7.377   5.596   9.621 -0.1432 -1.4604 -0.2710
  901MOL0     H21583   7.255   5.563   9.739  0.3502 -1.0043 -0.4938
  901MOL0     H21584   7.121   5.757   9.586 -0.1390  2.3910  1.4737
  901MOL0     H21585   7.238   5.790   9.713 -0.8861  0.1235  0.0844
  901MOL0     H21586   7.515   5.787   9.551 -0.2491 -0.3047 -0.1213
  901MOL0     H21587   7.566   5.960   9.203  1.8296 -1.2625 -1.3078
  901MOL0     H21588   7.644   5.995   9.358 -1.4811  3.0979 -2.0201
  901MOL0     H21589   7.771   5.824   9.226  0.6030 -0.9011 -0.8036
  901MOL0     H21590   7.719   5.762   9.371 -0.0516  2.6488  0.7978
  901MOL0     H21591   7.602   5.698   9.098 -1.5656  0.3095  0.4839
  901MOL0     H21592   7.517   5.640   9.239 -0.2148 -0.9102 -1.2173
  901MOL0     H21593   7.800   5.544   9.180 -0.4662  0.3004 -1.9573
  901MOL0     H21594   7.644   5.460   9.163 -1.4328 -0.5729  1.2678
  901MOL0     H21595   7.674   5.480   9.639  1.2697 -2.1462  0.6940
  901MOL0     H21596   7.868   5.474   9.786  2.7010  0.5989  1.1635
  901MOL0     H21597   8.249   5.342   9.944  0.1026  0.6647 -0.2463
  901MOL0     H21598   8.433   5.342  10.097 -0.9024 -0.2931  0.7311
  901MOL0     H21599   8.610   5.481  10.395 -0.3086  0.8467  0.2361
  901MOL0     H21600   8.576   5.362  10.266 -1.3228  0.5421 -1.7767
  901MOL0     H21601   8.689   5.559  10.119  0.8969 -0.3671 -0.8399
  901MOL0     H21602   8.738   5.635  10.273  0.2829 -0.8473  3.8358
  901MOL0     H21603   8.810   5.361  10.173 -4.1563  1.4041 -0.9836
  901MOL0     H21604   8.919   5.502  10.166 -2.5800  1.4379 -1.0611
  901MOL0     H21605   8.832   5.317  10.373 -1.9352  0.7661 -1.2663
  901MOL0     H21606   8.846   5.478  10.441  1.8033  2.0103 -0.4084
  901MOL0     H21607   9.073   5.385  10.486 -2.0314 -1.7240  0.9180
  901MOL0     H21608   9.107   5.464  10.336 -1.2470  1.0336  1.6100
  901MOL0     H21609   9.029   5.171  10.347  0.6653 -0.5864 -0.3710
  901MOL0     H21610   9.077   5.273  10.210 -0.0575  4.5730 -0.4709
  901MOL0     H21611   9.264   5.229  10.465  0.9128 -1.8535  0.1865
  901MOL0     H21612   9.305   5.299  10.316 -2.4581  3.1041  1.0335
  901MOL0     H21613   9.373   5.054  10.356  2.0540  1.1231  1.0121
  901MOL0     H21614   9.189   5.018  10.338  3.0982 -2.3271  0.0280
  901MOL0     H21615   8.346   5.767  10.172  0.0814 -0.2199 -1.4886
  901MOL0     H21616   8.160   5.737   9.995  0.4434  0.9631  3.0545
  901MOL0     H21617   8.124   5.614   9.471  0.2875 -0.3836  1.1425
  901MOL0     H21618   7.955   5.587   9.315  0.5566  4.0384  0.3518
  901MOL0     H21619   7.923   5.252   9.418  1.3787  0.5812  0.9271
  901MOL0     H21620   8.135   5.238   9.546 -1.3958  0.1900 -0.4207
  901MOL0     H21621   8.389   4.849   9.932  0.1674  0.2617  1.4645
  901MOL0     H21622   8.603   4.870  10.051  2.1079  2.9456  0.8178
  901MOL0     H21623   8.758   4.977  10.181  2.7310 -1.9244  3.6581
  901MOL0     H21624   8.896   5.076  10.166  1.4349 -0.8723 -1.7480
  901MOL0     H21625   9.022   4.936  10.028  0.1613  3.2571  1.3984
  901MOL0     H21626   8.878   4.837  10.005 -0.6891  1.8176 -1.3626
  901MOL0     H21627   8.908   4.802  10.273 -0.6678  0.0458 -0.1843
  901MOL0     H21628   9.059   4.898  10.252 -0.0713  0.3448 -0.0028
  901MOL0     H21629   9.006   4.643  10.089  0.2242  0.8001 -1.8434
  901MOL0     H21630   9.144   4.738  10.082  1.9156  0.4067  1.6932
  901MOL0     H21631   9.230   4.510  10.422 -1.0087  0.0169  0.3560
  901MOL0     H21632   8.670   5.229   9.826 -0.8322  1.7360  1.0268
  901MOL0     H21633   8.355   5.287   9.701 -1.1666 -0.3346 -2.7340
  901MOL0     H21634   8.524   5.303   9.660  1.8220 -3.4556  0.5537
  901MOL0     H21635   8.441   5.185   9.568  1.4180 -1.4697 -0.2239
  902MOL0     O21636   0.785   4.943  10.425  0.6144  0.8848 -0.1745
  902MOL0     C21637   0.799   4.820  10.425 -0.4182  0.9531 -0.2883
  902MOL0     O21638   0.736   4.727  10.335 -0.1475 -0.3093  0.0780
  902MOL0     C21639   0.633   4.769  10.255  1.1349  0.3184 -0.2401
  902MOL0     C21640   0.631   4.749  10.116  0.4705  0.5971 -0.2099
  902MOL0     C21641   0.513   4.803  10.051  0.3555  0.2788 -0.1956
  902MOL0     C21642   0.415   4.859  10.112  1.1020 -0.2159  0.4568
  902MOL0     O21643   0.309   4.885  10.033 -0.4123  0.3033  0.0664
  902MOL0     C21644   0.183   4.847  10.080 -0.4469 -0.1801 -0.0900
  902MOL0     C21645   0.096   4.975  10.109 -0.2314  0.3845  0.5425
  902MOL0     C21646  -0.060   4.962  10.074  0.8630  0.0637 -0.8484
  902MOL0     C21647  -0.136   4.866  10.177 -0.0821 -0.5904  0.2307
  902MOL0     C21648  -0.284   4.876  10.139  0.4116 -1.2268  0.2240
  902MOL0     C21649  -0.377   4.779  10.219 -0.2603 -0.5398 -0.4966
  902MOL0     C21650  -0.522   4.792  10.179 -0.1310  0.6500  0.6085
  902MOL0     C21651  -0.615   4.704  10.259 -0.2271  0.1611 -0.4826
  902MOL0     N21652  -0.753   4.706  10.243 -0.2070 -0.1152  0.4208
  902MOL0     C21653  -0.831   4.600  10.203  0.1222  0.2150 -0.5966
  902MOL0     C21654  -0.956   4.631  10.239 -0.5103 -0.3783  0.5011
  902MOL0     C21655  -1.081   4.544  10.203  0.7468  0.7094 -0.0354
  902MOL0     C21656  -1.211   4.622  10.186  0.5436  0.1785 -0.7148
  902MOL0     C21657  -1.328   4.531  10.139 -0.4672 -0.0785 -0.6092
  902MOL0     C21658  -1.456   4.559  10.220  0.3749  0.6578 -0.2025
  902MOL0     O21659  -1.565   4.481  10.176  0.4090 -0.1437  0.1596
  902MOL0     C21660  -1.589   4.354  10.228  0.3510  0.3275 -0.7246
  902MOL0     C21661  -1.496   4.258  10.272 -0.6290 -0.2884  0.6223
  902MOL0     C21662  -1.527   4.130  10.306  0.5330  0.0951 -0.5995
  902MOL0     C21663  -1.661   4.091  10.324 -0.7614 -0.2805  0.3756
  902MOL0     C21664  -1.719   3.958  10.340 -1.0011 -1.0170  0.2585
  902MOL0     O21665  -1.637   3.875  10.415 -0.3060 -0.5466  0.1696
  902MOL0     C21666  -1.693   3.749  10.438  0.1539 -0.1435 -0.0739
  902MOL0     C21667  -1.663   3.695  10.562  0.5278  0.4826 -0.6631
  902MOL0     C21668  -1.727   3.579  10.607  0.4107 -0.1443 -0.4797
  902MOL0     C21669  -1.816   3.506  10.519 -0.5621  0.0260 -0.0233
  902MOL0     O21670  -1.883   3.393  10.574  0.5370 -0.4568  0.0281
  902MOL0     C21671  -1.916   3.382  10.713 -0.2120 -0.4022  0.4358
  902MOL0     C21672  -1.965   3.238  10.757 -0.1091 -0.0789  0.7620
  902MOL0     C21673  -1.926   3.212  10.902 -0.0265 -0.9882  0.1810
  902MOL0     C21674  -2.020   3.281  10.999  0.3540  0.2948 -0.4433
  902MOL0     C21675  -1.984   3.274  11.146  0.1786 -0.0947 -0.0243
  902MOL0     C21676  -2.083   3.335  11.244  0.1887 -0.5848 -1.3066
  902MOL0     C21677  -2.037   3.329  11.392 -0.2077 -0.0974 -0.4144
  902MOL0     C21678  -2.123   3.399  11.496  1.0111  0.2516 -0.5894
  902MOL0    Cl21679  -2.294   3.346  11.459  0.1860 -0.5068  0.2898
  902MOL0     C21680  -1.829   3.548  10.391  0.3441  0.1016  0.4130
  902MOL0     C21681  -1.759   3.663  10.349  0.1344  0.0879 -0.6808
  902MOL0     O21682  -1.829   3.933  10.300 -0.0874 -0.1938 -0.7407
  902MOL0     C21683  -1.752   4.190  10.282  0.4757 -0.2370 -0.2531
  902MOL0     C21684  -1.718   4.314  10.235 -0.2787 -0.3368  0.3424
  902MOL0     N21685  -0.958   4.744  10.319 -0.2255  0.5961  0.7166
  902MOL0     N21686  -0.839   4.797  10.303  0.0621  0.9985  0.0577
  902MOL0     C21687   0.420   4.886  10.248 -0.1237 -0.1015  0.2517
  902MOL0     C21688   0.530   4.844  10.326 -0.7193  0.9070  0.6387
  902MOL0     C21689   0.885   4.745  10.522 -1.0413 -0.8372 -0.8417
  902MOL0     C21690   0.908   4.605  10.506 -0.0244 -0.5527 -0.7273
  902MOL0     C21691   0.996   4.540  10.591 -0.5315  0.2137 -0.2328
  902MOL0     C21692   1.064   4.602  10.694 -0.3252 -1.0460 -0.0311
  902MOL0     O21693   1.140   4.531  10.775 -0.6572  0.2863  0.2255
  902MOL0     C21694   1.267   4.477  10.720 -0.4930 -0.1539 -0.0575
  902MOL0     C21695   1.370   4.589  10.721 -0.6237 -0.7280  0.4473
  902MOL0     C21696   1.515   4.533  10.689 -0.0446  0.7896 -0.4914
  902MOL0     C21697   1.623   4.639  10.683  0.7712  0.4540  0.3246
  902MOL0     C21698   1.746   4.590  10.630  0.0728  0.5490 -0.2953
  902MOL0     C21699   1.849   4.569  10.574 -0.0805  0.3564 -0.0768
  902MOL0     C21700   1.046   4.741  10.714 -0.6930 -0.9495 -0.3241
  902MOL0     C21701   0.952   4.806  10.635  0.2563 -0.0960 -0.3275
  902MOL0     C21702   0.931   4.953  10.663 -0.0321  0.6418 -0.7740
  902MOL0     H21703   0.701   4.678  10.073 -1.6327 -2.9464  1.7514
  902MOL0     H21704   0.495   4.794   9.944 -1.4720  2.8638 -0.1967
  902MOL0     H21705   0.142   4.796   9.992  3.8268 -1.3573 -1.6921
  902MOL0     H21706   0.188   4.774  10.162 -1.8795 -1.7805 -1.3539
  902MOL0     H21707   0.123   5.053  10.036 -1.0977  0.9180  0.7814
  902MOL0     H21708   0.107   4.999  10.215  0.6888  1.2300  0.2777
  902MOL0     H21709  -0.066   4.927   9.970  1.3384  0.9256 -1.1684
  902MOL0     H21710  -0.101   5.063  10.084  0.1473 -0.4597  3.7394
  902MOL0     H21711  -0.095   4.765  10.165  0.9742 -0.0096 -1.4082
  902MOL0     H21712  -0.107   4.903  10.275  0.4018  0.4885 -0.3069
  902MOL0     H21713  -0.325   4.977  10.146  0.0509 -1.1789 -1.8292
  902MOL0     H21714  -0.298   4.846  10.034 -0.2675  0.0663 -0.0759
  902MOL0     H21715  -0.331   4.679  10.220  4.5802  1.3863 -0.8254
  902MOL0     H21716  -0.366   4.808  10.324 -1.7424 -3.5314  0.6001
  902MOL0     H21717  -0.531   4.765  10.073 -0.0854 -0.8812  0.9759
  902MOL0     H21718  -0.544   4.899  10.169  0.8901  0.6679 -2.6643
  902MOL0     H21719  -0.575   4.602  10.260 -2.0869 -0.6104  0.6724
  902MOL0     H21720  -0.610   4.745  10.360  3.2691  1.1119 -0.9199
  902MOL0     H21721  -0.796   4.508  10.158 -0.2425 -0.0495 -0.3400
  902MOL0     H21722  -1.070   4.481  10.114 -0.5138 -0.4915  0.6129
  902MOL0     H21723  -1.089   4.471  10.284  0.4531  0.9888  0.1876
  902MOL0     H21724  -1.243   4.664  10.282 -0.4591 -1.3008 -0.3691
  902MOL0     H21725  -1.197   4.709  10.122 -2.3493  1.1856 -0.1104
  902MOL0     H21726  -1.298   4.427  10.149 -1.3612 -0.2351  0.7259
  902MOL0     H21727  -1.346   4.548  10.033  1.0024 -2.1804 -1.2606
  902MOL0     H21728  -1.477   4.666  10.212 -0.7156  0.4086 -0.9448
  902MOL0     H21729  -1.441   4.531  10.325  1.8558 -3.8741 -1.4009
  902MOL0     H21730  -1.390   4.282  10.264  0.2214 -2.7053  3.0248
  902MOL0     H21731  -1.443   4.065  10.328 -0.8833 -0.9871  2.2144
  902MOL0     H21732  -1.603   3.759  10.626 -1.2332 -0.0846  1.7197
  902MOL0     H21733  -1.707   3.557  10.711  2.2096 -1.0785 -0.9688
  902MOL0     H21734  -1.826   3.409  10.770  1.5066 -2.1372 -1.3186
  902MOL0     H21735  -1.993   3.456  10.737  1.3733  0.6433  2.7060
  902MOL0     H21736  -2.074   3.234  10.747 -0.6396  3.5802  3.0729
  902MOL0     H21737  -1.914   3.164  10.694 -1.7495 -1.0537  0.5189
  902MOL0     H21738  -1.918   3.109  10.936 -0.1927 -0.4972  1.8017
  902MOL0     H21739  -1.823   3.247  10.914 -0.4340 -0.4305  2.8292
  902MOL0     H21740  -2.114   3.227  10.985 -0.2696  1.0647  0.5945
  902MOL0     H21741  -2.039   3.382  10.962 -2.4983 -0.2281 -0.6449
  902MOL0     H21742  -1.889   3.322  11.171  1.2516 -2.8224  1.6744
  902MOL0     H21743  -1.972   3.168  11.172  1.3676 -0.4298 -1.7447
  902MOL0     H21744  -2.107   3.438  11.216 -3.1886 -0.4984  1.2355
  902MOL0     H21745  -2.180   3.286  11.249 -0.0235 -0.0937  2.1444
  902MOL0     H21746  -1.941   3.381  11.401 -1.1728  1.7192 -0.0118
  902MOL0     H21747  -2.024   3.228  11.431  0.7112  0.6728  1.3598
  902MOL0     H21748  -2.091   3.380  11.599  0.4641 -0.5116 -0.5572
  902MOL0     H21749  -2.134   3.507  11.482 -2.6646  0.0508 -0.1881
  902MOL0     H21750  -1.883   3.488  10.318  0.0397  0.1207  0.6180
  902MOL0     H21751  -1.753   3.686  10.243  1.2228 -2.0125 -1.1300
  902MOL0     H21752  -1.861   4.186  10.277  0.4317  0.9107 -0.5018
  902MOL0     H21753  -1.799   4.378  10.201 -2.0985 -1.7229  1.9080
  902MOL0     H21754   0.345   4.949  10.295  1.6455  0.6788  2.2047
  902MOL0     H21755   0.539   4.857  10.434 -2.2104 -4.2969  1.6723
  902MOL0     H21756   0.856   4.546  10.431  1.8088 -1.9064 -0.9923
  902MOL0     H21757   1.015   4.433  10.580  3.2443  0.9789 -2.9410
  902MOL0     H21758   1.264   4.444  10.616 -0.8345 -0.5164  0.0629
  902MOL0     H21759   1.297   4.387  10.773 -2.2252 -0.6827  0.0847
  902MOL0     H21760   1.375   4.639  10.818  3.2455 -0.6017  0.3291
  902MOL0     H21761   1.343   4.663  10.645 -0.1727 -1.3393 -0.3293
  902MOL0     H21762   1.518   4.493  10.587  3.8472  0.4345 -0.3992
  902MOL0     H21763   1.548   4.457  10.760 -1.6184 -0.4951 -1.0750
  902MOL0     H21764   1.577   4.715  10.620 -0.3377 -0.0588  0.4847
  902MOL0     H21765   1.634   4.665  10.789 -3.0140  2.5874  0.3849
  902MOL0     H21766   1.937   4.546  10.517  0.2654 -0.5714  0.7951
  902MOL0     H21767   1.094   4.796  10.794  0.3804 -1.0378 -0.8851
  902MOL0     H21768   0.951   4.963  10.770  1.4582 -0.1690 -0.9458
  902MOL0     H21769   1.013   5.006  10.613  0.1418 -1.8879 -3.4400
  902MOL0     H21770   0.835   4.999  10.642  0.6952  2.2735 -0.7017
  903MOL0     O21771   8.656  11.286  10.205 -0.3052 -0.5013 -0.0897
  903MOL0     C21772   8.658  11.219  10.309  1.4060 -0.1381 -0.9600
  903MOL0     O21773   8.675  11.273  10.437  0.4665  0.3995 -0.0689
  903MOL0     C21774   8.655  11.407  10.436  0.5758  0.4041 -0.1640
  903MOL0     C21775   8.533  11.472  10.451  0.3222  0.4094 -0.4528
  903MOL0     C21776   8.526  11.608  10.483  0.8843 -0.6806 -0.2111
  903MOL0     C21777   8.640  11.686  10.493  0.4190  0.3284 -0.6302
  903MOL0     O21778   8.646  11.819  10.507 -0.3679 -0.1643 -0.5985
  903MOL0     C21779   8.532  11.899  10.457 -0.5024  0.2233 -0.0857
  903MOL0     C21780   8.587  12.041  10.438 -0.0287 -0.4480 -0.6790
  903MOL0     C21781   8.480  12.141  10.394  0.0695 -0.6033 -0.0048
  903MOL0     C21782   8.544  12.269  10.314 -0.0137  0.0498  1.0116
  903MOL0     C21783   8.463  12.393  10.301  0.4487 -0.6910  0.2497
  903MOL0     C21784   8.320  12.383  10.247 -0.1380  0.5015 -0.1214
  903MOL0     C21785   8.326  12.370  10.093  0.0695  0.0764 -0.9136
  903MOL0     C21786   8.195  12.341  10.032 -0.2565 -0.2311 -0.0039
  903MOL0     N21787   8.085  12.416  10.096 -0.1972  0.4508 -0.6926
  903MOL0     C21788   8.069  12.556  10.122 -1.0469  0.4502 -0.4854
  903MOL0     C21789   7.949  12.561  10.176  0.1767  0.3003  0.4184
  903MOL0     C21790   7.895  12.686  10.235 -0.7033 -0.1545 -0.3851
  903MOL0     C21791   7.854  12.679  10.385 -0.1403  0.4629  0.1031
  903MOL0     C21792   7.797  12.814  10.430 -0.2433 -0.3652 -0.2315
  903MOL0     C21793   7.709  12.810  10.558  0.2909 -0.2812 -0.8365
  903MOL0     O21794   7.778  12.738  10.664  0.3040 -0.2389 -0.8781
  903MOL0     C21795   7.872  12.807  10.739  0.0779  0.2388 -0.4741
  903MOL0     C21796   7.891  12.946  10.747 -0.8142 -0.4376  0.6577
  903MOL0     C21797   7.989  13.007  10.819  0.1410  0.0922 -0.4380
  903MOL0     C21798   8.081  12.930  10.900  0.6185  0.1428  0.4946
  903MOL0     C21799   8.189  12.994  10.975 -0.2152  0.4465  0.0141
  903MOL0     O21800   8.283  12.915  11.044 -0.0682  0.1168 -0.3094
  903MOL0     C21801   8.392  12.977  11.103  0.0114 -0.0898  0.2312
  903MOL0     C21802   8.477  13.062  11.042  0.9602  1.3000 -0.0782
  903MOL0     C21803   8.591  13.114  11.098  0.0436  0.5075  0.7107
  903MOL0     C21804   8.628  13.082  11.229 -0.0549 -0.3202  0.4487
  903MOL0     O21805   8.740  13.131  11.293 -0.7779  0.4244 -0.4969
  903MOL0     C21806   8.856  13.177  11.216  0.7514 -1.3201  0.6765
  903MOL0     C21807   8.972  13.199  11.290 -0.5619  0.5139 -0.6690
  903MOL0     C21808   8.972  13.326  11.369 -0.1460 -0.7207  0.1844
  903MOL0     C21809   9.102  13.362  11.450  0.3501 -0.8373 -0.5618
  903MOL0     C21810   9.088  13.494  11.527  0.5817 -0.5443  0.8419
  903MOL0     C21811   9.234  13.545  11.540 -0.5932  0.3896 -0.5301
  903MOL0     C21812   9.233  13.665  11.638  0.0192  0.0855 -0.4408
  903MOL0     C21813   9.362  13.745  11.616  0.7250  0.3328 -0.4403
  903MOL0    Cl21814   9.354  13.840  11.460 -0.4504  0.2056  0.2261
  903MOL0     C21815   8.534  13.006  11.303 -0.5207 -0.5334 -0.3807
  903MOL0     C21816   8.417  12.957  11.246 -0.3156 -1.0144 -0.3172
  903MOL0     O21817   8.196  13.117  10.969 -0.5468 -0.4052 -0.7367
  903MOL0     C21818   8.064  12.792  10.893 -0.4973 -0.5374  0.4551
  903MOL0     C21819   7.961  12.728  10.815  0.1090 -0.3398 -0.1688
  903MOL0     N21820   7.891  12.428  10.185  0.3448  0.0891  0.3117
  903MOL0     N21821   7.976  12.344  10.142 -0.7634  0.6491  0.2332
  903MOL0     C21822   8.761  11.615  10.484  0.6711  0.5160  0.0253
  903MOL0     C21823   8.770  11.480  10.450  0.1210  0.0768  0.0287
  903MOL0     C21824   8.622  11.076  10.302 -0.2715  0.3173  0.2873
  903MOL0     C21825   8.604  11.002  10.425  0.5970 -0.3983 -0.1509
  903MOL0     C21826   8.588  10.869  10.430 -0.5178  0.7252  0.1918
  903MOL0     C21827   8.582  10.800  10.315  0.7583  0.2354  0.2361
  903MOL0     O21828   8.550  10.670  10.323  0.0197 -0.1291 -0.0617
  903MOL0     C21829   8.663  10.581  10.325 -0.1375 -0.6791  0.4409
  903MOL0     C21830   8.675  10.534  10.461  0.2905  0.0334  0.5014
  903MOL0     C21831   8.791  10.444  10.457  0.5264  0.8297 -0.1617
  903MOL0     C21832   8.918  10.503  10.526  0.0500  0.1028 -0.5583
  903MOL0     C21833   9.020  10.568  10.432  0.5482 -0.2079 -0.1119
  903MOL0     C21834   9.111  10.624  10.369  0.2057  1.4651  0.3776
  903MOL0     C21835   8.579  10.864  10.198 -0.3064 -0.1800  1.1627
  903MOL0     C21836   8.596  11.002  10.186 -0.3521 -0.4830  0.3074
  903MOL0     C21837   8.611  11.058  10.042  0.8484 -0.1637  0.5748
  903MOL0     H21838   8.442  11.417  10.471 -0.6571  2.2294  0.2819
  903MOL0     H21839   8.429  11.654  10.503  1.1645 -1.1069  2.5158
  903MOL0     H21840   8.486  11.861  10.366  1.6487  1.7920 -1.9348
  903MOL0     H21841   8.463  11.895  10.542 -2.9981 -3.4278 -2.0188
  903MOL0     H21842   8.663  12.045  10.360 -0.0355  0.5821 -0.6399
  903MOL0     H21843   8.631  12.082  10.529 -1.0630  2.5274 -1.4298
  903MOL0     H21844   8.439  12.190  10.484  0.4056 -0.0685 -0.1347
  903MOL0     H21845   8.398  12.107  10.330  0.0730  2.0027 -1.5711
  903MOL0     H21846   8.641  12.303  10.352  0.4718 -0.5698  0.3419
  903MOL0     H21847   8.566  12.223  10.217  1.0877 -0.6113  1.5589
  903MOL0     H21848   8.454  12.425  10.405  1.1042 -0.1451  0.1444
  903MOL0     H21849   8.515  12.470  10.243 -0.2873  1.9080  2.7851
  903MOL0     H21850   8.268  12.299  10.295  1.5793  0.4134  1.7122
  903MOL0     H21851   8.268  12.477  10.267 -1.5479 -0.3280  0.2866
  903MOL0     H21852   8.386  12.280  10.077  0.5892 -0.7372  3.9612
  903MOL0     H21853   8.372  12.459  10.050  0.5018 -0.1096 -0.8449
  903MOL0     H21854   8.198  12.373   9.927 -3.3266  0.2763 -0.0203
  903MOL0     H21855   8.193  12.232  10.032  1.9436 -0.3125 -0.4653
  903MOL0     H21856   8.137  12.640  10.109 -1.7972  2.1009  4.3451
  903MOL0     H21857   7.964  12.771  10.233 -3.7815  2.5534 -2.2634
  903MOL0     H21858   7.809  12.725  10.179  0.9780  3.7841 -0.5647
  903MOL0     H21859   7.777  12.603  10.402  3.2781 -2.5984  3.8053
  903MOL0     H21860   7.938  12.648  10.447 -1.1870 -0.9636  0.8625
  903MOL0     H21861   7.745  12.866  10.349 -1.2872  1.2379  1.4056
  903MOL0     H21862   7.882  12.880  10.449 -2.0920  2.9908 -2.6028
  903MOL0     H21863   7.621  12.750  10.531 -0.2289  0.5857 -1.1156
  903MOL0     H21864   7.677  12.910  10.590 -1.4390 -0.3335 -2.1912
  903MOL0     H21865   7.805  13.000  10.708 -1.4115 -2.0786 -0.3721
  903MOL0     H21866   8.005  13.114  10.815  0.1949  0.1084  0.1230
  903MOL0     H21867   8.454  13.096  10.941  0.6423  1.6874  0.1218
  903MOL0     H21868   8.645  13.179  11.029 -0.7658  1.4213  0.9178
  903MOL0     H21869   8.877  13.087  11.158  0.4581 -1.6841  1.1247
  903MOL0     H21870   8.819  13.262  11.158  1.2908 -1.7856 -0.3767
  903MOL0     H21871   8.988  13.119  11.363 -0.9953  0.5383 -0.5481
  903MOL0     H21872   9.055  13.205  11.219 -2.4029 -0.0509 -2.9734
  903MOL0     H21873   8.950  13.410  11.302  2.3331 -1.0423 -1.1635
  903MOL0     H21874   8.885  13.321  11.436 -0.7691 -1.4807 -0.6631
  903MOL0     H21875   9.188  13.366  11.383  0.4078  2.3701 -0.4359
  903MOL0     H21876   9.120  13.274  11.513 -0.4012  0.7368  2.0193
  903MOL0     H21877   9.036  13.475  11.621  0.2446  1.0258  1.0106
  903MOL0     H21878   9.026  13.568  11.475  0.3327  0.4230  2.4503
  903MOL0     H21879   9.294  13.463  11.579 -0.1726  0.1003 -1.7532
  903MOL0     H21880   9.263  13.568  11.438 -0.5653 -3.6114 -1.5829
  903MOL0     H21881   9.235  13.633  11.742  2.6854  0.1356 -0.4026
  903MOL0     H21882   9.150  13.732  11.613  0.5487  1.6796  1.7599
  903MOL0     H21883   9.369  13.827  11.688  0.6107  0.9866 -1.1721
  903MOL0     H21884   9.450  13.679  11.623 -0.6713 -1.7958 -1.7816
  903MOL0     H21885   8.560  12.980  11.406  0.5427  3.9222  0.6811
  903MOL0     H21886   8.362  12.895  11.315 -1.4644  1.3198  0.9922
  903MOL0     H21887   8.138  12.726  10.938 -0.6900 -1.6772 -0.8140
  903MOL0     H21888   7.949  12.621  10.822  2.6283 -0.6411  0.2480
  903MOL0     H21889   8.857  11.663  10.502  1.7025 -0.7502 -1.7425
  903MOL0     H21890   8.872  11.441  10.448  0.1450  0.1069  0.6083
  903MOL0     H21891   8.612  11.058  10.517  4.3891  0.5109 -0.8437
  903MOL0     H21892   8.573  10.823  10.527  0.2034 -0.0563 -0.0510
  903MOL0     H21893   8.755  10.629  10.289 -2.2200  0.6617 -3.6920
  903MOL0     H21894   8.644  10.504  10.249  1.4547  0.8847 -1.6695
  903MOL0     H21895   8.583  10.480  10.484  0.2302  0.2484  0.7605
  903MOL0     H21896   8.681  10.614  10.536 -2.1855  0.8392 -0.0651
  903MOL0     H21897   8.821  10.424  10.353  1.0581 -1.3630  0.3522
  903MOL0     H21898   8.768  10.346  10.501  0.8518 -0.0860 -1.9234
  903MOL0     H21899   8.895  10.578  10.603  1.2923  1.5067 -1.4949
  903MOL0     H21900   8.970  10.419  10.571 -1.7539 -1.4026 -1.1299
  903MOL0     H21901   9.173  10.671  10.295  0.9159  1.0531  0.6957
  903MOL0     H21902   8.556  10.806  10.109 -1.1230  0.6125  0.8488
  903MOL0     H21903   8.716  11.082  10.024  0.5926 -0.0900 -0.8738
  903MOL0     H21904   8.571  10.992   9.966 -2.5907  2.3959 -0.0786
  903MOL0     H21905   8.552  11.149  10.033 -2.0891 -2.0713 -0.8234
  904MOL0     O21906   6.867  11.195   2.635  1.1393 -0.4493 -0.2878
  904MOL0     C21907   6.769  11.260   2.681 -0.9704 -0.1132 -0.4762
  904MOL0     O21908   6.781  11.374   2.758  0.3579 -0.4883 -0.0066
  904MOL0     C21909   6.901  11.440   2.757  0.6472 -0.8974  0.6711
  904MOL0     C21910   7.002  11.447   2.657  0.0254 -0.2370  0.4878
  904MOL0     C21911   7.116  11.534   2.659  0.8824 -0.0151 -0.0497
  904MOL0     C21912   7.137  11.596   2.780 -0.7969  0.2537  0.1717
  904MOL0     O21913   7.244  11.675   2.805 -0.1290 -0.2894  0.5144
  904MOL0     C21914   7.348  11.601   2.868 -0.0291  1.7715 -0.4942
  904MOL0     C21915   7.438  11.509   2.784  0.7166 -0.3936 -0.3288
  904MOL0     C21916   7.495  11.579   2.660 -0.5843  0.3989 -0.2624
  904MOL0     C21917   7.612  11.499   2.611 -0.4563 -0.5503  0.3556
  904MOL0     C21918   7.582  11.352   2.571 -0.5101  0.1479  0.1922
  904MOL0     C21919   7.697  11.287   2.488 -0.7385 -0.7013  0.3920
  904MOL0     C21920   7.666  11.143   2.456 -0.7621  0.0684  0.4678
  904MOL0     C21921   7.774  11.085   2.352 -0.0150  1.2475 -0.4149
  904MOL0     N21922   7.809  10.947   2.380 -0.1329  0.3345  0.7660
  904MOL0     C21923   7.881  10.911   2.492 -0.1382  0.7923  0.1541
  904MOL0     C21924   7.872  10.778   2.491 -0.5168  0.4777  0.0670
  904MOL0     C21925   7.928  10.695   2.596  0.5048 -0.5847 -0.1030
  904MOL0     C21926   8.080  10.697   2.619  0.7045  0.1555  0.2642
  904MOL0     C21927   8.147  10.666   2.490 -0.0421  0.8209  0.7940
  904MOL0     C21928   8.291  10.661   2.510 -0.4232 -0.4563 -0.0797
  904MOL0     O21929   8.356  10.784   2.552 -0.8031  0.1368  0.0128
  904MOL0     C21930   8.486  10.796   2.509  0.7749 -0.9475  1.1864
  904MOL0     C21931   8.564  10.717   2.426  0.5347  0.2094  0.1827
  904MOL0     C21932   8.692  10.753   2.375 -0.5848  0.4600  0.3788
  904MOL0     C21933   8.754  10.872   2.420 -0.4236  0.0769 -0.1245
  904MOL0     C21934   8.884  10.909   2.364 -0.6196  0.0409  0.3027
  904MOL0     O21935   8.966  10.809   2.329 -0.1187  1.0625  0.1143
  904MOL0     C21936   9.080  10.848   2.255 -0.5777  0.2623 -0.5362
  904MOL0     C21937   9.069  10.928   2.143  0.2784  0.2632 -0.2531
  904MOL0     C21938   9.188  10.980   2.081  0.1091 -0.4759  0.3723
  904MOL0     C21939   9.316  10.939   2.114 -0.7586  0.4593 -0.1324
  904MOL0     O21940   9.419  10.991   2.037  0.3272 -0.1059 -0.3091
  904MOL0     C21941   9.548  10.933   2.011  0.4005  0.0509  0.2251
  904MOL0     C21942   9.547  10.782   1.969 -0.7466  0.2054 -0.4581
  904MOL0     C21943   9.681  10.710   1.962 -0.3386 -0.6251  0.1267
  904MOL0     C21944   9.678  10.581   1.872  0.0513 -0.0212 -0.7934
  904MOL0     C21945   9.815  10.524   1.866  0.0910 -0.2720  0.4427
  904MOL0     C21946   9.811  10.427   1.741 -0.4233  0.2343  0.3334
  904MOL0     C21947   9.959  10.370   1.732 -0.3648  0.2584  0.1330
  904MOL0     C21948   9.963  10.243   1.810 -0.0092 -0.2303 -0.3377
  904MOL0    Cl21949  10.121  10.168   1.814 -0.0615 -0.0485 -0.0209
  904MOL0     C21950   9.324  10.864   2.238  0.4974  0.8197 -0.7511
  904MOL0     C21951   9.208  10.823   2.309  0.4360  0.4513  0.3419
  904MOL0     O21952   8.915  11.031   2.354  0.0316 -0.4017 -0.1363
  904MOL0     C21953   8.682  10.954   2.508 -0.5021 -0.4335 -0.0742
  904MOL0     C21954   8.549  10.921   2.551  0.2638  0.1089 -0.8609
  904MOL0     N21955   7.803  10.735   2.378 -0.9252  0.7199 -0.0624
  904MOL0     N21956   7.755  10.839   2.320  0.2031 -0.4099 -0.1126
  904MOL0     C21957   7.050  11.583   2.884  0.0522  0.5824  0.4541
  904MOL0     C21958   6.936  11.514   2.868 -0.4845 -0.5280  0.3080
  904MOL0     C21959   6.635  11.196   2.673  0.1938  0.0000  0.0915
  904MOL0     C21960   6.628  11.069   2.627  0.7207  0.8975 -0.0126
  904MOL0     C21961   6.503  11.000   2.607 -0.5661  0.9049  0.3302
  904MOL0     C21962   6.387  11.068   2.633  0.3941  0.2137  0.4597
  904MOL0     O21963   6.253  11.018   2.635  0.0113  0.4753 -0.0156
  904MOL0     C21964   6.224  10.884   2.589 -0.7881 -0.2258 -0.4119
  904MOL0     C21965   6.094  10.829   2.653 -0.2756  0.1676  0.4303
  904MOL0     C21966   6.059  10.707   2.575  0.5533  0.5271 -0.3401
  904MOL0     C21967   5.929  10.634   2.611 -0.6768  0.2609 -0.4032
  904MOL0     C21968   5.885  10.545   2.509 -0.4847 -0.0292 -0.2008
  904MOL0     C21969   5.855  10.487   2.406  0.4217  0.5656  0.1518
  904MOL0     C21970   6.390  11.204   2.672  0.8103 -0.2473 -0.0068
  904MOL0     C21971   6.517  11.273   2.686  0.5901  0.1827 -0.9509
  904MOL0     C21972   6.513  11.409   2.750  1.0925 -0.0124 -0.7401
  904MOL0     H21973   6.997  11.409   2.555 -2.4770 -2.3086  1.2683
  904MOL0     H21974   7.186  11.575   2.587  2.5772 -0.1478  1.4256
  904MOL0     H21975   7.415  11.666   2.926  0.5000 -1.2374  2.5716
  904MOL0     H21976   7.297  11.548   2.949 -0.1696  2.9031  0.1814
  904MOL0     H21977   7.386  11.419   2.750 -0.8253  0.4228 -0.2446
  904MOL0     H21978   7.524  11.482   2.846  2.3105  2.5875 -1.0316
  904MOL0     H21979   7.542  11.674   2.687 -0.4334 -0.3969  2.6486
  904MOL0     H21980   7.409  11.584   2.593  0.4757  1.7971 -1.5785
  904MOL0     H21981   7.646  11.553   2.522  1.2712 -1.4720  0.4179
  904MOL0     H21982   7.697  11.513   2.678  0.5221 -1.3610 -0.6765
  904MOL0     H21983   7.569  11.308   2.670 -4.0774  0.1282 -0.1745
  904MOL0     H21984   7.490  11.336   2.516 -0.2824  0.6164 -0.3411
  904MOL0     H21985   7.726  11.352   2.405  0.4360  1.3446  2.3131
  904MOL0     H21986   7.787  11.281   2.549  1.1496 -0.9358 -2.2224
  904MOL0     H21987   7.572  11.121   2.405 -0.2005 -2.4042  0.3381
  904MOL0     H21988   7.667  11.081   2.546 -2.3053  0.0126  0.4705
  904MOL0     H21989   7.742  11.103   2.248  0.1950 -1.8432 -1.1042
  904MOL0     H21990   7.868  11.139   2.366  1.3186 -1.0832  0.0681
  904MOL0     H21991   7.923  10.977   2.567  3.3382 -2.5754  1.5178
  904MOL0     H21992   7.872  10.728   2.684  2.1126 -0.2994  0.8573
  904MOL0     H21993   7.905  10.589   2.578  1.8404 -0.9172  0.0671
  904MOL0     H21994   8.108  10.793   2.664  1.8438  1.1951 -2.4377
  904MOL0     H21995   8.107  10.619   2.690 -1.9973  0.2306  1.4926
  904MOL0     H21996   8.116  10.724   2.403 -0.1419 -0.4794 -0.0666
  904MOL0     H21997   8.117  10.565   2.461  1.2723  1.6165 -4.3713
  904MOL0     H21998   8.319  10.631   2.408 -1.2324 -1.7540  0.0720
  904MOL0     H21999   8.317  10.582   2.580 -3.3832 -0.7552  0.8054
  904MOL0     H22000   8.523  10.625   2.385 -2.1545  1.1537  0.4911
  904MOL0     H22001   8.749  10.678   2.322 -0.2019  0.2146  1.1286
  904MOL0     H22002   8.967  10.953   2.114  0.0779 -2.0304 -1.7951
  904MOL0     H22003   9.169  11.049   2.000 -2.5709 -2.3876 -0.7887
  904MOL0     H22004   9.578  10.993   1.925 -3.0058  1.0603 -0.4023
  904MOL0     H22005   9.613  10.952   2.097  0.9507  0.2755 -0.2376
  904MOL0     H22006   9.501  10.729   2.053  1.3608  0.8251  1.1739
  904MOL0     H22007   9.490  10.780   1.876 -0.8303 -0.8103 -0.4013
  904MOL0     H22008   9.755  10.788   1.941  0.1219 -0.5734  1.7870
  904MOL0     H22009   9.709  10.683   2.064 -0.7471  1.5133  0.8508
  904MOL0     H22010   9.655  10.634   1.779 -2.9265  1.2223  0.5150
  904MOL0     H22011   9.594  10.517   1.900 -0.1823  1.0545  1.0887
  904MOL0     H22012   9.848  10.469   1.954  0.8645 -1.2233 -0.4066
  904MOL0     H22013   9.883  10.609   1.853 -1.9685  1.5274  0.6548
  904MOL0     H22014   9.739  10.347   1.762  1.5994 -1.5198  0.9030
  904MOL0     H22015   9.791  10.497   1.659  2.2952  1.4024  0.5728
  904MOL0     H22016  10.025  10.453   1.759 -1.2591  1.8056 -2.1613
  904MOL0     H22017   9.998  10.337   1.636  1.1188 -0.6904  1.0209
  904MOL0     H22018   9.925  10.265   1.911  2.8187 -0.7510  0.9315
  904MOL0     H22019   9.898  10.171   1.759 -0.8974 -0.3524  0.9114
  904MOL0     H22020   9.415  10.849   2.295 -1.4569 -4.5382  1.6010
  904MOL0     H22021   9.215  10.783   2.410 -0.1069 -0.9635 -0.1554
  904MOL0     H22022   8.716  11.054   2.535 -1.8063  0.1308 -0.4233
  904MOL0     H22023   8.492  10.997   2.604 -2.2447 -1.5333 -1.0173
  904MOL0     H22024   7.075  11.646   2.969 -0.3247  1.4500 -0.0642
  904MOL0     H22025   6.860  11.520   2.945 -3.3638 -0.4369 -2.3405
  904MOL0     H22026   6.720  11.011   2.626  1.3108  1.7303  1.7482
  904MOL0     H22027   6.495  10.895   2.581  4.1369  0.4558 -0.1564
  904MOL0     H22028   6.299  10.814   2.625 -0.9829  0.2244  0.9334
  904MOL0     H22029   6.217  10.882   2.480 -2.7486 -0.4933 -0.3276
  904MOL0     H22030   6.006  10.895   2.648 -1.5956 -1.1865  3.2061
  904MOL0     H22031   6.109  10.813   2.760 -1.6121 -0.8385  0.4981
  904MOL0     H22032   6.142  10.637   2.565 -1.5850 -2.2287 -0.0080
  904MOL0     H22033   6.032  10.749   2.477 -1.3124  2.5107  0.9456
  904MOL0     H22034   5.945  10.584   2.707 -1.7686  2.3241  0.9474
  904MOL0     H22035   5.855  10.715   2.618 -1.1439  0.1188 -2.7874
  904MOL0     H22036   5.822  10.451   2.310  1.6960 -0.8891  0.2298
  904MOL0     H22037   6.292  11.244   2.696  1.4585  0.8657  0.9544
  904MOL0     H22038   6.408  11.441   2.758  1.3704  0.8163 -0.3985
  904MOL0     H22039   6.554  11.396   2.850  0.8850 -2.5270 -0.9171
  904MOL0     H22040   6.567  11.477   2.683 -1.5755  2.3421 -0.6863
  905MOL0     O22041   6.863  10.066   2.610 -0.7817  0.1036  0.1221
  905MOL0     C22042   6.939  10.096   2.705 -0.5660 -0.9065  0.4578
  905MOL0     O22043   6.932  10.054   2.835  0.7590  0.2411 -0.1739
  905MOL0     C22044   6.832   9.970   2.880 -0.9749 -0.1962 -0.2270
  905MOL0     C22045   6.796   9.851   2.810  0.3892  0.7627  0.6410
  905MOL0     C22046   6.717   9.760   2.875 -0.3581 -0.0313 -0.0547
  905MOL0     C22047   6.678   9.769   3.011  0.2620  0.0507  0.0493
  905MOL0     O22048   6.608   9.668   3.068 -0.3698 -0.0467  1.1077
  905MOL0     C22049   6.664   9.636   3.200 -0.3113  0.6571  0.7390
  905MOL0     C22050   6.595   9.499   3.238  0.0366  0.2506 -0.1347
  905MOL0     C22051   6.592   9.458   3.387  0.6517 -0.5258 -0.8426
  905MOL0     C22052   6.726   9.459   3.456  0.0300 -0.7937 -0.2013
  905MOL0     C22053   6.711   9.410   3.608 -0.1318  0.2773  0.2481
  905MOL0     C22054   6.647   9.521   3.685 -0.0860  0.1383  0.1686
  905MOL0     C22055   6.653   9.499   3.835  0.2087  0.3661 -0.6476
  905MOL0     C22056   6.612   9.621   3.917  0.9042  0.4745 -0.2180
  905MOL0     N22057   6.594   9.608   4.061 -0.1767 -0.3737 -0.0121
  905MOL0     C22058   6.474   9.571   4.129 -0.6798 -0.4153 -0.0534
  905MOL0     C22059   6.507   9.572   4.257 -0.1365  0.1642 -0.4129
  905MOL0     C22060   6.411   9.528   4.367  0.1678 -0.0957  0.1134
  905MOL0     C22061   6.468   9.550   4.502 -0.5351 -0.1363  0.7030
  905MOL0     C22062   6.356   9.534   4.606  0.0532 -0.7343  0.2739
  905MOL0     C22063   6.407   9.448   4.724 -0.2253 -0.6556 -0.1871
  905MOL0     O22064   6.453   9.312   4.690  0.4894  0.5722 -0.1801
  905MOL0     C22065   6.570   9.267   4.748  0.7137 -0.1608 -0.3606
  905MOL0     C22066   6.610   9.153   4.690  0.3217  0.0964  0.7719
  905MOL0     C22067   6.723   9.087   4.733  0.0547 -0.1461 -0.3732
  905MOL0     C22068   6.806   9.140   4.838 -0.6079 -1.1263 -0.0772
  905MOL0     C22069   6.931   9.085   4.875 -0.1989  0.1610 -0.3779
  905MOL0     O22070   6.956   8.964   4.824 -0.7530  0.9774 -0.2459
  905MOL0     C22071   7.087   8.917   4.832 -0.0147  0.0256 -0.0582
  905MOL0     C22072   7.142   8.874   4.959  1.0737  0.2335  0.2576
  905MOL0     C22073   7.270   8.826   4.961 -1.5544 -0.5270  0.4771
  905MOL0     C22074   7.353   8.855   4.846 -0.3589  0.0509 -1.0031
  905MOL0     O22075   7.485   8.820   4.845 -0.4551  0.9388  1.0184
  905MOL0     C22076   7.501   8.670   4.849 -0.2980  0.1086 -0.8195
  905MOL0     C22077   7.646   8.652   4.803  0.1171  0.2757 -0.5552
  905MOL0     C22078   7.646   8.677   4.653 -0.4937 -0.7111 -0.6197
  905MOL0     C22079   7.712   8.815   4.618  0.5954  0.2060 -0.1299
  905MOL0     C22080   7.864   8.815   4.614  0.1194  0.1789 -0.4498
  905MOL0     C22081   7.918   8.947   4.570 -0.6841 -0.2633 -0.3354
  905MOL0     C22082   8.070   8.958   4.582  0.4926  1.2540  0.2525
  905MOL0     C22083   8.105   9.103   4.591 -0.3155  0.6416  0.2075
  905MOL0    Cl22084   8.051   9.170   4.446 -0.1641 -0.5292 -0.1516
  905MOL0     C22085   7.302   8.899   4.730 -0.4996  0.0968  0.0516
  905MOL0     C22086   7.167   8.925   4.714  0.1126  0.5489 -0.5463
  905MOL0     O22087   7.018   9.162   4.925  0.3884 -0.3233  0.4202
  905MOL0     C22088   6.756   9.262   4.897  0.5438  0.2728  0.3681
  905MOL0     C22089   6.641   9.320   4.854  0.7244  0.1948 -0.1293
  905MOL0     N22090   6.629   9.617   4.276 -0.0705 -0.4521  0.5419
  905MOL0     N22091   6.683   9.637   4.154  0.6801  0.2442 -0.2299
  905MOL0     C22092   6.720   9.883   3.081 -0.1245 -0.3559  0.2041
  905MOL0     C22093   6.789   9.995   3.014  1.0089  0.5229  0.1752
  905MOL0     C22094   7.059  10.187   2.666  0.1258  0.3033 -0.9792
  905MOL0     C22095   7.053  10.252   2.540 -0.1124 -0.0228 -0.7911
  905MOL0     C22096   7.156  10.340   2.498 -0.2138 -0.0201  0.6712
  905MOL0     C22097   7.275  10.352   2.561 -0.5421 -0.1891 -0.8875
  905MOL0     O22098   7.371  10.441   2.502  0.4336  0.2393  0.8880
  905MOL0     C22099   7.487  10.488   2.573 -0.4014 -0.5507 -0.5341
  905MOL0     C22100   7.522  10.624   2.525 -0.9378 -0.1106 -1.2827
  905MOL0     C22101   7.411  10.727   2.552  0.7165 -0.6313 -1.0099
  905MOL0     C22102   7.457  10.880   2.550  0.0343  0.2773 -0.4356
  905MOL0     C22103   7.368  10.973   2.630  0.2492  0.6475  0.1152
  905MOL0     C22104   7.267  11.023   2.679 -0.3787 -0.7087  0.4887
  905MOL0     C22105   7.290  10.283   2.686 -0.3291 -0.3394 -0.0411
  905MOL0     C22106   7.182  10.201   2.736  0.0287 -0.4380 -0.2890
  905MOL0     C22107   7.211  10.135   2.874  0.4642 -0.3371 -0.1037
  905MOL0     H22108   6.829   9.843   2.706  3.0743  1.1422  1.3770
  905MOL0     H22109   6.677   9.672   2.827  1.2982 -1.6755  1.4236
  905MOL0     H22110   6.770   9.616   3.182 -1.3136 -2.6275 -3.2279
  905MOL0     H22111   6.644   9.710   3.278 -1.9688 -0.2850  1.2495
  905MOL0     H22112   6.638   9.418   3.179 -0.3531 -2.2014  2.7151
  905MOL0     H22113   6.489   9.503   3.211 -0.1600 -2.7579 -0.1566
  905MOL0     H22114   6.539   9.362   3.396 -1.7084  0.7705  0.0113
  905MOL0     H22115   6.530   9.527   3.445  2.5101  0.0431  0.5617
  905MOL0     H22116   6.802   9.394   3.412  0.0723 -1.2707  0.5548
  905MOL0     H22117   6.771   9.557   3.441 -2.9354  0.9815  1.6082
  905MOL0     H22118   6.656   9.318   3.627  3.4982 -2.0635  0.4740
  905MOL0     H22119   6.811   9.390   3.647 -0.1244 -1.1371 -0.4428
  905MOL0     H22120   6.688   9.617   3.650 -0.2620 -0.4434 -1.7385
  905MOL0     H22121   6.540   9.515   3.661  0.3647 -4.6355 -1.6682
  905MOL0     H22122   6.758   9.470   3.843 -0.0757 -0.7572 -0.8867
  905MOL0     H22123   6.589   9.415   3.865 -0.0217  0.2944 -1.3415
  905MOL0     H22124   6.696   9.688   3.897  3.2940 -2.0222  0.8216
  905MOL0     H22125   6.512   9.651   3.886 -1.1849 -2.5900  2.8693
  905MOL0     H22126   6.383   9.539   4.079  0.3982 -1.2738 -1.5787
  905MOL0     H22127   6.323   9.591   4.356  0.5193  0.2955 -0.5752
  905MOL0     H22128   6.372   9.426   4.369 -1.2259  0.3884  3.7782
  905MOL0     H22129   6.543   9.475   4.527 -2.6834 -1.7127  2.9100
  905MOL0     H22130   6.514   9.649   4.503  3.1603 -1.7012  0.8574
  905MOL0     H22131   6.272   9.479   4.563 -0.1717 -0.1993  0.0305
  905MOL0     H22132   6.311   9.629   4.637  0.0674  0.3102 -2.5711
  905MOL0     H22133   6.322   9.444   4.793  0.1327  2.1683  0.5354
  905MOL0     H22134   6.481   9.505   4.781 -0.3531 -0.6311 -0.0472
  905MOL0     H22135   6.555   9.102   4.611 -0.1681  3.0845 -0.9293
  905MOL0     H22136   6.765   8.999   4.684  0.7804  1.1508 -2.1958
  905MOL0     H22137   7.076   8.863   5.044  1.0352  1.3374  0.3825
  905MOL0     H22138   7.315   8.790   5.053 -2.3008  0.8392  1.4071
  905MOL0     H22139   7.483   8.637   4.952 -1.6800  2.0685 -0.3717
  905MOL0     H22140   7.429   8.624   4.781 -2.9484  4.1090 -1.0606
  905MOL0     H22141   7.721   8.714   4.852  3.2060  0.7332 -5.2196
  905MOL0     H22142   7.667   8.546   4.821  0.0019  0.0589 -1.6312
  905MOL0     H22143   7.696   8.598   4.596  1.2254  1.1488 -1.8726
  905MOL0     H22144   7.548   8.681   4.605 -0.5909 -4.2073 -0.9908
  905MOL0     H22145   7.674   8.888   4.690 -0.6400 -1.0430  0.5392
  905MOL0     H22146   7.685   8.837   4.514  1.4611  0.3710 -0.3237
  905MOL0     H22147   7.904   8.739   4.546  1.3406 -0.3312  0.8011
  905MOL0     H22148   7.901   8.787   4.713 -2.6724 -1.8630  0.1402
  905MOL0     H22149   7.885   8.978   4.470 -0.5545 -0.2597 -0.3767
  905MOL0     H22150   7.869   9.016   4.640  1.1862  0.2763  0.5000
  905MOL0     H22151   8.117   8.906   4.498 -0.5389  0.9319 -0.1467
  905MOL0     H22152   8.108   8.916   4.675  2.0588  0.0885 -0.8547
  905MOL0     H22153   8.055   9.155   4.674  1.8488  1.4702  1.0936
  905MOL0     H22154   8.214   9.114   4.595 -0.1763 -0.2063 -0.8493
  905MOL0     H22155   7.368   8.929   4.648 -0.2023  0.1907  0.3223
  905MOL0     H22156   7.131   8.955   4.616 -2.4128  0.3537  0.2469
  905MOL0     H22157   6.815   9.294   4.982 -1.1036  1.0622  1.2778
  905MOL0     H22158   6.609   9.406   4.912  0.6001  0.7587 -1.0194
  905MOL0     H22159   6.693   9.888   3.186  0.4543  3.6572  0.3030
  905MOL0     H22160   6.812  10.083   3.073  0.6098 -0.6591  2.1848
  905MOL0     H22161   6.969  10.251   2.472  1.3854  5.7006 -3.4109
  905MOL0     H22162   7.137  10.384   2.400 -0.6521 -0.2686  0.6422
  905MOL0     H22163   7.575  10.427   2.553 -0.2556 -0.1884 -1.0108
  905MOL0     H22164   7.464  10.487   2.680 -1.6290 -0.4036 -0.7858
  905MOL0     H22165   7.540  10.617   2.417  0.2801  2.3304 -1.2866
  905MOL0     H22166   7.612  10.652   2.580 -1.2899 -2.2580  0.5376
  905MOL0     H22167   7.359  10.693   2.642 -0.8929  0.8763 -1.3253
  905MOL0     H22168   7.336  10.703   2.476  0.0696  2.0654 -1.3235
  905MOL0     H22169   7.553  10.880   2.603  0.2957  1.8789 -0.8635
  905MOL0     H22170   7.479  10.916   2.449  0.7250  1.0866 -0.0165
  905MOL0     H22171   7.188  11.078   2.726 -2.5554 -2.2182 -1.2211
  905MOL0     H22172   7.385  10.289   2.739  1.1363 -0.8126 -2.4752
  905MOL0     H22173   7.310  10.149   2.918  0.1927  3.1733 -0.2725
  905MOL0     H22174   7.138  10.178   2.944  2.6918  3.6882  0.0819
  905MOL0     H22175   7.176  10.032   2.875  3.3251 -1.3830  0.4108
  906MOL0     O22176   0.019   3.157   7.710 -0.6289 -0.2575  0.0246
  906MOL0     C22177  -0.002   3.143   7.593  0.7366  1.3793 -0.1715
  906MOL0     O22178   0.037   3.225   7.498 -0.1478 -0.2971 -0.3424
  906MOL0     C22179   0.115   3.329   7.530  0.3142  0.5934 -0.0879
  906MOL0     C22180   0.219   3.335   7.626 -0.4440 -0.3670  0.0676
  906MOL0     C22181   0.303   3.449   7.625 -0.9169  0.5462  0.1092
  906MOL0     C22182   0.279   3.558   7.539 -0.8404 -0.0029  0.4633
  906MOL0     O22183   0.354   3.673   7.538  0.4854 -0.2353  0.5734
  906MOL0     C22184   0.496   3.644   7.531  0.1435  0.1389  0.1917
  906MOL0     C22185   0.572   3.775   7.566 -0.5597 -0.0862 -0.0863
  906MOL0     C22186   0.722   3.768   7.564 -0.3438 -0.0260 -0.4326
  906MOL0     C22187   0.778   3.645   7.648  0.4830 -0.2780 -0.0999
  906MOL0     C22188   0.935   3.626   7.648 -0.1919 -0.4641  0.5947
  906MOL0     C22189   1.001   3.698   7.765 -0.0864 -0.2796  0.2618
  906MOL0     C22190   1.147   3.712   7.732 -1.3212 -1.3140  0.1890
  906MOL0     C22191   1.226   3.792   7.833 -1.2822  0.1341  0.6948
  906MOL0     N22192   1.356   3.839   7.789 -0.5609 -0.2973  0.1809
  906MOL0     C22193   1.476   3.760   7.777 -0.7740  0.0380 -0.4013
  906MOL0     C22194   1.568   3.851   7.722  0.1919  0.0823  0.3660
  906MOL0     C22195   1.713   3.846   7.700 -0.0939 -0.8549  0.1001
  906MOL0     C22196   1.797   3.858   7.832  0.4271  0.3762 -0.7831
  906MOL0     C22197   1.771   3.991   7.912  0.2108 -0.2372  0.6215
  906MOL0     C22198   1.825   3.972   8.049  0.5186 -0.6309 -0.9598
  906MOL0     O22199   1.972   3.958   8.044 -0.1855  0.0934  0.1086
  906MOL0     C22200   2.049   4.075   8.065 -0.1467  0.0557  0.4557
  906MOL0     C22201   2.187   4.054   8.071  0.2861 -0.4054 -0.0345
  906MOL0     C22202   2.271   4.160   8.099  0.5956 -0.8144  0.4158
  906MOL0     C22203   2.217   4.286   8.112  0.1041  0.1729  0.6036
  906MOL0     C22204   2.308   4.389   8.132  0.0317 -0.9592 -1.6245
  906MOL0     O22205   2.407   4.372   8.216  0.3793 -0.6620  0.5485
  906MOL0     C22206   2.495   4.471   8.244 -0.1232  0.1832  0.2515
  906MOL0     C22207   2.567   4.444   8.364  0.3990  0.2571 -0.1851
  906MOL0     C22208   2.661   4.530   8.420  0.6943 -0.2119  0.1038
  906MOL0     C22209   2.678   4.662   8.363  0.0983 -0.3837  0.2917
  906MOL0     O22210   2.765   4.745   8.434 -0.5228  0.8146  0.6614
  906MOL0     C22211   2.765   4.876   8.405 -0.2490  0.5154  0.6503
  906MOL0     C22212   2.847   4.960   8.508 -0.5194  0.5601 -0.4421
  906MOL0     C22213   2.998   4.951   8.493 -0.0267  0.0728  0.3714
  906MOL0     C22214   3.043   4.801   8.483 -0.8198 -0.4260 -0.4118
  906MOL0     C22215   3.191   4.785   8.508  0.2327 -0.6141 -0.4398
  906MOL0     C22216   3.232   4.637   8.526  0.1892  0.1426  0.4376
  906MOL0     C22217   3.388   4.616   8.547 -0.0615 -0.4438  0.4707
  906MOL0     C22218   3.435   4.477   8.550  0.2865 -0.1899  0.6570
  906MOL0    Cl22219   3.605   4.486   8.603  0.1596 -0.2417 -0.1990
  906MOL0     C22220   2.585   4.699   8.260  0.0438 -0.2040 -0.0995
  906MOL0     C22221   2.498   4.611   8.201 -0.1446 -0.0327 -0.4496
  906MOL0     O22222   2.286   4.485   8.059  0.4640 -0.5126  0.3822
  906MOL0     C22223   2.078   4.309   8.097  0.2432  0.0876  0.2050
  906MOL0     C22224   1.992   4.202   8.070 -0.3522  0.1386  0.2233
  906MOL0     N22225   1.500   3.964   7.687 -0.1337 -0.1921 -0.3345
  906MOL0     N22226   1.379   3.955   7.726 -0.5115 -0.4528 -0.8601
  906MOL0     C22227   0.165   3.560   7.461  0.3458  0.9370 -0.3868
  906MOL0     C22228   0.089   3.439   7.451 -0.6185 -0.8878 -0.4606
  906MOL0     C22229  -0.098   3.026   7.550  0.3435 -0.0818 -0.7370
  906MOL0     C22230  -0.142   3.035   7.423 -0.0292  0.5171  0.2040
  906MOL0     C22231  -0.210   2.923   7.358  0.0575 -0.0471  0.6189
  906MOL0     C22232  -0.218   2.800   7.428  0.2248 -0.2354  0.4125
  906MOL0     O22233  -0.259   2.684   7.376 -0.1648  0.4656  0.3881
  906MOL0     C22234  -0.340   2.669   7.256 -0.5520 -0.7668  0.5525
  906MOL0     C22235  -0.469   2.621   7.299  0.3867  0.2080 -0.1231
  906MOL0     C22236  -0.560   2.748   7.294  0.0319 -0.1412 -1.4113
  906MOL0     C22237  -0.706   2.699   7.290 -0.6728  1.0487  0.5135
  906MOL0     C22238  -0.803   2.805   7.260 -0.2566  0.0355 -0.8841
  906MOL0     C22239  -0.886   2.888   7.240  0.5182 -0.2997 -0.4040
  906MOL0     C22240  -0.179   2.801   7.556  0.9753 -0.6350  0.6730
  906MOL0     C22241  -0.123   2.907   7.628 -0.0484 -0.0931 -0.8846
  906MOL0     C22242  -0.084   2.897   7.774  0.9547  0.5212 -0.2507
  906MOL0     H22243   0.244   3.258   7.698 -2.6030 -0.8355  0.4065
  906MOL0     H22244   0.396   3.439   7.679 -0.7617 -2.9377 -0.6057
  906MOL0     H22245   0.528   3.573   7.608  0.5467  0.2937  0.1730
  906MOL0     H22246   0.541   3.617   7.435  0.3824  2.2258 -0.3413
  906MOL0     H22247   0.536   3.812   7.662 -0.3868 -2.7452  1.0872
  906MOL0     H22248   0.552   3.847   7.486  4.0580  3.8032  1.7469
  906MOL0     H22249   0.761   3.853   7.621 -1.4384 -1.5052  2.7284
  906MOL0     H22250   0.759   3.778   7.461  1.3574  2.3561  0.3085
  906MOL0     H22251   0.734   3.644   7.748  0.1720 -2.2674 -0.2245
  906MOL0     H22252   0.745   3.547   7.611  0.4067 -0.0584 -0.6196
  906MOL0     H22253   0.953   3.518   7.647 -2.6675 -0.9916  2.0856
  906MOL0     H22254   0.975   3.664   7.554  2.0190  0.1867  1.7330
  906MOL0     H22255   0.945   3.784   7.802  0.7436 -0.7698  2.8579
  906MOL0     H22256   1.003   3.629   7.850  2.5363  1.1095  1.4634
  906MOL0     H22257   1.168   3.763   7.638 -0.0667 -2.1377 -0.0089
  906MOL0     H22258   1.188   3.610   7.731 -0.9024 -1.2080 -3.2152
  906MOL0     H22259   1.172   3.881   7.867  1.3930  1.1448  2.6466
  906MOL0     H22260   1.247   3.714   7.908 -1.1719 -1.5728 -1.0225
  906MOL0     H22261   1.499   3.661   7.814  0.7586  0.0173 -1.3069
  906MOL0     H22262   1.733   3.758   7.638  0.0320  0.3510 -1.6331
  906MOL0     H22263   1.730   3.928   7.630 -3.7540  0.5494  0.5860
  906MOL0     H22264   1.781   3.775   7.901  1.9143  1.9085  1.5513
  906MOL0     H22265   1.903   3.862   7.806  0.1206  5.6903 -2.3144
  906MOL0     H22266   1.663   4.002   7.918 -0.0081 -1.2787 -0.7930
  906MOL0     H22267   1.822   4.075   7.862  1.2659 -1.4616 -0.4627
  906MOL0     H22268   1.796   3.884   8.107 -2.4927 -0.6682 -2.2991
  906MOL0     H22269   1.792   4.059   8.106 -0.7524 -0.4054 -1.9916
  906MOL0     H22270   2.230   3.957   8.047 -2.1380 -1.5815  0.0965
  906MOL0     H22271   2.377   4.140   8.093  0.4166 -1.4649 -0.9270
  906MOL0     H22272   2.551   4.345   8.404 -0.4632  0.9064  1.1219
  906MOL0     H22273   2.707   4.513   8.517  1.9971 -1.4552 -0.7056
  906MOL0     H22274   2.807   4.893   8.306 -0.2008  1.1231  0.7695
  906MOL0     H22275   2.665   4.919   8.412 -0.8672  0.3456 -4.0636
  906MOL0     H22276   2.823   5.065   8.494 -0.4045  0.9980  2.1952
  906MOL0     H22277   2.825   4.927   8.610  0.1999 -0.8031 -0.6942
  906MOL0     H22278   3.037   4.999   8.403 -2.5802 -0.5768 -1.1551
  906MOL0     H22279   3.049   4.995   8.580  2.2241 -3.3477  0.9869
  906MOL0     H22280   3.013   4.766   8.384 -2.8921 -0.6069  0.2427
  906MOL0     H22281   2.988   4.746   8.560  0.6743  0.4929  1.4037
  906MOL0     H22282   3.230   4.844   8.592 -0.5375 -0.2743 -0.3132
  906MOL0     H22283   3.249   4.817   8.420 -1.4530  0.3378 -1.2688
  906MOL0     H22284   3.170   4.590   8.603 -2.7182  1.7462 -0.7417
  906MOL0     H22285   3.204   4.596   8.428 -1.8659 -0.5468  1.2476
  906MOL0     H22286   3.418   4.670   8.637  1.1516 -1.4505  0.7015
  906MOL0     H22287   3.438   4.666   8.463  2.7024  0.3964  2.4572
  906MOL0     H22288   3.384   4.418   8.627 -1.4942  0.0805 -0.2759
  906MOL0     H22289   3.412   4.406   8.470 -1.3107 -3.3073  3.6113
  906MOL0     H22290   2.585   4.799   8.216 -2.1165 -0.5302 -0.9792
  906MOL0     H22291   2.436   4.643   8.118 -2.4493 -0.7100  0.9071
  906MOL0     H22292   2.036   4.410   8.100  1.7155  0.8135 -1.5136
  906MOL0     H22293   1.888   4.232   8.061  0.5315  3.3024 -0.8066
  906MOL0     H22294   0.123   3.651   7.419 -0.3612 -0.1718 -2.1717
  906MOL0     H22295   0.012   3.438   7.375 -0.4689 -0.9905 -0.6137
  906MOL0     H22296  -0.127   3.129   7.371 -0.3284  1.5675  1.9424
  906MOL0     H22297  -0.228   2.926   7.251 -0.0089  0.5402  0.6462
  906MOL0     H22298  -0.294   2.597   7.188  0.2311  1.4231 -1.3833
  906MOL0     H22299  -0.342   2.755   7.188 -1.2457 -0.3981  1.0260
  906MOL0     H22300  -0.468   2.567   7.394  0.7160 -2.5427 -1.5716
  906MOL0     H22301  -0.501   2.547   7.225  3.9008 -0.0146 -1.6272
  906MOL0     H22302  -0.544   2.801   7.200 -0.1819 -0.3936 -1.5931
  906MOL0     H22303  -0.540   2.823   7.370  0.0603  0.9691 -2.4893
  906MOL0     H22304  -0.715   2.618   7.217 -2.5864  2.2790 -0.7203
  906MOL0     H22305  -0.731   2.663   7.390  0.2612  4.2599  2.0593
  906MOL0     H22306  -0.953   2.970   7.227 -2.4350 -2.4833  0.1492
  906MOL0     H22307  -0.174   2.701   7.597  2.1739 -1.0329 -0.3609
  906MOL0     H22308  -0.153   2.953   7.839 -1.0272 -1.2667 -0.6982
  906MOL0     H22309  -0.104   2.795   7.808 -0.7249  0.8387 -0.1769
  906MOL0     H22310   0.019   2.922   7.799  0.7019  2.9407 -1.3311
  907MOL0     O22311   9.439   3.419   6.592 -0.1029  0.2520  0.5663
  907MOL0     C22312   9.332   3.379   6.639  0.6083  0.5337 -0.1611
  907MOL0     O22313   9.277   3.427   6.759  0.4213  0.2064 -0.3221
  907MOL0     C22314   9.359   3.500   6.842 -0.6972  0.4879 -0.1841
  907MOL0     C22315   9.292   3.603   6.912  0.5943  0.8891  0.4264
  907MOL0     C22316   9.369   3.695   6.985  0.2575  0.1232  0.3848
  907MOL0     C22317   9.510   3.675   7.007  0.2819  0.1701 -0.0305
  907MOL0     O22318   9.565   3.761   7.104 -0.5542  0.6842  0.0870
  907MOL0     C22319   9.709   3.765   7.109 -0.1665 -0.8088 -0.4826
  907MOL0     C22320   9.768   3.831   7.234  0.3912 -0.3159 -0.2887
  907MOL0     C22321   9.913   3.880   7.205  0.1569  0.3222 -0.6306
  907MOL0     C22322   9.965   3.948   7.337 -0.3584 -0.0905 -0.8173
  907MOL0     C22323  10.112   4.001   7.323 -0.0239 -0.1661  0.3351
  907MOL0     C22324  10.151   4.128   7.402  0.3800  0.4727  0.2928
  907MOL0     C22325  10.220   4.099   7.544  0.0447 -0.2644 -0.3332
  907MOL0     C22326  10.347   4.184   7.591  1.3965 -0.6267 -0.4747
  907MOL0     N22327  10.436   4.227   7.480 -0.4290 -0.0587  0.2913
  907MOL0     C22328  10.498   4.141   7.394  0.9137 -0.7987  0.3256
  907MOL0     C22329  10.549   4.216   7.292  0.5360 -0.1478 -0.3344
  907MOL0     C22330  10.667   4.175   7.214  0.2538  0.2053 -0.0072
  907MOL0     C22331  10.779   4.273   7.215 -0.4692 -0.5168 -0.1385
  907MOL0     C22332  10.917   4.214   7.172 -0.8615 -0.5907 -0.0324
  907MOL0     C22333  11.027   4.328   7.167 -0.3272  0.7837  0.6375
  907MOL0     O22334  11.151   4.257   7.127 -0.4294 -0.7572 -0.1689
  907MOL0     C22335  11.265   4.331   7.106 -0.6274  0.7105 -0.3204
  907MOL0     C22336  11.275   4.422   7.004  0.9618  0.0609  0.6721
  907MOL0     C22337  11.392   4.500   6.996  0.3939 -0.3691  0.8877
  907MOL0     C22338  11.505   4.475   7.088  0.6148 -0.0158  0.8116
  907MOL0     C22339  11.632   4.543   7.061 -0.4884 -0.2276 -1.0858
  907MOL0     O22340  11.738   4.487   7.118 -0.0545  0.2523 -0.0222
  907MOL0     C22341  11.861   4.506   7.058 -0.7201  0.1983  0.3770
  907MOL0     C22342  11.967   4.556   7.136  0.3218 -0.3666 -0.2919
  907MOL0     C22343  12.091   4.592   7.076 -0.2449  1.4265  0.2431
  907MOL0     C22344  12.117   4.561   6.941 -0.4660 -0.2861  1.0090
  907MOL0     O22345  12.249   4.573   6.894  0.2116 -0.8888  0.5957
  907MOL0     C22346  12.277   4.566   6.751 -0.4165 -0.7575 -0.3242
  907MOL0     C22347  12.416   4.620   6.704 -0.7458 -1.5054  0.3354
  907MOL0     C22348  12.525   4.622   6.812 -0.8108 -0.2979  0.7382
  907MOL0     C22349  12.656   4.696   6.771  0.8123  0.6688 -0.7571
  907MOL0     C22350  12.764   4.674   6.876  0.2682  0.3614 -0.9050
  907MOL0     C22351  12.893   4.747   6.836 -0.1736 -0.5640  0.5591
  907MOL0     C22352  13.020   4.724   6.927  0.8296  0.1345  0.5067
  907MOL0     C22353  13.063   4.580   6.925 -0.0744 -0.1353  0.6391
  907MOL0    Cl22354  13.179   4.534   7.055  0.3086 -0.3219 -0.0134
  907MOL0     C22355  12.014   4.516   6.858 -0.5093 -0.3432  0.3984
  907MOL0     C22356  11.891   4.495   6.923 -0.5006 -0.0535 -0.1046
  907MOL0     O22357  11.623   4.640   6.985  0.1370 -0.0234 -0.6189
  907MOL0     C22358  11.497   4.362   7.173 -0.5854  0.6517  0.0796
  907MOL0     C22359  11.373   4.290   7.185  0.0953  0.1376 -0.0750
  907MOL0     N22360  10.519   4.348   7.324  0.9175 -0.1658 -0.2265
  907MOL0     N22361  10.459   4.360   7.444  0.2301 -0.0739  0.2844
  907MOL0     C22362   9.572   3.577   6.936 -0.3432 -0.1623 -0.3417
  907MOL0     C22363   9.502   3.489   6.852  0.9856 -0.3016  0.5313
  907MOL0     C22364   9.244   3.284   6.550 -0.3950  0.6505 -0.6954
  907MOL0     C22365   9.109   3.266   6.590  0.7486 -0.2215 -0.8629
  907MOL0     C22366   9.019   3.187   6.520  0.4065  0.3374 -0.5733
  907MOL0     C22367   9.062   3.121   6.399  0.3905  0.0221  0.0445
  907MOL0     O22368   8.992   3.044   6.318  0.5225 -0.3393  0.2640
  907MOL0     C22369   8.870   2.998   6.368  0.4740  0.3155  0.1984
  907MOL0     C22370   8.844   2.855   6.323  0.0206 -0.5947 -0.1897
  907MOL0     C22371   8.693   2.810   6.350  0.3533 -0.9795 -0.9992
  907MOL0     C22372   8.663   2.689   6.276  0.1125 -0.0332  0.2780
  907MOL0     C22373   8.519   2.693   6.280 -0.0021  0.9743  1.2854
  907MOL0     C22374   8.401   2.692   6.302  0.2465  0.1058 -0.5391
  907MOL0     C22375   9.198   3.127   6.369 -1.1816 -0.0798  0.7272
  907MOL0     C22376   9.288   3.209   6.440  0.5169  0.1568 -0.2162
  907MOL0     C22377   9.428   3.211   6.395  0.2213  0.1894 -0.9205
  907MOL0     H22378   9.185   3.610   6.902  0.2936 -1.8604  1.0970
  907MOL0     H22379   9.335   3.785   7.034  1.1207  1.0264 -0.6360
  907MOL0     H22380   9.748   3.662   7.110 -0.3162 -0.8943  1.9894
  907MOL0     H22381   9.743   3.814   7.018 -0.3146 -0.0554 -0.1362
  907MOL0     H22382   9.765   3.764   7.320  1.6586  2.5897  2.2012
  907MOL0     H22383   9.696   3.913   7.246  0.3460  0.3766 -4.0266
  907MOL0     H22384   9.928   3.951   7.122 -0.5436  1.5872  0.2909
  907MOL0     H22385   9.967   3.787   7.190  0.5242  0.1163  1.6793
  907MOL0     H22386   9.886   4.021   7.357 -1.0195 -0.5806 -1.5951
  907MOL0     H22387   9.956   3.879   7.421 -3.9165  0.2254 -0.7688
  907MOL0     H22388  10.188   3.922   7.327 -0.3572 -0.7494 -2.3922
  907MOL0     H22389  10.114   4.020   7.215 -2.5140 -2.9330 -0.3259
  907MOL0     H22390  10.218   4.200   7.352  0.2370  0.0187 -0.5831
  907MOL0     H22391  10.054   4.177   7.408 -0.3244 -0.8253 -0.1448
  907MOL0     H22392  10.251   3.994   7.548  0.9702  0.0428  2.9554
  907MOL0     H22393  10.132   4.113   7.607 -0.2073 -4.1910  0.4733
  907MOL0     H22394  10.304   4.270   7.643 -1.3575 -1.2341 -1.5511
  907MOL0     H22395  10.417   4.143   7.665  1.5378 -2.5413 -1.6009
  907MOL0     H22396  10.515   4.036   7.414 -0.3656 -2.1594 -4.3973
  907MOL0     H22397  10.699   4.088   7.273 -0.6430  0.2499  0.5541
  907MOL0     H22398  10.641   4.138   7.115 -1.1373 -0.5893  0.6249
  907MOL0     H22399  10.762   4.357   7.147 -3.8540 -1.2283 -0.3347
  907MOL0     H22400  10.802   4.325   7.309  1.3480 -0.9410 -0.3134
  907MOL0     H22401  10.904   4.161   7.077 -2.9796 -1.6048  0.7595
  907MOL0     H22402  10.952   4.141   7.246  1.4606  1.5444  1.0990
  907MOL0     H22403  11.049   4.374   7.264 -0.5615 -1.1817  1.6860
  907MOL0     H22404  11.001   4.404   7.093  5.3405  2.5354  0.0021
  907MOL0     H22405  11.189   4.448   6.943  0.4931 -2.7775 -0.0159
  907MOL0     H22406  11.402   4.576   6.919 -1.1524 -0.9579  0.0699
  907MOL0     H22407  11.955   4.578   7.241 -0.3393 -0.4617 -0.3477
  907MOL0     H22408  12.175   4.625   7.137 -0.5920 -1.2609  2.3573
  907MOL0     H22409  12.295   4.460   6.729  2.3864 -0.4973  0.3203
  907MOL0     H22410  12.199   4.599   6.682 -0.1137 -0.9618 -0.7740
  907MOL0     H22411  12.454   4.571   6.614 -1.1969  0.5827 -1.0685
  907MOL0     H22412  12.410   4.725   6.673  1.3899 -2.4533 -4.1797
  907MOL0     H22413  12.489   4.672   6.902 -2.4348 -0.7495  0.3723
  907MOL0     H22414  12.551   4.517   6.832  0.7488  0.2231  1.6117
  907MOL0     H22415  12.640   4.804   6.768  0.6167  0.6262 -1.2961
  907MOL0     H22416  12.668   4.663   6.668 -2.3119  0.9114 -1.3052
  907MOL0     H22417  12.788   4.568   6.884  1.4328  0.5857 -1.2596
  907MOL0     H22418  12.724   4.704   6.973 -1.1135 -0.8929 -1.0474
  907MOL0     H22419  12.916   4.727   6.731  1.2553  1.7894  0.3539
  907MOL0     H22420  12.885   4.856   6.836  1.0716 -0.4610 -0.0158
  907MOL0     H22421  12.996   4.753   7.030  0.2654 -0.9554  0.7027
  907MOL0     H22422  13.103   4.783   6.886  2.6956 -1.1754  2.1998
  907MOL0     H22423  12.980   4.510   6.938 -0.6451  0.5392  0.6674
  907MOL0     H22424  13.113   4.567   6.828  0.4590  2.7617  0.4609
  907MOL0     H22425  12.027   4.503   6.751  1.5007 -4.5186  0.9305
  907MOL0     H22426  11.806   4.463   6.864  0.5548 -2.0332 -0.6352
  907MOL0     H22427  11.583   4.317   7.222  0.0151 -2.1014 -3.1530
  907MOL0     H22428  11.353   4.215   7.261 -3.0662  2.8164  2.0280
  907MOL0     H22429   9.680   3.568   6.939 -0.2861  0.6092  1.8387
  907MOL0     H22430   9.552   3.400   6.813  1.8053 -1.0065  3.0153
  907MOL0     H22431   9.066   3.310   6.680  1.2789 -0.4985 -0.4701
  907MOL0     H22432   8.919   3.182   6.561  1.2731 -1.6989  1.4802
  907MOL0     H22433   8.787   3.067   6.346 -0.1173  0.0127  1.3854
  907MOL0     H22434   8.874   2.995   6.477  0.9308  2.1570  0.2692
  907MOL0     H22435   8.915   2.795   6.380  1.7947  3.4098  2.1862
  907MOL0     H22436   8.865   2.840   6.216 -0.2971 -1.5929 -0.1262
  907MOL0     H22437   8.630   2.893   6.319  1.4499  0.9935  1.7349
  907MOL0     H22438   8.683   2.798   6.458  3.0997 -3.4189 -0.8558
  907MOL0     H22439   8.701   2.685   6.174  0.6083 -3.9474  0.4502
  907MOL0     H22440   8.701   2.596   6.319 -3.8315 -2.6343 -1.2568
  907MOL0     H22441   8.295   2.706   6.310  0.4229  0.6323  1.7173
  907MOL0     H22442   9.231   3.067   6.285  2.0698  0.0522  1.7765
  907MOL0     H22443   9.448   3.299   6.333  3.1832  1.3748  1.4892
  907MOL0     H22444   9.494   3.219   6.482 -0.2853  0.9352 -0.5943
  907MOL0     H22445   9.447   3.120   6.337 -0.6352  0.9423 -2.4592
  908MOL0     O22446   8.622  10.491   2.811 -0.4367  0.0717 -0.3018
  908MOL0     C22447   8.572  10.455   2.911  0.3687 -0.2944 -0.0748
  908MOL0     O22448   8.619  10.346   2.990  0.1905 -0.1515  0.0341
  908MOL0     C22449   8.726  10.278   2.952 -0.8194  0.3659 -0.4490
  908MOL0     C22450   8.844  10.350   2.969 -0.9476 -0.2221  0.9977
  908MOL0     C22451   8.965  10.286   2.919 -0.2807  0.6420 -0.0082
  908MOL0     C22452   8.969  10.159   2.861  0.5353  1.0467  0.0124
  908MOL0     O22453   9.077  10.099   2.801  0.1767 -0.4284 -0.3400
  908MOL0     C22454   9.072   9.967   2.748 -0.7394 -0.4288 -0.1510
  908MOL0     C22455   9.210   9.947   2.675  0.1637  0.4319  1.0931
  908MOL0     C22456   9.201   9.807   2.602 -0.4372 -0.2099 -0.0858
  908MOL0     C22457   9.209   9.680   2.689  0.5648 -0.8860  0.1487
  908MOL0     C22458   9.335   9.665   2.770 -0.9280 -0.2238 -0.7245
  908MOL0     C22459   9.332   9.556   2.874 -0.1114 -0.0539  0.3724
  908MOL0     C22460   9.314   9.415   2.805  0.3932 -0.4141 -0.3153
  908MOL0     C22461   9.348   9.298   2.917 -0.3253  0.7416  0.0768
  908MOL0     N22462   9.481   9.299   2.979  0.2383 -0.7258  0.4715
  908MOL0     C22463   9.608   9.334   2.931  0.7043  0.4106 -0.4704
  908MOL0     C22464   9.702   9.325   3.034  0.1249  1.1020 -0.5660
  908MOL0     C22465   9.854   9.338   3.037 -0.5852  0.0763  0.3842
  908MOL0     C22466   9.892   9.484   3.079 -0.6016  0.4838  0.3503
  908MOL0     C22467   9.967   9.558   2.972 -0.4604 -0.4169  0.3906
  908MOL0     C22468  10.118   9.529   2.965 -0.7371 -0.5769  0.3970
  908MOL0     O22469  10.186   9.574   3.072  0.4378 -0.2824 -0.1792
  908MOL0     C22470  10.313   9.544   3.088  0.1024  0.2140  0.0952
  908MOL0     C22471  10.402   9.510   2.985 -0.2574 -0.1712 -0.5436
  908MOL0     C22472  10.533   9.476   3.018  0.7177 -0.4851  0.2255
  908MOL0     C22473  10.583   9.495   3.145  1.0718  0.8893  0.1038
  908MOL0     C22474  10.725   9.467   3.170 -0.1658 -0.4804  0.1599
  908MOL0     O22475  10.760   9.496   3.300  0.4456 -0.3537 -0.6330
  908MOL0     C22476  10.882   9.479   3.356 -1.0160 -0.7102  0.1617
  908MOL0     C22477  10.888   9.432   3.487  0.3075  0.3898 -0.1783
  908MOL0     C22478  11.011   9.399   3.557  0.1876 -0.6382  0.6742
  908MOL0     C22479  11.128   9.430   3.485 -0.3203 -0.7578  0.2394
  908MOL0     O22480  11.240   9.390   3.551 -0.4615 -0.5615 -0.6128
  908MOL0     C22481  11.364   9.455   3.515  0.0801 -0.2130 -0.1838
  908MOL0     C22482  11.452   9.436   3.635 -0.2197  1.1446  0.6289
  908MOL0     C22483  11.448   9.284   3.684 -0.9215 -0.3519 -0.1969
  908MOL0     C22484  11.569   9.248   3.780  0.4643 -0.2797 -0.3799
  908MOL0     C22485  11.710   9.258   3.717  0.4225 -0.8078 -0.1288
  908MOL0     C22486  11.753   9.138   3.632 -0.6847 -1.3756  0.1483
  908MOL0     C22487  11.879   9.170   3.555  0.0955  0.1317 -0.3275
  908MOL0     C22488  11.881   9.088   3.427  0.2379  0.0301 -0.4570
  908MOL0    Cl22489  11.749   9.124   3.319 -0.2216  0.1724 -0.2584
  908MOL0     C22490  11.127   9.484   3.362  0.3809 -0.8007  0.8352
  908MOL0     C22491  11.004   9.512   3.300 -0.1160 -0.2411 -0.2403
  908MOL0     O22492  10.792   9.412   3.085  0.1413 -0.3668  0.1266
  908MOL0     C22493  10.495   9.543   3.252  0.1495  0.5454  0.0029
  908MOL0     C22494  10.359   9.564   3.222 -0.8542  0.2617 -0.6661
  908MOL0     N22495   9.620   9.298   3.137 -0.1132  0.3427 -0.2536
  908MOL0     N22496   9.493   9.270   3.113  0.0500  0.0174 -0.3261
  908MOL0     C22497   8.846  10.094   2.868  0.2651 -0.7572  0.6023
  908MOL0     C22498   8.721  10.151   2.900 -0.1378 -0.4537 -0.4513
  908MOL0     C22499   8.440  10.515   2.954  0.1712 -0.3360 -0.1388
  908MOL0     C22500   8.399  10.639   2.889 -0.5417  0.8128 -0.4297
  908MOL0     C22501   8.293  10.710   2.923  0.1409  1.0839 -0.1779
  908MOL0     C22502   8.205  10.654   3.016  1.3583 -0.0090  0.5616
  908MOL0     O22503   8.092  10.715   3.065  0.1322 -0.1717 -0.0416
  908MOL0     C22504   8.081  10.863   3.055  0.1585  0.2048  0.5607
  908MOL0     C22505   7.969  10.895   3.149  0.0165  0.2688  1.0836
  908MOL0     C22506   7.845  10.794   3.155 -0.4823 -0.1253  0.2741
  908MOL0     C22507   7.747  10.847   3.262  0.4032 -0.9189  0.0427
  908MOL0     C22508   7.609  10.788   3.267 -1.1575  0.8701 -0.7347
  908MOL0     C22509   7.499  10.735   3.279  0.3073  0.0749  0.3256
  908MOL0     C22510   8.220  10.525   3.065  0.4282  0.5869  0.2724
  908MOL0     C22511   8.347  10.461   3.038 -0.1244  0.4204  0.2141
  908MOL0     C22512   8.357  10.332   3.104  0.5165 -1.1477  0.0884
  908MOL0     H22513   8.838  10.450   3.011 -0.9297 -0.3816  1.3867
  908MOL0     H22514   9.058  10.340   2.934  0.7157 -1.2899  1.2470
  908MOL0     H22515   9.052   9.892   2.825 -3.8672  1.7301  1.3319
  908MOL0     H22516   8.997   9.958   2.668 -1.3129  3.0472 -0.1546
  908MOL0     H22517   9.293   9.952   2.745  1.1358  1.8852 -0.1051
  908MOL0     H22518   9.227  10.035   2.614 -0.0365 -0.7061 -0.6886
  908MOL0     H22519   9.290   9.807   2.538 -1.0222  0.6384 -0.9373
  908MOL0     H22520   9.111   9.800   2.540  1.2759 -0.3086 -2.7158
  908MOL0     H22521   9.113   9.682   2.741  0.2459  1.8037 -0.3789
  908MOL0     H22522   9.196   9.599   2.617 -0.6063 -0.6090  0.0161
  908MOL0     H22523   9.424   9.645   2.710  0.8186 -0.0498  1.6565
  908MOL0     H22524   9.353   9.759   2.823 -2.6269 -0.4233  0.2813
  908MOL0     H22525   9.423   9.566   2.934  1.7904  2.6642 -2.6339
  908MOL0     H22526   9.249   9.579   2.941  0.0571  1.9404 -0.0539
  908MOL0     H22527   9.377   9.405   2.716 -0.9333  2.3904 -1.7037
  908MOL0     H22528   9.215   9.408   2.759  0.1790 -3.4411  0.3843
  908MOL0     H22529   9.266   9.281   2.988 -0.0374  2.1298  0.7575
  908MOL0     H22530   9.352   9.202   2.864 -2.8970 -0.1328  1.3115
  908MOL0     H22531   9.628   9.351   2.826 -0.8836 -0.3022 -0.9152
  908MOL0     H22532   9.902   9.265   3.102 -0.6169  1.0127  1.4992
  908MOL0     H22533   9.893   9.324   2.936  0.4507  1.1079  0.6237
  908MOL0     H22534   9.800   9.539   3.101  0.3960  1.6202  1.9830
  908MOL0     H22535   9.945   9.497   3.174  0.1868  1.9654 -0.2468
  908MOL0     H22536   9.958   9.666   2.985 -0.6772 -0.4504  0.5076
  908MOL0     H22537   9.923   9.542   2.873 -0.0891 -0.0515  0.1593
  908MOL0     H22538  10.160   9.593   2.887  1.3107  1.2071  2.7613
  908MOL0     H22539  10.135   9.423   2.943  2.2452 -0.6465  2.3902
  908MOL0     H22540  10.371   9.496   2.882  0.1827 -2.0575 -0.4750
  908MOL0     H22541  10.606   9.447   2.943  1.0561  1.9890 -0.4779
  908MOL0     H22542  10.791   9.412   3.531 -0.3724  1.2503 -1.2234
  908MOL0     H22543  11.016   9.350   3.654 -0.9873 -2.1440  0.0178
  908MOL0     H22544  11.393   9.421   3.415 -2.0414 -1.7519 -0.3343
  908MOL0     H22545  11.346   9.562   3.506  0.4558 -0.2331 -1.2773
  908MOL0     H22546  11.550   9.467   3.598  0.7178  0.1385  2.1755
  908MOL0     H22547  11.414   9.499   3.715 -4.0262  1.6923 -1.3411
  908MOL0     H22548  11.356   9.270   3.742 -1.1865  2.0396  0.0570
  908MOL0     H22549  11.451   9.216   3.598  2.5064  1.5621 -1.8037
  908MOL0     H22550  11.549   9.145   3.811 -0.1276 -0.6965 -2.0404
  908MOL0     H22551  11.565   9.317   3.865 -2.9925  0.1317 -0.7503
  908MOL0     H22552  11.787   9.269   3.794 -0.7373  1.2636  0.8224
  908MOL0     H22553  11.716   9.352   3.662 -0.4485 -0.7644 -0.1653
  908MOL0     H22554  11.777   9.054   3.697  0.1792 -0.5945  0.8707
  908MOL0     H22555  11.673   9.113   3.561 -2.4088  0.0468  1.4831
  908MOL0     H22556  11.965   9.145   3.618 -1.2447 -1.9634  0.7601
  908MOL0     H22557  11.891   9.272   3.518 -0.1980  0.4026  0.3031
  908MOL0     H22558  11.979   9.109   3.384 -0.6045  0.7841 -2.1323
  908MOL0     H22559  11.884   8.980   3.442 -0.0099  0.2661  1.5154
  908MOL0     H22560  11.217   9.501   3.305  1.4660 -1.0758  2.4067
  908MOL0     H22561  11.004   9.551   3.199 -0.4778 -0.0074 -0.1521
  908MOL0     H22562  10.531   9.587   3.345 -0.2050  2.0827 -0.5618
  908MOL0     H22563  10.294   9.598   3.302  0.6033 -0.8599  1.0973
  908MOL0     H22564   8.845   9.994   2.827 -2.0013 -1.3630  1.9788
  908MOL0     H22565   8.628  10.096   2.893 -0.5566 -0.4477  3.0021
  908MOL0     H22566   8.474  10.678   2.822 -0.4386  1.0095 -0.1994
  908MOL0     H22567   8.280  10.808   2.880  2.3272  0.7695 -1.7360
  908MOL0     H22568   8.054  10.905   2.957 -0.7558  2.0647  1.5531
  908MOL0     H22569   8.172  10.908   3.096  0.5583 -0.2233  0.1546
  908MOL0     H22570   7.926  10.995   3.134 -0.3680  0.5879  3.8241
  908MOL0     H22571   8.020  10.903   3.245 -2.5156  0.7844  2.4967
  908MOL0     H22572   7.874  10.692   3.181  2.0614  1.0084  2.4034
  908MOL0     H22573   7.787  10.783   3.064 -0.4562 -1.7270  0.4312
  908MOL0     H22574   7.794  10.844   3.360  0.4729 -0.6337  0.0181
  908MOL0     H22575   7.732  10.953   3.239  0.9907 -0.6782  0.7564
  908MOL0     H22576   7.401  10.691   3.274  0.4216 -0.1683  0.2318
  908MOL0     H22577   8.156  10.469   3.132  2.5294 -2.6773 -0.2180
  908MOL0     H22578   8.423  10.353   3.189 -0.6101 -2.4108  1.3228
  908MOL0     H22579   8.262  10.289   3.136 -0.7426  0.7062 -1.0061
  908MOL0     H22580   8.407  10.261   3.037  1.4498 -0.4777  0.0606
  909MOL0     O22581  10.305   6.411   6.131 -0.0894 -0.4650  0.0418
  909MOL0     C22582  10.303   6.291   6.164 -0.2621  0.1650 -0.3792
  909MOL0     O22583  10.377   6.193   6.114  0.3680 -0.4714 -0.2672
  909MOL0     C22584  10.481   6.208   6.033  0.1054 -0.3233  0.4019
  909MOL0     C22585  10.550   6.093   6.018  0.5935 -0.1607  0.0494
  909MOL0     C22586  10.656   6.078   5.937 -0.1735  0.6992  0.7875
  909MOL0     C22587  10.697   6.187   5.859  0.7808  0.3030  0.1496
  909MOL0     O22588  10.813   6.175   5.781  0.1084  0.7724 -0.2741
  909MOL0     C22589  10.907   6.282   5.795  0.0646 -0.3493  1.0980
  909MOL0     C22590  11.035   6.248   5.738  0.3733 -0.6377 -0.6653
  909MOL0     C22591  11.101   6.128   5.819 -0.1628 -0.5367 -0.8436
  909MOL0     C22592  11.241   6.141   5.802 -0.3681  0.0974  0.9619
  909MOL0     C22593  11.318   6.032   5.872 -0.0057 -0.3617  0.5407
  909MOL0     C22594  11.464   6.045   5.855  0.4679  0.3852 -0.1076
  909MOL0     C22595  11.531   5.924   5.914  0.4013  0.5201  0.5118
  909MOL0     C22596  11.682   5.944   5.891  0.6457 -0.0478  0.2200
  909MOL0     N22597  11.732   5.908   5.758  0.4117 -0.1405  0.0499
  909MOL0     C22598  11.719   5.775   5.719 -0.3193 -0.0494 -0.5963
  909MOL0     C22599  11.785   5.775   5.597 -0.3600 -0.0941  1.1601
  909MOL0     C22600  11.802   5.654   5.515 -0.1665  0.6367 -0.3229
  909MOL0     C22601  11.665   5.606   5.458 -0.1746 -0.6234 -0.0147
  909MOL0     C22602  11.616   5.676   5.326 -0.1994  0.0977  0.4155
  909MOL0     C22603  11.470   5.644   5.310  0.0324 -0.4710 -0.9468
  909MOL0     O22604  11.460   5.514   5.244  0.5165 -0.8178  0.4127
  909MOL0     C22605  11.344   5.446   5.222 -0.3154  0.4275 -0.2367
  909MOL0     C22606  11.359   5.314   5.172  0.9826 -0.0524 -0.1161
  909MOL0     C22607  11.248   5.231   5.160  0.3781 -0.3606 -0.3353
  909MOL0     C22608  11.114   5.273   5.189 -0.2207  0.0348 -0.6082
  909MOL0     C22609  11.002   5.181   5.174 -0.2559 -0.1522  0.1813
  909MOL0     O22610  10.878   5.221   5.222  0.5957  0.0881  0.4669
  909MOL0     C22611  10.763   5.177   5.157 -0.1156  0.3183  0.1465
  909MOL0     C22612  10.730   5.242   5.041  0.3438 -1.1220  0.2800
  909MOL0     C22613  10.628   5.201   4.958  0.1599  0.8697 -0.0328
  909MOL0     C22614  10.551   5.092   5.001  0.8281  0.0507 -0.1077
  909MOL0     O22615  10.442   5.065   4.920  0.1757  0.5361  0.7841
  909MOL0     C22616  10.418   4.928   4.874  0.0395 -0.5859  0.4832
  909MOL0     C22617  10.285   4.930   4.796  0.4502  0.3371  0.2449
  909MOL0     C22618  10.174   5.025   4.847 -0.3448  0.1106  0.0063
  909MOL0     C22619  10.104   4.968   4.978  0.6680 -0.1088 -0.1168
  909MOL0     C22620   9.974   5.052   5.015  0.1741  0.3527  0.3356
  909MOL0     C22621   9.844   5.016   4.933 -0.4446 -0.3554  0.5579
  909MOL0     C22622   9.752   4.905   4.984  0.2449  0.0958  0.0378
  909MOL0     C22623   9.624   4.893   4.902 -0.2801  0.5539 -0.6289
  909MOL0    Cl22624   9.513   4.810   5.002 -0.2241  0.1723 -0.3077
  909MOL0     C22625  10.594   5.017   5.118  0.2419 -0.2131  0.3414
  909MOL0     C22626  10.698   5.065   5.194 -0.4041  0.3925 -0.2652
  909MOL0     O22627  11.027   5.069   5.121  0.2447 -0.4698  0.5699
  909MOL0     C22628  11.104   5.405   5.249  0.1374  0.0086 -0.0704
  909MOL0     C22629  11.213   5.487   5.257  0.6914 -0.2521  0.4761
  909MOL0     N22630  11.845   5.889   5.575  0.4482 -0.2901  0.1758
  909MOL0     N22631  11.803   5.976   5.662 -0.2202 -0.3369  0.8703
  909MOL0     C22632  10.630   6.311   5.880 -0.0002  0.4684 -0.7466
  909MOL0     C22633  10.514   6.320   5.953 -0.2199 -0.0786  0.2599
  909MOL0     C22634  10.180   6.254   6.252 -0.2568 -0.1041 -0.0724
  909MOL0     C22635  10.111   6.354   6.325  0.3335 -0.2398 -0.1178
  909MOL0     C22636  10.013   6.324   6.424  0.5509  0.0188 -0.1502
  909MOL0     C22637   9.982   6.188   6.447  0.7471 -0.0684 -0.4309
  909MOL0     O22638   9.915   6.158   6.568  0.3528  0.8896 -0.0943
  909MOL0     C22639   9.796   6.079   6.540 -0.3476  0.0831  0.4473
  909MOL0     C22640   9.674   6.177   6.549  1.3070  0.5111  0.2202
  909MOL0     C22641   9.548   6.120   6.488  0.6229 -0.6404  0.3381
  909MOL0     C22642   9.444   6.236   6.451 -0.6851  0.0088 -0.2254
  909MOL0     C22643   9.487   6.315   6.337  0.8503 -0.2371  0.3392
  909MOL0     C22644   9.506   6.383   6.237  0.6920 -0.0092 -0.6433
  909MOL0     C22645  10.031   6.090   6.365 -1.1174  0.4803 -0.5559
  909MOL0     C22646  10.120   6.125   6.261  0.0801  1.1589 -1.1359
  909MOL0     C22647  10.155   6.007   6.164 -0.2403  0.1721  0.1853
  909MOL0     H22648  10.514   6.008   6.074 -1.3558  0.7925  0.3336
  909MOL0     H22649  10.705   5.981   5.929  0.4360  1.0175  0.5720
  909MOL0     H22650  10.877   6.372   5.741 -0.6533 -1.3163 -0.1838
  909MOL0     H22651  10.915   6.319   5.898 -0.1253 -1.9145  1.7125
  909MOL0     H22652  11.085   6.345   5.745 -1.3343  0.3629 -1.6839
  909MOL0     H22653  11.034   6.217   5.633  1.8920 -2.6677 -0.1342
  909MOL0     H22654  11.073   6.032   5.775  1.8122 -0.0754 -3.3399
  909MOL0     H22655  11.074   6.132   5.925 -0.5035  1.0631 -0.9701
  909MOL0     H22656  11.260   6.138   5.695  0.6726  0.2556  1.1287
  909MOL0     H22657  11.280   6.233   5.846  0.7281 -0.6037  1.5165
  909MOL0     H22658  11.294   6.023   5.978  0.0416  0.4313  0.6274
  909MOL0     H22659  11.289   5.936   5.829  2.6757 -2.7163  3.5172
  909MOL0     H22660  11.483   6.071   5.750 -0.0061  0.1946 -0.2439
  909MOL0     H22661  11.499   6.128   5.917 -2.3099  1.3826  0.2649
  909MOL0     H22662  11.497   5.834   5.862 -0.1085 -0.2466  2.1095
  909MOL0     H22663  11.498   5.923   6.019  0.9956  2.5820  0.7711
  909MOL0     H22664  11.714   6.047   5.912  3.0181 -1.2230  2.9518
  909MOL0     H22665  11.744   5.880   5.954  2.2300  2.1342  1.0080
  909MOL0     H22666  11.674   5.690   5.769  0.4518  0.6743  1.4434
  909MOL0     H22667  11.880   5.661   5.438  0.5353 -1.0581  0.1779
  909MOL0     H22668  11.841   5.574   5.580 -0.3914  0.9056  0.1464
  909MOL0     H22669  11.676   5.501   5.432  2.6896  0.0251 -1.8483
  909MOL0     H22670  11.589   5.621   5.536  0.5706  2.9014  0.2327
  909MOL0     H22671  11.669   5.638   5.237  0.2912  4.4494 -1.4154
  909MOL0     H22672  11.631   5.784   5.321  0.1353  0.0146 -2.4297
  909MOL0     H22673  11.419   5.711   5.241 -0.8376 -0.5129 -0.3683
  909MOL0     H22674  11.398   5.652   5.393  1.3665  3.0108  0.0571
  909MOL0     H22675  11.455   5.265   5.164  0.4950 -0.8626 -1.0800
  909MOL0     H22676  11.259   5.130   5.121  2.3938 -0.4407  0.3701
  909MOL0     H22677  10.791   5.325   5.005 -0.4832 -0.5038  0.2725
  909MOL0     H22678  10.608   5.233   4.857  0.5426 -1.4859 -0.9249
  909MOL0     H22679  10.489   4.895   4.798  0.6497  2.4227 -0.3756
  909MOL0     H22680  10.408   4.856   4.956  2.4545 -0.0655  1.3129
  909MOL0     H22681  10.298   4.954   4.689 -0.5638  1.1487  0.2918
  909MOL0     H22682  10.239   4.831   4.800 -2.2064  1.5494  2.8138
  909MOL0     H22683  10.223   5.122   4.862 -0.7887  0.5395 -1.2465
  909MOL0     H22684  10.099   5.030   4.767 -1.3453 -2.0985  0.7344
  909MOL0     H22685  10.181   4.976   5.056  1.5714  1.4711 -1.1307
  909MOL0     H22686  10.075   4.863   4.969  1.0031 -0.2950  0.8306
  909MOL0     H22687   9.988   5.161   5.010 -1.3042  0.5226 -1.1150
  909MOL0     H22688   9.946   5.030   5.119 -3.6630 -0.0503 -0.6199
  909MOL0     H22689   9.788   5.109   4.923 -1.5324 -0.8267  1.9278
  909MOL0     H22690   9.881   4.992   4.833  0.9453  1.4925  0.5793
  909MOL0     H22691   9.723   4.921   5.088 -0.1784 -1.9330  0.2659
  909MOL0     H22692   9.807   4.811   4.972 -0.4003 -0.3335  0.4332
  909MOL0     H22693   9.587   4.994   4.886 -0.4143  0.8570  1.3600
  909MOL0     H22694   9.638   4.841   4.807  1.2895  0.2086 -0.2325
  909MOL0     H22695  10.543   4.924   5.140  0.2454 -0.9349 -2.3280
  909MOL0     H22696  10.729   5.009   5.282 -0.0035  0.8107 -0.1315
  909MOL0     H22697  11.008   5.438   5.285  1.0076  2.0435  0.5210
  909MOL0     H22698  11.202   5.591   5.288  0.6630  0.4836 -1.8110
  909MOL0     H22699  10.662   6.403   5.832  0.4259  1.4392  1.2893
  909MOL0     H22700  10.460   6.414   5.950 -0.8720 -0.4232 -3.3541
  909MOL0     H22701  10.142   6.457   6.315 -0.5326 -0.1824 -3.2700
  909MOL0     H22702   9.958   6.398   6.482 -1.0294  0.0872 -1.6399
  909MOL0     H22703   9.794   5.990   6.604  1.8091 -0.8529 -0.6662
  909MOL0     H22704   9.801   6.033   6.441  1.4831 -0.6999  0.8692
  909MOL0     H22705   9.701   6.266   6.491 -4.7008  1.8517 -1.1764
  909MOL0     H22706   9.658   6.206   6.653 -2.1117  1.4862 -0.4524
  909MOL0     H22707   9.503   6.048   6.557  2.5741 -2.7615 -0.4724
  909MOL0     H22708   9.569   6.072   6.392 -2.0250 -0.5432 -0.3722
  909MOL0     H22709   9.350   6.190   6.419 -1.5488  0.0369  2.0844
  909MOL0     H22710   9.424   6.291   6.543 -2.1603  0.5022 -0.8010
  909MOL0     H22711   9.522   6.425   6.140  0.7534 -1.6078 -1.3606
  909MOL0     H22712  10.021   5.982   6.373  2.0219  0.0496 -1.3430
  909MOL0     H22713  10.173   6.049   6.064  0.3909  1.6967  0.9149
  909MOL0     H22714  10.235   5.943   6.203  0.2190 -0.2672 -1.3659
  909MOL0     H22715  10.072   5.936   6.155 -1.2124  1.3676 -0.5021
  910MOL0     O22716  10.523   6.392   4.988  0.3654 -0.0132 -0.3806
  910MOL0     C22717  10.500   6.326   5.089 -0.4081  0.6692 -0.1713
  910MOL0     O22718  10.596   6.273   5.173  0.2522  0.7795  0.0538
  910MOL0     C22719  10.729   6.277   5.132 -0.4635 -0.2945  0.4932
  910MOL0     C22720  10.795   6.158   5.161 -0.0245 -0.3319  0.9500
  910MOL0     C22721  10.927   6.155   5.134 -0.7540  0.4889 -0.4113
  910MOL0     C22722  11.001   6.267   5.085  0.8755  0.9297  0.4438
  910MOL0     O22723  11.138   6.255   5.064  0.0434 -0.3359 -0.5544
  910MOL0     C22724  11.197   6.341   4.971  0.5576 -0.3814 -0.2611
  910MOL0     C22725  11.338   6.313   4.920 -0.0995 -0.1976  0.7579
  910MOL0     C22726  11.383   6.381   4.793 -0.2584  0.0680 -0.0634
  910MOL0     C22727  11.521   6.329   4.738 -0.3439  0.2951  0.0097
  910MOL0     C22728  11.569   6.407   4.617  0.2935 -0.2407 -0.5156
  910MOL0     C22729  11.718   6.372   4.568  0.5921 -0.2879 -0.1073
  910MOL0     C22730  11.727   6.228   4.514  0.7106 -0.5737  0.3181
  910MOL0     C22731  11.851   6.213   4.428 -0.5190  1.2331  0.6304
  910MOL0     N22732  11.977   6.220   4.502  0.2319 -0.6920  1.0438
  910MOL0     C22733  12.033   6.114   4.570 -0.2079  0.2284 -0.6734
  910MOL0     C22734  12.147   6.154   4.628 -0.3763 -1.1920  0.0533
  910MOL0     C22735  12.248   6.069   4.709  0.2675 -0.8594 -0.1596
  910MOL0     C22736  12.354   6.148   4.785  0.0545 -0.4039  0.0150
  910MOL0     C22737  12.459   6.042   4.835 -0.1259 -0.1735 -0.3336
  910MOL0     C22738  12.590   6.109   4.897  0.6415  0.2920 -0.0335
  910MOL0     O22739  12.635   6.213   4.801  0.3509 -0.1157  0.0555
  910MOL0     C22740  12.770   6.223   4.784 -0.2062 -0.1935  0.3059
  910MOL0     C22741  12.830   6.205   4.659 -0.2272  0.5785  0.2552
  910MOL0     C22742  12.966   6.212   4.648 -0.5118 -0.0601  0.2213
  910MOL0     C22743  13.047   6.236   4.761  1.0213  0.6529 -0.1732
  910MOL0     C22744  13.191   6.237   4.747  1.0968 -0.4826 -0.1598
  910MOL0     O22745  13.264   6.283   4.853 -0.0272  0.5135  0.3594
  910MOL0     C22746  13.387   6.332   4.820 -0.0109  0.1278 -0.6684
  910MOL0     C22747  13.497   6.284   4.892  0.3309 -0.5639 -0.6020
  910MOL0     C22748  13.617   6.351   4.886 -0.2992 -0.4387 -0.2684
  910MOL0     C22749  13.635   6.469   4.801 -0.2825  0.4269  1.3261
  910MOL0     O22750  13.761   6.522   4.782  0.7492 -1.3260  0.2068
  910MOL0     C22751  13.800   6.548   4.645  0.1973 -0.5618  0.2642
  910MOL0     C22752  13.943   6.572   4.632  0.6034 -0.0068 -0.5050
  910MOL0     C22753  13.989   6.708   4.685  0.6551  0.3434  0.0977
  910MOL0     C22754  14.133   6.738   4.630  0.7505  0.3130  0.1524
  910MOL0     C22755  14.180   6.874   4.690 -0.3312 -0.1907 -0.5052
  910MOL0     C22756  14.318   6.919   4.633  0.3794 -0.0233  0.4823
  910MOL0     C22757  14.355   7.049   4.701 -0.5139 -0.3892  0.3500
  910MOL0     C22758  14.497   7.093   4.673  0.7027 -0.3882 -0.5149
  910MOL0    Cl22759  14.542   7.110   4.505  0.3092  0.4573  0.3098
  910MOL0     C22760  13.521   6.509   4.723  0.1481  0.4619  0.2343
  910MOL0     C22761  13.393   6.443   4.732 -0.3163 -0.3092 -0.8673
  910MOL0     O22762  13.236   6.197   4.642 -0.0907  0.6903  0.2899
  910MOL0     C22763  12.990   6.252   4.884 -1.0851  0.0788 -0.4892
  910MOL0     C22764  12.848   6.249   4.889 -0.6515  0.9920 -0.4210
  910MOL0     N22765  12.155   6.288   4.577 -0.3268 -0.6825 -0.0943
  910MOL0     N22766  12.048   6.329   4.509  0.1607 -0.1063  0.5324
  910MOL0     C22767  10.925   6.385   5.067  0.3659  0.1944  0.5763
  910MOL0     C22768  10.793   6.389   5.086  0.5724 -0.0946 -0.8283
  910MOL0     C22769  10.358   6.310   5.123  0.7181  0.2919 -0.0631
  910MOL0     C22770  10.260   6.421   5.100 -0.7996  0.5418 -0.8971
  910MOL0     C22771  10.127   6.412   5.158 -1.4220  0.0379  0.6059
  910MOL0     C22772  10.080   6.299   5.226  0.6835  0.5911 -0.5458
  910MOL0     O22773   9.956   6.283   5.282 -0.3194 -0.6117  0.1074
  910MOL0     C22774   9.862   6.383   5.244 -0.0611 -0.2303  0.5156
  910MOL0     C22775   9.726   6.325   5.283 -0.0908 -0.3106  0.6028
  910MOL0     C22776   9.693   6.206   5.198  0.1906 -0.3422  0.5378
  910MOL0     C22777   9.547   6.191   5.190  0.0571  0.0189  0.0509
  910MOL0     C22778   9.484   6.196   5.327  0.0069  0.2162  0.0166
  910MOL0     C22779   9.446   6.212   5.444 -0.1964  0.0806 -0.5238
  910MOL0     C22780  10.171   6.187   5.237  0.1624 -0.8946  0.1837
  910MOL0     C22781  10.303   6.189   5.183 -0.3315  0.2408 -0.3652
  910MOL0     C22782  10.381   6.058   5.197 -0.1963  0.0920  0.2370
  910MOL0     H22783  10.740   6.075   5.204  2.2238 -0.4048  3.9838
  910MOL0     H22784  10.986   6.064   5.145 -0.8567  0.5016  0.3151
  910MOL0     H22785  11.129   6.356   4.887 -1.3245  1.4490  1.4709
  910MOL0     H22786  11.203   6.437   5.022 -0.5488 -0.3899 -0.0982
  910MOL0     H22787  11.353   6.205   4.911 -1.1979 -0.2603 -0.6369
  910MOL0     H22788  11.416   6.351   4.987  1.1935  0.9771 -1.3327
  910MOL0     H22789  11.393   6.487   4.819  1.7371 -0.6742  2.6542
  910MOL0     H22790  11.312   6.381   4.710 -0.1902  1.0322 -0.1344
  910MOL0     H22791  11.596   6.330   4.817  0.9435  4.5358 -0.9906
  910MOL0     H22792  11.509   6.231   4.691 -0.6744  0.7669 -0.9192
  910MOL0     H22793  11.496   6.388   4.538  1.0130 -3.0742 -0.6435
  910MOL0     H22794  11.572   6.511   4.650 -0.7030  0.3619 -2.2369
  910MOL0     H22795  11.754   6.447   4.496  1.0373 -0.4172 -0.0265
  910MOL0     H22796  11.791   6.370   4.650  1.6790  0.7216 -0.9941
  910MOL0     H22797  11.631   6.230   4.461  0.2634 -1.2128  1.0827
  910MOL0     H22798  11.730   6.159   4.599  2.3403  0.7870  1.4278
  910MOL0     H22799  11.835   6.120   4.372  3.5242  0.6921  0.0132
  910MOL0     H22800  11.842   6.301   4.363 -0.3716  1.0627  0.3758
  910MOL0     H22801  11.990   6.015   4.579  0.1323  0.1478  0.1294
  910MOL0     H22802  12.193   6.009   4.782  2.4665  1.3980  3.7203
  910MOL0     H22803  12.313   6.015   4.639  2.4220  1.2458  0.0743
  910MOL0     H22804  12.397   6.219   4.714 -0.9532 -0.9278 -1.1539
  910MOL0     H22805  12.317   6.201   4.873  3.3179 -0.0065  1.2918
  910MOL0     H22806  12.491   5.983   4.749  0.3272 -0.1810 -0.1635
  910MOL0     H22807  12.415   5.977   4.911 -2.6422  0.4487 -1.1488
  910MOL0     H22808  12.661   6.027   4.902 -0.8846 -1.0529  0.3365
  910MOL0     H22809  12.586   6.156   4.995  1.1309 -1.1343  0.6936
  910MOL0     H22810  12.767   6.190   4.571  0.5599  2.8155 -0.7706
  910MOL0     H22811  13.020   6.211   4.554  1.1240  1.7384  1.0656
  910MOL0     H22812  13.497   6.203   4.965  2.4734  2.0476  2.5713
  910MOL0     H22813  13.704   6.311   4.937 -1.0223 -1.8060 -0.0391
  910MOL0     H22814  13.768   6.462   4.584 -0.6615 -1.3082  1.7167
  910MOL0     H22815  13.752   6.636   4.601  1.7934 -0.5187 -1.5585
  910MOL0     H22816  13.994   6.497   4.693  1.0432  0.4959 -0.2540
  910MOL0     H22817  13.971   6.561   4.527 -1.0317 -1.4182 -0.8453
  910MOL0     H22818  13.935   6.791   4.640  1.5956  0.0065 -1.7679
  910MOL0     H22819  13.986   6.712   4.794  2.2754 -0.8304  0.2372
  910MOL0     H22820  14.133   6.736   4.521  1.6531  0.4126  0.1431
  910MOL0     H22821  14.203   6.661   4.665  0.8606 -0.0125 -0.7429
  910MOL0     H22822  14.188   6.869   4.799 -2.8935 -0.9859 -0.2732
  910MOL0     H22823  14.101   6.947   4.669  0.3496  0.1025 -2.2279
  910MOL0     H22824  14.395   6.845   4.659 -0.3162 -1.3484 -1.0230
  910MOL0     H22825  14.310   6.941   4.526 -0.5390 -0.7878  0.3810
  910MOL0     H22826  14.329   7.044   4.807 -0.9118  0.8152  0.3239
  910MOL0     H22827  14.284   7.120   4.657 -2.3788 -3.0602 -1.2599
  910MOL0     H22828  14.510   7.195   4.712 -2.0118 -0.2280  0.1864
  910MOL0     H22829  14.560   7.019   4.723 -0.6095  0.3206  2.3876
  910MOL0     H22830  13.540   6.590   4.654  0.5026 -1.0273 -1.5150
  910MOL0     H22831  13.308   6.487   4.680  1.5261  1.9213 -2.1764
  910MOL0     H22832  13.044   6.271   4.976 -3.4646 -1.3870  1.3430
  910MOL0     H22833  12.799   6.276   4.982 -0.8084  4.3898 -1.3583
  910MOL0     H22834  10.968   6.478   5.032  0.2707  1.3513  3.2642
  910MOL0     H22835  10.734   6.476   5.062 -0.3646 -0.2654  0.7222
  910MOL0     H22836  10.284   6.518   5.057 -1.5184  1.0617 -0.1562
  910MOL0     H22837  10.079   6.509   5.152 -0.1031  0.6276 -1.7889
  910MOL0     H22838   9.870   6.399   5.136  0.0282 -1.1710  0.3702
  910MOL0     H22839   9.888   6.482   5.281  3.6332  0.4301 -3.0519
  910MOL0     H22840   9.653   6.406   5.271  0.3547 -0.1644 -1.3948
  910MOL0     H22841   9.723   6.302   5.390  1.1100 -1.4429  0.4209
  910MOL0     H22842   9.737   6.112   5.233 -0.4529 -1.2219 -0.9252
  910MOL0     H22843   9.719   6.215   5.092 -3.9835  0.1933 -0.6356
  910MOL0     H22844   9.511   6.273   5.127 -1.0131 -1.0206 -0.7317
  910MOL0     H22845   9.522   6.096   5.142 -1.1027  1.3972 -2.2856
  910MOL0     H22846   9.395   6.218   5.537 -0.1590 -0.9667 -0.4211
  910MOL0     H22847  10.136   6.094   5.280 -1.5557  0.7618  2.6033
  910MOL0     H22848  10.315   5.972   5.206  3.4888 -2.8223  1.8861
  910MOL0     H22849  10.441   6.045   5.106 -0.9393  0.8771 -0.3854
  910MOL0     H22850  10.453   6.051   5.279 -1.3880 -1.6012  1.1807
  911MOL0     O22851   2.950   1.993   1.537  0.1079 -0.2571  0.1006
  911MOL0     C22852   2.875   1.911   1.583  0.3882  0.6544 -0.2761
  911MOL0     O22853   2.901   1.830   1.688  0.3098  0.8189 -1.2175
  911MOL0     C22854   3.000   1.865   1.778  0.2522  0.0752 -0.4868
  911MOL0     C22855   3.019   1.780   1.885  0.0385  1.3740 -0.4114
  911MOL0     C22856   3.110   1.806   1.993  0.5193  0.4437 -0.1342
  911MOL0     C22857   3.193   1.916   1.995  0.1090 -0.3089  0.2405
  911MOL0     O22858   3.285   1.929   2.095  0.0494 -0.6572 -0.1537
  911MOL0     C22859   3.374   1.823   2.116 -0.7495 -0.2171 -0.0568
  911MOL0     C22860   3.495   1.870   2.203  1.0381  0.3437  0.2582
  911MOL0     C22861   3.604   1.947   2.127  0.3877 -0.3363  0.5398
  911MOL0     C22862   3.680   2.049   2.211 -0.1202 -0.2463  0.5614
  911MOL0     C22863   3.796   2.102   2.138 -0.1972 -0.8558 -0.5702
  911MOL0     C22864   3.861   2.221   2.218 -0.4503  0.5394 -0.3343
  911MOL0     C22865   3.927   2.156   2.333 -0.6198  0.1135  0.4112
  911MOL0     C22866   4.062   2.084   2.310  0.2219 -0.3087 -0.7817
  911MOL0     N22867   4.155   2.169   2.239  0.5951 -0.7258  0.2497
  911MOL0     C22868   4.193   2.301   2.261 -0.5973 -0.0640 -0.1897
  911MOL0     C22869   4.254   2.335   2.147  0.6352  0.1033  0.3391
  911MOL0     C22870   4.313   2.471   2.121  0.4194 -0.2308  0.1465
  911MOL0     C22871   4.469   2.465   2.137 -0.4668  0.1848 -0.0065
  911MOL0     C22872   4.531   2.386   2.251  0.3970  0.3647  0.0062
  911MOL0     C22873   4.691   2.372   2.232 -0.5776  1.1342 -0.4761
  911MOL0     O22874   4.745   2.492   2.191 -0.3350  0.2856  0.5220
  911MOL0     C22875   4.885   2.502   2.192  0.1792 -0.1055  0.6481
  911MOL0     C22876   4.955   2.612   2.240 -0.2494 -0.5182  0.1688
  911MOL0     C22877   5.099   2.614   2.254 -0.1488  0.2377  1.3664
  911MOL0     C22878   5.167   2.499   2.209  0.2173  0.3694  0.8059
  911MOL0     C22879   5.312   2.488   2.237  0.9383 -0.2911  0.4288
  911MOL0     O22880   5.381   2.603   2.279  0.1591  0.9567 -0.0692
  911MOL0     C22881   5.520   2.597   2.299 -0.0014 -1.7687 -0.2869
  911MOL0     C22882   5.620   2.541   2.217 -0.8423 -0.5698  0.1284
  911MOL0     C22883   5.752   2.548   2.260 -1.1165  0.5699  0.2459
  911MOL0     C22884   5.794   2.612   2.374  0.2821  1.2463  0.1837
  911MOL0     O22885   5.930   2.596   2.398 -0.2086  0.1879  0.5326
  911MOL0     C22886   5.992   2.665   2.516 -0.2659 -0.7459  0.0152
  911MOL0     C22887   6.150   2.641   2.515  0.3068  0.7764 -0.2831
  911MOL0     C22888   6.185   2.494   2.553 -0.3888 -0.0978 -0.7085
  911MOL0     C22889   6.248   2.416   2.440 -0.2333  0.0748 -0.1814
  911MOL0     C22890   6.279   2.265   2.481 -0.2574 -1.2426  0.1730
  911MOL0     C22891   6.289   2.161   2.375  0.2291  0.2864  0.4271
  911MOL0     C22892   6.431   2.166   2.301 -0.6761  0.4603  0.4051
  911MOL0     C22893   6.541   2.092   2.375 -0.0798 -0.0388 -0.0531
  911MOL0    Cl22894   6.606   2.168   2.522  0.2808  0.0615  0.0398
  911MOL0     C22895   5.701   2.688   2.447 -0.7585 -0.0207 -0.8031
  911MOL0     C22896   5.567   2.675   2.409  0.4309 -0.4289 -1.4606
  911MOL0     O22897   5.357   2.376   2.217 -0.1526 -0.1586  0.3833
  911MOL0     C22898   5.093   2.393   2.158  0.2255  0.4551  0.6550
  911MOL0     C22899   4.957   2.388   2.152 -0.9979 -0.8963 -0.4531
  911MOL0     N22900   4.239   2.236   2.056 -0.1765  0.1943 -0.9187
  911MOL0     N22901   4.177   2.137   2.110 -0.2868 -0.5991  1.0408
  911MOL0     C22902   3.189   1.995   1.885  0.7029  0.4229  0.7234
  911MOL0     C22903   3.089   1.977   1.784  0.2517 -0.6886  1.0253
  911MOL0     C22904   2.740   1.886   1.514  0.3839 -0.1210 -0.1669
  911MOL0     C22905   2.637   1.846   1.601  0.4697  0.4193  0.1182
  911MOL0     C22906   2.505   1.825   1.551  0.0822 -1.0729  0.5947
  911MOL0     C22907   2.485   1.857   1.411  0.8833 -0.7193 -0.7086
  911MOL0     O22908   2.358   1.865   1.357 -0.7846 -0.6315 -0.5358
  911MOL0     C22909   2.239   1.853   1.439 -0.0837 -0.5534  0.4198
  911MOL0     C22910   2.224   1.989   1.517  0.6974  0.0195 -1.1251
  911MOL0     C22911   2.093   1.991   1.594 -0.0686  0.1480 -0.3836
  911MOL0     C22912   2.103   1.919   1.727 -0.2559 -0.1136 -1.2136
  911MOL0     C22913   2.137   1.777   1.721 -0.2538 -0.5901  0.3687
  911MOL0     C22914   2.161   1.658   1.725  0.1869  1.1233  0.2542
  911MOL0     C22915   2.587   1.906   1.326  0.3179  0.7792  0.5990
  911MOL0     C22916   2.715   1.909   1.375  0.2115  0.1891 -0.5891
  911MOL0     C22917   2.834   1.927   1.278  0.2566  0.9512  0.1130
  911MOL0     H22918   2.962   1.688   1.892 -0.6812  1.9244  2.6917
  911MOL0     H22919   3.129   1.729   2.066  1.2052 -3.4934 -4.0889
  911MOL0     H22920   3.328   1.744   2.176 -2.6361  0.9190  0.0682
  911MOL0     H22921   3.416   1.781   2.024  0.5386  1.6130 -0.3521
  911MOL0     H22922   3.528   1.776   2.248  0.7775 -0.5514 -1.3726
  911MOL0     H22923   3.467   1.929   2.291 -0.7485 -0.1868  0.0935
  911MOL0     H22924   3.560   1.998   2.040  1.2679 -0.6787 -0.1181
  911MOL0     H22925   3.675   1.879   2.080 -0.2454 -0.8483  0.2946
  911MOL0     H22926   3.624   2.133   2.251 -0.1364  0.1951 -0.3630
  911MOL0     H22927   3.727   1.991   2.291  0.8649 -1.6579 -0.9866
  911MOL0     H22928   3.869   2.028   2.105 -0.8859 -1.5671 -0.5068
  911MOL0     H22929   3.766   2.146   2.043 -0.2661 -2.0922 -1.1399
  911MOL0     H22930   3.942   2.274   2.167  1.2248 -0.5511  1.0921
  911MOL0     H22931   3.782   2.291   2.248 -1.8048 -1.4076  0.8592
  911MOL0     H22932   3.858   2.092   2.387  0.9610 -1.2397  0.9156
  911MOL0     H22933   3.952   2.248   2.387  1.6100 -0.1496 -0.0760
  911MOL0     H22934   4.100   2.064   2.411  1.1643  0.9310 -0.8688
  911MOL0     H22935   4.053   1.987   2.261 -1.3305 -0.7859  0.3522
  911MOL0     H22936   4.176   2.357   2.352 -1.1044  0.2122 -0.4500
  911MOL0     H22937   4.278   2.507   2.023  2.1766  0.2321 -0.3535
  911MOL0     H22938   4.267   2.537   2.194 -0.3206  0.2935 -0.7673
  911MOL0     H22939   4.513   2.425   2.045  2.5577  0.9154  1.0143
  911MOL0     H22940   4.500   2.569   2.153 -3.3603  1.5177 -2.2052
  911MOL0     H22941   4.490   2.285   2.258 -1.0606  1.0319  1.8754
  911MOL0     H22942   4.507   2.440   2.343  1.3027 -0.7155  0.9192
  911MOL0     H22943   4.712   2.289   2.163 -2.5678  1.6264 -1.7758
  911MOL0     H22944   4.740   2.342   2.325 -0.5527  1.4540 -0.3860
  911MOL0     H22945   4.902   2.705   2.263 -3.1883 -2.2960  1.2183
  911MOL0     H22946   5.164   2.696   2.282 -1.0001  0.8399  1.5995
  911MOL0     H22947   5.591   2.487   2.128  1.2803  2.7790 -2.9138
  911MOL0     H22948   5.819   2.492   2.196 -0.7246  1.1374  0.1446
  911MOL0     H22949   5.982   2.774   2.515  0.2845 -0.6939 -0.2346
  911MOL0     H22950   5.953   2.638   2.615  2.1141 -0.1232  1.2164
  911MOL0     H22951   6.192   2.660   2.416 -0.5702 -1.9566 -1.2663
  911MOL0     H22952   6.203   2.700   2.590  2.2567 -0.7433 -0.3854
  911MOL0     H22953   6.244   2.505   2.645 -1.0561  0.7003 -0.3669
  911MOL0     H22954   6.091   2.450   2.585  0.1331 -1.1536 -0.5782
  911MOL0     H22955   6.345   2.461   2.414  0.5119 -1.2830  0.1517
  911MOL0     H22956   6.180   2.419   2.354 -1.0627 -3.8993  0.1253
  911MOL0     H22957   6.188   2.244   2.538 -1.9797  3.7132 -0.2717
  911MOL0     H22958   6.370   2.254   2.541  0.8198 -1.5978 -1.4812
  911MOL0     H22959   6.260   2.067   2.423  1.0757 -0.0835  0.2167
  911MOL0     H22960   6.214   2.174   2.296  0.9933  0.7263 -0.2357
  911MOL0     H22961   6.458   2.269   2.278 -0.5101 -0.4733 -4.8743
  911MOL0     H22962   6.443   2.132   2.198  0.8075  0.5146  0.5428
  911MOL0     H22963   6.501   1.996   2.409  0.3526  0.2972  1.4952
  911MOL0     H22964   6.626   2.080   2.308 -0.3211  2.0718 -0.8321
  911MOL0     H22965   5.722   2.740   2.540  0.8688 -2.5112  0.3130
  911MOL0     H22966   5.496   2.721   2.477 -1.3423 -3.9727 -0.6590
  911MOL0     H22967   5.149   2.303   2.132  2.1171  2.2341 -1.8118
  911MOL0     H22968   4.910   2.300   2.109 -1.0243 -0.4180 -1.4229
  911MOL0     H22969   3.245   2.087   1.875 -1.0771  1.5165  0.3672
  911MOL0     H22970   3.089   2.053   1.706  0.5243 -3.2924 -1.7393
  911MOL0     H22971   2.666   1.820   1.703  1.2954 -1.6549 -0.5751
  911MOL0     H22972   2.430   1.789   1.622  1.9925 -1.6242  2.4216
  911MOL0     H22973   2.237   1.759   1.495 -0.9942 -0.9954 -0.3317
  911MOL0     H22974   2.156   1.844   1.368  0.1865 -0.0346  0.0293
  911MOL0     H22975   2.228   2.070   1.443  1.8851  2.0934  1.0523
  911MOL0     H22976   2.307   1.995   1.588 -0.2533 -0.8025  0.0993
  911MOL0     H22977   2.013   1.940   1.540  0.3142  0.7143 -1.5300
  911MOL0     H22978   2.070   2.097   1.608  2.9797  0.5967  2.6704
  911MOL0     H22979   2.173   1.966   1.796  0.0296 -2.4152  0.1348
  911MOL0     H22980   2.013   1.934   1.787  0.0179  0.3154 -0.9009
  911MOL0     H22981   2.174   1.551   1.722 -2.5446  0.6899  1.3065
  911MOL0     H22982   2.552   1.935   1.228 -1.2719  2.0982  1.4989
  911MOL0     H22983   2.794   1.923   1.176  0.2835 -0.4541  0.1336
  911MOL0     H22984   2.885   2.022   1.294  2.4700  0.0164 -0.8744
  911MOL0     H22985   2.903   1.842   1.280 -0.8978 -0.0111  0.2756
  912MOL0     O22986   1.993   3.317   0.271  0.7364 -0.4783  0.5355
  912MOL0     C22987   2.063   3.225   0.296  0.5027  0.6062 -0.5757
  912MOL0     O22988   2.120   3.197   0.422  0.4298 -0.1437  0.7773
  912MOL0     C22989   2.082   3.277   0.531 -0.0971  0.5441  0.2213
  912MOL0     C22990   2.191   3.325   0.602  0.7700  0.5321  0.2217
  912MOL0     C22991   2.163   3.407   0.710  0.4803  0.2998 -0.0512
  912MOL0     C22992   2.027   3.423   0.751 -0.0133 -0.7650 -0.0300
  912MOL0     O22993   1.996   3.488   0.866  0.0229  0.6373  0.7090
  912MOL0     C22994   2.065   3.614   0.909  0.2438  0.5173  0.6266
  912MOL0     C22995   2.185   3.583   0.997 -0.6701 -0.6009 -0.3025
  912MOL0     C22996   2.297   3.691   0.976  0.5832  0.2855 -0.1560
  912MOL0     C22997   2.385   3.708   1.102  0.3047 -0.0228 -0.2717
  912MOL0     C22998   2.487   3.810   1.092  0.1083  0.1044  0.0137
  912MOL0     C22999   2.571   3.821   1.222  0.6398  0.9092 -0.6765
  912MOL0     C23000   2.680   3.923   1.178  0.1196 -0.4684  0.0567
  912MOL0     C23001   2.787   3.947   1.281  0.0275  0.7529 -0.0189
  912MOL0     N23002   2.864   4.073   1.254 -0.3473 -0.0872  0.5991
  912MOL0     C23003   2.980   4.087   1.176 -0.0763 -0.2650 -0.7867
  912MOL0     C23004   3.015   4.216   1.199  0.4493  0.0872  0.4273
  912MOL0     C23005   3.132   4.288   1.140 -0.4083  0.1307  1.0855
  912MOL0     C23006   3.243   4.338   1.234 -0.0929  0.3102  0.2240
  912MOL0     C23007   3.327   4.211   1.274  1.1837 -1.3345 -0.9036
  912MOL0     C23008   3.475   4.238   1.295 -0.5028  0.4047  0.1859
  912MOL0     O23009   3.525   4.344   1.207 -0.1247  0.5344  0.4242
  912MOL0     C23010   3.655   4.392   1.225 -0.6058  0.3956  0.1392
  912MOL0     C23011   3.686   4.521   1.164 -0.2391  0.3105 -0.4780
  912MOL0     C23012   3.814   4.577   1.187 -0.1413 -0.3886 -0.5045
  912MOL0     C23013   3.909   4.505   1.257  0.1661  0.4127 -0.5486
  912MOL0     C23014   4.043   4.564   1.263 -0.0034 -0.2814  0.3289
  912MOL0     O23015   4.130   4.509   1.356  0.5274 -0.0239 -0.2202
  912MOL0     C23016   4.267   4.526   1.360  1.2010 -0.6069 -0.6566
  912MOL0     C23017   4.356   4.591   1.273 -0.3772 -0.5376 -0.1895
  912MOL0     C23018   4.494   4.600   1.309  0.0084 -1.4030 -0.0017
  912MOL0     C23019   4.546   4.548   1.422 -0.0177  0.3473 -0.3767
  912MOL0     O23020   4.675   4.554   1.459 -0.1807  0.0249 -0.0307
  912MOL0     C23021   4.768   4.633   1.379 -0.2326  0.7432 -1.2171
  912MOL0     C23022   4.915   4.617   1.431  0.9915  0.0910 -0.3571
  912MOL0     C23023   4.990   4.497   1.355 -0.1335 -0.5086  0.6452
  912MOL0     C23024   5.045   4.531   1.221  0.7310 -0.5357  0.4735
  912MOL0     C23025   5.144   4.421   1.179 -0.0180  0.6677  0.4762
  912MOL0     C23026   5.112   4.372   1.044 -0.2212  0.6603 -0.5799
  912MOL0     C23027   5.197   4.247   1.012  0.2695 -0.2212 -0.9819
  912MOL0     C23028   5.320   4.274   0.921  0.9719 -0.3219 -0.4910
  912MOL0    Cl23029   5.437   4.398   0.975 -0.1814  0.5416  0.3093
  912MOL0     C23030   4.461   4.491   1.510  0.0574 -0.3664  0.5506
  912MOL0     C23031   4.325   4.478   1.478 -0.0723 -0.2714  0.9121
  912MOL0     O23032   4.064   4.654   1.191 -0.3841 -0.5547 -0.4438
  912MOL0     C23033   3.871   4.384   1.324  0.3110  0.2610  0.8743
  912MOL0     C23034   3.752   4.325   1.303  0.4323 -0.1389  0.5334
  912MOL0     N23035   2.924   4.279   1.279  0.6955 -0.7929 -0.7624
  912MOL0     N23036   2.832   4.192   1.313  0.1648 -0.7573  0.3267
  912MOL0     C23037   1.920   3.371   0.682  0.6633 -0.3858  0.4580
  912MOL0     C23038   1.950   3.295   0.567  0.2639  0.6134 -0.4422
  912MOL0     C23039   2.100   3.130   0.189 -0.2138 -1.1007 -0.5092
  912MOL0     C23040   2.233   3.076   0.193 -0.2363  0.3498 -0.1265
  912MOL0     C23041   2.275   2.973   0.106  0.2388  0.3310 -0.3419
  912MOL0     C23042   2.182   2.932   0.005 -0.2362 -0.1302 -0.7058
  912MOL0     O23043   2.206   2.839  -0.091 -0.3002  0.2827 -0.0233
  912MOL0     C23044   2.309   2.750  -0.062  0.1147 -0.2526  0.7871
  912MOL0     C23045   2.282   2.620  -0.137  0.6175 -0.1233  0.5880
  912MOL0     C23046   2.152   2.558  -0.076 -0.5411 -1.1131  0.3210
  912MOL0     C23047   2.102   2.428  -0.147 -0.1809  0.5070 -0.3448
  912MOL0     C23048   2.069   2.450  -0.289 -0.2314  0.3631 -0.3271
  912MOL0     C23049   2.030   2.482  -0.402 -0.4145  0.0182 -0.2759
  912MOL0     C23050   2.058   2.990  -0.006 -0.4543  0.0333 -0.1435
  912MOL0     C23051   2.013   3.086   0.089 -0.1790  0.6548 -0.5910
  912MOL0     C23052   1.869   3.135   0.079 -0.5339 -0.2586 -0.2176
  912MOL0     H23053   2.288   3.296   0.563  0.4503 -0.1440 -0.0925
  912MOL0     H23054   2.238   3.448   0.778 -1.2304  0.7189  1.6814
  912MOL0     H23055   2.095   3.680   0.827  2.4818  0.2025  1.1166
  912MOL0     H23056   1.987   3.664   0.966 -2.6553  1.2192 -3.5087
  912MOL0     H23057   2.224   3.482   0.982  3.0265  0.4624  0.9216
  912MOL0     H23058   2.155   3.581   1.102  0.5646 -0.3992  0.0724
  912MOL0     H23059   2.250   3.788   0.956 -0.7876  0.4123  3.0409
  912MOL0     H23060   2.355   3.663   0.887  1.6966  3.2374 -0.4800
  912MOL0     H23061   2.317   3.726   1.186  1.8829  2.6755  0.5394
  912MOL0     H23062   2.439   3.614   1.107 -0.9289 -0.6956  1.6185
  912MOL0     H23063   2.557   3.795   1.009  2.1410  0.1619  1.6323
  912MOL0     H23064   2.439   3.908   1.081 -0.8285 -0.4551 -0.9473
  912MOL0     H23065   2.499   3.852   1.299 -1.6305 -1.3323 -1.7650
  912MOL0     H23066   2.611   3.728   1.263 -0.9069  1.0424  1.2782
  912MOL0     H23067   2.645   4.024   1.159 -0.5509 -0.3228  1.8279
  912MOL0     H23068   2.736   3.885   1.092  0.4588 -0.4728  0.2768
  912MOL0     H23069   2.734   3.975   1.373 -0.9192  0.0747 -0.3420
  912MOL0     H23070   2.841   3.855   1.302 -3.4814 -1.8411 -1.4238
  912MOL0     H23071   3.025   4.020   1.104 -0.7903  1.3726 -2.8698
  912MOL0     H23072   3.176   4.229   1.059 -2.4720  2.0238 -1.5932
  912MOL0     H23073   3.096   4.383   1.100  1.2368  0.7989  1.1384
  912MOL0     H23074   3.290   4.433   1.206 -0.8530  0.3944 -0.8435
  912MOL0     H23075   3.189   4.369   1.323 -2.5302 -1.1058 -0.6612
  912MOL0     H23076   3.316   4.129   1.202  0.3527 -3.2606  1.2507
  912MOL0     H23077   3.291   4.182   1.373  0.2009  1.8656 -0.2198
  912MOL0     H23078   3.532   4.146   1.275 -2.1961 -0.4069 -1.1441
  912MOL0     H23079   3.507   4.270   1.395 -0.2008  2.2375 -0.4576
  912MOL0     H23080   3.608   4.578   1.114 -1.8894 -0.2952  1.3018
  912MOL0     H23081   3.828   4.677   1.147  1.8503 -0.3398  0.2040
  912MOL0     H23082   4.323   4.646   1.186 -0.6115 -1.4879 -0.7001
  912MOL0     H23083   4.559   4.657   1.244  0.7724 -0.9563  1.1198
  912MOL0     H23084   4.763   4.600   1.275 -1.1365 -3.8352  0.0365
  912MOL0     H23085   4.751   4.740   1.389  1.8743  0.8916  5.0383
  912MOL0     H23086   4.968   4.712   1.422  1.7053  0.4466  4.5363
  912MOL0     H23087   4.906   4.603   1.540 -0.4262 -3.2149 -0.7864
  912MOL0     H23088   5.069   4.457   1.419  0.8009 -1.4703 -1.0186
  912MOL0     H23089   4.927   4.412   1.329  1.3996 -0.9237 -2.1034
  912MOL0     H23090   5.109   4.619   1.232  0.6308 -0.5686  1.3276
  912MOL0     H23091   4.972   4.541   1.140 -0.8675 -3.4417  1.4508
  912MOL0     H23092   5.148   4.336   1.247 -1.2871 -0.1658 -0.4560
  912MOL0     H23093   5.240   4.473   1.181 -0.1546  0.9947 -0.6860
  912MOL0     H23094   5.008   4.340   1.033  0.1713 -0.9671  0.1472
  912MOL0     H23095   5.126   4.450   0.968  0.6895  0.3014 -0.7933
  912MOL0     H23096   5.133   4.178   0.957  1.2872 -1.7086 -0.3577
  912MOL0     H23097   5.220   4.199   1.108  0.2701  4.6143  1.7418
  912MOL0     H23098   5.374   4.179   0.911  2.6709  0.0271  3.4569
  912MOL0     H23099   5.284   4.306   0.822 -2.0414 -2.2579 -0.1470
  912MOL0     H23100   4.499   4.441   1.599  0.5004 -0.7310  0.1636
  912MOL0     H23101   4.254   4.430   1.546 -0.1262 -2.7166 -0.7353
  912MOL0     H23102   3.939   4.321   1.380 -1.3445 -0.5185  2.1060
  912MOL0     H23103   3.738   4.241   1.370  0.0850  1.3230  2.3485
  912MOL0     H23104   1.818   3.391   0.712 -0.5044  0.9041 -3.6588
  912MOL0     H23105   1.867   3.265   0.503 -0.8651 -0.1896  1.3077
  912MOL0     H23106   2.306   3.117   0.262  1.4420  2.3625 -2.8547
  912MOL0     H23107   2.380   2.945   0.112  0.1918 -1.1982 -4.1460
  912MOL0     H23108   2.320   2.726   0.044 -1.7650  0.4487  1.1970
  912MOL0     H23109   2.401   2.798  -0.096 -1.1697  1.7995 -0.0301
  912MOL0     H23110   2.359   2.546  -0.113  1.5068  1.0486  1.4782
  912MOL0     H23111   2.265   2.647  -0.242 -0.1650  0.0919  0.7590
  912MOL0     H23112   2.067   2.628  -0.078  1.5280  1.6054  0.7855
  912MOL0     H23113   2.180   2.540   0.028 -0.0733  0.0805  0.4228
  912MOL0     H23114   2.180   2.352  -0.143  1.1750  1.8942  1.4770
  912MOL0     H23115   2.018   2.393  -0.085  1.4439 -1.3443  0.9428
  912MOL0     H23116   1.997   2.482  -0.504 -0.0745  5.0922 -0.6300
  912MOL0     H23117   1.996   2.948  -0.084 -3.1532 -1.1147  2.4296
  912MOL0     H23118   1.823   3.078   0.161  0.7458  0.2431  0.8821
  912MOL0     H23119   1.857   3.244   0.079 -0.2789 -0.0464 -5.0411
  912MOL0     H23120   1.814   3.108  -0.012 -2.7495  0.7632  0.7281
  913MOL0     O23121   2.621   5.923   0.688 -0.1345  0.0059 -0.6806
  913MOL0     C23122   2.635   5.851   0.788 -0.6062 -0.7873 -0.0793
  913MOL0     O23123   2.652   5.710   0.780  0.9688 -0.7835  0.0696
  913MOL0     C23124   2.684   5.644   0.671  0.4650  0.1769  0.2172
  913MOL0     C23125   2.694   5.687   0.535  0.2670  0.2023  0.5172
  913MOL0     C23126   2.732   5.590   0.439 -0.6680 -0.1739  0.0251
  913MOL0     C23127   2.769   5.459   0.468 -0.1025 -0.5694  1.0630
  913MOL0     O23128   2.805   5.370   0.370 -0.7913  0.2602 -0.7543
  913MOL0     C23129   2.825   5.409   0.239 -0.7868 -0.1531  0.6222
  913MOL0     C23130   2.965   5.480   0.212  0.0045  0.4875  0.1686
  913MOL0     C23131   3.080   5.372   0.186  0.7751 -0.1266  0.4899
  913MOL0     C23132   3.097   5.261   0.292 -0.3185 -0.6248  0.2589
  913MOL0     C23133   3.229   5.192   0.291  0.8552  1.1128  0.5255
  913MOL0     C23134   3.357   5.281   0.307  0.5073  0.9482 -0.4659
  913MOL0     C23135   3.477   5.195   0.348  0.8667 -0.1618 -0.2617
  913MOL0     C23136   3.588   5.286   0.405  0.8442 -0.4649  0.3481
  913MOL0     N23137   3.701   5.204   0.459 -0.2824 -0.6789 -0.6727
  913MOL0     C23138   3.757   5.091   0.401  0.3804 -0.2102 -0.0599
  913MOL0     C23139   3.836   5.034   0.492 -0.9090 -0.5270  0.3417
  913MOL0     C23140   3.919   4.900   0.479 -0.3169  0.0265  0.8430
  913MOL0     C23141   4.058   4.911   0.419 -0.3047 -0.1200 -0.2968
  913MOL0     C23142   4.160   4.964   0.520 -0.0198  0.4206 -0.2894
  913MOL0     C23143   4.292   5.007   0.461 -0.1876  0.0598  0.5997
  913MOL0     O23144   4.367   4.894   0.417  0.0634  0.5604  1.6313
  913MOL0     C23145   4.476   4.853   0.488  0.4816 -0.2242 -1.2458
  913MOL0     C23146   4.596   4.805   0.422  1.6399  0.0465  0.1539
  913MOL0     C23147   4.715   4.773   0.489  0.0312 -0.0875 -0.1102
  913MOL0     C23148   4.713   4.779   0.624  0.9453 -0.1837 -0.0599
  913MOL0     C23149   4.843   4.749   0.694  0.1959  0.8824 -0.1722
  913MOL0     O23150   4.939   4.681   0.622  0.2298 -0.2776 -0.3498
  913MOL0     C23151   5.069   4.695   0.663 -0.3281 -0.0261 -0.1222
  913MOL0     C23152   5.134   4.811   0.698  1.0663  0.4153  0.8331
  913MOL0     C23153   5.265   4.814   0.748 -0.5040 -0.8288 -0.2334
  913MOL0     C23154   5.344   4.700   0.745  0.0363 -0.3786 -0.1680
  913MOL0     O23155   5.474   4.723   0.780 -0.0551 -0.6507 -0.2271
  913MOL0     C23156   5.571   4.630   0.736  0.0797  0.9571  0.2666
  913MOL0     C23157   5.674   4.608   0.844 -0.4912 -0.0495 -0.5040
  913MOL0     C23158   5.774   4.723   0.841 -0.6180 -0.2195 -1.1045
  913MOL0     C23159   5.907   4.694   0.928 -0.0100  0.6253  0.5056
  913MOL0     C23160   5.986   4.819   0.951  0.3786 -0.3078  0.0550
  913MOL0     C23161   6.122   4.787   1.015  0.3996  0.7256  0.4009
  913MOL0     C23162   6.216   4.704   0.928  0.2821  0.5145  0.4406
  913MOL0     C23163   6.363   4.727   0.966 -0.2367 -0.3480  0.4495
  913MOL0    Cl23164   6.432   4.882   0.897 -0.0506  0.4025  0.4779
  913MOL0     C23165   5.285   4.582   0.690  0.1768 -0.6481  0.4564
  913MOL0     C23166   5.146   4.581   0.658 -0.3076  0.1183 -0.6871
  913MOL0     O23167   4.850   4.770   0.815 -0.0750  0.4600  0.5342
  913MOL0     C23168   4.603   4.823   0.698  0.1256 -0.3324  0.6514
  913MOL0     C23169   4.487   4.862   0.631 -0.4161 -0.5789  0.8770
  913MOL0     N23170   3.809   5.109   0.608 -0.6639 -0.3544 -0.6431
  913MOL0     N23171   3.727   5.204   0.586 -0.2813  0.0106 -0.1028
  913MOL0     C23172   2.763   5.420   0.603  0.4622 -0.0133  0.7219
  913MOL0     C23173   2.721   5.512   0.702 -0.0715 -0.1300  0.2298
  913MOL0     C23174   2.628   5.931   0.915 -0.0998  1.0602 -1.2966
  913MOL0     C23175   2.650   6.068   0.915  0.0554 -0.1245 -0.2982
  913MOL0     C23176   2.654   6.144   1.031  0.6196 -0.3434 -0.1622
  913MOL0     C23177   2.613   6.101   1.154  0.5209  1.1293  0.7878
  913MOL0     O23178   2.610   6.175   1.267  0.0466 -0.9850  0.0358
  913MOL0     C23179   2.689   6.293   1.262  0.2596 -0.2076 -0.4037
  913MOL0     C23180   2.693   6.365   1.399  1.1501 -0.2459 -0.8988
  913MOL0     C23181   2.794   6.289   1.493  0.4159  0.1368 -0.3882
  913MOL0     C23182   2.788   6.338   1.632 -0.1242 -0.7171 -0.1557
  913MOL0     C23183   2.673   6.290   1.712  0.3408  0.8664 -0.4222
  913MOL0     C23184   2.574   6.255   1.782  0.4670 -0.0509  0.0309
  913MOL0     C23185   2.567   5.963   1.154 -0.4632  0.0698  0.5655
  913MOL0     C23186   2.591   5.877   1.048 -0.3133  0.3929  0.5607
  913MOL0     C23187   2.580   5.724   1.059  0.4884  0.4908 -0.1100
  913MOL0     H23188   2.674   5.787   0.497 -1.0807 -0.6081 -0.9819
  913MOL0     H23189   2.745   5.637   0.341 -0.8634  1.6873  0.8438
  913MOL0     H23190   2.816   5.323   0.173 -0.6604 -1.4252  2.1876
  913MOL0     H23191   2.742   5.468   0.200  0.9909  2.9828  1.1992
  913MOL0     H23192   2.997   5.544   0.294 -0.6090  0.2948  0.5677
  913MOL0     H23193   2.955   5.545   0.125  1.7783  0.4523 -0.0981
  913MOL0     H23194   3.175   5.424   0.172 -1.4792  4.4018  0.1439
  913MOL0     H23195   3.064   5.326   0.088 -0.2390  2.8259 -0.8366
  913MOL0     H23196   3.080   5.307   0.390  0.9276 -1.5475  0.9324
  913MOL0     H23197   3.004   5.203   0.285 -0.5065 -0.3156  0.1807
  913MOL0     H23198   3.230   5.119   0.373 -1.3710 -2.1884 -2.1318
  913MOL0     H23199   3.230   5.136   0.197 -4.0706  1.2770  0.1411
  913MOL0     H23200   3.381   5.344   0.221 -0.2842  1.8066 -0.0691
  913MOL0     H23201   3.350   5.351   0.391  3.9030  0.4710  0.3920
  913MOL0     H23202   3.507   5.138   0.260  1.2954 -0.2368 -0.0691
  913MOL0     H23203   3.432   5.129   0.424 -2.3229  2.2148  0.1461
  913MOL0     H23204   3.625   5.344   0.321  1.6431 -0.8423  0.4366
  913MOL0     H23205   3.552   5.351   0.485  2.0402  1.2499 -0.4419
  913MOL0     H23206   3.732   5.051   0.303  0.5145 -2.2756  0.6900
  913MOL0     H23207   3.916   4.854   0.579  0.7934  1.1712  1.4351
  913MOL0     H23208   3.867   4.833   0.410 -0.9047  1.8938 -0.5927
  913MOL0     H23209   4.084   4.809   0.389  0.5585  0.8466 -3.1999
  913MOL0     H23210   4.049   4.971   0.328 -1.9745 -0.8397 -0.6419
  913MOL0     H23211   4.185   4.891   0.598 -0.8442 -2.1184 -2.2496
  913MOL0     H23212   4.113   5.050   0.568  0.0126 -0.4143  1.3120
  913MOL0     H23213   4.344   5.068   0.536  1.7307  1.1778 -1.5241
  913MOL0     H23214   4.274   5.082   0.384 -2.5044  2.6001  3.3572
  913MOL0     H23215   4.587   4.792   0.314  2.9517 -2.9037  0.2838
  913MOL0     H23216   4.806   4.746   0.436  0.0421  3.2718 -2.1082
  913MOL0     H23217   5.102   4.915   0.703  1.0142  0.3447  2.2735
  913MOL0     H23218   5.299   4.902   0.801  3.6610 -1.5292 -1.3330
  913MOL0     H23219   5.515   4.537   0.727 -2.9412  2.6652  0.2917
  913MOL0     H23220   5.610   4.648   0.635 -2.1282  1.1369 -0.5951
  913MOL0     H23221   5.626   4.617   0.941  1.4082  3.0707  0.3031
  913MOL0     H23222   5.712   4.506   0.831  1.3284  0.4167  0.6662
  913MOL0     H23223   5.800   4.757   0.740 -1.3656 -1.5952 -1.7874
  913MOL0     H23224   5.717   4.804   0.888  2.4636  0.5559  1.6398
  913MOL0     H23225   5.964   4.622   0.870  0.3235 -0.5379  2.1964
  913MOL0     H23226   5.885   4.648   1.025  0.6137  3.4535  2.0968
  913MOL0     H23227   5.926   4.888   1.011  0.7758  1.7044 -1.7468
  913MOL0     H23228   6.007   4.864   0.854  0.3130  2.0574  1.0549
  913MOL0     H23229   6.174   4.876   1.052 -1.2422  2.8309 -2.0755
  913MOL0     H23230   6.101   4.728   1.105  0.1324  0.1019 -0.0648
  913MOL0     H23231   6.205   4.711   0.819  2.6784 -3.1196 -0.1980
  913MOL0     H23232   6.186   4.602   0.954 -0.7189  1.2575  2.4371
  913MOL0     H23233   6.395   4.734   1.071 -3.1724  1.1885  1.3529
  913MOL0     H23234   6.424   4.655   0.911 -0.9802 -0.1607 -0.6395
  913MOL0     H23235   5.343   4.492   0.673  2.7116  0.6642  1.6420
  913MOL0     H23236   5.097   4.496   0.611  3.9456 -1.5363 -2.5934
  913MOL0     H23237   4.609   4.829   0.806 -0.5020 -2.4378  0.8511
  913MOL0     H23238   4.402   4.903   0.685 -0.0075 -0.3534  1.3544
  913MOL0     H23239   2.800   5.325   0.637  1.1012 -0.1111 -0.2045
  913MOL0     H23240   2.715   5.488   0.808 -0.7885  1.1738  0.5078
  913MOL0     H23241   2.676   6.112   0.819 -0.6450  0.9762  0.0042
  913MOL0     H23242   2.680   6.247   1.009  3.0835 -1.3050 -2.2978
  913MOL0     H23243   2.658   6.368   1.188  0.3590 -3.5945 -4.2201
  913MOL0     H23244   2.795   6.279   1.237  0.6624  2.1429 -0.2289
  913MOL0     H23245   2.589   6.369   1.435  0.8226 -0.9025 -1.7374
  913MOL0     H23246   2.721   6.470   1.411  3.9255 -1.1890  2.5605
  913MOL0     H23247   2.893   6.319   1.457 -0.5527  3.6103 -0.5240
  913MOL0     H23248   2.774   6.182   1.478  1.2946 -0.0532 -0.2660
  913MOL0     H23249   2.865   6.305   1.703 -1.1463 -0.0742  1.3232
  913MOL0     H23250   2.798   6.447   1.628 -1.6033 -0.6141 -2.9103
  913MOL0     H23251   2.489   6.226   1.841 -0.3729 -1.4083 -1.7594
  913MOL0     H23252   2.514   5.920   1.238  1.9045 -3.9700  0.2457
  913MOL0     H23253   2.574   5.694   1.164  1.6311 -0.3466 -0.2666
  913MOL0     H23254   2.488   5.683   1.015  2.6717 -0.6636 -4.0892
  913MOL0     H23255   2.669   5.675   1.018  0.3211 -0.0065  0.1135
  914MOL0     O23256   5.548   8.954   3.997  0.0899  0.1101  0.2966
  914MOL0     C23257   5.425   8.955   4.007 -0.3284 -0.9557  0.1893
  914MOL0     O23258   5.362   8.914   4.130 -0.2465  0.9216  0.2286
  914MOL0     C23259   5.437   8.888   4.244 -0.3703 -0.9278 -0.7983
  914MOL0     C23260   5.386   8.789   4.320 -0.5371  0.0749  0.4660
  914MOL0     C23261   5.468   8.730   4.415  0.6151 -0.2152 -0.2036
  914MOL0     C23262   5.594   8.780   4.445 -0.0322  0.1201 -0.2543
  914MOL0     O23263   5.693   8.722   4.520  0.2204 -0.1288 -0.8836
  914MOL0     C23264   5.659   8.599   4.591  0.4398 -0.3015 -0.3752
  914MOL0     C23265   5.715   8.487   4.503  0.0718  0.4206  0.1005
  914MOL0     C23266   5.864   8.491   4.468  1.2605 -0.4496 -0.0466
  914MOL0     C23267   5.952   8.459   4.594 -0.2559  0.2815  0.2107
  914MOL0     C23268   6.100   8.450   4.548 -0.2928  0.1919  0.2312
  914MOL0     C23269   6.153   8.587   4.503 -0.3928 -0.0157 -0.4659
  914MOL0     C23270   6.306   8.583   4.476 -0.1456  0.4696  0.2954
  914MOL0     C23271   6.372   8.725   4.484 -0.0041 -0.2900  0.2249
  914MOL0     N23272   6.520   8.729   4.448  0.1807 -0.0025  0.2962
  914MOL0     C23273   6.624   8.704   4.538  0.0181  0.5765 -0.5500
  914MOL0     C23274   6.735   8.724   4.463  0.1253 -0.2968 -0.3547
  914MOL0     C23275   6.879   8.704   4.504  0.2168  0.8268 -0.5880
  914MOL0     C23276   6.921   8.567   4.548 -0.1685 -0.8343  0.4488
  914MOL0     C23277   6.954   8.478   4.435 -0.0419 -0.3163  0.2861
  914MOL0     C23278   7.086   8.507   4.368 -0.4239  0.4363  0.7263
  914MOL0     O23279   7.198   8.483   4.459 -0.8925  0.3442 -0.7111
  914MOL0     C23280   7.321   8.476   4.406 -1.1304 -0.1906  0.0413
  914MOL0     C23281   7.375   8.538   4.296  1.5687  0.1367 -0.5977
  914MOL0     C23282   7.506   8.523   4.253 -0.0902  0.5213 -0.0165
  914MOL0     C23283   7.597   8.449   4.334  0.0174 -0.2669 -0.5241
  914MOL0     C23284   7.743   8.457   4.298 -0.0467  0.0696 -0.4023
  914MOL0     O23285   7.784   8.510   4.179  1.0315 -0.2331  0.0811
  914MOL0     C23286   7.893   8.585   4.171 -0.0898  0.0542 -0.4698
  914MOL0     C23287   7.998   8.525   4.088  0.9801 -1.4141 -0.9032
  914MOL0     C23288   8.115   8.589   4.084 -0.3214 -0.3279  1.5849
  914MOL0     C23289   8.150   8.701   4.161 -0.2824 -1.0646 -0.7084
  914MOL0     O23290   8.277   8.758   4.143  0.0269 -0.2049  0.0393
  914MOL0     C23291   8.314   8.867   4.224  0.2258  0.0077 -0.4810
  914MOL0     C23292   8.437   8.910   4.167  0.2940 -0.2551  0.4530
  914MOL0     C23293   8.440   8.994   4.039  0.0980 -0.0954  0.1659
  914MOL0     C23294   8.577   8.975   3.972 -0.9652 -0.6981 -0.2471
  914MOL0     C23295   8.706   9.010   4.070  0.2203 -0.3136  0.8198
  914MOL0     C23296   8.801   8.889   4.099 -0.2019 -0.3777 -0.3181
  914MOL0     C23297   8.899   8.852   3.995 -0.2210 -0.3230 -0.2246
  914MOL0     C23298   9.017   8.949   4.005  1.3788  0.2211 -1.1955
  914MOL0    Cl23299   9.124   8.948   3.856 -0.1655 -0.3562 -0.0881
  914MOL0     C23300   8.050   8.755   4.243  0.2157  0.1562 -0.6418
  914MOL0     C23301   7.922   8.701   4.248 -0.6991 -0.5441 -0.7716
  914MOL0     O23302   7.820   8.412   4.389  0.8107 -0.7649  0.1902
  914MOL0     C23303   7.543   8.386   4.452  0.0582  0.4614  0.2628
  914MOL0     C23304   7.412   8.409   4.484  0.4328 -0.7120 -0.1191
  914MOL0     N23305   6.705   8.759   4.337  0.1308  0.0236 -0.1980
  914MOL0     N23306   6.579   8.769   4.329  0.4888  0.2247 -0.9726
  914MOL0     C23307   5.639   8.888   4.369 -0.6798  0.2319  0.2407
  914MOL0     C23308   5.565   8.949   4.271 -0.3212  0.0008  0.0481
  914MOL0     C23309   5.345   8.999   3.893  0.1150  0.1828  0.2056
  914MOL0     C23310   5.206   8.992   3.927 -0.8399 -0.8897  0.6145
  914MOL0     C23311   5.115   9.048   3.829  0.2254  0.5700  1.0475
  914MOL0     C23312   5.163   9.099   3.711 -0.3338 -0.3967  0.1479
  914MOL0     O23313   5.073   9.162   3.624  0.0729 -0.4026 -0.2963
  914MOL0     C23314   5.071   9.305   3.609 -0.2921 -0.9035  0.1201
  914MOL0     C23315   5.162   9.345   3.489  0.0271 -0.7567 -0.3753
  914MOL0     C23316   5.105   9.302   3.347 -0.6419  0.1853 -0.0375
  914MOL0     C23317   5.179   9.362   3.224  0.1213  0.0106 -1.1356
  914MOL0     C23318   5.159   9.503   3.220  0.4503 -0.7994  1.0156
  914MOL0     C23319   5.135   9.624   3.212  0.1527  0.3948  0.3126
  914MOL0     C23320   5.298   9.086   3.676 -0.1734  0.1938  0.5677
  914MOL0     C23321   5.390   9.032   3.766  1.0287  0.2994 -0.3330
  914MOL0     C23322   5.533   9.020   3.723 -0.2448 -0.4994  0.7187
  914MOL0     H23323   5.283   8.766   4.297 -0.5540  0.1005  0.5150
  914MOL0     H23324   5.423   8.656   4.480 -0.6036  1.5546  1.0827
  914MOL0     H23325   5.712   8.593   4.686 -0.4530  0.5242  0.1914
  914MOL0     H23326   5.552   8.581   4.607  0.7012 -1.5520  0.0714
  914MOL0     H23327   5.658   8.488   4.410 -1.7301  0.2569  1.1540
  914MOL0     H23328   5.685   8.393   4.549  1.9655 -1.4948 -2.3122
  914MOL0     H23329   5.889   8.591   4.430  0.9677 -0.8815 -1.4334
  914MOL0     H23330   5.892   8.434   4.379  1.3128 -1.3533  0.5426
  914MOL0     H23331   5.954   8.545   4.662  1.7459  1.1332 -0.8531
  914MOL0     H23332   5.917   8.366   4.641  0.6581 -0.4159 -0.4736
  914MOL0     H23333   6.164   8.411   4.627 -0.9130 -3.9072 -1.0459
  914MOL0     H23334   6.109   8.385   4.460  5.4710  0.1919  0.4486
  914MOL0     H23335   6.105   8.625   4.413 -1.2963 -1.9186 -0.8350
  914MOL0     H23336   6.151   8.654   4.589  2.2627 -0.2800 -0.1019
  914MOL0     H23337   6.317   8.540   4.376 -3.4556  1.3798 -0.5588
  914MOL0     H23338   6.355   8.518   4.550 -2.9063 -0.5677  1.3330
  914MOL0     H23339   6.328   8.778   4.399 -0.8189  1.5993  1.7460
  914MOL0     H23340   6.355   8.770   4.582  0.1166 -0.7425  0.4543
  914MOL0     H23341   6.622   8.680   4.644  1.9659  3.6447  0.3383
  914MOL0     H23342   6.926   8.744   4.414 -0.9158 -0.0541 -1.5896
  914MOL0     H23343   6.902   8.776   4.584  0.3251  2.7133 -2.2476
  914MOL0     H23344   7.005   8.577   4.617 -1.1254  3.2893  1.2838
  914MOL0     H23345   6.837   8.523   4.602 -0.6058 -0.9500 -0.3102
  914MOL0     H23346   6.876   8.470   4.359 -1.6213 -2.3770  2.0037
  914MOL0     H23347   6.954   8.378   4.477 -0.1486 -0.9393 -1.1493
  914MOL0     H23348   7.100   8.607   4.327  0.9668  1.5463  3.6653
  914MOL0     H23349   7.106   8.440   4.283  2.2122  0.7675  0.9938
  914MOL0     H23350   7.319   8.611   4.238  2.4951  2.5784  1.4081
  914MOL0     H23351   7.548   8.565   4.162 -0.3145 -0.4402 -0.5778
  914MOL0     H23352   7.969   8.443   4.023  0.0583  1.5934 -4.6528
  914MOL0     H23353   8.180   8.550   4.006 -2.1541 -1.4509  0.5723
  914MOL0     H23354   8.253   8.957   4.210  1.3497  0.9319  0.3397
  914MOL0     H23355   8.313   8.834   4.328  0.8912 -0.2618 -0.5585
  914MOL0     H23356   8.477   8.979   4.241 -4.4963  1.4732  1.7866
  914MOL0     H23357   8.507   8.829   4.147  3.2763  2.9329 -3.8040
  914MOL0     H23358   8.373   8.949   3.966  0.4253  0.0591 -0.2350
  914MOL0     H23359   8.414   9.100   4.051  0.7895  0.1394 -0.3515
  914MOL0     H23360   8.595   9.042   3.887  1.5587 -0.4121  0.4292
  914MOL0     H23361   8.584   8.876   3.925  1.4429  0.6055 -3.0347
  914MOL0     H23362   8.667   9.057   4.161 -1.1186  1.1608 -0.4438
  914MOL0     H23363   8.761   9.096   4.030  2.1100 -0.6782  2.4741
  914MOL0     H23364   8.840   8.893   4.201  0.2482 -1.3903 -0.4277
  914MOL0     H23365   8.745   8.795   4.108  1.1518 -1.1629  0.2494
  914MOL0     H23366   8.847   8.871   3.901 -0.2995  2.6220  0.3269
  914MOL0     H23367   8.940   8.751   4.003 -1.7571 -1.4909 -4.3675
  914MOL0     H23368   8.999   9.053   4.034  4.3035  0.6474 -0.6719
  914MOL0     H23369   9.079   8.919   4.090  0.1327  0.2306 -0.2383
  914MOL0     H23370   8.073   8.838   4.309  2.2832  0.3322 -1.5059
  914MOL0     H23371   7.850   8.742   4.318  0.1214 -0.0566 -0.1901
  914MOL0     H23372   7.612   8.331   4.516  3.5263  1.8364 -2.0200
  914MOL0     H23373   7.365   8.370   4.574 -2.2969  0.1931 -1.0482
  914MOL0     H23374   5.735   8.932   4.393 -0.0910  0.4389 -2.2558
  914MOL0     H23375   5.601   9.033   4.213 -2.5794  1.0836  0.0893
  914MOL0     H23376   5.171   8.958   4.024 -0.8335  2.4015  1.8907
  914MOL0     H23377   5.009   9.057   3.848 -0.4793  1.4197 -2.5057
  914MOL0     H23378   5.099   9.360   3.700 -1.5886  0.1960 -0.1119
  914MOL0     H23379   4.973   9.345   3.580  0.7714  0.4477 -1.8275
  914MOL0     H23380   5.265   9.312   3.506 -0.5723 -2.5004  0.0010
  914MOL0     H23381   5.165   9.454   3.497 -3.5489 -0.5507 -0.4589
  914MOL0     H23382   5.001   9.331   3.331 -0.5813 -0.0645 -0.9062
  914MOL0     H23383   5.111   9.193   3.340 -0.2855  0.3227 -2.3647
  914MOL0     H23384   5.286   9.342   3.227 -0.2655 -2.2934 -0.1292
  914MOL0     H23385   5.135   9.316   3.135 -2.9390  3.0774 -1.4053
  914MOL0     H23386   5.100   9.725   3.201 -0.9024  0.2143  1.7039
  914MOL0     H23387   5.330   9.127   3.581 -0.2542 -1.4271 -0.1882
  914MOL0     H23388   5.587   9.094   3.782 -0.5880  1.2206 -0.9874
  914MOL0     H23389   5.570   8.919   3.742 -0.9697 -0.9965 -0.3502
  914MOL0     H23390   5.534   9.040   3.615 -0.1596  0.1537  0.8402
  915MOL0     O23391   1.455   4.252   1.052  0.0415  0.0432 -0.1338
  915MOL0     C23392   1.407   4.273   1.165  0.5810  0.3306  0.6130
  915MOL0     O23393   1.461   4.229   1.279 -0.3204  0.6469 -0.0668
  915MOL0     C23394   1.590   4.260   1.306 -0.5526 -0.8804  0.2420
  915MOL0     C23395   1.644   4.192   1.418 -0.6467  1.0385 -0.2278
  915MOL0     C23396   1.771   4.226   1.462 -0.7275 -0.0897  0.3481
  915MOL0     C23397   1.844   4.327   1.401  0.4414  0.2133 -0.2072
  915MOL0     O23398   1.962   4.362   1.462 -0.9394  0.9050  0.3563
  915MOL0     C23399   2.051   4.458   1.398 -0.1606 -0.4181 -0.8500
  915MOL0     C23400   2.150   4.516   1.504 -0.8400  0.2729  0.1945
  915MOL0     C23401   2.231   4.631   1.444 -0.7485  0.8156  0.1528
  915MOL0     C23402   2.332   4.707   1.540  0.4517  0.7639  0.4014
  915MOL0     C23403   2.378   4.849   1.490 -1.1850 -0.6791  1.0720
  915MOL0     C23404   2.254   4.936   1.452  0.1120  0.2110  0.5334
  915MOL0     C23405   2.307   5.081   1.424  0.5086  0.4101 -0.5071
  915MOL0     C23406   2.335   5.095   1.276  0.3352  0.8130 -0.8020
  915MOL0     N23407   2.470   5.159   1.258 -0.2655  0.2653  0.0459
  915MOL0     C23408   2.595   5.114   1.303 -0.6333  0.1852  0.4747
  915MOL0     C23409   2.670   5.226   1.297  0.7092  0.0522  0.2710
  915MOL0     C23410   2.817   5.253   1.336  0.3775 -0.6278 -0.2320
  915MOL0     C23411   2.854   5.189   1.474  0.7717 -0.7117  0.7573
  915MOL0     C23412   2.757   5.238   1.587  0.2787 -0.7157  0.5661
  915MOL0     C23413   2.775   5.168   1.717  0.1072 -0.5014  0.0210
  915MOL0     O23414   2.704   5.042   1.714 -0.0686 -0.7247  0.2704
  915MOL0     C23415   2.634   5.002   1.829 -0.4470 -1.3352 -0.2003
  915MOL0     C23416   2.552   4.894   1.830 -0.2297 -0.5559  1.1565
  915MOL0     C23417   2.470   4.867   1.935 -0.2900 -0.0585  0.6066
  915MOL0     C23418   2.463   4.946   2.058 -0.3684  0.0220  0.4876
  915MOL0     C23419   2.365   4.916   2.171 -0.4206 -0.3919  0.0683
  915MOL0     O23420   2.335   4.780   2.199 -0.0368  0.2037  0.3037
  915MOL0     C23421   2.261   4.744   2.309 -0.0586 -0.1913 -0.2707
  915MOL0     C23422   2.288   4.624   2.384  1.1413  0.8344  0.4380
  915MOL0     C23423   2.223   4.592   2.503  0.2507  0.6432 -0.8895
  915MOL0     C23424   2.108   4.672   2.538 -0.8648  0.3747 -0.4446
  915MOL0     O23425   2.041   4.664   2.651 -0.2936  0.5762  0.2862
  915MOL0     C23426   2.071   4.562   2.746 -0.4532  0.3485  0.3506
  915MOL0     C23427   1.975   4.568   2.860  0.7264 -0.3079 -0.1318
  915MOL0     C23428   2.032   4.487   2.977  1.2784  0.3693  0.1616
  915MOL0     C23429   1.949   4.507   3.105 -0.1203 -0.2916  0.4938
  915MOL0     C23430   1.988   4.409   3.218 -0.5870 -0.5688 -0.9069
  915MOL0     C23431   1.966   4.474   3.358 -0.2625 -0.5462 -0.7507
  915MOL0     C23432   1.992   4.391   3.485  0.3696 -0.2734 -0.8087
  915MOL0     C23433   1.904   4.431   3.609 -0.0942  0.6091  0.2406
  915MOL0    Cl23434   1.861   4.603   3.609  0.0624  0.1663  0.2873
  915MOL0     C23435   2.080   4.775   2.457 -0.2594 -0.0670 -0.5821
  915MOL0     C23436   2.148   4.818   2.340 -0.5565 -0.3692  0.1003
  915MOL0     O23437   2.344   5.009   2.244 -0.9692 -0.7738  0.0252
  915MOL0     C23438   2.559   5.043   2.057 -0.8058  0.1552 -0.4025
  915MOL0     C23439   2.652   5.065   1.953 -0.2058 -0.1373  0.0218
  915MOL0     N23440   2.585   5.329   1.261 -0.2500 -0.1780 -0.7242
  915MOL0     N23441   2.467   5.292   1.234 -0.2842 -0.7729 -0.4982
  915MOL0     C23442   1.788   4.400   1.297  0.2648 -0.8017  0.0985
  915MOL0     C23443   1.657   4.375   1.251 -0.7655 -0.0922 -0.5667
  915MOL0     C23444   1.293   4.368   1.187  0.2091  0.0541 -0.3039
  915MOL0     C23445   1.296   4.458   1.298 -0.3552 -0.7888 -0.2014
  915MOL0     C23446   1.200   4.559   1.303  0.7515 -0.2701 -0.6276
  915MOL0     C23447   1.098   4.570   1.215 -0.4469 -0.8231 -0.3073
  915MOL0     O23448   1.002   4.668   1.237 -0.4913 -0.4936 -0.0261
  915MOL0     C23449   0.863   4.638   1.206  0.6283  0.2596 -1.1208
  915MOL0     C23450   0.765   4.667   1.322 -0.1972 -0.9781  0.0401
  915MOL0     C23451   0.826   4.632   1.461  0.1459  0.5693  0.7637
  915MOL0     C23452   0.735   4.670   1.575 -1.1454 -0.3632 -0.3947
  915MOL0     C23453   0.642   4.561   1.600 -0.3586 -0.3850 -0.2377
  915MOL0     C23454   0.555   4.480   1.592 -0.3588 -0.9570  0.2537
  915MOL0     C23455   1.093   4.479   1.105  1.1504  0.3923  0.1949
  915MOL0     C23456   1.185   4.379   1.093  0.6512  0.6337 -1.0736
  915MOL0     C23457   1.156   4.275   0.985 -0.7981 -0.0625  0.4111
  915MOL0     H23458   1.587   4.112   1.465  3.1012 -0.6239  1.9452
  915MOL0     H23459   1.820   4.169   1.541  3.0351 -0.0148 -1.6877
  915MOL0     H23460   2.092   4.412   1.307  2.2730  3.4845 -1.9500
  915MOL0     H23461   1.997   4.551   1.379 -1.3614 -0.7523  0.7542
  915MOL0     H23462   2.220   4.441   1.543  0.1963 -0.8753 -3.4046
  915MOL0     H23463   2.089   4.554   1.587 -0.0698 -0.4662  1.1264
  915MOL0     H23464   2.160   4.698   1.395 -1.3283 -0.5642 -0.9591
  915MOL0     H23465   2.287   4.577   1.367 -1.3551  0.6384 -0.1698
  915MOL0     H23466   2.288   4.725   1.639  2.1925  2.0653  1.0044
  915MOL0     H23467   2.423   4.650   1.559  0.7522  0.2542 -2.2343
  915MOL0     H23468   2.447   4.900   1.557  1.5719  2.7132 -3.7960
  915MOL0     H23469   2.435   4.839   1.398  0.7766 -0.0220  2.1504
  915MOL0     H23470   2.196   4.903   1.365  0.5041  1.5926 -0.2871
  915MOL0     H23471   2.193   4.920   1.541 -0.9549 -1.3211 -0.4235
  915MOL0     H23472   2.387   5.098   1.496 -1.3512 -1.0212  2.0490
  915MOL0     H23473   2.225   5.149   1.451 -1.4388 -1.3319 -1.6622
  915MOL0     H23474   2.327   5.006   1.214 -0.2385  1.6222 -1.9267
  915MOL0     H23475   2.257   5.165   1.244 -0.1755  1.5626  1.7851
  915MOL0     H23476   2.635   5.019   1.338  0.1550 -0.3399 -1.6916
  915MOL0     H23477   2.893   5.220   1.265 -0.8256 -3.5010 -0.2962
  915MOL0     H23478   2.834   5.360   1.351  3.5152 -1.0428 -0.1677
  915MOL0     H23479   2.842   5.081   1.464 -0.9342 -0.8421  3.2896
  915MOL0     H23480   2.954   5.221   1.505  1.6193 -0.4519 -1.9739
  915MOL0     H23481   2.650   5.231   1.565  0.0819 -0.1755  1.2746
  915MOL0     H23482   2.787   5.343   1.601  0.5371 -0.3542 -2.2361
  915MOL0     H23483   2.732   5.233   1.794  2.1602  2.8169 -1.4143
  915MOL0     H23484   2.881   5.163   1.744  0.2171  1.8000  0.1590
  915MOL0     H23485   2.536   4.828   1.746  1.8900 -1.0519  1.0794
  915MOL0     H23486   2.395   4.789   1.940 -2.4292  1.7241 -1.4086
  915MOL0     H23487   2.368   4.557   2.353 -0.9541 -2.4596  1.5783
  915MOL0     H23488   2.254   4.510   2.567  0.5563  0.6585 -1.0139
  915MOL0     H23489   2.067   4.468   2.692 -3.3274  1.2038 -1.0894
  915MOL0     H23490   2.171   4.581   2.788 -0.8953  0.0241  1.5693
  915MOL0     H23491   1.968   4.674   2.887 -3.3417 -0.2501 -0.8266
  915MOL0     H23492   1.871   4.544   2.838  0.2169  0.3463  1.4318
  915MOL0     H23493   2.017   4.382   2.950 -3.0913  0.9948 -0.4541
  915MOL0     H23494   2.134   4.518   3.001  0.4303  2.4934  1.3005
  915MOL0     H23495   1.841   4.497   3.094 -0.7380  0.3499  4.3913
  915MOL0     H23496   1.968   4.609   3.138 -1.7111  0.2278 -0.1550
  915MOL0     H23497   2.094   4.387   3.199 -0.2170  2.5954 -3.3640
  915MOL0     H23498   1.923   4.321   3.215 -1.0122 -0.2356 -2.8382
  915MOL0     H23499   2.018   4.571   3.365 -1.9870  0.3264  1.0276
  915MOL0     H23500   1.859   4.496   3.354 -0.0037  0.9195 -0.1934
  915MOL0     H23501   2.098   4.404   3.503  0.1985  0.6960 -0.4640
  915MOL0     H23502   1.973   4.285   3.466 -0.4600 -0.5777  1.3965
  915MOL0     H23503   1.818   4.363   3.608  0.2314  0.1257  1.9349
  915MOL0     H23504   1.960   4.412   3.701  1.2305 -0.0780 -0.6777
  915MOL0     H23505   2.005   4.845   2.493 -0.6456 -0.2452 -1.0303
  915MOL0     H23506   2.124   4.900   2.273  1.4655  1.1192  1.0753
  915MOL0     H23507   2.582   5.107   2.142  1.9045  1.6580 -2.1222
  915MOL0     H23508   2.725   5.144   1.968 -0.4425 -0.0895  0.9928
  915MOL0     H23509   1.843   4.484   1.255 -0.2898  0.9836  2.6851
  915MOL0     H23510   1.610   4.431   1.171  1.3987 -0.8249 -2.4721
  915MOL0     H23511   1.380   4.464   1.365  1.1011 -1.0383 -1.9220
  915MOL0     H23512   1.199   4.620   1.393 -2.4957 -3.8228  2.0769
  915MOL0     H23513   0.845   4.532   1.183 -2.5043  0.7318 -1.3492
  915MOL0     H23514   0.835   4.697   1.118  0.7458 -1.2167 -2.1859
  915MOL0     H23515   0.672   4.610   1.317 -2.4375  2.2942  1.1513
  915MOL0     H23516   0.732   4.771   1.326 -3.9014 -2.0454  1.3116
  915MOL0     H23517   0.917   4.692   1.472  1.0408 -0.1838 -1.8577
  915MOL0     H23518   0.855   4.526   1.468  0.1886  0.3007 -2.1257
  915MOL0     H23519   0.793   4.692   1.665  1.3266  0.4030 -2.0835
  915MOL0     H23520   0.680   4.761   1.548  0.8429  0.7817 -0.8141
  915MOL0     H23521   0.474   4.412   1.577 -1.5706  0.5315 -0.2080
  915MOL0     H23522   1.024   4.495   1.022  2.0163  0.5925 -0.5093
  915MOL0     H23523   1.192   4.302   0.885  3.5233  0.0536  1.7966
  915MOL0     H23524   1.205   4.178   1.001  0.5576  0.6019  0.3555
  915MOL0     H23525   1.047   4.274   0.972 -1.2453  4.8871  2.0371
  916MOL0     O23526   2.721   7.180   9.122 -0.6117  0.2781  0.4368
  916MOL0     C23527   2.725   7.249   9.019 -0.8036  0.2155  0.2260
  916MOL0     O23528   2.628   7.308   8.958 -0.6971  0.6059 -0.2111
  916MOL0     C23529   2.499   7.316   9.011 -0.6864  0.0289 -0.2496
  916MOL0     C23530   2.385   7.269   8.942  0.7824  0.0557  0.5861
  916MOL0     C23531   2.255   7.298   8.989 -0.4806  0.7376 -0.8373
  916MOL0     C23532   2.235   7.343   9.121 -0.1954  0.1425  0.5112
  916MOL0     O23533   2.124   7.339   9.193 -0.0388  0.5157  0.2881
  916MOL0     C23534   2.002   7.306   9.131  0.1242  0.0547 -0.1164
  916MOL0     C23535   1.888   7.322   9.220 -0.2680 -0.3832 -0.7056
  916MOL0     C23536   1.905   7.222   9.336  0.3511  0.3463  0.6210
  916MOL0     C23537   1.797   7.235   9.451 -0.1250 -0.1734  0.6634
  916MOL0     C23538   1.828   7.353   9.549 -0.3208  0.4358 -0.4886
  916MOL0     C23539   1.750   7.353   9.678  0.2995  0.3456 -0.0066
  916MOL0     C23540   1.819   7.419   9.794  0.0065  0.1684  0.2524
  916MOL0     C23541   1.830   7.578   9.790 -0.3191  0.2115  0.2441
  916MOL0     N23542   1.716   7.647   9.856 -0.3578  0.6164 -0.2429
  916MOL0     C23543   1.709   7.722   9.968  0.4027  0.8949  0.3047
  916MOL0     C23544   1.599   7.791   9.959  0.5840 -0.4244  0.2499
  916MOL0     C23545   1.561   7.890  10.067 -0.4980 -0.1749  0.0913
  916MOL0     C23546   1.461   7.993  10.015 -1.5144  0.0809 -0.3126
  916MOL0     C23547   1.317   7.931  10.016  0.4957  0.1177 -0.3519
  916MOL0     C23548   1.222   8.026   9.935  0.0512  0.0288 -0.6559
  916MOL0     O23549   1.245   8.170   9.963  0.7941 -0.0419  0.6831
  916MOL0     C23550   1.188   8.253   9.872  0.2686  0.0382 -0.6786
  916MOL0     C23551   1.064   8.244   9.810 -0.3477 -0.5420  0.0650
  916MOL0     C23552   1.018   8.336   9.719  0.5209  0.2549  0.6847
  916MOL0     C23553   1.104   8.428   9.664 -0.6855 -0.5177  0.3892
  916MOL0     C23554   1.068   8.521   9.559  0.3910 -0.4153  0.0158
  916MOL0     O23555   1.165   8.545   9.469  0.0147  0.6029 -0.8333
  916MOL0     C23556   1.153   8.625   9.358  0.0830  0.7818 -0.2301
  916MOL0     C23557   1.098   8.756   9.351  0.0710 -0.0396 -0.5826
  916MOL0     C23558   1.105   8.840   9.241 -0.3354  0.3707 -0.3351
  916MOL0     C23559   1.160   8.793   9.129  0.2082 -0.3620 -0.5106
  916MOL0     O23560   1.160   8.875   9.014 -0.2376 -0.0452  0.1347
  916MOL0     C23561   1.061   8.849   8.908 -0.2510  0.2372 -0.6348
  916MOL0     C23562   1.100   8.741   8.802  0.0153 -0.0607  0.4963
  916MOL0     C23563   1.217   8.791   8.708  0.3588 -1.0194 -1.1815
  916MOL0     C23564   1.263   8.677   8.622  0.7243  0.1916  0.0318
  916MOL0     C23565   1.346   8.714   8.490 -0.8497 -0.0778 -0.2353
  916MOL0     C23566   1.311   8.607   8.386  0.0698 -0.4155  0.1815
  916MOL0     C23567   1.390   8.618   8.259 -0.8611  0.4215 -0.7355
  916MOL0     C23568   1.351   8.731   8.170 -0.4593 -0.3905  0.1818
  916MOL0    Cl23569   1.489   8.773   8.058  0.5937 -0.4087 -0.1553
  916MOL0     C23570   1.221   8.670   9.132  0.0268  0.9896  0.8429
  916MOL0     C23571   1.221   8.587   9.247 -0.5014 -0.2264 -0.8633
  916MOL0     O23572   0.947   8.543   9.538 -0.9637  0.0411  0.6651
  916MOL0     C23573   1.233   8.436   9.723  0.8279  0.0210  0.2312
  916MOL0     C23574   1.277   8.346   9.825  0.2550 -0.8847  0.6388
  916MOL0     N23575   1.527   7.761   9.840 -0.5150  0.7170 -0.6005
  916MOL0     N23576   1.608   7.682   9.779  0.4220  0.2722 -0.2116
  916MOL0     C23577   2.347   7.390   9.191  0.0796  0.2664 -0.3765
  916MOL0     C23578   2.479   7.375   9.134  0.1471 -0.2206  0.0430
  916MOL0     C23579   2.857   7.253   8.958 -0.4927 -0.3917 -0.6227
  916MOL0     C23580   2.963   7.170   9.004 -0.5262 -0.0273 -0.1031
  916MOL0     C23581   3.097   7.175   8.956 -0.0605 -0.1672  0.5360
  916MOL0     C23582   3.121   7.274   8.859 -0.0120  0.8599 -1.1606
  916MOL0     O23583   3.242   7.304   8.811  0.4053  0.3074 -0.2856
  916MOL0     C23584   3.349   7.214   8.835 -0.5803 -0.3850  1.5759
  916MOL0     C23585   3.484   7.260   8.786 -0.5631 -0.1759 -0.6916
  916MOL0     C23586   3.496   7.225   8.637 -0.9708  0.2811  0.1530
  916MOL0     C23587   3.641   7.253   8.588 -0.1438 -0.2496  0.1675
  916MOL0     C23588   3.733   7.141   8.618  0.4888  0.7133  0.3535
  916MOL0     C23589   3.804   7.039   8.649 -0.5100 -1.4895  0.6553
  916MOL0     C23590   3.020   7.353   8.808 -0.0900 -0.0243  0.2197
  916MOL0     C23591   2.888   7.349   8.858 -0.5095  0.2678 -0.3477
  916MOL0     C23592   2.801   7.465   8.815 -0.0468  0.6243 -0.1835
  916MOL0     H23593   2.377   7.227   8.842  0.3554  2.1370 -0.3120
  916MOL0     H23594   2.180   7.251   8.925  0.6539  0.0675 -1.7180
  916MOL0     H23595   1.983   7.383   9.056 -1.4725 -2.5485 -2.6057
  916MOL0     H23596   1.998   7.210   9.077  0.6611  1.0224 -1.9757
  916MOL0     H23597   1.799   7.297   9.162 -0.6288  1.2693 -0.9116
  916MOL0     H23598   1.886   7.424   9.259  1.2495 -0.2104 -1.0359
  916MOL0     H23599   2.000   7.245   9.384  0.3961  1.1042  0.1845
  916MOL0     H23600   1.911   7.121   9.294  0.5386  0.6470 -0.1045
  916MOL0     H23601   1.696   7.237   9.408 -0.2345  0.2333  0.9337
  916MOL0     H23602   1.814   7.149   9.515  1.5984  0.1628  0.7078
  916MOL0     H23603   1.935   7.347   9.573 -1.0618  2.0338  4.4392
  916MOL0     H23604   1.812   7.444   9.492 -0.8127 -0.5147 -1.9281
  916MOL0     H23605   1.653   7.403   9.673 -0.8463 -1.7510  0.2031
  916MOL0     H23606   1.719   7.255   9.713 -0.9566  0.6376 -0.2505
  916MOL0     H23607   1.917   7.373   9.809 -0.4857 -0.9864 -0.0074
  916MOL0     H23608   1.772   7.379   9.884  3.0591 -6.8023 -0.6451
  916MOL0     H23609   1.920   7.601   9.847  1.0063  0.3888 -1.8241
  916MOL0     H23610   1.852   7.604   9.686  3.5162  2.0644  1.3253
  916MOL0     H23611   1.786   7.734  10.043  0.4565  1.8098  0.1111
  916MOL0     H23612   1.522   7.834  10.153 -3.3386  2.0495  0.3934
  916MOL0     H23613   1.656   7.938  10.095  0.1582 -0.9691 -0.7252
  916MOL0     H23614   1.467   8.088  10.069 -0.4133  0.7358 -1.5347
  916MOL0     H23615   1.496   8.026   9.917  0.0788 -1.7557 -0.4311
  916MOL0     H23616   1.274   7.927  10.117 -0.9143 -2.0793 -0.9758
  916MOL0     H23617   1.312   7.828   9.981  0.2084  0.5902 -1.7425
  916MOL0     H23618   1.121   8.000   9.967  0.6895  0.6049  2.0131
  916MOL0     H23619   1.234   8.009   9.827 -1.3169 -2.7952 -0.4418
  916MOL0     H23620   1.005   8.162   9.848  2.1918 -1.1710  3.0139
  916MOL0     H23621   0.915   8.335   9.685  1.3154  3.6875 -2.4459
  916MOL0     H23622   1.060   8.789   9.447 -0.1174  1.2209 -1.0783
  916MOL0     H23623   1.068   8.942   9.245 -0.2023  0.4367 -0.8109
  916MOL0     H23624   0.971   8.808   8.955 -1.2671  1.7054 -1.2340
  916MOL0     H23625   1.043   8.948   8.866  1.6861  0.8294 -0.1369
  916MOL0     H23626   1.131   8.644   8.842 -1.4977 -0.9141 -0.2923
  916MOL0     H23627   1.009   8.729   8.742  0.3163 -0.1725  0.0569
  916MOL0     H23628   1.183   8.881   8.655 -0.1530  0.9251  2.1347
  916MOL0     H23629   1.303   8.814   8.771  1.9093 -3.6341 -2.2101
  916MOL0     H23630   1.185   8.607   8.590  2.1805 -0.8794 -1.2964
  916MOL0     H23631   1.326   8.612   8.683 -0.8147 -1.2955  0.1103
  916MOL0     H23632   1.448   8.702   8.527 -1.3288 -1.8366  0.5837
  916MOL0     H23633   1.330   8.820   8.465 -1.2927  0.1235  0.8717
  916MOL0     H23634   1.346   8.514   8.433 -0.1929 -1.7836 -2.1576
  916MOL0     H23635   1.203   8.608   8.370  0.0413  0.5661  0.3775
  916MOL0     H23636   1.375   8.527   8.201 -3.7003 -0.2121  0.7960
  916MOL0     H23637   1.494   8.626   8.294 -1.2182 -0.2583  0.5487
  916MOL0     H23638   1.262   8.709   8.111  0.0343  0.6913 -1.0279
  916MOL0     H23639   1.318   8.804   8.244 -2.7272 -2.5599  1.4633
  916MOL0     H23640   1.257   8.633   9.036  1.2836  1.7361  0.9970
  916MOL0     H23641   1.271   8.491   9.243 -2.2997 -1.1486 -2.6440
  916MOL0     H23642   1.312   8.497   9.682  0.2707 -0.1851 -1.2057
  916MOL0     H23643   1.371   8.338   9.878 -0.2045 -2.0106  1.3181
  916MOL0     H23644   2.336   7.433   9.289 -0.7098 -2.5120  0.8587
  916MOL0     H23645   2.576   7.405   9.170  2.6088 -5.4072 -1.3794
  916MOL0     H23646   2.933   7.112   9.090 -2.9696 -0.4623 -1.1485
  916MOL0     H23647   3.171   7.124   9.017 -1.1768 -0.0646  2.0502
  916MOL0     H23648   3.326   7.117   8.790 -1.0933  1.0709 -1.5669
  916MOL0     H23649   3.368   7.198   8.942 -3.1435 -2.6773  1.7955
  916MOL0     H23650   3.569   7.220   8.842  0.2690  1.9691 -0.3155
  916MOL0     H23651   3.492   7.369   8.793 -1.7577 -0.1926  3.2290
  916MOL0     H23652   3.420   7.279   8.581  1.8283  2.3903 -1.9637
  916MOL0     H23653   3.467   7.120   8.629 -1.6030  0.4679 -0.0106
  916MOL0     H23654   3.636   7.286   8.484  0.4597  0.0628  0.2371
  916MOL0     H23655   3.667   7.343   8.644  1.4190 -1.6429  1.8191
  916MOL0     H23656   3.868   6.956   8.672  0.8454 -0.4339  0.7556
  916MOL0     H23657   3.046   7.430   8.737  1.9330  0.1329  1.0606
  916MOL0     H23658   2.854   7.546   8.763  1.5910 -0.4875 -0.3503
  916MOL0     H23659   2.719   7.426   8.755 -0.9018 -0.3455  1.5193
  916MOL0     H23660   2.762   7.507   8.908  2.7240 -0.8786  1.8368
  917MOL0     O23661   7.034   4.646   0.419  0.4592  0.0718  0.4925
  917MOL0     C23662   7.025   4.549   0.345 -0.4359 -0.6838  0.3330
  917MOL0     O23663   7.084   4.536   0.229  0.5574 -0.3685  0.0648
  917MOL0     C23664   7.187   4.613   0.199  0.0960  0.4519  0.5186
  917MOL0     C23665   7.297   4.555   0.145  0.5384 -0.5967 -0.9590
  917MOL0     C23666   7.404   4.626   0.105 -0.1998 -0.2878 -0.0566
  917MOL0     C23667   7.412   4.766   0.113 -0.2651 -0.1346  0.3386
  917MOL0     O23668   7.526   4.830   0.081  0.4509 -1.3710  0.0003
  917MOL0     C23669   7.521   4.975   0.060 -0.0922 -0.7748  0.4371
  917MOL0     C23670   7.653   5.008  -0.014  0.7589 -0.7844 -0.1642
  917MOL0     C23671   7.661   4.960  -0.162 -0.5052  0.7812 -0.4486
  917MOL0     C23672   7.797   4.877  -0.165 -0.6933 -0.2655  0.7201
  917MOL0     C23673   7.797   4.817  -0.306  0.3873  0.0737  0.6426
  917MOL0     C23674   7.927   4.758  -0.366  0.5450 -0.7152 -0.3062
  917MOL0     C23675   7.908   4.703  -0.510 -0.5211  0.0549  0.3020
  917MOL0     C23676   8.044   4.658  -0.571  0.6506 -0.8273  0.0145
  917MOL0     N23677   8.128   4.769  -0.579 -0.3481  0.6498  0.1972
  917MOL0     C23678   8.253   4.769  -0.521  0.0584 -1.0171  0.4240
  917MOL0     C23679   8.306   4.886  -0.570  0.0771 -0.1137  0.4616
  917MOL0     C23680   8.440   4.944  -0.550 -0.1183  0.4415  0.1291
  917MOL0     C23681   8.436   5.047  -0.431  0.2869  0.2348  0.0299
  917MOL0     C23682   8.585   5.071  -0.388  0.3148  0.4236 -0.6801
  917MOL0     C23683   8.594   5.161  -0.267 -0.7534  0.0251  0.2159
  917MOL0     O23684   8.702   5.114  -0.192  0.1742 -0.8690 -0.2859
  917MOL0     C23685   8.829   5.158  -0.237 -0.6833  0.1919 -1.1294
  917MOL0     C23686   8.933   5.062  -0.237 -0.2894 -1.3255 -0.3989
  917MOL0     C23687   9.056   5.093  -0.300  0.1458 -0.0787  0.5027
  917MOL0     C23688   9.087   5.230  -0.334 -0.4612  0.7950 -0.0194
  917MOL0     C23689   9.215   5.267  -0.407 -0.3300 -0.4335 -0.1596
  917MOL0     O23690   9.223   5.400  -0.457 -0.3584  0.6843 -0.3955
  917MOL0     C23691   9.339   5.448  -0.494 -0.8636  0.4759 -0.8050
  917MOL0     C23692   9.449   5.425  -0.405  0.7011  0.1253 -0.6377
  917MOL0     C23693   9.576   5.468  -0.449  0.6517 -0.3483 -0.1307
  917MOL0     C23694   9.596   5.493  -0.583 -0.1109 -0.4114 -0.2905
  917MOL0     O23695   9.723   5.501  -0.625 -0.3841 -0.3342  0.0211
  917MOL0     C23696   9.767   5.456  -0.753  0.0712  0.1383 -0.2246
  917MOL0     C23697   9.918   5.463  -0.759  0.1715 -0.2530 -0.1403
  917MOL0     C23698   9.984   5.605  -0.743 -0.9238  0.1306  0.0534
  917MOL0     C23699  10.079   5.603  -0.621  0.4792 -0.1851 -0.4454
  917MOL0     C23700  10.146   5.735  -0.594  1.1194  0.4709 -0.5372
  917MOL0     C23701  10.050   5.839  -0.523  0.1180  0.4280  0.1964
  917MOL0     C23702   9.993   5.799  -0.381 -0.1962 -0.0853  0.9637
  917MOL0     C23703  10.104   5.772  -0.271 -0.1575 -0.0406  0.3826
  917MOL0    Cl23704  10.046   5.748  -0.103 -0.0980 -0.2672 -0.1103
  917MOL0     C23705   9.487   5.509  -0.667  0.4566 -0.1612  0.1072
  917MOL0     C23706   9.355   5.492  -0.618  0.1740  0.4732 -1.0389
  917MOL0     O23707   9.301   5.180  -0.412 -0.1416  0.6672 -0.2474
  917MOL0     C23708   8.991   5.324  -0.302  0.4569 -0.0949  0.2149
  917MOL0     C23709   8.861   5.293  -0.259 -0.6053  0.4969  0.3088
  917MOL0     N23710   8.214   4.950  -0.651  0.0129 -0.6240  0.1819
  917MOL0     N23711   8.107   4.884  -0.654  0.1327  0.8443  0.4295
  917MOL0     C23712   7.290   4.829   0.149  0.2946  0.3138  0.4174
  917MOL0     C23713   7.183   4.751   0.201 -0.3390 -1.2479 -0.1385
  917MOL0     C23714   6.926   4.443   0.374  0.3867 -0.3076 -0.0154
  917MOL0     C23715   6.871   4.373   0.264 -0.2350 -0.6187 -0.4609
  917MOL0     C23716   6.767   4.283   0.278  0.1552  0.3395 -1.2649
  917MOL0     C23717   6.726   4.246   0.407  0.7366  0.0679 -0.4671
  917MOL0     O23718   6.617   4.168   0.438  0.0397 -0.7574 -0.6326
  917MOL0     C23719   6.549   4.101   0.332 -0.0275  0.4773  0.0349
  917MOL0     C23720   6.425   4.030   0.383  0.2220 -0.1770 -1.0799
  917MOL0     C23721   6.363   3.956   0.268 -0.4966 -0.5785  0.2245
  917MOL0     C23722   6.229   3.892   0.301  0.2534 -0.1394 -0.6638
  917MOL0     C23723   6.137   4.004   0.342  0.1958  1.2483  0.0181
  917MOL0     C23724   6.067   4.105   0.361  0.2810 -0.2890 -0.2547
  917MOL0     C23725   6.794   4.297   0.517  0.2494  0.1520  0.6340
  917MOL0     C23726   6.891   4.397   0.506  0.3855 -0.2189  0.1905
  917MOL0     C23727   6.936   4.463   0.634  0.2952  0.3512 -0.6767
  917MOL0     H23728   7.301   4.447   0.135  2.4799 -0.8196  1.3262
  917MOL0     H23729   7.489   4.577   0.059 -0.2326 -0.1701 -0.2419
  917MOL0     H23730   7.431   4.987  -0.001  0.1769 -0.9825 -0.0028
  917MOL0     H23731   7.500   5.034   0.150 -2.3711 -0.9504  0.0700
  917MOL0     H23732   7.732   4.964   0.047  1.8085 -0.7988 -1.4870
  917MOL0     H23733   7.677   5.115  -0.011 -1.5676 -0.1848 -0.8774
  917MOL0     H23734   7.661   5.048  -0.227 -0.2549 -0.4311 -2.1540
  917MOL0     H23735   7.585   4.894  -0.204  2.4648 -4.7574  1.8579
  917MOL0     H23736   7.881   4.946  -0.152 -1.1177  0.3668  0.1244
  917MOL0     H23737   7.805   4.791  -0.098 -0.2190 -2.9367 -2.5115
  917MOL0     H23738   7.718   4.741  -0.307  2.9147 -2.8026  1.9872
  917MOL0     H23739   7.780   4.900  -0.375  2.9311 -0.1158 -0.3492
  917MOL0     H23740   8.012   4.825  -0.352 -1.5366  2.5031 -1.9730
  917MOL0     H23741   7.940   4.669  -0.303 -0.9193 -1.9238 -1.6019
  917MOL0     H23742   7.861   4.781  -0.570  0.3361  0.6353  0.3688
  917MOL0     H23743   7.843   4.615  -0.507 -0.8107  0.2040 -1.0171
  917MOL0     H23744   8.097   4.587  -0.507  1.2459 -0.2114  0.2158
  917MOL0     H23745   8.031   4.615  -0.671  0.1950 -0.0517 -0.2709
  917MOL0     H23746   8.304   4.693  -0.462  2.7095 -0.6584 -1.2427
  917MOL0     H23747   8.511   4.863  -0.534  0.8095  1.3721  0.8626
  917MOL0     H23748   8.475   4.991  -0.642  2.6090 -1.0455  0.3160
  917MOL0     H23749   8.383   5.139  -0.458  3.4311  2.5961  1.3122
  917MOL0     H23750   8.381   4.995  -0.353 -0.8683 -1.8719 -2.0387
  917MOL0     H23751   8.650   5.104  -0.469  2.3077 -0.9732  0.2625
  917MOL0     H23752   8.617   4.977  -0.342 -2.7532  0.0252  0.9030
  917MOL0     H23753   8.497   5.154  -0.218 -0.7427 -1.4218  0.0607
  917MOL0     H23754   8.609   5.259  -0.314 -1.8056 -2.3417 -6.0509
  917MOL0     H23755   8.923   4.957  -0.213 -3.0282 -0.9977  0.2715
  917MOL0     H23756   9.119   5.009  -0.324  3.2654  1.6813  1.8314
  917MOL0     H23757   9.434   5.406  -0.299  0.2111  1.0948 -0.5203
  917MOL0     H23758   9.661   5.467  -0.381  2.3107 -1.6633 -2.0909
  917MOL0     H23759   9.719   5.358  -0.762 -1.2481  0.8168 -0.9569
  917MOL0     H23760   9.727   5.521  -0.831 -1.1702  0.1547  0.4046
  917MOL0     H23761   9.959   5.394  -0.685  1.6368  1.0219  0.2947
  917MOL0     H23762   9.968   5.426  -0.849 -0.3159  1.1689 -1.0379
  917MOL0     H23763  10.047   5.624  -0.830 -0.4113 -2.5695 -0.2575
  917MOL0     H23764   9.908   5.683  -0.738  1.4931  2.8202 -2.2042
  917MOL0     H23765  10.157   5.527  -0.636  1.2457  0.9432 -2.5667
  917MOL0     H23766  10.020   5.566  -0.536 -0.1612  0.0718 -0.7689
  917MOL0     H23767  10.184   5.773  -0.689 -0.0568  2.2823 -0.3374
  917MOL0     H23768  10.235   5.725  -0.530  2.2781 -0.1428 -2.1862
  917MOL0     H23769  10.105   5.931  -0.503  0.7667 -0.4669  3.0086
  917MOL0     H23770   9.965   5.870  -0.584  0.7137  2.9224  0.5162
  917MOL0     H23771   9.924   5.714  -0.377  1.1696 -1.4319 -1.5011
  917MOL0     H23772   9.924   5.880  -0.354  1.7979  1.1194  2.8006
  917MOL0     H23773  10.168   5.687  -0.299 -1.3953 -1.0072  0.3963
  917MOL0     H23774  10.170   5.859  -0.274  0.3055 -0.4072 -0.3619
  917MOL0     H23775   9.490   5.539  -0.771 -0.1331  1.2393  0.4578
  917MOL0     H23776   9.278   5.511  -0.692  0.3741 -0.7517 -1.5886
  917MOL0     H23777   9.006   5.429  -0.326  1.2522 -0.1914  0.2465
  917MOL0     H23778   8.785   5.366  -0.233  0.0410  1.3277 -0.0842
  917MOL0     H23779   7.279   4.937   0.150  1.4748  0.4672 -0.8560
  917MOL0     H23780   7.093   4.799   0.237  0.5593  2.6241 -2.4196
  917MOL0     H23781   6.883   4.412   0.164  1.1876 -0.7179 -0.3451
  917MOL0     H23782   6.714   4.246   0.191  0.5585 -1.2193 -0.8843
  917MOL0     H23783   6.617   4.029   0.284 -0.6038 -0.9240  1.2353
  917MOL0     H23784   6.530   4.172   0.252  1.2256 -0.1361 -0.8459
  917MOL0     H23785   6.356   4.106   0.421  1.4865  0.4245  0.1325
  917MOL0     H23786   6.450   3.947   0.449  2.9082 -0.2599 -2.0822
  917MOL0     H23787   6.421   3.869   0.235  1.4799  0.6271  0.4244
  917MOL0     H23788   6.358   4.018   0.179  1.8408  0.5833  0.8430
  917MOL0     H23789   6.196   3.837   0.212 -1.6248 -0.3674  0.1119
  917MOL0     H23790   6.244   3.824   0.386  2.7175  0.4229 -0.5949
  917MOL0     H23791   5.995   4.183   0.368  0.0577 -0.4487 -0.6953
  917MOL0     H23792   6.753   4.265   0.612  3.3896 -1.8450  1.4867
  917MOL0     H23793   7.044   4.472   0.648  0.4152 -1.9455  0.3540
  917MOL0     H23794   6.887   4.561   0.633  0.4771  0.4403 -1.4033
  917MOL0     H23795   6.897   4.405   0.719  0.4043 -2.7696 -2.5730
  918MOL0     O23796   9.497   4.334   4.313  0.4926 -1.1129 -0.1360
  918MOL0     C23797   9.620   4.332   4.330  0.1358 -0.6437 -0.4611
  918MOL0     O23798   9.690   4.386   4.443  0.2691  0.3567  0.6609
  918MOL0     C23799   9.621   4.400   4.553 -0.2332  0.3666  0.3422
  918MOL0     C23800   9.586   4.283   4.622  0.0408  0.3161  0.1066
  918MOL0     C23801   9.511   4.290   4.740  0.5962  0.3908  0.4110
  918MOL0     C23802   9.496   4.407   4.807 -0.2619  0.3208 -0.0183
  918MOL0     O23803   9.427   4.408   4.929  0.2843  0.2324  0.0904
  918MOL0     C23804   9.314   4.485   4.921  0.2103  0.0884 -1.2376
  918MOL0     C23805   9.200   4.425   5.002 -0.0445 -0.5324  0.5616
  918MOL0     C23806   9.152   4.289   4.951  0.0123 -1.5404 -0.2095
  918MOL0     C23807   9.020   4.252   5.014  0.5550  0.5002 -0.0842
  918MOL0     C23808   8.941   4.138   4.958 -0.8227  0.9050  0.6134
  918MOL0     C23809   9.025   4.013   4.966 -0.0167  0.2280  0.4217
  918MOL0     C23810   8.931   3.895   4.921 -0.0974  0.0378  0.0844
  918MOL0     C23811   9.016   3.767   4.912  0.1832  0.2643 -0.8331
  918MOL0     N23812   9.047   3.727   5.050 -0.0771  0.7391  0.3698
  918MOL0     C23813   9.172   3.690   5.094 -0.1940 -0.1267  0.1246
  918MOL0     C23814   9.150   3.630   5.214 -0.2182 -0.4005 -0.1458
  918MOL0     C23815   9.251   3.553   5.302  0.2185 -0.1945  0.1641
  918MOL0     C23816   9.373   3.635   5.359  0.2044  0.4839 -0.7025
  918MOL0     C23817   9.326   3.767   5.414 -0.5981 -0.6862 -0.0608
  918MOL0     C23818   9.438   3.835   5.489 -0.3088 -0.3442  0.7552
  918MOL0     O23819   9.506   3.742   5.571 -0.5817 -0.1738 -0.0458
  918MOL0     C23820   9.618   3.789   5.640 -0.5742  0.6352  0.0633
  918MOL0     C23821   9.688   3.696   5.711 -0.4309 -0.2781  0.0435
  918MOL0     C23822   9.818   3.720   5.768  0.4621 -0.0525  0.3013
  918MOL0     C23823   9.883   3.849   5.755 -0.3695  0.2711  0.5933
  918MOL0     C23824  10.014   3.889   5.813  0.1836 -0.7894  0.7978
  918MOL0     O23825  10.066   4.010   5.787  0.5691  1.0883 -0.5638
  918MOL0     C23826  10.201   4.018   5.790 -0.0658 -0.7608  0.5379
  918MOL0     C23827  10.265   4.039   5.912 -0.3637 -0.2136  0.5083
  918MOL0     C23828  10.399   4.071   5.909 -0.6914 -0.3045  0.1314
  918MOL0     C23829  10.475   4.087   5.795 -0.8141 -0.8896 -0.0385
  918MOL0     O23830  10.609   4.124   5.800 -0.2037 -0.9849  0.2623
  918MOL0     C23831  10.665   4.210   5.700  0.1500  0.2098  0.1937
  918MOL0     C23832  10.808   4.252   5.738  0.8047  1.2290  0.9801
  918MOL0     C23833  10.863   4.381   5.673 -0.3651  0.2580  0.6231
  918MOL0     C23834  10.867   4.375   5.515 -1.3675  0.3094 -0.9896
  918MOL0     C23835  10.908   4.245   5.450 -0.4086 -0.2126  0.4400
  918MOL0     C23836  10.922   4.264   5.303  0.7270  0.4156 -0.6040
  918MOL0     C23837  10.908   4.129   5.225  0.2065  0.1897 -0.1980
  918MOL0     C23838  10.980   4.147   5.090 -0.0989 -0.0038 -1.1247
  918MOL0    Cl23839  11.026   4.007   5.001 -0.1133  0.3966 -0.0771
  918MOL0     C23840  10.407   4.067   5.673  0.5213 -0.6625 -1.0258
  918MOL0     C23841  10.272   4.029   5.666  0.4254 -0.2348 -0.5863
  918MOL0     O23842  10.070   3.790   5.857 -0.6498 -0.1810 -0.0692
  918MOL0     C23843   9.806   3.945   5.680  0.1269 -0.4586  0.1075
  918MOL0     C23844   9.676   3.914   5.635  0.2488 -0.7453 -0.9058
  918MOL0     N23845   9.018   3.623   5.240  0.5719 -0.4449  0.2402
  918MOL0     N23846   8.953   3.676   5.141  0.2142 -0.2529  0.2423
  918MOL0     C23847   9.538   4.522   4.737 -0.2285 -0.3082 -0.1359
  918MOL0     C23848   9.603   4.524   4.613 -0.2732  0.0720  0.6692
  918MOL0     C23849   9.708   4.297   4.210  0.4277 -0.2891 -1.1495
  918MOL0     C23850   9.840   4.363   4.196  0.6050 -0.1723  0.5524
  918MOL0     C23851   9.927   4.332   4.096  0.6582  0.5121 -0.1012
  918MOL0     C23852   9.890   4.229   4.010  0.5317  0.9497 -0.3494
  918MOL0     O23853   9.977   4.211   3.905  0.1430 -0.3861  0.0575
  918MOL0     C23854   9.934   4.150   3.788  0.3391  0.2594  0.9114
  918MOL0     C23855  10.028   4.200   3.674 -0.0364 -0.2432  0.2841
  918MOL0     C23856   9.998   4.142   3.538 -0.2460  0.6667 -0.6359
  918MOL0     C23857  10.001   4.245   3.426  0.3973  0.1875  0.1728
  918MOL0     C23858  10.141   4.286   3.394 -0.8286 -0.1695 -0.0529
  918MOL0     C23859  10.247   4.334   3.368 -0.4794  0.7312 -0.3005
  918MOL0     C23860   9.763   4.157   4.012 -0.3176  0.0984 -0.3526
  918MOL0     C23861   9.674   4.199   4.113  1.1847  0.1508  0.6528
  918MOL0     C23862   9.538   4.136   4.098  0.0713 -0.2611  0.4434
  918MOL0     H23863   9.600   4.184   4.582  1.7790 -0.4068  2.3006
  918MOL0     H23864   9.457   4.202   4.773  0.6861  1.4548  3.8768
  918MOL0     H23865   9.318   4.589   4.954 -2.9716 -0.5341  1.6797
  918MOL0     H23866   9.270   4.481   4.821  0.5322  0.4089 -1.3918
  918MOL0     H23867   9.120   4.500   5.003 -0.0484 -0.4939 -0.6275
  918MOL0     H23868   9.235   4.419   5.106  0.1684 -1.9817  0.4233
  918MOL0     H23869   9.227   4.210   4.957  0.5471 -1.3208 -2.9164
  918MOL0     H23870   9.146   4.306   4.843  0.0455 -0.9381 -0.1220
  918MOL0     H23871   9.037   4.234   5.120  0.0085 -0.5978 -0.1721
  918MOL0     H23872   8.953   4.338   5.009 -1.8473 -1.3295 -1.6125
  918MOL0     H23873   8.853   4.130   5.022 -1.5452 -1.5630 -0.5629
  918MOL0     H23874   8.928   4.169   4.853  2.2781 -0.1369 -0.2000
  918MOL0     H23875   9.120   4.016   4.912 -0.0113  0.0254  0.4200
  918MOL0     H23876   9.050   4.001   5.072  0.5012  4.5288  0.9360
  918MOL0     H23877   8.883   3.924   4.827 -2.4439 -2.4220  0.4157
  918MOL0     H23878   8.845   3.887   4.987 -0.6297 -1.4527 -0.7606
  918MOL0     H23879   8.968   3.682   4.861  2.3626  0.9362 -4.3175
  918MOL0     H23880   9.102   3.790   4.849  0.3179  2.2989  0.0107
  918MOL0     H23881   9.266   3.708   5.044  0.0534 -2.3117 -0.3009
  918MOL0     H23882   9.200   3.502   5.384  3.7767 -0.7472  2.2287
  918MOL0     H23883   9.289   3.468   5.244 -2.0574 -2.8711  2.3361
  918MOL0     H23884   9.416   3.577   5.441  0.3157  0.2830 -0.9013
  918MOL0     H23885   9.451   3.643   5.283  0.0874  1.0021 -0.7727
  918MOL0     H23886   9.238   3.749   5.476 -1.9083  1.6367 -1.1047
  918MOL0     H23887   9.298   3.832   5.331 -0.6572 -1.0548 -0.3320
  918MOL0     H23888   9.389   3.919   5.540 -0.4367  0.1169 -0.1042
  918MOL0     H23889   9.517   3.879   5.427  0.6437 -1.1093  1.4040
  918MOL0     H23890   9.637   3.603   5.732  1.7363 -1.4529  0.4266
  918MOL0     H23891   9.872   3.657   5.838  1.6851 -1.4913 -1.8429
  918MOL0     H23892  10.219   4.018   6.008 -1.7506  0.2563 -0.0352
  918MOL0     H23893  10.444   4.087   6.007 -0.0875  0.1544 -0.2108
  918MOL0     H23894  10.660   4.163   5.601 -0.0092  2.3527 -0.8775
  918MOL0     H23895  10.609   4.303   5.708  0.4384  0.3072  1.1742
  918MOL0     H23896  10.808   4.261   5.847 -0.9939 -0.1892  1.1258
  918MOL0     H23897  10.881   4.176   5.710  0.8476  2.1349 -1.6826
  918MOL0     H23898  10.812   4.471   5.709 -1.9055  0.8548 -2.6502
  918MOL0     H23899  10.964   4.393   5.714 -1.3129  0.9455  2.9468
  918MOL0     H23900  10.935   4.453   5.479  1.8343 -1.9886 -0.4146
  918MOL0     H23901  10.769   4.406   5.478 -2.3799  0.4479  1.6434
  918MOL0     H23902  10.838   4.163   5.467  1.3898 -1.5052  2.1588
  918MOL0     H23903  11.005   4.216   5.491 -0.0181 -0.9364 -0.9435
  918MOL0     H23904  10.849   4.333   5.261 -0.7317  0.3370  1.6358
  918MOL0     H23905  11.020   4.311   5.288  1.8942 -1.8136 -0.4147
  918MOL0     H23906  10.806   4.093   5.206  0.2485  0.3249 -0.7007
  918MOL0     H23907  10.955   4.050   5.284  0.2412  0.4106  0.0685
  918MOL0     H23908  10.920   4.212   5.026  0.3576  0.0342 -1.5228
  918MOL0     H23909  11.072   4.201   5.114 -1.7640  1.9592  1.3824
  918MOL0     H23910  10.468   4.089   5.586  0.2667  1.2277 -0.7699
  918MOL0     H23911  10.216   4.024   5.573 -1.6096 -0.1810  0.5861
  918MOL0     H23912   9.826   4.051   5.674  1.5231 -0.6971  0.3408
  918MOL0     H23913   9.618   4.003   5.611  1.4844  1.3090  2.8595
  918MOL0     H23914   9.535   4.619   4.785 -2.1793 -0.8164  0.9051
  918MOL0     H23915   9.639   4.618   4.574 -1.0339  1.8087  3.8012
  918MOL0     H23916   9.872   4.450   4.251  1.1706 -1.2030  1.9071
  918MOL0     H23917  10.022   4.380   4.078  0.1814  0.2197 -4.5034
  918MOL0     H23918   9.828   4.162   3.764  0.8168  0.9751 -1.0029
  918MOL0     H23919   9.951   4.042   3.787 -2.6535 -0.3093  0.3202
  918MOL0     H23920  10.136   4.198   3.696 -0.0508 -0.1299  0.3721
  918MOL0     H23921  10.018   4.309   3.678 -0.2414 -0.2433 -0.2037
  918MOL0     H23922   9.906   4.085   3.555 -1.0046  0.4657 -4.4179
  918MOL0     H23923  10.071   4.065   3.512  0.8021  2.0310 -1.8943
  918MOL0     H23924   9.959   4.195   3.339  0.5127 -0.1755  0.3229
  918MOL0     H23925   9.932   4.329   3.440 -3.5423 -2.7643  0.0290
  918MOL0     H23926  10.345   4.371   3.342 -1.0252  3.4648  1.1083
  918MOL0     H23927   9.729   4.087   3.936  2.1441 -1.0908 -0.4734
  918MOL0     H23928   9.523   4.055   4.026 -0.5768 -0.7199  1.0762
  918MOL0     H23929   9.501   4.090   4.190  0.0318  1.4486  1.3128
  918MOL0     H23930   9.473   4.219   4.069  0.5953 -0.2628 -0.7969
  919MOL0     O23931   3.461   7.887   8.776  0.2726  0.0654  0.3883
  919MOL0     C23932   3.455   7.793   8.697  1.0667 -0.8799 -0.4660
  919MOL0     O23933   3.364   7.695   8.708  0.2263 -0.8129 -0.3118
  919MOL0     C23934   3.253   7.716   8.786  0.0026  1.0144  0.3798
  919MOL0     C23935   3.212   7.620   8.892  0.3041 -0.2354  0.1151
  919MOL0     C23936   3.095   7.649   8.961 -0.3116  0.2285  0.0854
  919MOL0     C23937   3.016   7.765   8.938 -0.9319  0.2187  0.4487
  919MOL0     O23938   2.908   7.784   9.020 -0.4773  0.3645 -0.1054
  919MOL0     C23939   2.785   7.818   8.967  0.1630  0.4266 -0.2564
  919MOL0     C23940   2.676   7.808   9.070 -0.2933  0.4861  0.2499
  919MOL0     C23941   2.698   7.905   9.193 -0.5615 -0.9525 -0.4198
  919MOL0     C23942   2.582   7.902   9.295  0.1990  0.1165  0.0147
  919MOL0     C23943   2.592   8.000   9.409 -0.4201 -0.0874  0.2117
  919MOL0     C23944   2.631   8.145   9.373 -0.2233 -0.8813 -0.2268
  919MOL0     C23945   2.715   8.209   9.495  0.0104 -0.0754  0.9702
  919MOL0     C23946   2.712   8.366   9.474 -0.2389  0.4646 -0.2576
  919MOL0     N23947   2.830   8.424   9.404  0.6623  0.1889  0.2122
  919MOL0     C23948   2.960   8.415   9.439 -0.3185  0.5273 -0.0819
  919MOL0     C23949   3.023   8.504   9.358 -0.0926 -0.0098 -0.2785
  919MOL0     C23950   3.166   8.549   9.372  0.8749  0.5924 -0.0905
  919MOL0     C23951   3.268   8.456   9.293 -0.2356  0.3086  0.8714
  919MOL0     C23952   3.258   8.479   9.138 -0.3304 -0.5646 -0.0145
  919MOL0     C23953   3.317   8.364   9.069  0.8161 -0.1451  0.7521
  919MOL0     O23954   3.344   8.406   8.933 -0.7936 -0.8929  0.7065
  919MOL0     C23955   3.457   8.362   8.868 -0.7087  0.4136  0.7118
  919MOL0     C23956   3.531   8.248   8.903  0.2161  0.6048  1.1825
  919MOL0     C23957   3.645   8.211   8.828  0.3040 -0.4302  0.3021
  919MOL0     C23958   3.687   8.277   8.709  0.0134 -1.5309 -0.0627
  919MOL0     C23959   3.801   8.244   8.631 -0.1713  0.7372  0.4778
  919MOL0     O23960   3.907   8.178   8.696 -0.2743  0.1478  0.2735
  919MOL0     C23961   4.035   8.195   8.636 -0.0018 -0.0430  0.7533
  919MOL0     C23962   4.085   8.314   8.569 -0.5102  0.4682  0.7965
  919MOL0     C23963   4.216   8.322   8.507 -0.2405 -0.4104 -0.8047
  919MOL0     C23964   4.296   8.215   8.528 -0.8282  0.0729  0.5559
  919MOL0     O23965   4.414   8.225   8.455 -0.1807 -0.1272 -0.5274
  919MOL0     C23966   4.523   8.140   8.483 -0.0370 -0.9605  0.2827
  919MOL0     C23967   4.553   8.048   8.358  0.0352 -0.9233  0.0721
  919MOL0     C23968   4.549   8.124   8.227  0.9698 -0.4742 -0.6923
  919MOL0     C23969   4.576   8.027   8.123 -0.0138  0.8542  0.2715
  919MOL0     C23970   4.589   8.070   7.977  0.6137 -0.0952 -0.2607
  919MOL0     C23971   4.722   8.145   7.953 -0.0343  0.1423  0.3178
  919MOL0     C23972   4.746   8.174   7.807 -0.0035  0.1316 -0.6656
  919MOL0     C23973   4.768   8.049   7.717  0.1464 -0.1985  0.3173
  919MOL0    Cl23974   4.800   8.131   7.548  0.4348 -0.8035 -0.1512
  919MOL0     C23975   4.260   8.101   8.597  0.3289 -0.1539 -0.1851
  919MOL0     C23976   4.130   8.092   8.647  0.2124 -0.1305 -0.9878
  919MOL0     O23977   3.806   8.294   8.519 -0.5524  0.1264  0.0025
  919MOL0     C23978   3.605   8.388   8.677 -0.8856  0.9436 -0.3869
  919MOL0     C23979   3.501   8.434   8.761  0.4979  0.2143  0.3143
  919MOL0     N23980   2.931   8.569   9.283 -0.1268  0.0170 -1.0124
  919MOL0     N23981   2.812   8.508   9.303 -0.7152 -0.1888 -0.5542
  919MOL0     C23982   3.061   7.853   8.836  0.5537  0.2559 -0.3090
  919MOL0     C23983   3.173   7.825   8.756  0.0130 -0.1625 -0.1998
  919MOL0     C23984   3.562   7.779   8.593 -0.7977 -0.3092  0.4107
  919MOL0     C23985   3.655   7.891   8.590 -0.2745  0.0898 -0.1689
  919MOL0     C23986   3.777   7.897   8.505 -0.1222  0.9679  0.4204
  919MOL0     C23987   3.784   7.796   8.404 -0.2015 -0.0468  0.1680
  919MOL0     O23988   3.888   7.771   8.318 -0.0737 -0.3784  0.5478
  919MOL0     C23989   4.024   7.817   8.357 -0.3314  0.2945  0.8064
  919MOL0     C23990   4.074   7.911   8.245  0.2062 -0.2868  0.1478
  919MOL0     C23991   3.965   8.018   8.214 -0.2992 -1.2953  0.9365
  919MOL0     C23992   4.023   8.127   8.118 -0.0566  0.3141  0.3772
  919MOL0     C23993   4.016   8.081   7.978 -0.2616 -0.7681 -0.4388
  919MOL0     C23994   4.008   8.029   7.867  0.6853 -0.2615 -0.4738
  919MOL0     C23995   3.696   7.690   8.415  0.0097  0.2242  0.3244
  919MOL0     C23996   3.579   7.676   8.496 -0.7292 -0.5149 -0.1464
  919MOL0     C23997   3.488   7.559   8.491 -0.0178 -0.2126  1.1124
  919MOL0     H23998   3.256   7.523   8.914 -3.2234 -3.0808 -3.6788
  919MOL0     H23999   3.069   7.594   9.051 -1.3957  3.1182  1.6791
  919MOL0     H24000   2.808   7.919   8.931 -1.4725  0.9618  0.0919
  919MOL0     H24001   2.749   7.751   8.888 -1.9099  0.1115  0.8800
  919MOL0     H24002   2.679   7.704   9.104  0.0381  0.5820  0.5136
  919MOL0     H24003   2.574   7.824   9.032  0.4422  1.0385 -1.6181
  919MOL0     H24004   2.695   8.001   9.142 -1.4613  1.2653  3.4616
  919MOL0     H24005   2.797   7.901   9.239 -1.6495 -1.2678  2.0642
  919MOL0     H24006   2.494   7.931   9.238  1.8955 -1.6853 -3.9361
  919MOL0     H24007   2.564   7.801   9.333  2.0534  0.4268  1.9493
  919MOL0     H24008   2.497   8.001   9.464 -0.8423 -1.7883 -0.4260
  919MOL0     H24009   2.673   7.961   9.471 -0.5893  2.7379  2.4297
  919MOL0     H24010   2.692   8.158   9.283 -0.4773  0.7670 -0.2030
  919MOL0     H24011   2.539   8.195   9.341  0.1804 -0.2139 -0.3810
  919MOL0     H24012   2.818   8.174   9.487 -0.1608 -0.2638 -0.7387
  919MOL0     H24013   2.680   8.178   9.594  0.1298  1.5814  1.5618
  919MOL0     H24014   2.623   8.377   9.412 -0.8926 -0.1867  0.5444
  919MOL0     H24015   2.693   8.405   9.575  0.9189 -1.6961  0.8858
  919MOL0     H24016   3.011   8.364   9.521  2.6182 -0.2189 -2.2206
  919MOL0     H24017   3.168   8.651   9.333  1.0997  1.3834  1.8410
  919MOL0     H24018   3.203   8.569   9.473 -2.1098 -0.0295  1.2470
  919MOL0     H24019   3.369   8.470   9.332 -0.2726  1.3648  0.6179
  919MOL0     H24020   3.236   8.353   9.311  0.7139 -0.3035 -0.7049
  919MOL0     H24021   3.311   8.574   9.125  0.0501 -0.8754 -0.8470
  919MOL0     H24022   3.155   8.498   9.104  0.3666 -0.3501 -2.1448
  919MOL0     H24023   3.239   8.288   9.066 -0.4690  1.0022  2.7344
  919MOL0     H24024   3.406   8.326   9.119  2.8003  2.6036 -0.4269
  919MOL0     H24025   3.493   8.180   8.978  1.6387 -1.7375 -0.0915
  919MOL0     H24026   3.696   8.123   8.866 -1.1983 -0.1576  3.1983
  919MOL0     H24027   4.021   8.402   8.564 -0.0769  0.7069 -2.6831
  919MOL0     H24028   4.238   8.416   8.456 -1.4164 -0.0954 -0.7483
  919MOL0     H24029   4.607   8.209   8.495 -0.0243 -1.2965  2.6438
  919MOL0     H24030   4.519   8.087   8.578  0.7249  2.1535  2.1858
  919MOL0     H24031   4.649   7.999   8.375 -0.0840 -0.4785  2.3296
  919MOL0     H24032   4.478   7.970   8.340 -0.8833  0.4091 -2.3896
  919MOL0     H24033   4.454   8.176   8.214  1.5733  1.1087  0.9175
  919MOL0     H24034   4.629   8.198   8.238  0.6290 -0.1461 -0.4072
  919MOL0     H24035   4.510   7.940   8.125 -1.8951  2.1187 -2.2550
  919MOL0     H24036   4.668   7.980   8.161 -1.0198  0.0634  1.8558
  919MOL0     H24037   4.501   8.125   7.941  0.4094  0.6305  1.2891
  919MOL0     H24038   4.581   7.989   7.903 -1.6815  0.2535 -0.4571
  919MOL0     H24039   4.741   8.233   8.015 -0.1508 -0.6835  1.5624
  919MOL0     H24040   4.802   8.074   7.975 -0.9081 -2.1706 -3.0383
  919MOL0     H24041   4.837   8.236   7.809  1.6271 -2.1238 -1.1071
  919MOL0     H24042   4.664   8.238   7.773  1.3724  2.4714  0.2032
  919MOL0     H24043   4.854   7.990   7.750  2.5439  1.2782 -2.6914
  919MOL0     H24044   4.680   7.985   7.709  1.3880 -1.7665 -2.0628
  919MOL0     H24045   4.337   8.026   8.607  0.2961 -0.5185 -2.2514
  919MOL0     H24046   4.096   8.004   8.701  2.2551 -0.2545  0.1857
  919MOL0     H24047   3.636   8.453   8.595 -2.1479  1.2959 -0.6096
  919MOL0     H24048   3.447   8.526   8.741 -2.8779 -1.6049  0.2084
  919MOL0     H24049   3.010   7.945   8.808  0.5010  0.0456 -0.9184
  919MOL0     H24050   3.211   7.891   8.679 -0.3850 -2.0003 -2.0663
  919MOL0     H24051   3.626   7.970   8.659 -4.1647 -0.4168 -0.9995
  919MOL0     H24052   3.852   7.974   8.517  3.0439 -1.9481  0.8882
  919MOL0     H24053   4.081   7.724   8.358 -1.9000 -0.8910 -2.6123
  919MOL0     H24054   4.030   7.867   8.455  2.8714  1.2980  0.2036
  919MOL0     H24055   4.087   7.843   8.160 -1.7959 -1.0194  0.3786
  919MOL0     H24056   4.173   7.951   8.269 -0.9690  2.5375  0.6114
  919MOL0     H24057   3.931   8.056   8.311  1.6300 -0.8416  1.4848
  919MOL0     H24058   3.877   7.977   8.165 -0.1671  1.2452 -1.7352
  919MOL0     H24059   3.964   8.218   8.136 -0.3890 -0.3565  3.1663
  919MOL0     H24060   4.128   8.130   8.146  0.7884 -2.2400 -2.0825
  919MOL0     H24061   3.989   7.979   7.774  1.8868  0.2444 -1.0217
  919MOL0     H24062   3.722   7.602   8.356 -0.3843  0.2637  0.0850
  919MOL0     H24063   3.522   7.495   8.409  1.7312 -1.0666  2.4413
  919MOL0     H24064   3.479   7.496   8.580 -1.8534 -0.2814  0.9315
  919MOL0     H24065   3.386   7.596   8.478  0.2193  0.7068  1.8379
  920MOL0     O24066   2.217  11.153   9.273  0.2101 -0.1906  1.1361
  920MOL0     C24067   2.180  11.192   9.161  2.0315  0.5297  0.9561
  920MOL0     O24068   2.142  11.119   9.049 -0.2576  0.0802 -0.2005
  920MOL0     C24069   2.161  10.984   9.055  0.0030 -0.1403 -0.6474
  920MOL0     C24070   2.288  10.935   9.066 -0.0021  0.7703  0.1150
  920MOL0     C24071   2.309  10.792   9.069 -0.8753 -0.1360  0.2404
  920MOL0     C24072   2.198  10.706   9.057 -0.2479  0.3067 -0.9603
  920MOL0     O24073   2.207  10.568   9.061  0.6631  0.0255  0.0274
  920MOL0     C24074   2.309  10.500   9.130 -0.1950 -0.5359  0.2705
  920MOL0     C24075   2.271  10.349   9.142 -0.3663  0.2789 -0.0467
  920MOL0     C24076   2.356  10.278   9.238 -0.9885  0.5524 -0.2986
  920MOL0     C24077   2.318  10.123   9.251 -0.1501 -0.3433  0.0672
  920MOL0     C24078   2.439  10.030   9.307 -0.4079 -0.2698 -0.4268
  920MOL0     C24079   2.398   9.889   9.325 -0.6331  0.2121  0.3974
  920MOL0     C24080   2.302   9.862   9.444  0.2849 -0.0225 -0.7258
  920MOL0     C24081   2.196   9.751   9.418  0.4078 -0.5765 -1.0886
  920MOL0     N24082   2.238   9.615   9.436 -0.2028 -0.6744  0.0376
  920MOL0     C24083   2.358   9.562   9.406 -0.4690  0.2617  0.0753
  920MOL0     C24084   2.349   9.435   9.448 -0.4200 -0.4497 -0.3467
  920MOL0     C24085   2.443   9.325   9.427  1.0401  0.0862 -0.0607
  920MOL0     C24086   2.392   9.239   9.309 -0.2913 -0.4545 -0.0068
  920MOL0     C24087   2.490   9.134   9.246  0.6132 -0.2239  0.0232
  920MOL0     C24088   2.530   9.030   9.345  0.0592  0.7356 -0.4762
  920MOL0     O24089   2.594   9.092   9.455  0.4273  0.1649 -0.0583
  920MOL0     C24090   2.721   9.143   9.443  0.8453  0.2794 -0.7308
  920MOL0     C24091   2.783   9.179   9.566 -1.3364  0.2140  0.6743
  920MOL0     C24092   2.914   9.216   9.563  0.0891  0.0170 -0.2843
  920MOL0     C24093   2.999   9.188   9.448  0.0044 -0.0304 -0.4317
  920MOL0     C24094   3.143   9.213   9.459 -0.9790 -0.1605 -0.2145
  920MOL0     O24095   3.201   9.209   9.584 -0.2237  0.0997 -0.3733
  920MOL0     C24096   3.323   9.257   9.623 -0.6195  0.1766  0.2254
  920MOL0     C24097   3.437   9.269   9.534 -0.3171  0.0046  0.3962
  920MOL0     C24098   3.554   9.303   9.583 -1.0409 -0.3763  0.9544
  920MOL0     C24099   3.581   9.316   9.722  0.2172 -1.1825 -0.5718
  920MOL0     O24100   3.704   9.353   9.767  0.0830  0.1353 -1.0312
  920MOL0     C24101   3.822   9.305   9.707  0.2582 -0.7419  0.8326
  920MOL0     C24102   3.908   9.240   9.815 -0.5889  0.4060  0.0972
  920MOL0     C24103   4.047   9.246   9.764  0.0146  0.3323 -0.3257
  920MOL0     C24104   4.155   9.145   9.814 -0.7928  0.7836  0.5076
  920MOL0     C24105   4.294   9.191   9.777 -0.6623 -0.1106 -0.7621
  920MOL0     C24106   4.393   9.072   9.803  0.5484  0.2884  0.0490
  920MOL0     C24107   4.398   9.013   9.940 -0.0512 -1.0462 -0.8065
  920MOL0     C24108   4.463   8.880   9.939 -0.5338 -0.1198  0.3384
  920MOL0    Cl24109   4.636   8.913   9.947 -0.3363 -0.1826 -0.7813
  920MOL0     C24110   3.468   9.318   9.805  0.7917  1.1430 -0.5801
  920MOL0     C24111   3.339   9.283   9.757 -0.0840 -0.4106  0.0896
  920MOL0     O24112   3.200   9.245   9.351 -0.3687 -0.0644 -0.1829
  920MOL0     C24113   2.933   9.144   9.330  0.4357  0.3959 -0.1760
  920MOL0     C24114   2.790   9.124   9.331 -0.1088  0.6545  0.4909
  920MOL0     N24115   2.239   9.421   9.524  0.2539  0.4887 -0.3000
  920MOL0     N24116   2.169   9.534   9.522  0.5189  0.4671  0.1731
  920MOL0     C24117   2.073  10.762   9.033 -0.8829  0.1516  0.2698
  920MOL0     C24118   2.055  10.903   9.030 -0.5303  0.3178 -1.1789
  920MOL0     C24119   2.148  11.340   9.162  0.1914  0.1783  1.2004
  920MOL0     C24120   2.253  11.432   9.162 -0.1604  0.8721 -0.1598
  920MOL0     C24121   2.226  11.564   9.169  0.7686 -0.0911 -0.7431
  920MOL0     C24122   2.097  11.618   9.176 -0.6580  0.1637 -0.1209
  920MOL0     O24123   2.082  11.748   9.179 -0.0543 -0.5583  0.1151
  920MOL0     C24124   2.026  11.790   9.300  0.0778  0.6621  0.0200
  920MOL0     C24125   2.125  11.875   9.377  0.0451 -0.2702  0.4217
  920MOL0     C24126   2.129  12.018   9.331 -0.4506  0.4205 -0.3662
  920MOL0     C24127   2.270  12.089   9.347 -0.0586  0.8688  0.1227
  920MOL0     C24128   2.318  12.067   9.486 -0.6453  0.4165  0.0347
  920MOL0     C24129   2.363  12.052   9.600  0.4441 -0.8979 -0.3178
  920MOL0     C24130   1.995  11.523   9.177  0.0371 -0.7114  0.2875
  920MOL0     C24131   2.016  11.387   9.170  0.1950 -0.5504  0.5152
  920MOL0     C24132   1.892  11.294   9.157  0.7478 -0.0529 -0.8633
  920MOL0     H24133   2.370  11.004   9.081  1.5098 -1.1994  1.5127
  920MOL0     H24134   2.409  10.752   9.079 -1.6140 -1.6016  2.5216
  920MOL0     H24135   2.400  10.500   9.070  0.2680  2.8159  0.7915
  920MOL0     H24136   2.331  10.544   9.228  0.6353 -0.9319  0.2672
  920MOL0     H24137   2.277  10.305   9.042  0.2736  2.7363 -1.1670
  920MOL0     H24138   2.167  10.344   9.174 -0.1927  1.8743  0.8470
  920MOL0     H24139   2.346  10.328   9.335 -2.7760  1.9198 -1.1279
  920MOL0     H24140   2.459  10.295   9.203 -1.5232  1.6940 -1.4025
  920MOL0     H24141   2.233  10.113   9.319 -1.7044  1.9448 -1.3917
  920MOL0     H24142   2.297  10.080   9.152  0.5478  1.8087 -1.0719
  920MOL0     H24143   2.515  10.040   9.229 -0.6435 -1.2199 -0.8001
  920MOL0     H24144   2.484  10.069   9.399 -0.5540  0.5274 -0.6840
  920MOL0     H24145   2.367   9.849   9.227  2.2860 -0.7031 -0.2678
  920MOL0     H24146   2.492   9.840   9.350  0.5272  1.7664 -0.7429
  920MOL0     H24147   2.255   9.957   9.470  1.5756  0.8610 -1.5100
  920MOL0     H24148   2.369   9.836   9.527 -1.8727  2.3978  1.9885
  920MOL0     H24149   2.113   9.767   9.487  1.7105  2.0722  0.0245
  920MOL0     H24150   2.162   9.766   9.315 -0.1450  0.1185 -0.8181
  920MOL0     H24151   2.432   9.610   9.343 -0.2409 -3.2738 -2.6746
  920MOL0     H24152   2.545   9.366   9.420  0.0909  2.8043  0.6574
  920MOL0     H24153   2.452   9.262   9.516  0.6217 -0.6664 -0.5467
  920MOL0     H24154   2.302   9.188   9.344  0.7086 -1.7588  0.7194
  920MOL0     H24155   2.354   9.310   9.234 -0.1824  1.9344  2.0561
  920MOL0     H24156   2.568   9.185   9.189 -0.1184  1.6886  0.6758
  920MOL0     H24157   2.436   9.084   9.165 -0.7087 -1.2267  1.4701
  920MOL0     H24158   2.588   8.950   9.299 -2.1668  1.6359 -5.5434
  920MOL0     H24159   2.447   8.977   9.393  1.5559 -0.5140  0.8360
  920MOL0     H24160   2.717   9.186   9.652  1.3854 -1.1960  3.0663
  920MOL0     H24161   2.958   9.263   9.650 -1.9795  0.5176  0.5511
  920MOL0     H24162   3.428   9.244   9.428  1.6359 -1.0264  0.4222
  920MOL0     H24163   3.634   9.318   9.510 -0.2166 -3.5552  1.0518
  920MOL0     H24164   3.806   9.246   9.616 -0.4556 -3.8769  2.8282
  920MOL0     H24165   3.884   9.389   9.675  1.4885 -2.0225 -0.2778
  920MOL0     H24166   3.902   9.282   9.915  0.1391 -0.0343  0.3330
  920MOL0     H24167   3.875   9.135   9.821  1.6627 -0.4645 -1.4026
  920MOL0     H24168   4.035   9.225   9.657  0.1722  1.3887 -0.5594
  920MOL0     H24169   4.086   9.346   9.786 -1.8611  0.5572  2.5483
  920MOL0     H24170   4.139   9.046   9.770 -0.1150  1.0417 -0.3556
  920MOL0     H24171   4.152   9.145   9.923 -0.5731  2.8819  0.5439
  920MOL0     H24172   4.318   9.276   9.842  3.7755 -0.5482 -1.5205
  920MOL0     H24173   4.305   9.220   9.672  0.2050  0.0797 -0.6301
  920MOL0     H24174   4.378   8.994   9.727  2.9994 -0.0445 -0.1535
  920MOL0     H24175   4.491   9.114   9.780 -1.3350  4.1770 -1.8256
  920MOL0     H24176   4.305   9.012   9.998  0.9721 -0.2277  0.9607
  920MOL0     H24177   4.463   9.086   9.989  0.5318 -1.5873 -0.7716
  920MOL0     H24178   4.430   8.828  10.029 -1.6827  0.6527  0.3895
  920MOL0     H24179   4.435   8.817   9.854  0.8964 -3.6664  2.2709
  920MOL0     H24180   3.485   9.348   9.908 -0.3115 -0.4213  0.0856
  920MOL0     H24181   3.255   9.283   9.826  0.8564 -1.8139  1.2938
  920MOL0     H24182   2.992   9.133   9.240 -1.7750  1.4744 -1.8651
  920MOL0     H24183   2.757   9.083   9.236  1.6569  2.8642 -1.1804
  920MOL0     H24184   1.989  10.696   9.013 -2.4639  2.0018  0.5082
  920MOL0     H24185   1.958  10.940   8.997 -0.8255  0.7954  0.1558
  920MOL0     H24186   2.359  11.407   9.154 -0.8084 -2.2602 -0.1922
  920MOL0     H24187   2.304  11.640   9.170 -0.8339  1.6318 -0.6748
  920MOL0     H24188   1.990  11.702   9.354 -2.1115  0.9751 -0.8258
  920MOL0     H24189   1.933  11.843   9.278 -1.3534 -1.2976  0.9462
  920MOL0     H24190   2.224  11.829   9.375 -0.2997 -1.0192 -0.3119
  920MOL0     H24191   2.095  11.869   9.482  0.3995 -0.2961  0.5219
  920MOL0     H24192   2.055  12.076   9.388 -0.8099 -1.3044  1.0222
  920MOL0     H24193   2.094  12.033   9.229 -2.5544  3.5835  0.6508
  920MOL0     H24194   2.339  12.045   9.274 -0.8542 -0.8020  0.3287
  920MOL0     H24195   2.263  12.198   9.335 -3.3376  0.9344  1.8009
  920MOL0     H24196   2.392  12.054   9.703  1.2591 -2.0983 -0.5081
  920MOL0     H24197   1.897  11.570   9.168  0.9775  1.3253  0.2454
  920MOL0     H24198   1.804  11.346   9.119  1.3015 -0.1567 -2.3264
  920MOL0     H24199   1.906  11.216   9.082 -1.8853 -1.3532 -0.1469
  920MOL0     H24200   1.864  11.257   9.257 -1.7817  0.3768 -1.3327
  921MOL0     O24201   7.309  10.344   6.177 -0.5718  0.0465 -0.1184
  921MOL0     C24202   7.316  10.297   6.288 -0.1451  0.1133 -0.0829
  921MOL0     O24203   7.212  10.300   6.388 -0.2510  0.4303 -0.2908
  921MOL0     C24204   7.088  10.320   6.339 -0.0707  0.7027 -0.7715
  921MOL0     C24205   6.992  10.385   6.420  0.5485 -0.2239 -0.9225
  921MOL0     C24206   6.860  10.391   6.371 -0.1837 -1.2830  0.3992
  921MOL0     C24207   6.819  10.338   6.248 -0.0672 -0.2995 -0.7132
  921MOL0     O24208   6.689  10.348   6.214 -0.2520 -0.0901  0.5288
  921MOL0     C24209   6.640  10.213   6.193 -0.6544  0.3602 -0.8428
  921MOL0     C24210   6.487  10.204   6.189 -0.5472 -0.3429 -0.1744
  921MOL0     C24211   6.421  10.283   6.072  0.2176  0.6659 -0.6179
  921MOL0     C24212   6.462  10.238   5.936 -0.2874  0.5594 -0.1059
  921MOL0     C24213   6.552  10.335   5.863  0.5972  0.2399  0.4398
  921MOL0     C24214   6.621  10.257   5.746 -0.0053  0.7268 -0.4812
  921MOL0     C24215   6.718  10.354   5.672 -0.0134 -0.3795 -0.8078
  921MOL0     C24216   6.853  10.357   5.741 -0.2256 -0.8332  0.3254
  921MOL0     N24217   6.947  10.404   5.636  0.1338 -0.3060  0.4534
  921MOL0     C24218   7.022  10.522   5.653 -0.2663 -0.3333  0.2912
  921MOL0     C24219   7.113  10.507   5.553 -0.2889  0.2565  0.1468
  921MOL0     C24220   7.206  10.614   5.517 -0.6797  0.0227 -0.2315
  921MOL0     C24221   7.309  10.648   5.626  0.3391 -1.0723  0.3514
  921MOL0     C24222   7.405  10.539   5.674  0.2105 -0.3154  0.9024
  921MOL0     C24223   7.487  10.574   5.793  0.7740  1.3347  0.7044
  921MOL0     O24224   7.588  10.479   5.804  0.0024  0.1478 -0.1431
  921MOL0     C24225   7.698  10.507   5.889  0.5966  0.0393  0.7047
  921MOL0     C24226   7.691  10.600   6.000  0.1112  0.3810  0.6448
  921MOL0     C24227   7.798  10.623   6.083  0.9173 -0.4019 -0.8622
  921MOL0     C24228   7.907  10.537   6.080  1.0186  1.0908 -0.5434
  921MOL0     C24229   8.012  10.543   6.175 -0.0350  0.2833  0.4545
  921MOL0     O24230   8.090  10.429   6.185 -0.0143 -0.7414 -0.1420
  921MOL0     C24231   8.223  10.434   6.226  0.5584  0.1656  0.2516
  921MOL0     C24232   8.276  10.308   6.228  0.1561  0.1304  0.2433
  921MOL0     C24233   8.402  10.284   6.262 -0.4776  0.1976  0.6455
  921MOL0     C24234   8.483  10.395   6.299 -0.7057  0.0643 -1.4166
  921MOL0     O24235   8.607  10.368   6.354  0.4198 -0.4575  0.6378
  921MOL0     C24236   8.603  10.346   6.495 -0.3287 -0.1224 -0.6803
  921MOL0     C24237   8.683  10.217   6.511 -0.1954  0.2539 -0.0401
  921MOL0     C24238   8.726  10.200   6.652 -0.2407  0.4482 -0.7938
  921MOL0     C24239   8.607  10.207   6.743  0.6640  0.2911 -0.1567
  921MOL0     C24240   8.646  10.183   6.890 -0.1914  0.0940 -0.4252
  921MOL0     C24241   8.531  10.220   6.987  0.5162 -0.3113  0.4791
  921MOL0     C24242   8.556  10.157   7.126 -0.3999  0.3732  0.2556
  921MOL0     C24243   8.505  10.016   7.149 -0.6962 -0.1248 -0.3268
  921MOL0    Cl24244   8.332   9.991   7.115  0.2370 -0.2916 -0.2925
  921MOL0     C24245   8.428  10.526   6.313 -0.2881  0.0237 -0.6474
  921MOL0     C24246   8.297  10.546   6.272 -0.2046  0.8122  0.3319
  921MOL0     O24247   8.016  10.640   6.251 -0.3354  0.5485 -0.0282
  921MOL0     C24248   7.907  10.434   5.979  0.5303 -0.0147  0.1544
  921MOL0     C24249   7.801  10.420   5.887 -0.1884  0.2142  0.1413
  921MOL0     N24250   7.095  10.392   5.472 -0.4521 -0.4599 -0.4820
  921MOL0     N24251   6.998  10.329   5.533  0.6243  0.8521  0.4399
  921MOL0     C24252   6.911  10.267   6.168 -0.8789 -0.4820  0.0364
  921MOL0     C24253   7.040  10.263   6.215  0.4314  0.1780 -0.8385
  921MOL0     C24254   7.457  10.256   6.315 -0.3565 -0.1669 -1.4568
  921MOL0     C24255   7.568  10.295   6.228  0.2396  0.4963  0.2204
  921MOL0     C24256   7.703  10.259   6.254 -0.1403  0.4535 -0.3805
  921MOL0     C24257   7.734  10.181   6.366 -0.1152  0.2843  0.0756
  921MOL0     O24258   7.870  10.126   6.383  0.6687  0.2701 -0.1127
  921MOL0     C24259   7.895  10.027   6.489  0.0312  0.2491  0.9453
  921MOL0     C24260   8.045  10.005   6.501  0.0605  0.0648  0.2838
  921MOL0     C24261   8.121  10.128   6.543 -0.6264  0.3649  0.6252
  921MOL0     C24262   8.271  10.109   6.570  0.4183  0.0971 -0.6015
  921MOL0     C24263   8.325   9.972   6.553 -0.0917  0.1641 -0.0420
  921MOL0     C24264   8.352   9.859   6.534  0.3973 -0.2975 -0.4794
  921MOL0     C24265   7.636  10.154   6.456  0.3958  0.9622 -0.1142
  921MOL0     C24266   7.503  10.193   6.439  0.1954  0.2526  0.2296
  921MOL0     C24267   7.398  10.150   6.542 -0.4497 -0.5102  0.4169
  921MOL0     H24268   7.014  10.418   6.521 -0.3608  0.2338 -0.8683
  921MOL0     H24269   6.776  10.442   6.417 -0.2237 -0.6166 -0.3891
  921MOL0     H24270   6.685  10.158   6.110 -0.4365 -1.4738  0.4388
  921MOL0     H24271   6.665  10.145   6.275 -2.7120  0.2602 -0.2538
  921MOL0     H24272   6.438  10.239   6.280 -1.7229  5.3688 -2.5765
  921MOL0     H24273   6.467  10.097   6.184  1.0564 -0.7840  1.5147
  921MOL0     H24274   6.442  10.389   6.084 -1.6261  1.1684 -1.4772
  921MOL0     H24275   6.312  10.271   6.075  0.1419  0.2866 -2.9187
  921MOL0     H24276   6.507  10.139   5.930  1.2843  1.2762 -0.9430
  921MOL0     H24277   6.369  10.243   5.879 -1.1701  1.0258  1.3417
  921MOL0     H24278   6.494  10.418   5.822  1.7028  1.1394  0.6327
  921MOL0     H24279   6.631  10.365   5.933  0.0061  2.3980  0.2472
  921MOL0     H24280   6.665  10.160   5.772 -0.1897  1.0285  1.0709
  921MOL0     H24281   6.539  10.229   5.680 -0.6612  0.0482  0.5801
  921MOL0     H24282   6.667  10.450   5.662  2.9782  1.1026 -3.3298
  921MOL0     H24283   6.715  10.316   5.570 -2.5062  1.5978 -1.5903
  921MOL0     H24284   6.835  10.428   5.823 -0.0443 -0.4901  0.0706
  921MOL0     H24285   6.890  10.258   5.766  3.2617  0.6066  1.5400
  921MOL0     H24286   7.004  10.604   5.723  5.7888  2.1507 -0.5101
  921MOL0     H24287   7.257  10.582   5.425 -1.6449  2.3463 -1.6713
  921MOL0     H24288   7.153  10.708   5.500 -0.0735  0.1262 -1.7560
  921MOL0     H24289   7.367  10.732   5.586  3.2675 -2.1187  2.0955
  921MOL0     H24290   7.253  10.687   5.712  0.6155  3.6889 -1.3011
  921MOL0     H24291   7.467  10.489   5.599  1.4130 -1.3635  2.5072
  921MOL0     H24292   7.348  10.450   5.704 -1.6323 -1.2785 -4.3760
  921MOL0     H24293   7.435  10.581   5.888  1.0139 -1.6603  1.1439
  921MOL0     H24294   7.538  10.670   5.775  1.7714  0.4882 -1.3822
  921MOL0     H24295   7.604  10.664   6.016 -0.4080  0.6099 -2.5299
  921MOL0     H24296   7.782  10.698   6.159  3.6012 -1.8844  1.3515
  921MOL0     H24297   8.217  10.226   6.188  1.7949  0.5115 -3.3876
  921MOL0     H24298   8.424  10.181   6.239 -4.0973 -0.5448 -0.1439
  921MOL0     H24299   8.656  10.422   6.552 -1.3719 -0.9302  1.4708
  921MOL0     H24300   8.501  10.332   6.533 -1.6018  2.6521 -2.6863
  921MOL0     H24301   8.617  10.133   6.487  2.0995 -1.9545  0.9908
  921MOL0     H24302   8.770  10.223   6.445  0.8069 -1.2971  1.0790
  921MOL0     H24303   8.759  10.096   6.660 -2.1400 -0.0889  0.7463
  921MOL0     H24304   8.817  10.254   6.682 -0.2700  0.9572 -1.5794
  921MOL0     H24305   8.532  10.131   6.718  1.0157 -0.2137  0.2906
  921MOL0     H24306   8.563  10.306   6.756 -0.1118 -0.2116  1.2501
  921MOL0     H24307   8.734  10.245   6.906 -0.2879  0.5734 -1.5902
  921MOL0     H24308   8.670  10.080   6.919 -0.2874  0.2785  0.3350
  921MOL0     H24309   8.511  10.328   6.994  0.4441 -0.3987  2.0236
  921MOL0     H24310   8.436  10.175   6.958  0.4108 -1.0933  1.9190
  921MOL0     H24311   8.504  10.221   7.197 -1.3094  0.0823 -0.1295
  921MOL0     H24312   8.663  10.172   7.143 -1.0836  3.0834  2.9298
  921MOL0     H24313   8.558   9.944   7.086 -1.9847 -1.0218 -0.4193
  921MOL0     H24314   8.540   9.982   7.247  2.2843 -1.5418 -1.7389
  921MOL0     H24315   8.492  10.604   6.352 -0.1120 -1.0366  1.3258
  921MOL0     H24316   8.261  10.648   6.266 -3.2755 -0.2391 -1.4356
  921MOL0     H24317   7.993  10.368   5.978  0.6723 -0.1915  4.5355
  921MOL0     H24318   7.806  10.354   5.801 -0.7666  0.4246 -0.0609
  921MOL0     H24319   6.888  10.219   6.073 -1.7130  2.2872 -1.2788
  921MOL0     H24320   7.112  10.199   6.166 -1.9228 -2.3722 -1.1989
  921MOL0     H24321   7.558  10.361   6.141 -0.2037  0.9858  0.6348
  921MOL0     H24322   7.785  10.303   6.199  1.3243  0.2860  1.5549
  921MOL0     H24323   7.843   9.932   6.476 -0.0459  0.3753  0.3092
  921MOL0     H24324   7.856  10.060   6.586  0.4876  0.9674  0.8933
  921MOL0     H24325   8.072   9.967   6.402 -0.8881  1.1562 -0.4174
  921MOL0     H24326   8.064   9.923   6.571 -1.1516 -1.3314 -0.9545
  921MOL0     H24327   8.078  10.177   6.630  1.3720  0.9037  1.3742
  921MOL0     H24328   8.114  10.201   6.461  3.3865  0.2453 -0.0505
  921MOL0     H24329   8.328  10.170   6.500  0.4483  0.6306 -0.1226
  921MOL0     H24330   8.294  10.132   6.675 -0.7726 -2.1433  0.2209
  921MOL0     H24331   8.384   9.761   6.506  1.3686 -0.5157  1.2629
  921MOL0     H24332   7.651  10.083   6.536 -0.6126 -1.5022 -1.9897
  921MOL0     H24333   7.309  10.102   6.499  0.3514  0.6729 -2.8808
  921MOL0     H24334   7.432  10.081   6.620 -1.0969 -0.1211  1.0606
  921MOL0     H24335   7.358  10.236   6.597  1.4459  1.0175 -0.4924
  922MOL0     O24336   2.478   0.786   6.871 -0.2838  0.0755 -0.0786
  922MOL0     C24337   2.503   0.876   6.796  0.4184  0.1898 -0.3909
  922MOL0     O24338   2.619   0.946   6.794  0.1381  0.3001  0.2845
  922MOL0     C24339   2.735   0.903   6.860 -0.2729 -0.7360 -0.5867
  922MOL0     C24340   2.832   1.001   6.893  0.4972 -0.4433 -0.0233
  922MOL0     C24341   2.951   0.965   6.952 -0.7648 -0.1860 -0.0274
  922MOL0     C24342   2.977   0.833   6.978 -0.1895  0.4023  0.0034
  922MOL0     O24343   3.099   0.801   7.033  0.1700  0.4800  0.0019
  922MOL0     C24344   3.133   0.669   7.062  0.3023  0.6437 -0.1035
  922MOL0     C24345   3.260   0.666   7.132  0.6906 -0.1267  0.1912
  922MOL0     C24346   3.283   0.549   7.223 -0.7682  0.8955 -0.6407
  922MOL0     C24347   3.433   0.546   7.288 -0.1479 -0.5632  0.2377
  922MOL0     C24348   3.463   0.434   7.389 -0.4381  0.7482  0.3134
  922MOL0     C24349   3.576   0.481   7.490 -0.2901  0.3102 -0.2253
  922MOL0     C24350   3.712   0.518   7.433  0.2711  0.2268 -0.7380
  922MOL0     C24351   3.818   0.567   7.536  0.6154 -0.1100  0.4095
  922MOL0     N24352   3.894   0.462   7.602  0.7598  0.6373  0.5113
  922MOL0     C24353   3.848   0.347   7.655 -0.3151 -0.4953  0.2634
  922MOL0     C24354   3.966   0.285   7.693 -0.2855  0.6162 -1.2711
  922MOL0     C24355   3.975   0.136   7.733  0.2617 -0.4385 -0.1361
  922MOL0     C24356   4.029   0.127   7.880  0.5970 -0.4087 -0.2632
  922MOL0     C24357   4.181   0.161   7.879 -0.5912 -0.0781  0.2691
  922MOL0     C24358   4.241   0.098   8.003  0.4215 -0.1230 -0.2704
  922MOL0     O24359   4.253  -0.045   7.987 -0.4352  0.0334  0.6731
  922MOL0     C24360   4.336  -0.128   8.055  0.2628  0.4902  0.3769
  922MOL0     C24361   4.445  -0.081   8.133 -0.0059  0.2738  0.0673
  922MOL0     C24362   4.530  -0.172   8.202 -0.4782 -0.5485 -0.4323
  922MOL0     C24363   4.508  -0.311   8.185  0.0883 -0.1451 -0.5454
  922MOL0     C24364   4.586  -0.411   8.267 -0.1133  0.3977 -0.1819
  922MOL0     O24365   4.617  -0.541   8.211 -0.3295 -0.2276 -0.9373
  922MOL0     C24366   4.676  -0.637   8.287 -0.2746  1.1629 -0.5891
  922MOL0     C24367   4.618  -0.661   8.410 -0.4847  0.3312 -0.1935
  922MOL0     C24368   4.677  -0.754   8.495  0.3243 -0.9262 -0.5802
  922MOL0     C24369   4.789  -0.821   8.467 -0.0531  0.3193  0.8132
  922MOL0     O24370   4.834  -0.913   8.556 -0.0742  0.1931 -0.4559
  922MOL0     C24371   4.980  -0.948   8.572 -0.6972 -0.3751 -0.0371
  922MOL0     C24372   4.999  -1.077   8.650  0.2094 -0.1837  0.2910
  922MOL0     C24373   4.978  -1.190   8.556  0.1359 -0.4604  0.7201
  922MOL0     C24374   5.104  -1.230   8.474  0.3053 -0.9131 -0.2310
  922MOL0     C24375   5.087  -1.375   8.428  0.5428  0.1242 -0.5618
  922MOL0     C24376   4.985  -1.390   8.318  0.4446  0.0901 -0.6766
  922MOL0     C24377   4.986  -1.541   8.272 -0.0349 -0.5057 -0.5291
  922MOL0     C24378   4.885  -1.577   8.162 -0.5000 -0.1803 -0.0645
  922MOL0    Cl24379   4.876  -1.452   8.039  0.2008 -0.3892  0.3321
  922MOL0     C24380   4.849  -0.799   8.339  0.2309 -0.4876  0.1831
  922MOL0     C24381   4.788  -0.708   8.250 -0.5177  0.4668  0.6546
  922MOL0     O24382   4.627  -0.376   8.375 -0.3806  0.5346 -0.4535
  922MOL0     C24383   4.409  -0.352   8.101 -0.2858  0.5162  0.9442
  922MOL0     C24384   4.327  -0.270   8.033  0.0314  0.1278 -0.2146
  922MOL0     N24385   4.069   0.379   7.677 -0.0978 -0.1228 -0.2470
  922MOL0     N24386   4.020   0.487   7.631  0.0432  0.7446 -0.0092
  922MOL0     C24387   2.888   0.733   6.946  0.4385  0.4271 -0.4418
  922MOL0     C24388   2.762   0.770   6.893 -1.6232 -0.1571  0.1279
  922MOL0     C24389   2.389   0.924   6.713 -0.1666  0.6186  0.0603
  922MOL0     C24390   2.408   1.051   6.655 -0.3113  0.2252 -1.5762
  922MOL0     C24391   2.313   1.103   6.568  0.3029 -0.1593 -1.1655
  922MOL0     C24392   2.198   1.029   6.533 -0.0531 -0.5213  0.2465
  922MOL0     O24393   2.108   1.051   6.435 -0.1736  0.1335 -0.9434
  922MOL0     C24394   2.158   1.127   6.329  0.0704  0.8205 -0.5239
  922MOL0     C24395   2.073   1.111   6.202  0.5374 -0.2222  0.2465
  922MOL0     C24396   1.947   1.203   6.201 -0.1549  0.5902  0.2789
  922MOL0     C24397   1.873   1.204   6.072  0.5101  0.7341 -0.2700
  922MOL0     C24398   1.769   1.303   6.059  0.2667  0.5519 -0.1240
  922MOL0     C24399   1.694   1.399   6.059  0.4951  0.2886 -0.1207
  922MOL0     C24400   2.182   0.905   6.585  0.0418  0.8494  0.1871
  922MOL0     C24401   2.276   0.844   6.676 -0.4816  0.3178  1.1012
  922MOL0     C24402   2.247   0.705   6.720 -0.7799  0.4308 -0.1064
  922MOL0     H24403   2.815   1.102   6.857  1.7537 -0.9079 -2.1315
  922MOL0     H24404   3.027   1.039   6.978 -1.6690  0.8083 -0.1808
  922MOL0     H24405   3.061   0.620   7.128 -2.1507  2.3702 -1.3620
  922MOL0     H24406   3.138   0.618   6.965 -2.3407  0.3358 -0.1573
  922MOL0     H24407   3.264   0.753   7.198 -2.8217  2.7524 -2.9232
  922MOL0     H24408   3.345   0.669   7.063  0.6847 -0.4676  0.1670
  922MOL0     H24409   3.262   0.457   7.167  0.1868  1.6078 -2.2237
  922MOL0     H24410   3.221   0.541   7.313 -1.1450  2.0011 -0.7915
  922MOL0     H24411   3.508   0.544   7.209  0.6285 -2.4495  0.9683
  922MOL0     H24412   3.440   0.642   7.340  1.6122 -0.8490  0.5765
  922MOL0     H24413   3.375   0.416   7.453 -1.6987  3.5062 -0.5001
  922MOL0     H24414   3.494   0.343   7.337  3.5821  0.6448  2.5070
  922MOL0     H24415   3.541   0.576   7.530 -0.3775  1.5360 -2.9671
  922MOL0     H24416   3.591   0.401   7.564  1.4591 -0.5448 -1.4403
  922MOL0     H24417   3.697   0.573   7.340 -4.0961 -0.6119 -0.7383
  922MOL0     H24418   3.767   0.432   7.392 -1.0201 -2.0245  1.8938
  922MOL0     H24419   3.889   0.634   7.485 -0.5023  0.2158 -0.7937
  922MOL0     H24420   3.766   0.624   7.614  2.4446  4.2014 -1.1956
  922MOL0     H24421   3.751   0.305   7.629 -0.7808  1.4121 -1.3693
  922MOL0     H24422   3.880   0.085   7.721 -1.4596  1.8494  2.5215
  922MOL0     H24423   4.053   0.084   7.675 -1.6382 -2.9213 -0.6062
  922MOL0     H24424   3.977   0.187   7.955  0.5696 -1.5223  0.6394
  922MOL0     H24425   4.022   0.026   7.922  0.6033 -2.0147 -3.7033
  922MOL0     H24426   4.202   0.267   7.895  1.6771 -0.4660  0.1770
  922MOL0     H24427   4.240   0.136   7.790  0.4225  2.0045  0.2986
  922MOL0     H24428   4.172   0.120   8.084 -0.0567  1.4634 -1.0532
  922MOL0     H24429   4.338   0.146   8.023 -0.2575  1.9819 -1.6484
  922MOL0     H24430   4.459   0.026   8.146 -0.7777  0.6473 -1.8593
  922MOL0     H24431   4.611  -0.134   8.264  0.1898 -1.9714 -0.3742
  922MOL0     H24432   4.534  -0.607   8.452  0.5449  2.4440 -0.7007
  922MOL0     H24433   4.624  -0.744   8.589  0.3514  1.1375 -0.7345
  922MOL0     H24434   5.026  -0.959   8.474 -4.2260 -0.9850 -1.7827
  922MOL0     H24435   5.024  -0.867   8.632  0.5993 -1.4214  0.4644
  922MOL0     H24436   5.100  -1.074   8.694 -0.3863  0.1409  1.6826
  922MOL0     H24437   4.926  -1.074   8.731 -0.2672  1.5815 -0.1625
  922MOL0     H24438   4.941  -1.275   8.613 -1.3094  0.7100  1.5902
  922MOL0     H24439   4.889  -1.176   8.495  1.0070 -0.4013 -0.5858
  922MOL0     H24440   5.187  -1.226   8.545 -0.3060  0.1655  0.4643
  922MOL0     H24441   5.121  -1.154   8.397 -1.4997 -1.1452 -0.9018
  922MOL0     H24442   5.060  -1.442   8.510  0.8269  0.7666  0.0737
  922MOL0     H24443   5.176  -1.406   8.373  1.1473  1.7176 -0.5385
  922MOL0     H24444   4.893  -1.364   8.372  1.1335  0.6649  0.2410
  922MOL0     H24445   5.003  -1.323   8.234  2.9220  0.4806  0.1009
  922MOL0     H24446   4.963  -1.604   8.359 -0.0382  0.0448 -0.1215
  922MOL0     H24447   5.087  -1.564   8.238  0.7023  1.1502  0.4067
  922MOL0     H24448   4.920  -1.674   8.126  3.6294  0.2543  2.1419
  922MOL0     H24449   4.781  -1.579   8.198 -0.8812  2.5005 -0.8460
  922MOL0     H24450   4.945  -0.846   8.319  1.5620  0.3022  3.7942
  922MOL0     H24451   4.832  -0.695   8.151  1.3691 -2.4063  1.0127
  922MOL0     H24452   4.398  -0.460   8.092  1.1919  0.3086  1.3229
  922MOL0     H24453   4.257  -0.301   7.957  0.4329  0.6851 -0.8187
  922MOL0     H24454   2.908   0.626   6.957  0.0558  0.3767 -0.2377
  922MOL0     H24455   2.697   0.688   6.864 -0.8819 -1.7829  2.7005
  922MOL0     H24456   2.492   1.111   6.689 -1.0236  0.3617  0.0251
  922MOL0     H24457   2.324   1.202   6.525 -1.6414  0.8843  0.6016
  922MOL0     H24458   2.264   1.106   6.312 -0.4592 -2.4006 -0.4072
  922MOL0     H24459   2.155   1.233   6.356  0.2963  0.6795  0.0649
  922MOL0     H24460   2.036   1.010   6.181 -0.4425  0.2259 -0.2836
  922MOL0     H24461   2.133   1.146   6.118 -0.5189  1.4443  0.1456
  922MOL0     H24462   1.965   1.299   6.251  0.7615  0.2742  0.5617
  922MOL0     H24463   1.875   1.156   6.268  0.5750 -0.7046  0.1869
  922MOL0     H24464   1.949   1.211   5.993  2.1808  2.1820  1.3578
  922MOL0     H24465   1.823   1.109   6.051 -0.6387  1.0558  0.9037
  922MOL0     H24466   1.633   1.485   6.037 -0.7463 -0.4727  0.2218
  922MOL0     H24467   2.093   0.856   6.548 -0.7074  3.0102 -1.0564
  922MOL0     H24468   2.238   0.687   6.827  2.7909 -2.6634 -0.1491
  922MOL0     H24469   2.165   0.659   6.664 -0.5402 -0.2141  0.0626
  922MOL0     H24470   2.337   0.651   6.687  1.4766  1.7672  3.3776
  923MOL0     O24471   2.139   1.477   6.587 -0.8775  0.5717 -0.1738
  923MOL0     C24472   2.093   1.500   6.481  0.2801  0.0642  0.8199
  923MOL0     O24473   2.155   1.549   6.376  0.1084 -0.3775 -0.1432
  923MOL0     C24474   2.293   1.563   6.385  0.1217 -0.0839 -0.0577
  923MOL0     C24475   2.368   1.454   6.332  0.4074  0.3523 -0.4776
  923MOL0     C24476   2.504   1.447   6.351 -0.0256 -0.8811  0.0059
  923MOL0     C24477   2.573   1.542   6.425  0.7089  0.1074  0.0062
  923MOL0     O24478   2.697   1.511   6.446 -0.6618  0.1708 -0.2275
  923MOL0     C24479   2.784   1.621   6.478 -0.4100  0.1960 -0.2917
  923MOL0     C24480   2.920   1.564   6.461  0.0602  0.2635 -0.1922
  923MOL0     C24481   2.944   1.464   6.582 -0.0543 -0.1744  0.2444
  923MOL0     C24482   3.088   1.425   6.557 -0.0706  0.6050 -0.5387
  923MOL0     C24483   3.161   1.356   6.684 -0.5061  0.1138  0.0007
  923MOL0     C24484   3.315   1.364   6.664 -0.5061  0.4636  0.8717
  923MOL0     C24485   3.417   1.323   6.769  0.8224 -0.2978  0.5417
  923MOL0     C24486   3.564   1.332   6.717  0.2253  0.4515  0.1837
  923MOL0     N24487   3.671   1.286   6.804  0.0538 -0.4379 -0.4931
  923MOL0     C24488   3.663   1.229   6.928 -0.1159 -0.1564 -0.2693
  923MOL0     C24489   3.791   1.214   6.965 -0.5303  0.9149  0.0399
  923MOL0     C24490   3.844   1.159   7.100 -0.9576  0.1560  0.7463
  923MOL0     C24491   3.989   1.124   7.087  0.0735 -0.4104 -0.2635
  923MOL0     C24492   4.026   1.069   7.230 -0.2967 -0.4171 -0.0997
  923MOL0     C24493   4.176   1.062   7.256 -0.2591  0.1472  0.3415
  923MOL0     O24494   4.234   1.196   7.266  0.3760  0.3030  0.3170
  923MOL0     C24495   4.354   1.207   7.333 -0.1522 -0.5451  0.2725
  923MOL0     C24496   4.403   1.342   7.339  0.2565 -1.1371 -0.0998
  923MOL0     C24497   4.507   1.381   7.418  0.2417  0.2453 -0.1518
  923MOL0     C24498   4.595   1.277   7.467  0.4372 -0.2815  0.2547
  923MOL0     C24499   4.728   1.307   7.531 -0.1094  0.6209  0.0825
  923MOL0     O24500   4.754   1.434   7.559  0.6097 -0.0115 -0.0131
  923MOL0     C24501   4.879   1.477   7.598  0.8708  0.2640  0.2679
  923MOL0     C24502   4.885   1.589   7.682 -0.4327 -0.0359 -0.2370
  923MOL0     C24503   5.010   1.646   7.715  0.0761 -0.1037  0.0427
  923MOL0     C24504   5.127   1.592   7.669  0.6469 -0.0320  0.0778
  923MOL0     O24505   5.242   1.655   7.706  0.1019 -0.3351 -0.0201
  923MOL0     C24506   5.371   1.597   7.677  0.5098 -0.6229 -0.2026
  923MOL0     C24507   5.473   1.689   7.758 -0.5280  0.4040  0.8437
  923MOL0     C24508   5.611   1.614   7.782  0.5314 -0.5245 -0.6086
  923MOL0     C24509   5.682   1.690   7.898  0.0573 -0.2643  0.1024
  923MOL0     C24510   5.821   1.623   7.915 -0.4504 -0.2613 -1.0702
  923MOL0     C24511   5.887   1.675   8.046  1.0549 -0.1805  0.6439
  923MOL0     C24512   6.041   1.657   8.044  0.5070  0.1132  1.0045
  923MOL0     C24513   6.095   1.701   8.175 -0.1086  0.5728  1.1655
  923MOL0    Cl24514   6.277   1.673   8.171 -0.0128 -0.0041 -0.2435
  923MOL0     C24515   5.119   1.486   7.584  1.3614 -0.3875 -1.0780
  923MOL0     C24516   5.000   1.426   7.546 -0.4213 -0.3613  0.1106
  923MOL0     O24517   4.797   1.213   7.567 -0.2920  0.1003 -0.5472
  923MOL0     C24518   4.562   1.147   7.445  0.1345 -1.0572  0.2090
  923MOL0     C24519   4.443   1.114   7.391 -0.0474  0.4089 -0.2121
  923MOL0     N24520   3.869   1.258   6.857 -0.5184 -0.9312 -0.0287
  923MOL0     N24521   3.796   1.304   6.765  0.6062 -0.2740 -0.5694
  923MOL0     C24522   2.496   1.656   6.468  0.5314 -0.6899 -0.4177
  923MOL0     C24523   2.357   1.665   6.456 -0.5606 -0.5102  0.3846
  923MOL0     C24524   1.948   1.468   6.462  0.6855 -0.5339 -0.5900
  923MOL0     C24525   1.901   1.340   6.495  0.6135 -0.2246  0.2451
  923MOL0     C24526   1.766   1.309   6.476  1.0082  0.6226 -0.7905
  923MOL0     C24527   1.669   1.396   6.441 -0.1696  1.1823 -0.2649
  923MOL0     O24528   1.539   1.344   6.450  0.3809 -0.0661  0.1137
  923MOL0     C24529   1.426   1.427   6.427  0.0947 -0.4224  0.1261
  923MOL0     C24530   1.297   1.343   6.428  0.4494  0.3860  0.9725
  923MOL0     C24531   1.289   1.233   6.321 -0.1892  0.8296  0.2116
  923MOL0     C24532   1.148   1.176   6.302 -0.0383  0.4630 -0.7010
  923MOL0     C24533   1.063   1.263   6.227  0.0909 -0.5971  0.5142
  923MOL0     C24534   0.992   1.341   6.174 -1.1624  0.7414  0.8590
  923MOL0     C24535   1.709   1.523   6.407  0.1254  0.1070  0.4711
  923MOL0     C24536   1.849   1.563   6.422 -0.2645  0.5530 -0.0617
  923MOL0     C24537   1.878   1.706   6.387  0.1629 -1.0158  0.3944
  923MOL0     H24538   2.326   1.361   6.295 -0.8638  1.4952 -2.0815
  923MOL0     H24539   2.566   1.364   6.318 -0.8857 -1.0263 -1.3662
  923MOL0     H24540   2.773   1.700   6.402  0.1528 -0.6839 -1.3271
  923MOL0     H24541   2.756   1.663   6.574 -0.6665  0.2784 -0.4018
  923MOL0     H24542   2.985   1.652   6.463 -0.4277  0.6199  0.4548
  923MOL0     H24543   2.915   1.524   6.359 -0.5436 -1.8840  0.6315
  923MOL0     H24544   2.879   1.376   6.579  0.1772 -0.3249 -2.4555
  923MOL0     H24545   2.927   1.515   6.677  1.0796  1.7240 -0.5044
  923MOL0     H24546   3.080   1.348   6.481  0.5790 -0.9127  0.8648
  923MOL0     H24547   3.155   1.503   6.519  2.7218 -1.1485  0.4771
  923MOL0     H24548   3.149   1.403   6.783 -0.0786  1.2675 -0.4704
  923MOL0     H24549   3.129   1.254   6.706  0.7472 -0.0659  1.1362
  923MOL0     H24550   3.332   1.313   6.569  0.8892  0.7587  0.9446
  923MOL0     H24551   3.339   1.468   6.638  0.2802  0.2344  0.6596
  923MOL0     H24552   3.392   1.223   6.806  1.0563 -1.1648 -1.4974
  923MOL0     H24553   3.408   1.395   6.850  0.8014 -1.3434  1.5004
  923MOL0     H24554   3.558   1.271   6.626  3.3741 -0.5671  0.5578
  923MOL0     H24555   3.584   1.437   6.696  1.3241  0.7587  2.4871
  923MOL0     H24556   3.582   1.217   6.999  1.5755  2.3562  2.2998
  923MOL0     H24557   3.834   1.241   7.171 -0.3413 -0.6317  1.7640
  923MOL0     H24558   3.788   1.069   7.126  1.3332 -2.4231 -2.3399
  923MOL0     H24559   3.980   1.042   7.014 -3.8257  0.5456 -1.0608
  923MOL0     H24560   4.050   1.212   7.065 -0.6838  0.3406  0.6072
  923MOL0     H24561   3.974   0.973   7.239  1.0263 -1.1586 -0.0907
  923MOL0     H24562   3.983   1.134   7.306  2.9512  2.4202 -0.4611
  923MOL0     H24563   4.222   1.000   7.178 -0.1890 -0.1235  0.6001
  923MOL0     H24564   4.208   1.006   7.344 -0.0732 -0.8826 -0.3707
  923MOL0     H24565   4.340   1.418   7.293  2.2554  0.9519  0.4335
  923MOL0     H24566   4.518   1.489   7.429 -1.0128  0.6450 -2.1836
  923MOL0     H24567   4.793   1.642   7.706  0.7955  1.3635  1.7493
  923MOL0     H24568   5.020   1.739   7.769 -1.3570  0.9046 -1.3338
  923MOL0     H24569   5.367   1.494   7.713  4.4347 -1.3552 -1.3580
  923MOL0     H24570   5.384   1.613   7.569 -1.3530  2.6325 -0.0875
  923MOL0     H24571   5.483   1.772   7.688 -1.0522 -1.9158 -2.2234
  923MOL0     H24572   5.434   1.701   7.859 -0.4433 -0.5934  1.0122
  923MOL0     H24573   5.593   1.509   7.806  0.3199 -0.2784  0.3532
  923MOL0     H24574   5.670   1.632   7.692 -0.9888  1.7248 -1.2561
  923MOL0     H24575   5.621   1.665   7.985 -1.9516 -1.9429 -1.6639
  923MOL0     H24576   5.685   1.796   7.871  1.3278 -0.2837  0.1018
  923MOL0     H24577   5.880   1.659   7.830 -1.2711  2.0474 -0.7391
  923MOL0     H24578   5.811   1.515   7.922 -3.9314  0.0433  3.7005
  923MOL0     H24579   5.860   1.781   8.060 -2.9477 -0.9754  0.2075
  923MOL0     H24580   5.841   1.624   8.132  2.8036  0.3186  1.9442
  923MOL0     H24581   6.099   1.723   7.978  3.3650  0.4781  3.6319
  923MOL0     H24582   6.073   1.555   8.024 -0.6089  0.2204 -1.8369
  923MOL0     H24583   6.071   1.807   8.176 -2.2698  0.1414 -0.1862
  923MOL0     H24584   6.048   1.659   8.264 -0.9443  2.8528  1.8658
  923MOL0     H24585   5.215   1.448   7.552  0.3867 -1.9809 -2.2700
  923MOL0     H24586   5.000   1.350   7.469  2.3186 -0.5141  0.1765
  923MOL0     H24587   4.627   1.072   7.487 -0.7925 -0.5630  2.7032
  923MOL0     H24588   4.409   1.011   7.387  1.0296 -0.1854  2.8158
  923MOL0     H24589   2.552   1.730   6.524  1.2556 -1.8154  0.3805
  923MOL0     H24590   2.307   1.731   6.527  1.5659 -0.7825  2.2455
  923MOL0     H24591   1.971   1.268   6.537 -1.6292 -0.7241  3.5648
  923MOL0     H24592   1.728   1.212   6.507 -0.0378  0.9049 -1.1529
  923MOL0     H24593   1.440   1.475   6.330 -0.3571 -3.9666 -1.8587
  923MOL0     H24594   1.428   1.507   6.502  0.0071  0.9016 -1.2155
  923MOL0     H24595   1.221   1.416   6.397  0.5085 -0.2384 -0.7617
  923MOL0     H24596   1.277   1.299   6.526 -1.3301  0.3288  0.6248
  923MOL0     H24597   1.365   1.155   6.335 -1.2184 -0.4117 -0.9762
  923MOL0     H24598   1.309   1.273   6.221 -0.4246  1.1719  0.2981
  923MOL0     H24599   1.160   1.080   6.250 -1.6617 -0.4763  0.5805
  923MOL0     H24600   1.096   1.162   6.397 -0.8599  0.0956 -1.1928
  923MOL0     H24601   0.930   1.415   6.128 -3.5559 -1.4533  0.2741
  923MOL0     H24602   1.637   1.602   6.389 -0.9945 -1.4534 -2.7902
  923MOL0     H24603   1.910   1.704   6.282 -1.1138 -1.0068 -0.0124
  923MOL0     H24604   1.785   1.761   6.407 -0.8915 -2.1665 -1.1105
  923MOL0     H24605   1.960   1.745   6.448 -1.6779  0.3620  2.1564
  924MOL0     O24606   6.282   9.816   9.760  0.5344  0.6190  1.2905
  924MOL0     C24607   6.259   9.749   9.660  1.5338  0.6008  0.5898
  924MOL0     O24608   6.343   9.678   9.589 -0.2124 -0.6811 -0.5116
  924MOL0     C24609   6.473   9.691   9.610  0.3174  0.2780 -0.0111
  924MOL0     C24610   6.548   9.573   9.633 -0.4757  0.7448 -0.1545
  924MOL0     C24611   6.685   9.577   9.666 -0.0633 -0.4640 -0.0878
  924MOL0     C24612   6.752   9.699   9.659  1.3883 -0.4409  0.0900
  924MOL0     O24613   6.887   9.702   9.676 -0.0492  0.3438 -0.4114
  924MOL0     C24614   6.971   9.773   9.579 -0.4636  0.5730 -0.3586
  924MOL0     C24615   6.952   9.721   9.430 -0.3232 -0.5022 -0.2510
  924MOL0     C24616   7.042   9.791   9.338 -1.0136 -0.2694  0.0947
  924MOL0     C24617   7.027   9.736   9.195  0.3814 -0.2657 -0.1894
  924MOL0     C24618   7.145   9.793   9.101  0.2520  0.6925 -0.7497
  924MOL0     C24619   7.108   9.786   8.945  0.1338 -0.4099  0.0348
  924MOL0     C24620   7.235   9.797   8.852  0.7599 -0.0336 -0.6249
  924MOL0     C24621   7.299   9.940   8.857  0.5333  0.3033  0.2086
  924MOL0     N24622   7.440   9.951   8.815  0.5881 -0.4061 -0.6512
  924MOL0     C24623   7.483  10.038   8.719 -0.5415  0.7036 -0.1611
  924MOL0     C24624   7.617  10.018   8.726 -0.0540 -0.0119  0.3889
  924MOL0     C24625   7.709  10.092   8.636 -0.9263 -0.8915  0.5228
  924MOL0     C24626   7.793  10.216   8.691  0.0069  0.0272  0.7247
  924MOL0     C24627   7.874  10.179   8.816  0.1194 -0.4955  0.4067
  924MOL0     C24628   7.990  10.088   8.779  0.4777  0.0113  0.6514
  924MOL0     O24629   8.047  10.118   8.653 -0.0046 -0.1738  0.4386
  924MOL0     C24630   8.125  10.225   8.633  0.2771 -0.6231 -0.2609
  924MOL0     C24631   8.223  10.258   8.723 -0.9713  0.2891  0.5544
  924MOL0     C24632   8.317  10.366   8.705  1.1035 -1.2074 -0.3405
  924MOL0     C24633   8.294  10.454   8.593  0.3706 -0.2167 -0.4358
  924MOL0     C24634   8.366  10.576   8.570 -0.8919  0.3277 -0.2782
  924MOL0     O24635   8.484  10.585   8.633  0.8019 -0.3886 -1.2258
  924MOL0     C24636   8.565  10.704   8.612  0.6037  0.5232 -0.6943
  924MOL0     C24637   8.613  10.725   8.483 -0.1654  0.2551 -0.2163
  924MOL0     C24638   8.711  10.822   8.453 -0.1268  0.0220 -0.4251
  924MOL0     C24639   8.754  10.905   8.556 -0.3693  0.6800  0.1194
  924MOL0     O24640   8.844  11.005   8.524 -0.5496  0.6928  0.3325
  924MOL0     C24641   8.987  10.986   8.558  0.2244 -0.1246  0.1660
  924MOL0     C24642   9.068  11.063   8.440 -0.2192 -0.6421  0.6128
  924MOL0     C24643   9.219  11.063   8.481 -0.0691 -0.1641  0.1576
  924MOL0     C24644   9.313  11.144   8.397 -0.4074  0.1974  0.6167
  924MOL0     C24645   9.459  11.141   8.422 -0.5356 -0.1090 -0.3324
  924MOL0     C24646   9.530  11.247   8.342 -0.6098  0.7103 -0.2219
  924MOL0     C24647   9.669  11.268   8.403 -1.1410  0.8848 -0.5500
  924MOL0     C24648   9.737  11.393   8.338 -0.6879  0.4294 -0.1100
  924MOL0    Cl24649   9.895  11.416   8.415 -0.4076 -0.1055  0.1153
  924MOL0     C24650   8.702  10.891   8.688 -1.0336  0.7732  0.7238
  924MOL0     C24651   8.608  10.789   8.719 -1.2368 -0.6091 -0.5720
  924MOL0     O24652   8.316  10.662   8.503  0.1031 -0.2062  0.3655
  924MOL0     C24653   8.194  10.411   8.507  0.2480  0.2983  0.7253
  924MOL0     C24654   8.110  10.302   8.516 -0.2988 -0.2297 -0.3642
  924MOL0     N24655   7.648   9.904   8.795  0.1287 -0.4610 -0.1674
  924MOL0     N24656   7.544   9.868   8.862  0.5341  0.0597  0.5728
  924MOL0     C24657   6.676   9.816   9.636 -0.1421 -0.0545 -0.3883
  924MOL0     C24658   6.539   9.812   9.621  0.2399 -0.3600 -0.3042
  924MOL0     C24659   6.121   9.715   9.621  0.8079 -0.3915  0.4046
  924MOL0     C24660   6.108   9.611   9.532  1.2738  0.4026 -0.2542
  924MOL0     C24661   5.982   9.582   9.482 -0.0716  0.0791  0.1513
  924MOL0     C24662   5.866   9.655   9.509 -0.9143 -0.2599 -0.5660
  924MOL0     O24663   5.754   9.622   9.434  0.0773 -0.4043 -0.6139
  924MOL0     C24664   5.638   9.719   9.421  0.2627 -0.3501  0.7368
  924MOL0     C24665   5.669   9.816   9.305  0.1657  0.3560 -0.0638
  924MOL0     C24666   5.670   9.741   9.172 -0.8301 -0.2394  0.0312
  924MOL0     C24667   5.686   9.846   9.062  0.2436  0.1062 -0.1391
  924MOL0     C24668   5.553   9.916   9.040 -0.6375  0.2059  1.2492
  924MOL0     C24669   5.457   9.976   9.010  0.5497 -0.2283 -1.1167
  924MOL0     C24670   5.883   9.759   9.598  0.3749 -0.5901  0.2185
  924MOL0     C24671   6.006   9.788   9.660  0.3296 -0.3875 -0.4576
  924MOL0     C24672   6.016   9.920   9.739 -0.5960 -0.6591 -0.1076
  924MOL0     H24673   6.507   9.473   9.634 -1.3349  1.0984  0.4101
  924MOL0     H24674   6.733   9.480   9.676 -1.0934 -1.1537 -1.5238
  924MOL0     H24675   6.966   9.880   9.600 -1.2705 -0.1915  4.6865
  924MOL0     H24676   7.073   9.747   9.606 -1.1131 -1.2903  0.4895
  924MOL0     H24677   6.852   9.745   9.392 -0.2529  0.9906  0.4412
  924MOL0     H24678   6.959   9.611   9.430  3.0545 -0.3794  0.5906
  924MOL0     H24679   7.143   9.780   9.378 -1.8406  0.6871  2.6691
  924MOL0     H24680   7.023   9.898   9.324  3.8951  0.5897 -1.7149
  924MOL0     H24681   7.015   9.627   9.192  0.3595 -0.2460 -2.0547
  924MOL0     H24682   6.933   9.772   9.153  1.2450 -1.2985 -3.2847
  924MOL0     H24683   7.153   9.896   9.137  1.1923 -0.2788  2.0618
  924MOL0     H24684   7.242   9.745   9.112  1.0126  2.2674 -0.3148
  924MOL0     H24685   7.059   9.691   8.922  3.4961 -3.0091  2.6661
  924MOL0     H24686   7.035   9.865   8.924 -1.4471 -1.9460 -0.4587
  924MOL0     H24687   7.209   9.767   8.750  2.2198  1.4958 -1.5002
  924MOL0     H24688   7.311   9.722   8.875  1.1602  1.5333  3.9778
  924MOL0     H24689   7.248  10.007   8.786  0.6508 -1.0494 -1.1919
  924MOL0     H24690   7.286   9.984   8.957 -0.9253 -2.0174  1.1204
  924MOL0     H24691   7.425  10.098   8.650 -0.8886 -2.7526 -3.2201
  924MOL0     H24692   7.781  10.011   8.621 -1.0171 -1.0470  0.9235
  924MOL0     H24693   7.654  10.104   8.542  0.1585 -5.2370 -0.9246
  924MOL0     H24694   7.861  10.247   8.611  2.4704 -1.6539  2.0440
  924MOL0     H24695   7.712  10.288   8.711  2.2152  2.4491  1.4735
  924MOL0     H24696   7.818  10.143   8.902 -1.9599 -0.4022 -0.8485
  924MOL0     H24697   7.916  10.279   8.834 -1.4123  0.7769 -2.3879
  924MOL0     H24698   7.953   9.986   8.770 -0.0192  0.1378  1.1872
  924MOL0     H24699   8.068  10.092   8.855  0.5718  1.9821  0.5161
  924MOL0     H24700   8.245  10.205   8.815  4.4616 -0.0451 -0.6125
  924MOL0     H24701   8.390  10.384   8.783 -0.4457  1.1724  0.6718
  924MOL0     H24702   8.586  10.652   8.407  0.8701 -0.4937  0.1066
  924MOL0     H24703   8.740  10.839   8.350  1.6718  2.0378  0.3380
  924MOL0     H24704   9.009  11.026   8.657  2.4749 -0.5379 -0.1354
  924MOL0     H24705   9.007  10.879   8.553 -1.1131 -0.4043  0.1933
  924MOL0     H24706   9.056  11.020   8.341  2.2325  0.6946 -0.3392
  924MOL0     H24707   9.025  11.163   8.436  1.8046  0.2219 -1.4063
  924MOL0     H24708   9.220  11.103   8.582 -2.5545 -2.0817  1.0658
  924MOL0     H24709   9.252  10.959   8.490  1.2227  0.2246  0.1642
  924MOL0     H24710   9.279  11.248   8.400  0.7266  0.6702 -1.1826
  924MOL0     H24711   9.312  11.113   8.292  2.8731  0.2598  0.4627
  924MOL0     H24712   9.495  11.039   8.407 -2.6852 -1.1306  0.9317
  924MOL0     H24713   9.468  11.174   8.526 -0.1072  0.2916 -0.4937
  924MOL0     H24714   9.527  11.236   8.234 -2.4424 -1.5512 -0.0018
  924MOL0     H24715   9.476  11.340   8.362  2.1679  3.0272 -2.6288
  924MOL0     H24716   9.731  11.179   8.387 -1.7607  0.5974 -1.4330
  924MOL0     H24717   9.650  11.288   8.509 -3.4443  0.4171 -0.8234
  924MOL0     H24718   9.743  11.368   8.232 -0.1374 -1.1124  0.2604
  924MOL0     H24719   9.682  11.486   8.357  0.2691  1.2906 -1.4029
  924MOL0     H24720   8.739  10.966   8.757  2.7963 -1.1238  0.9413
  924MOL0     H24721   8.564  10.773   8.816 -1.8001 -1.6575 -0.9778
  924MOL0     H24722   8.179  10.475   8.420  0.4988 -2.8585 -1.8649
  924MOL0     H24723   8.042  10.277   8.436 -1.0569 -2.5656  0.9010
  924MOL0     H24724   6.731   9.910   9.634  2.2407 -1.3741 -2.0209
  924MOL0     H24725   6.485   9.904   9.600 -0.5348 -0.1646  2.1514
  924MOL0     H24726   6.193   9.546   9.515  1.3432  0.6584 -0.8838
  924MOL0     H24727   5.958   9.499   9.415 -2.0282  2.2324 -2.0163
  924MOL0     H24728   5.625   9.784   9.509  0.2333  3.9552 -2.1731
  924MOL0     H24729   5.546   9.665   9.397  0.6986 -0.3825 -0.9670
  924MOL0     H24730   5.759   9.871   9.331  1.4067 -1.5219 -0.2239
  924MOL0     H24731   5.582   9.883   9.309 -2.6137 -2.9318 -0.4555
  924MOL0     H24732   5.575   9.688   9.166 -0.2177 -1.6705  2.1182
  924MOL0     H24733   5.755   9.672   9.172 -1.2706 -0.8241  2.0480
  924MOL0     H24734   5.755   9.928   9.084 -1.0927  1.4159 -0.7072
  924MOL0     H24735   5.728   9.803   8.970 -0.9634  0.4048 -0.8479
  924MOL0     H24736   5.375  10.032   8.969 -1.1766 -1.3844  0.5536
  924MOL0     H24737   5.799   9.827   9.617  2.2013  1.7207  0.5018
  924MOL0     H24738   5.931   9.987   9.723  2.5955  3.7290 -0.2096
  924MOL0     H24739   6.037   9.896   9.844 -1.6579 -1.8536 -0.1388
  924MOL0     H24740   6.100   9.978   9.702 -0.0906 -1.7407 -0.7174
  925MOL0     O24741   8.840  11.340   5.269  1.3731  0.4831 -0.7030
  925MOL0     C24742   8.833  11.331   5.145  0.7720  0.2746 -0.0055
  925MOL0     O24743   8.938  11.291   5.077 -0.4582  0.5271  0.3704
  925MOL0     C24744   9.058  11.245   5.128 -0.0786 -0.4755  1.1402
  925MOL0     C24745   9.077  11.176   5.244 -0.3554 -0.2838 -0.2916
  925MOL0     C24746   9.203  11.134   5.288  0.3039 -0.0950  0.0148
  925MOL0     C24747   9.308  11.151   5.206 -1.1092 -0.4516  0.4702
  925MOL0     O24748   9.436  11.112   5.243 -0.5275 -0.0108  0.0847
  925MOL0     C24749   9.462  11.098   5.384  0.2057  0.0791  0.2815
  925MOL0     C24750   9.616  11.104   5.416 -0.2454 -0.2051 -1.2656
  925MOL0     C24751   9.665  11.249   5.390 -0.7825  0.0636 -0.9590
  925MOL0     C24752   9.791  11.281   5.475  0.4426 -0.0151 -0.0670
  925MOL0     C24753   9.857  11.419   5.455  0.2423 -0.1023  0.5863
  925MOL0     C24754   9.950  11.428   5.335 -0.5604 -0.5294 -0.1803
  925MOL0     C24755  10.018  11.562   5.338 -0.2195 -0.4399 -1.2173
  925MOL0     C24756  10.126  11.573   5.232  0.7209 -0.2549  0.2341
  925MOL0     N24757  10.267  11.539   5.260  0.1350 -0.2793 -0.7557
  925MOL0     C24758  10.300  11.420   5.309 -0.2423  0.7070 -0.2171
  925MOL0     C24759  10.417  11.431   5.381 -0.6660 -0.2023  0.3393
  925MOL0     C24760  10.487  11.331   5.462 -0.1688 -0.1645 -0.4953
  925MOL0     C24761  10.418  11.304   5.591  0.0641  0.2214  0.1983
  925MOL0     C24762  10.378  11.428   5.669  0.1290 -0.3529 -1.1374
  925MOL0     C24763  10.289  11.393   5.795 -0.6263 -0.5498 -0.5643
  925MOL0     O24764  10.277  11.511   5.882  0.8417  0.6613 -0.3077
  925MOL0     C24765  10.368  11.522   5.983  0.4452 -0.1298 -0.4360
  925MOL0     C24766  10.342  11.615   6.080  0.2469 -0.7823 -0.0313
  925MOL0     C24767  10.421  11.634   6.189  0.6857  0.9258  0.8394
  925MOL0     C24768  10.539  11.568   6.197 -0.4062  0.3895  0.2551
  925MOL0     C24769  10.612  11.576   6.330  0.5865  0.9347 -0.4037
  925MOL0     O24770  10.730  11.505   6.341  0.6689 -0.0411 -0.1891
  925MOL0     C24771  10.800  11.521   6.458  0.0582 -0.6257 -0.4276
  925MOL0     C24772  10.925  11.594   6.444  0.2804  0.5678 -0.0733
  925MOL0     C24773  11.001  11.606   6.561 -0.0473  0.0860 -0.3887
  925MOL0     C24774  10.961  11.546   6.680  0.3829  0.3510  0.0735
  925MOL0     O24775  11.034  11.583   6.792 -0.2163  0.0226 -0.2071
  925MOL0     C24776  11.107  11.479   6.845  0.3024  0.2174 -0.2655
  925MOL0     C24777  11.251  11.528   6.878  0.8208  0.0767 -0.7009
  925MOL0     C24778  11.331  11.403   6.921 -0.0786  0.1229 -0.0411
  925MOL0     C24779  11.473  11.435   6.961  0.3390 -0.2586 -0.1197
  925MOL0     C24780  11.550  11.331   7.043  0.3567  0.3338 -0.0838
  925MOL0     C24781  11.601  11.213   6.963 -0.7463  0.0747  0.4671
  925MOL0     C24782  11.719  11.264   6.875  0.7932 -0.3334 -0.6924
  925MOL0     C24783  11.775  11.141   6.805  0.1265  0.0185 -0.8587
  925MOL0    Cl24784  11.663  11.066   6.688 -0.2048  0.1204  0.4351
  925MOL0     C24785  10.838  11.483   6.691 -0.0827  0.7634 -0.4547
  925MOL0     C24786  10.757  11.473   6.578 -1.1667  0.7677  0.2453
  925MOL0     O24787  10.555  11.642   6.417  0.1755  0.6205  0.5900
  925MOL0     C24788  10.577  11.482   6.089 -0.2312 -0.8280 -0.3759
  925MOL0     C24789  10.489  11.457   5.989  0.0388  0.2641  0.5307
  925MOL0     N24790  10.449  11.566   5.379 -0.1664  0.2854 -0.0778
  925MOL0     N24791  10.354  11.632   5.305 -0.1625 -0.6742 -0.9478
  925MOL0     C24792   9.293  11.205   5.077  0.1174 -0.2337  0.3867
  925MOL0     C24793   9.161  11.256   5.041  0.3683  0.6983 -0.3145
  925MOL0     C24794   8.706  11.349   5.070  0.5043  0.1407  0.2176
  925MOL0     C24795   8.711  11.365   4.931 -0.4715  0.2686  0.1512
  925MOL0     C24796   8.594  11.374   4.848 -0.2301 -0.7272 -0.0567
  925MOL0     C24797   8.471  11.361   4.911  0.8487  0.4057  0.4847
  925MOL0     O24798   8.368  11.365   4.818 -0.0152 -0.0345 -0.0943
  925MOL0     C24799   8.227  11.357   4.859 -0.6371  0.2960 -0.7687
  925MOL0     C24800   8.145  11.327   4.731  1.3741  0.1269 -0.3598
  925MOL0     C24801   8.149  11.439   4.628 -0.3474  0.3465  0.2295
  925MOL0     C24802   8.263  11.405   4.523 -0.3497 -1.2027  0.7021
  925MOL0     C24803   8.217  11.319   4.409  0.4685 -0.1092  0.5418
  925MOL0     C24804   8.182  11.260   4.306  1.0184 -0.4885 -0.3999
  925MOL0     C24805   8.457  11.338   5.048 -0.6145 -0.4582 -0.1307
  925MOL0     C24806   8.580  11.329   5.126 -0.2605 -0.1017  0.7462
  925MOL0     C24807   8.555  11.288   5.270  0.0612  0.1738  0.6425
  925MOL0     H24808   8.989  11.155   5.304 -1.5337 -0.7849 -2.1215
  925MOL0     H24809   9.206  11.084   5.384  0.8267  3.2168  1.9028
  925MOL0     H24810   9.412  11.175   5.444 -0.3998  0.4601 -0.6988
  925MOL0     H24811   9.423  11.001   5.418  3.1538 -0.8420  1.3650
  925MOL0     H24812   9.661  11.024   5.356 -2.1234 -4.4890  2.4532
  925MOL0     H24813   9.636  11.075   5.519  1.5454 -0.4630 -1.6648
  925MOL0     H24814   9.590  11.328   5.402  1.0443  1.6546  0.9074
  925MOL0     H24815   9.691  11.249   5.283 -0.2304 -2.5744 -0.8748
  925MOL0     H24816   9.762  11.276   5.581  1.0431 -1.7608  0.0487
  925MOL0     H24817   9.861  11.203   5.443  0.7019 -0.7556  2.1363
  925MOL0     H24818   9.781  11.497   5.446 -2.8345 -3.1003 -2.0133
  925MOL0     H24819   9.912  11.429   5.549 -0.3815  0.6465  0.8824
  925MOL0     H24820  10.030  11.355   5.352  1.2336  1.1953 -0.8553
  925MOL0     H24821   9.898  11.409   5.241  0.4678  0.9468 -1.0757
  925MOL0     H24822  10.060  11.577   5.438 -0.8918 -2.2400 -0.6284
  925MOL0     H24823   9.945  11.643   5.323 -0.9309 -0.9932 -0.7892
  925MOL0     H24824  10.104  11.505   5.149 -0.2329 -2.5697  2.2700
  925MOL0     H24825  10.122  11.674   5.190 -0.8671 -0.8481 -1.1656
  925MOL0     H24826  10.234  11.335   5.320 -1.3304  1.5223 -0.2782
  925MOL0     H24827  10.472  11.236   5.411 -2.7858 -1.5226  2.4971
  925MOL0     H24828  10.595  11.352   5.467 -0.4450  1.0349  1.6317
  925MOL0     H24829  10.330  11.241   5.575  0.0598  0.8281 -2.7038
  925MOL0     H24830  10.483  11.241   5.651 -2.2253 -2.0761  0.4389
  925MOL0     H24831  10.315  11.491   5.605  1.5489  2.1241 -0.2598
  925MOL0     H24832  10.467  11.488   5.692 -0.6754  0.5967 -0.4140
  925MOL0     H24833  10.319  11.301   5.847  0.6709 -0.3862 -0.9835
  925MOL0     H24834  10.194  11.358   5.754  0.2990 -2.3438 -1.3207
  925MOL0     H24835  10.252  11.675   6.081  0.9288  0.2598  1.3109
  925MOL0     H24836  10.380  11.696   6.268  0.1012  1.9701 -0.2468
  925MOL0     H24837  10.975  11.619   6.352  0.5323  3.0537  0.6537
  925MOL0     H24838  11.097  11.656   6.550  0.6143 -1.1075 -0.1850
  925MOL0     H24839  11.053  11.454   6.937  0.4592  3.1380  0.7222
  925MOL0     H24840  11.117  11.389   6.783  3.8717 -0.8619  1.5900
  925MOL0     H24841  11.294  11.559   6.783 -2.6064  2.7903 -1.5687
  925MOL0     H24842  11.236  11.596   6.963 -3.1292  0.2071 -1.2865
  925MOL0     H24843  11.274  11.361   7.005 -1.2478  4.0156  1.3068
  925MOL0     H24844  11.326  11.328   6.842  1.9751 -2.5525  2.1432
  925MOL0     H24845  11.462  11.518   7.031  1.8237  0.2198 -0.4091
  925MOL0     H24846  11.523  11.470   6.870 -1.6258 -1.2600 -1.6712
  925MOL0     H24847  11.504  11.285   7.130 -0.0176  0.0420 -0.4347
  925MOL0     H24848  11.644  11.376   7.077  1.3604 -0.3213 -1.8411
  925MOL0     H24849  11.637  11.128   7.021 -1.4564 -0.6444 -0.1285
  925MOL0     H24850  11.518  11.168   6.908  0.1300 -0.4258 -0.4750
  925MOL0     H24851  11.794  11.307   6.942  0.3868  0.5382 -0.7836
  925MOL0     H24852  11.689  11.341   6.804  1.3647 -1.8704 -2.7056
  925MOL0     H24853  11.866  11.169   6.752  0.9237  2.0519  1.3892
  925MOL0     H24854  11.804  11.069   6.882  2.0879 -0.6927 -2.1722
  925MOL0     H24855  10.806  11.455   6.791 -0.8481  2.8291 -0.0693
  925MOL0     H24856  10.656  11.438   6.593 -1.5475  2.0323  0.8051
  925MOL0     H24857  10.664  11.416   6.084 -0.8624 -1.5871 -2.0421
  925MOL0     H24858  10.520  11.382   5.917 -0.3714 -0.4339  1.0645
  925MOL0     H24859   9.371  11.222   5.003 -1.5036 -1.1956 -1.6509
  925MOL0     H24860   9.146  11.327   4.960  0.7362 -0.2222 -1.2084
  925MOL0     H24861   8.798  11.378   4.867  0.4790 -2.2619  0.8193
  925MOL0     H24862   8.609  11.395   4.742 -0.2463  0.3787  0.1511
  925MOL0     H24863   8.208  11.455   4.904  0.7096 -0.5691  1.9072
  925MOL0     H24864   8.208  11.285   4.939  2.8083  2.3483  2.2386
  925MOL0     H24865   8.047  11.293   4.765  1.1733  0.4966 -0.5586
  925MOL0     H24866   8.181  11.234   4.686 -1.0986 -0.9058 -0.3383
  925MOL0     H24867   8.162  11.533   4.682 -0.1632  0.5093 -0.0921
  925MOL0     H24868   8.060  11.465   4.570  1.1324  0.8858 -1.9271
  925MOL0     H24869   8.281  11.504   4.481 -1.8491 -0.8354  0.8852
  925MOL0     H24870   8.358  11.362   4.557 -0.6862 -2.1204  0.4994
  925MOL0     H24871   8.159  11.209   4.215  1.6747 -1.0023 -0.2831
  925MOL0     H24872   8.367  11.320   5.106 -0.0076 -2.3200  0.3106
  925MOL0     H24873   8.622  11.206   5.297  1.2949  1.1763  0.7278
  925MOL0     H24874   8.579  11.372   5.337 -1.6027 -3.1033  5.9401
  925MOL0     H24875   8.449  11.263   5.273 -1.0932  2.7911 -4.7115
  926MOL0     O24876   9.373   5.835   4.364 -0.7516 -0.2603  0.0520
  926MOL0     C24877   9.399   5.939   4.308  0.1477 -0.2094 -0.0036
  926MOL0     O24878   9.504   5.972   4.233  0.3092  0.0915 -1.0700
  926MOL0     C24879   9.607   5.894   4.216 -0.2243 -0.3366 -0.1883
  926MOL0     C24880   9.679   5.855   4.324 -0.8273  0.0160  0.5763
  926MOL0     C24881   9.792   5.765   4.317  0.5390  0.6693  0.3977
  926MOL0     C24882   9.833   5.715   4.189  0.4259  0.6445  0.2250
  926MOL0     O24883   9.940   5.635   4.163  0.5688 -0.2826  0.0698
  926MOL0     C24884  10.052   5.674   4.242 -0.5967  0.7992 -0.0069
  926MOL0     C24885  10.182   5.626   4.182 -1.1041 -0.6744 -0.1656
  926MOL0     C24886  10.193   5.482   4.172 -0.1963 -0.0038  0.2608
  926MOL0     C24887  10.305   5.443   4.074 -0.7115  0.3977  0.2087
  926MOL0     C24888  10.278   5.307   4.022 -0.0720  0.1541  0.3533
  926MOL0     C24889  10.407   5.231   3.975 -0.1065  0.4370 -0.9309
  926MOL0     C24890  10.470   5.294   3.855  0.4131 -0.4214  0.0603
  926MOL0     C24891  10.566   5.226   3.778 -0.7838  0.5728  0.1750
  926MOL0     N24892  10.687   5.173   3.845  0.5357 -0.6959  0.3403
  926MOL0     C24893  10.765   5.250   3.928  0.1890  0.4302 -0.1377
  926MOL0     C24894  10.825   5.162   4.005 -0.0978 -0.6415  0.0474
  926MOL0     C24895  10.935   5.198   4.103  0.6940  0.7791 -0.7893
  926MOL0     C24896  10.887   5.288   4.223  0.0316 -0.2651 -0.0319
  926MOL0     C24897  10.807   5.205   4.323 -0.0469  0.1257 -0.5411
  926MOL0     C24898  10.775   5.294   4.453 -0.6437  0.7320  0.0395
  926MOL0     O24899  10.707   5.194   4.538  0.5194  0.4513 -0.5380
  926MOL0     C24900  10.570   5.187   4.532 -0.1113  0.1704 -0.5998
  926MOL0     C24901  10.490   5.280   4.595 -0.1179  0.6204 -0.9242
  926MOL0     C24902  10.350   5.283   4.582  0.7890  0.1063  0.4317
  926MOL0     C24903  10.286   5.177   4.510  0.0461 -0.1738 -0.1431
  926MOL0     C24904  10.144   5.173   4.492 -0.5512  0.1004  0.0782
  926MOL0     O24905  10.076   5.285   4.530 -0.0071  0.4580 -0.7439
  926MOL0     C24906   9.939   5.282   4.526  0.1009  0.0023 -0.4832
  926MOL0     C24907   9.870   5.224   4.632 -0.3580 -0.2288  0.1878
  926MOL0     C24908   9.730   5.230   4.634 -0.1757  0.3225 -0.6046
  926MOL0     C24909   9.654   5.284   4.532  0.0588 -0.5664 -0.3036
  926MOL0     O24910   9.516   5.282   4.552  0.7339 -0.6628  0.6464
  926MOL0     C24911   9.429   5.326   4.447  0.0973 -0.2886  0.1548
  926MOL0     C24912   9.293   5.258   4.453  0.4144 -0.2184 -0.0707
  926MOL0     C24913   9.210   5.312   4.574  0.2375 -0.8374 -0.2697
  926MOL0     C24914   9.120   5.430   4.535 -0.4401  0.3187  0.1480
  926MOL0     C24915   9.039   5.484   4.654  0.0269  0.9679  0.2879
  926MOL0     C24916   8.970   5.612   4.627  0.0465 -0.4348  0.1450
  926MOL0     C24917   8.872   5.653   4.739 -0.9968 -0.7288 -0.0380
  926MOL0     C24918   8.856   5.807   4.774 -0.1299  1.3079 -0.9249
  926MOL0    Cl24919   8.754   5.806   4.917  0.0290  0.0483  0.0770
  926MOL0     C24920   9.730   5.343   4.424  0.0861  0.4112 -0.4996
  926MOL0     C24921   9.872   5.343   4.424 -0.5250  0.3036 -1.7936
  926MOL0     O24922  10.087   5.074   4.440 -0.1903 -0.4230 -0.1646
  926MOL0     C24923  10.362   5.068   4.461 -0.3194  0.1397  0.0076
  926MOL0     C24924  10.509   5.072   4.470 -0.5643 -0.5967  0.1558
  926MOL0     N24925  10.785   5.038   3.981 -0.0538  0.6137  0.1698
  926MOL0     N24926  10.702   5.045   3.884 -0.0079 -0.0892  0.9126
  926MOL0     C24927   9.756   5.763   4.081  0.7467 -0.0519  0.7831
  926MOL0     C24928   9.646   5.851   4.092 -0.7202 -0.4061  0.4703
  926MOL0     C24929   9.304   6.055   4.322 -0.4533 -0.0326  0.3065
  926MOL0     C24930   9.219   6.053   4.437 -0.7783 -0.7902 -0.3029
  926MOL0     C24931   9.120   6.148   4.458 -0.6808 -0.7519 -0.0769
  926MOL0     C24932   9.125   6.260   4.380  0.4302 -1.2815 -0.6552
  926MOL0     O24933   9.039   6.358   4.424 -0.5218  0.0980  0.3447
  926MOL0     C24934   9.050   6.499   4.380 -0.1335  0.1770  0.3957
  926MOL0     C24935   9.175   6.575   4.427  0.0727  0.1820 -0.7840
  926MOL0     C24936   9.151   6.728   4.416  0.3444 -0.1777  1.2909
  926MOL0     C24937   9.163   6.760   4.271 -0.3282  0.3066  1.3932
  926MOL0     C24938   9.037   6.800   4.210  0.3940 -0.2159  0.4950
  926MOL0     C24939   8.921   6.829   4.193  0.2802 -0.1528  0.5005
  926MOL0     C24940   9.212   6.276   4.270  0.1524  0.3094 -0.4035
  926MOL0     C24941   9.302   6.167   4.235 -0.0188 -0.0567 -0.4762
  926MOL0     C24942   9.375   6.169   4.112 -0.0685  0.5309  0.6300
  926MOL0     H24943   9.656   5.903   4.418 -3.6920  0.8462 -0.4375
  926MOL0     H24944   9.846   5.722   4.401  3.4257 -0.8806 -2.0603
  926MOL0     H24945  10.070   5.782   4.249 -1.5592  0.8896  1.2919
  926MOL0     H24946  10.037   5.629   4.340  2.4148  0.5397  0.4463
  926MOL0     H24947  10.269   5.668   4.234 -3.1552  0.0953  2.9190
  926MOL0     H24948  10.187   5.666   4.081 -0.7052  0.5850  0.3343
  926MOL0     H24949  10.100   5.451   4.126  1.4324 -3.6806 -0.9231
  926MOL0     H24950  10.221   5.435   4.267  1.4367  0.3701 -0.0052
  926MOL0     H24951  10.314   5.516   3.994 -1.1580  0.0253 -0.1854
  926MOL0     H24952  10.406   5.432   4.115 -0.9977 -2.4732  0.3828
  926MOL0     H24953  10.218   5.251   4.094 -0.3881  1.1528  0.8797
  926MOL0     H24954  10.210   5.329   3.939  0.0205  1.9391  0.7057
  926MOL0     H24955  10.483   5.217   4.053  1.1526 -4.3947 -2.6378
  926MOL0     H24956  10.388   5.126   3.949  2.9123 -0.0848 -1.3758
  926MOL0     H24957  10.523   5.383   3.890 -3.0288  0.8841  2.4546
  926MOL0     H24958  10.382   5.311   3.791 -0.9749  1.7775  2.3834
  926MOL0     H24959  10.528   5.140   3.723  0.1065  0.2980 -0.0354
  926MOL0     H24960  10.599   5.286   3.693  1.3182 -0.3919  0.2585
  926MOL0     H24961  10.765   5.358   3.939  1.3296  0.2079  3.5345
  926MOL0     H24962  10.987   5.108   4.139 -0.3391  0.1568 -0.8120
  926MOL0     H24963  10.997   5.261   4.040  0.3101  2.0727  0.0819
  926MOL0     H24964  10.978   5.322   4.273 -0.6024 -2.1323  2.6623
  926MOL0     H24965  10.828   5.372   4.186 -1.3965 -1.4221 -0.4929
  926MOL0     H24966  10.870   5.127   4.365 -1.6701  0.7140  3.4639
  926MOL0     H24967  10.712   5.163   4.288 -0.9455  1.5987 -0.0174
  926MOL0     H24968  10.714   5.379   4.422 -1.2679 -0.7745 -3.3685
  926MOL0     H24969  10.864   5.333   4.504 -0.4543  0.0142  0.2736
  926MOL0     H24970  10.528   5.366   4.648 -0.3379  0.5064 -0.5784
  926MOL0     H24971  10.288   5.360   4.626 -0.5952 -0.8481  0.2111
  926MOL0     H24972   9.925   5.173   4.710  2.0911  0.8290 -0.7556
  926MOL0     H24973   9.676   5.189   4.718  0.2641 -1.7702 -1.2723
  926MOL0     H24974   9.413   5.432   4.464 -0.1364 -0.4784  1.1481
  926MOL0     H24975   9.465   5.317   4.344  0.8375  1.4182  0.2352
  926MOL0     H24976   9.238   5.278   4.361 -2.5502 -2.6392  1.0284
  926MOL0     H24977   9.307   5.151   4.469  0.1218 -0.2345  0.0792
  926MOL0     H24978   9.146   5.234   4.614 -2.2155  0.8524 -0.6633
  926MOL0     H24979   9.281   5.338   4.653  0.8449 -2.6515 -0.1868
  926MOL0     H24980   9.061   5.384   4.455  0.6620 -1.3122  0.2286
  926MOL0     H24981   9.181   5.513   4.498 -2.1306  1.3546 -0.4004
  926MOL0     H24982   9.100   5.490   4.745 -3.7829  1.2576  3.0631
  926MOL0     H24983   8.966   5.410   4.688  1.9622 -0.2106  2.1209
  926MOL0     H24984   9.047   5.688   4.611  0.9275 -0.8723  2.0720
  926MOL0     H24985   8.913   5.601   4.534  0.6829  0.2296 -0.3367
  926MOL0     H24986   8.901   5.595   4.827 -0.8979  1.1683  1.2394
  926MOL0     H24987   8.773   5.624   4.705 -0.5867 -2.8128  0.4093
  926MOL0     H24988   8.950   5.851   4.809  0.5144 -0.7166  0.0575
  926MOL0     H24989   8.812   5.857   4.688 -1.9347 -3.2783 -2.9801
  926MOL0     H24990   9.681   5.396   4.343  0.1838 -0.2083 -0.9730
  926MOL0     H24991   9.939   5.390   4.352  0.0994  2.2845 -0.0145
  926MOL0     H24992  10.318   4.977   4.424  0.0650  0.0283 -0.1857
  926MOL0     H24993  10.561   4.983   4.435 -2.3335 -3.1300  3.3648
  926MOL0     H24994   9.779   5.737   3.978  1.5186  1.9413  0.4043
  926MOL0     H24995   9.601   5.899   4.005  3.0960  1.5095 -0.6563
  926MOL0     H24996   9.209   5.971   4.507  1.1860 -1.0145 -0.2300
  926MOL0     H24997   9.053   6.147   4.543 -0.2429 -2.1056  0.2684
  926MOL0     H24998   8.959   6.543   4.422 -1.2709 -1.9918  0.3544
  926MOL0     H24999   9.051   6.507   4.271 -1.6623  0.1844  0.3498
  926MOL0     H25000   9.272   6.545   4.387  1.3353 -0.8679  2.7077
  926MOL0     H25001   9.198   6.565   4.534  0.8128  3.7758 -0.4743
  926MOL0     H25002   9.223   6.782   4.478  0.1103 -1.0480  2.3548
  926MOL0     H25003   9.050   6.751   4.451 -0.4098 -1.3161 -0.0274
  926MOL0     H25004   9.234   6.842   4.263  1.0881 -0.9488  0.6811
  926MOL0     H25005   9.223   6.691   4.210  0.2982  2.8330 -1.0636
  926MOL0     H25006   8.818   6.857   4.201  0.9259  3.0819 -0.9014
  926MOL0     H25007   9.207   6.368   4.211  1.0594  0.8302  0.3043
  926MOL0     H25008   9.340   6.246   4.043  1.0712  0.5797  0.0827
  926MOL0     H25009   9.476   6.199   4.140 -0.0964  4.7400 -2.7163
  926MOL0     H25010   9.370   6.074   4.058 -2.1566  0.9164  0.0471
  927MOL0     O25011   3.619   7.355   9.170  0.2416 -0.0025  0.4035
  927MOL0     C25012   3.603   7.233   9.153  0.3639 -0.7181 -0.5582
  927MOL0     O25013   3.478   7.176   9.160 -0.2607  0.5830 -0.7158
  927MOL0     C25014   3.374   7.240   9.219  0.7420 -0.3305 -0.6537
  927MOL0     C25015   3.294   7.178   9.317  0.2959  0.1882 -0.2461
  927MOL0     C25016   3.178   7.248   9.361  0.2776 -0.5846 -0.9817
  927MOL0     C25017   3.144   7.379   9.324 -0.6382 -0.3242  0.0923
  927MOL0     O25018   3.032   7.447   9.369  0.6588 -0.5941 -0.1829
  927MOL0     C25019   2.907   7.367   9.355 -0.4725  0.7756 -0.1052
  927MOL0     C25020   2.784   7.451   9.330  0.2053  0.0926 -1.1739
  927MOL0     C25021   2.766   7.564   9.426  0.2354  1.7240  0.0879
  927MOL0     C25022   2.634   7.597   9.488 -0.7200  0.2086 -0.7639
  927MOL0     C25023   2.584   7.498   9.591 -0.4395  0.2405  0.0747
  927MOL0     C25024   2.438   7.511   9.601 -0.5488 -0.4375  0.8638
  927MOL0     C25025   2.368   7.383   9.652  1.0380 -0.5339 -0.7101
  927MOL0     C25026   2.413   7.360   9.803  0.4455  0.0761 -0.2421
  927MOL0     N25027   2.392   7.225   9.854  1.0694  0.6265  0.0534
  927MOL0     C25028   2.276   7.184   9.911 -0.0194  0.0337  0.1205
  927MOL0     C25029   2.294   7.055   9.949 -1.1110 -0.4428 -0.0143
  927MOL0     C25030   2.182   6.977  10.008  0.2476 -0.4506  0.4886
  927MOL0     C25031   2.213   6.822  10.022  0.0106 -0.8180  0.7170
  927MOL0     C25032   2.152   6.771  10.153  0.2091 -0.9129 -0.1553
  927MOL0     C25033   2.188   6.622  10.181  0.2698 -0.6974 -0.4100
  927MOL0     O25034   2.325   6.612  10.213 -0.6305 -0.3848 -0.3805
  927MOL0     C25035   2.374   6.507  10.286  0.8292  0.3237 -0.8381
  927MOL0     C25036   2.498   6.505  10.328  0.3887  0.2787 -0.0632
  927MOL0     C25037   2.559   6.391  10.386  0.5451  0.5626  0.2909
  927MOL0     C25038   2.482   6.276  10.415 -0.6643  0.3259  0.1991
  927MOL0     C25039   2.546   6.151  10.452 -0.6199 -0.3989 -0.4495
  927MOL0     O25040   2.682   6.138  10.448  0.2456 -0.1004  0.6668
  927MOL0     C25041   2.753   6.020  10.452  0.0240 -0.4921 -0.0876
  927MOL0     C25042   2.866   6.007  10.370  1.0843  0.6676 -0.0697
  927MOL0     C25043   2.938   5.877  10.371 -0.3196  0.0732  0.7135
  927MOL0     C25044   2.901   5.779  10.464  0.3064  0.3634 -0.0489
  927MOL0     O25045   2.966   5.656  10.468  0.2895 -0.2055 -0.5073
  927MOL0     C25046   3.115   5.636  10.482 -0.8089 -0.2688 -0.2126
  927MOL0     C25047   3.162   5.490  10.519 -1.2239 -0.3140 -0.6720
  927MOL0     C25048   3.103   5.440  10.648  0.5762 -0.7292 -0.2259
  927MOL0     C25049   3.169   5.308  10.685 -0.3543 -0.8559  1.5537
  927MOL0     C25050   3.105   5.227  10.791  0.4879 -0.5039 -0.8621
  927MOL0     C25051   3.185   5.105  10.835  0.2324  0.0932  1.1078
  927MOL0     C25052   3.117   5.040  10.957 -0.1850  0.4053 -0.0648
  927MOL0     C25053   3.122   4.884  10.938 -0.0872 -0.1199 -0.4927
  927MOL0    Cl25054   3.021   4.822  10.807  0.2160 -0.1126  0.3826
  927MOL0     C25055   2.791   5.801  10.548  0.5178 -0.0875 -0.4693
  927MOL0     C25056   2.725   5.915  10.534  0.2362  0.3879 -0.5783
  927MOL0     O25057   2.471   6.065  10.502 -0.2088 -0.1888 -0.2683
  927MOL0     C25058   2.346   6.274  10.377 -0.0233 -0.2639 -0.1004
  927MOL0     C25059   2.295   6.392  10.313  0.2542  0.1891  0.3841
  927MOL0     N25060   2.405   7.007   9.882 -0.4107  0.3587 -0.4626
  927MOL0     N25061   2.466   7.113   9.832 -0.0166 -0.0684  0.1403
  927MOL0     C25062   3.231   7.446   9.232 -0.9982 -0.5957 -0.5109
  927MOL0     C25063   3.344   7.372   9.181 -0.3343  0.0366  1.4823
  927MOL0     C25064   3.703   7.136   9.104 -0.8317  1.0584  0.5965
  927MOL0     C25065   3.655   6.999   9.078 -0.3088 -0.2346 -0.1341
  927MOL0     C25066   3.749   6.899   9.044  0.2282  0.5074  0.6468
  927MOL0     C25067   3.882   6.941   9.019  0.4746 -0.5318  0.2008
  927MOL0     O25068   3.960   6.842   8.981  0.3482 -0.5282  0.4239
  927MOL0     C25069   4.027   6.778   9.094  0.8990  0.2094  0.0459
  927MOL0     C25070   4.165   6.835   9.122  0.3560  0.1580 -0.3297
  927MOL0     C25071   4.262   6.813   9.000  0.1743 -0.7818 -0.3604
  927MOL0     C25072   4.400   6.868   9.020  0.1617 -0.1439  0.2186
  927MOL0     C25073   4.468   6.910   8.894  0.5652 -0.4889  0.6459
  927MOL0     C25074   4.528   6.966   8.797 -0.3441  0.5661 -0.1662
  927MOL0     C25075   3.928   7.069   9.030 -0.2115 -0.2168  0.5334
  927MOL0     C25076   3.850   7.164   9.090 -0.1113 -0.6338 -0.3150
  927MOL0     C25077   3.917   7.299   9.135 -1.0238 -0.3846  0.5898
  927MOL0     H25078   3.324   7.078   9.348 -1.5165 -0.3447 -0.1021
  927MOL0     H25079   3.114   7.210   9.439 -0.3853  0.8994 -0.7705
  927MOL0     H25080   2.915   7.293   9.274  0.6974 -0.2916  0.9341
  927MOL0     H25081   2.898   7.305   9.444  0.1450 -0.4878 -0.8908
  927MOL0     H25082   2.695   7.388   9.337 -0.8698  1.7029  0.6907
  927MOL0     H25083   2.793   7.489   9.228  1.8859  2.1181 -0.3390
  927MOL0     H25084   2.800   7.653   9.372 -2.4024  2.6569 -0.1955
  927MOL0     H25085   2.836   7.542   9.507  0.3886  1.0130 -0.2367
  927MOL0     H25086   2.633   7.697   9.530 -1.1502  0.0222 -0.3193
  927MOL0     H25087   2.562   7.597   9.406 -3.3631 -2.9146  1.2896
  927MOL0     H25088   2.604   7.396   9.557 -2.4640 -1.6940  3.9487
  927MOL0     H25089   2.631   7.495   9.690  2.4632  0.1180 -1.2055
  927MOL0     H25090   2.413   7.594   9.667  2.0771  1.5318 -0.3916
  927MOL0     H25091   2.405   7.532   9.499  2.4682 -1.7326 -0.5060
  927MOL0     H25092   2.405   7.300   9.591  1.3742 -0.4346 -0.6428
  927MOL0     H25093   2.260   7.393   9.652  0.9379  0.1596  3.6637
  927MOL0     H25094   2.520   7.374   9.825  0.8997 -1.7324 -1.1447
  927MOL0     H25095   2.359   7.433   9.864  4.1594  0.5480  2.9411
  927MOL0     H25096   2.193   7.247   9.942  0.7078  0.5082  1.1477
  927MOL0     H25097   2.173   7.019  10.108  2.9796  1.4983  0.0519
  927MOL0     H25098   2.091   6.988   9.949 -0.5940  1.6165  2.0547
  927MOL0     H25099   2.178   6.762   9.938  1.3308  0.1619 -0.5660
  927MOL0     H25100   2.318   6.794  10.026  0.1144 -0.3078  1.8963
  927MOL0     H25101   2.045   6.760  10.130  0.0865 -1.7467  0.7479
  927MOL0     H25102   2.175   6.833  10.241  0.0553 -1.8405  0.5507
  927MOL0     H25103   2.178   6.550  10.100  3.0122  0.3940 -1.8233
  927MOL0     H25104   2.118   6.594  10.261 -0.2533 -0.5445 -0.8093
  927MOL0     H25105   2.541   6.605  10.316  0.9693  0.1439  0.7914
  927MOL0     H25106   2.664   6.390  10.416  1.3176 -2.0441 -2.1434
  927MOL0     H25107   2.901   6.078  10.296  1.0731  0.0455 -0.6798
  927MOL0     H25108   3.028   5.845  10.319  1.2094  1.0055  2.6249
  927MOL0     H25109   3.168   5.660  10.390 -2.9592 -1.3919 -1.8545
  927MOL0     H25110   3.153   5.700  10.562  1.4968 -3.0990  1.1217
  927MOL0     H25111   3.132   5.420  10.439 -3.1981  1.2282 -1.3663
  927MOL0     H25112   3.270   5.491  10.537 -1.7713 -2.1532  3.7683
  927MOL0     H25113   3.102   5.509  10.734 -0.5532 -0.9660 -0.0341
  927MOL0     H25114   2.999   5.413  10.627  0.1987 -0.5354  1.2470
  927MOL0     H25115   3.272   5.327  10.715  0.6987  0.3075 -2.2184
  927MOL0     H25116   3.176   5.246  10.594  3.1983 -0.6819  1.5963
  927MOL0     H25117   3.014   5.193  10.740 -0.1912 -0.0188 -0.0082
  927MOL0     H25118   3.086   5.288  10.880 -0.2290 -1.3222 -0.4401
  927MOL0     H25119   3.183   5.032  10.753 -1.4481  0.1289  1.0712
  927MOL0     H25120   3.285   5.143  10.855  0.1409  1.3782 -0.6703
  927MOL0     H25121   3.012   5.066  10.973 -0.9282 -1.4088 -1.6143
  927MOL0     H25122   3.170   5.081  11.043  0.7571 -2.8225  1.0619
  927MOL0     H25123   3.228   4.856  10.935  0.0404  0.3403 -0.3653
  927MOL0     H25124   3.076   4.854  11.032  2.1789  2.1773  1.4798
  927MOL0     H25125   2.749   5.724  10.613 -0.9862  1.4983  0.5526
  927MOL0     H25126   2.634   5.908  10.593  1.5699  0.6283  1.6306
  927MOL0     H25127   2.288   6.182  10.375  1.4590 -1.2462 -2.7904
  927MOL0     H25128   2.195   6.392  10.271 -0.2188  1.2905  1.4227
  927MOL0     H25129   3.226   7.551   9.205  0.7680 -0.6103 -1.0109
  927MOL0     H25130   3.396   7.408   9.093  0.6352 -1.1873  1.5325
  927MOL0     H25131   3.551   6.968   9.075 -1.0722  1.9295  1.2768
  927MOL0     H25132   3.701   6.802   9.029 -1.3269  1.4167 -0.6123
  927MOL0     H25133   4.034   6.676   9.056 -2.7777  0.6646 -2.3939
  927MOL0     H25134   3.959   6.765   9.179 -2.9291 -1.2906 -2.9480
  927MOL0     H25135   4.198   6.790   9.217 -3.2477 -1.2207  0.4230
  927MOL0     H25136   4.157   6.942   9.146 -1.6829 -0.3258  1.5317
  927MOL0     H25137   4.223   6.877   8.920  1.9408  1.6583  0.5688
  927MOL0     H25138   4.268   6.706   8.978  2.9575 -0.6424 -0.6100
  927MOL0     H25139   4.397   6.961   9.078  0.4003 -0.9234  1.5405
  927MOL0     H25140   4.471   6.800   9.068  1.0017 -2.7997 -4.2230
  927MOL0     H25141   4.577   7.014   8.714 -1.9313 -0.4677 -1.7789
  927MOL0     H25142   4.033   7.088   9.007 -0.7095  1.0053 -0.9015
  927MOL0     H25143   4.020   7.289   9.171 -0.8486  0.7249  0.4381
  927MOL0     H25144   3.911   7.368   9.050 -2.4229 -1.6293 -0.3845
  927MOL0     H25145   3.875   7.338   9.228 -1.7312  2.5998 -0.8504
  928MOL0     O25146  11.110   3.355   2.030  0.0182 -0.3827 -0.2540
  928MOL0     C25147  11.116   3.478   2.006 -0.5387  0.2689 -0.0550
  928MOL0     O25148  11.220   3.557   2.013 -0.7703  0.1337  0.4467
  928MOL0     C25149  11.338   3.529   2.080  0.3870  0.5271 -0.0005
  928MOL0     C25150  11.448   3.624   2.059 -0.4604 -0.3949 -0.1270
  928MOL0     C25151  11.570   3.614   2.139 -0.3415 -0.2342  0.0339
  928MOL0     C25152  11.590   3.498   2.220 -1.2820 -0.1270  0.6953
  928MOL0     O25153  11.702   3.489   2.294  0.2392 -0.0798 -1.0045
  928MOL0     C25154  11.720   3.380   2.387  0.6939 -0.0738 -0.7955
  928MOL0     C25155  11.792   3.260   2.320  0.1447 -0.4250  0.3841
  928MOL0     C25156  11.937   3.299   2.318 -0.3627 -0.1546 -0.1131
  928MOL0     C25157  12.012   3.258   2.446  0.0897 -0.4980 -1.1026
  928MOL0     C25158  12.154   3.312   2.440 -0.2618  0.1882  0.4745
  928MOL0     C25159  12.207   3.319   2.585  0.0166  1.1019  0.6146
  928MOL0     C25160  12.355   3.366   2.597  0.5799  0.2770  0.1064
  928MOL0     C25161  12.369   3.514   2.589 -0.7697  0.3302  1.4526
  928MOL0     N25162  12.504   3.555   2.627  0.2724 -0.6796 -0.9198
  928MOL0     C25163  12.535   3.675   2.690  0.6081  0.6348  1.0629
  928MOL0     C25164  12.665   3.694   2.661 -0.8573  0.3491 -0.2931
  928MOL0     C25165  12.749   3.793   2.735 -0.7110 -0.1314  0.6599
  928MOL0     C25166  12.817   3.721   2.861 -0.9973  0.2746 -0.1689
  928MOL0     C25167  12.946   3.799   2.901 -0.0016  0.1812 -0.2258
  928MOL0     C25168  13.014   3.746   3.022  0.2138 -0.0434  0.6993
  928MOL0     O25169  12.952   3.761   3.157 -0.1288 -0.5059  0.1204
  928MOL0     C25170  12.978   3.666   3.248  0.5929 -0.4853 -0.5941
  928MOL0     C25171  13.100   3.597   3.253 -0.6605 -1.2065 -0.2573
  928MOL0     C25172  13.120   3.508   3.358  0.3283  0.4017  0.0160
  928MOL0     C25173  13.027   3.490   3.461 -0.1765  1.2546 -0.0890
  928MOL0     C25174  13.047   3.395   3.578 -0.0780  0.4703 -0.0958
  928MOL0     O25175  13.162   3.323   3.583  0.3346  0.2340  0.4242
  928MOL0     C25176  13.166   3.230   3.679 -0.6609 -0.0696 -0.1525
  928MOL0     C25177  13.206   3.100   3.635  0.0208  0.8568  0.4460
  928MOL0     C25178  13.206   2.995   3.726  0.8621  0.4102 -0.1150
  928MOL0     C25179  13.176   3.019   3.860 -0.7590 -0.1642  0.6896
  928MOL0     O25180  13.187   2.923   3.948 -0.0724  0.0188 -0.2003
  928MOL0     C25181  13.086   2.907   4.045  0.2492 -1.5742 -0.0274
  928MOL0     C25182  13.089   2.766   4.105  0.3340 -0.7294 -0.5349
  928MOL0     C25183  12.983   2.724   4.211  1.0026 -0.0656  0.5062
  928MOL0     C25184  13.008   2.591   4.271  0.0166 -0.1057  0.2322
  928MOL0     C25185  12.905   2.562   4.377 -0.2456  0.5376 -0.4107
  928MOL0     C25186  12.791   2.483   4.311  0.1441 -0.5399 -0.4372
  928MOL0     C25187  12.676   2.425   4.403 -0.0673 -0.7241 -0.2846
  928MOL0     C25188  12.608   2.298   4.353 -0.0106 -0.0819 -0.0690
  928MOL0    Cl25189  12.490   2.234   4.467 -0.3795  0.3413 -0.3484
  928MOL0     C25190  13.155   3.150   3.909  0.4246  0.4549 -0.1488
  928MOL0     C25191  13.151   3.260   3.817 -0.2117  0.9235  0.6856
  928MOL0     O25192  12.953   3.384   3.658 -0.1542 -0.9887 -0.5085
  928MOL0     C25193  12.915   3.563   3.450  0.2597  0.0974  1.0410
  928MOL0     C25194  12.882   3.645   3.345  0.1434 -0.3154 -0.2451
  928MOL0     N25195  12.710   3.591   2.577  0.6240  0.7496  0.2683
  928MOL0     N25196  12.609   3.507   2.561 -0.4201  0.4310 -0.6128
  928MOL0     C25197  11.484   3.400   2.221 -0.5469  0.1315 -0.8180
  928MOL0     C25198  11.365   3.417   2.160 -0.3466 -0.7552  0.1796
  928MOL0     C25199  10.992   3.547   1.960 -0.1914  0.4877 -0.2770
  928MOL0     C25200  10.869   3.513   2.019 -0.4702  0.3353 -0.8639
  928MOL0     C25201  10.749   3.569   1.981  0.9612  0.3297  0.7230
  928MOL0     C25202  10.748   3.675   1.891 -0.2530  0.3272 -0.7522
  928MOL0     O25203  10.638   3.742   1.852  0.4282 -0.0203 -0.4604
  928MOL0     C25204  10.504   3.714   1.908  1.0270  0.4677  0.1228
  928MOL0     C25205  10.430   3.613   1.824 -0.4339  0.4240 -0.3498
  928MOL0     C25206  10.302   3.579   1.884 -0.1695  0.2624  0.4591
  928MOL0     C25207  10.304   3.489   2.008 -0.7419  0.7913 -0.4315
  928MOL0     C25208  10.177   3.406   2.005  0.5775 -0.3297  0.1737
  928MOL0     C25209  10.073   3.348   2.004  1.3391 -0.3091 -0.3739
  928MOL0     C25210  10.872   3.713   1.826 -0.3123  0.7116  0.1527
  928MOL0     C25211  10.991   3.642   1.858  0.4736 -0.4506  0.4927
  928MOL0     C25212  11.123   3.685   1.785 -0.0993 -0.1295 -0.5671
  928MOL0     H25213  11.448   3.704   1.986  0.6618  0.5282  0.8421
  928MOL0     H25214  11.649   3.688   2.140  1.9846 -2.5567 -0.9257
  928MOL0     H25215  11.765   3.414   2.480 -2.1458  0.8259  0.3589
  928MOL0     H25216  11.621   3.347   2.421  0.0893  0.2779 -2.1360
  928MOL0     H25217  11.750   3.254   2.219 -0.6535  3.9893  0.2647
  928MOL0     H25218  11.800   3.169   2.381  2.2688  1.0627  2.5217
  928MOL0     H25219  11.946   3.407   2.306 -4.0448  0.5583  2.0543
  928MOL0     H25220  11.990   3.248   2.237  2.6434  1.3880  0.7277
  928MOL0     H25221  11.951   3.289   2.531 -2.5734 -1.4450 -2.5520
  928MOL0     H25222  12.013   3.149   2.451  2.6484 -0.4864  1.4979
  928MOL0     H25223  12.223   3.256   2.377  0.8996 -2.8307  4.0631
  928MOL0     H25224  12.155   3.418   2.410  1.2797  0.4020  1.1747
  928MOL0     H25225  12.145   3.390   2.641 -1.6384  1.8743 -1.9863
  928MOL0     H25226  12.206   3.221   2.633 -0.2021  1.7217  1.9412
  928MOL0     H25227  12.416   3.314   2.523  1.2283  1.4978 -0.2380
  928MOL0     H25228  12.387   3.336   2.697 -2.2079 -3.1853  0.1701
  928MOL0     H25229  12.343   3.544   2.487 -0.3937 -3.1816  0.2041
  928MOL0     H25230  12.297   3.562   2.656  0.7782  2.2368  1.8542
  928MOL0     H25231  12.468   3.737   2.749 -1.4240 -0.3880 -0.0534
  928MOL0     H25232  12.822   3.832   2.663 -1.7633 -1.4629 -1.2327
  928MOL0     H25233  12.684   3.878   2.758 -0.8829 -0.2362  0.5610
  928MOL0     H25234  12.750   3.717   2.947 -2.0014 -1.2553 -0.9714
  928MOL0     H25235  12.860   3.621   2.847  1.8716  1.5879 -1.6792
  928MOL0     H25236  12.904   3.899   2.918 -1.4958 -0.3156 -0.7771
  928MOL0     H25237  13.016   3.804   2.817 -0.1630 -1.4953 -0.5037
  928MOL0     H25238  13.110   3.799   3.016 -0.0329  0.5547  1.7382
  928MOL0     H25239  13.025   3.639   3.005 -1.9034 -0.5508  2.0510
  928MOL0     H25240  13.179   3.605   3.179  1.2227  1.4149  1.8174
  928MOL0     H25241  13.215   3.456   3.370  1.1837  1.7602 -0.5919
  928MOL0     H25242  13.226   3.083   3.530  0.9380  1.2102  0.5554
  928MOL0     H25243  13.225   2.893   3.695 -1.6475  0.0160 -0.5349
  928MOL0     H25244  13.082   2.978   4.127 -0.8583 -1.6579  0.0039
  928MOL0     H25245  12.998   2.918   3.981  1.0533  2.9060 -0.6936
  928MOL0     H25246  13.094   2.694   4.023  1.2527 -0.8690 -0.3648
  928MOL0     H25247  13.188   2.754   4.150  0.1233 -2.6693 -0.5281
  928MOL0     H25248  12.976   2.796   4.294  0.6697  0.6367 -0.1260
  928MOL0     H25249  12.884   2.734   4.166  1.7835  1.3416 -1.0287
  928MOL0     H25250  13.108   2.596   4.316  0.4102 -0.3267 -0.5853
  928MOL0     H25251  13.020   2.509   4.199 -1.8653 -1.1225  1.0104
  928MOL0     H25252  12.871   2.652   4.428 -0.8086  0.4610 -0.6342
  928MOL0     H25253  12.957   2.501   4.451  0.4392  0.1819 -1.1745
  928MOL0     H25254  12.746   2.553   4.240  1.6416  0.8292 -0.0799
  928MOL0     H25255  12.831   2.394   4.261  2.2657  0.0311  0.1689
  928MOL0     H25256  12.592   2.493   4.421  1.2585  0.7182  0.7027
  928MOL0     H25257  12.724   2.413   4.500  1.4487  2.0929 -0.5806
  928MOL0     H25258  12.556   2.318   4.259 -3.5813 -2.7799  1.1099
  928MOL0     H25259  12.685   2.221   4.340 -1.0543 -0.9688 -1.3520
  928MOL0     H25260  13.144   3.173   4.015 -2.4286  0.2341 -0.3028
  928MOL0     H25261  13.140   3.360   3.857 -0.4141  0.7112  1.1778
  928MOL0     H25262  12.837   3.550   3.525  1.6993 -2.6865  2.2152
  928MOL0     H25263  12.785   3.693   3.335  1.1924  1.9202 -0.2551
  928MOL0     H25264  11.495   3.310   2.281 -2.0861  0.3115 -0.2399
  928MOL0     H25265  11.283   3.350   2.185 -1.6464  1.1731  1.3455
  928MOL0     H25266  10.879   3.435   2.093 -0.1600  1.8990  0.8316
  928MOL0     H25267  10.668   3.521   2.034 -0.5176 -0.8867 -2.3822
  928MOL0     H25268  10.439   3.802   1.913 -1.1224 -0.9990 -0.6241
  928MOL0     H25269  10.503   3.690   2.015 -1.9678  2.1099  0.5905
  928MOL0     H25270  10.496   3.527   1.810 -3.2476 -2.2794  1.4560
  928MOL0     H25271  10.400   3.667   1.734 -2.9658 -1.8208 -1.0013
  928MOL0     H25272  10.248   3.538   1.798  0.0955  0.5184  0.1700
  928MOL0     H25273  10.248   3.671   1.908  1.3274  0.5385  3.2044
  928MOL0     H25274  10.394   3.427   2.007  1.1898  3.4246 -1.6829
  928MOL0     H25275  10.311   3.543   2.103  1.0975  0.0411 -0.0944
  928MOL0     H25276   9.979   3.298   1.990  0.6320  1.2931 -1.6838
  928MOL0     H25277  10.869   3.790   1.750  2.5796 -1.8644 -2.8740
  928MOL0     H25278  11.096   3.719   1.685  0.9007 -0.3276 -0.9174
  928MOL0     H25279  11.176   3.759   1.846  0.1080 -1.1922  0.5945
  928MOL0     H25280  11.183   3.597   1.760 -0.3602 -0.3320 -0.4845
  929MOL0     O25281   6.742   7.926  10.340  0.1503 -0.1130  0.5923
  929MOL0     C25282   6.737   8.046  10.328  0.1324 -1.0571  1.1917
  929MOL0     O25283   6.719   8.114  10.204 -0.3898  0.2698 -0.2550
  929MOL0     C25284   6.727   8.060  10.077 -0.3306 -0.2482 -0.2745
  929MOL0     C25285   6.736   7.923  10.038 -1.0931  0.0633  0.4297
  929MOL0     C25286   6.739   7.886   9.908 -0.4090 -1.0249  0.2020
  929MOL0     C25287   6.735   7.980   9.810  0.7042 -0.2959  0.0660
  929MOL0     O25288   6.729   7.963   9.678 -0.0591 -0.5711 -0.3146
  929MOL0     C25289   6.758   7.841   9.617 -0.2655  0.2115  0.2743
  929MOL0     C25290   6.911   7.848   9.582 -0.0379  0.1776  1.2159
  929MOL0     C25291   6.959   7.704   9.547  0.1892 -0.8261 -0.4127
  929MOL0     C25292   7.099   7.738   9.498 -0.5905  0.0007  0.0880
  929MOL0     C25293   7.180   7.611   9.460 -0.0218  0.4724  0.2499
  929MOL0     C25294   7.333   7.637   9.465  0.6724  0.4592  0.1105
  929MOL0     C25295   7.404   7.504   9.464 -0.5370  0.7828 -0.3593
  929MOL0     C25296   7.551   7.509   9.513 -0.9040  0.4471  0.3697
  929MOL0     N25297   7.627   7.383   9.509  0.1933 -0.5757  0.1721
  929MOL0     C25298   7.659   7.320   9.392 -0.3955  0.5627 -0.1766
  929MOL0     C25299   7.745   7.230   9.434  0.0330 -0.3402  0.8697
  929MOL0     C25300   7.806   7.124   9.362 -0.2493 -0.0805 -1.1899
  929MOL0     C25301   7.717   6.993   9.352 -0.5977  0.4861 -0.1830
  929MOL0     C25302   7.673   6.921   9.482  0.5383 -0.1083 -0.7533
  929MOL0     C25303   7.622   6.780   9.463  0.3779  0.9919 -0.6746
  929MOL0     O25304   7.500   6.773   9.383  0.3971  0.2853  0.1799
  929MOL0     C25305   7.378   6.757   9.438  0.2743  0.7173  0.2170
  929MOL0     C25306   7.354   6.776   9.575  0.3144 -0.6178  0.2722
  929MOL0     C25307   7.222   6.775   9.628  0.3038 -0.4093  0.5495
  929MOL0     C25308   7.115   6.742   9.542  0.2718 -1.1936  0.3171
  929MOL0     C25309   6.966   6.743   9.590 -0.9411 -0.1589  0.3480
  929MOL0     O25310   6.899   6.642   9.532  0.1435  0.2683  0.1021
  929MOL0     C25311   6.771   6.618   9.560 -0.0373  0.2313  0.2585
  929MOL0     C25312   6.667   6.663   9.479  0.6909  0.8489  0.1846
  929MOL0     C25313   6.537   6.645   9.530 -0.0828  0.1522  0.5563
  929MOL0     C25314   6.511   6.565   9.646  0.3793 -0.4629  0.6341
  929MOL0     O25315   6.383   6.551   9.696  0.3515  0.3187 -0.3172
  929MOL0     C25316   6.337   6.675   9.751 -0.8794  0.3860 -0.4455
  929MOL0     C25317   6.399   6.690   9.890 -0.1966  0.0909  0.8239
  929MOL0     C25318   6.377   6.828   9.946  0.7006 -0.3433 -0.1779
  929MOL0     C25319   6.234   6.850  10.006  1.2823 -0.7912 -0.1427
  929MOL0     C25320   6.195   6.997  10.047 -0.8258  0.0852  0.2603
  929MOL0     C25321   6.044   7.020  10.040 -0.5625 -0.0515 -0.6391
  929MOL0     C25322   6.002   7.078   9.907 -0.1638  0.5003 -0.2348
  929MOL0     C25323   5.983   6.980   9.795 -0.1915 -0.2347 -0.7035
  929MOL0    Cl25324   6.136   6.968   9.713  0.2138 -0.3450  0.2325
  929MOL0     C25325   6.622   6.512   9.709  0.4615  0.5460 -0.4065
  929MOL0     C25326   6.749   6.542   9.675  0.3935  0.7279 -0.5704
  929MOL0     O25327   6.923   6.822   9.669  0.0916 -1.1154 -0.2624
  929MOL0     C25328   7.138   6.726   9.407  0.3972  0.5553 -1.0055
  929MOL0     C25329   7.266   6.736   9.354 -0.2928  0.9236 -0.8156
  929MOL0     N25330   7.770   7.248   9.574 -0.0918 -0.5802  0.0515
  929MOL0     N25331   7.690   7.346   9.618  0.5950  0.8239 -1.0059
  929MOL0     C25332   6.726   8.113   9.845  0.8788  0.8413  0.1061
  929MOL0     C25333   6.722   8.157   9.981  0.3886  0.3996  0.9195
  929MOL0     C25334   6.741   8.135  10.441 -0.6265  0.1608  0.1173
  929MOL0     C25335   6.767   8.274  10.421 -0.7505  1.4908  0.8768
  929MOL0     C25336   6.781   8.361  10.524  0.2166 -0.5316 -0.1520
  929MOL0     C25337   6.777   8.314  10.654 -0.0332 -0.2380  0.5087
  929MOL0     O25338   6.792   8.411  10.745  0.1135  0.1172  0.2548
  929MOL0     C25339   6.756   8.386  10.880  0.3188  0.0947 -0.5029
  929MOL0     C25340   6.705   8.519  10.942 -0.1514  1.0396 -0.3065
  929MOL0     C25341   6.564   8.554  10.893  0.2269  0.1568 -0.6217
  929MOL0     C25342   6.507   8.684  10.951 -0.2633  1.1618 -0.9461
  929MOL0     C25343   6.568   8.811  10.921 -0.0713  0.2731  0.2058
  929MOL0     C25344   6.636   8.904  10.900  0.4180  0.6132  0.7674
  929MOL0     C25345   6.766   8.178  10.677 -0.6822 -0.2726 -0.1303
  929MOL0     C25346   6.747   8.090  10.575  0.0861  0.6999 -0.1285
  929MOL0     C25347   6.716   7.949  10.622  0.4739  0.1504 -0.6652
  929MOL0     H25348   6.742   7.839  10.107 -0.2922 -1.2384 -1.1706
  929MOL0     H25349   6.766   7.785   9.879  0.8659 -0.8220  0.5741
  929MOL0     H25350   6.710   7.760   9.672 -0.9409  0.2662 -0.2091
  929MOL0     H25351   6.707   7.828   9.521 -1.3276 -0.2280  0.8829
  929MOL0     H25352   6.968   7.882   9.669  0.7211 -0.4286  0.9669
  929MOL0     H25353   6.929   7.925   9.505  1.5540 -1.8243 -0.5552
  929MOL0     H25354   6.910   7.659   9.460 -1.6995  2.1286 -1.0143
  929MOL0     H25355   6.944   7.637   9.632 -2.4278  1.4882  1.1405
  929MOL0     H25356   7.104   7.799   9.408 -3.5680  0.7322  0.3250
  929MOL0     H25357   7.155   7.793   9.574 -0.1859  1.6353 -1.3229
  929MOL0     H25358   7.141   7.540   9.534 -1.6827  0.6934 -0.3625
  929MOL0     H25359   7.149   7.570   9.363  0.9898  2.5626 -1.0055
  929MOL0     H25360   7.357   7.693   9.373 -0.3764 -0.6769 -0.8773
  929MOL0     H25361   7.352   7.701   9.551 -1.2381  2.3182 -0.7477
  929MOL0     H25362   7.385   7.465   9.364  0.2353  0.7108 -0.4836
  929MOL0     H25363   7.353   7.443   9.540  0.4048  1.5240  0.9181
  929MOL0     H25364   7.597   7.587   9.452 -1.1625  0.7848  0.6013
  929MOL0     H25365   7.545   7.547   9.615 -1.7193 -2.5764  1.5576
  929MOL0     H25366   7.632   7.342   9.289  1.0566  3.6467  0.0097
  929MOL0     H25367   7.836   7.150   9.259  0.6010 -0.6638 -1.1025
  929MOL0     H25368   7.891   7.085   9.418 -1.4509 -1.2657 -0.1316
  929MOL0     H25369   7.628   7.032   9.301  0.8046  2.6558 -1.1189
  929MOL0     H25370   7.772   6.926   9.286 -1.1235  2.0231 -2.2791
  929MOL0     H25371   7.591   6.978   9.526 -0.4830  0.6176 -3.4204
  929MOL0     H25372   7.759   6.936   9.549 -0.1038 -0.3390  0.1375
  929MOL0     H25373   7.622   6.717   9.553  1.3235 -1.5246 -2.3305
  929MOL0     H25374   7.709   6.741   9.410  1.0511  2.2698 -0.5613
  929MOL0     H25375   7.435   6.813   9.639  0.6171  1.3994 -1.1813
  929MOL0     H25376   7.215   6.800   9.734  0.3928 -0.4052  0.5542
  929MOL0     H25377   6.677   6.710   9.382 -0.4633  0.1899 -0.2807
  929MOL0     H25378   6.449   6.668   9.470  0.5091  0.3298 -0.2698
  929MOL0     H25379   6.342   6.763   9.686 -1.6575  2.7839  2.5002
  929MOL0     H25380   6.229   6.668   9.764 -1.1609  0.1152 -2.6134
  929MOL0     H25381   6.367   6.612   9.961  1.2081  1.2600  2.8532
  929MOL0     H25382   6.507   6.681   9.876 -0.2799  1.2219 -0.7251
  929MOL0     H25383   6.452   6.857  10.020 -0.5590  0.9874  0.6336
  929MOL0     H25384   6.395   6.901   9.866 -0.4137 -3.0135 -3.0887
  929MOL0     H25385   6.222   6.780  10.090  0.0409 -0.9923 -0.4717
  929MOL0     H25386   6.158   6.816   9.936  2.2274 -0.2588 -1.4645
  929MOL0     H25387   6.246   7.058   9.971 -0.3383 -2.2600 -1.3974
  929MOL0     H25388   6.231   7.038  10.142 -1.0795 -0.8375  0.7633
  929MOL0     H25389   5.998   6.927  10.073  0.5466 -0.2033  0.5735
  929MOL0     H25390   6.023   7.095  10.117  0.9258 -0.6146  0.3756
  929MOL0     H25391   6.068   7.157   9.869  1.2618  0.1958  1.4919
  929MOL0     H25392   5.905   7.126   9.918 -0.3011  0.4312 -1.0959
  929MOL0     H25393   5.954   6.882   9.834 -0.1757 -0.0293 -0.1689
  929MOL0     H25394   5.917   7.017   9.716  2.0950  1.0223 -2.1532
  929MOL0     H25395   6.602   6.456   9.799  1.7225  3.5644  1.9176
  929MOL0     H25396   6.825   6.498   9.739 -0.9794 -0.6888  0.1274
  929MOL0     H25397   7.060   6.722   9.331 -2.0079  3.8012  1.0493
  929MOL0     H25398   7.256   6.743   9.246  1.0542  1.8656 -0.9136
  929MOL0     H25399   6.735   8.183   9.763  3.3239  0.8309  0.2972
  929MOL0     H25400   6.718   8.265   9.997 -1.3256  0.8737 -1.9660
  929MOL0     H25401   6.781   8.312  10.320 -0.2162 -2.4478 -0.7344
  929MOL0     H25402   6.788   8.466  10.497  4.8139  0.0316  2.3142
  929MOL0     H25403   6.843   8.350  10.935 -0.4295  0.4960  0.9858
  929MOL0     H25404   6.675   8.312  10.886  0.2210  0.2846  0.6232
  929MOL0     H25405   6.776   8.597  10.912  1.3657 -1.0835 -2.7285
  929MOL0     H25406   6.709   8.518  11.052  0.7484 -0.2996 -0.3196
  929MOL0     H25407   6.492   8.476  10.916  3.5500 -2.7539  0.7856
  929MOL0     H25408   6.569   8.543  10.784  1.5640 -0.5523 -0.5059
  929MOL0     H25409   6.404   8.701  10.919 -0.4465  0.2999 -0.8318
  929MOL0     H25410   6.498   8.671  11.059 -0.2151 -2.7750 -1.3015
  929MOL0     H25411   6.704   8.977  10.862  0.4178 -0.1436 -0.7429
  929MOL0     H25412   6.782   8.141  10.778  1.1560  0.6998 -0.0266
  929MOL0     H25413   6.638   7.906  10.560 -0.2487  0.1797  0.2083
  929MOL0     H25414   6.810   7.894  10.615  0.7726  0.4838  0.4879
  929MOL0     H25415   6.696   7.952  10.729 -0.0174 -1.9968 -0.6714
  930MOL0     O25416  10.006   6.982   9.706 -0.7349 -0.1456 -0.0311
  930MOL0     C25417  10.098   6.910   9.700 -0.0111 -0.4514  0.5153
  930MOL0     O25418  10.184   6.911   9.597 -0.1623  1.3764  0.1614
  930MOL0     C25419  10.206   7.014   9.507 -0.6421  0.5377  0.5184
  930MOL0     C25420  10.201   7.005   9.365 -0.6184  0.2817 -0.5517
  930MOL0     C25421  10.243   7.115   9.287  0.4261  0.1939  0.3163
  930MOL0     C25422  10.288   7.230   9.348 -0.0083 -0.3220  0.3448
  930MOL0     O25423  10.307   7.342   9.275 -0.3869  0.2073  0.4486
  930MOL0     C25424  10.440   7.376   9.236  0.0319  0.0153  0.2309
  930MOL0     C25425  10.452   7.537   9.221 -0.6972  0.7457 -0.6868
  930MOL0     C25426  10.472   7.609   9.353 -0.4516  0.0439 -0.0458
  930MOL0     C25427  10.349   7.670   9.414  0.6023  0.6302  0.3572
  930MOL0     C25428  10.361   7.701   9.565  0.2568  0.2293 -0.2930
  930MOL0     C25429  10.414   7.592   9.659  0.1484 -0.5072  0.0836
  930MOL0     C25430  10.400   7.646   9.800 -0.4270 -0.8243  0.3596
  930MOL0     C25431  10.405   7.540   9.909 -1.1115  0.3878  0.2005
  930MOL0     N25432  10.519   7.451   9.894  0.3654  0.3395 -0.2636
  930MOL0     C25433  10.521   7.322   9.836  0.4345  0.2970 -0.4112
  930MOL0     C25434  10.651   7.275   9.843 -0.2108 -0.6951  0.6896
  930MOL0     C25435  10.702   7.149   9.778 -0.2797 -0.6511 -0.2642
  930MOL0     C25436  10.634   7.112   9.651  0.1995 -0.1703  1.1909
  930MOL0     C25437  10.706   7.183   9.530  0.1866  0.6000  0.0842
  930MOL0     C25438  10.714   7.333   9.547 -0.4130 -0.4723  0.2292
  930MOL0     O25439  10.754   7.400   9.425  0.3848  0.0290 -0.7587
  930MOL0     C25440  10.820   7.515   9.440  0.5132  0.8842 -0.2770
  930MOL0     C25441  10.856   7.575   9.324 -0.5604 -0.0787 -0.0564
  930MOL0     C25442  10.936   7.694   9.321 -0.1725 -1.0924 -0.0865
  930MOL0     C25443  10.948   7.773   9.437 -0.1112 -0.8217  0.0881
  930MOL0     C25444  11.019   7.903   9.440  0.1652 -0.3048 -0.3350
  930MOL0     O25445  11.059   7.941   9.563  0.0458  0.1364 -0.2933
  930MOL0     C25446  11.118   8.070   9.580 -0.2211 -0.1488 -0.4219
  930MOL0     C25447  11.067   8.172   9.662 -0.3764 -0.4077 -0.9197
  930MOL0     C25448  11.136   8.297   9.691 -0.3813  0.7501 -0.2601
  930MOL0     C25449  11.264   8.315   9.629 -0.5639  0.1498 -0.1818
  930MOL0     O25450  11.347   8.423   9.654  0.5366  0.4712 -0.0559
  930MOL0     C25451  11.318   8.520   9.755  0.1390 -0.0925 -0.0088
  930MOL0     C25452  11.444   8.562   9.830  0.4476 -0.2739 -0.3023
  930MOL0     C25453  11.446   8.522   9.985  0.4349  0.5437  0.8536
  930MOL0     C25454  11.479   8.374   9.997 -0.0152 -0.7404 -0.6344
  930MOL0     C25455  11.527   8.314  10.130  0.2732  0.3023 -0.4461
  930MOL0     C25456  11.677   8.269  10.139  0.1447 -0.1185  0.2381
  930MOL0     C25457  11.687   8.208  10.282 -1.6698 -0.9389  0.5214
  930MOL0     C25458  11.817   8.135  10.298 -0.2949 -0.2328  0.2193
  930MOL0    Cl25459  11.848   8.086  10.462  0.5684 -0.3621 -0.6035
  930MOL0     C25460  11.314   8.211   9.551 -0.4719 -0.5553  0.4769
  930MOL0     C25461  11.249   8.088   9.535 -0.0527 -1.2183  0.1176
  930MOL0     O25462  11.043   7.963   9.336  0.0772  0.0680 -0.4505
  930MOL0     C25463  10.898   7.711   9.554  0.2830  0.1599 -0.0517
  930MOL0     C25464  10.839   7.589   9.560 -0.5737  0.3657 -1.0771
  930MOL0     N25465  10.731   7.378   9.892  0.6690 -0.2249  0.1983
  930MOL0     N25466  10.652   7.475   9.937  0.3973  0.1225 -0.6062
  930MOL0     C25467  10.294   7.235   9.479  0.4157  1.1556  0.2654
  930MOL0     C25468  10.266   7.123   9.558 -0.2338  0.6882  1.2164
  930MOL0     C25469  10.135   6.822   9.814  1.0498  0.3787  0.3165
  930MOL0     C25470  10.265   6.805   9.847  0.6065  0.4459 -0.1177
  930MOL0     C25471  10.313   6.728   9.956 -1.6214 -0.3715  0.4335
  930MOL0     C25472  10.217   6.676  10.045  0.8036 -0.5138 -0.4445
  930MOL0     O25473  10.231   6.600  10.159 -0.5578  0.1467 -0.1118
  930MOL0     C25474  10.359   6.592  10.221 -0.2402  0.0543 -0.4645
  930MOL0     C25475  10.344   6.698  10.333  0.2538 -0.2302 -0.7614
  930MOL0     C25476  10.416   6.649  10.466 -0.0136  0.0328 -0.4515
  930MOL0     C25477  10.566   6.656  10.446 -1.2994  0.4514  0.1232
  930MOL0     C25478  10.634   6.520  10.442 -0.0700 -0.0370  0.4744
  930MOL0     C25479  10.680   6.410  10.446  0.7516  1.7519  0.4053
  930MOL0     C25480  10.083   6.700  10.016  0.7728 -0.4229  0.4954
  930MOL0     C25481  10.034   6.776   9.906  0.2648  0.0339  0.3151
  930MOL0     C25482   9.892   6.814   9.909 -0.5635  0.6303 -0.1248
  930MOL0     H25483  10.164   6.912   9.323 -0.4720  0.1153 -0.3125
  930MOL0     H25484  10.239   7.125   9.179  1.2736 -0.2677  0.2361
  930MOL0     H25485  10.505   7.335   9.314  3.0944  1.8214 -1.1753
  930MOL0     H25486  10.470   7.329   9.141  2.3336 -1.7362  1.7158
  930MOL0     H25487  10.359   7.565   9.169 -2.3706 -0.2863  1.5883
  930MOL0     H25488  10.543   7.554   9.162  1.9345 -0.5239  2.6893
  930MOL0     H25489  10.551   7.684   9.345 -0.1240 -0.2157  0.6903
  930MOL0     H25490  10.501   7.531   9.425 -1.2825 -0.9441 -0.7445
  930MOL0     H25491  10.316   7.757   9.356 -0.0573  0.1752  0.0300
  930MOL0     H25492  10.271   7.597   9.391 -1.2927  1.6414  3.0443
  930MOL0     H25493  10.424   7.789   9.577  0.1768  0.1737  0.6516
  930MOL0     H25494  10.260   7.737   9.585 -0.4382 -1.5598 -0.3910
  930MOL0     H25495  10.346   7.508   9.640 -1.0982  0.8608 -1.7255
  930MOL0     H25496  10.516   7.553   9.646  0.0211 -0.8053 -0.0395
  930MOL0     H25497  10.306   7.700   9.806 -1.6911 -2.1251 -4.1357
  930MOL0     H25498  10.483   7.713   9.826 -0.0827 -1.8345  2.0094
  930MOL0     H25499  10.432   7.592  10.001  5.2486  0.3045 -1.1396
  930MOL0     H25500  10.310   7.486   9.911 -0.2872 -1.2478 -1.5994
  930MOL0     H25501  10.426   7.270   9.829  1.0977 -1.3298  1.6423
  930MOL0     H25502  10.809   7.152   9.757 -0.5054 -1.9533 -1.7514
  930MOL0     H25503  10.681   7.073   9.853 -1.1238  1.3314  1.6051
  930MOL0     H25504  10.630   7.004   9.637  0.6980 -0.0459 -0.0368
  930MOL0     H25505  10.529   7.142   9.648  0.1234 -0.3276  2.1286
  930MOL0     H25506  10.660   7.168   9.432  1.4523 -1.1394 -0.3038
  930MOL0     H25507  10.809   7.144   9.533 -0.6284 -1.7416 -0.0472
  930MOL0     H25508  10.785   7.348   9.629 -0.3533  1.4799 -0.1357
  930MOL0     H25509  10.616   7.372   9.575 -0.9713  0.7597 -3.0387
  930MOL0     H25510  10.822   7.531   9.231 -1.5380 -1.6715  1.0195
  930MOL0     H25511  10.985   7.732   9.232  1.3829 -0.0434  1.1659
  930MOL0     H25512  10.975   8.156   9.718  0.6524  1.1205  1.3618
  930MOL0     H25513  11.081   8.366   9.753 -0.9547  2.6009 -2.6878
  930MOL0     H25514  11.282   8.610   9.703  0.6771  1.2860  1.8735
  930MOL0     H25515  11.254   8.473   9.830 -1.8703  1.0451 -0.9259
  930MOL0     H25516  11.530   8.512   9.786  2.6660  3.2961 -0.4055
  930MOL0     H25517  11.464   8.668   9.808  3.6151 -0.2191  2.1403
  930MOL0     H25518  11.506   8.592  10.044 -1.0587  2.3116  0.3732
  930MOL0     H25519  11.346   8.549  10.020 -0.4961 -2.0376  0.4233
  930MOL0     H25520  11.551   8.339   9.922  0.0018 -0.4739 -0.7441
  930MOL0     H25521  11.396   8.309   9.969 -2.4444  2.6629 -2.0473
  930MOL0     H25522  11.471   8.222  10.150 -2.0660  1.1589 -2.6588
  930MOL0     H25523  11.497   8.384  10.209  0.9347 -0.9099  0.9470
  930MOL0     H25524  11.707   8.199  10.060  1.0089 -0.5188  0.9046
  930MOL0     H25525  11.738   8.359  10.126  0.8927 -0.6880 -0.2900
  930MOL0     H25526  11.606   8.136  10.294 -1.5447 -1.2518 -0.5086
  930MOL0     H25527  11.680   8.290  10.355 -1.3460  1.8762 -2.4076
  930MOL0     H25528  11.823   8.049  10.230 -0.3834  0.3722 -0.5610
  930MOL0     H25529  11.896   8.204  10.267 -0.4017 -1.5436 -3.5079
  930MOL0     H25530  11.404   8.225   9.493 -0.9224  0.4472  0.0074
  930MOL0     H25531  11.299   8.019   9.467 -0.8442  0.7362 -2.6616
  930MOL0     H25532  10.880   7.769   9.644  1.0454 -0.0886  0.2757
  930MOL0     H25533  10.823   7.574   9.666 -1.1479  1.9557 -0.9052
  930MOL0     H25534  10.323   7.318   9.542 -1.0881 -0.5674  3.4566
  930MOL0     H25535  10.273   7.125   9.666 -3.1204 -0.6355  1.5235
  930MOL0     H25536  10.347   6.848   9.791 -0.3305 -0.6034 -2.4215
  930MOL0     H25537  10.419   6.712   9.972 -1.1967  1.1574 -0.6064
  930MOL0     H25538  10.441   6.612  10.152 -0.0072 -0.8522 -0.4630
  930MOL0     H25539  10.373   6.488  10.253  0.7422  0.3371  0.0727
  930MOL0     H25540  10.242   6.717  10.366  0.8936 -0.2206  1.3292
  930MOL0     H25541  10.389   6.792  10.299  1.7243  0.1546  1.9448
  930MOL0     H25542  10.380   6.547  10.482 -0.5642  0.1414 -0.9481
  930MOL0     H25543  10.392   6.727  10.538  0.0924  0.9321 -1.3747
  930MOL0     H25544  10.598   6.695  10.349 -0.7832 -0.5967 -0.1458
  930MOL0     H25545  10.610   6.713  10.528  0.2058 -2.1269  1.2387
  930MOL0     H25546  10.710   6.307  10.448  0.2096  1.5186 -1.5099
  930MOL0     H25547  10.014   6.669  10.094  1.4583  1.5610  1.9734
  930MOL0     H25548   9.842   6.788   9.815 -0.9653  1.6735 -0.2112
  930MOL0     H25549   9.829   6.764   9.983 -2.9562  2.3883 -0.8395
  930MOL0     H25550   9.891   6.922   9.928  0.5951  1.1734 -2.6667
  931MOL0     O25551   3.064   1.589   3.630 -0.1726  0.3684  0.2166
  931MOL0     C25552   3.035   1.583   3.753 -0.4414 -0.9840 -0.0144
  931MOL0     O25553   3.103   1.657   3.840  0.6190  0.2868 -0.0255
  931MOL0     C25554   3.185   1.755   3.797  0.3655 -0.2609 -0.3663
  931MOL0     C25555   3.144   1.875   3.747  0.5251 -0.3888  0.0864
  931MOL0     C25556   3.235   1.979   3.725  0.5561  0.2441  0.0573
  931MOL0     C25557   3.367   1.965   3.752 -0.2291  0.2216 -0.1765
  931MOL0     O25558   3.446   2.086   3.742  0.8580 -0.2791 -0.4488
  931MOL0     C25559   3.567   2.110   3.815  0.5173  0.9854  0.3930
  931MOL0     C25560   3.621   2.244   3.777 -0.0282  0.8524 -0.1434
  931MOL0     C25561   3.766   2.227   3.739 -0.2029  1.1127  1.0262
  931MOL0     C25562   3.817   2.359   3.700 -0.2972 -0.4486  0.3837
  931MOL0     C25563   3.971   2.353   3.688  0.2321  0.5627  0.0018
  931MOL0     C25564   4.021   2.487   3.666 -0.8288  0.2000  0.2253
  931MOL0     C25565   4.168   2.473   3.629  0.2327 -0.4926  0.7746
  931MOL0     C25566   4.249   2.432   3.744  0.0458 -0.0694 -0.1580
  931MOL0     N25567   4.394   2.445   3.736  0.1660 -0.1048 -0.6054
  931MOL0     C25568   4.468   2.560   3.766  0.4323  0.1130 -0.2906
  931MOL0     C25569   4.602   2.526   3.769 -0.4583 -0.3448 -0.5461
  931MOL0     C25570   4.710   2.629   3.792  0.3506  0.3041  0.3465
  931MOL0     C25571   4.662   2.765   3.758  0.1495  0.9640  0.8907
  931MOL0     C25572   4.775   2.862   3.783  0.0461  0.4412  0.2959
  931MOL0     C25573   4.842   2.851   3.920  0.0751  0.2774 -0.6231
  931MOL0     O25574   4.907   2.978   3.942  0.2998  0.2791 -0.4210
  931MOL0     C25575   5.037   3.005   3.908 -0.7106 -0.5181 -0.0949
  931MOL0     C25576   5.088   3.125   3.961  0.3270  0.1098  0.4881
  931MOL0     C25577   5.226   3.153   3.935 -0.1105 -0.1847 -1.1992
  931MOL0     C25578   5.310   3.063   3.860  0.7304 -0.1827 -0.7030
  931MOL0     C25579   5.451   3.092   3.837 -0.7575  0.4313  0.3557
  931MOL0     O25580   5.497   3.204   3.900  0.2384  0.1380  0.3020
  931MOL0     C25581   5.631   3.241   3.875 -0.0154  0.2990  0.0714
  931MOL0     C25582   5.736   3.146   3.888 -0.5129 -0.1046 -0.2360
  931MOL0     C25583   5.864   3.186   3.867 -0.5260 -0.0362 -0.9682
  931MOL0     C25584   5.892   3.327   3.841 -0.3363  0.4768  0.1750
  931MOL0     O25585   6.021   3.357   3.841 -0.3445 -0.4955  0.1132
  931MOL0     C25586   6.056   3.494   3.846 -0.9897 -0.1733  0.4752
  931MOL0     C25587   6.204   3.506   3.893  0.0759 -0.3408  0.1547
  931MOL0     C25588   6.209   3.467   4.039  0.7431 -0.0114 -0.2445
  931MOL0     C25589   6.346   3.462   4.104  0.0004 -0.4056  0.9022
  931MOL0     C25590   6.366   3.482   4.256 -0.1270 -0.1422  0.4495
  931MOL0     C25591   6.307   3.361   4.334  0.1907  0.2104 -0.7126
  931MOL0     C25592   6.376   3.341   4.467 -0.1552 -0.9632 -0.1950
  931MOL0     C25593   6.492   3.240   4.451  0.9037  1.0475 -0.1777
  931MOL0    Cl25594   6.422   3.076   4.393  0.1065  0.0885 -0.3126
  931MOL0     C25595   5.785   3.417   3.838 -0.5183  0.3515  0.3985
  931MOL0     C25596   5.657   3.370   3.852  0.1411 -0.1403 -0.8477
  931MOL0     O25597   5.514   3.021   3.757 -0.2420 -0.2535  0.2619
  931MOL0     C25598   5.254   2.948   3.805 -0.3482  0.0492  0.0672
  931MOL0     C25599   5.120   2.916   3.838 -0.6477 -0.5410  0.1220
  931MOL0     N25600   4.610   2.397   3.738 -0.4898  0.9907 -0.0242
  931MOL0     N25601   4.493   2.351   3.710 -0.5038 -0.0034 -0.2309
  931MOL0     C25602   3.408   1.841   3.803 -0.0151 -0.2590 -0.6546
  931MOL0     C25603   3.325   1.731   3.821  0.3953 -0.4869 -0.8872
  931MOL0     C25604   2.901   1.526   3.799 -1.3421  0.2996 -0.4687
  931MOL0     C25605   2.880   1.514   3.937  0.0031  0.1282 -0.2882
  931MOL0     C25606   2.763   1.463   3.986  0.0914  0.3381 -0.1103
  931MOL0     C25607   2.664   1.418   3.892 -0.2088 -0.5819  0.1604
  931MOL0     O25608   2.540   1.379   3.933  0.0494  0.5032 -0.3648
  931MOL0     C25609   2.455   1.487   3.986  0.5242  0.1486  0.0496
  931MOL0     C25610   2.339   1.499   3.894 -0.2051  0.4085 -0.2509
  931MOL0     C25611   2.283   1.357   3.860  0.1953 -0.8554  0.2627
  931MOL0     C25612   2.140   1.377   3.795  0.4429 -0.2570 -0.3974
  931MOL0     C25613   2.055   1.261   3.835 -0.1123 -0.6191 -0.0219
  931MOL0     C25614   1.970   1.182   3.866  0.1743  0.4009 -0.0426
  931MOL0     C25615   2.685   1.439   3.755 -0.0912 -0.7981 -1.0085
  931MOL0     C25616   2.807   1.487   3.705  0.5508 -0.0488  0.7890
  931MOL0     C25617   2.816   1.490   3.556 -0.5633  0.5989 -0.5948
  931MOL0     H25618   3.037   1.896   3.741  0.5910 -0.4301 -2.6197
  931MOL0     H25619   3.188   2.073   3.696 -0.2958 -0.2790 -0.2765
  931MOL0     H25620   3.538   2.106   3.921  0.5093 -0.2997  0.3577
  931MOL0     H25621   3.640   2.031   3.798  1.6585  2.1865 -0.4907
  931MOL0     H25622   3.615   2.311   3.863 -1.2534  1.7059 -0.8808
  931MOL0     H25623   3.563   2.298   3.702 -1.5232 -0.1296  0.2569
  931MOL0     H25624   3.762   2.167   3.647  1.9933  5.6143 -2.3571
  931MOL0     H25625   3.836   2.170   3.801 -0.1829  0.0375  0.0532
  931MOL0     H25626   3.782   2.381   3.598  0.8788  3.5255  0.6796
  931MOL0     H25627   3.787   2.445   3.760 -1.0371  0.8542 -1.7459
  931MOL0     H25628   4.013   2.323   3.784 -0.5577  0.7738  0.4304
  931MOL0     H25629   3.999   2.285   3.608  0.1310  0.8379 -0.2691
  931MOL0     H25630   3.958   2.532   3.590 -0.7144 -0.7556 -0.4476
  931MOL0     H25631   4.000   2.537   3.761  1.2634 -2.4344  2.2281
  931MOL0     H25632   4.204   2.574   3.603  1.4569 -1.5141 -1.9493
  931MOL0     H25633   4.189   2.413   3.540  0.6234  2.5147 -1.3510
  931MOL0     H25634   4.220   2.490   3.833 -0.1743 -1.9847  1.0681
  931MOL0     H25635   4.219   2.330   3.769 -1.3576 -0.2521 -2.3890
  931MOL0     H25636   4.414   2.653   3.781  0.4833  0.2494 -0.9183
  931MOL0     H25637   4.732   2.607   3.897 -0.0657 -0.9239  0.1920
  931MOL0     H25638   4.803   2.616   3.737  0.9373  2.6143  0.6832
  931MOL0     H25639   4.644   2.765   3.650  3.6204  1.2664  0.1822
  931MOL0     H25640   4.572   2.800   3.810 -1.0378  1.0192 -1.0987
  931MOL0     H25641   4.738   2.965   3.771 -0.6671 -0.0595 -2.8361
  931MOL0     H25642   4.849   2.860   3.703 -1.4729 -2.2865 -1.2009
  931MOL0     H25643   4.913   2.770   3.939  1.9594  1.3376 -2.7115
  931MOL0     H25644   4.762   2.842   3.994  2.3016  0.5881  1.9801
  931MOL0     H25645   5.020   3.192   4.012 -0.7048  0.4733 -1.2577
  931MOL0     H25646   5.275   3.240   3.976  2.5234 -1.5634 -1.2224
  931MOL0     H25647   5.700   3.048   3.917 -3.6583  0.5733 -1.4604
  931MOL0     H25648   5.938   3.107   3.873  1.1576  1.5949  3.3913
  931MOL0     H25649   6.065   3.545   3.750  2.4575 -2.3545 -0.5614
  931MOL0     H25650   5.993   3.543   3.921 -0.7212  0.5027  0.2591
  931MOL0     H25651   6.263   3.438   3.831 -0.0021  1.3808 -1.8856
  931MOL0     H25652   6.227   3.609   3.865 -0.0660 -0.0575  1.0246
  931MOL0     H25653   6.162   3.548   4.094 -0.7722 -0.2914 -1.0881
  931MOL0     H25654   6.165   3.368   4.054  1.9027 -0.5105  0.0342
  931MOL0     H25655   6.400   3.547   4.060 -3.2132  1.6114  0.4568
  931MOL0     H25656   6.378   3.361   4.078 -3.3442 -0.8804 -2.1755
  931MOL0     H25657   6.326   3.581   4.281 -0.7986  0.2393 -1.9077
  931MOL0     H25658   6.475   3.477   4.263  0.0205 -1.3612 -1.6330
  931MOL0     H25659   6.202   3.381   4.357  0.2468  2.0660 -1.8598
  931MOL0     H25660   6.305   3.270   4.274 -2.1127 -0.0405 -0.3467
  931MOL0     H25661   6.301   3.311   4.541 -1.3293  0.1488 -0.9021
  931MOL0     H25662   6.427   3.431   4.502 -1.8348 -0.6067  1.4682
  931MOL0     H25663   6.563   3.269   4.373  1.3532  0.8252  0.1394
  931MOL0     H25664   6.541   3.231   4.549 -0.2679  3.6694  0.7315
  931MOL0     H25665   5.808   3.518   3.807  1.3132 -0.4158 -0.9650
  931MOL0     H25666   5.573   3.438   3.844 -0.0190 -0.2009  0.1746
  931MOL0     H25667   5.305   2.897   3.724 -3.6844 -3.2332 -0.2479
  931MOL0     H25668   5.080   2.820   3.810  1.6555 -1.4630 -0.2531
  931MOL0     H25669   3.510   1.837   3.839 -0.2347  0.8362  0.1521
  931MOL0     H25670   3.356   1.639   3.869  2.9071  0.7528  0.0148
  931MOL0     H25671   2.942   1.552   4.017 -1.5603 -0.7149  1.3910
  931MOL0     H25672   2.735   1.461   4.091  1.5774 -2.5419  0.3136
  931MOL0     H25673   2.504   1.585   3.986  0.2510  0.3594  2.4125
  931MOL0     H25674   2.416   1.465   4.086 -1.0641  2.6232  0.0763
  931MOL0     H25675   2.363   1.550   3.800  0.3998  1.1678  0.3051
  931MOL0     H25676   2.259   1.550   3.948 -3.2242 -3.0112 -1.0548
  931MOL0     H25677   2.275   1.296   3.951  0.3572  0.4535  1.1840
  931MOL0     H25678   2.352   1.306   3.793  1.7998 -0.0882  1.2660
  931MOL0     H25679   2.087   1.467   3.828  2.6713  2.0098 -2.5072
  931MOL0     H25680   2.154   1.382   3.686  2.2962  0.7127 -0.1626
  931MOL0     H25681   1.886   1.116   3.878  2.2391 -2.2939  0.6264
  931MOL0     H25682   2.603   1.414   3.688  0.7305  0.2158 -2.4354
  931MOL0     H25683   2.839   1.591   3.520  4.3998 -0.2165 -0.3475
  931MOL0     H25684   2.886   1.418   3.515 -1.3526 -1.2195  1.0647
  931MOL0     H25685   2.721   1.466   3.507 -0.8376  1.5666 -0.5546
  932MOL0     O25686   6.181   0.886   7.294  0.1041  0.2271 -0.3680
  932MOL0     C25687   6.118   0.993   7.321  0.1113 -0.4559  0.3413
  932MOL0     O25688   6.160   1.097   7.407 -0.7405 -1.0067  0.1037
  932MOL0     C25689   6.297   1.085   7.441  0.3462  0.2714 -0.2779
  932MOL0     C25690   6.392   1.140   7.358  0.1478 -0.0772 -0.5508
  932MOL0     C25691   6.528   1.128   7.378  0.8462  0.6029 -1.1677
  932MOL0     C25692   6.571   1.066   7.499 -0.5969 -0.3865  0.1580
  932MOL0     O25693   6.703   1.051   7.512  0.6873  0.7918  0.6866
  932MOL0     C25694   6.744   0.982   7.630 -0.6457  0.0093 -0.2156
  932MOL0     C25695   6.894   0.977   7.631  0.2702  0.1431 -1.1182
  932MOL0     C25696   6.974   1.103   7.595  0.0894  0.0966  0.2429
  932MOL0     C25697   7.127   1.097   7.602  0.2154 -0.2393  0.2859
  932MOL0     C25698   7.182   1.231   7.549 -1.2799 -0.2845  0.0819
  932MOL0     C25699   7.335   1.221   7.551  0.0752 -0.3978 -0.3113
  932MOL0     C25700   7.392   1.365   7.525  0.5281 -0.1114 -0.1380
  932MOL0     C25701   7.547   1.368   7.532  0.3612 -0.0569 -0.9371
  932MOL0     N25702   7.606   1.298   7.420  0.1920 -0.1296  0.5930
  932MOL0     C25703   7.612   1.335   7.288  0.5075  0.2817  0.2111
  932MOL0     C25704   7.693   1.241   7.237  0.1713  0.5658 -0.7041
  932MOL0     C25705   7.738   1.229   7.106  0.7257  0.1239  0.2777
  932MOL0     C25706   7.889   1.265   7.092  0.3442  0.3505  0.5252
  932MOL0     C25707   7.968   1.132   7.086 -0.7790  0.8574  0.1467
  932MOL0     C25708   8.120   1.150   7.056 -0.1833  0.3760  0.3719
  932MOL0     O25709   8.147   1.167   6.912  0.2056 -0.2080 -0.9546
  932MOL0     C25710   8.276   1.212   6.877 -0.4491  0.3033  0.1467
  932MOL0     C25711   8.290   1.284   6.760 -0.0378 -1.2094  0.3390
  932MOL0     C25712   8.423   1.295   6.703  0.6914  0.4758 -0.6348
  932MOL0     C25713   8.536   1.256   6.773 -0.5220  0.0627  0.1310
  932MOL0     C25714   8.672   1.294   6.731 -0.3468  0.4355  0.5059
  932MOL0     O25715   8.693   1.380   6.628  0.5209 -0.0313  0.1023
  932MOL0     C25716   8.807   1.382   6.555 -0.3003  0.4316 -0.0314
  932MOL0     C25717   8.840   1.493   6.480 -0.3401 -0.5297 -0.4137
  932MOL0     C25718   8.960   1.490   6.412 -0.5883 -0.0188 -0.0490
  932MOL0     C25719   9.042   1.382   6.407 -0.1574 -0.0427 -0.0121
  932MOL0     O25720   9.159   1.384   6.336 -0.2653  0.9943  0.1506
  932MOL0     C25721   9.174   1.433   6.209  0.0687 -0.2544 -0.7383
  932MOL0     C25722   9.308   1.379   6.160 -0.0312  0.4131  0.3812
  932MOL0     C25723   9.342   1.229   6.175 -0.5325 -0.3360 -0.4437
  932MOL0     C25724   9.252   1.140   6.072  0.2830 -0.6969  0.2287
  932MOL0     C25725   9.133   1.076   6.136  0.8291 -1.0347 -0.1966
  932MOL0     C25726   9.071   0.958   6.063 -0.5338 -0.0055  1.0615
  932MOL0     C25727   8.952   0.913   6.140 -0.6808 -0.4994  0.6611
  932MOL0     C25728   8.870   0.824   6.047 -0.4685 -0.2631 -0.2375
  932MOL0    Cl25729   8.949   0.657   6.047 -0.3983  0.1679  0.4078
  932MOL0     C25730   8.999   1.257   6.463  0.7053 -1.1037  0.6900
  932MOL0     C25731   8.882   1.262   6.538  0.3726  0.8981  0.1194
  932MOL0     O25732   8.760   1.242   6.806 -0.2371  0.2009  0.2735
  932MOL0     C25733   8.517   1.192   6.894  0.6795 -0.0251 -0.6254
  932MOL0     C25734   8.386   1.164   6.941  0.1677  0.1111 -0.4352
  932MOL0     N25735   7.713   1.140   7.333  0.6121  0.0444 -0.4938
  932MOL0     N25736   7.667   1.177   7.445 -0.3648 -1.0232 -0.1973
  932MOL0     C25737   6.476   1.020   7.592  0.7481 -0.5401  0.3633
  932MOL0     C25738   6.338   1.026   7.556  0.0027  0.0589 -0.0543
  932MOL0     C25739   5.985   1.019   7.269  0.0153 -0.2712  0.7414
  932MOL0     C25740   5.939   1.152   7.272 -0.3380  0.5134 -0.7435
  932MOL0     C25741   5.820   1.188   7.222 -0.3319  0.4592  1.7314
  932MOL0     C25742   5.731   1.099   7.154  0.5982 -0.1921 -0.2994
  932MOL0     O25743   5.618   1.146   7.096 -0.9843 -0.7533  0.4425
  932MOL0     C25744   5.511   1.049   7.082  1.2974 -0.5837  0.0718
  932MOL0     C25745   5.382   1.133   7.077 -0.0238  1.2600 -0.0877
  932MOL0     C25746   5.260   1.044   7.055  0.2557  0.4464 -0.1858
  932MOL0     C25747   5.129   1.123   7.025 -0.3719 -0.3982  0.7335
  932MOL0     C25748   5.034   1.041   6.966 -0.1953 -0.0846 -0.6368
  932MOL0     C25749   4.941   0.978   6.927  0.6428  0.0033 -0.0474
  932MOL0     C25750   5.767   0.965   7.171 -0.7422 -0.2004 -0.5487
  932MOL0     C25751   5.894   0.923   7.218 -0.2844 -0.8562 -0.3918
  932MOL0     C25752   5.923   0.778   7.206 -0.5477 -1.3487  0.5804
  932MOL0     H25753   6.349   1.201   7.279 -1.0709 -1.4639 -1.0073
  932MOL0     H25754   6.597   1.175   7.310 -0.7401  3.2256 -1.1070
  932MOL0     H25755   6.704   1.016   7.726 -0.5456 -3.5219  1.2284
  932MOL0     H25756   6.712   0.878   7.620 -0.2388  0.1001 -3.6789
  932MOL0     H25757   6.924   0.893   7.568 -2.2430 -1.6857 -0.0146
  932MOL0     H25758   6.922   0.946   7.732 -2.5760 -0.6484 -0.4984
  932MOL0     H25759   6.928   1.186   7.650 -0.3422  0.0267 -0.0033
  932MOL0     H25760   6.952   1.117   7.489  1.8334  0.7965 -0.0516
  932MOL0     H25761   7.153   1.083   7.708 -0.0220 -5.0874 -0.0699
  932MOL0     H25762   7.162   1.010   7.545 -0.9251 -0.1936 -0.5073
  932MOL0     H25763   7.147   1.254   7.448  1.8420  1.6112 -0.7125
  932MOL0     H25764   7.154   1.318   7.609  3.7738  0.7482  1.4843
  932MOL0     H25765   7.370   1.180   7.646  0.1693  2.2604  0.8959
  932MOL0     H25766   7.368   1.153   7.472  0.9666 -0.9431  0.5133
  932MOL0     H25767   7.356   1.441   7.595  0.8495  1.3094 -1.4452
  932MOL0     H25768   7.357   1.403   7.428 -2.1014 -0.7924  0.4624
  932MOL0     H25769   7.587   1.470   7.527  0.9487 -0.3491 -3.3880
  932MOL0     H25770   7.572   1.328   7.631  0.2245 -0.3087 -1.0054
  932MOL0     H25771   7.555   1.419   7.250 -0.3245 -0.6095 -0.5403
  932MOL0     H25772   7.730   1.122   7.082 -4.1584  0.6693 -1.4893
  932MOL0     H25773   7.674   1.287   7.038 -1.3663 -3.0644 -0.7002
  932MOL0     H25774   7.902   1.313   6.995  2.1320 -1.0059  0.0291
  932MOL0     H25775   7.925   1.327   7.174  1.6698  0.0558  0.1891
  932MOL0     H25776   7.924   1.063   7.014 -1.0983  1.1141  0.0934
  932MOL0     H25777   7.974   1.080   7.182  0.2682 -1.7025 -1.2076
  932MOL0     H25778   8.169   1.055   7.078  1.1235  0.5869 -1.3601
  932MOL0     H25779   8.179   1.227   7.107  1.4279 -0.1813 -0.5707
  932MOL0     H25780   8.204   1.313   6.700  1.5534  1.0990 -0.9885
  932MOL0     H25781   8.444   1.328   6.601 -1.0155  1.3260 -0.7499
  932MOL0     H25782   8.788   1.589   6.486  0.6696  0.1337 -1.8438
  932MOL0     H25783   8.978   1.585   6.363 -1.4706 -0.1366 -0.6336
  932MOL0     H25784   9.098   1.407   6.134  0.0013 -1.6159 -0.2186
  932MOL0     H25785   9.178   1.542   6.207 -0.1857 -0.2269 -0.0286
  932MOL0     H25786   9.312   1.405   6.054 -3.2565 -1.7437 -0.4275
  932MOL0     H25787   9.373   1.435   6.228 -3.1988  2.7924  1.7090
  932MOL0     H25788   9.443   1.206   6.138  1.1555  1.4030  2.6874
  932MOL0     H25789   9.338   1.198   6.280  5.1077  2.3533  0.9638
  932MOL0     H25790   9.318   1.061   6.034 -0.4154 -0.1572 -2.2376
  932MOL0     H25791   9.225   1.201   5.986 -1.0358 -1.3200  0.1733
  932MOL0     H25792   9.062   1.156   6.159  3.0743  1.0353 -0.0745
  932MOL0     H25793   9.169   1.037   6.232  1.6967  1.3665  0.5200
  932MOL0     H25794   9.045   0.983   5.960 -1.7312 -0.1341  1.3238
  932MOL0     H25795   9.151   0.883   6.066 -0.3467 -0.0289 -1.9337
  932MOL0     H25796   8.888   0.996   6.173 -0.5606 -0.8000  1.6668
  932MOL0     H25797   8.987   0.854   6.225  1.0382 -0.7508 -0.1739
  932MOL0     H25798   8.766   0.815   6.080 -0.8197 -0.9026 -1.4606
  932MOL0     H25799   8.879   0.867   5.947  0.8270 -0.3461 -0.1721
  932MOL0     H25800   9.056   1.165   6.457  0.3709 -1.2873  0.3083
  932MOL0     H25801   8.837   1.170   6.576 -2.2690  1.9622 -0.2318
  932MOL0     H25802   8.601   1.157   6.951 -0.3665 -0.3600  0.7544
  932MOL0     H25803   8.398   1.099   7.028 -0.0919  0.4782 -0.1215
  932MOL0     H25804   6.492   0.963   7.683  1.6377 -1.2247 -0.2034
  932MOL0     H25805   6.268   0.992   7.632 -2.8135 -0.4316 -2.6999
  932MOL0     H25806   6.004   1.232   7.307 -0.2174  0.2530 -0.3694
  932MOL0     H25807   5.809   1.296   7.226 -1.0914  0.3931  1.5883
  932MOL0     H25808   5.496   0.986   7.169 -0.8361  0.2626  0.3749
  932MOL0     H25809   5.526   0.989   6.992  1.0023 -1.9995  0.9375
  932MOL0     H25810   5.382   1.206   6.997 -1.8442  0.6136 -0.7360
  932MOL0     H25811   5.370   1.187   7.172  0.0797 -2.4732  2.2848
  932MOL0     H25812   5.254   0.989   7.149 -1.6959  3.1476  1.3931
  932MOL0     H25813   5.282   0.991   6.962 -1.4779 -1.1817  0.2754
  932MOL0     H25814   5.088   1.175   7.112  0.0223  2.3743 -0.6348
  932MOL0     H25815   5.152   1.209   6.963  2.6501 -0.7760  1.1991
  932MOL0     H25816   4.870   0.913   6.882 -0.1190  0.9664 -0.2823
  932MOL0     H25817   5.700   0.887   7.136 -1.8725  0.1691  0.6914
  932MOL0     H25818   5.921   0.736   7.307 -0.0378 -0.9511  0.7596
  932MOL0     H25819   5.848   0.732   7.140  0.6718 -1.6274 -0.6664
  932MOL0     H25820   6.021   0.759   7.160 -0.7615 -3.2745  0.8182
  933MOL0     O25821  10.557   9.663   1.198 -0.5114 -0.3123 -0.1182
  933MOL0     C25822  10.573   9.620   1.311  0.6545  0.3074 -0.2578
  933MOL0     O25823  10.685   9.615   1.370  0.1299  0.0881 -0.3374
  933MOL0     C25824  10.808   9.602   1.304 -0.3099  0.5475  0.4784
  933MOL0     C25825  10.825   9.565   1.170  0.4943  0.1277 -0.6507
  933MOL0     C25826  10.958   9.554   1.124  0.9702  0.1567 -0.1155
  933MOL0     C25827  11.069   9.588   1.204  0.3331  0.1875 -0.3687
  933MOL0     O25828  11.202   9.583   1.172 -0.0662 -0.3526  0.0365
  933MOL0     C25829  11.244   9.510   1.055 -0.0130  1.0735 -1.4661
  933MOL0     C25830  11.383   9.548   1.012 -0.1109 -0.3808 -0.7155
  933MOL0     C25831  11.429   9.444   0.908  0.0454  0.5572  0.7635
  933MOL0     C25832  11.582   9.464   0.880  0.1324 -0.2137 -0.1509
  933MOL0     C25833  11.652   9.350   0.826 -0.8639  0.6301 -1.0257
  933MOL0     C25834  11.780   9.398   0.752 -0.1183 -0.0807 -0.0397
  933MOL0     C25835  11.875   9.287   0.720  0.0077 -0.5291 -0.0631
  933MOL0     C25836  11.815   9.183   0.624  0.2039  0.3379  0.0736
  933MOL0     N25837  11.776   9.241   0.493 -0.1724 -0.7156 -0.0617
  933MOL0     C25838  11.862   9.285   0.392 -0.1171  0.3928  0.1056
  933MOL0     C25839  11.782   9.314   0.289 -0.4813  0.2864  0.2219
  933MOL0     C25840  11.819   9.352   0.150 -0.4067 -0.9655  0.4312
  933MOL0     C25841  11.772   9.494   0.118 -0.1330 -0.1274 -0.3404
  933MOL0     C25842  11.852   9.617   0.171 -1.1926 -0.3030  0.8851
  933MOL0     C25843  11.977   9.634   0.093 -0.5299 -0.1446 -0.5934
  933MOL0     O25844  12.034   9.760   0.130  0.6896 -0.1182  0.1411
  933MOL0     C25845  12.162   9.758   0.197 -0.5747 -0.6305 -0.8334
  933MOL0     C25846  12.219   9.885   0.219  0.7139  0.0912  1.1575
  933MOL0     C25847  12.350   9.896   0.264 -0.3188  0.3638 -0.1312
  933MOL0     C25848  12.418   9.776   0.320  0.3619 -0.4236  0.4135
  933MOL0     C25849  12.549   9.784   0.396  0.5710  0.0531 -0.0555
  933MOL0     O25850  12.576   9.682   0.482  0.0249  0.9007  0.1737
  933MOL0     C25851  12.701   9.635   0.517 -0.2933 -0.3188  0.4262
  933MOL0     C25852  12.818   9.715   0.519 -0.1293  0.0645 -0.6421
  933MOL0     C25853  12.943   9.673   0.568  1.0957 -0.7741 -0.1584
  933MOL0     C25854  12.954   9.548   0.620 -0.2147 -0.5070  0.4007
  933MOL0     O25855  13.068   9.508   0.679  0.0478 -0.1327  0.0650
  933MOL0     C25856  13.152   9.608   0.739 -0.6426  0.4498 -0.3593
  933MOL0     C25857  13.250   9.522   0.816 -0.0293  0.5178  0.0305
  933MOL0     C25858  13.181   9.448   0.936  0.1508  0.4403  0.2271
  933MOL0     C25859  13.277   9.394   1.035 -0.7532 -0.7031 -0.2146
  933MOL0     C25860  13.226   9.322   1.165 -0.0506 -0.2117  0.2794
  933MOL0     C25861  13.160   9.429   1.259 -0.1301 -0.2168  0.3147
  933MOL0     C25862  13.129   9.372   1.400 -0.4253 -0.1785  0.3923
  933MOL0     C25863  13.032   9.463   1.485 -1.4991 -1.2953 -0.0537
  933MOL0    Cl25864  13.102   9.622   1.508  0.1720  0.0236 -0.3160
  933MOL0     C25865  12.841   9.461   0.613  0.4090 -0.2113 -0.0423
  933MOL0     C25866  12.713   9.504   0.573  0.3062  0.6697  0.0170
  933MOL0     O25867  12.626   9.874   0.367  0.7983  1.0768  0.0453
  933MOL0     C25868  12.352   9.653   0.311 -0.1559 -0.3631 -0.0978
  933MOL0     C25869  12.234   9.642   0.240 -0.4089 -0.3391 -0.2440
  933MOL0     N25870  11.650   9.313   0.336 -1.4695 -0.2096  0.4494
  933MOL0     N25871  11.649   9.264   0.452  0.7093 -0.2797 -0.7926
  933MOL0     C25872  11.046   9.634   1.330  0.5586  0.0768  0.2295
  933MOL0     C25873  10.916   9.636   1.382 -0.2309  0.6348  0.0238
  933MOL0     C25874  10.448   9.605   1.385  0.2722 -0.7323  0.2241
  933MOL0     C25875  10.333   9.558   1.308 -0.3764  0.0860 -0.2114
  933MOL0     C25876  10.211   9.554   1.373 -0.3410  0.9177 -1.2532
  933MOL0     C25877  10.203   9.584   1.516 -0.1327  0.8233  0.5059
  933MOL0     O25878  10.084   9.578   1.586 -0.5588 -0.6420  0.1714
  933MOL0     C25879  10.016   9.703   1.611  0.8495 -0.2615  0.0671
  933MOL0     C25880   9.912   9.726   1.500 -0.1308 -0.2030  0.2586
  933MOL0     C25881   9.812   9.832   1.529  0.6025 -0.6105 -1.1497
  933MOL0     C25882   9.827   9.962   1.438  0.4200  1.0534 -0.1596
  933MOL0     C25883   9.952  10.037   1.466 -0.3739 -0.6644  0.2753
  933MOL0     C25884  10.048  10.113   1.478 -0.7483 -0.2725 -0.0907
  933MOL0     C25885  10.312   9.639   1.590  0.3551 -0.1035  1.2846
  933MOL0     C25886  10.433   9.638   1.527 -0.3883  0.0439  0.2922
  933MOL0     C25887  10.546   9.686   1.608 -0.5524 -0.3564 -0.2589
  933MOL0     H25888  10.739   9.547   1.106  0.2342  2.9097 -1.1735
  933MOL0     H25889  10.963   9.540   1.016 -1.4553 -0.0302 -0.2567
  933MOL0     H25890  11.243   9.406   1.091  0.7727  1.3821 -0.5066
  933MOL0     H25891  11.176   9.514   0.969 -2.6824 -0.9193  0.3619
  933MOL0     H25892  11.459   9.558   1.091 -1.2111  0.3156  0.2943
  933MOL0     H25893  11.370   9.650   0.974  4.7206  0.3118 -1.2064
  933MOL0     H25894  11.370   9.453   0.817  1.2235 -3.1979 -0.5543
  933MOL0     H25895  11.402   9.344   0.946  0.7533  0.2950  0.5987
  933MOL0     H25896  11.577   9.545   0.807 -3.4779 -1.3966 -1.4542
  933MOL0     H25897  11.624   9.492   0.977  0.2437 -0.8089 -0.0255
  933MOL0     H25898  11.693   9.287   0.905  3.8695  2.8756 -1.3324
  933MOL0     H25899  11.595   9.293   0.752  0.4300 -1.4132 -0.5375
  933MOL0     H25900  11.756   9.449   0.658 -0.9937  1.0439  0.7622
  933MOL0     H25901  11.837   9.464   0.819 -1.1787 -0.0688  0.8801
  933MOL0     H25902  11.918   9.233   0.805  1.5987 -0.5734 -0.8450
  933MOL0     H25903  11.956   9.328   0.659  0.1677  0.8239  1.0152
  933MOL0     H25904  11.892   9.108   0.603  0.8978  0.6187  1.4579
  933MOL0     H25905  11.742   9.120   0.676  0.2305 -0.7685 -1.1694
  933MOL0     H25906  11.968   9.263   0.389 -0.6109 -2.1824 -0.7497
  933MOL0     H25907  11.928   9.360   0.148 -0.3184 -2.0643 -0.4728
  933MOL0     H25908  11.789   9.284   0.069  0.3423 -1.4841  0.5840
  933MOL0     H25909  11.769   9.508   0.010 -0.6540  1.1022 -0.1820
  933MOL0     H25910  11.671   9.498   0.161 -0.4343 -2.5758 -0.6814
  933MOL0     H25911  11.878   9.611   0.277 -1.6497  1.1532  1.1043
  933MOL0     H25912  11.795   9.710   0.161  0.5221  1.0233  2.6572
  933MOL0     H25913  11.948   9.630  -0.012 -3.4140 -1.8582  0.1458
  933MOL0     H25914  12.050   9.554   0.109  1.2014  1.1491 -1.6765
  933MOL0     H25915  12.165   9.977   0.199 -1.3456 -1.2842  0.0231
  933MOL0     H25916  12.392   9.995   0.275  0.6560 -0.2259  2.0550
  933MOL0     H25917  12.823   9.812   0.469 -2.0540  0.5243 -0.0329
  933MOL0     H25918  13.020   9.748   0.563  0.0647  0.2186 -1.9900
  933MOL0     H25919  13.214   9.670   0.673  2.1855  0.4166  2.0296
  933MOL0     H25920  13.092   9.673   0.804 -2.9927 -1.2625 -0.6901
  933MOL0     H25921  13.278   9.453   0.736 -0.5677  1.1388 -0.7089
  933MOL0     H25922  13.340   9.581   0.838  0.7534 -0.4502 -0.4957
  933MOL0     H25923  13.113   9.517   0.986  0.2794  0.7811 -0.0639
  933MOL0     H25924  13.117   9.368   0.897  0.8466  1.1657 -2.6878
  933MOL0     H25925  13.342   9.473   1.074 -0.3177 -0.9448 -0.4413
  933MOL0     H25926  13.332   9.329   0.967 -1.0030  0.2590 -1.3739
  933MOL0     H25927  13.310   9.280   1.221  2.8900  3.1443 -1.1513
  933MOL0     H25928  13.157   9.247   1.126  0.7070  0.5703 -2.9353
  933MOL0     H25929  13.215   9.523   1.258  0.5071 -0.5390  1.9527
  933MOL0     H25930  13.059   9.449   1.221  0.2009 -3.3580 -2.7673
  933MOL0     H25931  13.224   9.353   1.450  1.0432  4.6169 -0.0907
  933MOL0     H25932  13.079   9.278   1.375 -3.3620  1.8295 -2.1218
  933MOL0     H25933  12.941   9.492   1.434 -1.5556  3.9566  2.3507
  933MOL0     H25934  13.015   9.415   1.582  0.8004  2.0346  2.2336
  933MOL0     H25935  12.849   9.357   0.644  0.2883 -1.5961 -4.1481
  933MOL0     H25936  12.617   9.453   0.569 -0.3827  1.8853  0.2323
  933MOL0     H25937  12.398   9.558   0.332  0.1604 -0.3549 -0.7283
  933MOL0     H25938  12.181   9.547   0.239 -0.7684 -0.1361 -0.8130
  933MOL0     H25939  11.140   9.667   1.371  0.1958  1.7542 -0.2132
  933MOL0     H25940  10.900   9.658   1.487  1.2303 -1.3988  0.7437
  933MOL0     H25941  10.345   9.517   1.208  0.4533  0.0385 -0.0977
  933MOL0     H25942  10.136   9.516   1.305  0.9571 -2.0826 -1.1635
  933MOL0     H25943  10.079   9.791   1.619 -0.9927  0.9530  2.7180
  933MOL0     H25944   9.972   9.698   1.711  1.1566 -2.6026  0.1478
  933MOL0     H25945   9.871   9.629   1.473  0.8581 -0.7164  0.5267
  933MOL0     H25946   9.962   9.752   1.406  1.1465 -1.0784  0.6615
  933MOL0     H25947   9.823   9.861   1.634 -1.2492  0.9841 -1.3402
  933MOL0     H25948   9.714   9.796   1.498  1.6208 -1.7574 -3.2666
  933MOL0     H25949   9.836   9.943   1.331 -1.2071 -0.8642 -0.0150
  933MOL0     H25950   9.741  10.028   1.450  0.5183  0.9141  1.7117
  933MOL0     H25951  10.137  10.172   1.479  1.8166 -3.7349 -2.2255
  933MOL0     H25952  10.300   9.653   1.697 -2.2585  2.3176  0.8274
  933MOL0     H25953  10.604   9.757   1.546 -0.9417  0.8145  0.6761
  933MOL0     H25954  10.502   9.742   1.691 -0.2774 -2.0282  1.0458
  933MOL0     H25955  10.613   9.616   1.659  0.3401 -0.0749 -1.0078
  934MOL0     O25956   5.766   8.533   5.117 -0.5712  0.2291 -0.7358
  934MOL0     C25957   5.820   8.638   5.123 -0.2940  0.1848  0.6303
  934MOL0     O25958   5.952   8.663   5.136 -0.2985 -0.4488 -0.2975
  934MOL0     C25959   6.040   8.577   5.100 -0.6909  0.7374  0.1178
  934MOL0     C25960   6.162   8.597   5.157 -0.2008 -0.2332 -0.2487
  934MOL0     C25961   6.272   8.517   5.133 -0.4435  0.2749 -0.7365
  934MOL0     C25962   6.264   8.414   5.030  0.0288  0.1060 -0.4331
  934MOL0     O25963   6.373   8.335   5.001 -0.8367 -0.1728 -0.5571
  934MOL0     C25964   6.451   8.288   5.121 -0.1173 -0.3016 -0.5206
  934MOL0     C25965   6.564   8.190   5.078  0.0707  0.1956 -0.1912
  934MOL0     C25966   6.697   8.261   5.022  1.0970 -0.0806 -0.1922
  934MOL0     C25967   6.801   8.152   5.013  0.1173  0.6442 -0.2568
  934MOL0     C25968   6.945   8.192   5.022  0.4559 -0.2810  1.3434
  934MOL0     C25969   6.989   8.238   4.881  0.2122  0.3876 -0.6143
  934MOL0     C25970   7.129   8.297   4.898  0.9922  0.0366  0.1031
  934MOL0     C25971   7.229   8.203   4.847  0.9463  0.4676  0.9275
  934MOL0     N25972   7.369   8.252   4.853  1.0852  0.5159 -0.7158
  934MOL0     C25973   7.473   8.180   4.805 -0.3218  0.7351  0.0744
  934MOL0     C25974   7.580   8.233   4.867  0.2945 -0.6457  0.0110
  934MOL0     C25975   7.718   8.195   4.879 -0.0908 -0.3722  0.0327
  934MOL0     C25976   7.806   8.231   4.755 -0.1665  1.1673  0.5217
  934MOL0     C25977   7.947   8.185   4.759 -0.2950 -1.0768  0.1350
  934MOL0     C25978   8.013   8.207   4.617 -0.7211  0.8434  0.6310
  934MOL0     O25979   8.160   8.193   4.629 -0.0264  0.2705 -0.5180
  934MOL0     C25980   8.240   8.240   4.533  0.1960 -0.2227  0.4895
  934MOL0     C25981   8.370   8.264   4.568  0.0854  0.3098  0.0062
  934MOL0     C25982   8.461   8.331   4.485  0.5614  1.2772  0.6404
  934MOL0     C25983   8.425   8.374   4.368  0.2131  0.0079 -0.1917
  934MOL0     C25984   8.516   8.452   4.282 -0.4131  1.4072  0.9495
  934MOL0     O25985   8.475   8.467   4.160  0.4056 -0.0130  0.7251
  934MOL0     C25986   8.568   8.485   4.062  0.8501  1.4844  0.6254
  934MOL0     C25987   8.531   8.560   3.956  0.0095  0.2033 -0.0631
  934MOL0     C25988   8.606   8.580   3.844 -0.3552 -1.0915 -0.4618
  934MOL0     C25989   8.733   8.525   3.835  0.7370 -0.2294 -0.5181
  934MOL0     O25990   8.816   8.548   3.728 -0.2330 -0.2583  0.3912
  934MOL0     C25991   8.952   8.495   3.725 -0.6614  0.4940 -0.4774
  934MOL0     C25992   9.055   8.589   3.779  0.6857  1.2426  0.1319
  934MOL0     C25993   9.199   8.537   3.771 -0.0113  0.2141 -0.1868
  934MOL0     C25994   9.296   8.590   3.883  0.6720 -0.3211  0.2011
  934MOL0     C25995   9.430   8.515   3.892 -0.3908  1.1869  0.0501
  934MOL0     C25996   9.519   8.542   3.772  0.3090  0.2172  0.0863
  934MOL0     C25997   9.633   8.444   3.765 -0.0914  0.1327  0.7909
  934MOL0     C25998   9.725   8.445   3.892 -0.0167 -0.1939  1.2531
  934MOL0    Cl25999   9.845   8.560   3.896  0.2543 -0.4406 -0.1786
  934MOL0     C26000   8.777   8.444   3.947 -0.5757 -0.5374  0.5357
  934MOL0     C26001   8.694   8.424   4.061  0.8933 -1.2081  0.5534
  934MOL0     O26002   8.612   8.513   4.328 -0.0980 -0.4499 -0.2698
  934MOL0     C26003   8.291   8.357   4.323  1.0497 -0.4454 -0.6524
  934MOL0     C26004   8.196   8.288   4.403 -1.0825  0.4446  0.0869
  934MOL0     N26005   7.532   8.353   4.930 -0.9328  0.3619  0.4160
  934MOL0     N26006   7.407   8.357   4.919  0.5443  0.4083  0.1198
  934MOL0     C26007   6.140   8.404   4.961  0.0918  0.8433  0.1497
  934MOL0     C26008   6.025   8.472   5.003  0.2921 -0.2886  0.8637
  934MOL0     C26009   5.738   8.764   5.145  0.7401 -0.0400  0.2602
  934MOL0     C26010   5.800   8.876   5.206  0.3864 -0.0420 -0.4191
  934MOL0     C26011   5.728   8.993   5.234  0.2400 -0.0425 -0.6144
  934MOL0     C26012   5.584   8.997   5.215 -0.5935  0.1445 -0.0165
  934MOL0     O26013   5.508   9.108   5.248  0.0726  1.0897 -0.1724
  934MOL0     C26014   5.540   9.192   5.355  0.1105  0.6396 -0.3405
  934MOL0     C26015   5.451   9.313   5.368 -0.5828 -0.6644  0.0731
  934MOL0     C26016   5.475   9.386   5.495 -1.2460  0.8422  0.6079
  934MOL0     C26017   5.393   9.522   5.487 -0.1560  0.6310 -0.7967
  934MOL0     C26018   5.253   9.502   5.469  0.1000 -0.2814 -0.3801
  934MOL0     C26019   5.134   9.484   5.480  0.1863  0.2025  0.6039
  934MOL0     C26020   5.524   8.890   5.153 -0.1505  0.4423  0.5247
  934MOL0     C26021   5.598   8.776   5.112 -0.0085  0.6616 -0.1360
  934MOL0     C26022   5.520   8.669   5.040 -0.2948  0.5560  0.0106
  934MOL0     H26023   6.170   8.683   5.223 -2.5199 -1.0909  1.2506
  934MOL0     H26024   6.361   8.541   5.190  0.2013 -0.3238 -1.4575
  934MOL0     H26025   6.505   8.376   5.160 -2.2311  2.1959 -2.8567
  934MOL0     H26026   6.384   8.245   5.195  0.6632 -0.1428  0.3047
  934MOL0     H26027   6.520   8.125   5.001  3.3187 -3.6501  0.8948
  934MOL0     H26028   6.596   8.131   5.164  1.6080 -0.4215 -1.1516
  934MOL0     H26029   6.731   8.335   5.095  2.5593 -2.5921  1.8530
  934MOL0     H26030   6.688   8.300   4.920  1.1632 -2.0820 -1.0212
  934MOL0     H26031   6.794   8.087   5.100 -0.5578 -1.0767 -1.5375
  934MOL0     H26032   6.783   8.101   4.918 -2.0742  1.0317 -0.1029
  934MOL0     H26033   6.950   8.276   5.092 -1.9688  0.0540  1.2068
  934MOL0     H26034   7.010   8.110   5.055  0.4411 -0.9134 -0.1209
  934MOL0     H26035   6.982   8.157   4.809 -2.6148  0.1461 -0.1884
  934MOL0     H26036   6.915   8.307   4.838 -0.4158 -0.9864 -1.8123
  934MOL0     H26037   7.145   8.335   4.999 -3.3087  2.1127  0.2639
  934MOL0     H26038   7.145   8.389   4.841  0.7070  2.1708  3.2227
  934MOL0     H26039   7.216   8.107   4.897 -2.2351  0.0348 -0.5252
  934MOL0     H26040   7.197   8.178   4.746 -0.5300  1.5915  1.1016
  934MOL0     H26041   7.464   8.101   4.732 -0.0011 -0.5263  1.3545
  934MOL0     H26042   7.769   8.265   4.946 -2.2681  2.1810 -0.8009
  934MOL0     H26043   7.728   8.093   4.915 -0.2320  0.1669  1.6919
  934MOL0     H26044   7.748   8.168   4.686  0.3545  1.6678 -0.3946
  934MOL0     H26045   7.789   8.338   4.739 -5.5177  0.6512  1.0033
  934MOL0     H26046   7.953   8.083   4.798 -0.0796 -0.9908  0.3295
  934MOL0     H26047   7.993   8.254   4.830 -1.8345 -0.6767  0.7828
  934MOL0     H26048   7.992   8.307   4.577  0.3161  2.2594  3.3459
  934MOL0     H26049   7.973   8.127   4.555 -3.4942  0.6352  2.5260
  934MOL0     H26050   8.399   8.228   4.666  0.2453 -1.1270 -0.5374
  934MOL0     H26051   8.565   8.352   4.510  1.1581 -0.2612 -0.4214
  934MOL0     H26052   8.429   8.595   3.947  0.2226  0.8054 -0.2305
  934MOL0     H26053   8.572   8.644   3.763  3.6817  1.0118 -0.7891
  934MOL0     H26054   8.959   8.395   3.770  0.2375  1.3755  1.4422
  934MOL0     H26055   8.977   8.478   3.620 -0.5268  0.6232 -0.4662
  934MOL0     H26056   9.057   8.684   3.724  0.3089 -0.2724 -2.6763
  934MOL0     H26057   9.027   8.605   3.884  0.4587 -0.2935  0.3164
  934MOL0     H26058   9.191   8.430   3.790 -0.5760  0.8533  4.5426
  934MOL0     H26059   9.244   8.560   3.674  2.1026  0.1410  0.7232
  934MOL0     H26060   9.247   8.587   3.981  0.8825 -1.2029  0.2893
  934MOL0     H26061   9.308   8.696   3.859 -2.0177 -0.1956 -0.9621
  934MOL0     H26062   9.421   8.406   3.886  2.6708  0.8266  0.5843
  934MOL0     H26063   9.484   8.539   3.983  0.7912  2.0775 -0.8533
  934MOL0     H26064   9.468   8.525   3.677  2.2925 -1.3312 -0.7701
  934MOL0     H26065   9.563   8.642   3.773  2.5127 -0.7069  0.4516
  934MOL0     H26066   9.697   8.471   3.681 -1.3205 -1.0570 -0.5809
  934MOL0     H26067   9.592   8.345   3.744 -0.3145  0.6336 -1.3194
  934MOL0     H26068   9.674   8.458   3.988 -0.8604 -1.2749  0.9659
  934MOL0     H26069   9.777   8.349   3.889  0.4167  0.0602 -0.3690
  934MOL0     H26070   8.868   8.384   3.948 -0.6729 -0.7367  2.9576
  934MOL0     H26071   8.716   8.365   4.150 -1.2611  1.6188  3.1801
  934MOL0     H26072   8.266   8.388   4.222 -0.5956 -0.8717 -0.3987
  934MOL0     H26073   8.095   8.277   4.365  0.1642  0.6651 -3.7184
  934MOL0     H26074   6.150   8.327   4.885 -1.2545  0.0276  0.7691
  934MOL0     H26075   5.933   8.478   4.946 -0.1347  2.8835  1.6958
  934MOL0     H26076   5.907   8.883   5.224 -0.0715 -0.7118  3.6527
  934MOL0     H26077   5.791   9.068   5.280 -2.9731  4.7061 -3.0782
  934MOL0     H26078   5.644   9.223   5.349  1.0130 -2.0771  0.1467
  934MOL0     H26079   5.540   9.129   5.444  2.9188 -0.0140 -0.7190
  934MOL0     H26080   5.348   9.276   5.366  0.3914 -3.7591  1.2319
  934MOL0     H26081   5.476   9.379   5.284  1.0970  2.0591  2.5249
  934MOL0     H26082   5.578   9.424   5.497 -0.1075 -1.9238 -0.5928
  934MOL0     H26083   5.452   9.325   5.583  1.7374  0.6530  1.3722
  934MOL0     H26084   5.413   9.579   5.578  1.7621 -1.7958  0.4162
  934MOL0     H26085   5.435   9.579   5.404  0.7185  0.3226 -0.5772
  934MOL0     H26086   5.030   9.461   5.485  0.3726 -1.2084 -1.1604
  934MOL0     H26087   5.421   8.912   5.128 -0.5196 -0.1648  1.4712
  934MOL0     H26088   5.416   8.700   5.027 -0.5560 -0.0943  0.4837
  934MOL0     H26089   5.561   8.652   4.940 -0.0295  0.9885  0.0423
  934MOL0     H26090   5.509   8.572   5.089  1.1932 -0.2729 -1.2129
  935MOL0     O26091   3.508  10.422   7.249 -0.3617  0.3760 -1.1071
  935MOL0     C26092   3.431  10.335   7.207  0.4114 -0.5028 -0.3091
  935MOL0     O26093   3.466  10.203   7.193 -0.6001 -0.4814  0.1193
  935MOL0     C26094   3.598  10.167   7.224  0.7039 -0.0662  0.3144
  935MOL0     C26095   3.658  10.075   7.134  0.2684  0.1584  0.0216
  935MOL0     C26096   3.796  10.043   7.147 -0.2831 -0.0812 -0.1409
  935MOL0     C26097   3.866  10.079   7.263  0.6732  0.7653  0.0031
  935MOL0     O26098   3.994  10.058   7.287  0.3160 -0.2417 -0.0833
  935MOL0     C26099   4.069   9.955   7.224 -0.5308 -0.8633  0.1595
  935MOL0     C26100   4.218   9.951   7.270 -0.4383 -0.5925 -0.1468
  935MOL0     C26101   4.240   9.979   7.421 -0.1872 -0.0943  0.0158
  935MOL0     C26102   4.382   9.954   7.468 -0.3011 -1.1994 -0.7330
  935MOL0     C26103   4.393   9.963   7.626 -0.3594 -0.4674  0.0990
  935MOL0     C26104   4.516   9.880   7.681 -0.1778 -0.7818 -0.1930
  935MOL0     C26105   4.514   9.911   7.831 -0.7794 -0.0260  0.4771
  935MOL0     C26106   4.423   9.834   7.917 -0.9211 -0.0721 -0.2311
  935MOL0     N26107   4.412   9.879   8.058  0.2569  0.1339  0.1280
  935MOL0     C26108   4.401  10.014   8.107 -0.4122  0.0886 -0.2231
  935MOL0     C26109   4.435  10.005   8.239 -0.8432 -0.0657  0.7409
  935MOL0     C26110   4.473  10.104   8.338  0.7485  0.8723 -0.2641
  935MOL0     C26111   4.623  10.138   8.338 -0.8232 -1.0154  0.1335
  935MOL0     C26112   4.673  10.202   8.207  0.2805  0.5626  0.2274
  935MOL0     C26113   4.621  10.342   8.164  0.4898 -0.3522 -0.3429
  935MOL0     O26114   4.483  10.323   8.110  0.1252  0.0356 -0.2320
  935MOL0     C26115   4.423  10.435   8.051 -1.1643  0.1244 -0.1575
  935MOL0     C26116   4.290  10.414   8.025  0.3172 -0.7060 -0.4581
  935MOL0     C26117   4.217  10.513   7.971  0.0204  0.0800 -0.7046
  935MOL0     C26118   4.266  10.641   7.948 -0.1817 -0.0085 -0.0333
  935MOL0     C26119   4.185  10.759   7.882 -0.9381 -0.3567  0.5121
  935MOL0     O26120   4.048  10.747   7.882 -0.5015 -0.0262  0.6782
  935MOL0     C26121   3.957  10.847   7.844 -0.2057  0.7266 -0.1779
  935MOL0     C26122   3.842  10.834   7.919 -0.2336  0.1103 -1.0444
  935MOL0     C26123   3.733  10.918   7.905 -0.3910 -0.2672 -0.4094
  935MOL0     C26124   3.737  11.023   7.819  0.0912  0.2466  0.5564
  935MOL0     O26125   3.625  11.095   7.776  0.3454  0.6473  0.5503
  935MOL0     C26126   3.509  11.104   7.866  0.4426  0.2589  0.6888
  935MOL0     C26127   3.521  11.207   7.987 -0.0063  0.9610  0.1255
  935MOL0     C26128   3.393  11.254   8.054 -0.1516  1.0625  1.6149
  935MOL0     C26129   3.409  11.291   8.200  0.5671 -0.8748  0.0904
  935MOL0     C26130   3.285  11.367   8.238 -0.5522  0.0289  0.3224
  935MOL0     C26131   3.286  11.518   8.202  0.2041  0.3751  0.1860
  935MOL0     C26132   3.169  11.607   8.249  0.0136  0.0104  0.1091
  935MOL0     C26133   3.034  11.536   8.255 -0.2418  0.7181 -0.2849
  935MOL0    Cl26134   2.986  11.492   8.086  0.0571  0.3622 -0.0973
  935MOL0     C26135   3.857  11.038   7.745  0.1099 -0.5338 -0.1590
  935MOL0     C26136   3.975  10.957   7.764  0.2601  0.3438  0.5813
  935MOL0     O26137   4.247  10.863   7.842 -0.0565 -0.2788  0.3338
  935MOL0     C26138   4.402  10.668   7.976  1.1405 -0.2643 -0.5395
  935MOL0     C26139   4.482  10.562   8.027  0.3228 -0.0810  0.3967
  935MOL0     N26140   4.475   9.877   8.258 -0.2564  0.5653 -0.9690
  935MOL0     N26141   4.466   9.807   8.154 -0.0504  0.5219 -0.7158
  935MOL0     C26142   3.793  10.157   7.358  0.2817 -0.1583  0.1095
  935MOL0     C26143   3.663  10.204   7.336  0.0917 -0.6316 -0.1694
  935MOL0     C26144   3.292  10.374   7.169  0.0959  0.4882 -0.3664
  935MOL0     C26145   3.221  10.276   7.103  0.6652 -1.0185  0.4551
  935MOL0     C26146   3.096  10.295   7.058 -0.5807 -0.0854  0.1826
  935MOL0     C26147   3.030  10.412   7.083  0.6191 -0.7376  0.1738
  935MOL0     O26148   2.900  10.419   7.045  0.0869 -0.5577  0.2955
  935MOL0     C26149   2.812  10.513   7.119 -0.1673 -0.0928  0.1366
  935MOL0     C26150   2.665  10.456   7.113  0.5536  0.2272  0.0688
  935MOL0     C26151   2.563  10.509   7.210  0.1877 -0.6423  0.6998
  935MOL0     C26152   2.550  10.666   7.234 -0.7465 -0.2937  0.0426
  935MOL0     C26153   2.664  10.731   7.303  0.7474 -0.2535  0.3089
  935MOL0     C26154   2.764  10.776   7.351 -0.0275 -0.4338 -0.5415
  935MOL0     C26155   3.098  10.519   7.160  0.6187 -1.0236  0.3727
  935MOL0     C26156   3.235  10.503   7.205  0.3906 -0.3630 -0.0148
  935MOL0     C26157   3.286  10.609   7.299  0.2417 -0.3741 -0.3001
  935MOL0     H26158   3.601  10.058   7.043  2.8703  0.8127 -1.8492
  935MOL0     H26159   3.844   9.981   7.072 -0.3030 -0.4251  0.1249
  935MOL0     H26160   4.033   9.857   7.257  0.7369 -0.8155  1.8249
  935MOL0     H26161   4.073   9.974   7.116  3.2427  0.2299  0.3277
  935MOL0     H26162   4.264  10.031   7.211  1.1536 -0.4201  1.2573
  935MOL0     H26163   4.255   9.852   7.242  0.1084 -1.1447  2.2802
  935MOL0     H26164   4.166   9.920   7.476 -2.5232  0.3535 -2.4069
  935MOL0     H26165   4.212  10.083   7.435 -2.0377 -0.2206 -2.1665
  935MOL0     H26166   4.413   9.851   7.449  1.6092 -0.6982 -0.5502
  935MOL0     H26167   4.444  10.038   7.435  0.5087 -1.7389 -0.6110
  935MOL0     H26168   4.404  10.069   7.651 -1.9920 -0.4891  0.9928
  935MOL0     H26169   4.305   9.918   7.672 -0.9829  1.4934  0.9113
  935MOL0     H26170   4.517   9.775   7.649  0.5947 -0.6712 -0.5592
  935MOL0     H26171   4.611   9.920   7.642  0.0075 -2.3641 -1.4646
  935MOL0     H26172   4.497  10.017   7.849 -1.5759 -0.3078  1.4547
  935MOL0     H26173   4.613   9.881   7.866 -1.2107 -1.2249  0.7159
  935MOL0     H26174   4.323   9.830   7.874 -1.2665  1.0385  0.4243
  935MOL0     H26175   4.471   9.736   7.926  3.2617  1.7913  0.0509
  935MOL0     H26176   4.371  10.103   8.052 -2.5823 -0.6371 -0.3290
  935MOL0     H26177   4.408  10.191   8.319 -2.8003 -1.2118  1.2785
  935MOL0     H26178   4.447  10.063   8.436  0.2390  0.1775 -0.6779
  935MOL0     H26179   4.649  10.206   8.420  2.4398  1.0049 -2.3432
  935MOL0     H26180   4.680  10.047   8.358 -2.3890 -2.0035  0.2989
  935MOL0     H26181   4.642  10.127   8.133 -2.5679 -0.3340  2.1697
  935MOL0     H26182   4.782  10.215   8.206  0.2040  1.4903  1.6726
  935MOL0     H26183   4.691  10.386   8.092 -2.7643  3.9451 -1.3145
  935MOL0     H26184   4.623  10.401   8.256 -0.6108 -1.0293  0.1293
  935MOL0     H26185   4.248  10.317   8.049  2.2384 -2.1622 -2.4981
  935MOL0     H26186   4.115  10.498   7.938  0.3514 -0.6673 -1.4609
  935MOL0     H26187   3.831  10.758   7.996  0.1337  0.1135 -0.9892
  935MOL0     H26188   3.644  10.903   7.965 -0.6155 -0.4903 -0.7976
  935MOL0     H26189   3.422  11.136   7.809 -1.0374 -4.4635 -0.1268
  935MOL0     H26190   3.487  11.004   7.907  3.5887 -0.4475  0.9071
  935MOL0     H26191   3.580  11.154   8.062  0.3444  1.0850 -0.0599
  935MOL0     H26192   3.574  11.298   7.958  2.5083 -0.6984 -0.8914
  935MOL0     H26193   3.360  11.335   7.987  2.6898  0.5113 -0.6666
  935MOL0     H26194   3.315  11.178   8.052  0.6261  0.1318 -1.8758
  935MOL0     H26195   3.493  11.361   8.208  0.2091 -0.4076 -0.1906
  935MOL0     H26196   3.418  11.210   8.274 -3.3612 -0.0641  1.7011
  935MOL0     H26197   3.283  11.358   8.347  2.1205 -1.6388  0.3346
  935MOL0     H26198   3.203  11.319   8.186  0.7104 -1.1173 -0.6698
  935MOL0     H26199   3.369  11.574   8.247 -1.2627  1.0291  2.2080
  935MOL0     H26200   3.297  11.521   8.093 -1.3139 -0.3205 -0.0166
  935MOL0     H26201   3.171  11.703   8.196 -1.0866 -0.4247 -0.7558
  935MOL0     H26202   3.185  11.639   8.353  0.2949 -2.4231  0.8781
  935MOL0     H26203   3.042  11.457   8.330 -0.7153  0.7945 -0.1494
  935MOL0     H26204   2.965  11.605   8.306 -1.9973  0.0374 -1.6244
  935MOL0     H26205   3.865  11.118   7.672  0.1090 -0.3357  0.0578
  935MOL0     H26206   4.067  10.975   7.709 -0.3240 -0.8162 -0.8046
  935MOL0     H26207   4.438  10.768   7.956 -0.4810  0.6905  1.0222
  935MOL0     H26208   4.588  10.579   8.038  0.5310  0.7076 -2.0483
  935MOL0     H26209   3.842  10.169   7.454 -1.8395 -1.4275  1.4241
  935MOL0     H26210   3.606  10.253   7.414  1.0233 -0.4642  0.4211
  935MOL0     H26211   3.261  10.178   7.084 -0.6435 -1.6356  0.7525
  935MOL0     H26212   3.040  10.213   7.017 -0.2604 -0.9433  1.3917
  935MOL0     H26213   2.820  10.615   7.079  0.0717 -0.2659 -0.2649
  935MOL0     H26214   2.846  10.512   7.223  3.0216 -2.7394 -0.7486
  935MOL0     H26215   2.682  10.350   7.134 -0.9397 -0.1227 -0.4293
  935MOL0     H26216   2.622  10.456   7.013  1.3249 -2.1271 -0.3341
  935MOL0     H26217   2.552  10.458   7.307 -2.4236 -0.8268  0.3805
  935MOL0     H26218   2.470  10.480   7.160  0.7799 -0.7317 -0.3830
  935MOL0     H26219   2.548  10.711   7.135  0.6931 -0.1959  0.0463
  935MOL0     H26220   2.457  10.675   7.292 -2.6041  3.1693 -3.0629
  935MOL0     H26221   2.851  10.810   7.403  0.2397 -0.4520 -0.9754
  935MOL0     H26222   3.056  10.618   7.170  2.7253 -0.1265  0.7935
  935MOL0     H26223   3.216  10.670   7.355  1.3789 -0.7308  1.6255
  935MOL0     H26224   3.353  10.555   7.368  0.4490 -0.5660 -0.6494
  935MOL0     H26225   3.348  10.681   7.245  2.4422 -0.2142  2.2075
  936MOL0     O26226   2.662   9.848   8.578 -0.0227 -0.1420  0.1493
  936MOL0     C26227   2.590   9.791   8.502 -0.1764  0.0355 -0.2141
  936MOL0     O26228   2.625   9.681   8.426  0.9130  0.0557 -1.0194
  936MOL0     C26229   2.750   9.632   8.426  0.7988 -0.6983 -0.2161
  936MOL0     C26230   2.860   9.709   8.385 -0.2014  0.7044 -0.0852
  936MOL0     C26231   2.992   9.662   8.395  0.0733  0.2457  1.0210
  936MOL0     C26232   3.003   9.528   8.438 -0.5108  0.1070 -0.1124
  936MOL0     O26233   3.117   9.453   8.457 -0.3816  0.0553  0.2315
  936MOL0     C26234   3.238   9.524   8.465  0.4219 -0.5518  0.0322
  936MOL0     C26235   3.346   9.415   8.451 -0.5452  0.1931  0.3648
  936MOL0     C26236   3.488   9.461   8.475  0.1450 -0.2558  0.0498
  936MOL0     C26237   3.579   9.360   8.404  0.6858  0.0352 -0.6455
  936MOL0     C26238   3.731   9.407   8.416  0.1788  0.6232 -0.1245
  936MOL0     C26239   3.833   9.336   8.339 -0.1674 -1.1144  0.6165
  936MOL0     C26240   3.808   9.351   8.192  0.9970 -0.6147  0.6314
  936MOL0     C26241   3.771   9.221   8.124 -0.5391 -0.0617  0.1539
  936MOL0     N26242   3.884   9.142   8.071 -0.5893 -0.3944 -0.4666
  936MOL0     C26243   3.963   9.162   7.960  1.0258 -0.5282  0.0956
  936MOL0     C26244   4.041   9.056   7.962 -0.1567 -0.7318  0.3179
  936MOL0     C26245   4.147   9.019   7.863  0.7550 -0.3314  0.3306
  936MOL0     C26246   4.272   9.044   7.935  0.2413 -0.7828  0.3942
  936MOL0     C26247   4.389   9.064   7.830 -0.2670  0.3747 -0.7091
  936MOL0     C26248   4.531   9.070   7.893  0.4608  0.5649  0.1180
  936MOL0     O26249   4.614   9.060   7.776  0.1065  0.1711 -0.5901
  936MOL0     C26250   4.742   9.100   7.798  0.6864  0.3882 -0.1299
  936MOL0     C26251   4.804   9.146   7.678 -0.6454  0.0409 -0.7167
  936MOL0     C26252   4.943   9.190   7.693 -0.1780  0.5916  0.0588
  936MOL0     C26253   5.020   9.174   7.807 -0.7324 -0.3674  0.3160
  936MOL0     C26254   5.156   9.239   7.808 -0.0804 -0.0019 -0.7637
  936MOL0     O26255   5.194   9.335   7.711  0.2751 -0.1890  0.1215
  936MOL0     C26256   5.321   9.388   7.741  0.3033 -0.6833  0.2610
  936MOL0     C26257   5.440   9.329   7.715  1.1022 -0.3171  0.3958
  936MOL0     C26258   5.556   9.399   7.761 -0.7203  0.9645  0.5013
  936MOL0     C26259   5.556   9.524   7.821 -0.2552 -0.8280  0.2752
  936MOL0     O26260   5.679   9.585   7.846 -0.2390 -0.5835  0.3986
  936MOL0     C26261   5.676   9.724   7.894  1.2443  0.1892 -0.3826
  936MOL0     C26262   5.804   9.799   7.897  0.3804 -0.9220  0.2601
  936MOL0     C26263   5.897   9.763   8.011  0.1722  0.1282 -0.9380
  936MOL0     C26264   5.840   9.782   8.151  0.0459 -0.1852  0.0743
  936MOL0     C26265   5.956   9.749   8.249 -0.1685 -0.3851  0.9770
  936MOL0     C26266   5.911   9.743   8.398 -1.0092  0.3701 -0.7368
  936MOL0     C26267   6.023   9.786   8.492  0.1789 -0.5834 -0.8510
  936MOL0     C26268   5.991   9.790   8.645  0.0126  0.3067 -0.2205
  936MOL0    Cl26269   5.966   9.630   8.724 -0.0993 -0.0031 -0.3238
  936MOL0     C26270   5.433   9.577   7.854  0.0894  0.9287  0.0175
  936MOL0     C26271   5.322   9.507   7.808 -0.0075  0.2493 -0.2046
  936MOL0     O26272   5.232   9.190   7.885  0.4250  0.5113 -0.0472
  936MOL0     C26273   4.958   9.118   7.913 -0.0248  0.1290 -0.0182
  936MOL0     C26274   4.821   9.081   7.910 -0.0178  0.3763 -0.8699
  936MOL0     N26275   4.012   8.982   8.071 -0.2061  0.4640 -0.0081
  936MOL0     N26276   3.923   9.039   8.140 -0.1114  1.1935  0.4368
  936MOL0     C26277   2.898   9.447   8.472  0.2708  0.0396 -0.2798
  936MOL0     C26278   2.771   9.502   8.470 -0.1012  0.5981 -0.1536
  936MOL0     C26279   2.453   9.846   8.482  0.2900  0.0282 -0.7621
  936MOL0     C26280   2.352   9.765   8.422 -0.4925  0.2694  0.0479
  936MOL0     C26281   2.227   9.815   8.396 -0.1648  0.0852  0.6574
  936MOL0     C26282   2.196   9.952   8.419 -1.3624  0.7185  0.2988
  936MOL0     O26283   2.086  10.021   8.386  0.1643 -0.1150  0.0925
  936MOL0     C26284   1.997   9.967   8.289  0.4785 -0.2309 -0.2045
  936MOL0     C26285   1.907  10.067   8.226 -0.3552 -0.8270 -0.1939
  936MOL0     C26286   1.839  10.164   8.328 -0.4197 -0.5139  0.0211
  936MOL0     C26287   1.746  10.261   8.265 -0.5133  0.9381  0.9664
  936MOL0     C26288   1.694  10.350   8.366  0.0760 -0.3841  0.7541
  936MOL0     C26289   1.645  10.429   8.449 -0.3730  0.3555  0.3775
  936MOL0     C26290   2.286  10.021   8.493 -0.5113  0.0977 -0.2551
  936MOL0     C26291   2.413   9.967   8.532 -0.0496  0.5080  0.4297
  936MOL0     C26292   2.493  10.061   8.618 -0.3100 -0.4079  0.2104
  936MOL0     H26293   2.845   9.810   8.348 -0.8530  0.3558 -0.8137
  936MOL0     H26294   3.075   9.731   8.382  0.1771  0.4629  2.6264
  936MOL0     H26295   3.247   9.612   8.399  0.5746 -1.4110 -1.1345
  936MOL0     H26296   3.246   9.560   8.568  1.0893 -0.5772 -0.0050
  936MOL0     H26297   3.343   9.372   8.351  0.4651  1.2067 -0.1211
  936MOL0     H26298   3.319   9.338   8.524  0.6490 -0.4665  0.1283
  936MOL0     H26299   3.513   9.467   8.581  0.4341  1.3106 -0.0898
  936MOL0     H26300   3.513   9.561   8.437  0.9730 -0.3658  0.2963
  936MOL0     H26301   3.558   9.260   8.443  2.7196 -0.6550 -1.1476
  936MOL0     H26302   3.557   9.349   8.298  2.1818 -2.5163 -0.7828
  936MOL0     H26303   3.733   9.511   8.382  0.1609  0.8609  0.5915
  936MOL0     H26304   3.752   9.394   8.522 -0.0668 -0.4652 -0.1975
  936MOL0     H26305   3.923   9.394   8.360 -0.2353  1.1144 -3.9753
  936MOL0     H26306   3.846   9.231   8.369  1.0924 -0.5906  1.9764
  936MOL0     H26307   3.893   9.397   8.142 -0.5259  2.7234  0.8260
  936MOL0     H26308   3.723   9.419   8.178 -0.1095 -1.9849  0.4856
  936MOL0     H26309   3.701   9.159   8.180  0.1858 -1.5341 -0.5162
  936MOL0     H26310   3.713   9.251   8.036 -4.0292  0.2167  2.3632
  936MOL0     H26311   3.954   9.245   7.891  1.4425 -1.4195 -1.0506
  936MOL0     H26312   4.134   8.914   7.836 -1.8281 -0.1051  0.3967
  936MOL0     H26313   4.132   9.081   7.774  0.0469  2.1284  2.0296
  936MOL0     H26314   4.267   9.135   7.995 -0.3434  0.8429 -1.9583
  936MOL0     H26315   4.288   8.959   8.002 -0.4193 -0.1777  1.3379
  936MOL0     H26316   4.384   9.149   7.761  0.4195 -0.3795 -1.7246
  936MOL0     H26317   4.394   8.977   7.764  0.8162 -1.3800  1.5288
  936MOL0     H26318   4.544   8.989   7.966 -4.1189 -0.7235 -0.1801
  936MOL0     H26319   4.537   9.165   7.947 -1.3106  0.8883 -0.1979
  936MOL0     H26320   4.741   9.138   7.590 -0.5586 -1.1125 -0.6879
  936MOL0     H26321   4.988   9.222   7.599 -0.4869 -0.1743 -0.3583
  936MOL0     H26322   5.454   9.236   7.660 -0.1599 -0.8434  0.9321
  936MOL0     H26323   5.656   9.358   7.748 -1.7754 -2.5259  2.1685
  936MOL0     H26324   5.610   9.770   7.819  0.3741 -0.9439 -0.3401
  936MOL0     H26325   5.627   9.727   7.992 -1.9379 -1.0776 -1.7755
  936MOL0     H26326   5.851   9.779   7.800 -1.9139  0.5291 -1.2542
  936MOL0     H26327   5.795   9.907   7.909  1.0665 -0.9248  0.8352
  936MOL0     H26328   5.927   9.658   8.000 -1.5299 -0.3464 -1.4280
  936MOL0     H26329   5.986   9.826   8.003 -1.7753  3.2917  0.4401
  936MOL0     H26330   5.763   9.706   8.168  0.4646 -0.7311 -0.4465
  936MOL0     H26331   5.793   9.880   8.163 -3.1469 -1.3428 -1.4705
  936MOL0     H26332   6.026   9.833   8.252  1.2598 -1.5754  2.5956
  936MOL0     H26333   6.015   9.659   8.231  1.3882  0.5856  1.0823
  936MOL0     H26334   5.827   9.813   8.401 -1.5616 -0.2992 -0.1557
  936MOL0     H26335   5.893   9.639   8.423  0.6674  0.5976  1.7641
  936MOL0     H26336   6.053   9.888   8.466 -1.4250  0.4886  1.2049
  936MOL0     H26337   6.111   9.727   8.464  1.0180  0.0518  0.3784
  936MOL0     H26338   6.077   9.842   8.688 -0.1270 -0.1352  0.6113
  936MOL0     H26339   5.892   9.837   8.648  0.4997  1.3718 -0.2392
  936MOL0     H26340   5.417   9.673   7.902  1.2344  0.5695  1.1897
  936MOL0     H26341   5.225   9.552   7.826  0.5460  1.5572 -0.3441
  936MOL0     H26342   5.013   9.117   8.006 -0.6233  0.9263  0.3583
  936MOL0     H26343   4.768   9.045   7.997  2.4131 -2.1344 -0.2597
  936MOL0     H26344   2.922   9.348   8.510  1.6463 -0.2108 -1.6604
  936MOL0     H26345   2.690   9.437   8.500  3.1177 -2.7781  2.1149
  936MOL0     H26346   2.372   9.663   8.389 -1.4230  0.6489 -1.7977
  936MOL0     H26347   2.163   9.740   8.349 -1.8297 -0.3041  3.3606
  936MOL0     H26348   1.941   9.895   8.349  0.5417  2.1776  3.0135
  936MOL0     H26349   2.050   9.920   8.206  4.5436  3.2510  0.0928
  936MOL0     H26350   1.833  10.013   8.165 -0.5563  0.8182 -1.4998
  936MOL0     H26351   1.975  10.129   8.167 -1.1401 -2.2787 -2.7773
  936MOL0     H26352   1.912  10.228   8.380  0.8486  0.4190 -2.7361
  936MOL0     H26353   1.792  10.104   8.407  3.2667 -1.0960  2.0026
  936MOL0     H26354   1.810  10.322   8.200 -0.3243  1.3984  1.5792
  936MOL0     H26355   1.670  10.212   8.203  0.8715  1.4708 -1.2983
  936MOL0     H26356   1.590  10.473   8.529  1.5328  2.2277  0.7479
  936MOL0     H26357   2.278  10.123   8.530  0.5775  0.1427 -0.0937
  936MOL0     H26358   2.501  10.011   8.715 -0.1332 -1.1225 -0.1709
  936MOL0     H26359   2.594  10.078   8.580  0.8151 -0.7599  2.8585
  936MOL0     H26360   2.445  10.157   8.642 -0.8307 -0.7588  0.5893
  937MOL0     O26361   4.898   7.663   6.343  0.4095  0.2975 -0.1629
  937MOL0     C26362   4.899   7.775   6.295  0.5291  0.6117  0.2385
  937MOL0     O26363   5.007   7.853   6.279  0.0721  0.1544 -0.7613
  937MOL0     C26364   5.131   7.809   6.316 -0.5924 -0.3454  0.5891
  937MOL0     C26365   5.196   7.865   6.429  0.7073  0.4817 -0.2134
  937MOL0     C26366   5.328   7.825   6.460  0.4497 -0.4249  0.3383
  937MOL0     C26367   5.386   7.721   6.394 -0.2038 -0.4370 -0.6426
  937MOL0     O26368   5.510   7.678   6.428  0.0089  0.5743  0.3104
  937MOL0     C26369   5.608   7.642   6.322  0.7773 -0.3450 -0.6812
  937MOL0     C26370   5.735   7.621   6.398  0.4251 -0.4412  0.6275
  937MOL0     C26371   5.855   7.578   6.313  0.3693  0.4259  0.4103
  937MOL0     C26372   5.901   7.699   6.217 -0.0137 -1.0112  0.2559
  937MOL0     C26373   5.950   7.819   6.285  0.4924  0.1056  0.0754
  937MOL0     C26374   5.976   7.942   6.198 -0.1731  0.0460  1.2475
  937MOL0     C26375   6.000   8.071   6.274 -0.6305  0.0251 -0.1464
  937MOL0     C26376   6.121   8.071   6.378 -0.4775  0.2648  0.4839
  937MOL0     N26377   6.259   8.036   6.324 -0.6249  0.0630 -0.2977
  937MOL0     C26378   6.301   7.912   6.284 -0.5146  0.8711  0.2389
  937MOL0     C26379   6.434   7.926   6.243  0.4766  0.1761  0.0045
  937MOL0     C26380   6.514   7.813   6.187  0.3615 -0.3331 -0.7527
  937MOL0     C26381   6.654   7.848   6.159  0.0577 -0.2919  0.5139
  937MOL0     C26382   6.734   7.724   6.116  0.3808 -0.1381 -0.6923
  937MOL0     C26383   6.879   7.750   6.126  0.4053  0.1367 -1.4385
  937MOL0     O26384   6.942   7.625   6.102 -0.0746  0.5429  0.9267
  937MOL0     C26385   7.076   7.601   6.111 -0.2830 -0.6355 -0.0739
  937MOL0     C26386   7.164   7.686   6.167 -0.3038  0.5110 -0.3124
  937MOL0     C26387   7.305   7.666   6.170 -0.6135  0.2229  0.0894
  937MOL0     C26388   7.352   7.551   6.105  0.1807  0.3284 -0.3807
  937MOL0     C26389   7.497   7.523   6.100  0.1635  0.2173 -0.0801
  937MOL0     O26390   7.587   7.598   6.162 -0.5446 -0.2971 -0.1365
  937MOL0     C26391   7.719   7.555   6.156  1.0554 -0.6946  0.6842
  937MOL0     C26392   7.773   7.486   6.264  0.5096 -0.8345 -0.7170
  937MOL0     C26393   7.902   7.436   6.264 -1.6718  1.4958  0.1079
  937MOL0     C26394   7.977   7.427   6.141  0.0428 -0.2754  0.2303
  937MOL0     O26395   8.095   7.367   6.107 -0.4227 -0.6325  0.0927
  937MOL0     C26396   8.161   7.292   6.218 -0.1370  0.4445  0.7041
  937MOL0     C26397   8.263   7.381   6.284 -0.9299 -0.3694 -0.2852
  937MOL0     C26398   8.365   7.293   6.368 -0.1772 -0.6009 -0.3104
  937MOL0     C26399   8.291   7.234   6.496  0.0050  0.3200  0.2405
  937MOL0     C26400   8.379   7.226   6.626  0.1589 -0.1900  0.1920
  937MOL0     C26401   8.471   7.112   6.589  0.1587  0.1250 -0.9691
  937MOL0     C26402   8.568   7.063   6.702  0.9305 -0.2763 -0.6034
  937MOL0     C26403   8.689   6.979   6.644 -0.6607  0.4174 -0.2996
  937MOL0    Cl26404   8.613   6.812   6.596 -0.0496  0.4775 -0.0987
  937MOL0     C26405   7.912   7.476   6.028  0.1766  1.1770  0.4528
  937MOL0     C26406   7.789   7.540   6.034 -0.2123 -0.5643 -0.5121
  937MOL0     O26407   7.513   7.419   6.035 -0.6781 -0.9242 -0.1630
  937MOL0     C26408   7.257   7.476   6.034 -0.1968 -0.4847 -0.1245
  937MOL0     C26409   7.118   7.503   6.043 -0.1768  0.5068  0.2903
  937MOL0     N26410   6.463   8.057   6.249  0.3923 -0.2297  0.3608
  937MOL0     N26411   6.362   8.118   6.300  0.3193  0.1971 -0.1231
  937MOL0     C26412   5.326   7.673   6.283  0.0745  0.5453  0.8331
  937MOL0     C26413   5.201   7.715   6.245  0.1502 -0.3977  0.7335
  937MOL0     C26414   4.771   7.820   6.234 -0.6538  0.6044  0.7354
  937MOL0     C26415   4.783   7.886   6.106  0.0857  0.0892  0.0780
  937MOL0     C26416   4.666   7.930   6.042  0.0293  0.3098 -0.4299
  937MOL0     C26417   4.539   7.915   6.106  0.1841 -0.6058  0.3322
  937MOL0     O26418   4.411   7.938   6.049  0.2924  0.1409 -0.1699
  937MOL0     C26419   4.401   7.992   5.917  1.2339  0.5189 -0.5940
  937MOL0     C26420   4.278   7.934   5.854  0.4159 -0.2173  0.1293
  937MOL0     C26421   4.156   7.995   5.922  0.0771 -0.2544 -0.3345
  937MOL0     C26422   4.030   7.919   5.888 -0.5767 -0.6824 -0.0645
  937MOL0     C26423   4.019   7.776   5.928  0.0513  0.0908  0.0645
  937MOL0     C26424   4.017   7.661   5.963 -0.8365  0.7677 -0.1232
  937MOL0     C26425   4.534   7.858   6.226 -0.7345  0.2702 -0.4976
  937MOL0     C26426   4.645   7.810   6.294  0.5071  0.2770  0.5556
  937MOL0     C26427   4.632   7.742   6.428  0.2667 -0.3170  0.2596
  937MOL0     H26428   5.139   7.945   6.477 -0.1834  0.7357 -1.6435
  937MOL0     H26429   5.384   7.871   6.541  1.3294 -0.5858 -0.1629
  937MOL0     H26430   5.580   7.548   6.274 -0.7697 -0.5717  0.5691
  937MOL0     H26431   5.615   7.721   6.248 -2.4758 -0.0220 -0.7502
  937MOL0     H26432   5.727   7.541   6.471  0.7728 -1.4027 -0.3517
  937MOL0     H26433   5.759   7.714   6.450 -4.8732  3.2128 -2.4365
  937MOL0     H26434   5.821   7.493   6.254  0.2785  0.7708 -0.0423
  937MOL0     H26435   5.947   7.545   6.362 -0.1334 -2.7011 -0.5653
  937MOL0     H26436   5.981   7.663   6.152  1.5671  1.5659  0.6552
  937MOL0     H26437   5.818   7.745   6.163  0.5364 -1.6943 -1.2046
  937MOL0     H26438   5.870   7.863   6.346 -1.7721  0.1865 -2.7386
  937MOL0     H26439   6.026   7.792   6.359  0.7419 -0.7945 -0.5057
  937MOL0     H26440   6.056   7.937   6.124 -1.3040 -4.8013 -0.0629
  937MOL0     H26441   5.880   7.954   6.147  0.0404 -1.8208  0.3288
  937MOL0     H26442   5.908   8.090   6.331 -0.7054  0.4835 -0.4241
  937MOL0     H26443   5.994   8.151   6.201  0.4841 -0.2734 -0.5791
  937MOL0     H26444   6.129   8.172   6.420 -3.0804  0.2693  1.1599
  937MOL0     H26445   6.106   8.005   6.464  8.3702 -2.5735  0.8103
  937MOL0     H26446   6.237   7.825   6.277  1.4835 -0.6641  0.2084
  937MOL0     H26447   6.530   7.733   6.261  2.7910 -0.5753 -1.4353
  937MOL0     H26448   6.455   7.779   6.102  2.9451 -1.8545 -2.0632
  937MOL0     H26449   6.642   7.901   6.064 -2.2294 -0.5941  0.5759
  937MOL0     H26450   6.694   7.899   6.247 -1.6271 -3.5734  3.4431
  937MOL0     H26451   6.704   7.709   6.011 -2.5971 -0.0881  0.0664
  937MOL0     H26452   6.701   7.633   6.168 -2.5670  3.1209  3.8450
  937MOL0     H26453   6.891   7.788   6.228 -0.7215 -1.8813 -0.5062
  937MOL0     H26454   6.909   7.834   6.062  3.8275  2.2924  2.4964
  937MOL0     H26455   7.114   7.766   6.221 -1.5725 -0.1877 -0.4219
  937MOL0     H26456   7.368   7.740   6.219 -0.3001  1.8094 -2.5196
  937MOL0     H26457   7.714   7.467   6.353  1.9475 -1.5299  0.1278
  937MOL0     H26458   7.930   7.384   6.355 -0.2069  2.1305  0.0432
  937MOL0     H26459   8.089   7.250   6.290 -2.4312  0.3460 -1.5110
  937MOL0     H26460   8.210   7.209   6.166 -2.1736  1.0121 -2.3767
  937MOL0     H26461   8.325   7.425   6.205  1.2014 -1.3571  0.7612
  937MOL0     H26462   8.212   7.454   6.348 -0.3365 -0.1429 -0.0668
  937MOL0     H26463   8.406   7.212   6.308  4.2112  2.1101 -1.4568
  937MOL0     H26464   8.447   7.359   6.397 -0.9019  0.3435 -0.3340
  937MOL0     H26465   8.243   7.137   6.480 -1.8141  1.4278 -1.5378
  937MOL0     H26466   8.203   7.296   6.515 -0.1431  0.0081  0.6141
  937MOL0     H26467   8.314   7.212   6.713 -1.1648  1.9691 -0.3546
  937MOL0     H26468   8.431   7.322   6.639 -1.9957  2.0770 -4.8350
  937MOL0     H26469   8.415   7.019   6.576 -1.7998  1.2868 -1.1677
  937MOL0     H26470   8.536   7.132   6.503  0.8587  0.4916 -0.3700
  937MOL0     H26471   8.515   7.005   6.778 -0.3515  0.8065 -0.6293
  937MOL0     H26472   8.604   7.156   6.747  0.3613  0.9437 -2.5571
  937MOL0     H26473   8.738   7.031   6.562 -1.8139  1.4596 -0.3656
  937MOL0     H26474   8.763   6.971   6.724  0.7731 -0.3177 -1.6422
  937MOL0     H26475   7.977   7.496   5.944  2.4686  0.9599  2.0761
  937MOL0     H26476   7.741   7.586   5.948  1.7711  6.8024  1.6257
  937MOL0     H26477   7.287   7.381   5.991  2.6136  1.5490 -3.0728
  937MOL0     H26478   7.049   7.437   5.992  2.3846 -2.3113  0.1994
  937MOL0     H26479   5.379   7.598   6.224  1.3215  1.3457  0.8905
  937MOL0     H26480   5.146   7.673   6.161  3.4666 -3.6922 -0.0273
  937MOL0     H26481   4.873   7.908   6.051 -0.1833  0.6428 -0.1494
  937MOL0     H26482   4.678   7.972   5.942  0.1488 -2.2897 -1.5960
  937MOL0     H26483   4.486   7.965   5.854 -0.0131 -3.0405 -0.9626
  937MOL0     H26484   4.393   8.101   5.917 -4.1282  0.4331  1.4539
  937MOL0     H26485   4.292   7.826   5.852  1.3608 -0.2250  2.6021
  937MOL0     H26486   4.271   7.972   5.752 -1.6170 -2.1802 -0.5229
  937MOL0     H26487   4.154   8.103   5.906 -1.3931 -0.2258 -0.0766
  937MOL0     H26488   4.163   7.986   6.031 -1.3505  0.6352 -0.1446
  937MOL0     H26489   3.951   7.986   5.922 -0.5724  1.2788 -3.4821
  937MOL0     H26490   4.031   7.916   5.779 -0.0251 -0.3246 -0.0722
  937MOL0     H26491   3.999   7.565   6.007 -0.9089  0.7017 -0.2957
  937MOL0     H26492   4.432   7.855   6.262 -0.5172  1.7564  0.3202
  937MOL0     H26493   4.675   7.642   6.435  0.9707 -0.0576 -0.2905
  937MOL0     H26494   4.675   7.814   6.498  1.0668 -0.4960 -0.0345
  937MOL0     H26495   4.526   7.728   6.453 -0.4797  2.6609 -0.8739
  938MOL0     O26496  10.884   8.852   3.534 -0.2877  0.3621  0.3664
  938MOL0     C26497  10.767   8.867   3.578 -0.6688  0.1787  0.2127
  938MOL0     O26498  10.735   8.933   3.696  0.6825 -0.1264  0.0515
  938MOL0     C26499  10.844   8.985   3.770  1.0528 -0.5281  0.4183
  938MOL0     C26500  10.932   9.078   3.715 -0.6635 -0.2314  0.0406
  938MOL0     C26501  11.041   9.112   3.791  0.1832 -0.7985  1.4446
  938MOL0     C26502  11.063   9.061   3.920  0.2816 -0.4924 -0.4634
  938MOL0     O26503  11.186   9.093   3.976 -0.6473  0.3275 -0.0497
  938MOL0     C26504  11.183   9.074   4.119 -0.2592  0.2961 -1.0207
  938MOL0     C26505  11.306   9.130   4.181 -0.3676 -0.3559 -0.7884
  938MOL0     C26506  11.426   9.060   4.142  0.0052 -0.3975  0.0271
  938MOL0     C26507  11.549   9.124   4.199  0.1392  0.2376  0.0236
  938MOL0     C26508  11.684   9.102   4.125 -0.5934 -0.0692  0.1042
  938MOL0     C26509  11.712   8.950   4.118 -0.3713  0.2537  0.1515
  938MOL0     C26510  11.856   8.926   4.078  0.0276 -0.0065 -0.2870
  938MOL0     C26511  11.894   8.781   4.094  0.1186  0.3496 -0.2128
  938MOL0     N26512  11.927   8.747   4.237 -0.0005 -0.2860  0.0910
  938MOL0     C26513  12.041   8.783   4.299  0.3397  0.0509 -0.1233
  938MOL0     C26514  12.033   8.724   4.422 -0.2806 -0.1748 -0.6348
  938MOL0     C26515  12.136   8.727   4.531 -0.2764 -0.4681  0.0168
  938MOL0     C26516  12.162   8.580   4.568  0.7177 -0.1668  1.0186
  938MOL0     C26517  12.067   8.542   4.685 -0.0326  0.1781  0.0973
  938MOL0     C26518  12.004   8.407   4.659 -0.7676  0.3631  0.0168
  938MOL0     O26519  12.087   8.290   4.637 -0.0221  0.1658  0.1582
  938MOL0     C26520  12.138   8.225   4.748 -0.2052 -0.0053  0.5069
  938MOL0     C26521  12.250   8.269   4.819 -0.2289 -1.3362 -0.1794
  938MOL0     C26522  12.289   8.199   4.934  0.2088  1.3082  0.4148
  938MOL0     C26523  12.229   8.072   4.964  0.3155  0.1011 -0.0247
  938MOL0     C26524  12.288   7.975   5.059  0.1454  0.6276  0.0484
  938MOL0     O26525  12.416   8.008   5.096 -0.4772  0.0905  0.5224
  938MOL0     C26526  12.496   7.916   5.166 -1.4667  0.8119 -0.3202
  938MOL0     C26527  12.635   7.908   5.149  0.3157  0.4194 -0.2500
  938MOL0     C26528  12.713   7.825   5.228 -0.0899  0.3872  0.5153
  938MOL0     C26529  12.653   7.734   5.316  0.2152  0.1222 -0.5935
  938MOL0     O26530  12.731   7.634   5.378 -0.6005 -0.4599 -0.4414
  938MOL0     C26531  12.755   7.652   5.518  0.0205 -0.2868  0.9252
  938MOL0     C26532  12.844   7.544   5.585  0.3571  0.6189  0.0979
  938MOL0     C26533  12.956   7.484   5.496 -0.4608  0.2652  0.1502
  938MOL0     C26534  13.044   7.578   5.410  0.2825 -0.1476  0.3236
  938MOL0     C26535  13.148   7.518   5.324  0.0608  0.3611 -0.6184
  938MOL0     C26536  13.231   7.416   5.397 -0.5872 -0.4998  0.1075
  938MOL0     C26537  13.327   7.359   5.279  0.5053  0.0160 -0.5489
  938MOL0     C26538  13.461   7.324   5.337  0.8177  0.5772  0.1863
  938MOL0    Cl26539  13.548   7.230   5.222  0.0618 -0.1294  0.1765
  938MOL0     C26540  12.520   7.755   5.343  0.6378 -0.0188  0.1227
  938MOL0     C26541  12.442   7.851   5.275 -0.2672  0.4204 -0.6033
  938MOL0     O26542  12.224   7.873   5.093  0.1044  0.0245  0.5964
  938MOL0     C26543  12.116   8.030   4.886 -0.1031 -0.3085  0.2081
  938MOL0     C26544  12.071   8.110   4.777  0.7603 -0.3356 -0.0849
  938MOL0     N26545  11.910   8.648   4.419  0.0725 -0.5887 -0.1063
  938MOL0     N26546  11.846   8.663   4.306 -0.5566  0.0555 -0.9620
  938MOL0     C26547  10.977   8.964   3.969  0.6895 -0.1844 -1.1303
  938MOL0     C26548  10.864   8.930   3.895 -0.4043  0.4773  0.1879
  938MOL0     C26549  10.656   8.818   3.491 -0.2654 -0.3246 -0.9331
  938MOL0     C26550  10.534   8.812   3.563  0.4217  0.0837 -1.5054
  938MOL0     C26551  10.415   8.758   3.509  0.2708  0.0202 -0.6025
  938MOL0     C26552  10.419   8.707   3.377 -0.5002  0.5129  0.4795
  938MOL0     O26553  10.305   8.641   3.333  0.2049  0.0738 -0.1611
  938MOL0     C26554  10.303   8.593   3.190 -0.4152  0.4368 -0.2570
  938MOL0     C26555  10.159   8.525   3.165 -0.7340 -0.5349 -0.2272
  938MOL0     C26556  10.062   8.620   3.107  0.7224 -0.3669  0.6328
  938MOL0     C26557   9.913   8.574   3.101  0.5862  0.1182 -0.6879
  938MOL0     C26558   9.879   8.450   3.032  0.0496  0.6011 -0.4974
  938MOL0     C26559   9.837   8.350   2.981 -0.4460  0.5994  0.2835
  938MOL0     C26560  10.536   8.721   3.309  0.4928 -0.1630  0.1469
  938MOL0     C26561  10.654   8.779   3.356  1.5293 -0.5287 -0.4325
  938MOL0     C26562  10.784   8.794   3.270  0.7118  0.0711  0.1612
  938MOL0     H26563  10.922   9.110   3.611  1.9627 -1.1065 -0.5636
  938MOL0     H26564  11.127   9.159   3.743 -2.0058 -0.7741 -2.9087
  938MOL0     H26565  11.090   9.120   4.155  0.2907  1.3386 -0.8850
  938MOL0     H26566  11.173   8.975   4.166  1.4561  1.3496  1.8835
  938MOL0     H26567  11.306   9.124   4.290 -1.0986 -1.0665 -0.8180
  938MOL0     H26568  11.314   9.234   4.147  2.8223  0.3036  1.4990
  938MOL0     H26569  11.439   9.059   4.033  0.7097 -3.0763  0.0739
  938MOL0     H26570  11.421   8.956   4.175  1.8668  0.1425  2.2633
  938MOL0     H26571  11.541   9.233   4.199 -1.5471  0.1303 -0.5293
  938MOL0     H26572  11.570   9.092   4.301 -0.1465  2.4102  0.7973
  938MOL0     H26573  11.677   9.141   4.023  1.5709  0.2428  0.0181
  938MOL0     H26574  11.766   9.148   4.182  2.0964 -1.6261 -2.2011
  938MOL0     H26575  11.682   8.916   4.217 -2.7122 -0.0798 -0.5928
  938MOL0     H26576  11.643   8.903   4.047 -0.5190 -2.3541  1.8789
  938MOL0     H26577  11.917   8.997   4.134 -0.6048 -0.2277  0.6993
  938MOL0     H26578  11.859   8.942   3.970 -1.2846 -4.5319 -1.2184
  938MOL0     H26579  11.811   8.718   4.062  1.2837 -1.0031 -0.6463
  938MOL0     H26580  11.973   8.759   4.022 -1.7414  0.5746 -2.4575
  938MOL0     H26581  12.120   8.850   4.266  0.5650  0.2643  0.8395
  938MOL0     H26582  12.227   8.774   4.492 -1.3952  1.6108 -0.2520
  938MOL0     H26583  12.088   8.787   4.609 -0.1223  0.5339 -0.6472
  938MOL0     H26584  12.142   8.512   4.485 -3.1373  1.5018  0.3595
  938MOL0     H26585  12.266   8.562   4.598  0.6214 -0.2236  1.3305
  938MOL0     H26586  11.994   8.619   4.713  1.0278  1.2331  0.0395
  938MOL0     H26587  12.126   8.527   4.776  2.3163 -0.6309 -1.4801
  938MOL0     H26588  11.930   8.424   4.579  1.0505 -4.5155 -3.1797
  938MOL0     H26589  11.948   8.383   4.750  0.7424  2.2046  1.5020
  938MOL0     H26590  12.301   8.361   4.793 -3.3201  0.6122  0.0538
  938MOL0     H26591  12.383   8.223   4.984  0.8736 -1.9368  0.9739
  938MOL0     H26592  12.690   7.962   5.073 -0.6502  2.2748  0.3047
  938MOL0     H26593  12.818   7.812   5.201 -0.2851 -0.3706  0.0751
  938MOL0     H26594  12.805   7.748   5.531  0.1934 -0.0473 -1.1572
  938MOL0     H26595  12.658   7.646   5.568 -1.8979 -2.4297 -2.6297
  938MOL0     H26596  12.899   7.595   5.664  2.6081 -1.3161 -0.1213
  938MOL0     H26597  12.776   7.468   5.625 -3.3210  4.2566  1.4609
  938MOL0     H26598  13.031   7.447   5.566  2.4504  4.2913 -0.4813
  938MOL0     H26599  12.905   7.404   5.442  0.5735 -1.2867  1.3648
  938MOL0     H26600  13.089   7.648   5.480 -2.8346  4.1257 -1.5116
  938MOL0     H26601  12.968   7.623   5.345  0.9757  0.7381  0.1189
  938MOL0     H26602  13.209   7.596   5.279 -1.4509  3.0792  1.6438
  938MOL0     H26603  13.103   7.456   5.245  2.7893 -2.3021 -0.2559
  938MOL0     H26604  13.286   7.473   5.472  1.7786  0.5014 -2.2337
  938MOL0     H26605  13.179   7.329   5.439  1.7518 -1.0481  2.0645
  938MOL0     H26606  13.316   7.430   5.196  0.9459  0.8484  0.0877
  938MOL0     H26607  13.281   7.269   5.238 -0.2733  0.8553 -1.5795
  938MOL0     H26608  13.515   7.417   5.357  0.9906  0.1796  1.7223
  938MOL0     H26609  13.455   7.263   5.428  1.7005  0.7731  0.3775
  938MOL0     H26610  12.479   7.678   5.408  1.6124 -0.8644 -0.2346
  938MOL0     H26611  12.344   7.876   5.316 -1.2979  0.6546 -3.0710
  938MOL0     H26612  12.068   7.936   4.910  1.9178 -1.8935 -1.6161
  938MOL0     H26613  11.984   8.075   4.721 -1.1501  3.7566 -0.0428
  938MOL0     H26614  10.987   8.905   4.060  1.8183  0.2897 -0.9286
  938MOL0     H26615  10.799   8.852   3.934  0.3231  0.2914  1.0636
  938MOL0     H26616  10.532   8.846   3.666  1.6130 -1.1079 -1.0580
  938MOL0     H26617  10.318   8.763   3.558  1.1083 -0.8381  1.2169
  938MOL0     H26618  10.384   8.520   3.179 -0.0985  0.7172  0.1951
  938MOL0     H26619  10.324   8.675   3.120  1.4551  0.4946  0.3249
  938MOL0     H26620  10.138   8.492   3.267  1.2988  2.1003  1.1813
  938MOL0     H26621  10.173   8.444   3.093 -2.2948  0.0383 -1.2313
  938MOL0     H26622  10.089   8.634   3.002 -1.4324 -2.6984 -0.3329
  938MOL0     H26623  10.076   8.709   3.169  2.7379  0.6925 -1.2239
  938MOL0     H26624   9.877   8.564   3.204  3.3705  0.0675  0.3750
  938MOL0     H26625   9.862   8.660   3.056  0.8903 -0.3977 -2.0559
  938MOL0     H26626   9.799   8.262   2.933 -1.2205  1.3228 -0.4610
  938MOL0     H26627  10.539   8.696   3.203 -2.8313 -0.2653 -0.0393
  938MOL0     H26628  10.760   8.757   3.170  0.5243  0.4554  0.0610
  938MOL0     H26629  10.815   8.898   3.269  3.2933 -0.5794  2.1386
  938MOL0     H26630  10.875   8.745   3.307  0.9904  0.1111 -0.4578
  939MOL0     O26631   9.591   4.025   9.435 -0.3695 -0.9847 -0.0318
  939MOL0     C26632   9.619   4.130   9.381 -0.4827 -0.4341  0.0255
  939MOL0     O26633   9.521   4.224   9.339  0.2277  0.0964 -0.6748
  939MOL0     C26634   9.391   4.185   9.357 -0.2818 -0.7153  0.1633
  939MOL0     C26635   9.343   4.082   9.287  0.1752 -0.1859 -0.3629
  939MOL0     C26636   9.207   4.058   9.298 -0.2714  0.2415 -0.1223
  939MOL0     C26637   9.123   4.117   9.395 -0.4884  0.1817  0.1271
  939MOL0     O26638   9.004   4.065   9.414  0.0123 -0.5753  0.0845
  939MOL0     C26639   9.001   3.987   9.535  0.6446 -0.2126 -0.0030
  939MOL0     C26640   8.877   3.886   9.554  0.2388 -0.2489 -0.4104
  939MOL0     C26641   8.899   3.763   9.472 -0.5963 -0.0878  0.7045
  939MOL0     C26642   8.863   3.781   9.320  0.6383  0.7991 -0.1657
  939MOL0     C26643   8.891   3.653   9.244 -0.7125 -0.4335  0.3647
  939MOL0     C26644   8.895   3.664   9.094 -0.0553  0.0666 -0.2813
  939MOL0     C26645   8.752   3.680   9.042 -0.5138 -0.3539 -0.1209
  939MOL0     C26646   8.738   3.727   8.897 -1.1339 -1.6392 -0.4144
  939MOL0     N26647   8.801   3.862   8.876  0.0123  0.4323 -0.7244
  939MOL0     C26648   8.737   3.983   8.891  0.4563 -0.4051 -0.0672
  939MOL0     C26649   8.823   4.083   8.854 -0.3515  0.5977  0.5339
  939MOL0     C26650   8.811   4.237   8.852  0.5685 -0.4370  0.1011
  939MOL0     C26651   8.866   4.290   8.976  0.1201 -0.8349  0.2709
  939MOL0     C26652   9.020   4.284   9.004  0.8667 -0.1467 -0.2117
  939MOL0     C26653   9.058   4.358   9.134 -0.3438  0.0736  0.0128
  939MOL0     O26654   9.073   4.499   9.105 -0.0780 -1.0112  0.0696
  939MOL0     C26655   9.198   4.558   9.114  0.0803 -0.6997  0.0188
  939MOL0     C26656   9.301   4.488   9.062 -0.1644  0.4900  0.6227
  939MOL0     C26657   9.435   4.524   9.083 -0.2964 -0.3489 -0.3348
  939MOL0     C26658   9.469   4.635   9.161  0.3617  0.4528  0.4192
  939MOL0     C26659   9.614   4.682   9.154  0.1733  0.8224  0.0244
  939MOL0     O26660   9.628   4.799   9.231  0.5517 -0.7636  0.5495
  939MOL0     C26661   9.752   4.839   9.234 -1.0640  0.2179  0.4434
  939MOL0     C26662   9.833   4.807   9.341  0.6473  0.5524  0.4161
  939MOL0     C26663   9.968   4.856   9.361  0.1500  0.7601 -0.4281
  939MOL0     C26664  10.016   4.947   9.265  0.3917 -0.2601 -0.3351
  939MOL0     O26665  10.140   4.999   9.281 -0.4535  0.1544 -0.3402
  939MOL0     C26666  10.211   5.048   9.164 -0.3779 -0.4704  0.7661
  939MOL0     C26667  10.349   5.091   9.218 -0.0918  0.6266  0.0973
  939MOL0     C26668  10.429   5.185   9.122  1.0273  0.2023  0.3654
  939MOL0     C26669  10.480   5.116   8.986  0.5151 -0.4538  0.0089
  939MOL0     C26670  10.579   5.196   8.887  0.8778  0.1568 -0.2053
  939MOL0     C26671  10.728   5.169   8.931 -0.6745  0.1679  0.5693
  939MOL0     C26672  10.815   5.219   8.811  0.6136 -1.2894 -0.9766
  939MOL0     C26673  10.947   5.152   8.826 -0.4482 -0.6350 -0.2206
  939MOL0    Cl26674  11.044   5.207   8.681 -0.1329  0.0103 -0.1060
  939MOL0     C26675   9.933   4.986   9.154  0.7035  0.4265 -0.9642
  939MOL0     C26676   9.805   4.925   9.141 -0.2069 -0.7879 -0.4934
  939MOL0     O26677   9.699   4.636   9.079 -0.1259  0.2053  0.5320
  939MOL0     C26678   9.358   4.704   9.222  0.8523  0.2865 -0.2181
  939MOL0     C26679   9.230   4.666   9.191 -0.2960  0.1349  0.3443
  939MOL0     N26680   8.937   4.011   8.815 -0.0760 -0.3211  0.0967
  939MOL0     N26681   8.926   3.887   8.836 -1.2743 -0.5066 -0.6893
  939MOL0     C26682   9.174   4.218   9.471  0.4468  0.3216  0.4703
  939MOL0     C26683   9.306   4.262   9.444 -0.2296 -0.0851 -0.3209
  939MOL0     C26684   9.769   4.142   9.359  0.1904 -0.0522 -0.4353
  939MOL0     C26685   9.854   4.023   9.345 -0.1159 -0.7489  1.3260
  939MOL0     C26686   9.986   4.039   9.304  0.6652 -0.5238 -0.1863
  939MOL0     C26687  10.044   4.165   9.301 -0.2029 -0.2859  0.0373
  939MOL0     O26688  10.182   4.169   9.277 -0.3366  0.9300 -0.4799
  939MOL0     C26689  10.260   4.267   9.340 -0.0135 -0.7201  0.4123
  939MOL0     C26690  10.404   4.231   9.330 -0.1976  0.3932  0.1778
  939MOL0     C26691  10.497   4.359   9.343  1.0423  0.4048  0.1941
  939MOL0     C26692  10.644   4.326   9.305  0.8032  0.0553 -0.4681
  939MOL0     C26693  10.742   4.406   9.369  0.2411 -1.2567 -0.4121
  939MOL0     C26694  10.820   4.490   9.417  0.1297  0.2136  0.6994
  939MOL0     C26695   9.973   4.285   9.318 -0.4935 -0.4576 -0.2848
  939MOL0     C26696   9.836   4.272   9.354 -0.0540  0.2807  0.1535
  939MOL0     C26697   9.760   4.401   9.384 -0.2479  0.6232 -0.3085
  939MOL0     H26698   9.403   4.032   9.211 -1.4417  0.8160 -2.4024
  939MOL0     H26699   9.166   3.983   9.231 -1.2674 -0.8137  1.5847
  939MOL0     H26700   9.096   3.933   9.543  2.7753  3.2481  0.4227
  939MOL0     H26701   9.001   4.056   9.620  4.4437  0.8091 -0.5936
  939MOL0     H26702   8.781   3.934   9.536 -0.0205 -1.0588 -1.2481
  939MOL0     H26703   8.874   3.849   9.657  0.4439  1.9022  0.4165
  939MOL0     H26704   8.828   3.689   9.510 -0.3366 -1.5155 -1.4601
  939MOL0     H26705   9.003   3.736   9.487 -1.1869 -2.8419  0.3367
  939MOL0     H26706   8.755   3.795   9.306  0.7851  1.3346 -0.7610
  939MOL0     H26707   8.909   3.867   9.272 -0.6226  0.4840 -2.0612
  939MOL0     H26708   8.989   3.621   9.281  0.0959  0.6182 -0.7893
  939MOL0     H26709   8.820   3.577   9.279 -2.4672  0.9484 -0.0451
  939MOL0     H26710   8.956   3.752   9.070 -0.9953  1.1841  1.2579
  939MOL0     H26711   8.944   3.583   9.039  0.8966  1.2930 -1.3127
  939MOL0     H26712   8.701   3.762   9.094  1.5192  0.0302  1.4049
  939MOL0     H26713   8.694   3.589   9.059 -0.9064 -0.0031  0.4713
  939MOL0     H26714   8.780   3.651   8.830  1.2431  0.3723 -1.4079
  939MOL0     H26715   8.631   3.742   8.880 -0.7844 -0.8305 -2.2066
  939MOL0     H26716   8.631   3.987   8.916 -0.1285 -1.8620 -2.0353
  939MOL0     H26717   8.869   4.277   8.768  0.4982  1.7603  1.0286
  939MOL0     H26718   8.706   4.266   8.845 -0.1607 -2.4904  1.6914
  939MOL0     H26719   8.835   4.394   8.966  2.4423 -0.2150 -1.4733
  939MOL0     H26720   8.815   4.249   9.063 -1.9767 -0.4585 -0.7252
  939MOL0     H26721   9.067   4.319   8.911  1.8438 -0.2260  0.2358
  939MOL0     H26722   9.047   4.178   9.001 -0.7414 -0.6311  1.1459
  939MOL0     H26723   9.156   4.320   9.165 -0.2534  0.1539 -0.1747
  939MOL0     H26724   8.990   4.333   9.216 -0.9259 -0.1039 -0.5092
  939MOL0     H26725   9.269   4.403   9.002 -1.1965  2.3256 -1.5697
  939MOL0     H26726   9.511   4.482   9.017  1.4780  0.6093  1.0267
  939MOL0     H26727   9.798   4.731   9.409 -0.3240 -0.2313 -0.9098
  939MOL0     H26728  10.032   4.833   9.446 -3.7093  2.8346  3.4760
  939MOL0     H26729  10.232   4.978   9.083  0.7423  2.5343 -1.7026
  939MOL0     H26730  10.164   5.134   9.116 -2.6120 -1.6482  0.6579
  939MOL0     H26731  10.343   5.140   9.316 -0.4327  0.3389  0.2225
  939MOL0     H26732  10.420   5.008   9.226 -0.9619 -0.3574 -1.7377
  939MOL0     H26733  10.380   5.281   9.106  0.1770 -0.1862  0.5945
  939MOL0     H26734  10.514   5.211   9.186  1.2534 -1.0551  0.6134
  939MOL0     H26735  10.387   5.093   8.933  2.1240  0.1025 -3.2617
  939MOL0     H26736  10.522   5.016   9.002  0.9391 -0.0813  1.4191
  939MOL0     H26737  10.549   5.301   8.891 -0.8931 -0.2243 -1.8975
  939MOL0     H26738  10.565   5.163   8.784 -0.3000 -0.1756  0.0509
  939MOL0     H26739  10.773   5.206   9.024  0.5913  0.3993 -0.1137
  939MOL0     H26740  10.740   5.060   8.935  4.2096  0.5616  3.2150
  939MOL0     H26741  10.838   5.322   8.841  0.6816 -1.1538 -1.4972
  939MOL0     H26742  10.793   5.202   8.706 -0.4670  0.5336 -1.0978
  939MOL0     H26743  10.988   5.182   8.922 -3.2544 -0.5888  1.0656
  939MOL0     H26744  10.948   5.043   8.821 -0.0152 -0.5989 -1.2907
  939MOL0     H26745   9.966   5.058   9.080  1.4749  0.2136 -0.8425
  939MOL0     H26746   9.734   4.940   9.060 -0.4288 -1.4259 -0.4175
  939MOL0     H26747   9.384   4.795   9.275  0.3404  1.2418 -1.5635
  939MOL0     H26748   9.150   4.735   9.218  1.3675  1.4234  2.2534
  939MOL0     H26749   9.121   4.249   9.560 -1.0787 -2.8369  0.7829
  939MOL0     H26750   9.349   4.343   9.502  0.9878 -1.2643  0.4910
  939MOL0     H26751   9.825   3.918   9.351 -1.0362 -0.8114 -2.2995
  939MOL0     H26752  10.049   3.956   9.275 -1.0835 -1.2761 -2.2017
  939MOL0     H26753  10.235   4.275   9.446  2.7237 -0.1081  1.0883
  939MOL0     H26754  10.240   4.357   9.280 -3.5495 -1.6022  0.0267
  939MOL0     H26755  10.412   4.198   9.226 -4.7617  2.1311 -0.9896
  939MOL0     H26756  10.434   4.162   9.409  2.3478  0.4854 -0.6343
  939MOL0     H26757  10.492   4.394   9.446 -1.1192  1.7881 -0.3066
  939MOL0     H26758  10.463   4.444   9.283 -0.7178 -0.9147 -0.8100
  939MOL0     H26759  10.681   4.224   9.321  1.9398  0.3676 -1.0276
  939MOL0     H26760  10.663   4.328   9.197  1.8210 -0.5118 -0.3124
  939MOL0     H26761  10.892   4.556   9.462  0.5522 -1.4513  2.6144
  939MOL0     H26762  10.004   4.389   9.318  0.5721 -0.6685  2.6985
  939MOL0     H26763   9.679   4.383   9.456  0.6987 -0.1618  0.5999
  939MOL0     H26764   9.834   4.472   9.422  1.0977  1.5971 -4.2884
  939MOL0     H26765   9.716   4.450   9.298 -1.5533 -1.3887 -0.8628
  940MOL0     O26766   5.240   6.157   2.884  0.3108 -0.5562  0.1229
  940MOL0     C26767   5.145   6.122   2.957 -0.0625  1.1058  0.2010
  940MOL0     O26768   5.122   6.185   3.075  0.6703 -0.6627  0.8494
  940MOL0     C26769   5.190   6.307   3.091 -0.3075  0.0124  0.5782
  940MOL0     C26770   5.296   6.308   3.178 -0.8830  0.2800 -0.1198
  940MOL0     C26771   5.367   6.422   3.217  0.0715 -0.8096  0.4460
  940MOL0     C26772   5.327   6.545   3.157  1.3660  0.4201  0.0834
  940MOL0     O26773   5.368   6.672   3.180 -0.1049 -0.6782 -0.5341
  940MOL0     C26774   5.468   6.692   3.278 -0.3948 -0.0678 -0.4066
  940MOL0     C26775   5.512   6.842   3.265 -0.4396  0.5653  0.7627
  940MOL0     C26776   5.640   6.856   3.349 -0.3068  0.1676 -0.3562
  940MOL0     C26777   5.723   6.983   3.317  0.0464  0.9562 -1.2125
  940MOL0     C26778   5.774   7.045   3.447 -0.5423  0.2242 -0.5383
  940MOL0     C26779   5.863   6.942   3.526  0.2682 -0.0646  1.0460
  940MOL0     C26780   5.959   6.857   3.450 -0.3527  0.1815  0.4576
  940MOL0     C26781   6.068   6.787   3.536 -0.1636 -0.0767  0.5796
  940MOL0     N26782   6.173   6.856   3.613  0.0698 -0.7355  0.3262
  940MOL0     C26783   6.286   6.918   3.561  0.6393  0.9822 -0.3933
  940MOL0     C26784   6.370   6.920   3.663  0.2411 -0.1769  0.3539
  940MOL0     C26785   6.515   6.944   3.667  0.6669 -0.9805  0.5258
  940MOL0     C26786   6.588   6.808   3.635  0.7813 -0.2596  0.8622
  940MOL0     C26787   6.746   6.818   3.638 -0.8164 -0.2679  0.0822
  940MOL0     C26788   6.805   6.939   3.563 -0.1814  0.1797 -1.0292
  940MOL0     O26789   6.926   6.905   3.490 -0.8257  0.1969  0.4130
  940MOL0     C26790   7.033   6.930   3.565 -0.1927  0.3701 -0.8859
  940MOL0     C26791   7.125   7.014   3.511 -0.1045 -0.1394  0.7398
  940MOL0     C26792   7.245   7.044   3.569 -0.0519  0.0392 -0.1513
  940MOL0     C26793   7.276   6.998   3.702 -0.1212 -0.0009 -0.6454
  940MOL0     C26794   7.393   7.042   3.775  0.1346  0.5485 -0.5018
  940MOL0     O26795   7.472   7.132   3.706 -0.1499  0.2938  0.5950
  940MOL0     C26796   7.608   7.136   3.718 -0.2721  0.2140 -0.8460
  940MOL0     C26797   7.662   7.253   3.788  0.2715 -0.0548 -0.2716
  940MOL0     C26798   7.790   7.271   3.808 -0.9449  0.2734  0.3959
  940MOL0     C26799   7.887   7.175   3.771 -0.0489  0.0809 -0.1868
  940MOL0     O26800   8.020   7.198   3.791 -0.1380  0.6381 -0.0529
  940MOL0     C26801   8.059   7.284   3.900  0.8057  0.6023 -0.4966
  940MOL0     C26802   8.187   7.237   3.971 -1.6658 -0.3167 -0.8917
  940MOL0     C26803   8.316   7.262   3.890 -0.3513  0.3940  0.4423
  940MOL0     C26804   8.435   7.287   3.988 -0.2808  0.2291 -0.5356
  940MOL0     C26805   8.574   7.303   3.906  0.1153  0.4053 -0.3591
  940MOL0     C26806   8.680   7.221   3.971 -0.0678  1.1500 -0.2912
  940MOL0     C26807   8.825   7.245   3.922 -0.3305 -0.8607 -0.2081
  940MOL0     C26808   8.882   7.383   3.951  0.6741 -0.3773  0.0982
  940MOL0    Cl26809   8.869   7.426   4.122  0.3184 -0.0732 -0.0332
  940MOL0     C26810   7.840   7.058   3.705 -0.3981  0.7583 -0.0021
  940MOL0     C26811   7.701   7.041   3.670 -0.7115  0.7946 -0.2001
  940MOL0     O26812   7.422   6.990   3.878 -0.5041 -0.4939  0.0081
  940MOL0     C26813   7.183   6.906   3.761  0.2175 -0.0733 -0.2121
  940MOL0     C26814   7.070   6.868   3.686  1.1540 -0.7178 -0.9423
  940MOL0     N26815   6.306   6.877   3.773  0.3851 -0.2147 -0.7021
  940MOL0     N26816   6.189   6.842   3.752 -0.2175  0.8916 -0.1140
  940MOL0     C26817   5.211   6.539   3.077  0.1212 -0.5465  0.3167
  940MOL0     C26818   5.154   6.424   3.026  1.1140 -0.7946 -0.3293
  940MOL0     C26819   5.082   5.987   2.919 -0.6841 -0.4310 -0.1382
  940MOL0     C26820   5.165   5.883   2.876 -0.4275 -0.3049 -0.1706
  940MOL0     C26821   5.103   5.763   2.852 -0.1875  0.3813 -0.5265
  940MOL0     C26822   4.967   5.723   2.884 -0.8265 -1.3873 -0.5409
  940MOL0     O26823   4.905   5.606   2.869  0.9424  0.0453 -0.4029
  940MOL0     C26824   4.984   5.486   2.837 -0.5146 -0.8739 -0.3203
  940MOL0     C26825   4.906   5.354   2.831 -0.5565 -0.4852  0.5648
  940MOL0     C26826   4.872   5.313   2.979  0.3962 -0.1945  0.2372
  940MOL0     C26827   4.894   5.163   3.006 -0.0572  0.3172  0.1105
  940MOL0     C26828   5.030   5.114   2.987  0.2015  0.1638 -0.2473
  940MOL0     C26829   5.147   5.075   2.969  0.0947 -0.5321 -0.3386
  940MOL0     C26830   4.887   5.830   2.928  0.3033  0.7984  1.0648
  940MOL0     C26831   4.944   5.960   2.937 -0.0636  0.4496  0.0971
  940MOL0     C26832   4.859   6.061   3.021 -0.4177  1.0831 -0.9945
  940MOL0     H26833   5.305   6.219   3.240 -2.4591 -0.5288 -1.0120
  940MOL0     H26834   5.445   6.435   3.291 -1.0602  0.8757  1.4325
  940MOL0     H26835   5.433   6.674   3.380 -0.7518  1.2680 -0.2677
  940MOL0     H26836   5.551   6.622   3.261 -1.3461 -0.6339 -3.2128
  940MOL0     H26837   5.437   6.910   3.305  0.4384  2.6195 -0.8657
  940MOL0     H26838   5.521   6.884   3.164  0.7469 -0.2303  0.5142
  940MOL0     H26839   5.691   6.762   3.326 -0.3899  0.3140 -1.1646
  940MOL0     H26840   5.612   6.847   3.454  1.2494 -0.2006  0.0564
  940MOL0     H26841   5.798   6.960   3.241 -1.6676 -0.0859 -2.6713
  940MOL0     H26842   5.662   7.056   3.263  1.2083  0.9963 -2.5216
  940MOL0     H26843   5.841   7.130   3.434 -0.3376  0.0650 -0.5309
  940MOL0     H26844   5.698   7.062   3.523  0.5659  2.4034  0.1665
  940MOL0     H26845   5.924   7.000   3.595  1.3717 -2.1138  1.8697
  940MOL0     H26846   5.795   6.877   3.582 -3.9931  1.2557 -2.0748
  940MOL0     H26847   6.002   6.927   3.378  2.0559 -2.1221 -0.5025
  940MOL0     H26848   5.899   6.785   3.393  0.9834 -0.0895 -0.6819
  940MOL0     H26849   6.019   6.726   3.613  0.8541 -1.9256 -0.1729
  940MOL0     H26850   6.115   6.710   3.474 -1.6305 -0.3693 -0.1997
  940MOL0     H26851   6.304   6.948   3.458  0.1414  1.9060 -0.2234
  940MOL0     H26852   6.546   7.030   3.607  1.3318 -1.8830 -0.4716
  940MOL0     H26853   6.537   6.980   3.768  2.9231  2.0201 -0.8836
  940MOL0     H26854   6.557   6.734   3.710  0.5055  2.4918  3.6808
  940MOL0     H26855   6.563   6.773   3.534 -1.0506  0.7933  0.9161
  940MOL0     H26856   6.790   6.725   3.602  0.1127  1.0962 -2.5865
  940MOL0     H26857   6.771   6.820   3.744  2.5811 -2.9195 -0.5018
  940MOL0     H26858   6.810   7.032   3.620  1.1129 -1.0065  0.9286
  940MOL0     H26859   6.725   6.942   3.489 -1.8481 -0.2118  0.6689
  940MOL0     H26860   7.096   7.065   3.419 -1.4726 -1.3022  0.4797
  940MOL0     H26861   7.310   7.118   3.522 -0.4715  0.6356  0.2033
  940MOL0     H26862   7.600   7.328   3.836  1.8933 -0.3700  2.5216
  940MOL0     H26863   7.825   7.368   3.845  4.1693  1.2185 -5.2412
  940MOL0     H26864   8.070   7.387   3.865  2.1214 -0.3827 -3.2894
  940MOL0     H26865   7.975   7.288   3.970  0.8425  0.4185 -0.4429
  940MOL0     H26866   8.190   7.295   4.064  2.7038 -1.1775 -0.2731
  940MOL0     H26867   8.187   7.130   3.993  1.1550 -0.1976  0.1059
  940MOL0     H26868   8.335   7.180   3.821 -2.7766  2.4549 -3.0042
  940MOL0     H26869   8.307   7.346   3.821  2.2968  2.7020  2.6155
  940MOL0     H26870   8.438   7.211   4.067 -3.7643  1.2548  0.7678
  940MOL0     H26871   8.409   7.383   4.034 -2.9107 -0.4068 -0.5473
  940MOL0     H26872   8.606   7.407   3.915  0.2323  0.2395  1.4904
  940MOL0     H26873   8.550   7.284   3.801 -1.5290  2.2064 -0.3629
  940MOL0     H26874   8.672   7.237   4.079 -3.1263 -1.3014  0.0076
  940MOL0     H26875   8.652   7.116   3.957 -2.9859  1.2989  2.9550
  940MOL0     H26876   8.823   7.235   3.813  1.0758 -1.2126 -0.2159
  940MOL0     H26877   8.886   7.163   3.960  0.8851 -0.2065 -0.6963
  940MOL0     H26878   8.975   7.397   3.896 -0.4360  0.0730 -1.7961
  940MOL0     H26879   8.829   7.461   3.894  3.3048  0.3583 -1.4835
  940MOL0     H26880   7.917   6.985   3.682  0.3220  1.0489  1.3631
  940MOL0     H26881   7.666   6.950   3.624 -0.6590 -0.2942  1.7911
  940MOL0     H26882   7.207   6.862   3.857 -0.3398 -0.1545 -0.1060
  940MOL0     H26883   7.002   6.789   3.715  0.4602  0.7158  1.6924
  940MOL0     H26884   5.170   6.630   3.036  1.5308 -1.2244 -2.8716
  940MOL0     H26885   5.075   6.428   2.953  0.0238  0.4793  0.8496
  940MOL0     H26886   5.272   5.890   2.893 -0.3083 -2.4560  0.1258
  940MOL0     H26887   5.166   5.681   2.817  0.1294  0.2770  0.2715
  940MOL0     H26888   5.074   5.488   2.900 -1.3100 -1.0343  0.8520
  940MOL0     H26889   5.025   5.495   2.736 -0.5774 -0.7408 -0.3354
  940MOL0     H26890   4.972   5.274   2.794 -0.7630 -0.6240  0.4943
  940MOL0     H26891   4.822   5.362   2.762  0.1201 -3.8508 -0.8912
  940MOL0     H26892   4.769   5.335   3.009  0.6159 -1.8751  2.4436
  940MOL0     H26893   4.934   5.356   3.058  1.2562  1.0356 -1.0517
  940MOL0     H26894   4.876   5.130   3.109  2.8249 -0.0496  0.5660
  940MOL0     H26895   4.828   5.104   2.942  2.2534 -1.7180 -0.5662
  940MOL0     H26896   5.246   5.041   2.945 -0.7046 -2.9706 -0.4728
  940MOL0     H26897   4.782   5.821   2.957 -0.2231  2.5970 -0.1344
  940MOL0     H26898   4.759   6.026   2.997  0.2368 -1.7261 -0.0863
  940MOL0     H26899   4.886   6.041   3.125 -1.3509 -0.6612 -1.0427
  940MOL0     H26900   4.872   6.164   2.986  1.1505  1.3837  0.3262
  941MOL0     O26901   4.750  10.999   1.820  0.2836 -0.1472  0.0256
  941MOL0     C26902   4.700  10.890   1.785  0.3553 -0.4004  0.1035
  941MOL0     O26903   4.763  10.776   1.787 -0.5267  0.4222 -0.1166
  941MOL0     C26904   4.867  10.775   1.881 -0.0280 -0.0027 -0.0601
  941MOL0     C26905   4.860  10.680   1.981 -0.7907  0.2843  0.3520
  941MOL0     C26906   4.962  10.677   2.069  0.4072  0.5989  0.1359
  941MOL0     C26907   5.072  10.766   2.068 -0.1599 -0.2765 -0.0522
  941MOL0     O26908   5.174  10.745   2.153 -0.2756 -0.5745 -0.0115
  941MOL0     C26909   5.306  10.730   2.093 -0.9495  0.5074 -0.5904
  941MOL0     C26910   5.325  10.635   1.971  0.4298 -0.5840  0.1669
  941MOL0     C26911   5.309  10.490   2.017 -0.0702 -0.3534 -0.4657
  941MOL0     C26912   5.363  10.378   1.920  0.3935  0.4348  0.8887
  941MOL0     C26913   5.510  10.373   1.882 -0.1116 -0.9605  1.2319
  941MOL0     C26914   5.587  10.329   2.002  0.1630 -0.2354  0.5422
  941MOL0     C26915   5.735  10.296   1.979  0.0430 -0.8336 -0.5825
  941MOL0     C26916   5.814  10.424   1.972  0.5355 -0.7896  0.3524
  941MOL0     N26917   5.955  10.409   1.953 -0.2157  0.0248  0.0286
  941MOL0     C26918   6.040  10.498   1.892  0.4059  0.8660  0.5908
  941MOL0     C26919   6.165  10.469   1.937 -0.6630  0.2678 -0.2484
  941MOL0     C26920   6.293  10.544   1.926  0.6530 -0.5548  0.6061
  941MOL0     C26921   6.412  10.477   1.855 -1.1182  0.6273  0.2844
  941MOL0     C26922   6.549  10.547   1.873  0.4222 -0.3455  0.3597
  941MOL0     C26923   6.664  10.479   1.794  0.4786 -0.1501 -0.8143
  941MOL0     O26924   6.695  10.340   1.828  0.2854 -0.1405  0.4405
  941MOL0     C26925   6.788  10.265   1.755  0.4220  0.1915 -0.7873
  941MOL0     C26926   6.811  10.145   1.803  0.7310  0.0572 -0.2462
  941MOL0     C26927   6.897  10.054   1.734  0.4393  0.0392  0.6462
  941MOL0     C26928   6.988  10.108   1.636  0.3425 -0.8193 -0.8251
  941MOL0     C26929   7.082  10.015   1.568  0.0517 -0.0017  0.8373
  941MOL0     O26930   7.157  10.073   1.472 -0.3555  0.0683 -0.7913
  941MOL0     C26931   7.262  10.010   1.414  0.0234  0.3654  0.6653
  941MOL0     C26932   7.280   9.868   1.388 -0.1071 -0.9960  0.2919
  941MOL0     C26933   7.408   9.813   1.350  1.3216  0.5954  0.7215
  941MOL0     C26934   7.515   9.896   1.335 -0.4654 -0.4044  0.0205
  941MOL0     O26935   7.647   9.860   1.304 -0.0701 -0.0002  0.3838
  941MOL0     C26936   7.679   9.722   1.322 -0.7025  0.3850 -0.0711
  941MOL0     C26937   7.828   9.695   1.338  0.5275  0.0253  0.4800
  941MOL0     C26938   7.872   9.555   1.373 -0.5466  0.2357 -0.5581
  941MOL0     C26939   7.998   9.548   1.474 -0.7904 -0.4571 -0.3736
  941MOL0     C26940   8.019   9.395   1.502  1.0420 -0.8171  0.3905
  941MOL0     C26941   8.139   9.359   1.598  0.4184  0.0397  0.5164
  941MOL0     C26942   8.275   9.431   1.559 -0.0084  0.3304 -0.2517
  941MOL0     C26943   8.345   9.482   1.677 -0.4672 -0.5627 -0.3860
  941MOL0    Cl26944   8.383   9.369   1.804  0.6022 -0.2906 -0.3037
  941MOL0     C26945   7.506  10.036   1.360  0.4435  0.2745  0.0804
  941MOL0     C26946   7.373  10.084   1.396  0.1719  0.6007 -0.8214
  941MOL0     O26947   7.078   9.892   1.587  0.4265  0.0818  0.2041
  941MOL0     C26948   6.968  10.238   1.595 -0.4420  0.7785 -0.4206
  941MOL0     C26949   6.869  10.320   1.653 -0.1082 -0.0605  1.0033
  941MOL0     N26950   6.147  10.351   2.010 -0.6216  0.2110  0.9867
  941MOL0     N26951   6.027  10.314   2.017  0.6437  0.1966 -0.3675
  941MOL0     C26952   5.084  10.853   1.963 -0.3069 -0.7394 -0.2784
  941MOL0     C26953   4.977  10.861   1.869 -0.3104  1.1825 -0.8846
  941MOL0     C26954   4.558  10.883   1.729  0.1196 -0.3422 -0.6106
  941MOL0     C26955   4.470  10.780   1.770  0.1961 -0.0181  0.5666
  941MOL0     C26956   4.337  10.776   1.733 -0.1829 -0.2501  0.4746
  941MOL0     C26957   4.288  10.880   1.661  1.1035 -0.5220  0.4221
  941MOL0     O26958   4.151  10.883   1.628 -0.5037  0.3499 -0.1239
  941MOL0     C26959   4.135  10.891   1.487 -0.1043  0.1844 -0.6514
  941MOL0     C26960   4.078  10.759   1.434 -0.1719  0.5608  0.0194
  941MOL0     C26961   3.931  10.739   1.486  0.5751  0.0462 -0.0809
  941MOL0     C26962   3.840  10.813   1.379  0.0014 -0.3753 -0.1469
  941MOL0     C26963   3.810  10.718   1.269 -0.2368 -0.2057  0.2333
  941MOL0     C26964   3.795  10.624   1.196 -0.2635 -0.9701  0.9730
  941MOL0     C26965   4.374  10.983   1.618  0.4977  0.6385 -0.0655
  941MOL0     C26966   4.508  10.985   1.653  1.0998 -0.6804  1.0750
  941MOL0     C26967   4.589  11.085   1.580  0.6201  0.4448  0.0962
  941MOL0     H26968   4.776  10.612   1.992 -1.7430  1.1915 -1.0014
  941MOL0     H26969   4.963  10.594   2.139 -0.0271  0.8179  0.4049
  941MOL0     H26970   5.342  10.828   2.063 -1.5334  0.5387 -1.1917
  941MOL0     H26971   5.367  10.692   2.176 -2.5108  0.1554  0.4439
  941MOL0     H26972   5.429  10.652   1.940  0.3299 -2.3126 -1.2465
  941MOL0     H26973   5.255  10.646   1.888 -0.3826  0.7375  1.0008
  941MOL0     H26974   5.205  10.472   2.045 -0.5568  1.9420 -0.6383
  941MOL0     H26975   5.364  10.482   2.111  0.8769  0.5544 -0.9186
  941MOL0     H26976   5.339  10.281   1.964  0.8104 -0.5189 -0.8649
  941MOL0     H26977   5.303  10.381   1.829  0.5394 -0.2459  0.7640
  941MOL0     H26978   5.525  10.304   1.799 -0.9475  1.0876 -0.7146
  941MOL0     H26979   5.552  10.468   1.849  3.3530 -2.3638  1.1735
  941MOL0     H26980   5.567  10.402   2.081 -4.3267  0.2267 -0.7524
  941MOL0     H26981   5.544  10.232   2.028  0.4263 -0.4201  0.2937
  941MOL0     H26982   5.743  10.240   1.886  0.3193 -0.8263 -0.5654
  941MOL0     H26983   5.776  10.229   2.055 -0.5141  2.0802  2.4945
  941MOL0     H26984   5.780  10.478   1.882 -1.8463  0.4730  1.9030
  941MOL0     H26985   5.778  10.480   2.058 -1.7408  0.2025 -1.1512
  941MOL0     H26986   6.007  10.587   1.839 -3.0201 -0.8856 -0.5326
  941MOL0     H26987   6.257  10.632   1.873  0.7845  1.0379  3.0180
  941MOL0     H26988   6.331  10.574   2.024  0.5110  2.1517 -0.0994
  941MOL0     H26989   6.431  10.376   1.891  2.1909  1.9621  2.8938
  941MOL0     H26990   6.385  10.478   1.749 -1.2790  1.1362  0.3260
  941MOL0     H26991   6.574  10.525   1.977 -1.5502 -1.8157  0.5782
  941MOL0     H26992   6.529  10.652   1.849 -0.4484 -0.6652 -0.3947
  941MOL0     H26993   6.752  10.538   1.819  0.2007 -0.0947  0.0453
  941MOL0     H26994   6.640  10.482   1.687 -0.6311 -0.8172 -0.5967
  941MOL0     H26995   6.751  10.102   1.883  3.7752  0.9073  2.7463
  941MOL0     H26996   6.896   9.952   1.769  0.6713  0.0111  0.5724
  941MOL0     H26997   7.193   9.804   1.383 -1.5197  0.5324  2.9592
  941MOL0     H26998   7.408   9.715   1.305 -0.1562  0.5476  0.7727
  941MOL0     H26999   7.624   9.680   1.407  1.4639 -1.2430  0.6126
  941MOL0     H27000   7.646   9.669   1.231  1.1408  1.8822 -1.7039
  941MOL0     H27001   7.892   9.721   1.253  2.2304 -0.5925  1.5381
  941MOL0     H27002   7.858   9.764   1.417 -0.6269  1.3181 -0.1553
  941MOL0     H27003   7.789   9.496   1.412 -0.2004 -0.8636 -1.4307
  941MOL0     H27004   7.900   9.498   1.284  0.8788 -1.4882  0.9295
  941MOL0     H27005   7.968   9.604   1.562  1.5175 -0.2530  0.3372
  941MOL0     H27006   8.090   9.597   1.442  0.4208 -3.1612 -1.3440
  941MOL0     H27007   8.057   9.357   1.407 -0.0416 -0.1759 -0.3255
  941MOL0     H27008   7.928   9.344   1.535  0.2460  1.6120  2.3530
  941MOL0     H27009   8.115   9.379   1.703  3.3331 -0.0541  1.2907
  941MOL0     H27010   8.148   9.250   1.591 -3.4513 -0.4312  0.7877
  941MOL0     H27011   8.270   9.517   1.491 -0.8840 -1.5517 -2.7320
  941MOL0     H27012   8.341   9.362   1.506 -0.4435  0.2980 -0.7651
  941MOL0     H27013   8.434   9.536   1.642  0.4754  0.4028  3.1247
  941MOL0     H27014   8.284   9.562   1.719  0.5875  0.0703 -0.0191
  941MOL0     H27015   7.588  10.106   1.348 -0.7897  1.6703 -0.5448
  941MOL0     H27016   7.375  10.191   1.412  0.6194  0.3132  1.3137
  941MOL0     H27017   7.021  10.265   1.504 -3.6031  0.7968 -2.3788
  941MOL0     H27018   6.857  10.420   1.613  1.7157 -0.9256 -2.0825
  941MOL0     H27019   5.177  10.909   1.951 -0.8047  0.0317 -0.6044
  941MOL0     H27020   4.984  10.924   1.781  1.0581  1.8472 -0.3438
  941MOL0     H27021   4.516  10.710   1.839  1.2265 -2.6983 -2.5858
  941MOL0     H27022   4.267  10.700   1.767 -0.5378 -1.3816 -2.4780
  941MOL0     H27023   4.220  10.906   1.420 -0.2075 -3.3385 -1.7216
  941MOL0     H27024   4.066  10.976   1.482  0.0864  0.6441  2.5158
  941MOL0     H27025   4.139  10.680   1.480  0.0009  0.3121 -0.6269
  941MOL0     H27026   4.091  10.745   1.326  3.2480  1.0467  0.2526
  941MOL0     H27027   3.917  10.784   1.585 -0.4657  1.3187 -0.7873
  941MOL0     H27028   3.917  10.630   1.492  3.5052 -0.3672  1.8403
  941MOL0     H27029   3.745  10.840   1.426 -0.3133 -0.4862 -0.7042
  941MOL0     H27030   3.888  10.904   1.344  1.1603 -1.0231 -0.2866
  941MOL0     H27031   3.801  10.534   1.138 -2.4092 -2.9560  3.5524
  941MOL0     H27032   4.339  11.060   1.550 -0.6433 -0.7453 -1.1209
  941MOL0     H27033   4.693  11.054   1.560  0.3796 -0.9478  0.8673
  941MOL0     H27034   4.547  11.107   1.481  4.4850  2.1685 -1.3918
  941MOL0     H27035   4.597  11.180   1.632 -3.0652 -0.3571  2.4687
  942MOL0     O27036   7.074   0.988   9.799 -0.2986  0.6256  0.1855
  942MOL0     C27037   7.021   1.078   9.862 -0.3996  0.7390 -0.8078
  942MOL0     O27038   6.895   1.109   9.865  0.5392 -0.5521  0.2491
  942MOL0     C27039   6.795   1.050   9.794  0.4300  0.3012 -0.1420
  942MOL0     C27040   6.664   1.092   9.805 -0.2225 -0.2618 -0.5801
  942MOL0     C27041   6.551   1.032   9.744 -0.3871 -0.3000 -0.6025
  942MOL0     C27042   6.569   0.946   9.641  0.2781  0.1853  0.8000
  942MOL0     O27043   6.459   0.890   9.584  0.2357 -0.4491  0.1028
  942MOL0     C27044   6.399   0.976   9.487 -0.6005  0.2757  0.8060
  942MOL0     C27045   6.290   0.904   9.409  0.1483  0.5213 -0.2852
  942MOL0     C27046   6.356   0.804   9.316  0.2526 -0.9662 -0.4102
  942MOL0     C27047   6.253   0.707   9.273  0.6363 -0.7392 -0.5950
  942MOL0     C27048   6.306   0.587   9.201 -0.2648  0.5325 -0.7109
  942MOL0     C27049   6.178   0.499   9.180 -0.6627  0.3509 -1.4285
  942MOL0     C27050   6.199   0.414   9.052 -0.3827  0.8571  0.7560
  942MOL0     C27051   6.063   0.360   9.007  0.3369  0.8149 -0.3241
  942MOL0     N27052   6.073   0.296   8.874  0.2010  0.5866  0.1465
  942MOL0     C27053   5.976   0.308   8.778 -0.2844  0.7927  0.2895
  942MOL0     C27054   6.016   0.224   8.681 -0.4241 -0.0496 -0.5055
  942MOL0     C27055   5.975   0.225   8.532 -0.6545 -0.4135 -0.7869
  942MOL0     C27056   6.059   0.304   8.433  1.1430  0.3445  0.9362
  942MOL0     C27057   6.082   0.462   8.459  0.3591  0.2080 -0.0787
  942MOL0     C27058   6.203   0.504   8.381 -0.5908  0.6171  0.3026
  942MOL0     O27059   6.180   0.480   8.242  0.5482 -0.2142 -0.1337
  942MOL0     C27060   6.288   0.532   8.173 -0.7062  0.7797 -0.6716
  942MOL0     C27061   6.265   0.655   8.111 -0.2839 -0.2620  0.3437
  942MOL0     C27062   6.374   0.713   8.043 -1.3040  0.2358 -0.0044
  942MOL0     C27063   6.498   0.655   8.031  0.4820  0.3564  0.0560
  942MOL0     C27064   6.609   0.718   7.945  0.4798  0.9981 -0.0760
  942MOL0     O27065   6.738   0.703   7.987 -0.1054  0.3142  0.1122
  942MOL0     C27066   6.843   0.728   7.903 -0.1840  0.2753 -0.0723
  942MOL0     C27067   6.854   0.680   7.775  0.1368 -0.2000 -0.6287
  942MOL0     C27068   6.978   0.690   7.703 -0.2611  0.4702 -0.2704
  942MOL0     C27069   7.095   0.735   7.767 -0.7761 -0.5044  0.0553
  942MOL0     O27070   7.213   0.746   7.693  0.6289  0.5859  0.1355
  942MOL0     C27071   7.339   0.801   7.738  0.0578  0.1319 -0.8124
  942MOL0     C27072   7.441   0.798   7.630 -0.8536  0.0331  0.3248
  942MOL0     C27073   7.574   0.866   7.673  0.6751  0.3627  0.1238
  942MOL0     C27074   7.686   0.836   7.581 -0.3033  0.4624  0.9181
  942MOL0     C27075   7.774   0.706   7.600 -0.1979  0.2098  0.8841
  942MOL0     C27076   7.870   0.693   7.471  0.7437  0.5748 -0.5387
  942MOL0     C27077   8.003   0.763   7.488  0.3285 -0.0850 -0.8976
  942MOL0     C27078   8.088   0.753   7.365 -1.0045 -0.8777 -0.4129
  942MOL0    Cl27079   8.266   0.753   7.404  0.0007  0.1305  0.2644
  942MOL0     C27080   7.082   0.784   7.889  0.1331  0.1740 -0.2211
  942MOL0     C27081   6.957   0.775   7.960  0.4931 -0.5404  0.7151
  942MOL0     O27082   6.576   0.773   7.840 -0.0323  0.2117 -0.1150
  942MOL0     C27083   6.515   0.524   8.090 -0.0770  0.9430 -0.3235
  942MOL0     C27084   6.412   0.466   8.167  0.3545  0.4860  0.7088
  942MOL0     N27085   6.121   0.145   8.733 -0.5179  0.0459 -0.0687
  942MOL0     N27086   6.150   0.193   8.844 -1.6464 -0.3593  0.1057
  942MOL0     C27087   6.697   0.908   9.613  0.6711  1.1641 -0.2198
  942MOL0     C27088   6.804   0.958   9.686  0.5510  0.0172  0.4678
  942MOL0     C27089   7.112   1.155   9.954 -0.3850 -0.4929  0.3344
  942MOL0     C27090   7.132   1.289   9.926  0.5937 -0.1290  0.4428
  942MOL0     C27091   7.201   1.370  10.012  0.1492 -0.4279  0.5109
  942MOL0     C27092   7.241   1.325  10.139 -0.1452  0.1506 -0.5886
  942MOL0     O27093   7.320   1.417  10.207 -0.1800 -0.1905 -0.3365
  942MOL0     C27094   7.347   1.385  10.345 -0.6151 -0.5783 -0.1105
  942MOL0     C27095   7.222   1.401  10.439  0.7326 -0.2493 -0.0804
  942MOL0     C27096   7.167   1.544  10.462 -0.6990  0.3065  0.3219
  942MOL0     C27097   7.152   1.630  10.338 -0.0537  0.5847  0.3280
  942MOL0     C27098   7.065   1.737  10.365 -0.2198  0.0640 -0.5425
  942MOL0     C27099   6.981   1.817  10.397  0.9121 -0.1911  0.3879
  942MOL0     C27100   7.217   1.190  10.164 -0.1650  0.0001 -0.5128
  942MOL0     C27101   7.159   1.099  10.073  0.1320  0.2676 -0.3361
  942MOL0     C27102   7.155   0.956  10.116  0.2024  0.3678  0.1145
  942MOL0     H27103   6.635   1.165   9.881 -0.5403 -4.2399  3.5445
  942MOL0     H27104   6.452   1.073   9.763 -0.2028 -0.9017  2.0294
  942MOL0     H27105   6.347   1.064   9.526 -0.9095  1.4283 -1.9685
  942MOL0     H27106   6.481   0.998   9.419 -1.4812  1.8751  0.2044
  942MOL0     H27107   6.233   0.976   9.350  0.8990  3.2074  2.0740
  942MOL0     H27108   6.220   0.855   9.478 -1.1471  0.6671 -1.4480
  942MOL0     H27109   6.436   0.751   9.369 -1.4889 -3.3928 -0.0223
  942MOL0     H27110   6.393   0.854   9.226 -0.0199  0.6996  0.3657
  942MOL0     H27111   6.201   0.673   9.363 -0.4825  3.3670  0.5014
  942MOL0     H27112   6.185   0.759   9.204 -1.4401 -0.4678  1.5375
  942MOL0     H27113   6.353   0.621   9.108  1.7955  0.4676  0.2600
  942MOL0     H27114   6.383   0.534   9.257 -1.0041  0.9745  0.7712
  942MOL0     H27115   6.165   0.418   9.253  0.8074 -0.4182 -1.9833
  942MOL0     H27116   6.090   0.564   9.179 -0.6884  0.6782  3.0375
  942MOL0     H27117   6.274   0.335   9.061  1.1524  2.3843  1.9441
  942MOL0     H27118   6.247   0.480   8.979  1.7738 -0.4903  0.8963
  942MOL0     H27119   6.026   0.284   9.077 -0.7691 -1.3541 -3.0648
  942MOL0     H27120   5.990   0.441   8.996  1.9566  2.3694 -0.1795
  942MOL0     H27121   5.894   0.380   8.778 -2.9489 -2.0363  1.0359
  942MOL0     H27122   5.988   0.121   8.500 -0.4069  0.1183 -2.5132
  942MOL0     H27123   5.872   0.260   8.519 -1.0267 -0.4245  1.7585
  942MOL0     H27124   6.157   0.260   8.414  0.4506 -1.6433  1.7065
  942MOL0     H27125   6.001   0.300   8.341  0.4176  1.5466  1.3217
  942MOL0     H27126   6.092   0.493   8.563 -1.0828  0.6588 -0.0548
  942MOL0     H27127   5.986   0.505   8.428 -0.4083 -1.3147  0.0493
  942MOL0     H27128   6.291   0.454   8.422  0.6305 -0.8516 -3.5700
  942MOL0     H27129   6.225   0.610   8.399  2.5832  0.1999 -0.4887
  942MOL0     H27130   6.175   0.712   8.131 -0.0983  0.2649 -0.2605
  942MOL0     H27131   6.359   0.813   8.002 -0.2390  1.1631  1.7438
  942MOL0     H27132   6.768   0.632   7.729  0.6019 -1.3501 -0.3425
  942MOL0     H27133   6.983   0.646   7.604  3.5092  0.7184 -0.3526
  942MOL0     H27134   7.324   0.904   7.769 -0.7970  0.6088 -2.6663
  942MOL0     H27135   7.383   0.752   7.826  0.4343  2.7172  0.5111
  942MOL0     H27136   7.459   0.693   7.604  0.9671 -0.3764  2.8325
  942MOL0     H27137   7.392   0.837   7.540  1.1836  0.9441 -0.4433
  942MOL0     H27138   7.561   0.975   7.676  0.7818  0.4328 -1.2572
  942MOL0     H27139   7.597   0.834   7.775  2.7656  1.3705  0.0141
  942MOL0     H27140   7.740   0.931   7.576  1.9695 -0.8150 -0.1877
  942MOL0     H27141   7.650   0.824   7.478 -0.7728  0.2446  1.1048
  942MOL0     H27142   7.708   0.619   7.606 -2.4175  1.4500 -2.3778
  942MOL0     H27143   7.836   0.725   7.688 -0.4094  3.3909  0.4752
  942MOL0     H27144   7.885   0.586   7.455 -2.1209 -0.0480  0.3172
  942MOL0     H27145   7.822   0.739   7.383  0.9335  1.5965 -0.1302
  942MOL0     H27146   8.059   0.733   7.577  1.0376 -0.5461 -1.4955
  942MOL0     H27147   7.989   0.871   7.504 -0.4990 -0.5395  2.0060
  942MOL0     H27148   8.071   0.655   7.320 -0.2879 -1.6886  1.0192
  942MOL0     H27149   8.079   0.838   7.297  2.8780  0.9003  0.9949
  942MOL0     H27150   7.166   0.829   7.941 -1.3985  0.7515  1.8792
  942MOL0     H27151   6.949   0.800   8.065 -0.1951 -4.5856  1.8022
  942MOL0     H27152   6.602   0.462   8.072  1.0293  2.8767 -1.9619
  942MOL0     H27153   6.431   0.374   8.221 -0.6397  0.0711  0.3811
  942MOL0     H27154   6.729   0.834   9.540  0.9674 -0.3627  1.3734
  942MOL0     H27155   6.896   0.928   9.636 -0.5863  1.9504 -3.0984
  942MOL0     H27156   7.095   1.308   9.826  0.1487 -3.3776 -0.1295
  942MOL0     H27157   7.204   1.477   9.998 -1.9479 -0.5992 -1.9093
  942MOL0     H27158   7.427   1.456  10.370  0.5953 -2.6145  2.3905
  942MOL0     H27159   7.390   1.285  10.341  1.4557  0.2796 -0.7036
  942MOL0     H27160   7.233   1.365  10.542 -2.7695  1.4387  1.0620
  942MOL0     H27161   7.136   1.338  10.414 -1.9429  2.7049  1.0118
  942MOL0     H27162   7.251   1.584  10.520  1.7106 -1.7284 -1.5071
  942MOL0     H27163   7.083   1.541  10.532 -2.5242 -1.8651 -1.7887
  942MOL0     H27164   7.248   1.669  10.303 -0.0727  0.1589 -0.2022
  942MOL0     H27165   7.104   1.574  10.257  2.4903  0.0635 -0.9216
  942MOL0     H27166   6.895   1.873  10.425 -1.5152 -4.3579  2.2804
  942MOL0     H27167   7.261   1.150  10.255  1.0740  1.8651 -0.2242
  942MOL0     H27168   7.234   0.923  10.184  0.6209  1.0133 -0.0438
  942MOL0     H27169   7.055   0.944  10.159 -0.2110 -5.0394 -1.5545
  942MOL0     H27170   7.166   0.883  10.035  2.0665 -0.8550  1.4049
  943MOL0     O27171   3.321  10.414   4.944  0.3101 -0.3227  0.7119
  943MOL0     C27172   3.249  10.514   4.944 -0.5804 -0.6601 -0.5258
  943MOL0     O27173   3.301  10.641   4.943  0.1413  0.6042 -0.1490
  943MOL0     C27174   3.437  10.654   4.956  0.3810 -0.5936  0.9085
  943MOL0     C27175   3.520  10.692   4.845 -0.0742  0.0361  0.4143
  943MOL0     C27176   3.654  10.707   4.862 -0.7663  0.7215 -0.7443
  943MOL0     C27177   3.720  10.681   4.983 -0.1106  0.7830  0.2290
  943MOL0     O27178   3.856  10.681   4.995 -0.1239 -0.2013 -0.3154
  943MOL0     C27179   3.924  10.807   4.955 -0.0917 -0.4594  0.2552
  943MOL0     C27180   3.890  10.935   5.041 -0.0640  1.5114 -0.8161
  943MOL0     C27181   3.989  11.055   4.998 -0.4948  1.1146 -0.4289
  943MOL0     C27182   4.139  11.054   5.045 -0.6052 -0.4770 -0.4362
  943MOL0     C27183   4.210  11.181   4.999 -0.8118 -0.0035 -0.4092
  943MOL0     C27184   4.170  11.309   5.072  0.1798  0.6072 -0.0487
  943MOL0     C27185   4.243  11.434   5.030 -0.5651 -0.0239  0.5350
  943MOL0     C27186   4.199  11.473   4.892  0.5174  0.0684 -0.6113
  943MOL0     N27187   4.262  11.596   4.841  0.0046  0.6613  0.2012
  943MOL0     C27188   4.243  11.727   4.883  0.2500  0.0329  1.4790
  943MOL0     C27189   4.336  11.797   4.820 -0.5166  0.2818  0.3656
  943MOL0     C27190   4.344  11.950   4.837 -0.1514  0.1175  0.0509
  943MOL0     C27191   4.479  12.001   4.885  0.3009 -0.4933 -0.7375
  943MOL0     C27192   4.576  12.001   4.769 -1.5939  0.2276  0.3309
  943MOL0     C27193   4.708  12.061   4.817 -0.2217  0.8495  0.9797
  943MOL0     O27194   4.807  12.031   4.714  0.2500  0.0650 -0.3032
  943MOL0     C27195   4.921  12.103   4.721  0.2434 -0.5976 -0.8388
  943MOL0     C27196   5.002  12.100   4.615 -0.6593 -0.9469  0.3649
  943MOL0     C27197   5.131  12.160   4.613  0.4251  0.0252 -0.0524
  943MOL0     C27198   5.168  12.233   4.728  0.4884 -0.7900 -0.1463
  943MOL0     C27199   5.307  12.294   4.742  0.7501 -0.5883 -0.3373
  943MOL0     O27200   5.328  12.380   4.851 -0.1663  0.8206  0.1599
  943MOL0     C27201   5.452  12.440   4.876  0.4361  0.0507 -0.2030
  943MOL0     C27202   5.559  12.363   4.897 -0.6159 -0.5252  1.4342
  943MOL0     C27203   5.680  12.423   4.936  0.8346  0.3741 -0.0521
  943MOL0     C27204   5.687  12.558   4.960 -0.2831 -0.1922  0.3575
  943MOL0     O27205   5.813  12.616   4.992 -0.0425  0.9442  0.5606
  943MOL0     C27206   5.819  12.738   4.918 -0.3423 -0.3311  0.2253
  943MOL0     C27207   5.976  12.778   4.897 -0.4852  0.4486  0.3557
  943MOL0     C27208   5.977  12.924   4.833 -0.1339  0.1173 -0.2549
  943MOL0     C27209   6.111  12.947   4.770 -0.1138  0.1048 -0.4193
  943MOL0     C27210   6.128  13.078   4.698 -0.1663  0.4804  0.4553
  943MOL0     C27211   6.271  13.139   4.706 -0.1802  0.2500 -0.2761
  943MOL0     C27212   6.362  13.062   4.600  0.2656 -0.4099  0.0448
  943MOL0     C27213   6.501  13.119   4.620  0.1708 -0.1405  0.2838
  943MOL0    Cl27214   6.594  13.026   4.755  0.4062  0.0910  0.3832
  943MOL0     C27215   5.567  12.636   4.951  0.5644 -0.8083  0.1263
  943MOL0     C27216   5.452  12.574   4.906 -0.4090  0.1410 -1.0471
  943MOL0     O27217   5.395  12.248   4.673  0.9102 -0.2388  0.1520
  943MOL0     C27218   5.079  12.247   4.831 -0.1401 -0.1266  0.3887
  943MOL0     C27219   4.959  12.184   4.827  0.7452  0.1754 -0.2257
  943MOL0     N27220   4.409  11.711   4.736 -0.2773 -0.0054 -0.6847
  943MOL0     N27221   4.361  11.590   4.748  0.1917 -0.0357 -0.0662
  943MOL0     C27222   3.644  10.629   5.085 -0.2529  0.1635 -0.1575
  943MOL0     C27223   3.507  10.628   5.077 -0.0517 -0.9609 -0.0166
  943MOL0     C27224   3.098  10.522   4.943 -0.0720  0.2699 -0.0997
  943MOL0     C27225   3.037  10.637   5.002  0.0453  0.1779  0.1103
  943MOL0     C27226   2.900  10.655   4.997  0.5950  0.1956  0.3569
  943MOL0     C27227   2.821  10.560   4.945 -0.5756 -0.2201 -0.4040
  943MOL0     O27228   2.686  10.578   4.949 -0.1910  0.5056  0.6657
  943MOL0     C27229   2.625  10.587   5.084  0.4160  0.5064  0.4937
  943MOL0     C27230   2.495  10.507   5.109  0.8626 -0.2435  0.3688
  943MOL0     C27231   2.514  10.353   5.084 -0.4791  0.0083 -0.4285
  943MOL0     C27232   2.409  10.254   5.153 -0.4447  0.3346 -0.2905
  943MOL0     C27233   2.450  10.125   5.101  0.8640 -0.7145  0.0609
  943MOL0     C27234   2.472  10.023   5.054  0.1356  0.3698 -0.0238
  943MOL0     C27235   2.873  10.445   4.896 -0.3045  0.2466  0.1562
  943MOL0     C27236   3.009  10.422   4.893 -0.5393 -0.5180  0.6977
  943MOL0     C27237   3.051  10.300   4.830  0.4944 -0.2143 -0.4783
  943MOL0     H27238   3.469  10.720   4.753  0.7159  0.0143 -0.0411
  943MOL0     H27239   3.722  10.728   4.780 -0.9668  1.5851 -0.7003
  943MOL0     H27240   4.032  10.797   4.967 -0.0944  0.1502  0.9467
  943MOL0     H27241   3.899  10.826   4.850 -1.8147 -0.7134  0.5911
  943MOL0     H27242   3.910  10.920   5.148 -0.1697  1.3281 -0.8236
  943MOL0     H27243   3.787  10.971   5.035 -1.7657 -2.6617 -0.1589
  943MOL0     H27244   3.944  11.148   5.034  2.7784  2.0345  1.7528
  943MOL0     H27245   3.985  11.061   4.889  1.4329  4.3200 -0.4336
  943MOL0     H27246   4.140  11.055   5.155  3.1607  0.3116 -0.3394
  943MOL0     H27247   4.183  10.961   5.007  1.3480 -0.1358  0.8454
  943MOL0     H27248   4.316  11.166   5.023 -0.8461 -0.1043 -0.3186
  943MOL0     H27249   4.203  11.185   4.890  0.2304  1.6564 -0.4529
  943MOL0     H27250   4.063  11.329   5.079  0.1305 -0.0356  4.8515
  943MOL0     H27251   4.199  11.282   5.174  0.0092 -0.5745 -0.2942
  943MOL0     H27252   4.351  11.411   5.029 -0.2895  1.0034  2.2548
  943MOL0     H27253   4.221  11.521   5.092  3.5725  1.9092 -0.3527
  943MOL0     H27254   4.222  11.392   4.823 -0.1546  1.6727 -2.8686
  943MOL0     H27255   4.090  11.477   4.904  0.6363  0.4349  0.4316
  943MOL0     H27256   4.171  11.763   4.957 -1.4951 -3.6126  1.7643
  943MOL0     H27257   4.325  11.987   4.735  1.6924 -0.9274 -0.7263
  943MOL0     H27258   4.266  11.971   4.910 -0.9918 -1.6842 -0.2833
  943MOL0     H27259   4.454  12.101   4.922 -3.9515 -2.6065  3.2001
  943MOL0     H27260   4.514  11.944   4.972 -0.5942  1.1842  0.8108
  943MOL0     H27261   4.539  12.069   4.692 -1.6248  2.6597  2.3919
  943MOL0     H27262   4.594  11.896   4.741  0.0727 -0.2602  2.8971
  943MOL0     H27263   4.741  12.033   4.917  0.7616 -1.6156  0.0359
  943MOL0     H27264   4.694  12.170   4.815  1.2409  1.0652 -0.4468
  943MOL0     H27265   4.973  12.035   4.533 -2.6577 -0.9030  0.9967
  943MOL0     H27266   5.184  12.132   4.523  1.1033 -3.3685  1.2371
  943MOL0     H27267   5.559  12.262   4.856 -2.3280  0.3257 -0.9034
  943MOL0     H27268   5.773  12.367   4.943  2.5481  3.1244  0.3858
  943MOL0     H27269   5.777  12.729   4.817 -1.5953 -2.5072  0.8840
  943MOL0     H27270   5.768  12.810   4.982  1.1342 -0.3283  1.4775
  943MOL0     H27271   6.030  12.774   4.993 -0.4619  0.8135  0.3577
  943MOL0     H27272   6.031  12.705   4.838 -0.0299  2.0865 -1.3250
  943MOL0     H27273   5.905  12.932   4.751 -0.4828  2.9998  0.2394
  943MOL0     H27274   5.952  12.998   4.909  1.2700 -0.9980  1.3744
  943MOL0     H27275   6.119  12.865   4.698  3.2174  2.1118 -2.5935
  943MOL0     H27276   6.176  12.930   4.856 -2.3036  3.1242  2.1009
  943MOL0     H27277   6.064  13.162   4.727 -3.8877 -1.7614 -0.6570
  943MOL0     H27278   6.105  13.057   4.593  2.2834 -2.7639  0.4064
  943MOL0     H27279   6.266  13.248   4.716 -2.8552  0.1803 -0.2334
  943MOL0     H27280   6.306  13.111   4.806 -2.7541  0.5323  0.7859
  943MOL0     H27281   6.309  13.078   4.505 -0.3740  0.6638  0.5680
  943MOL0     H27282   6.361  12.955   4.625 -0.9682 -0.5415 -0.4611
  943MOL0     H27283   6.557  13.110   4.526  1.9461 -0.9051  1.3753
  943MOL0     H27284   6.501  13.226   4.640  0.8992 -0.1775  0.5090
  943MOL0     H27285   5.550  12.742   4.969 -4.5574 -1.3244 -0.3475
  943MOL0     H27286   5.357  12.626   4.913  0.6093  1.8719  3.1714
  943MOL0     H27287   5.114  12.301   4.918  1.8705  0.9759 -1.0147
  943MOL0     H27288   4.903  12.181   4.920  3.1752 -1.2700  1.2999
  943MOL0     H27289   3.702  10.588   5.167  0.9470  2.8016  0.4288
  943MOL0     H27290   3.439  10.593   5.155  1.6935 -1.9478  1.1227
  943MOL0     H27291   3.086  10.726   5.041 -1.0259  1.1764 -0.7245
  943MOL0     H27292   2.853  10.741   5.043  0.0589 -1.0708  2.2850
  943MOL0     H27293   2.604  10.693   5.100 -1.1134  0.0892  1.3819
  943MOL0     H27294   2.696  10.574   5.166  1.5633  1.8279 -0.2548
  943MOL0     H27295   2.429  10.551   5.034  2.5307 -1.8637 -2.1881
  943MOL0     H27296   2.441  10.517   5.204 -0.6170  1.7394 -0.6004
  943MOL0     H27297   2.615  10.334   5.120 -0.4962  1.9497  0.7670
  943MOL0     H27298   2.519  10.337   4.976  0.1960 -0.6526 -0.3107
  943MOL0     H27299   2.429  10.256   5.260  1.2313  3.0774 -0.5652
  943MOL0     H27300   2.303  10.276   5.141 -0.3083  1.7804  0.8077
  943MOL0     H27301   2.489   9.922   5.022 -1.5022 -1.2311  3.6006
  943MOL0     H27302   2.810  10.359   4.877  1.2650 -0.4920 -2.1574
  943MOL0     H27303   3.127  10.312   4.751  0.2175  0.8115 -0.6089
  943MOL0     H27304   3.084  10.235   4.912  1.2291 -0.9423 -1.3213
  943MOL0     H27305   2.966  10.254   4.779  1.9876  0.0276 -3.4024
  944MOL0     O27306   7.769   9.035   9.569  0.1454 -0.2415  0.8109
  944MOL0     C27307   7.689   8.994   9.481  1.0935  0.3323 -0.4167
  944MOL0     O27308   7.701   8.996   9.347 -0.3582  0.4469  0.0408
  944MOL0     C27309   7.802   9.069   9.290  0.6122  0.4798 -0.3300
  944MOL0     C27310   7.786   9.207   9.264 -0.0797  0.1617  0.5513
  944MOL0     C27311   7.885   9.277   9.207  1.0431  0.3735  0.9814
  944MOL0     C27312   8.012   9.220   9.190  0.3811  0.1786  0.5944
  944MOL0     O27313   8.122   9.285   9.140 -0.7202  0.5923 -0.0924
  944MOL0     C27314   8.099   9.405   9.072 -0.8191 -0.7030 -0.4528
  944MOL0     C27315   8.227   9.458   8.998  1.1656  0.4590 -0.5636
  944MOL0     C27316   8.344   9.480   9.091 -0.1799 -0.8213  0.9845
  944MOL0     C27317   8.470   9.523   9.009 -0.9630  0.1707 -0.3801
  944MOL0     C27318   8.583   9.592   9.084  0.5405  0.2283  0.1092
  944MOL0     C27319   8.565   9.742   9.088 -0.9932  0.0634  0.4013
  944MOL0     C27320   8.684   9.815   9.165 -0.1100  0.7602  0.1256
  944MOL0     C27321   8.666   9.962   9.147 -0.9520  0.1742  0.5329
  944MOL0     N27322   8.719  10.022   9.263  0.1203 -0.3072  0.5717
  944MOL0     C27323   8.857  10.038   9.282 -0.3918  0.2822 -0.7132
  944MOL0     C27324   8.880  10.059   9.414  1.1108  0.0779  0.1018
  944MOL0     C27325   9.024  10.080   9.476  0.2579  0.2567 -0.5272
  944MOL0     C27326   9.028  10.211   9.560 -0.2622 -0.0925 -0.0898
  944MOL0     C27327   9.160  10.230   9.628  0.3337  0.0767 -0.1334
  944MOL0     C27328   9.161  10.360   9.705  0.2153 -0.5343 -0.1067
  944MOL0     O27329   9.296  10.398   9.720  0.3098 -0.0862 -0.4546
  944MOL0     C27330   9.330  10.510   9.801  0.7995  0.0203 -0.0585
  944MOL0     C27331   9.450  10.571   9.787  0.1438 -1.6025  0.8986
  944MOL0     C27332   9.500  10.660   9.880  0.5613  0.1132  0.5572
  944MOL0     C27333   9.425  10.707   9.988  0.0879 -0.0312  1.2132
  944MOL0     C27334   9.507  10.777  10.084 -0.3197  0.3082  0.8823
  944MOL0     O27335   9.438  10.797  10.204  0.2201  0.2306 -0.6309
  944MOL0     C27336   9.488  10.880  10.305 -0.5536  0.3120  0.5635
  944MOL0     C27337   9.552  11.003  10.280  0.0652 -1.4111  0.5003
  944MOL0     C27338   9.599  11.090  10.380 -0.3531  0.0802  0.1127
  944MOL0     C27339   9.556  11.068  10.516  0.5668  0.0481 -0.3315
  944MOL0     O27340   9.578  11.158  10.619  0.0729 -0.1098  0.2882
  944MOL0     C27341   9.690  11.251  10.617  0.1006 -1.0412  0.5906
  944MOL0     C27342   9.758  11.282  10.757  0.3718 -0.2566 -0.2034
  944MOL0     C27343   9.881  11.372  10.751 -0.8062  0.4353  0.0387
  944MOL0     C27344   9.906  11.444  10.878  0.9614  0.5751 -0.0930
  944MOL0     C27345  10.014  11.550  10.871  0.0555 -0.8244  0.9458
  944MOL0     C27346  10.044  11.610  11.001  0.4858  0.0957  0.5176
  944MOL0     C27347  10.176  11.688  11.019  0.2243 -0.1045  0.2300
  944MOL0     C27348  10.198  11.721  11.165  0.6773  0.4496 -0.1150
  944MOL0    Cl27349  10.086  11.855  11.215 -0.0135 -0.3109 -0.1478
  944MOL0     C27350   9.480  10.950  10.536  0.1805  0.6564  0.6463
  944MOL0     C27351   9.456  10.853  10.440 -0.0414 -0.4777 -0.6214
  944MOL0     O27352   9.630  10.808  10.060  0.5382 -0.4745  0.1324
  944MOL0     C27353   9.291  10.658  10.001 -0.9240  0.1943  0.0080
  944MOL0     C27354   9.249  10.564   9.907  0.2997  0.0052 -0.2672
  944MOL0     N27355   8.757  10.054   9.479  0.2373 -0.5649  0.1094
  944MOL0     N27356   8.665  10.035   9.389 -0.0353 -0.5156  0.4967
  944MOL0     C27357   8.028   9.086   9.223  0.7726 -0.2847  0.5673
  944MOL0     C27358   7.922   9.019   9.282 -0.2958  0.3405  0.5822
  944MOL0     C27359   7.576   8.902   9.521 -0.3992 -0.3023 -1.3331
  944MOL0     C27360   7.605   8.764   9.541 -0.2232 -0.0225 -0.2371
  944MOL0     C27361   7.500   8.676   9.550  0.3232 -0.1671  0.3709
  944MOL0     C27362   7.367   8.716   9.573 -0.4173 -0.6281 -0.4326
  944MOL0     O27363   7.255   8.642   9.590 -0.1204  0.6092  0.0445
  944MOL0     C27364   7.273   8.501   9.594  0.5073  0.5967  0.9006
  944MOL0     C27365   7.139   8.432   9.579  0.1001 -0.0624 -0.0018
  944MOL0     C27366   7.046   8.485   9.689  0.2043 -0.4624 -0.1679
  944MOL0     C27367   6.915   8.406   9.724  0.3337  0.0382 -0.0712
  944MOL0     C27368   6.828   8.383   9.608  0.0476  0.5374 -0.1021
  944MOL0     C27369   6.763   8.346   9.520  0.1597 -1.4094 -0.1066
  944MOL0     C27370   7.333   8.856   9.555 -0.2986 -0.5039  0.9306
  944MOL0     C27371   7.440   8.948   9.527 -0.0661 -0.8142  0.9543
  944MOL0     C27372   7.400   9.088   9.475 -0.0243  0.3464  0.1370
  944MOL0     H27373   7.687   9.251   9.273 -1.4832 -2.0478 -2.5176
  944MOL0     H27374   7.867   9.381   9.181 -3.0291 -0.6654 -1.2302
  944MOL0     H27375   8.009   9.407   9.009 -0.4638  0.7768 -0.9494
  944MOL0     H27376   8.080   9.481   9.147 -0.5102  0.8229 -1.8533
  944MOL0     H27377   8.192   9.549   8.949 -2.4953 -1.0662 -1.1236
  944MOL0     H27378   8.240   9.381   8.921 -0.8917  1.1866 -1.7026
  944MOL0     H27379   8.366   9.386   9.143 -0.4106 -1.1362  0.5337
  944MOL0     H27380   8.316   9.562   9.157  1.7253  1.6432 -1.0521
  944MOL0     H27381   8.503   9.429   8.963  0.6402  0.6167 -0.1835
  944MOL0     H27382   8.443   9.601   8.937  2.9243  0.6997 -1.4577
  944MOL0     H27383   8.588   9.556   9.187  0.1903 -0.1061  0.0109
  944MOL0     H27384   8.679   9.566   9.040  0.1423  0.7330 -1.1046
  944MOL0     H27385   8.560   9.787   8.988 -1.0704 -1.1757 -0.1662
  944MOL0     H27386   8.466   9.755   9.133 -0.9808 -2.6988  1.3980
  944MOL0     H27387   8.784   9.786   9.130  0.9809  3.5279  0.6957
  944MOL0     H27388   8.683   9.784   9.269  1.3574  0.2106  0.0018
  944MOL0     H27389   8.719   9.993   9.057 -1.3465  1.7747  0.8157
  944MOL0     H27390   8.561   9.985   9.129 -0.6452  1.5180  0.3446
  944MOL0     H27391   8.926  10.035   9.198  1.9883 -1.2444  1.1793
  944MOL0     H27392   9.035   9.990   9.537 -2.4756 -1.1030 -1.8515
  944MOL0     H27393   9.107  10.075   9.405  1.7393 -1.4667  1.2060
  944MOL0     H27394   9.005  10.299   9.499  2.0701 -0.0560 -1.0440
  944MOL0     H27395   8.949  10.202   9.635 -0.6656 -0.2541 -0.5279
  944MOL0     H27396   9.236  10.226   9.550  2.0968  1.5333  1.4286
  944MOL0     H27397   9.189  10.152   9.699 -1.0752  0.2395  0.6647
  944MOL0     H27398   9.117  10.344   9.804 -0.8207  2.2448 -0.0113
  944MOL0     H27399   9.107  10.438   9.651 -0.4430 -0.8672  0.0591
  944MOL0     H27400   9.515  10.554   9.702 -1.2874  1.5384 -0.9748
  944MOL0     H27401   9.606  10.677   9.861  0.3356 -0.3978 -1.4684
  944MOL0     H27402   9.590  11.031  10.182 -3.7633  2.2566 -0.2501
  944MOL0     H27403   9.662  11.173  10.350  1.2727 -0.5770  1.5156
  944MOL0     H27404   9.763  11.223  10.541  0.9544  4.5110 -1.0446
  944MOL0     H27405   9.646  11.346  10.583  1.9303  0.5647  2.4699
  944MOL0     H27406   9.684  11.336  10.816  1.9643  0.5322  1.1747
  944MOL0     H27407   9.787  11.198  10.820 -1.0170  0.0313  0.8518
  944MOL0     H27408   9.966  11.310  10.721 -1.1658 -1.0318  1.8637
  944MOL0     H27409   9.854  11.447  10.676 -1.8367  0.0517  0.0106
  944MOL0     H27410   9.947  11.380  10.957  0.6355  2.1322  1.3863
  944MOL0     H27411   9.815  11.495  10.910  0.9661  1.3715 -1.2861
  944MOL0     H27412   9.971  11.626  10.805  0.8247 -0.2342  1.1127
  944MOL0     H27413  10.105  11.508  10.827 -0.9047 -2.1187  0.1234
  944MOL0     H27414   9.969  11.688  11.019 -0.2804 -0.1027 -1.5421
  944MOL0     H27415  10.032  11.536  11.081  0.5864  1.8710  2.2579
  944MOL0     H27416  10.172  11.784  10.967 -0.2763 -0.5237 -0.5182
  944MOL0     H27417  10.262  11.638  10.973  0.6945  1.7220 -0.9881
  944MOL0     H27418  10.189  11.629  11.225  1.4913 -0.6306 -1.5964
  944MOL0     H27419  10.299  11.759  11.183  0.3003  1.3009  0.2664
  944MOL0     H27420   9.441  10.928  10.635  2.8606 -0.2232  1.5795
  944MOL0     H27421   9.390  10.771  10.464  1.4937 -3.1603 -4.5917
  944MOL0     H27422   9.225  10.689  10.081  0.4491 -0.2103  1.3252
  944MOL0     H27423   9.147  10.527   9.910 -0.0659  0.5246 -3.2884
  944MOL0     H27424   8.123   9.036   9.208 -0.1608 -2.4281  1.4179
  944MOL0     H27425   7.949   8.919   9.313  0.7534  0.0131 -1.2499
  944MOL0     H27426   7.706   8.724   9.535  0.5734  2.0786 -2.9831
  944MOL0     H27427   7.512   8.569   9.536  1.6784 -0.1390  1.1497
  944MOL0     H27428   7.325   8.473   9.686  1.9164 -0.9567 -0.3004
  944MOL0     H27429   7.321   8.462   9.504 -0.1746  2.5670 -0.4103
  944MOL0     H27430   7.155   8.325   9.597  3.2012  0.5675  1.6979
  944MOL0     H27431   7.101   8.446   9.477  0.2272  1.0741  0.0944
  944MOL0     H27432   7.006   8.580   9.653 -0.3224 -1.4795 -2.4500
  944MOL0     H27433   7.101   8.503   9.782 -2.4243 -2.1432  1.8475
  944MOL0     H27434   6.948   8.316   9.778  0.5230  0.3608  0.3596
  944MOL0     H27435   6.857   8.472   9.789 -0.9512 -1.9528  0.8946
  944MOL0     H27436   6.711   8.321   9.430  0.1054 -0.3966 -0.3719
  944MOL0     H27437   7.232   8.895   9.556  0.4727  2.0556 -2.6618
  944MOL0     H27438   7.315   9.125   9.533 -0.9040  1.1461 -1.5773
  944MOL0     H27439   7.475   9.166   9.488  0.0952  0.0138  1.5905
  944MOL0     H27440   7.366   9.088   9.371 -0.4905  1.9129  0.2673
  945MOL0     O27441   3.557   6.812   0.476 -0.0920  0.3237  0.7360
  945MOL0     C27442   3.598   6.696   0.459  0.4078 -1.0678 -0.4868
  945MOL0     O27443   3.695   6.635   0.535  0.2607 -0.0356 -0.6481
  945MOL0     C27444   3.773   6.714   0.624  0.4489 -0.2446  0.4737
  945MOL0     C27445   3.730   6.736   0.752 -0.2943 -0.5978 -0.8579
  945MOL0     C27446   3.808   6.804   0.839 -0.1726 -0.3064 -0.0899
  945MOL0     C27447   3.936   6.850   0.807 -0.4284  1.0424 -0.1937
  945MOL0     O27448   4.016   6.920   0.887 -0.2680 -0.2050  0.0500
  945MOL0     C27449   3.987   7.064   0.880 -0.3374  0.7213 -0.2499
  945MOL0     C27450   4.056   7.139   1.002 -0.1715  0.4839  0.0180
  945MOL0     C27451   4.017   7.291   1.007 -0.2460 -0.4699 -0.2317
  945MOL0     C27452   4.127   7.377   0.945  0.2446 -0.4596 -0.3785
  945MOL0     C27453   4.251   7.409   1.034  0.2274  0.0386 -0.1055
  945MOL0     C27454   4.239   7.457   1.184 -0.0488 -0.0888 -0.5260
  945MOL0     C27455   4.367   7.530   1.225 -0.4962 -0.1684  0.3856
  945MOL0     C27456   4.494   7.443   1.226 -0.1552 -0.4516 -0.7430
  945MOL0     N27457   4.598   7.517   1.295  0.5257 -0.9548  0.9866
  945MOL0     C27458   4.712   7.559   1.231  0.1034  0.3658  0.0205
  945MOL0     C27459   4.777   7.625   1.329  0.1319 -0.0693 -0.8077
  945MOL0     C27460   4.906   7.696   1.311  0.4549  0.2789  0.4554
  945MOL0     C27461   5.000   7.698   1.434  0.8804  0.1439  0.0860
  945MOL0     C27462   5.114   7.799   1.401  0.4008  0.2414  0.1010
  945MOL0     C27463   5.228   7.803   1.510  0.0013 -0.2406  0.7657
  945MOL0     O27464   5.306   7.681   1.514  0.7244  0.5036 -0.5246
  945MOL0     C27465   5.425   7.695   1.441 -0.0588 -0.1388  1.4164
  945MOL0     C27466   5.542   7.727   1.500 -0.6901  0.3107  0.0896
  945MOL0     C27467   5.654   7.745   1.422  0.5834 -0.0452 -0.4332
  945MOL0     C27468   5.655   7.709   1.284 -0.2117 -0.0637  0.5241
  945MOL0     C27469   5.780   7.712   1.207 -0.6191  0.4198  0.0769
  945MOL0     O27470   5.897   7.731   1.272  0.1634 -0.3656  0.4249
  945MOL0     C27471   6.001   7.780   1.191  0.3660 -1.0144  0.6307
  945MOL0     C27472   5.999   7.910   1.129 -0.4937  0.1409 -0.8260
  945MOL0     C27473   6.113   7.959   1.062  1.1525  0.2793  0.1023
  945MOL0     C27474   6.220   7.875   1.037  0.6664  0.2752 -0.5735
  945MOL0     O27475   6.320   7.914   0.954  0.2529  0.2912  0.8996
  945MOL0     C27476   6.361   8.056   0.954 -0.2815 -0.1960 -0.0991
  945MOL0     C27477   6.389   8.099   0.813 -0.2084 -1.1220  0.3720
  945MOL0     C27478   6.259   8.144   0.731  1.2195 -0.0717 -0.7856
  945MOL0     C27479   6.244   8.301   0.730  0.6455  0.2463  0.1580
  945MOL0     C27480   6.107   8.347   0.691 -0.3443 -0.3613 -0.1722
  945MOL0     C27481   6.078   8.313   0.542  0.1844  1.2127 -0.5640
  945MOL0     C27482   5.942   8.349   0.486  0.7010 -0.3122  0.2606
  945MOL0     C27483   5.952   8.377   0.338  0.4868  0.3700  0.7064
  945MOL0    Cl27484   5.983   8.225   0.248  0.1632 -0.1447 -0.1813
  945MOL0     C27485   6.220   7.751   1.102 -0.5464 -0.2523 -0.2808
  945MOL0     C27486   6.117   7.708   1.183  0.5938  0.2220  0.2000
  945MOL0     O27487   5.770   7.690   1.084  0.0153 -0.3237 -0.4849
  945MOL0     C27488   5.528   7.664   1.220 -0.1335 -1.1104 -0.6553
  945MOL0     C27489   5.413   7.661   1.299 -0.1435 -0.5800 -0.5925
  945MOL0     N27490   4.717   7.599   1.448  0.3848 -0.1296  0.1960
  945MOL0     N27491   4.600   7.548   1.430 -0.0581  0.0922  0.1944
  945MOL0     C27492   3.979   6.831   0.677  0.3875 -0.4487 -0.7940
  945MOL0     C27493   3.899   6.762   0.585 -0.1192  0.2352 -0.5311
  945MOL0     C27494   3.522   6.620   0.345  0.0511  0.0570  0.6406
  945MOL0     C27495   3.460   6.702   0.249  0.5655 -0.5581  0.0359
  945MOL0     C27496   3.378   6.650   0.149 -0.0703 -0.0378  0.7880
  945MOL0     C27497   3.380   6.516   0.125 -0.4283  1.4614  0.6543
  945MOL0     O27498   3.305   6.457   0.020 -0.4956  0.1256  0.2405
  945MOL0     C27499   3.221   6.343   0.054 -0.5730  0.6761 -0.3761
  945MOL0     C27500   3.105   6.405   0.139 -0.1036 -0.3309  0.4795
  945MOL0     C27501   3.033   6.523   0.070 -0.3790  0.1370 -0.0098
  945MOL0     C27502   2.908   6.580   0.149  0.1571 -0.7219  0.4480
  945MOL0     C27503   2.894   6.719   0.098 -1.2213 -0.4387  0.6394
  945MOL0     C27504   2.886   6.833   0.045  0.7171  0.2234 -0.4611
  945MOL0     C27505   3.455   6.435   0.212 -0.7527  0.4946 -0.2666
  945MOL0     C27506   3.529   6.485   0.316 -0.9355  0.6518  0.2559
  945MOL0     C27507   3.594   6.380   0.411  0.1645 -0.7939  0.9328
  945MOL0     H27508   3.633   6.700   0.785 -0.0355 -0.6737 -0.1685
  945MOL0     H27509   3.756   6.827   0.931 -0.0965  0.1391 -0.1554
  945MOL0     H27510   4.036   7.105   0.792  1.2508  1.0104  0.7200
  945MOL0     H27511   3.878   7.072   0.880 -0.3590  1.0513  1.9399
  945MOL0     H27512   4.164   7.132   0.987  0.2805  2.5169  1.9268
  945MOL0     H27513   4.037   7.081   1.093  2.9951 -0.6064  0.1041
  945MOL0     H27514   4.000   7.338   1.105  0.7180 -0.0379 -0.2604
  945MOL0     H27515   3.933   7.307   0.939  0.1788 -1.6897 -1.0660
  945MOL0     H27516   4.167   7.325   0.857 -0.3045 -2.6146  0.5838
  945MOL0     H27517   4.076   7.473   0.934  0.4125 -0.2171  0.7536
  945MOL0     H27518   4.324   7.328   1.033  0.3712  0.1626 -1.3443
  945MOL0     H27519   4.311   7.485   0.982  0.0078  0.6258  0.4936
  945MOL0     H27520   4.147   7.515   1.185  1.2980  2.2684  2.4643
  945MOL0     H27521   4.218   7.382   1.261  0.3433 -0.2595 -0.5773
  945MOL0     H27522   4.344   7.582   1.319 -0.2048  2.6622 -1.0242
  945MOL0     H27523   4.377   7.611   1.153 -1.0731  1.2388  1.8110
  945MOL0     H27524   4.468   7.346   1.270 -2.3470  0.0682 -0.7696
  945MOL0     H27525   4.518   7.415   1.123 -0.6303 -3.3463 -0.1491
  945MOL0     H27526   4.742   7.541   1.129  1.4601  2.1917  0.0598
  945MOL0     H27527   4.959   7.634   1.238 -2.5277 -2.0384  0.0826
  945MOL0     H27528   4.883   7.801   1.288 -4.1192 -1.1279 -2.7785
  945MOL0     H27529   4.955   7.735   1.526  1.0380 -0.9757  0.6385
  945MOL0     H27530   5.040   7.596   1.444 -2.2388 -2.1151 -5.7146
  945MOL0     H27531   5.058   7.892   1.393 -0.3469 -0.2575 -0.6335
  945MOL0     H27532   5.177   7.780   1.313  2.6926  3.8177  0.7358
  945MOL0     H27533   5.183   7.831   1.606  1.9093 -1.3053  2.0291
  945MOL0     H27534   5.288   7.891   1.487  2.6241 -2.6073 -2.3718
  945MOL0     H27535   5.541   7.737   1.608 -0.6693 -2.0679  0.3710
  945MOL0     H27536   5.741   7.791   1.468  0.7613 -2.0445  1.3600
  945MOL0     H27537   5.904   7.962   1.132 -0.5789 -0.0732  1.2564
  945MOL0     H27538   6.090   8.059   1.028 -0.4678  0.8898  2.6841
  945MOL0     H27539   6.289   8.130   0.992 -0.2021  0.3625 -1.0111
  945MOL0     H27540   6.447   8.066   1.022 -0.6126 -0.4000  0.3596
  945MOL0     H27541   6.469   8.173   0.801 -1.6912  0.2678 -1.6476
  945MOL0     H27542   6.427   8.007   0.767 -0.9495 -0.1401 -2.3895
  945MOL0     H27543   6.278   8.104   0.631  0.5387  1.3733 -1.5328
  945MOL0     H27544   6.163   8.103   0.763  0.5947  1.5243 -0.5422
  945MOL0     H27545   6.321   8.340   0.663  2.0037  0.2896  1.6684
  945MOL0     H27546   6.263   8.322   0.836  2.3888 -1.2685  0.2016
  945MOL0     H27547   6.097   8.455   0.705  0.6243 -0.4080  1.0715
  945MOL0     H27548   6.032   8.299   0.754 -1.4242  2.8902  1.2294
  945MOL0     H27549   6.144   8.378   0.484  0.8122  1.0643 -0.0278
  945MOL0     H27550   6.100   8.208   0.521  2.6638  1.5176  0.1307
  945MOL0     H27551   5.919   8.442   0.539  0.2790  0.3551 -1.0545
  945MOL0     H27552   5.857   8.285   0.509 -0.1165  1.4316  2.5276
  945MOL0     H27553   5.858   8.413   0.296  0.4880 -1.2740 -0.8402
  945MOL0     H27554   6.042   8.435   0.314  1.1383  0.0803  2.3088
  945MOL0     H27555   6.307   7.689   1.082  1.5580  2.5989 -0.5505
  945MOL0     H27556   6.134   7.606   1.217  0.0274 -0.5949 -1.7942
  945MOL0     H27557   5.520   7.632   1.116 -0.1288 -2.4397 -0.2660
  945MOL0     H27558   5.325   7.616   1.254  0.1801 -0.0843 -1.7456
  945MOL0     H27559   4.068   6.888   0.655 -0.9778  2.2474  0.3028
  945MOL0     H27560   3.938   6.753   0.484 -0.8753 -2.0465 -0.6787
  945MOL0     H27561   3.454   6.810   0.258  1.0497 -0.4647 -0.6579
  945MOL0     H27562   3.335   6.726   0.086 -1.8646 -0.0713  1.8698
  945MOL0     H27563   3.275   6.253   0.084 -3.8867 -1.7090 -0.9821
  945MOL0     H27564   3.177   6.299  -0.036  2.6572  1.3871 -2.5056
  945MOL0     H27565   3.147   6.437   0.235  2.9176  0.1888 -0.8956
  945MOL0     H27566   3.035   6.323   0.160 -1.1987  1.0445  2.6692
  945MOL0     H27567   3.000   6.485  -0.027  2.2560  3.7009 -2.5625
  945MOL0     H27568   3.100   6.606   0.044  0.6131 -0.9149 -0.9356
  945MOL0     H27569   2.811   6.536   0.122  0.3314 -1.4895  1.0251
  945MOL0     H27570   2.932   6.583   0.255 -0.1911  1.4155  0.5031
  945MOL0     H27571   2.885   6.928  -0.004  1.5142  1.3416  1.5774
  945MOL0     H27572   3.445   6.327   0.212  1.2916  0.1799 -3.3129
  945MOL0     H27573   3.591   6.412   0.515  1.5554 -0.7802  0.9932
  945MOL0     H27574   3.554   6.278   0.407 -0.8637 -0.4167  1.4086
  945MOL0     H27575   3.700   6.379   0.385 -0.1550  0.8190 -0.5995
  946MOL0     O27576   8.173  11.185   2.311 -0.4879  0.2040 -0.2338
  946MOL0     C27577   8.286  11.149   2.352  0.7469 -0.2124  0.6397
  946MOL0     O27578   8.338  11.172   2.473  0.0495  0.2051  0.3289
  946MOL0     C27579   8.258  11.182   2.574  0.3889  0.0591 -0.6344
  946MOL0     C27580   8.254  11.299   2.648 -0.6421 -0.1782 -0.0534
  946MOL0     C27581   8.173  11.317   2.758  0.3967  0.1284  0.1338
  946MOL0     C27582   8.086  11.210   2.793  0.7996  0.6728 -0.2361
  946MOL0     O27583   7.998  11.212   2.899 -0.4517 -0.2934 -0.3635
  946MOL0     C27584   7.950  11.332   2.954  0.0937 -0.6137 -0.5347
  946MOL0     C27585   7.822  11.312   3.042  0.1105 -0.0226  0.1138
  946MOL0     C27586   7.706  11.240   2.957 -0.1099 -0.2327 -0.0749
  946MOL0     C27587   7.575  11.254   3.033 -0.0399  0.2054 -0.0599
  946MOL0     C27588   7.462  11.177   2.964 -0.8391 -0.3801  0.0406
  946MOL0     C27589   7.320  11.196   3.023 -0.9188 -0.0159  0.4661
  946MOL0     C27590   7.298  11.115   3.149 -0.0205  0.6212  0.1343
  946MOL0     C27591   7.155  11.091   3.197  0.1421  0.5957 -0.2179
  946MOL0     N27592   7.157  10.993   3.302 -0.6189  0.9167 -0.0830
  946MOL0     C27593   7.200  11.007   3.432 -0.3950 -0.7465 -0.1689
  946MOL0     C27594   7.201  10.880   3.480 -0.2165 -0.7021 -0.5276
  946MOL0     C27595   7.238  10.828   3.616  0.0575  1.0795 -0.3312
  946MOL0     C27596   7.371  10.761   3.611 -0.7402  0.1557 -0.1976
  946MOL0     C27597   7.403  10.690   3.740 -0.1950  0.0868  0.2315
  946MOL0     C27598   7.432  10.782   3.853  0.2495  0.1699  0.1297
  946MOL0     O27599   7.320  10.861   3.905 -0.5052  0.5831  0.0719
  946MOL0     C27600   7.234  10.810   3.999 -0.5061  0.1599 -0.4542
  946MOL0     C27601   7.288  10.755   4.111 -0.7230  0.9500  0.4050
  946MOL0     C27602   7.205  10.702   4.210 -0.6277 -0.1114  0.1003
  946MOL0     C27603   7.071  10.711   4.191  0.6399 -0.4346 -0.6909
  946MOL0     C27604   6.976  10.637   4.276 -1.1973  0.1948  0.2791
  946MOL0     O27605   6.838  10.653   4.268 -0.0293 -0.2257 -0.0132
  946MOL0     C27606   6.764  10.583   4.368  0.0086  0.2268  0.4174
  946MOL0     C27607   6.732  10.642   4.492  0.2417  0.5324  0.8823
  946MOL0     C27608   6.665  10.566   4.595 -0.4919  0.9704 -0.1817
  946MOL0     C27609   6.623  10.432   4.552  0.8553 -0.4954  0.0464
  946MOL0     O27610   6.557  10.364   4.643  0.9125  0.1738  0.6669
  946MOL0     C27611   6.450  10.416   4.714  0.1305  1.1112 -0.4356
  946MOL0     C27612   6.368  10.297   4.782  0.5607 -0.7515  0.3087
  946MOL0     C27613   6.272  10.358   4.891 -0.8262  1.6713  0.8880
  946MOL0     C27614   6.159  10.260   4.928  0.0495  0.6687 -0.5000
  946MOL0     C27615   6.076  10.296   5.057  0.7254  0.4688 -0.3309
  946MOL0     C27616   6.160  10.259   5.175 -0.1851 -0.2123 -0.2739
  946MOL0     C27617   6.085  10.291   5.307  0.0570 -0.4613  0.0372
  946MOL0     C27618   6.153  10.226   5.426  0.4119  0.4592  0.0613
  946MOL0    Cl27619   6.108  10.303   5.575 -0.0099  0.1674  0.1919
  946MOL0     C27620   6.647  10.377   4.426  0.4738 -0.7805 -0.7977
  946MOL0     C27621   6.719  10.457   4.335 -0.0536 -0.3339  0.6289
  946MOL0     O27622   7.026  10.546   4.335 -0.3231 -0.3280  0.5309
  946MOL0     C27623   7.020  10.788   4.082  0.1344  0.6004  0.0073
  946MOL0     C27624   7.096  10.828   3.979  0.7833 -0.4081 -0.2902
  946MOL0     N27625   7.169  10.802   3.379  0.3529  0.1989  0.0388
  946MOL0     N27626   7.149  10.863   3.275  0.7798 -0.0754  0.1244
  946MOL0     C27627   8.090  11.086   2.723 -0.5100 -0.4043 -0.5471
  946MOL0     C27628   8.178  11.072   2.615  0.1570  0.4274 -0.3408
  946MOL0     C27629   8.370  11.088   2.244  0.0321 -0.7172  0.3324
  946MOL0     C27630   8.504  11.125   2.250 -0.1560  0.1112 -0.7416
  946MOL0     C27631   8.590  11.084   2.150 -0.2340  0.2966 -0.2706
  946MOL0     C27632   8.552  10.993   2.053  0.6287 -1.1409  0.0736
  946MOL0     O27633   8.649  10.961   1.960 -0.7753 -0.6143 -0.1291
  946MOL0     C27634   8.613  10.905   1.827  0.1190 -0.2832 -0.4473
  946MOL0     C27635   8.718  10.935   1.724 -0.6819 -0.6627  0.2283
  946MOL0     C27636   8.869  10.915   1.767 -0.6312  0.2231  0.7216
  946MOL0     C27637   8.963  10.942   1.657 -0.6487  0.2482 -0.6254
  946MOL0     C27638   9.102  10.919   1.710 -1.0468 -0.8115 -0.1317
  946MOL0     C27639   9.217  10.914   1.747 -0.1566  0.4920  0.5984
  946MOL0     C27640   8.421  10.960   2.044  0.6914 -0.3447 -0.1879
  946MOL0     C27641   8.326  11.012   2.133  0.3239  0.4769 -0.5452
  946MOL0     C27642   8.184  10.973   2.110  0.8749  0.3912 -0.2133
  946MOL0     H27643   8.324  11.376   2.615  0.8375 -1.6359 -0.4745
  946MOL0     H27644   8.168  11.404   2.822 -3.6764  0.4132 -0.3480
  946MOL0     H27645   8.036  11.371   3.009  1.0890 -3.6748  0.2220
  946MOL0     H27646   7.923  11.410   2.881  3.9170  1.5609  0.0851
  946MOL0     H27647   7.783  11.406   3.081  0.8548  0.5437 -0.4750
  946MOL0     H27648   7.854  11.263   3.134 -2.3021  0.6309  1.3777
  946MOL0     H27649   7.727  11.133   2.942 -2.9807 -0.7371 -1.1568
  946MOL0     H27650   7.685  11.295   2.864  0.2675  3.3308  1.7962
  946MOL0     H27651   7.585  11.206   3.131 -1.2189  0.6920  0.3202
  946MOL0     H27652   7.552  11.357   3.061  1.7246  0.4691  0.5194
  946MOL0     H27653   7.450  11.214   2.861  3.2761  0.8596 -0.1550
  946MOL0     H27654   7.484  11.070   2.956 -2.0456 -0.6485  0.1000
  946MOL0     H27655   7.300  11.300   3.050 -1.5343 -0.1969  0.7325
  946MOL0     H27656   7.244  11.162   2.952 -0.4075  1.3852 -0.7935
  946MOL0     H27657   7.359  11.164   3.225  1.2601 -2.1647  1.0281
  946MOL0     H27658   7.342  11.018   3.123 -3.1837 -1.2801  1.3785
  946MOL0     H27659   7.094  11.177   3.225 -1.4145 -0.3267 -0.6154
  946MOL0     H27660   7.099  11.049   3.112 -1.1922 -3.4616  2.3832
  946MOL0     H27661   7.224  11.102   3.479  0.6944  0.1593 -2.4005
  946MOL0     H27662   7.255  10.915   3.680  0.0369  1.1078 -0.3642
  946MOL0     H27663   7.162  10.764   3.661  0.9843 -0.5464 -0.9582
  946MOL0     H27664   7.383  10.694   3.525  1.4089  1.4615 -0.9945
  946MOL0     H27665   7.441  10.840   3.581 -0.5451 -0.7042 -2.1856
  946MOL0     H27666   7.497  10.637   3.721  0.6916  1.5478  0.3881
  946MOL0     H27667   7.325  10.621   3.772  0.4186 -0.2086  1.1636
  946MOL0     H27668   7.518  10.847   3.830  2.0383 -1.9099  0.6087
  946MOL0     H27669   7.469  10.717   3.932 -0.3954  1.3565  1.4563
  946MOL0     H27670   7.397  10.750   4.115 -0.0303  0.4051 -6.8463
  946MOL0     H27671   7.253  10.659   4.297  1.1619  2.3759  0.4665
  946MOL0     H27672   6.774  10.740   4.508  1.3583  0.2961 -0.4177
  946MOL0     H27673   6.651  10.608   4.694 -0.8299  0.7968 -0.1559
  946MOL0     H27674   6.479  10.488   4.790  1.2004 -0.0279  0.2749
  946MOL0     H27675   6.385  10.466   4.641  0.7816  3.6840  0.6639
  946MOL0     H27676   6.310  10.256   4.699  0.0397  1.9543 -0.7701
  946MOL0     H27677   6.438  10.225   4.827 -1.9310 -1.8139  2.8525
  946MOL0     H27678   6.339  10.377   4.975  1.2621  0.8787 -0.5106
  946MOL0     H27679   6.233  10.451   4.848  0.0949  1.4698 -0.4533
  946MOL0     H27680   6.208  10.163   4.935 -2.1491 -0.4743  0.0868
  946MOL0     H27681   6.092  10.254   4.842 -1.3428 -0.5023  0.6047
  946MOL0     H27682   5.989  10.230   5.054  1.3174 -0.3291 -3.5434
  946MOL0     H27683   6.043  10.400   5.055 -2.8789 -0.5247  0.2699
  946MOL0     H27684   6.181  10.151   5.176  0.8754 -0.1120  3.5306
  946MOL0     H27685   6.254  10.314   5.171 -0.3132  0.4516  2.9133
  946MOL0     H27686   5.982  10.255   5.310 -0.9167  1.9243  4.4497
  946MOL0     H27687   6.088  10.400   5.316 -1.0094 -0.3542 -0.8061
  946MOL0     H27688   6.123  10.121   5.436  0.2243  0.4450 -0.6249
  946MOL0     H27689   6.262  10.222   5.416  0.2406 -0.8721 -1.8738
  946MOL0     H27690   6.620  10.275   4.402 -2.2983 -0.4439  0.5764
  946MOL0     H27691   6.753  10.418   4.239  0.6697  0.8645  0.3764
  946MOL0     H27692   6.913  10.804   4.091 -0.2651 -2.3820  2.1907
  946MOL0     H27693   7.055  10.883   3.895  1.4699  1.5287  0.5943
  946MOL0     H27694   8.027  11.000   2.742 -1.2519 -0.6076 -3.3966
  946MOL0     H27695   8.190  10.973   2.572 -2.1717 -0.2301  0.4043
  946MOL0     H27696   8.537  11.197   2.325  2.1637  2.1457 -3.4749
  946MOL0     H27697   8.693  11.119   2.148 -1.2998  3.7902 -1.7810
  946MOL0     H27698   8.516  10.940   1.792 -0.1216 -0.3761  0.1080
  946MOL0     H27699   8.602  10.797   1.840 -0.3293 -0.2550 -0.5931
  946MOL0     H27700   8.701  11.038   1.692 -2.0971 -0.3613  1.8413
  946MOL0     H27701   8.706  10.861   1.645 -2.1110 -2.1154  1.7429
  946MOL0     H27702   8.884  10.808   1.785  0.5940  0.4683  1.3079
  946MOL0     H27703   8.900  10.973   1.855  2.2774 -0.9276  0.5935
  946MOL0     H27704   8.961  10.867   1.577 -0.4191 -1.1108  0.6107
  946MOL0     H27705   8.955  11.046   1.624  0.4816  0.5506 -0.0027
  946MOL0     H27706   9.320  10.919   1.777 -0.0963  1.2273  0.2971
  946MOL0     H27707   8.374  10.903   1.964 -1.3949 -0.5167  1.0909
  946MOL0     H27708   8.125  11.053   2.065  0.2686 -0.0484 -0.2213
  946MOL0     H27709   8.175  10.889   2.041  1.0490 -0.4824  0.7974
  946MOL0     H27710   8.127  10.934   2.196  0.4522 -1.5555 -1.3068
  947MOL0     O27711   9.532   1.278   0.823 -0.2187  0.8670 -0.7445
  947MOL0     C27712   9.554   1.185   0.747  0.9149  0.0577 -0.2035
  947MOL0     O27713   9.675   1.116   0.734  1.4124  0.4976 -0.1365
  947MOL0     C27714   9.782   1.167   0.805  0.0591 -0.2103  0.3011
  947MOL0     C27715   9.894   1.168   0.725 -0.4582 -0.2033 -1.0072
  947MOL0     C27716  10.003   1.229   0.779 -0.0839  0.2732  0.0142
  947MOL0     C27717  10.013   1.271   0.913 -1.2268 -0.3508  0.5873
  947MOL0     O27718  10.126   1.317   0.980  0.2192 -1.0059 -0.0865
  947MOL0     C27719  10.226   1.387   0.896  0.7122 -0.0329  0.2621
  947MOL0     C27720  10.312   1.472   0.993 -1.0532 -0.3588  0.3203
  947MOL0     C27721  10.455   1.505   0.948  0.5085  0.1160 -0.5102
  947MOL0     C27722  10.545   1.379   0.953 -0.3700 -0.4814 -0.1050
  947MOL0     C27723  10.693   1.419   0.962  0.2252  0.9133 -0.0707
  947MOL0     C27724  10.783   1.294   0.922 -0.3919  0.3777 -0.3572
  947MOL0     C27725  10.934   1.337   0.900  0.5435 -0.0889 -0.3757
  947MOL0     C27726  11.002   1.236   0.814 -0.1655 -0.5064  0.7445
  947MOL0     N27727  11.150   1.258   0.810 -0.1831  0.0033  0.2830
  947MOL0     C27728  11.222   1.363   0.866 -0.0502  0.1850 -0.1075
  947MOL0     C27729  11.337   1.306   0.904  0.4938 -0.5285  0.1611
  947MOL0     C27730  11.451   1.343   0.996 -0.2388 -0.4860 -1.0090
  947MOL0     C27731  11.564   1.421   0.927 -0.2926 -0.6338 -0.5841
  947MOL0     C27732  11.661   1.486   1.032 -0.0991 -0.0715 -0.5812
  947MOL0     C27733  11.783   1.556   0.960 -0.1720 -0.5102 -0.2624
  947MOL0     O27734  11.854   1.449   0.890  0.0677  1.0050 -0.3633
  947MOL0     C27735  11.969   1.457   0.812  0.3786  0.4596  0.1273
  947MOL0     C27736  12.050   1.571   0.819 -0.6125  0.1673  0.5771
  947MOL0     C27737  12.167   1.577   0.736  1.2075 -0.3010  0.2397
  947MOL0     C27738  12.197   1.471   0.650 -0.5998  0.0019  0.3128
  947MOL0     C27739  12.323   1.467   0.570 -1.0308 -0.0977 -0.0647
  947MOL0     O27740  12.324   1.373   0.471  0.0834 -0.2764  0.6517
  947MOL0     C27741  12.441   1.339   0.401  0.0608 -0.1240  0.2217
  947MOL0     C27742  12.486   1.206   0.395 -0.7894 -0.3084 -0.0375
  947MOL0     C27743  12.596   1.166   0.318 -0.4271 -0.0384 -0.5511
  947MOL0     C27744  12.677   1.273   0.260 -0.0694 -0.3096 -0.3742
  947MOL0     O27745  12.791   1.249   0.193 -0.3454 -0.3371 -0.3713
  947MOL0     C27746  12.871   1.127   0.217 -0.3571 -0.2357  0.6246
  947MOL0     C27747  13.012   1.157   0.156  0.0945  0.1130 -0.1085
  947MOL0     C27748  13.015   1.188   0.007 -0.3285 -0.3961 -0.5508
  947MOL0     C27749  12.972   1.075  -0.086  0.8597  1.0885  0.5749
  947MOL0     C27750  12.935   1.115  -0.233  0.1104  0.9179 -0.9927
  947MOL0     C27751  12.810   1.195  -0.239  0.1536  0.1014  0.0117
  947MOL0     C27752  12.789   1.226  -0.391  0.0030  0.1404 -0.4527
  947MOL0     C27753  12.671   1.327  -0.412 -0.2843  0.1321  0.1358
  947MOL0    Cl27754  12.654   1.360  -0.590  0.2184  0.6807  0.2645
  947MOL0     C27755  12.635   1.407   0.286 -1.0813  0.5862 -0.1273
  947MOL0     C27756  12.521   1.438   0.345  0.2612 -0.5959  0.0110
  947MOL0     O27757  12.417   1.544   0.606 -0.5128  0.0085  0.5491
  947MOL0     C27758  12.108   1.358   0.645  0.6687  0.6165 -0.3400
  947MOL0     C27759  11.998   1.362   0.718  0.1767  0.4643 -0.7387
  947MOL0     N27760  11.346   1.184   0.849 -0.1776 -0.2129  0.1312
  947MOL0     N27761  11.231   1.143   0.799 -0.3740 -0.5089  0.1268
  947MOL0     C27762   9.903   1.256   1.000 -0.3870 -0.4168  0.6033
  947MOL0     C27763   9.784   1.205   0.942  0.0470 -0.2033 -0.7222
  947MOL0     C27764   9.432   1.129   0.671 -0.0239 -0.6391 -0.3227
  947MOL0     C27765   9.327   1.219   0.653  1.1070 -1.2808  0.9372
  947MOL0     C27766   9.208   1.192   0.578 -0.2933 -0.2332 -0.4978
  947MOL0     C27767   9.191   1.056   0.530 -0.1004  0.1641 -0.0068
  947MOL0     O27768   9.071   1.017   0.473  0.1233  1.0024 -0.2734
  947MOL0     C27769   9.039   0.876   0.469 -0.2859 -0.0120 -0.1764
  947MOL0     C27770   8.917   0.859   0.381 -0.4037 -0.1447 -0.0540
  947MOL0     C27771   8.964   0.822   0.238 -0.4440  0.5752 -0.4267
  947MOL0     C27772   8.968   0.672   0.201  0.1351 -0.6380 -0.6472
  947MOL0     C27773   8.842   0.597   0.234  1.7900 -0.3288 -0.0905
  947MOL0     C27774   8.727   0.545   0.249  0.2896  0.2597  0.2484
  947MOL0     C27775   9.293   0.959   0.564  0.0446  0.3388 -1.2269
  947MOL0     C27776   9.413   0.997   0.625 -0.2656  0.3502 -0.5648
  947MOL0     C27777   9.515   0.879   0.660  0.5367  0.4801  0.1258
  947MOL0     H27778   9.901   1.130   0.623  1.7942 -1.5553 -0.4101
  947MOL0     H27779  10.096   1.223   0.723 -0.0833  0.2993  0.0120
  947MOL0     H27780  10.286   1.313   0.843 -0.1847 -0.1951 -0.5680
  947MOL0     H27781  10.185   1.454   0.819 -0.5567 -1.4002 -0.3008
  947MOL0     H27782  10.329   1.421   1.088 -0.0987 -0.5696  0.0433
  947MOL0     H27783  10.271   1.569   1.024  0.0847  0.2693 -0.0476
  947MOL0     H27784  10.496   1.590   1.003 -0.1488  0.7332 -0.9515
  947MOL0     H27785  10.464   1.537   0.844  1.1896  0.8527 -0.2351
  947MOL0     H27786  10.522   1.313   1.037  2.5908 -0.3053  0.9757
  947MOL0     H27787  10.544   1.320   0.861  1.7356  0.0265 -0.5282
  947MOL0     H27788  10.707   1.513   0.908  1.3187 -0.1806 -1.8204
  947MOL0     H27789  10.707   1.441   1.068 -2.1117  0.2279  0.4318
  947MOL0     H27790  10.774   1.226   1.007  1.1337  1.8566  1.0814
  947MOL0     H27791  10.744   1.254   0.828  0.3420  3.6476 -2.2376
  947MOL0     H27792  10.995   1.341   0.991  3.7839  1.0463 -2.4626
  947MOL0     H27793  10.925   1.439   0.861 -1.0799  1.8738  4.3377
  947MOL0     H27794  10.981   1.135   0.849 -0.8190 -1.0054 -0.9760
  947MOL0     H27795  10.968   1.240   0.710  0.6827 -1.2800  0.4247
  947MOL0     H27796  11.185   1.463   0.884  1.7001  0.9298 -0.3831
  947MOL0     H27797  11.411   1.412   1.072  2.8053  0.3645 -0.0627
  947MOL0     H27798  11.479   1.248   1.042  0.7339  1.3659  2.6396
  947MOL0     H27799  11.606   1.341   0.866 -1.3639 -1.4074 -0.3397
  947MOL0     H27800  11.512   1.497   0.868 -0.5844  1.2897  1.9580
  947MOL0     H27801  11.682   1.404   1.101 -3.1108 -1.3610 -1.0420
  947MOL0     H27802  11.599   1.556   1.090 -0.8117 -1.0572 -0.1170
  947MOL0     H27803  11.847   1.605   1.034  0.5271  0.7732 -1.6580
  947MOL0     H27804  11.755   1.640   0.895  0.0474 -0.4964 -0.3393
  947MOL0     H27805  12.024   1.648   0.891  1.7868  2.8096 -1.1683
  947MOL0     H27806  12.225   1.669   0.739 -1.3975  1.4941 -0.6527
  947MOL0     H27807  12.430   1.117   0.422 -2.5472  0.8826  0.3824
  947MOL0     H27808  12.617   1.060   0.303  3.3140  0.5439 -0.4639
  947MOL0     H27809  12.869   1.093   0.321 -1.5158  0.7130  0.9278
  947MOL0     H27810  12.815   1.047   0.167 -1.6251  0.2622  1.2180
  947MOL0     H27811  13.063   1.238   0.210  1.1399 -0.2337 -0.5522
  947MOL0     H27812  13.066   1.063   0.166 -0.8424 -1.0298 -4.0652
  947MOL0     H27813  12.942   1.268  -0.008 -1.2707 -1.3450 -1.1718
  947MOL0     H27814  13.115   1.215  -0.028 -0.1772 -2.0009 -1.4526
  947MOL0     H27815  12.884   1.031  -0.039 -0.6063  4.4438  1.3143
  947MOL0     H27816  13.049   0.999  -0.099 -1.4196 -1.1887 -0.4671
  947MOL0     H27817  12.933   1.028  -0.299 -0.7005  0.9311 -0.9859
  947MOL0     H27818  13.014   1.182  -0.268  0.1216  0.8476 -1.1010
  947MOL0     H27819  12.723   1.140  -0.201  1.8560 -0.8238  2.9619
  947MOL0     H27820  12.832   1.284  -0.179 -0.3747 -2.1100  3.8307
  947MOL0     H27821  12.758   1.134  -0.440 -2.4650  0.6753 -0.0185
  947MOL0     H27822  12.884   1.267  -0.428 -0.0937 -0.1293 -1.0018
  947MOL0     H27823  12.582   1.287  -0.363 -0.0076  0.8629  1.3005
  947MOL0     H27824  12.707   1.419  -0.363  0.3904  0.3061 -0.6755
  947MOL0     H27825  12.703   1.484   0.250 -1.8169  1.1810 -0.2664
  947MOL0     H27826  12.494   1.542   0.356 -0.0457 -0.4233 -1.9869
  947MOL0     H27827  12.122   1.271   0.581  0.1307  0.2298  0.0579
  947MOL0     H27828  11.915   1.291   0.715  1.3241 -1.0636  1.3145
  947MOL0     H27829   9.907   1.284   1.105  0.6631 -0.0346  0.4691
  947MOL0     H27830   9.694   1.204   1.002 -0.5475  1.0472 -1.5317
  947MOL0     H27831   9.322   1.323   0.686 -1.8296 -1.6140  1.8274
  947MOL0     H27832   9.128   1.258   0.546 -0.7307 -0.6288 -0.2454
  947MOL0     H27833   9.007   0.842   0.568  2.3753  1.6403  1.3512
  947MOL0     H27834   9.121   0.813   0.434 -0.7363 -0.7451  0.0662
  947MOL0     H27835   8.863   0.954   0.376  1.1392  0.7719 -0.0109
  947MOL0     H27836   8.852   0.782   0.423  0.2313 -0.6527  0.0115
  947MOL0     H27837   9.067   0.858   0.225 -0.3060 -0.5270 -3.0077
  947MOL0     H27838   8.908   0.887   0.170 -1.0633  0.7217  0.2102
  947MOL0     H27839   8.988   0.672   0.093 -0.6540  1.6083 -0.8296
  947MOL0     H27840   9.054   0.620   0.245  1.0120  3.6063  3.4911
  947MOL0     H27841   8.627   0.519   0.275 -0.0945  3.3317  2.4192
  947MOL0     H27842   9.288   0.857   0.527  1.9141 -0.1713 -0.2025
  947MOL0     H27843   9.615   0.916   0.633 -0.2330  0.0169 -4.0048
  947MOL0     H27844   9.511   0.858   0.767 -0.0543  3.7375  0.8764
  947MOL0     H27845   9.488   0.789   0.604  3.1121  0.0048 -0.5021
  948MOL0     O27846   5.093   2.671   4.045  0.0764 -0.3729  0.6186
  948MOL0     C27847   5.181   2.596   4.083  0.6232  0.0315 -0.5102
  948MOL0     O27848   5.158   2.469   4.118  0.4423  0.2273  0.6467
  948MOL0     C27849   5.029   2.425   4.130 -0.2102 -0.2123  0.1999
  948MOL0     C27850   4.981   2.361   4.016  0.1023  0.6561 -0.1804
  948MOL0     C27851   4.846   2.319   4.016  0.7460 -0.9623  0.2455
  948MOL0     C27852   4.766   2.339   4.140  0.2906  0.4546 -1.3863
  948MOL0     O27853   4.638   2.294   4.158 -0.1232 -0.1417 -0.0827
  948MOL0     C27854   4.553   2.309   4.043  0.0965 -0.0496  0.2042
  948MOL0     C27855   4.410   2.291   4.091  0.4617 -0.8275 -0.5189
  948MOL0     C27856   4.387   2.161   4.169 -0.5291  0.9835  1.1750
  948MOL0     C27857   4.252   2.100   4.169 -0.4316 -0.7405  0.5921
  948MOL0     C27858   4.261   1.949   4.216 -0.2745 -1.0367 -0.3350
  948MOL0     C27859   4.111   1.921   4.226  0.5081 -0.3881 -0.2530
  948MOL0     C27860   4.081   1.776   4.213 -0.1186 -0.4435  0.0821
  948MOL0     C27861   4.157   1.698   4.313  0.1523  0.4970 -0.1413
  948MOL0     N27862   4.100   1.560   4.341 -0.0928 -1.0638  0.2281
  948MOL0     C27863   4.037   1.484   4.247 -0.3238  0.4222  0.2412
  948MOL0     C27864   4.021   1.363   4.309  0.1985  0.1914 -0.0912
  948MOL0     C27865   3.953   1.245   4.236 -1.3638  0.3510 -0.6759
  948MOL0     C27866   4.043   1.177   4.136  0.8235 -0.5865  0.2714
  948MOL0     C27867   3.981   1.055   4.078 -0.4285 -0.0390 -0.5799
  948MOL0     C27868   3.899   1.088   3.953  0.7458  0.0680 -0.8451
  948MOL0     O27869   3.788   0.992   3.939  0.2856  0.3719  1.1747
  948MOL0     C27870   3.824   0.866   3.901  0.1017 -0.4198  0.2382
  948MOL0     C27871   3.800   0.766   3.996 -0.7798  0.6351  0.2250
  948MOL0     C27872   3.840   0.635   3.961  0.0794  0.3391 -0.3405
  948MOL0     C27873   3.876   0.597   3.833  1.0281  0.1781 -1.1076
  948MOL0     C27874   3.898   0.453   3.801  0.2163 -0.9158 -0.0617
  948MOL0     O27875   3.879   0.370   3.899  0.1853  0.2588 -0.6938
  948MOL0     C27876   3.877   0.234   3.868  0.5808 -0.4714 -0.5574
  948MOL0     C27877   3.786   0.164   3.782 -0.7461  0.2559 -0.4886
  948MOL0     C27878   3.798   0.027   3.751 -0.5575  0.0075  0.4183
  948MOL0     C27879   3.902  -0.045   3.812 -0.1771  0.1918  0.5500
  948MOL0     O27880   3.914  -0.178   3.775  0.5094  0.5555 -1.1157
  948MOL0     C27881   3.991  -0.259   3.872  0.1856  0.5421 -0.0234
  948MOL0     C27882   4.144  -0.265   3.852 -0.6643  0.2904  0.2267
  948MOL0     C27883   4.173  -0.330   3.712 -0.2112  0.1679 -0.2862
  948MOL0     C27884   4.319  -0.370   3.707  0.0394 -0.2520  0.2031
  948MOL0     C27885   4.399  -0.278   3.607  0.7532  0.1612 -0.2533
  948MOL0     C27886   4.546  -0.294   3.611 -0.4217 -0.8740 -0.7941
  948MOL0     C27887   4.613  -0.232   3.490 -0.0603 -0.0123  0.1862
  948MOL0     C27888   4.601  -0.315   3.359 -0.3000  0.1607  0.1007
  948MOL0    Cl27889   4.641  -0.496   3.360 -0.4843 -0.0167  0.0030
  948MOL0     C27890   3.987   0.024   3.902 -0.7723  0.2207  0.0226
  948MOL0     C27891   3.977   0.164   3.928 -0.4825 -0.1504  0.0221
  948MOL0     O27892   3.945   0.430   3.686 -0.8835 -0.0449  0.1621
  948MOL0     C27893   3.872   0.698   3.735 -0.4028  0.9795  0.4172
  948MOL0     C27894   3.853   0.832   3.769 -0.4255  0.6837  0.5010
  948MOL0     N27895   4.078   1.366   4.438  0.2965 -1.1457 -0.2277
  948MOL0     N27896   4.127   1.484   4.455 -0.5062 -0.0043  0.1103
  948MOL0     C27897   4.829   2.402   4.249  0.4984  0.2395 -0.2951
  948MOL0     C27898   4.959   2.457   4.241  0.3966 -0.2368  0.3381
  948MOL0     C27899   5.321   2.633   4.087  0.2168  0.0504 -0.4578
  948MOL0     C27900   5.362   2.772   4.074 -0.3397 -0.2104 -0.7081
  948MOL0     C27901   5.495   2.825   4.081 -0.8458 -0.0810  0.0874
  948MOL0     C27902   5.601   2.734   4.105  0.5222  0.5660  0.2310
  948MOL0     O27903   5.722   2.777   4.111 -0.3373 -0.9389  0.0639
  948MOL0     C27904   5.811   2.717   4.214 -1.0758  0.7143  0.8884
  948MOL0     C27905   5.912   2.818   4.271  0.2198  0.4224 -0.6883
  948MOL0     C27906   5.975   2.918   4.170  1.3270  0.1500  0.1572
  948MOL0     C27907   6.083   3.016   4.225 -0.8650  0.2700 -1.1950
  948MOL0     C27908   6.021   3.115   4.306 -0.0082 -0.3161 -0.0861
  948MOL0     C27909   5.958   3.211   4.348  0.7874 -0.1791 -0.3152
  948MOL0     C27910   5.562   2.595   4.112  0.5002  0.2843 -0.4847
  948MOL0     C27911   5.436   2.546   4.092 -0.3999 -0.0330  0.3695
  948MOL0     C27912   5.418   2.399   4.075 -1.2105  0.9306 -0.6246
  948MOL0     H27913   5.046   2.344   3.931  0.3987  1.2172 -0.0657
  948MOL0     H27914   4.809   2.264   3.930 -0.8641  1.4509 -0.6904
  948MOL0     H27915   4.559   2.413   4.008 -1.1128 -0.5568 -1.6457
  948MOL0     H27916   4.581   2.243   3.960 -2.1739 -0.8320  0.0158
  948MOL0     H27917   4.345   2.294   4.003  0.5889  1.0717 -0.6043
  948MOL0     H27918   4.379   2.372   4.157 -1.6267 -0.6574 -1.6164
  948MOL0     H27919   4.405   2.177   4.276  0.8860 -0.3555  1.1741
  948MOL0     H27920   4.469   2.095   4.138  1.5064  4.1416 -0.7176
  948MOL0     H27921   4.186   2.155   4.238  1.1268  1.0230  0.7651
  948MOL0     H27922   4.205   2.112   4.071 -3.3394  3.2055  2.1758
  948MOL0     H27923   4.314   1.890   4.141  0.1842  1.2438 -1.8938
  948MOL0     H27924   4.296   1.942   4.319 -0.4614  1.1420 -0.0732
  948MOL0     H27925   4.067   1.954   4.320 -1.6739  1.2771 -1.7421
  948MOL0     H27926   4.053   1.976   4.151  1.4366  0.3876 -0.4224
  948MOL0     H27927   4.099   1.734   4.113  0.7988  0.0433  0.0350
  948MOL0     H27928   3.972   1.776   4.223 -0.1834  1.9035 -0.0868
  948MOL0     H27929   4.255   1.690   4.266  0.8046  2.0026  0.8967
  948MOL0     H27930   4.164   1.741   4.413 -3.4949  0.5392  0.2326
  948MOL0     H27931   4.004   1.509   4.147 -0.6726 -1.3149 -0.1100
  948MOL0     H27932   3.920   1.167   4.306  0.0936 -0.8765 -1.2940
  948MOL0     H27933   3.864   1.284   4.186 -2.2473 -0.4207  0.2497
  948MOL0     H27934   4.071   1.248   4.057 -2.7201  3.2086  2.0559
  948MOL0     H27935   4.142   1.165   4.180  1.3500  2.1344  0.0013
  948MOL0     H27936   3.931   0.998   4.156 -0.1718 -0.1658 -0.5092
  948MOL0     H27937   4.058   0.987   4.041 -0.2505 -0.1412 -0.0277
  948MOL0     H27938   3.981   1.092   3.880  3.9537 -0.1242  2.4501
  948MOL0     H27939   3.861   1.189   3.973 -1.5764 -1.0992  1.2318
  948MOL0     H27940   3.757   0.793   4.091 -1.0496  0.9656  0.0099
  948MOL0     H27941   3.842   0.551   4.031  1.0397 -0.2994 -1.0969
  948MOL0     H27942   3.715   0.233   3.737 -0.6627  1.0709  0.5825
  948MOL0     H27943   3.734  -0.022   3.678 -1.6749 -1.4692  2.3047
  948MOL0     H27944   3.967  -0.235   3.976  0.8292  0.3597  0.1681
  948MOL0     H27945   3.957  -0.362   3.866 -0.5866  0.7665  0.4101
  948MOL0     H27946   4.179  -0.162   3.847  0.0895 -0.0064 -3.1346
  948MOL0     H27947   4.208  -0.310   3.928  0.6182  3.0573  0.9161
  948MOL0     H27948   4.126  -0.428   3.700  1.8710 -0.9546  0.2670
  948MOL0     H27949   4.155  -0.266   3.624  1.8789 -0.6496 -1.3805
  948MOL0     H27950   4.322  -0.472   3.667  1.2147 -0.1283 -0.0675
  948MOL0     H27951   4.373  -0.380   3.802  2.9191  1.2707 -1.1206
  948MOL0     H27952   4.386  -0.171   3.627  1.7014  0.5743 -1.6551
  948MOL0     H27953   4.363  -0.290   3.504 -0.4372  0.0500  0.1633
  948MOL0     H27954   4.574  -0.236   3.699 -3.5624  0.5020 -0.5528
  948MOL0     H27955   4.580  -0.397   3.621 -1.3388 -1.1670 -0.6377
  948MOL0     H27956   4.722  -0.235   3.499  0.0550  1.4413 -0.4938
  948MOL0     H27957   4.599  -0.124   3.481  1.1955 -0.0024 -2.1384
  948MOL0     H27958   4.501  -0.294   3.320 -0.4717  0.9602  0.9349
  948MOL0     H27959   4.668  -0.275   3.282  2.6617  0.7292  2.7550
  948MOL0     H27960   4.072  -0.021   3.952 -0.9193  0.8283  0.8547
  948MOL0     H27961   4.033   0.225   3.998 -1.7465  1.3565 -0.2158
  948MOL0     H27962   3.885   0.682   3.628  1.1943  0.2655  0.6839
  948MOL0     H27963   3.849   0.902   3.686 -1.5809  2.8915  2.2982
  948MOL0     H27964   4.763   2.428   4.331 -1.4722 -1.3162 -1.2867
  948MOL0     H27965   4.986   2.516   4.328  0.7834  0.1103 -0.0163
  948MOL0     H27966   5.279   2.839   4.052 -1.6126 -1.3901  0.3114
  948MOL0     H27967   5.509   2.931   4.066 -0.8295  0.2919  2.4297
  948MOL0     H27968   5.865   2.639   4.159 -1.4388  1.4868 -0.6042
  948MOL0     H27969   5.759   2.681   4.304 -2.1967 -1.2022 -0.4525
  948MOL0     H27970   5.990   2.767   4.328 -1.6232  0.0107  1.6142
  948MOL0     H27971   5.853   2.873   4.345 -1.6045  0.4369 -2.1086
  948MOL0     H27972   5.895   2.979   4.129  1.7719  0.3485 -0.4298
  948MOL0     H27973   6.023   2.853   4.097  1.1175 -1.1895  1.1611
  948MOL0     H27974   6.162   2.964   4.280 -1.3438 -1.1878 -1.8352
  948MOL0     H27975   6.127   3.074   4.144  0.8930  2.0969  0.9393
  948MOL0     H27976   5.911   3.288   4.406  3.6578  0.6539  1.1216
  948MOL0     H27977   5.640   2.521   4.122 -0.4984 -0.5610  1.5218
  948MOL0     H27978   5.349   2.373   3.994 -3.0305 -1.6986  1.5800
  948MOL0     H27979   5.514   2.346   4.065 -2.3194 -1.6114  1.2290
  948MOL0     H27980   5.371   2.364   4.167  1.0151  1.9298  0.9957
  949MOL0     O27981   5.851   2.226  10.870 -0.3384 -0.5822  0.6591
  949MOL0     C27982   5.827   2.166  10.977  0.8687  0.2286  0.0057
  949MOL0     O27983   5.816   2.221  11.103 -0.0825 -0.2940 -0.0187
  949MOL0     C27984   5.847   2.355  11.123  0.8794  0.1491  0.5449
  949MOL0     C27985   5.941   2.397  11.211 -0.1450  0.1510 -0.2544
  949MOL0     C27986   5.983   2.531  11.211  0.0349 -0.9645 -0.2654
  949MOL0     C27987   5.914   2.633  11.144  0.9309  0.5255 -0.0808
  949MOL0     O27988   5.943   2.770  11.159 -0.3360  0.9292 -0.5027
  949MOL0     C27989   6.084   2.800  11.184 -0.5232 -0.3990 -0.0660
  949MOL0     C27990   6.101   2.953  11.204  0.3474  0.2254  1.1447
  949MOL0     C27991   6.013   2.994  11.318 -0.2435  0.1226  0.6980
  949MOL0     C27992   6.026   3.144  11.363 -0.1362  0.3980  0.3915
  949MOL0     C27993   5.945   3.170  11.489  0.1445  0.4239  0.3971
  949MOL0     C27994   6.006   3.279  11.580  0.2327 -0.7265  0.0263
  949MOL0     C27995   6.158   3.268  11.609  0.1951  0.6771  0.9778
  949MOL0     C27996   6.206   3.121  11.664  0.7832  0.5412 -0.2643
  949MOL0     N27997   6.352   3.132  11.675 -0.8033 -0.2357 -0.2712
  949MOL0     C27998   6.438   3.124  11.573 -0.5513  0.2892 -0.9880
  949MOL0     C27999   6.554   3.181  11.615  0.3485  0.1401  0.5406
  949MOL0     C28000   6.688   3.184  11.545  0.0392  0.3323 -0.6205
  949MOL0     C28001   6.802   3.101  11.621  0.5416  0.1017  0.1130
  949MOL0     C28002   6.916   3.061  11.529  0.5924 -0.5058  0.1721
  949MOL0     C28003   6.976   2.931  11.597  0.6186 -1.2412  0.0093
  949MOL0     O28004   7.075   2.864  11.516  0.4143  0.3653 -0.5440
  949MOL0     C28005   7.186   2.928  11.466 -0.1244 -0.5887 -0.4821
  949MOL0     C28006   7.253   2.869  11.363  0.4428  0.4221 -0.7835
  949MOL0     C28007   7.367   2.926  11.311  0.6070  0.3628  0.5111
  949MOL0     C28008   7.413   3.046  11.369 -0.2769  0.6373 -0.4808
  949MOL0     C28009   7.544   3.101  11.319 -0.2682 -0.8359 -0.6304
  949MOL0     O28010   7.616   3.185  11.394 -0.2575 -0.3512  0.1476
  949MOL0     C28011   7.728   3.262  11.349  0.8154 -0.3523 -0.5602
  949MOL0     C28012   7.751   3.300  11.221  0.5082 -0.0491  0.5134
  949MOL0     C28013   7.858   3.385  11.179 -0.1288 -0.3819  0.8852
  949MOL0     C28014   7.935   3.435  11.282 -0.0305 -0.9164 -0.6618
  949MOL0     O28015   8.033   3.522  11.253 -0.0559 -0.0507 -0.7610
  949MOL0     C28016   8.141   3.464  11.182  1.0864  0.1936 -1.0838
  949MOL0     C28017   8.263   3.556  11.159 -0.7246 -0.6167  0.2396
  949MOL0     C28018   8.326   3.622  11.285 -0.1062  0.6135  0.3622
  949MOL0     C28019   8.465   3.672  11.258  0.9748 -0.9972 -1.2154
  949MOL0     C28020   8.530   3.714  11.386  0.6332  0.2614  0.2022
  949MOL0     C28021   8.667   3.783  11.371  0.7392 -0.3630 -0.6332
  949MOL0     C28022   8.717   3.826  11.514 -0.4972  0.1954  0.5371
  949MOL0     C28023   8.873   3.804  11.528  1.1286 -0.5923  0.1603
  949MOL0    Cl28024   8.904   3.632  11.522 -0.0575  0.1117  0.1563
  949MOL0     C28025   7.901   3.413  11.420  0.2259  0.4461 -0.7073
  949MOL0     C28026   7.800   3.319  11.449  0.2299 -0.1576  0.2904
  949MOL0     O28027   7.577   3.068  11.204 -0.3433  0.0147 -0.3004
  949MOL0     C28028   7.353   3.103  11.485  1.0739  0.1732  0.3303
  949MOL0     C28029   7.238   3.043  11.532  0.1598 -1.3486 -0.0602
  949MOL0     N28030   6.542   3.202  11.749 -0.4415  0.9639 -0.3310
  949MOL0     N28031   6.419   3.184  11.780  0.4015  0.4950  0.5080
  949MOL0     C28032   5.804   2.586  11.064  0.0527 -0.7014 -0.6529
  949MOL0     C28033   5.773   2.446  11.047  0.5518 -0.7396 -0.8836
  949MOL0     C28034   5.805   2.024  10.966  0.0874 -0.1308 -0.5091
  949MOL0     C28035   5.694   1.974  11.026 -0.1914  0.3796  0.9095
  949MOL0     C28036   5.652   1.843  10.992 -0.2452  0.7650 -0.5466
  949MOL0     C28037   5.719   1.746  10.921 -0.8322 -0.6405  0.3407
  949MOL0     O28038   5.656   1.622  10.903  0.3288 -0.2216  0.2660
  949MOL0     C28039   5.712   1.526  10.821 -0.0276  0.2885  0.2937
  949MOL0     C28040   5.840   1.451  10.859  0.1954 -0.7968  0.1462
  949MOL0     C28041   5.894   1.344  10.752  0.7827  0.1396  0.3426
  949MOL0     C28042   5.942   1.409  10.631  0.5867  0.3327  0.0962
  949MOL0     C28043   6.046   1.510  10.655  0.1718 -0.4124 -0.0617
  949MOL0     C28044   6.127   1.599  10.674 -0.6229  1.0141 -0.6626
  949MOL0     C28045   5.838   1.803  10.865  1.1597  0.0797  0.2593
  949MOL0     C28046   5.883   1.938  10.882 -0.6634 -0.2092  0.0918
  949MOL0     C28047   6.011   1.981  10.810  0.3447 -0.2928 -0.3008
  949MOL0     H28048   5.983   2.334  11.289 -1.1606 -1.2904 -0.8317
  949MOL0     H28049   6.047   2.558  11.294 -1.2894  2.1874 -0.1219
  949MOL0     H28050   6.123   2.749  11.272 -2.0985 -0.2493  0.7625
  949MOL0     H28051   6.146   2.762  11.102 -2.4299 -2.2214 -0.7708
  949MOL0     H28052   6.079   3.001  11.108 -0.2549 -0.6341  0.8334
  949MOL0     H28053   6.207   2.977  11.219 -0.3005  3.1719  1.5976
  949MOL0     H28054   6.051   2.939  11.404  3.0568  2.2451  0.7677
  949MOL0     H28055   5.908   2.976  11.291  0.8138 -3.0034 -1.9528
  949MOL0     H28056   6.135   3.141  11.376 -0.0129 -2.0819 -0.5160
  949MOL0     H28057   6.012   3.202  11.271  6.5158  0.8509 -0.8634
  949MOL0     H28058   5.844   3.187  11.453  0.1374 -3.4160 -1.9441
  949MOL0     H28059   5.943   3.081  11.552  0.2680 -0.8207 -1.2813
  949MOL0     H28060   5.994   3.376  11.531  4.2422 -1.4044 -2.7608
  949MOL0     H28061   5.959   3.271  11.678  1.4506 -0.9064  0.6087
  949MOL0     H28062   6.187   3.344  11.682 -0.6968  0.7653  1.2621
  949MOL0     H28063   6.208   3.284  11.513 -0.6150 -0.9019  0.2590
  949MOL0     H28064   6.171   3.097  11.765  1.4009  2.0839  0.3483
  949MOL0     H28065   6.170   3.046  11.593 -1.9523 -0.5651  2.0918
  949MOL0     H28066   6.422   3.100  11.468 -0.9487 -0.8915 -0.6720
  949MOL0     H28067   6.686   3.148  11.442  0.7049  2.3113 -1.3811
  949MOL0     H28068   6.731   3.285  11.544  2.6670 -0.6834  0.3886
  949MOL0     H28069   6.830   3.172  11.699 -3.0979  0.4324  1.3287
  949MOL0     H28070   6.750   3.019  11.671  0.5304  0.9105  1.4675
  949MOL0     H28071   6.992   3.139  11.523 -0.8084  0.8518 -0.8834
  949MOL0     H28072   6.874   3.039  11.430  3.3931  1.1924 -1.5370
  949MOL0     H28073   6.888   2.867  11.590  0.4650 -0.8717 -1.8348
  949MOL0     H28074   7.001   2.960  11.700  0.1246 -2.4434  0.4870
  949MOL0     H28075   7.217   2.782  11.309  1.0032  1.0335 -2.2146
  949MOL0     H28076   7.412   2.878  11.225  3.0409  2.9614  0.1806
  949MOL0     H28077   7.687   3.272  11.138  1.7095  1.7171 -1.1076
  949MOL0     H28078   7.873   3.393  11.072  2.2690 -0.8464  1.1235
  949MOL0     H28079   8.165   3.368  11.229  0.0939 -0.7485 -2.4440
  949MOL0     H28080   8.094   3.434  11.088 -2.7097  1.1402  0.2903
  949MOL0     H28081   8.340   3.492  11.115 -0.2082 -0.5793  1.0692
  949MOL0     H28082   8.248   3.640  11.090  5.5150  2.6182  2.0396
  949MOL0     H28083   8.274   3.703  11.337  2.2546  1.4473  1.5882
  949MOL0     H28084   8.320   3.538  11.355 -2.0238  0.8962  0.5823
  949MOL0     H28085   8.452   3.762  11.197 -0.8980  0.4932  1.1782
  949MOL0     H28086   8.528   3.601  11.203  0.9496  0.6809 -3.5832
  949MOL0     H28087   8.553   3.633  11.457 -2.8269  0.4422  1.7619
  949MOL0     H28088   8.473   3.785  11.448  2.2179  0.6344  1.2978
  949MOL0     H28089   8.739   3.712  11.330 -1.9932 -5.2289  2.0560
  949MOL0     H28090   8.652   3.870  11.307 -2.2933 -0.6879 -0.5008
  949MOL0     H28091   8.659   3.771  11.589 -0.5962 -0.0287  0.2994
  949MOL0     H28092   8.688   3.931  11.520 -1.3060 -0.0227  0.6659
  949MOL0     H28093   8.920   3.848  11.440 -1.5859  0.5729 -0.8280
  949MOL0     H28094   8.920   3.850  11.614 -0.0209  1.7307 -0.3697
  949MOL0     H28095   7.958   3.464  11.497  1.1571 -0.3500 -0.8549
  949MOL0     H28096   7.785   3.286  11.551  2.3267 -0.4754  0.5419
  949MOL0     H28097   7.418   3.181  11.525  1.0138 -0.0562  0.8910
  949MOL0     H28098   7.182   3.089  11.613 -0.8006  0.5422 -1.7019
  949MOL0     H28099   5.739   2.653  11.009  2.7982  2.7423 -0.0461
  949MOL0     H28100   5.690   2.421  10.982 -1.6338 -1.0258  1.8428
  949MOL0     H28101   5.617   2.033  11.075 -1.0530 -0.1627  0.2480
  949MOL0     H28102   5.558   1.812  11.036  0.1791  0.7045  0.3332
  949MOL0     H28103   5.731   1.564  10.720 -1.1948  0.6079  0.1790
  949MOL0     H28104   5.636   1.447  10.810  0.5418 -0.1501 -0.7252
  949MOL0     H28105   5.825   1.391  10.949 -1.5786 -1.0490 -0.2625
  949MOL0     H28106   5.916   1.528  10.874 -1.5924  0.8098  1.5887
  949MOL0     H28107   5.819   1.272  10.718  2.9775 -0.7740 -3.1823
  949MOL0     H28108   5.978   1.291  10.797  0.8286 -0.0670  0.0207
  949MOL0     H28109   5.975   1.329  10.563 -2.1611 -1.0923  0.2895
  949MOL0     H28110   5.860   1.459  10.579  1.7680  3.7299  1.2521
  949MOL0     H28111   6.207   1.669  10.688  2.2561 -1.8262 -1.6403
  949MOL0     H28112   5.878   1.729  10.796  1.0566  0.3522 -0.0907
  949MOL0     H28113   6.092   1.966  10.882 -2.1303 -1.4443  2.4905
  949MOL0     H28114   6.035   1.904  10.736  1.2275  1.2915 -1.7219
  949MOL0     H28115   5.986   2.075  10.760 -2.0188 -0.6226  0.1442
  950MOL0     O28116   9.475   5.492  10.240 -0.2725 -0.3909 -0.5565
  950MOL0     C28117   9.596   5.512  10.212 -0.0312 -0.1664  0.2134
  950MOL0     O28118   9.676   5.599  10.284 -0.1843  0.0580 -0.0178
  950MOL0     C28119   9.627   5.695  10.383 -0.4207  0.0554  0.4302
  950MOL0     C28120   9.719   5.749  10.473  0.9178  0.5886 -0.3161
  950MOL0     C28121   9.680   5.831  10.587 -0.9799 -0.5848 -0.6913
  950MOL0     C28122   9.548   5.870  10.599 -0.3000 -0.2451 -0.1879
  950MOL0     O28123   9.493   5.951  10.700 -0.5128 -0.1299  0.1513
  950MOL0     C28124   9.550   5.963  10.834 -0.2340 -0.5491  0.5486
  950MOL0     C28125   9.514   5.853  10.923 -0.1128  0.2701  0.3375
  950MOL0     C28126   9.573   5.891  11.062 -0.6164 -1.3372  0.3593
  950MOL0     C28127   9.529   5.780  11.161 -0.0605 -0.0262 -0.1928
  950MOL0     C28128   9.496   5.824  11.309  0.7097  0.0083  0.5622
  950MOL0     C28129   9.574   5.951  11.340 -0.1351 -0.2397  0.0385
  950MOL0     C28130   9.605   5.948  11.493 -0.1786 -0.9540  0.8417
  950MOL0     C28131   9.664   6.088  11.535 -0.3089  0.1973 -0.7206
  950MOL0     N28132   9.739   6.073  11.658  0.5396  1.1419  1.1882
  950MOL0     C28133   9.685   6.052  11.785 -0.3636  0.2983 -0.4389
  950MOL0     C28134   9.793   6.055  11.864 -0.8469 -0.0687  0.4458
  950MOL0     C28135   9.806   6.035  12.008 -0.2982  0.1944  0.0406
  950MOL0     C28136   9.882   5.897  12.038  0.1280 -0.5164  0.1669
  950MOL0     C28137  10.037   5.895  12.026 -0.7978 -0.5326  0.3103
  950MOL0     C28138  10.118   6.005  12.104  0.2383  0.7217  0.0650
  950MOL0     O28139  10.252   6.004  12.066  1.1154  0.0196  0.2716
  950MOL0     C28140  10.296   6.084  11.960  0.0682 -0.4201  0.5213
  950MOL0     C28141  10.428   6.078  11.934  0.0173  0.1177 -0.1297
  950MOL0     C28142  10.500   6.167  11.846  0.1776  0.5845 -0.3712
  950MOL0     C28143  10.430   6.268  11.774 -0.2627  0.2906 -1.1304
  950MOL0     C28144  10.501   6.354  11.678  0.7860 -1.1134  0.3385
  950MOL0     O28145  10.634   6.374  11.699  0.7168  0.4670  0.2699
  950MOL0     C28146  10.706   6.433  11.599 -0.4459 -1.6511  0.6930
  950MOL0     C28147  10.788   6.350  11.524  0.3581  0.8641  0.0199
  950MOL0     C28148  10.881   6.400  11.438 -0.2481 -0.1151  0.7300
  950MOL0     C28149  10.879   6.534  11.398 -0.3382 -0.3940 -0.8879
  950MOL0     O28150  10.949   6.597  11.302  0.1969 -0.1507 -0.2870
  950MOL0     C28151  11.054   6.526  11.246 -0.1820 -0.0521  0.0606
  950MOL0     C28152  11.125   6.610  11.135  0.8514 -0.0802 -0.6220
  950MOL0     C28153  11.251   6.524  11.074  0.5340 -0.3977  0.8286
  950MOL0     C28154  11.300   6.577  10.934  0.3779 -0.0855  0.3450
  950MOL0     C28155  11.384   6.717  10.936 -0.4933 -0.4407 -0.1623
  950MOL0     C28156  11.438   6.758  10.802  0.5003 -0.7593  0.3569
  950MOL0     C28157  11.456   6.913  10.775  0.4179  0.5086  0.7049
  950MOL0     C28158  11.604   6.945  10.751  0.1114  0.6206  0.0424
  950MOL0    Cl28159  11.630   7.121  10.709  0.1011 -0.4499  0.0711
  950MOL0     C28160  10.795   6.623  11.477 -0.9400 -0.1032 -0.1982
  950MOL0     C28161  10.709   6.573  11.581  1.0991  0.3312 -0.5480
  950MOL0     O28162  10.441   6.391  11.568 -0.1284  0.0929 -1.4232
  950MOL0     C28163  10.286   6.277  11.801 -0.1921 -0.3822 -0.7511
  950MOL0     C28164  10.226   6.196  11.896  0.5249  0.8326  0.0479
  950MOL0     N28165   9.912   6.065  11.786  0.0708  0.4567  0.2780
  950MOL0     N28166   9.873   6.077  11.662  0.8741  0.1493  0.5213
  950MOL0     C28167   9.453   5.826  10.498 -0.9905 -0.2487 -0.1229
  950MOL0     C28168   9.492   5.741  10.395 -0.2210 -0.3589  0.8771
  950MOL0     C28169   9.664   5.446  10.090  0.1532 -0.5999 -0.6799
  950MOL0     C28170   9.804   5.440  10.097 -0.4174  0.1921  0.5570
  950MOL0     C28171   9.888   5.373   9.999  0.0629  0.4747 -0.2261
  950MOL0     C28172   9.821   5.323   9.891 -1.3248  0.5832 -0.3792
  950MOL0     O28173   9.892   5.245   9.798 -0.0165  0.0627  0.5667
  950MOL0     C28174  10.042   5.253   9.787 -0.1640 -0.2362 -0.1639
  950MOL0     C28175  10.081   5.221   9.643  0.6658  0.4453  0.4519
  950MOL0     C28176  10.233   5.215   9.615 -0.1517  0.4348 -0.3743
  950MOL0     C28177  10.295   5.084   9.655  0.1690  0.0309 -0.3684
  950MOL0     C28178  10.440   5.101   9.648  0.4498  0.4604 -0.0026
  950MOL0     C28179  10.558   5.116   9.642 -0.0516 -0.2039  0.7979
  950MOL0     C28180   9.686   5.323   9.888 -0.8779 -0.1241  0.2314
  950MOL0     C28181   9.611   5.379   9.988  0.2219  0.6302 -0.0319
  950MOL0     C28182   9.455   5.372   9.974  0.3528  0.5238  0.3972
  950MOL0     H28183   9.824   5.720  10.472  0.6344 -0.5117  0.0453
  950MOL0     H28184   9.754   5.854  10.664 -1.4202 -2.1554  0.2535
  950MOL0     H28185   9.659   5.963  10.821 -0.4521  2.2000 -2.2708
  950MOL0     H28186   9.525   6.060  10.877  1.3688 -0.0897  0.5232
  950MOL0     H28187   9.548   5.755  10.886  0.2831 -0.2945  2.0792
  950MOL0     H28188   9.406   5.854  10.940  0.0545  0.0948  1.5032
  950MOL0     H28189   9.518   5.981  11.092  3.4177  1.3435  0.5373
  950MOL0     H28190   9.682   5.899  11.071 -0.7382 -1.9561  3.0027
  950MOL0     H28191   9.452   5.710  11.124 -2.3609  0.8329  2.6311
  950MOL0     H28192   9.628   5.737  11.180  0.0139  0.1460 -0.2013
  950MOL0     H28193   9.391   5.845  11.330  0.7618  0.3552  0.4860
  950MOL0     H28194   9.515   5.738  11.373 -1.5941 -1.0928 -0.1373
  950MOL0     H28195   9.671   5.953  11.289 -0.0213  2.9722  0.1790
  950MOL0     H28196   9.510   6.038  11.318 -1.6077 -0.3991  3.1391
  950MOL0     H28197   9.679   5.870  11.516  1.2817  0.2431  0.3267
  950MOL0     H28198   9.512   5.944  11.551 -1.0823  2.1754 -0.2247
  950MOL0     H28199   9.729   6.126  11.456  0.7767 -1.7288 -0.8262
  950MOL0     H28200   9.584   6.161  11.553  0.6970  1.4588 -1.2826
  950MOL0     H28201   9.580   6.041  11.810 -0.6265 -1.2626 -2.0285
  950MOL0     H28202   9.863   6.118  12.051 -0.3743  1.2608 -1.8078
  950MOL0     H28203   9.702   6.027  12.042 -0.8404  2.1287 -1.0010
  950MOL0     H28204   9.850   5.859  12.136 -3.7412 -1.2953 -1.1912
  950MOL0     H28205   9.840   5.826  11.966  0.2034 -0.2605 -0.1340
  950MOL0     H28206  10.060   5.898  11.919  2.0037  1.0446  0.8330
  950MOL0     H28207  10.080   5.804  12.068 -3.1912 -0.9720  1.9691
  950MOL0     H28208  10.117   5.964  12.205  0.1637  0.6610  0.0391
  950MOL0     H28209  10.087   6.109  12.090  1.4906  0.8556 -2.2921
  950MOL0     H28210  10.490   6.010  11.990  0.3086  0.7294  0.3044
  950MOL0     H28211  10.607   6.152  11.837  0.5360  2.2675  0.6960
  950MOL0     H28212  10.787   6.242  11.533 -1.3103  0.7855 -0.6277
  950MOL0     H28213  10.947   6.330  11.388  0.9043 -0.0814  2.1566
  950MOL0     H28214  11.134   6.520  11.320  0.2702  2.9334 -0.0403
  950MOL0     H28215  11.026   6.427  11.208 -1.0466  0.5475 -0.9262
  950MOL0     H28216  11.051   6.648  11.064  1.3548  2.5240  0.1292
  950MOL0     H28217  11.161   6.695  11.195  0.9707 -1.4221  1.2933
  950MOL0     H28218  11.333   6.534  11.145  2.3185  1.5427 -1.3155
  950MOL0     H28219  11.214   6.422  11.061  0.4093 -0.0399 -2.4176
  950MOL0     H28220  11.212   6.589  10.871  0.1711 -0.0248  0.6406
  950MOL0     H28221  11.371   6.510  10.884  0.0668  0.6241 -1.0857
  950MOL0     H28222  11.460   6.711  11.013  1.8573 -1.0050 -2.3718
  950MOL0     H28223  11.312   6.795  10.959  0.0970  0.6362 -1.7589
  950MOL0     H28224  11.531   6.703  10.789  1.3300  1.0513 -2.3311
  950MOL0     H28225  11.369   6.736  10.720 -1.7630  0.9355  1.6741
  950MOL0     H28226  11.414   6.971  10.858  1.6562  2.1529  0.2450
  950MOL0     H28227  11.400   6.952  10.690  2.5200  1.1088 -0.4734
  950MOL0     H28228  11.659   6.918  10.842  0.3419 -1.4276 -0.6503
  950MOL0     H28229  11.652   6.891  10.668 -1.3181 -1.7288  0.6594
  950MOL0     H28230  10.816   6.729  11.469 -0.2333 -0.1914  0.4237
  950MOL0     H28231  10.650   6.644  11.637  1.2776  1.7674 -2.0917
  950MOL0     H28232  10.224   6.350  11.750  0.5026 -1.1101 -2.7426
  950MOL0     H28233  10.120   6.209  11.916  0.4250 -0.6469  0.5792
  950MOL0     H28234   9.349   5.857  10.501 -1.1147 -0.7244  1.8983
  950MOL0     H28235   9.424   5.700  10.320 -0.1728 -3.0095  2.1690
  950MOL0     H28236   9.857   5.476  10.184 -3.5565  0.5762  2.4271
  950MOL0     H28237   9.993   5.386  10.024 -0.5061  4.0598  0.7840
  950MOL0     H28238  10.092   5.178   9.849  2.2185  1.1365 -0.3350
  950MOL0     H28239  10.085   5.349   9.816  0.4787  0.3794 -2.8541
  950MOL0     H28240  10.031   5.296   9.581 -2.4853 -0.5252  1.6341
  950MOL0     H28241  10.032   5.130   9.606  0.0920  1.3040 -1.0088
  950MOL0     H28242  10.285   5.298   9.664 -3.3144  0.7330  2.9424
  950MOL0     H28243  10.226   5.228   9.507 -3.7659  0.1480 -0.3111
  950MOL0     H28244  10.263   5.055   9.756  1.8359 -1.6528 -0.2672
  950MOL0     H28245  10.244   5.017   9.586 -2.9014 -0.8298  2.4448
  950MOL0     H28246  10.663   5.106   9.625 -0.3916 -1.6890 -0.7963
  950MOL0     H28247   9.650   5.284   9.793  2.5950  1.9917 -2.2005
  950MOL0     H28248   9.417   5.296  10.043 -1.5091 -1.1155 -2.2360
  950MOL0     H28249   9.404   5.467   9.990  1.6475  1.4680 -0.8307
  950MOL0     H28250   9.425   5.355   9.870 -0.2813  3.1133  0.0817
  951MOL0     O28251   0.932   1.614   3.247  0.3830 -0.2868  0.0032
  951MOL0     C28252   0.987   1.530   3.179  0.3290 -0.0578 -0.6041
  951MOL0     O28253   0.989   1.398   3.202 -0.6575 -0.2020  0.2717
  951MOL0     C28254   0.917   1.337   3.295  0.7810  0.2335 -0.2895
  951MOL0     C28255   0.940   1.339   3.437  0.0288 -0.0685  0.0118
  951MOL0     C28256   0.868   1.267   3.532 -0.0195  0.6099 -0.8350
  951MOL0     C28257   0.753   1.196   3.496 -0.1860 -0.4969 -0.6866
  951MOL0     O28258   0.672   1.124   3.577 -0.1853  0.3541 -0.0342
  951MOL0     C28259   0.708   1.095   3.713  0.4665  1.0986 -0.5204
  951MOL0     C28260   0.583   1.015   3.767  0.5204 -0.3136  0.1437
  951MOL0     C28261   0.565   1.017   3.913 -0.4195 -0.3368 -1.2586
  951MOL0     C28262   0.520   1.150   3.961  0.6663 -1.0913 -0.3127
  951MOL0     C28263   0.583   1.186   4.097 -0.0387 -0.0964 -0.9204
  951MOL0     C28264   0.511   1.308   4.159  0.0982  0.2256 -0.3907
  951MOL0     C28265   0.574   1.426   4.102  0.0017  0.1703  0.4015
  951MOL0     C28266   0.514   1.544   4.178 -0.2369 -0.4348 -0.5436
  951MOL0     N28267   0.578   1.673   4.146  0.5849  0.3658 -0.0989
  951MOL0     C28268   0.708   1.702   4.169  0.6069  0.7751 -0.4032
  951MOL0     C28269   0.715   1.834   4.118 -1.1380  1.2778 -0.3313
  951MOL0     C28270   0.843   1.911   4.116  0.3275 -0.3568  0.2098
  951MOL0     C28271   0.807   2.058   4.076  0.5681 -0.0272 -0.0571
  951MOL0     C28272   0.932   2.153   4.067  0.0196  0.8092 -0.4162
  951MOL0     C28273   1.056   2.104   3.989  0.9719  0.2665 -0.4338
  951MOL0     O28274   1.151   2.209   3.989  0.0632  1.3819 -0.2422
  951MOL0     C28275   1.285   2.165   3.965 -0.6842  0.1494 -1.2133
  951MOL0     C28276   1.337   2.046   3.914 -0.4784  0.6327 -0.6317
  951MOL0     C28277   1.475   2.030   3.897 -0.3356 -0.3865 -0.1359
  951MOL0     C28278   1.560   2.133   3.918  0.2744  0.1176 -0.8004
  951MOL0     C28279   1.706   2.123   3.884  0.1101  0.0389 -0.9168
  951MOL0     O28280   1.755   2.009   3.840 -0.1085 -0.3704 -0.0175
  951MOL0     C28281   1.879   1.989   3.785  0.3209 -0.7507  1.2237
  951MOL0     C28282   1.939   1.866   3.811  0.1955 -0.8855 -0.0608
  951MOL0     C28283   2.063   1.821   3.766 -0.0540  0.7584 -0.6347
  951MOL0     C28284   2.143   1.916   3.705  1.0922 -0.2488  0.1830
  951MOL0     O28285   2.264   1.869   3.659  0.1666 -0.0638  0.0636
  951MOL0     C28286   2.362   1.966   3.611  0.3661  0.5317  0.2241
  951MOL0     C28287   2.491   1.914   3.561 -0.0917 -0.6197 -0.7805
  951MOL0     C28288   2.595   2.027   3.557 -0.3276 -0.0388 -0.7171
  951MOL0     C28289   2.719   1.967   3.488  0.0152 -0.7407  0.0810
  951MOL0     C28290   2.824   2.081   3.469 -0.1866  0.1001 -0.3362
  951MOL0     C28291   2.950   2.050   3.389 -0.4616  0.1454  0.3713
  951MOL0     C28292   2.944   1.923   3.305 -0.7850 -0.3621 -0.4030
  951MOL0     C28293   3.089   1.890   3.247 -0.3179 -0.0331 -0.2583
  951MOL0    Cl28294   3.200   1.806   3.361 -0.0477 -0.1993  0.0142
  951MOL0     C28295   2.080   2.035   3.657 -0.6561 -0.1136 -0.5464
  951MOL0     C28296   1.951   2.076   3.699 -0.1031 -0.0061  1.2295
  951MOL0     O28297   1.776   2.223   3.895  0.4381 -0.2649 -0.2391
  951MOL0     C28298   1.511   2.249   3.976  0.2033 -0.1907  0.1234
  951MOL0     C28299   1.375   2.266   3.994 -0.2797  0.2952 -0.4153
  951MOL0     N28300   0.597   1.881   4.075  0.1949  0.3318 -0.4791
  951MOL0     N28301   0.514   1.785   4.102  0.2872 -0.1142  0.1007
  951MOL0     C28302   0.727   1.190   3.353 -0.1940 -0.4447 -0.0413
  951MOL0     C28303   0.809   1.254   3.253 -0.2904  0.5349  0.2890
  951MOL0     C28304   1.037   1.572   3.053  1.0052 -0.3164 -0.3141
  951MOL0     C28305   0.989   1.515   2.938  0.1568  0.2372 -0.2948
  951MOL0     C28306   1.020   1.570   2.809 -0.8393  0.7672 -0.4171
  951MOL0     C28307   1.115   1.675   2.796  0.2729 -0.2110 -0.8687
  951MOL0     O28308   1.156   1.739   2.679  0.2306  0.1699  0.5157
  951MOL0     C28309   1.171   1.667   2.563 -0.3237  0.1607 -0.2662
  951MOL0     C28310   1.299   1.582   2.568 -0.1437  0.0322  0.1239
  951MOL0     C28311   1.320   1.495   2.443 -0.1471 -0.8607 -0.4165
  951MOL0     C28312   1.407   1.377   2.485 -0.6834  0.8487 -0.1486
  951MOL0     C28313   1.531   1.412   2.557 -0.4271  0.1827 -0.2794
  951MOL0     C28314   1.631   1.439   2.619  0.1840 -0.4396  0.3296
  951MOL0     C28315   1.165   1.739   2.914  0.0460  0.6128 -0.0631
  951MOL0     C28316   1.128   1.687   3.042 -0.1014  0.0061  0.8800
  951MOL0     C28317   1.170   1.758   3.167 -0.2260  0.5979 -0.3713
  951MOL0     H28318   1.027   1.392   3.474  1.5185 -3.2223  1.4009
  951MOL0     H28319   0.904   1.275   3.634  1.3087 -1.7285 -1.0543
  951MOL0     H28320   0.785   1.019   3.703  0.3336  0.3175  3.0399
  951MOL0     H28321   0.736   1.191   3.757 -0.4391  2.6135 -3.0408
  951MOL0     H28322   0.583   0.909   3.740  1.7710  0.1267 -1.7991
  951MOL0     H28323   0.488   1.046   3.723  1.4841  1.9114 -0.5298
  951MOL0     H28324   0.666   0.993   3.950 -0.0143 -0.5228 -2.4391
  951MOL0     H28325   0.498   0.935   3.938 -2.1141  1.5024  0.5898
  951MOL0     H28326   0.543   1.236   3.898 -1.6172  1.8233  2.4710
  951MOL0     H28327   0.411   1.139   3.970  0.4801  0.7400  0.1587
  951MOL0     H28328   0.567   1.102   4.165 -0.9352  0.8559  0.0733
  951MOL0     H28329   0.691   1.203   4.095 -0.1170  1.7897  2.8562
  951MOL0     H28330   0.404   1.296   4.141  0.0682 -1.5422  0.6985
  951MOL0     H28331   0.519   1.312   4.268 -2.0066  1.0899 -0.2278
  951MOL0     H28332   0.539   1.446   4.000 -1.0104  0.7069  0.8431
  951MOL0     H28333   0.684   1.420   4.104 -0.0357 -0.4711  2.9516
  951MOL0     H28334   0.407   1.535   4.159 -0.0749 -2.2912 -0.8217
  951MOL0     H28335   0.525   1.531   4.286 -0.4649  0.3109 -0.4274
  951MOL0     H28336   0.785   1.642   4.217 -0.4962 -0.9426 -0.7000
  951MOL0     H28337   0.880   1.911   4.219 -0.6901  3.1689  0.7129
  951MOL0     H28338   0.915   1.871   4.043  0.8288  0.7455  0.0669
  951MOL0     H28339   0.751   2.053   3.983 -1.4815  2.5048  0.9140
  951MOL0     H28340   0.725   2.100   4.135 -0.0228  2.3711 -2.3861
  951MOL0     H28341   0.971   2.177   4.166  2.3753 -0.8878 -0.8431
  951MOL0     H28342   0.897   2.243   4.015  0.1772  0.0463 -1.9280
  951MOL0     H28343   1.014   2.095   3.889 -0.1527  0.6420 -0.0052
  951MOL0     H28344   1.093   2.010   4.030 -0.0967  0.8841  2.1388
  951MOL0     H28345   1.282   1.953   3.902  1.8907 -1.5852  3.4103
  951MOL0     H28346   1.514   1.931   3.877 -2.6563 -1.3575 -0.1547
  951MOL0     H28347   1.877   1.793   3.863  0.0935  0.9950  2.7059
  951MOL0     H28348   2.093   1.723   3.802 -0.9523  1.4595  2.3871
  951MOL0     H28349   2.324   2.029   3.530  0.3014 -0.9373 -0.9303
  951MOL0     H28350   2.378   2.023   3.703  2.6460  0.6749 -0.2187
  951MOL0     H28351   2.515   1.841   3.639  0.7556 -0.4566 -0.8795
  951MOL0     H28352   2.478   1.864   3.465  2.8963  1.9241 -2.7185
  951MOL0     H28353   2.552   2.113   3.504 -2.8068 -0.3529  0.6158
  951MOL0     H28354   2.613   2.048   3.663  0.1116 -3.1259 -0.0888
  951MOL0     H28355   2.687   1.916   3.397  1.0352 -2.3831  0.6175
  951MOL0     H28356   2.761   1.883   3.543  0.0413 -1.6712 -1.3197
  951MOL0     H28357   2.842   2.136   3.561  0.7972  1.7018 -1.4219
  951MOL0     H28358   2.761   2.156   3.420 -0.9080  0.5497  1.2351
  951MOL0     H28359   2.970   2.138   3.328  2.1282 -0.7233 -0.1360
  951MOL0     H28360   3.035   2.043   3.457  0.2604  2.4610 -0.2365
  951MOL0     H28361   2.876   1.943   3.222  0.3652 -0.7459 -1.4784
  951MOL0     H28362   2.914   1.832   3.358 -0.8264 -0.1193 -0.0068
  951MOL0     H28363   3.071   1.819   3.166 -3.0688  1.0387 -0.7032
  951MOL0     H28364   3.138   1.980   3.209 -1.7924  0.1626 -1.8531
  951MOL0     H28365   2.139   2.122   3.629 -2.6204  1.9955  1.4767
  951MOL0     H28366   1.907   2.168   3.662  0.2547 -0.0140  0.7676
  951MOL0     H28367   1.567   2.336   4.009 -1.9209  1.1337  0.4602
  951MOL0     H28368   1.327   2.360   4.018 -1.4366 -0.2092 -0.6821
  951MOL0     H28369   0.652   1.126   3.308  2.8907 -2.3444 -2.9541
  951MOL0     H28370   0.798   1.255   3.145  1.7894  2.5055  0.0020
  951MOL0     H28371   0.905   1.447   2.936  0.1175  0.2943 -0.8286
  951MOL0     H28372   0.968   1.521   2.728 -0.7643  1.6370 -1.0048
  951MOL0     H28373   1.174   1.739   2.482  0.3024 -0.9033 -1.2236
  951MOL0     H28374   1.083   1.602   2.553  0.4244 -0.5903 -2.6483
  951MOL0     H28375   1.292   1.518   2.656  1.7204  1.3725  1.3147
  951MOL0     H28376   1.392   1.638   2.580  1.3119 -1.7884 -1.8622
  951MOL0     H28377   1.366   1.556   2.365  2.4150 -1.5251  0.4745
  951MOL0     H28378   1.222   1.462   2.408 -0.7744  0.6366 -0.1180
  951MOL0     H28379   1.347   1.310   2.547  0.5533 -0.2488 -0.0832
  951MOL0     H28380   1.436   1.306   2.407  0.2253  0.4279  0.5364
  951MOL0     H28381   1.726   1.452   2.667  1.3453  2.9274 -2.4800
  951MOL0     H28382   1.238   1.817   2.895 -1.5529  2.1411 -0.2376
  951MOL0     H28383   1.091   1.815   3.218  0.1403  0.1053  0.7694
  951MOL0     H28384   1.209   1.683   3.237 -0.5072  1.8515  1.1929
  951MOL0     H28385   1.259   1.817   3.143 -0.2760  2.0514  2.5683
  952MOL0     O28386   8.379   2.440   0.334 -0.5373 -0.1974  0.0851
  952MOL0     C28387   8.396   2.429   0.214 -0.6446 -0.5117  0.5384
  952MOL0     O28388   8.512   2.368   0.157  0.4606 -0.1314  0.1574
  952MOL0     C28389   8.627   2.347   0.228 -0.0746 -0.3019 -0.6267
  952MOL0     C28390   8.684   2.450   0.304  0.0699 -0.2430  0.7614
  952MOL0     C28391   8.804   2.434   0.372 -0.0007  0.4276 -0.2600
  952MOL0     C28392   8.873   2.308   0.369  0.5078  0.3719 -0.7801
  952MOL0     O28393   8.986   2.273   0.431  0.0811  0.9144  0.1848
  952MOL0     C28394   9.024   2.357   0.540  0.5930 -0.1422 -0.3101
  952MOL0     C28395   9.141   2.292   0.612  0.8180  0.0752 -0.0360
  952MOL0     C28396   9.276   2.365   0.601  0.5579  0.0483  1.1005
  952MOL0     C28397   9.372   2.293   0.695 -0.3387  0.3460  0.0902
  952MOL0     C28398   9.512   2.345   0.690  0.0481 -0.4091 -0.5589
  952MOL0     C28399   9.590   2.311   0.568 -0.5534 -0.1753  0.2559
  952MOL0     C28400   9.740   2.360   0.571 -1.0429 -0.3674  0.2137
  952MOL0     C28401   9.837   2.282   0.486  0.2790 -0.1640  0.3580
  952MOL0     N28402   9.979   2.315   0.519  0.9546  0.8837 -0.8335
  952MOL0     C28403  10.023   2.428   0.567 -0.1732 -0.3903 -0.0903
  952MOL0     C28404  10.158   2.393   0.576  0.1902  0.0345  0.2560
  952MOL0     C28405  10.259   2.500   0.620  0.3710  0.3858 -0.7861
  952MOL0     C28406  10.235   2.539   0.769 -0.7510  0.4630 -0.3030
  952MOL0     C28407  10.254   2.421   0.866 -0.4865  0.6821 -0.1771
  952MOL0     C28408  10.393   2.362   0.869 -0.1080  0.2028  0.2473
  952MOL0     O28409  10.497   2.454   0.852 -0.3843 -0.0180 -0.3910
  952MOL0     C28410  10.569   2.480   0.967 -0.9531  0.0045 -1.3311
  952MOL0     C28411  10.692   2.542   0.937 -0.3448 -0.4295 -0.0867
  952MOL0     C28412  10.779   2.575   1.041 -0.6680  0.2262 -0.0920
  952MOL0     C28413  10.760   2.540   1.173 -0.0301  0.1772 -0.1930
  952MOL0     C28414  10.868   2.573   1.270 -0.4566 -1.0297  0.3117
  952MOL0     O28415  10.996   2.581   1.226  0.4951 -0.2278  0.6772
  952MOL0     C28416  11.113   2.601   1.302 -0.2765 -0.4401  0.0145
  952MOL0     C28417  11.234   2.620   1.236  0.7408  0.5397 -0.2606
  952MOL0     C28418  11.353   2.649   1.287 -0.2826  0.8216 -0.1332
  952MOL0     C28419  11.368   2.650   1.426 -0.9276 -0.5411  0.2894
  952MOL0     O28420  11.493   2.653   1.479 -0.3068 -0.7869 -0.2548
  952MOL0     C28421  11.513   2.689   1.616  0.3831 -0.3527  0.1890
  952MOL0     C28422  11.651   2.655   1.652 -0.1133 -1.0929 -0.0520
  952MOL0     C28423  11.678   2.508   1.624  1.7980  0.4984  0.3838
  952MOL0     C28424  11.820   2.475   1.675  0.1677 -0.4841 -0.6796
  952MOL0     C28425  11.837   2.475   1.834 -0.3714 -0.2229  0.0852
  952MOL0     C28426  11.988   2.448   1.862 -0.3356  0.2159 -0.5941
  952MOL0     C28427  12.003   2.415   2.011  0.4477  0.4756 -0.4470
  952MOL0     C28428  11.989   2.529   2.102  0.6152  0.1405  0.0155
  952MOL0    Cl28429  11.827   2.540   2.169  0.1682  0.5856 -0.2612
  952MOL0     C28430  11.256   2.615   1.507 -0.4996  0.5522  0.0663
  952MOL0     C28431  11.125   2.596   1.441 -0.2067  1.0983 -0.7415
  952MOL0     O28432  10.832   2.590   1.386 -0.2720 -0.0994 -0.9821
  952MOL0     C28433  10.637   2.479   1.213  0.3477  0.7682  0.5527
  952MOL0     C28434  10.545   2.442   1.110  0.0757 -0.2357  1.0253
  952MOL0     N28435  10.197   2.266   0.537 -0.0039  0.2098  0.6396
  952MOL0     N28436  10.079   2.217   0.506  0.7434  0.3909 -0.0045
  952MOL0     C28437   8.815   2.208   0.304  0.1442  0.1618  1.1931
  952MOL0     C28438   8.707   2.222   0.220  0.3973 -0.0465 -0.1166
  952MOL0     C28439   8.283   2.483   0.131  0.0616  0.4388 -0.4668
  952MOL0     C28440   8.153   2.497   0.191  1.0025 -0.9350  0.5709
  952MOL0     C28441   8.049   2.571   0.133 -0.9039  0.3895  0.1672
  952MOL0     C28442   8.063   2.612  -0.000  0.5803 -0.5805 -0.5221
  952MOL0     O28443   7.972   2.677  -0.082 -0.4960  0.3403 -0.0152
  952MOL0     C28444   7.849   2.598  -0.096 -0.2087  0.1666 -0.2801
  952MOL0     C28445   7.867   2.477  -0.189  0.0936 -0.2931 -0.4103
  952MOL0     C28446   7.732   2.425  -0.251  0.2583  0.0659 -0.1387
  952MOL0     C28447   7.634   2.397  -0.139 -0.2758  0.6106 -0.2046
  952MOL0     C28448   7.507   2.347  -0.196 -0.0805 -0.7838 -0.4269
  952MOL0     C28449   7.400   2.303  -0.227  0.8587  0.5063 -0.2275
  952MOL0     C28450   8.179   2.600  -0.069  0.2972  0.0833 -0.5372
  952MOL0     C28451   8.285   2.534  -0.002 -0.2813 -0.4475  0.1843
  952MOL0     C28452   8.413   2.536  -0.088  0.3123  0.3276 -0.2916
  952MOL0     H28453   8.620   2.537   0.309 -1.7092 -1.2691 -1.9207
  952MOL0     H28454   8.848   2.514   0.432  0.2334 -0.0006  0.1393
  952MOL0     H28455   9.044   2.460   0.506  0.7089  0.8359  2.4767
  952MOL0     H28456   8.943   2.361   0.613  0.5762 -2.9874 -0.0860
  952MOL0     H28457   9.150   2.188   0.580  0.4390  0.7395 -2.5319
  952MOL0     H28458   9.118   2.300   0.718 -2.7333  1.2695 -0.7534
  952MOL0     H28459   9.264   2.470   0.629 -1.1400  0.5090 -1.0396
  952MOL0     H28460   9.316   2.357   0.499 -1.8447 -0.6666  0.1305
  952MOL0     H28461   9.334   2.312   0.795  0.5362  1.0035  0.3099
  952MOL0     H28462   9.383   2.187   0.671  2.1068  0.5938 -0.1378
  952MOL0     H28463   9.513   2.454   0.703 -0.5975 -0.2466 -1.6871
  952MOL0     H28464   9.572   2.311   0.775  0.8896  0.8146 -0.6451
  952MOL0     H28465   9.608   2.203   0.564  3.3682  0.3627 -0.4576
  952MOL0     H28466   9.537   2.347   0.480 -0.7960  2.4634  1.3823
  952MOL0     H28467   9.774   2.345   0.674 -1.3977 -0.8910  0.2595
  952MOL0     H28468   9.743   2.467   0.548 -0.5239  0.2458  2.7998
  952MOL0     H28469   9.818   2.177   0.507 -1.1330 -0.1479 -0.6835
  952MOL0     H28470   9.807   2.309   0.384  0.4593 -0.0279  0.3387
  952MOL0     H28471   9.973   2.521   0.591 -2.3380 -1.7816  1.2266
  952MOL0     H28472  10.359   2.462   0.595  0.8375  0.3312  1.0417
  952MOL0     H28473  10.232   2.586   0.558 -2.0022  0.1871 -0.1287
  952MOL0     H28474  10.309   2.614   0.800 -2.2567  0.7211  3.1633
  952MOL0     H28475  10.135   2.584   0.776  0.5218  3.3681  1.3618
  952MOL0     H28476  10.192   2.337   0.833  2.3608 -1.9752  0.7873
  952MOL0     H28477  10.229   2.441   0.971  0.1006 -3.3830  0.8927
  952MOL0     H28478  10.397   2.293   0.784 -2.6386 -2.5100  2.1079
  952MOL0     H28479  10.413   2.297   0.955  0.0966 -0.0269  0.0298
  952MOL0     H28480  10.713   2.574   0.835 -0.7998  2.6389  0.6541
  952MOL0     H28481  10.871   2.613   0.998 -0.2387  0.6723  1.1795
  952MOL0     H28482  11.220   2.599   1.130 -0.4717 -1.8733  0.3029
  952MOL0     H28483  11.444   2.656   1.229  0.3342  0.5739  0.7814
  952MOL0     H28484  11.515   2.798   1.610  2.6007 -0.3489 -4.6731
  952MOL0     H28485  11.449   2.650   1.695  0.0761 -0.7524 -0.2542
  952MOL0     H28486  11.723   2.717   1.598 -2.0214  1.3549  0.0237
  952MOL0     H28487  11.674   2.677   1.757  1.6194 -1.6351 -0.2915
  952MOL0     H28488  11.598   2.445   1.662  0.0380  2.8638  0.8166
  952MOL0     H28489  11.681   2.491   1.516  1.1476  1.1548  0.2586
  952MOL0     H28490  11.894   2.547   1.639  1.6566 -1.5745  0.0794
  952MOL0     H28491  11.843   2.372   1.645 -2.2731 -0.6345 -2.2548
  952MOL0     H28492  11.776   2.393   1.873  2.3268 -2.0899  0.6141
  952MOL0     H28493  11.801   2.567   1.881 -1.6505 -0.2273 -0.8314
  952MOL0     H28494  12.027   2.367   1.799 -0.7141 -0.5142  0.0951
  952MOL0     H28495  12.049   2.535   1.836  0.6500 -0.5098 -0.7266
  952MOL0     H28496  12.103   2.371   2.013  0.6890  0.4820 -4.1479
  952MOL0     H28497  11.928   2.342   2.046 -0.1912  1.7441  0.9286
  952MOL0     H28498  12.055   2.516   2.188  0.0169  2.3619  0.9022
  952MOL0     H28499  12.030   2.617   2.051  1.5555  1.1999  2.4131
  952MOL0     H28500  11.254   2.615   1.615  0.6010  0.3411  0.0979
  952MOL0     H28501  11.040   2.562   1.500  1.7649 -0.0965  1.5941
  952MOL0     H28502  10.617   2.466   1.319 -3.0865  0.9454  0.0634
  952MOL0     H28503  10.449   2.401   1.138 -0.9710  1.3630 -0.0790
  952MOL0     H28504   8.855   2.107   0.295  1.6074  0.7447  0.8744
  952MOL0     H28505   8.686   2.142   0.150  2.8034  0.0506 -1.0440
  952MOL0     H28506   8.144   2.465   0.295  0.0076  0.0696  0.8172
  952MOL0     H28507   7.956   2.578   0.188 -1.7486  0.0629 -1.1761
  952MOL0     H28508   7.787   2.680  -0.133 -2.1665 -0.2531  1.8319
  952MOL0     H28509   7.801   2.563  -0.004 -0.0248  0.4118 -0.0909
  952MOL0     H28510   7.920   2.399  -0.133 -1.0129 -0.8243 -0.0890
  952MOL0     H28511   7.937   2.500  -0.271  0.7831 -1.0852 -0.0628
  952MOL0     H28512   7.746   2.329  -0.301 -2.8766 -1.2963  1.3187
  952MOL0     H28513   7.682   2.482  -0.329 -1.7735 -2.0963 -0.5094
  952MOL0     H28514   7.664   2.326  -0.061  1.6924  1.6920  0.0801
  952MOL0     H28515   7.620   2.492  -0.086  1.4165  2.1054 -2.2884
  952MOL0     H28516   7.307   2.268  -0.268  1.2160  0.4019 -0.9475
  952MOL0     H28517   8.186   2.617  -0.176  1.5606 -2.4585 -0.9485
  952MOL0     H28518   8.474   2.609  -0.035 -0.2286 -0.5777  1.7219
  952MOL0     H28519   8.465   2.440  -0.079 -0.4217 -0.0252  0.3576
  952MOL0     H28520   8.389   2.550  -0.193  0.2409 -3.3103 -0.8912
  953MOL0     O28521   3.763   5.067   2.629 -0.3956  0.1797  0.2059
  953MOL0     C28522   3.711   5.178   2.607  0.0031  0.1055  0.1539
  953MOL0     O28523   3.576   5.212   2.614  0.8139  0.0174 -0.2391
  953MOL0     C28524   3.485   5.119   2.651  0.4954  0.1866  0.5005
  953MOL0     C28525   3.355   5.127   2.596 -0.0749 -0.2472 -0.1666
  953MOL0     C28526   3.250   5.046   2.638  0.1763 -0.8342 -0.8197
  953MOL0     C28527   3.267   4.950   2.740 -0.2422 -0.8287  0.2055
  953MOL0     O28528   3.171   4.869   2.782 -0.5232 -0.2998  0.1452
  953MOL0     C28529   3.069   4.849   2.689  0.5093 -0.2926  0.3670
  953MOL0     C28530   2.991   4.730   2.739 -0.5784  0.1339 -0.4255
  953MOL0     C28531   3.073   4.604   2.762 -0.7060  0.1202  0.4364
  953MOL0     C28532   2.987   4.498   2.822  0.2149  0.8711 -0.5315
  953MOL0     C28533   3.067   4.372   2.861 -0.2934 -0.2222 -1.5709
  953MOL0     C28534   3.008   4.308   2.999 -0.3709 -0.0025  1.6071
  953MOL0     C28535   2.853   4.289   2.981  0.0316  0.7421 -0.3419
  953MOL0     C28536   2.782   4.191   3.077 -0.6558 -0.3634 -0.5500
  953MOL0     N28537   2.796   4.223   3.217 -0.6412 -0.6840  0.8089
  953MOL0     C28538   2.912   4.215   3.297  0.2952  0.3752 -0.4832
  953MOL0     C28539   2.875   4.288   3.409 -0.5625 -0.2612  0.4975
  953MOL0     C28540   2.982   4.322   3.517 -0.1170  0.1228  0.6438
  953MOL0     C28541   2.902   4.345   3.650  0.6366 -0.5630 -0.3435
  953MOL0     C28542   2.818   4.219   3.691  0.5102  0.1740  0.7058
  953MOL0     C28543   2.785   4.211   3.840  0.2410 -0.3037  0.2474
  953MOL0     O28544   2.745   4.337   3.887  0.3130 -0.0555 -0.1275
  953MOL0     C28545   2.809   4.399   3.991 -0.4712  1.1990  0.8202
  953MOL0     C28546   2.840   4.345   4.110 -0.1651  0.5168  0.1360
  953MOL0     C28547   2.918   4.424   4.204 -0.3385  0.0064  0.7976
  953MOL0     C28548   2.969   4.556   4.172 -0.5491 -0.1482  0.6160
  953MOL0     C28549   3.059   4.625   4.263 -0.5488  0.9236 -1.1829
  953MOL0     O28550   3.123   4.729   4.200  0.5975 -0.0986 -0.0526
  953MOL0     C28551   3.218   4.798   4.258 -0.0849  0.8990  0.6884
  953MOL0     C28552   3.341   4.729   4.269 -0.2719 -0.0948 -0.1830
  953MOL0     C28553   3.455   4.811   4.277 -0.5328 -0.8538  0.3457
  953MOL0     C28554   3.453   4.951   4.290 -0.0260  0.9737 -1.1604
  953MOL0     O28555   3.566   5.027   4.275 -0.1445 -0.0403 -0.0318
  953MOL0     C28556   3.566   5.132   4.175 -0.3010 -0.3372 -0.7042
  953MOL0     C28557   3.710   5.141   4.134  0.1058 -0.6203  0.4016
  953MOL0     C28558   3.823   5.152   4.228  0.2116  0.1951 -0.4728
  953MOL0     C28559   3.806   5.242   4.351 -0.6901  0.8454 -0.1462
  953MOL0     C28560   3.818   5.397   4.314  0.8588 -0.3138 -0.0066
  953MOL0     C28561   3.917   5.443   4.204 -0.3856 -0.1473 -0.0829
  953MOL0     C28562   3.958   5.596   4.211 -0.2112 -0.0604  0.4254
  953MOL0     C28563   4.083   5.628   4.303  0.2732 -0.0762 -0.8121
  953MOL0    Cl28564   4.065   5.799   4.346 -0.7039  0.0033  0.1060
  953MOL0     C28565   3.330   5.005   4.300 -0.0967  0.0663  0.0856
  953MOL0     C28566   3.209   4.935   4.287  0.1763 -0.4796 -0.5824
  953MOL0     O28567   3.070   4.577   4.385 -0.5359 -0.3275  0.2937
  953MOL0     C28568   2.920   4.607   4.048 -0.3249  0.1067  0.1319
  953MOL0     C28569   2.844   4.530   3.961 -0.4660  0.3133  0.4980
  953MOL0     N28570   2.747   4.340   3.396  0.5339  0.1296  0.5240
  953MOL0     N28571   2.698   4.299   3.280 -0.5304 -0.4205 -0.0037
  953MOL0     C28572   3.393   4.947   2.806  1.0133  0.0707 -0.6548
  953MOL0     C28573   3.500   5.031   2.765  0.1994 -0.4940  0.7440
  953MOL0     C28574   3.803   5.288   2.560  0.7146 -0.1288  0.8046
  953MOL0     C28575   3.750   5.396   2.478  0.9070  0.0459 -0.2039
  953MOL0     C28576   3.840   5.489   2.422  0.1974  0.3819  1.1152
  953MOL0     C28577   3.971   5.478   2.429 -0.1521 -0.2904 -0.1199
  953MOL0     O28578   4.056   5.554   2.354  0.7693 -0.6920 -0.0817
  953MOL0     C28579   4.014   5.663   2.263  0.0140  0.5605 -1.1684
  953MOL0     C28580   3.954   5.626   2.132 -0.2206 -0.3715 -0.4318
  953MOL0     C28581   4.060   5.652   2.025  1.0644 -0.1100 -0.7451
  953MOL0     C28582   4.088   5.805   1.990 -0.1576  0.3088 -0.1780
  953MOL0     C28583   4.159   5.830   1.861 -0.2341 -0.1189 -0.3463
  953MOL0     C28584   4.219   5.837   1.755 -0.0934  0.2572 -0.4793
  953MOL0     C28585   4.028   5.375   2.505  0.2083 -0.1844  0.1131
  953MOL0     C28586   3.944   5.291   2.581  0.4744 -0.1336 -0.6652
  953MOL0     C28587   4.017   5.203   2.683  0.1074 -0.1909  0.0302
  953MOL0     H28588   3.330   5.206   2.526 -0.3811 -0.5011 -0.3460
  953MOL0     H28589   3.160   5.053   2.578  0.7432 -1.5838 -1.7715
  953MOL0     H28590   2.997   4.932   2.684  1.7776  0.9273  1.4675
  953MOL0     H28591   3.102   4.830   2.587 -0.1029  0.7330 -0.0408
  953MOL0     H28592   2.899   4.720   2.681 -2.4807 -1.1123  2.5985
  953MOL0     H28593   2.946   4.753   2.836  1.5395 -2.0557  1.1928
  953MOL0     H28594   3.157   4.618   2.831  0.8429 -2.1634 -0.8448
  953MOL0     H28595   3.105   4.566   2.665 -3.2097 -0.8205 -0.0745
  953MOL0     H28596   2.951   4.554   2.909  2.1518  0.8544  0.3450
  953MOL0     H28597   2.904   4.471   2.757  1.7428 -0.2526 -2.1053
  953MOL0     H28598   3.041   4.302   2.781  1.7424 -0.6894 -1.8910
  953MOL0     H28599   3.173   4.392   2.883 -0.9061 -0.4228  2.1787
  953MOL0     H28600   3.046   4.207   3.016  0.8502  0.2169  0.2992
  953MOL0     H28601   3.020   4.377   3.083 -1.0215  1.5793  0.4587
  953MOL0     H28602   2.842   4.244   2.882 -1.1769 -1.7177  0.8311
  953MOL0     H28603   2.800   4.385   2.984 -0.8369  0.3032 -1.3406
  953MOL0     H28604   2.678   4.178   3.045 -1.4171  0.3917  1.4256
  953MOL0     H28605   2.825   4.093   3.057  1.6682  0.3059  0.8214
  953MOL0     H28606   3.010   4.175   3.273  0.4967  0.4848  0.1494
  953MOL0     H28607   3.055   4.242   3.524  2.2278  1.9381 -1.1739
  953MOL0     H28608   3.049   4.404   3.489  2.7677 -1.9748  1.0534
  953MOL0     H28609   2.972   4.368   3.731 -2.8804  3.4982  1.9679
  953MOL0     H28610   2.838   4.434   3.641  0.2310 -0.7732  0.3459
  953MOL0     H28611   2.883   4.136   3.664  1.2859  1.9302 -3.7216
  953MOL0     H28612   2.720   4.212   3.643 -0.2725 -0.8739  2.3446
  953MOL0     H28613   2.870   4.173   3.897  0.1260  0.9909  1.3376
  953MOL0     H28614   2.703   4.139   3.849 -0.0333  0.0660  0.7884
  953MOL0     H28615   2.809   4.246   4.140 -1.6416  1.3490  1.5783
  953MOL0     H28616   2.959   4.392   4.299  0.9933  0.2253  0.3272
  953MOL0     H28617   3.358   4.629   4.232 -1.0958  0.7118 -3.1048
  953MOL0     H28618   3.555   4.774   4.253  0.3192  1.3164  0.3059
  953MOL0     H28619   3.511   5.125   4.081  0.1313  1.4265 -1.1247
  953MOL0     H28620   3.537   5.224   4.226  2.2346 -0.8149  1.8437
  953MOL0     H28621   3.717   5.049   4.076  0.8992 -0.9672  1.0390
  953MOL0     H28622   3.723   5.215   4.054  0.7541 -1.9604 -0.7666
  953MOL0     H28623   3.848   5.049   4.254 -3.2303 -0.2970  1.4606
  953MOL0     H28624   3.909   5.181   4.168  0.0470  0.6035 -0.5173
  953MOL0     H28625   3.887   5.223   4.422  0.6035  3.7562 -0.6666
  953MOL0     H28626   3.713   5.224   4.407  0.1735 -0.8823  0.7806
  953MOL0     H28627   3.842   5.436   4.413 -1.0399 -0.7956  0.6790
  953MOL0     H28628   3.714   5.430   4.305  1.3038  1.1671  0.0597
  953MOL0     H28629   4.011   5.387   4.198 -0.5274 -0.2519 -1.7305
  953MOL0     H28630   3.877   5.436   4.103  2.6235  0.6126 -1.4130
  953MOL0     H28631   3.862   5.642   4.237 -1.5924 -2.3770 -0.2315
  953MOL0     H28632   3.989   5.627   4.112  2.9654 -1.5981  0.8158
  953MOL0     H28633   4.062   5.568   4.392 -3.3890  1.6067 -0.3639
  953MOL0     H28634   4.180   5.603   4.259  1.4616  0.0533  1.6119
  953MOL0     H28635   3.325   5.112   4.314  0.1162 -0.0953  1.5899
  953MOL0     H28636   3.118   4.994   4.277  2.1995  2.5213 -3.5600
  953MOL0     H28637   2.933   4.712   4.023 -1.0320  0.5231  1.4303
  953MOL0     H28638   2.818   4.582   3.869  0.9184 -1.1082 -0.7617
  953MOL0     H28639   3.407   4.871   2.882  1.2718 -0.0224 -0.7939
  953MOL0     H28640   3.595   5.036   2.818  1.3693 -1.2706 -1.1689
  953MOL0     H28641   3.646   5.395   2.448  1.9226 -0.6483 -4.1685
  953MOL0     H28642   3.797   5.568   2.360 -1.6294 -1.7347 -0.4993
  953MOL0     H28643   4.097   5.733   2.257  1.5311 -0.5294  3.2941
  953MOL0     H28644   3.949   5.724   2.327  1.7814  0.3599  0.9393
  953MOL0     H28645   3.852   5.663   2.117 -0.8200 -1.2880  1.1260
  953MOL0     H28646   3.943   5.517   2.141  0.5622 -0.4269 -0.0857
  953MOL0     H28647   4.036   5.592   1.937  0.9177  3.2732 -3.2043
  953MOL0     H28648   4.152   5.611   2.069  1.6829  1.0885 -0.8874
  953MOL0     H28649   3.993   5.857   1.975 -0.8027 -1.1329 -1.2376
  953MOL0     H28650   4.145   5.859   2.067  0.5152  0.8203 -1.0168
  953MOL0     H28651   4.270   5.862   1.664  0.9074 -1.4614 -0.4391
  953MOL0     H28652   4.136   5.363   2.505  0.4390  1.6496 -0.9027
  953MOL0     H28653   3.996   5.095   2.681  0.2553 -0.2386 -2.2198
  953MOL0     H28654   4.123   5.212   2.656 -0.1286 -1.5351 -1.5191
  953MOL0     H28655   3.987   5.238   2.782  1.2918  0.5831  0.1302
  954MOL0     O28656   3.802   7.302   0.751  0.0817  0.0542  0.2589
  954MOL0     C28657   3.734   7.370   0.674 -0.3874 -0.7541  0.1218
  954MOL0     O28658   3.755   7.495   0.638 -0.3783 -0.6208  0.2483
  954MOL0     C28659   3.819   7.581   0.710  0.6227  0.0350  0.6033
  954MOL0     C28660   3.777   7.610   0.840 -0.2377 -0.6043  0.5568
  954MOL0     C28661   3.830   7.716   0.915  0.1057 -0.1083 -0.4796
  954MOL0     C28662   3.921   7.797   0.860  0.1998 -0.5012  0.4700
  954MOL0     O28663   3.977   7.900   0.928  0.5507  0.0798 -0.1953
  954MOL0     C28664   4.088   7.869   1.009  0.9105 -0.3726  0.5396
  954MOL0     C28665   4.219   7.929   0.949  0.1648 -0.4617 -0.6997
  954MOL0     C28666   4.331   7.842   0.995  0.0456 -0.4624 -0.1570
  954MOL0     C28667   4.451   7.893   0.919 -0.2485  0.1707 -0.2445
  954MOL0     C28668   4.577   7.811   0.956 -0.1420 -0.6161  0.3787
  954MOL0     C28669   4.695   7.844   0.857 -0.2490  0.5282 -0.2134
  954MOL0     C28670   4.817   7.779   0.912 -0.0996 -0.1630  0.6118
  954MOL0     C28671   4.942   7.798   0.820 -0.2649  0.9095 -0.6913
  954MOL0     N28672   5.061   7.733   0.876  0.5798  0.1108 -0.8437
  954MOL0     C28673   5.128   7.631   0.813 -0.1037  0.6644  0.7523
  954MOL0     C28674   5.205   7.584   0.911  1.0634  0.0313  0.0652
  954MOL0     C28675   5.286   7.462   0.893  0.0781 -0.3071 -0.2073
  954MOL0     C28676   5.437   7.508   0.860  0.5353 -0.0206  0.0131
  954MOL0     C28677   5.533   7.390   0.851 -0.2936  0.0886  0.4522
  954MOL0     C28678   5.641   7.388   0.954  0.2067 -1.1681 -0.1775
  954MOL0     O28679   5.745   7.311   0.903 -0.0777 -0.8760  0.2593
  954MOL0     C28680   5.867   7.321   0.960 -0.3043  1.1524  0.8506
  954MOL0     C28681   5.974   7.279   0.875 -0.5405 -0.3080  0.1344
  954MOL0     C28682   6.103   7.268   0.923  0.1818 -0.4683  1.0725
  954MOL0     C28683   6.127   7.293   1.054  0.0213 -1.2501 -0.3482
  954MOL0     C28684   6.256   7.259   1.109  0.6576 -0.5336  0.8437
  954MOL0     O28685   6.347   7.212   1.028 -0.1300 -0.0663  0.0031
  954MOL0     C28686   6.461   7.165   1.081 -0.3000  0.2337  0.6967
  954MOL0     C28687   6.558   7.255   1.123  0.3020  0.1219 -0.2092
  954MOL0     C28688   6.676   7.213   1.176 -0.4036  0.4623  0.6643
  954MOL0     C28689   6.711   7.072   1.177 -0.1966 -0.2218 -0.9826
  954MOL0     O28690   6.825   7.016   1.222 -0.7349 -0.5880  0.6095
  954MOL0     C28691   6.924   7.100   1.289 -0.1319 -0.4083 -1.2619
  954MOL0     C28692   7.039   7.004   1.327 -0.1319  0.3233 -0.1982
  954MOL0     C28693   7.157   7.067   1.405  0.2838  0.0024  0.2179
  954MOL0     C28694   7.105   7.079   1.552 -0.6847 -0.3996 -1.2946
  954MOL0     C28695   7.228   7.118   1.650 -0.2899  0.0533  1.2231
  954MOL0     C28696   7.183   7.149   1.794 -0.3330 -0.1932  0.2088
  954MOL0     C28697   7.298   7.205   1.894  0.2852 -0.4880  0.8359
  954MOL0     C28698   7.259   7.159   2.040 -0.4763  0.7701  0.5522
  954MOL0    Cl28699   7.285   6.982   2.053 -0.5019  0.1178 -0.3969
  954MOL0     C28700   6.610   6.983   1.123 -1.1389 -0.6212 -0.0992
  954MOL0     C28701   6.492   7.026   1.071 -0.6451  0.5879 -0.6072
  954MOL0     O28702   6.268   7.287   1.230  1.0574 -0.0658 -0.1024
  954MOL0     C28703   6.025   7.351   1.139 -0.5987  0.3355  0.2463
  954MOL0     C28704   5.891   7.356   1.090  0.6784  0.4989  0.0375
  954MOL0     N28705   5.200   7.662   1.026  0.4728  0.3423 -0.6924
  954MOL0     N28706   5.108   7.754   1.004 -0.0982 -0.5901  0.6581
  954MOL0     C28707   3.963   7.769   0.730  0.4284  0.6047 -0.0392
  954MOL0     C28708   3.913   7.663   0.651 -0.2866  0.8402 -0.5012
  954MOL0     C28709   3.605   7.313   0.623 -0.3880 -1.1691 -0.1783
  954MOL0     C28710   3.497   7.400   0.573  0.2930 -0.3722  0.8238
  954MOL0     C28711   3.380   7.341   0.511  0.0638 -0.1151  0.4515
  954MOL0     C28712   3.363   7.207   0.502  0.1314 -0.4102  0.2394
  954MOL0     O28713   3.245   7.165   0.450 -0.3915  0.1941  0.2055
  954MOL0     C28714   3.240   7.064   0.346  0.4900  0.1214  0.1773
  954MOL0     C28715   3.247   7.121   0.209  0.0042  0.6847  0.0146
  954MOL0     C28716   3.268   7.004   0.112  0.5496 -0.6483  1.4738
  954MOL0     C28717   3.234   7.030  -0.029  0.2164 -0.3515  0.2655
  954MOL0     C28718   3.307   7.151  -0.088 -0.5306 -0.3027 -0.5647
  954MOL0     C28719   3.379   7.242  -0.121  0.2300 -0.8094 -0.2042
  954MOL0     C28720   3.462   7.129   0.553  0.0857  0.0265 -0.2376
  954MOL0     C28721   3.582   7.175   0.618  0.0002 -0.4517 -0.1888
  954MOL0     C28722   3.670   7.074   0.668  0.3281 -0.6155 -0.8621
  954MOL0     H28723   3.703   7.537   0.871  0.0770 -2.7735 -3.1907
  954MOL0     H28724   3.785   7.732   1.012 -1.6721 -0.3002 -1.2373
  954MOL0     H28725   4.069   7.905   1.111 -3.7974  0.0748 -0.2608
  954MOL0     H28726   4.102   7.761   1.004  0.2968 -0.3927 -1.0825
  954MOL0     H28727   4.230   8.035   0.977  0.8686 -0.1023 -2.2330
  954MOL0     H28728   4.208   7.926   0.840  0.4900  0.3603 -0.7659
  954MOL0     H28729   4.309   7.738   0.968 -0.9212 -0.2131 -0.3693
  954MOL0     H28730   4.330   7.858   1.104 -0.4245  3.1922 -0.5689
  954MOL0     H28731   4.439   7.883   0.811 -1.9606 -2.1932  0.0901
  954MOL0     H28732   4.471   8.000   0.932  1.5409 -0.3926  2.6886
  954MOL0     H28733   4.600   7.834   1.060  1.0700 -0.9630  0.2124
  954MOL0     H28734   4.558   7.704   0.942  1.1271 -0.6349 -1.6653
  954MOL0     H28735   4.683   7.818   0.752  5.5760 -0.2987 -1.0162
  954MOL0     H28736   4.707   7.952   0.870  1.7491  0.2558  0.5582
  954MOL0     H28737   4.797   7.673   0.929 -0.2750 -0.2470 -0.0631
  954MOL0     H28738   4.839   7.837   1.001  2.0270  1.1900 -0.6993
  954MOL0     H28739   4.934   7.771   0.714  1.8746 -0.6983 -0.5059
  954MOL0     H28740   4.967   7.904   0.828  0.7769  0.5672  1.0128
  954MOL0     H28741   5.108   7.589   0.715  2.9492 -1.0034  0.7225
  954MOL0     H28742   5.278   7.409   0.988 -0.4446 -1.3645 -0.8216
  954MOL0     H28743   5.251   7.389   0.819 -2.2186 -1.5056  1.8994
  954MOL0     H28744   5.429   7.558   0.763 -3.3245  2.4917  1.4056
  954MOL0     H28745   5.487   7.580   0.925  1.9675  1.2591 -2.3564
  954MOL0     H28746   5.570   7.406   0.749 -1.3590  2.6754  0.4031
  954MOL0     H28747   5.473   7.298   0.855 -0.0351 -0.2005 -1.3062
  954MOL0     H28748   5.600   7.344   1.046 -0.6179  3.0282  1.7122
  954MOL0     H28749   5.667   7.492   0.973 -0.5186 -1.2280  1.3280
  954MOL0     H28750   5.951   7.256   0.772 -2.3441 -1.8714  0.8427
  954MOL0     H28751   6.173   7.222   0.855 -1.6025 -0.6774 -0.7415
  954MOL0     H28752   6.537   7.360   1.104 -1.7920 -0.7378 -3.3175
  954MOL0     H28753   6.754   7.285   1.196  1.6297 -1.9182  1.8479
  954MOL0     H28754   6.951   7.187   1.228 -1.8055  4.2982  3.8892
  954MOL0     H28755   6.871   7.141   1.375  1.2586  0.8283 -0.9532
  954MOL0     H28756   7.008   6.905   1.364 -2.2201  0.0937 -2.3083
  954MOL0     H28757   7.081   6.979   1.230 -0.9620 -3.4526  0.2475
  954MOL0     H28758   7.245   7.003   1.415  0.0883 -0.0810  1.5099
  954MOL0     H28759   7.172   7.173   1.383 -1.3076  0.3762  0.7715
  954MOL0     H28760   7.064   6.988   1.596 -2.7257  1.6856  1.5397
  954MOL0     H28761   7.026   7.155   1.561  2.2415  2.6935  0.3155
  954MOL0     H28762   7.281   7.206   1.612  1.9219 -2.3517 -1.7473
  954MOL0     H28763   7.299   7.035   1.652 -1.9697 -1.8143 -3.3722
  954MOL0     H28764   7.101   7.220   1.811  0.0269 -0.0687  1.4825
  954MOL0     H28765   7.152   7.051   1.831 -0.4141  0.3397  1.6039
  954MOL0     H28766   7.306   7.314   1.886  0.4439 -0.2958  3.0475
  954MOL0     H28767   7.398   7.169   1.871  0.2051 -0.6073  0.6681
  954MOL0     H28768   7.328   7.208   2.109  1.0071 -0.9967  0.3938
  954MOL0     H28769   7.154   7.180   2.066 -1.8552 -4.2699  0.2020
  954MOL0     H28770   6.636   6.880   1.099 -1.2558 -0.1706 -2.3249
  954MOL0     H28771   6.422   6.957   1.025 -1.0195  0.7133 -0.2260
  954MOL0     H28772   6.042   7.376   1.243 -1.5932  0.8290  0.2987
  954MOL0     H28773   5.811   7.389   1.156  1.4482 -0.3780  1.4619
  954MOL0     H28774   4.038   7.822   0.672  2.4667 -1.0852  0.9206
  954MOL0     H28775   3.948   7.657   0.548 -1.3658  1.8746 -0.9477
  954MOL0     H28776   3.514   7.507   0.580  0.3666 -0.3988  1.0512
  954MOL0     H28777   3.298   7.404   0.477  0.4588 -0.6853 -1.6949
  954MOL0     H28778   3.148   7.005   0.346 -0.6782  1.8276 -1.1577
  954MOL0     H28779   3.319   6.993   0.368 -0.9986 -1.7444 -0.2231
  954MOL0     H28780   3.328   7.194   0.210  1.0332 -0.3628 -1.7589
  954MOL0     H28781   3.155   7.180   0.197  0.3401  1.1324 -0.4391
  954MOL0     H28782   3.211   6.920   0.154  0.4081 -1.4049 -0.1334
  954MOL0     H28783   3.374   6.981   0.105  0.4837 -0.6169  0.0505
  954MOL0     H28784   3.265   6.941  -0.086  1.5010  0.9699 -1.2183
  954MOL0     H28785   3.126   7.041  -0.046  0.6178  0.8932 -1.8275
  954MOL0     H28786   3.437   7.327  -0.150 -0.2885 -0.0189  1.0276
  954MOL0     H28787   3.458   7.021   0.543  3.1867 -0.3145  1.0320
  954MOL0     H28788   3.681   7.079   0.777  1.4063 -1.6308 -0.9025
  954MOL0     H28789   3.623   6.978   0.645 -1.0233 -0.2787  0.3457
  954MOL0     H28790   3.769   7.070   0.622  0.2359 -2.4403 -0.9824
  955MOL0     O28791   2.035   2.231   1.249  1.3729 -0.1777 -0.0150
  955MOL0     C28792   2.096   2.189   1.150  0.2237  0.5879 -1.1366
  955MOL0     O28793   2.048   2.121   1.042 -0.2102 -0.0755  0.0687
  955MOL0     C28794   1.923   2.064   1.026 -0.5594 -0.5615 -0.2285
  955MOL0     C28795   1.804   2.109   1.080 -0.1158  0.9682  0.3043
  955MOL0     C28796   1.682   2.050   1.057  0.0835  0.7905  0.8627
  955MOL0     C28797   1.668   1.952   0.955  0.2818  0.2740 -0.4597
  955MOL0     O28798   1.568   1.869   0.931 -0.0785 -0.0457  0.2086
  955MOL0     C28799   1.450   1.865   1.007  1.2825 -0.3644 -0.7210
  955MOL0     C28800   1.361   1.767   0.938  0.0907  0.3661  0.0831
  955MOL0     C28801   1.227   1.750   1.012  0.1157 -1.5296 -0.2407
  955MOL0     C28802   1.126   1.667   0.945 -0.7166 -0.3257  0.4129
  955MOL0     C28803   1.009   1.623   1.032  0.5770 -0.0588  0.2996
  955MOL0     C28804   0.957   1.494   1.001 -0.1174  0.3126  0.1725
  955MOL0     C28805   0.841   1.457   1.096  0.1858  0.6250 -0.9235
  955MOL0     C28806   0.754   1.330   1.063  0.1092  0.5526  0.2326
  955MOL0     N28807   0.831   1.214   1.109 -0.2602 -0.2256  0.5498
  955MOL0     C28808   0.939   1.156   1.041  0.1547  0.4322 -0.1511
  955MOL0     C28809   0.995   1.086   1.147 -0.1851 -0.1833  0.7768
  955MOL0     C28810   1.125   0.998   1.131  0.5479  0.2097  0.1093
  955MOL0     C28811   1.229   1.082   1.190  0.2778 -0.5100 -0.5318
  955MOL0     C28812   1.215   1.107   1.345  1.4501  0.3726  0.5008
  955MOL0     C28813   1.340   1.153   1.399 -0.4169  0.7147 -0.5449
  955MOL0     O28814   1.356   1.106   1.535 -0.0716  0.3117  0.5115
  955MOL0     C28815   1.487   1.116   1.595 -0.6901 -0.1888  1.2827
  955MOL0     C28816   1.494   1.067   1.723  0.1996 -0.2153 -0.2462
  955MOL0     C28817   1.611   1.073   1.788  0.7301 -0.3063 -0.5028
  955MOL0     C28818   1.723   1.133   1.728 -0.2529 -0.8378  0.0450
  955MOL0     C28819   1.851   1.131   1.806 -0.1992 -0.0124 -0.2683
  955MOL0     O28820   1.846   1.077   1.928 -0.2158  0.8747  0.0466
  955MOL0     C28821   1.960   1.023   1.990 -0.5232  0.7616  0.2477
  955MOL0     C28822   2.058   0.951   1.917 -1.2550 -0.3392 -0.4115
  955MOL0     C28823   2.162   0.887   1.987  0.5181  0.4543  0.2769
  955MOL0     C28824   2.169   0.888   2.125 -0.7882 -0.0900 -0.0983
  955MOL0     O28825   2.284   0.819   2.162  0.2544 -0.1104  0.0375
  955MOL0     C28826   2.349   0.868   2.285  0.0808  0.1898 -0.6123
  955MOL0     C28827   2.478   0.795   2.302  0.7200  0.6234  0.0521
  955MOL0     C28828   2.469   0.641   2.320 -0.4363 -0.6697  0.9133
  955MOL0     C28829   2.605   0.560   2.312  0.6125 -0.1496  0.4874
  955MOL0     C28830   2.707   0.612   2.221 -0.1670 -0.8015  0.1908
  955MOL0     C28831   2.823   0.506   2.222 -1.0182 -0.2567 -0.1387
  955MOL0     C28832   2.950   0.570   2.167  0.1974  0.0929  0.0789
  955MOL0     C28833   3.056   0.465   2.154 -0.4299 -0.0837  1.1100
  955MOL0    Cl28834   3.004   0.347   2.035  0.3978 -0.0690  0.0459
  955MOL0     C28835   2.071   0.953   2.201 -0.4204 -0.1829 -0.2479
  955MOL0     C28836   1.963   1.019   2.132 -0.5444  0.3923 -0.0893
  955MOL0     O28837   1.956   1.164   1.741 -0.1080  0.3201 -0.2624
  955MOL0     C28838   1.715   1.183   1.598  0.5949  0.2595  0.6595
  955MOL0     C28839   1.597   1.169   1.528  0.9757 -0.7720 -0.4455
  955MOL0     N28840   0.911   1.089   1.258 -0.6769  0.5579  0.0852
  955MOL0     N28841   0.834   1.178   1.238 -0.8753  0.3386  0.2930
  955MOL0     C28842   1.791   1.924   0.887  0.1009  0.5573 -0.0488
  955MOL0     C28843   1.913   1.973   0.926 -0.2931  0.3813  0.3893
  955MOL0     C28844   2.242   2.219   1.138 -0.7124  0.4543 -0.7690
  955MOL0     C28845   2.329   2.134   1.063 -0.5697  1.0996 -0.5878
  955MOL0     C28846   2.463   2.155   1.055  0.5888  0.7145  0.1555
  955MOL0     C28847   2.529   2.267   1.115 -0.3227  0.3672 -0.5385
  955MOL0     O28848   2.658   2.279   1.087  0.2129  0.0716  0.3099
  955MOL0     C28849   2.735   2.384   1.148  0.0851  0.1929  0.1516
  955MOL0     C28850   2.866   2.335   1.190 -0.7434 -0.4059 -0.8019
  955MOL0     C28851   2.957   2.324   1.067  0.4974  0.4610 -0.0095
  955MOL0     C28852   3.043   2.202   1.063  0.1256 -0.2644  0.0514
  955MOL0     C28853   3.131   2.182   1.179  0.0270 -1.1688 -0.3581
  955MOL0     C28854   3.206   2.178   1.281  0.7182  0.5509  0.3266
  955MOL0     C28855   2.437   2.358   1.183 -0.4235 -0.0160 -0.3135
  955MOL0     C28856   2.299   2.336   1.199 -0.2333  0.3773 -0.2360
  955MOL0     C28857   2.223   2.438   1.272 -0.3348 -0.8548 -0.3376
  955MOL0     H28858   1.815   2.190   1.151 -1.1898  0.7242  0.7752
  955MOL0     H28859   1.600   2.065   1.127 -0.3882  2.2731  0.0524
  955MOL0     H28860   1.470   1.834   1.110 -2.3608 -4.5740 -0.9703
  955MOL0     H28861   1.392   1.957   1.004  0.9792 -0.5691 -1.3082
  955MOL0     H28862   1.419   1.674   0.942  0.8862  0.7778 -1.2744
  955MOL0     H28863   1.342   1.805   0.837  0.5660  1.5409  0.4136
  955MOL0     H28864   1.181   1.849   1.022 -0.9777 -1.6683 -2.8963
  955MOL0     H28865   1.243   1.707   1.111 -2.6517 -1.8969  0.1154
  955MOL0     H28866   1.094   1.707   0.848 -1.7006 -0.5498  0.6309
  955MOL0     H28867   1.181   1.574   0.930  0.2904  0.2865  0.2141
  955MOL0     H28868   1.027   1.635   1.139 -2.4004  0.9842  0.7795
  955MOL0     H28869   0.930   1.697   1.014  2.9398  1.9561 -3.0133
  955MOL0     H28870   0.917   1.492   0.899  1.2585  3.6711 -0.5534
  955MOL0     H28871   1.042   1.426   1.007 -0.3543  0.0416  0.5196
  955MOL0     H28872   0.763   1.534   1.105  2.9120  3.6326 -1.0604
  955MOL0     H28873   0.876   1.455   1.200 -2.3455  0.9723  0.0186
  955MOL0     H28874   0.656   1.326   1.112 -0.4538  2.9873 -0.5443
  955MOL0     H28875   0.749   1.328   0.954  2.4156 -1.0291  0.1003
  955MOL0     H28876   0.974   1.179   0.940  1.7101  1.7879  0.6513
  955MOL0     H28877   1.102   0.905   1.182 -0.5536 -0.6048 -1.7802
  955MOL0     H28878   1.144   0.978   1.026 -0.1120  0.6468 -0.1017
  955MOL0     H28879   1.320   1.026   1.170  0.5466  0.0750 -0.9832
  955MOL0     H28880   1.216   1.179   1.141 -2.0518 -0.1744  0.6060
  955MOL0     H28881   1.188   1.015   1.397  1.1887  1.9866  3.4408
  955MOL0     H28882   1.135   1.180   1.361  2.0167  0.7152  1.9688
  955MOL0     H28883   1.323   1.261   1.391 -1.4582  0.5489 -0.6898
  955MOL0     H28884   1.421   1.122   1.332 -1.5007 -1.0522 -1.1053
  955MOL0     H28885   1.397   1.031   1.759 -1.5206  1.1134 -3.1998
  955MOL0     H28886   1.605   1.028   1.886 -1.3421 -0.0025 -0.4340
  955MOL0     H28887   2.061   0.954   1.809  1.8482  0.8303 -0.4176
  955MOL0     H28888   2.243   0.832   1.939  0.9389 -0.3767  1.8650
  955MOL0     H28889   2.373   0.972   2.260 -0.0059  0.5811  0.8282
  955MOL0     H28890   2.278   0.856   2.368  0.6821 -1.3477 -0.3002
  955MOL0     H28891   2.527   0.819   2.207 -0.0917 -1.9056 -1.1043
  955MOL0     H28892   2.538   0.840   2.382  1.2258  2.6187 -1.3798
  955MOL0     H28893   2.433   0.628   2.422 -1.3479  1.4840  0.9025
  955MOL0     H28894   2.396   0.593   2.254  1.8856 -2.0833 -0.8233
  955MOL0     H28895   2.572   0.458   2.287 -1.4058  0.2803  1.2430
  955MOL0     H28896   2.657   0.543   2.407  0.1831 -2.5245  0.3593
  955MOL0     H28897   2.746   0.705   2.263  1.4111 -1.4495  0.2167
  955MOL0     H28898   2.657   0.631   2.126 -1.7116 -3.2313  0.4253
  955MOL0     H28899   2.840   0.462   2.321  1.2070  0.0314 -0.3406
  955MOL0     H28900   2.796   0.424   2.155 -0.9339 -0.3668 -0.0384
  955MOL0     H28901   2.980   0.653   2.232 -0.5199 -0.3966  1.0637
  955MOL0     H28902   2.920   0.600   2.066  0.1942 -1.3164 -0.3568
  955MOL0     H28903   3.147   0.515   2.121  0.1624 -0.7760  1.6561
  955MOL0     H28904   3.093   0.414   2.243  3.6967  1.4692  0.5090
  955MOL0     H28905   2.069   0.968   2.308 -2.7051  0.5123 -0.3408
  955MOL0     H28906   1.890   1.067   2.195  0.6494 -0.0933  1.7281
  955MOL0     H28907   1.804   1.219   1.548  0.9381  0.2953  1.2817
  955MOL0     H28908   1.585   1.209   1.428 -0.2247 -0.8128 -0.3381
  955MOL0     H28909   1.790   1.833   0.828 -1.3909 -0.7222  1.8378
  955MOL0     H28910   2.002   1.931   0.882  0.2293  0.7296  1.0907
  955MOL0     H28911   2.296   2.052   1.000  2.1002 -1.9093  1.5851
  955MOL0     H28912   2.528   2.083   1.006 -1.7607  0.2316 -2.5021
  955MOL0     H28913   2.687   2.432   1.233  1.3933  0.1865  0.9219
  955MOL0     H28914   2.746   2.461   1.070 -0.1004  0.4427  0.3691
  955MOL0     H28915   2.844   2.245   1.249 -3.8683  0.7794  0.0311
  955MOL0     H28916   2.905   2.420   1.247  1.4445 -2.8739  1.7178
  955MOL0     H28917   3.021   2.414   1.067  0.0228  0.8553  2.2487
  955MOL0     H28918   2.902   2.327   0.973 -1.4361  3.3748  1.0664
  955MOL0     H28919   2.978   2.118   1.040 -1.5025 -0.4949  4.4949
  955MOL0     H28920   3.118   2.225   0.986  0.8909 -2.0798  0.2006
  955MOL0     H28921   3.273   2.186   1.364  1.2727  1.2755 -0.1815
  955MOL0     H28922   2.471   2.454   1.218 -1.0446  0.4338 -0.9024
  955MOL0     H28923   2.195   2.410   1.374  2.6878 -0.7971  0.5978
  955MOL0     H28924   2.288   2.525   1.287 -0.7534 -0.5602 -0.2064
  955MOL0     H28925   2.140   2.478   1.212  1.0313 -0.7206 -2.2301
  956MOL0     O28926  10.413   8.391   4.998 -0.3790  0.1488  0.0151
  956MOL0     C28927  10.432   8.425   4.879  0.8482 -0.8480  0.9516
  956MOL0     O28928  10.493   8.537   4.831 -0.4095 -0.5836 -0.0920
  956MOL0     C28929  10.578   8.614   4.907 -0.2826  0.4331  0.1034
  956MOL0     C28930  10.593   8.748   4.852 -0.2795  1.0376 -0.1414
  956MOL0     C28931  10.676   8.842   4.916  0.4739 -0.9843  0.7330
  956MOL0     C28932  10.731   8.817   5.042 -0.3610  0.1174 -0.4919
  956MOL0     O28933  10.815   8.923   5.084  0.1526 -0.3381  0.2954
  956MOL0     C28934  10.920   8.889   5.180 -0.2457 -0.4055  0.7126
  956MOL0     C28935  10.992   9.017   5.217  0.6294  0.4506 -0.7723
  956MOL0     C28936  11.092   8.999   5.331 -0.4510  0.1742 -0.2099
  956MOL0     C28937  11.235   9.049   5.294 -0.4311 -0.3825 -0.6654
  956MOL0     C28938  11.263   9.190   5.360 -0.3807 -0.1402  0.4541
  956MOL0     C28939  11.283   9.197   5.515 -0.9186 -0.0613  0.0518
  956MOL0     C28940  11.400   9.109   5.548 -0.7064  0.2587  0.7202
  956MOL0     C28941  11.530   9.149   5.469  0.5019 -0.0771  0.5273
  956MOL0     N28942  11.651   9.116   5.544  0.5699  0.2589 -0.6316
  956MOL0     C28943  11.783   9.135   5.502  0.2200  0.7834  0.3812
  956MOL0     C28944  11.865   9.056   5.582  0.1142 -1.5839  0.8288
  956MOL0     C28945  12.013   9.041   5.572 -0.4209 -0.7722 -0.1624
  956MOL0     C28946  12.075   8.906   5.534  0.4596  0.7412  0.5308
  956MOL0     C28947  12.225   8.915   5.510 -0.4649  0.3321 -0.4023
  956MOL0     C28948  12.272   8.977   5.382 -0.8452  1.2310 -1.0268
  956MOL0     O28949  12.417   9.007   5.385 -0.2617  0.0751 -0.2744
  956MOL0     C28950  12.505   8.901   5.407 -0.3966  0.6813  0.1676
  956MOL0     C28951  12.637   8.937   5.436 -0.2747 -0.0164 -0.1611
  956MOL0     C28952  12.728   8.834   5.462  0.4470 -0.1219 -0.4456
  956MOL0     C28953  12.701   8.694   5.448  0.1783 -0.5081  0.7386
  956MOL0     C28954  12.787   8.579   5.472 -0.3750 -0.2841  0.6593
  956MOL0     O28955  12.931   8.592   5.478  0.0836  0.0302 -0.0529
  956MOL0     C28956  13.009   8.484   5.518  0.0562  0.5879 -0.6777
  956MOL0     C28957  13.101   8.425   5.439  0.4287 -0.6975 -0.5103
  956MOL0     C28958  13.157   8.304   5.483  0.7743  0.3500  0.2596
  956MOL0     C28959  13.126   8.249   5.608 -0.1494 -0.6394  0.1669
  956MOL0     O28960  13.194   8.144   5.657 -0.0566  0.2460 -0.0908
  956MOL0     C28961  13.158   8.092   5.785 -0.2042  0.0508 -0.1342
  956MOL0     C28962  13.216   7.953   5.796 -0.5671 -1.6063 -0.0812
  956MOL0     C28963  13.367   7.938   5.770 -0.7195 -0.7771  0.0042
  956MOL0     C28964  13.414   7.788   5.785 -0.7612  0.0722  0.1276
  956MOL0     C28965  13.558   7.776   5.737  0.5034 -0.4617  0.3288
  956MOL0     C28966  13.590   7.624   5.742 -0.3158  0.1995 -0.1979
  956MOL0     C28967  13.743   7.591   5.751  0.4006 -0.3257  0.0419
  956MOL0     C28968  13.784   7.442   5.766 -0.8755 -1.0228 -0.1571
  956MOL0    Cl28969  13.966   7.420   5.739  0.1966  0.4524 -0.1424
  956MOL0     C28970  13.035   8.322   5.688  0.1895  0.0137  0.3938
  956MOL0     C28971  12.988   8.438   5.645 -0.6140 -0.6003  0.2665
  956MOL0     O28972  12.724   8.472   5.500  0.0432 -0.6796  0.6318
  956MOL0     C28973  12.568   8.674   5.412  0.1103  0.1287 -0.0312
  956MOL0     C28974  12.478   8.767   5.381  1.0809 -0.3256 -0.0700
  956MOL0     N28975  11.780   9.013   5.682  0.1725 -0.7258 -0.4595
  956MOL0     N28976  11.653   9.046   5.668 -0.2937  0.0424 -0.2310
  956MOL0     C28977  10.726   8.676   5.086 -1.2033  1.3088 -0.5153
  956MOL0     C28978  10.643   8.579   5.019 -0.2270  0.1911  0.7860
  956MOL0     C28979  10.361   8.331   4.769 -1.2653  0.6229 -0.1185
  956MOL0     C28980  10.313   8.206   4.818 -0.0542 -0.2914 -0.2993
  956MOL0     C28981  10.263   8.112   4.738 -0.6684  0.0468 -0.0683
  956MOL0     C28982  10.252   8.129   4.598  0.0365 -0.0078 -0.3542
  956MOL0     O28983  10.186   8.036   4.516  0.2154  0.6030 -0.1755
  956MOL0     C28984  10.107   8.082   4.414 -0.1125  0.0423 -0.1136
  956MOL0     C28985  10.051   7.964   4.339 -0.0209  0.5573  0.4396
  956MOL0     C28986   9.938   8.006   4.245  0.4518 -0.4858  0.1273
  956MOL0     C28987   9.992   8.078   4.117 -0.5340 -0.0991 -0.0901
  956MOL0     C28988   9.895   8.068   4.009 -0.2578 -0.7568  0.1473
  956MOL0     C28989   9.817   8.065   3.923 -0.0849 -0.3810  0.9279
  956MOL0     C28990  10.312   8.244   4.542  0.4894 -0.6881 -0.5813
  956MOL0     C28991  10.370   8.344   4.626  0.5554 -0.2176  0.2865
  956MOL0     C28992  10.442   8.451   4.544 -0.2526  0.8588  0.6355
  956MOL0     H28993  10.537   8.774   4.763  1.0952  2.9073 -0.5276
  956MOL0     H28994  10.687   8.941   4.874 -0.5096 -1.5078 -0.8353
  956MOL0     H28995  10.874   8.848   5.271  0.4855 -1.1568  0.7571
  956MOL0     H28996  10.991   8.818   5.137  1.8788  0.0778  3.1713
  956MOL0     H28997  10.917   9.078   5.267 -0.4214 -2.8022  1.9945
  956MOL0     H28998  11.029   9.065   5.125  1.2511  2.8019  0.6213
  956MOL0     H28999  11.096   8.893   5.356  0.2590 -0.4136 -2.5154
  956MOL0     H29000  11.058   9.042   5.425  0.4863 -1.0255  0.7033
  956MOL0     H29001  11.309   8.975   5.324  0.3356 -0.2775 -2.1919
  956MOL0     H29002  11.251   9.071   5.188  3.3318  4.5055  0.5412
  956MOL0     H29003  11.348   9.240   5.314 -1.5615  0.2889 -1.3405
  956MOL0     H29004  11.178   9.250   5.327  0.4740  0.6344 -0.4008
  956MOL0     H29005  11.312   9.298   5.547  0.2392 -0.6704  0.9666
  956MOL0     H29006  11.184   9.175   5.556 -1.9304  0.5677 -1.8929
  956MOL0     H29007  11.383   9.001   5.535 -3.1474  0.7678 -1.0615
  956MOL0     H29008  11.428   9.124   5.652  3.0456 -4.0871  0.6490
  956MOL0     H29009  11.529   9.101   5.371  0.4350 -2.1889  1.5112
  956MOL0     H29010  11.537   9.257   5.450  0.6512 -0.4350 -1.6540
  956MOL0     H29011  11.804   9.174   5.403 -3.1215  0.3414 -0.6291
  956MOL0     H29012  12.055   9.106   5.496 -3.0890  0.8299 -0.3910
  956MOL0     H29013  12.051   9.067   5.672  0.9600 -0.3988 -0.7668
  956MOL0     H29014  12.044   8.834   5.610 -1.1069  2.1146  1.2501
  956MOL0     H29015  12.028   8.854   5.449  0.4036  0.4538  0.7356
  956MOL0     H29016  12.266   8.814   5.524  0.1897  0.7613  0.9881
  956MOL0     H29017  12.267   8.972   5.594 -0.1194 -2.0022  1.1188
  956MOL0     H29018  12.218   9.071   5.367 -0.1859  1.8936  0.6194
  956MOL0     H29019  12.243   8.910   5.300  2.4790  0.2877 -1.5476
  956MOL0     H29020  12.666   9.041   5.435  0.0634 -0.0603  1.7016
  956MOL0     H29021  12.829   8.861   5.493 -0.2770  0.4818  1.5071
  956MOL0     H29022  13.098   8.447   5.332  0.9973  0.7319 -0.2554
  956MOL0     H29023  13.233   8.255   5.423  0.8978  0.6086  0.1987
  956MOL0     H29024  13.211   8.163   5.850 -0.0064  1.7677 -2.0495
  956MOL0     H29025  13.050   8.085   5.799 -0.1965  0.1002 -0.0526
  956MOL0     H29026  13.205   7.915   5.898  0.1995  1.9257  1.4548
  956MOL0     H29027  13.148   7.896   5.732 -1.7250  1.8362 -2.2131
  956MOL0     H29028  13.391   7.966   5.667 -1.3067  1.6105  0.4523
  956MOL0     H29029  13.428   8.007   5.828  0.3844 -0.0634 -1.9299
  956MOL0     H29030  13.349   7.715   5.734  0.0433 -0.8771  0.4276
  956MOL0     H29031  13.409   7.756   5.889  2.5626 -3.3242 -0.5306
  956MOL0     H29032  13.626   7.823   5.809  1.7737 -0.8466 -0.6012
  956MOL0     H29033  13.580   7.826   5.642  2.9570  1.1614  1.6505
  956MOL0     H29034  13.547   7.579   5.833  1.6945 -1.4609  0.0021
  956MOL0     H29035  13.557   7.576   5.649  0.9586 -2.5351  0.6488
  956MOL0     H29036  13.793   7.639   5.836  0.8482 -0.5531 -0.0867
  956MOL0     H29037  13.785   7.613   5.652 -1.7294 -1.2310 -1.1066
  956MOL0     H29038  13.759   7.409   5.867  2.0866  1.8959  1.7216
  956MOL0     H29039  13.731   7.385   5.689  1.9443 -0.2580 -2.8478
  956MOL0     H29040  13.005   8.304   5.790 -1.0587  3.6268  0.8146
  956MOL0     H29041  12.923   8.493   5.712  0.9416  0.0397  1.2889
  956MOL0     H29042  12.543   8.571   5.387  1.7882 -1.1859  3.1480
  956MOL0     H29043  12.379   8.739   5.345  0.5814  0.0825  0.9416
  956MOL0     H29044  10.776   8.644   5.176 -1.1506  2.0821 -0.2558
  956MOL0     H29045  10.632   8.475   5.046 -2.4424 -0.3048 -1.5648
  956MOL0     H29046  10.329   8.190   4.924  1.0268  1.0303 -0.2399
  956MOL0     H29047  10.221   8.023   4.783 -1.2451  0.1608 -0.3722
  956MOL0     H29048  10.162   8.146   4.345 -2.6741 -0.6586 -3.0236
  956MOL0     H29049  10.032   8.141   4.466  0.0204 -0.2558  0.4262
  956MOL0     H29050  10.024   7.884   4.408  0.9197  0.0286  0.2038
  956MOL0     H29051  10.130   7.916   4.280 -1.2477 -0.0932 -0.7351
  956MOL0     H29052   9.866   8.069   4.297  0.0823 -2.7883  2.5671
  956MOL0     H29053   9.872   7.926   4.210 -1.7471  1.0917  0.4367
  956MOL0     H29054  10.006   8.184   4.138 -0.5233 -0.3806  1.4155
  956MOL0     H29055  10.091   8.039   4.093  0.8324  1.4428  2.5281
  956MOL0     H29056   9.737   8.063   3.852 -1.0359 -0.0577  1.9460
  956MOL0     H29057  10.295   8.275   4.440 -0.0052  0.9814 -0.0277
  956MOL0     H29058  10.441   8.418   4.440  0.0148  1.3487  0.4770
  956MOL0     H29059  10.386   8.544   4.552 -0.8895  0.5482 -0.0991
  956MOL0     H29060  10.542   8.470   4.585 -0.0044  0.8577  0.0364
  957MOL0     O29061   8.981   2.887   7.373 -0.0188  0.1758  0.4061
  957MOL0     C29062   8.946   2.778   7.416  0.5565 -0.0153 -0.3757
  957MOL0     O29063   9.014   2.689   7.492  0.0790 -0.4241 -0.5895
  957MOL0     C29064   9.144   2.722   7.537 -0.1498 -0.7745  0.1235
  957MOL0     C29065   9.205   2.848   7.574  1.0694  0.1832 -0.1941
  957MOL0     C29066   9.339   2.859   7.614  0.0008  0.3226 -0.0172
  957MOL0     C29067   9.430   2.748   7.600  0.7472  0.3591 -0.1417
  957MOL0     O29068   9.563   2.769   7.641 -0.3845  0.5953 -1.1006
  957MOL0     C29069   9.664   2.670   7.618 -0.5324 -0.1706 -0.1458
  957MOL0     C29070   9.783   2.710   7.706 -0.4822  0.4276  0.4187
  957MOL0     C29071   9.922   2.697   7.650 -0.7244  0.3169  0.2503
  957MOL0     C29072   9.940   2.772   7.518 -0.0222 -0.3271 -0.3328
  957MOL0     C29073  10.076   2.838   7.522  0.2489 -0.5445 -1.1653
  957MOL0     C29074  10.087   2.935   7.407  0.4797 -0.0543  0.7081
  957MOL0     C29075  10.209   3.027   7.438  0.6893 -0.3636 -0.2552
  957MOL0     C29076  10.224   3.142   7.338  0.8682  0.3997  0.6022
  957MOL0     N29077  10.320   3.240   7.379  0.2313  0.7938 -0.3125
  957MOL0     C29078  10.298   3.343   7.465 -0.5509 -0.4787 -0.0244
  957MOL0     C29079  10.420   3.403   7.472  0.2501 -1.5688  0.4853
  957MOL0     C29080  10.452   3.540   7.533  0.7403  0.1235  0.0288
  957MOL0     C29081  10.485   3.651   7.428  0.2841  0.0926 -0.3450
  957MOL0     C29082  10.594   3.755   7.486  0.2693 -0.4632  0.7857
  957MOL0     C29083  10.749   3.727   7.485 -0.1488  0.6560  0.2540
  957MOL0     O29084  10.802   3.720   7.353  0.5002 -0.4397  0.1692
  957MOL0     C29085  10.939   3.735   7.332  0.1986  0.5340  0.4295
  957MOL0     C29086  11.012   3.629   7.272  0.8162 -0.0814 -0.1241
  957MOL0     C29087  11.148   3.638   7.231  0.5514 -0.6567 -0.5639
  957MOL0     C29088  11.205   3.765   7.246  0.0811 -0.5811 -0.0146
  957MOL0     C29089  11.347   3.788   7.192 -0.6339  2.1951 -0.3391
  957MOL0     O29090  11.401   3.670   7.126 -0.9774 -0.6849  0.2025
  957MOL0     C29091  11.516   3.687   7.055 -0.1106  0.2780  0.3720
  957MOL0     C29092  11.515   3.680   6.917  0.3544  0.2356  0.5689
  957MOL0     C29093  11.629   3.689   6.840  0.2359 -0.1336  0.2549
  957MOL0     C29094  11.745   3.672   6.903  0.1601  0.2061 -0.7648
  957MOL0     O29095  11.864   3.686   6.831  0.1691  0.4601 -0.1220
  957MOL0     C29096  11.990   3.624   6.877  0.1403  0.5329 -0.1041
  957MOL0     C29097  12.084   3.637   6.754  0.1167 -0.3913  1.0214
  957MOL0     C29098  12.230   3.580   6.781 -0.3280 -0.4464  0.1634
  957MOL0     C29099  12.322   3.675   6.867 -0.2980 -0.2566  0.5954
  957MOL0     C29100  12.460   3.615   6.886  0.0645 -0.3997 -0.5275
  957MOL0     C29101  12.528   3.607   6.752  0.6010  0.8366  0.2222
  957MOL0     C29102  12.678   3.566   6.782 -1.1842  0.3396  0.0547
  957MOL0     C29103  12.762   3.655   6.869  0.7082 -0.8390  0.4015
  957MOL0    Cl29104  12.941   3.625   6.852 -0.3197 -0.3818 -0.2675
  957MOL0     C29105  11.753   3.677   7.040 -0.1788  0.3159  0.8319
  957MOL0     C29106  11.637   3.698   7.123 -0.9811  0.4793  0.6670
  957MOL0     O29107  11.405   3.893   7.213  0.2464 -0.6516  0.1571
  957MOL0     C29108  11.135   3.879   7.288  0.3770 -0.2854 -0.5697
  957MOL0     C29109  11.005   3.859   7.336  0.6204 -0.1303  0.7488
  957MOL0     N29110  10.509   3.325   7.396  0.0617 -0.0089  0.0542
  957MOL0     N29111  10.446   3.228   7.332  0.3949 -0.1039 -0.3978
  957MOL0     C29112   9.379   2.626   7.558 -0.2763  0.0013  0.5701
  957MOL0     C29113   9.239   2.618   7.527  0.2679 -0.0388  0.1283
  957MOL0     C29114   8.813   2.718   7.364 -0.1279 -0.1679  0.8674
  957MOL0     C29115   8.780   2.588   7.384  0.0716 -0.2218  0.6448
  957MOL0     C29116   8.659   2.526   7.335 -0.4025 -0.4568  0.1528
  957MOL0     C29117   8.567   2.601   7.258 -0.1955  0.3292  0.1639
  957MOL0     O29118   8.451   2.560   7.193 -0.1434 -0.0484 -0.1037
  957MOL0     C29119   8.430   2.420   7.191  0.6082  0.0558 -0.4780
  957MOL0     C29120   8.308   2.394   7.111  0.1209  0.1099  0.1391
  957MOL0     C29121   8.182   2.457   7.175  0.2411 -0.2821  0.6063
  957MOL0     C29122   8.056   2.380   7.147  0.6285  0.5288  0.4477
  957MOL0     C29123   7.994   2.425   7.019  0.5192 -0.2396  0.0770
  957MOL0     C29124   7.932   2.449   6.914  0.0093  0.8792 -0.4265
  957MOL0     C29125   8.595   2.739   7.255 -0.0607 -0.0789 -0.5467
  957MOL0     C29126   8.712   2.797   7.298 -0.8798  0.4445 -1.0428
  957MOL0     C29127   8.738   2.932   7.239  0.7251  0.6103 -0.2764
  957MOL0     H29128   9.143   2.936   7.587 -0.5015 -1.0441  1.1719
  957MOL0     H29129   9.372   2.958   7.645 -0.1063  0.5016 -0.4611
  957MOL0     H29130   9.634   2.568   7.641 -2.8015 -0.3119 -3.1969
  957MOL0     H29131   9.687   2.680   7.512  1.8280  0.3097  0.3410
  957MOL0     H29132   9.767   2.651   7.796 -1.1606 -1.7710 -1.0474
  957MOL0     H29133   9.769   2.815   7.733 -0.4673  0.6417 -0.3669
  957MOL0     H29134   9.954   2.593   7.633  2.7823  0.8841  2.3949
  957MOL0     H29135   9.991   2.743   7.722 -0.3903  0.6632 -0.2878
  957MOL0     H29136   9.944   2.696   7.440 -0.5042 -0.4924 -0.2032
  957MOL0     H29137   9.857   2.836   7.486  0.2256  0.1828  0.0320
  957MOL0     H29138  10.094   2.893   7.615  0.0401 -2.9370  0.3770
  957MOL0     H29139  10.159   2.767   7.522 -1.5899 -2.8886 -3.2730
  957MOL0     H29140  10.102   2.892   7.307  2.3427 -0.6827  1.2064
  957MOL0     H29141   9.996   2.995   7.401 -0.0664 -0.9769 -0.9145
  957MOL0     H29142  10.291   2.956   7.456  0.5766 -0.4140  0.0677
  957MOL0     H29143  10.194   3.077   7.534 -1.4728  0.7965 -1.1326
  957MOL0     H29144  10.257   3.108   7.240  1.0366  1.4954  0.2630
  957MOL0     H29145  10.125   3.186   7.321  1.0936  0.7259  0.1222
  957MOL0     H29146  10.201   3.379   7.500  0.7739  1.7678  1.5839
  957MOL0     H29147  10.367   3.572   7.596  1.2046 -0.8516  1.1941
  957MOL0     H29148  10.533   3.538   7.606  1.3623  0.0095 -0.6619
  957MOL0     H29149  10.514   3.609   7.331 -1.6813  3.8786 -2.8295
  957MOL0     H29150  10.390   3.703   7.414 -1.5356 -2.6383  0.9908
  957MOL0     H29151  10.568   3.784   7.589  2.4879 -0.2368  1.3416
  957MOL0     H29152  10.591   3.846   7.425  1.1558  0.0221  1.4220
  957MOL0     H29153  10.781   3.640   7.543  0.5876 -0.0172 -1.0876
  957MOL0     H29154  10.792   3.812   7.538  0.9537 -0.6943  1.5968
  957MOL0     H29155  10.958   3.535   7.267  1.5583 -0.7238  2.3685
  957MOL0     H29156  11.198   3.559   7.176  1.0627 -0.8545  0.1638
  957MOL0     H29157  11.417   3.664   6.873  2.0872 -0.3974 -3.5540
  957MOL0     H29158  11.638   3.689   6.732 -0.2516  2.1132  0.1686
  957MOL0     H29159  12.036   3.675   6.962  1.0091 -1.9248  1.0253
  957MOL0     H29160  11.973   3.516   6.891  0.2680  0.1338 -2.6691
  957MOL0     H29161  12.039   3.586   6.669 -0.1979  2.9314 -1.0122
  957MOL0     H29162  12.094   3.741   6.722  0.1948 -0.6154  0.2957
  957MOL0     H29163  12.222   3.486   6.836 -0.9516  0.2964  1.3938
  957MOL0     H29164  12.282   3.568   6.686 -1.5921 -0.4201 -0.5674
  957MOL0     H29165  12.274   3.682   6.965 -0.3228 -2.3342  0.7889
  957MOL0     H29166  12.338   3.777   6.831  3.0237 -0.3075  1.5958
  957MOL0     H29167  12.445   3.516   6.931 -3.1328  0.1953 -0.0154
  957MOL0     H29168  12.518   3.675   6.957  1.1863 -2.6158  0.5577
  957MOL0     H29169  12.479   3.533   6.688  0.6862 -0.6845  1.8156
  957MOL0     H29170  12.526   3.697   6.690 -1.4449  0.2911 -0.5789
  957MOL0     H29171  12.725   3.568   6.684 -3.1270  1.4726 -0.9151
  957MOL0     H29172  12.681   3.461   6.812 -2.5008  0.3136  0.1508
  957MOL0     H29173  12.741   3.761   6.852 -1.1284 -1.3766 -0.9583
  957MOL0     H29174  12.737   3.636   6.974  0.6024 -2.0338  0.1672
  957MOL0     H29175  11.854   3.665   7.077 -1.1646 -1.4348  3.2652
  957MOL0     H29176  11.651   3.684   7.229  1.6713 -1.6894  0.1566
  957MOL0     H29177  11.185   3.975   7.290  1.1858 -0.6965  1.0426
  957MOL0     H29178  10.956   3.949   7.374 -0.2482 -0.4978  0.5228
  957MOL0     H29179   9.441   2.541   7.531 -2.0073 -0.9359 -0.6478
  957MOL0     H29180   9.222   2.520   7.484  4.2055 -1.1366  0.7026
  957MOL0     H29181   8.851   2.523   7.433 -0.3804 -0.8172  0.5146
  957MOL0     H29182   8.635   2.425   7.368 -2.2637  0.2133  0.9679
  957MOL0     H29183   8.425   2.377   7.291  2.9790 -2.0846 -1.1630
  957MOL0     H29184   8.521   2.379   7.146  1.3651  0.8407  0.3132
  957MOL0     H29185   8.295   2.286   7.097  0.4606  0.2075 -1.0874
  957MOL0     H29186   8.330   2.426   7.008  2.2381 -1.0323  0.1742
  957MOL0     H29187   8.163   2.561   7.147 -0.8623 -1.2233 -2.5034
  957MOL0     H29188   8.190   2.461   7.284  0.0728 -1.8683  0.7022
  957MOL0     H29189   8.080   2.273   7.144  0.8295  0.4565  2.6732
  957MOL0     H29190   7.985   2.393   7.229  1.3976  0.2150  1.1719
  957MOL0     H29191   7.864   2.455   6.831  0.1405  0.8740 -0.5331
  957MOL0     H29192   8.521   2.793   7.197  1.6993  0.0489 -2.8219
  957MOL0     H29193   8.762   3.012   7.310  3.1493 -0.9684  0.8184
  957MOL0     H29194   8.815   2.919   7.162 -0.9593 -2.2627 -1.6593
  957MOL0     H29195   8.641   2.960   7.197 -0.7001 -3.3657 -0.0410
  958MOL0     O29196  11.342   6.363   8.784  0.3652 -0.3708  0.1454
  958MOL0     C29197  11.224   6.355   8.827  0.2580 -0.5037 -0.1975
  958MOL0     O29198  11.163   6.240   8.887 -0.6167 -0.5541 -0.0945
  958MOL0     C29199  11.245   6.128   8.895 -0.4728 -0.0691 -1.0631
  958MOL0     C29200  11.174   6.011   8.884 -0.4895  0.6972 -0.4126
  958MOL0     C29201  11.228   5.888   8.918  0.8600  0.2983  0.2054
  958MOL0     C29202  11.361   5.875   8.950 -0.1873  0.6472  0.9906
  958MOL0     O29203  11.429   5.759   8.964 -0.0596 -0.3403  0.1752
  958MOL0     C29204  11.413   5.651   8.879 -0.7935 -0.1879  0.8774
  958MOL0     C29205  11.316   5.553   8.942 -0.0541 -0.4104 -0.3918
  958MOL0     C29206  11.333   5.411   8.886 -0.0928  0.4334 -1.2901
  958MOL0     C29207  11.291   5.308   8.992 -0.4122 -0.5266 -0.2228
  958MOL0     C29208  11.324   5.163   8.949 -0.1776  0.1990 -0.2347
  958MOL0     C29209  11.463   5.128   8.896  0.5296 -0.3439  0.6378
  958MOL0     C29210  11.574   5.144   9.015  0.1581 -0.4927  0.1628
  958MOL0     C29211  11.712   5.119   8.959  0.4074 -0.6732  0.6298
  958MOL0     N29212  11.775   5.232   8.882  0.3921  0.1201  0.2755
  958MOL0     C29213  11.909   5.237   8.873 -0.2481 -0.0851 -0.1041
  958MOL0     C29214  11.929   5.352   8.802 -0.0398 -0.4907  0.7702
  958MOL0     C29215  12.066   5.405   8.765  0.2330  0.2070 -0.0624
  958MOL0     C29216  12.147   5.468   8.885  0.0870 -0.1404  0.7948
  958MOL0     C29217  12.079   5.481   9.019 -0.6024 -0.7582 -0.6072
  958MOL0     C29218  12.169   5.527   9.136  0.3351  0.5221  0.0442
  958MOL0     O29219  12.257   5.425   9.184  0.3726 -0.7841  0.0327
  958MOL0     C29220  12.393   5.453   9.202  0.6362 -0.3040  0.3831
  958MOL0     C29221  12.499   5.412   9.117 -0.3077 -0.3903 -0.7874
  958MOL0     C29222  12.628   5.450   9.144  0.4542 -0.9466  0.3513
  958MOL0     C29223  12.664   5.515   9.259  0.8965  0.1085  0.3219
  958MOL0     C29224  12.803   5.534   9.294 -0.2745 -0.9566 -0.4057
  958MOL0     O29225  12.824   5.623   9.390  0.1768 -0.9162  0.2409
  958MOL0     C29226  12.946   5.653   9.442 -0.1826  0.5664 -0.2156
  958MOL0     C29227  13.056   5.574   9.434  0.7986 -0.2180 -0.2047
  958MOL0     C29228  13.179   5.616   9.488 -0.4115  0.0478 -0.4366
  958MOL0     C29229  13.188   5.739   9.558 -0.0396  0.0896  0.5890
  958MOL0     O29230  13.298   5.792   9.613  0.5035 -0.0872  0.4547
  958MOL0     C29231  13.421   5.717   9.602  0.1541 -0.7515  0.3459
  958MOL0     C29232  13.529   5.799   9.656 -0.4597  0.0145 -0.5533
  958MOL0     C29233  13.529   5.801   9.809 -0.0793 -0.3216 -1.7083
  958MOL0     C29234  13.627   5.904   9.883  1.4430  0.8430 -0.1627
  958MOL0     C29235  13.620   5.879  10.045  0.1582  0.2766  0.5676
  958MOL0     C29236  13.700   5.998  10.107 -0.0344 -1.0797  0.1039
  958MOL0     C29237  13.845   6.005  10.066  0.4376 -0.3877 -0.2448
  958MOL0     C29238  13.904   6.147  10.094  0.5161 -0.0764 -0.1833
  958MOL0    Cl29239  14.058   6.169   9.990 -0.4071  0.2341 -0.5140
  958MOL0     C29240  13.067   5.808   9.574 -0.9822 -0.6287  0.3562
  958MOL0     C29241  12.947   5.767   9.514 -0.4846  0.4708 -0.0984
  958MOL0     O29242  12.882   5.472   9.233 -0.1518 -0.1467 -0.2352
  958MOL0     C29243  12.555   5.562   9.345 -0.5611  0.5992 -0.8252
  958MOL0     C29244  12.426   5.524   9.320  0.5888 -0.4796 -0.0243
  958MOL0     N29245  11.811   5.401   8.759 -0.3977  0.5804  0.4306
  958MOL0     N29246  11.714   5.334   8.819  0.2690 -0.8437  0.6952
  958MOL0     C29247  11.442   5.989   8.957 -0.0920 -0.1191  0.3825
  958MOL0     C29248  11.385   6.116   8.928 -0.1936 -0.3625  0.5107
  958MOL0     C29249  11.131   6.469   8.796 -0.0548 -0.0458  0.6411
  958MOL0     C29250  10.996   6.445   8.766  0.5375  0.3150  0.2276
  958MOL0     C29251  10.900   6.538   8.731  0.2886  0.8675 -0.3175
  958MOL0     C29252  10.937   6.673   8.726  0.2430  0.0634 -0.3797
  958MOL0     O29253  10.839   6.780   8.721  0.4821 -0.2298 -0.1219
  958MOL0     C29254  10.697   6.753   8.726 -0.7805 -0.3586 -0.2565
  958MOL0     C29255  10.615   6.879   8.704  0.1782 -1.2885  0.0867
  958MOL0     C29256  10.487   6.856   8.791  0.4106  0.5361  0.1469
  958MOL0     C29257  10.379   6.958   8.771  0.5121 -1.9712  1.0560
  958MOL0     C29258  10.264   6.924   8.855 -1.2582  0.2741  0.0616
  958MOL0     C29259  10.168   6.888   8.922 -0.6294 -0.6341 -0.7911
  958MOL0     C29260  11.075   6.705   8.739  0.6486 -0.0877  0.2172
  958MOL0     C29261  11.170   6.607   8.776  0.9723 -1.1041  0.1052
  958MOL0     C29262  11.309   6.650   8.790  0.2947  0.1535 -0.0375
  958MOL0     H29263  11.069   6.009   8.860 -0.7990  1.0591  0.8170
  958MOL0     H29264  11.175   5.797   8.944 -1.7379  1.5213 -0.5607
  958MOL0     H29265  11.386   5.683   8.778 -1.4453  2.3223  1.7583
  958MOL0     H29266  11.511   5.605   8.863 -0.7416  0.6709 -1.6880
  958MOL0     H29267  11.211   5.581   8.935 -0.9031 -1.7826  3.7604
  958MOL0     H29268  11.330   5.548   9.050  0.4596 -3.4781 -0.5078
  958MOL0     H29269  11.437   5.394   8.859  0.6705 -0.8471  1.9772
  958MOL0     H29270  11.262   5.397   8.803  1.0870 -2.6306 -1.8937
  958MOL0     H29271  11.351   5.325   9.082 -0.3363 -4.3994  0.6426
  958MOL0     H29272  11.186   5.319   9.018  0.2764  0.2487  2.5406
  958MOL0     H29273  11.319   5.100   9.038  4.1161 -0.7272 -0.4479
  958MOL0     H29274  11.247   5.137   8.875 -1.3444 -0.2744  1.0900
  958MOL0     H29275  11.467   5.034   8.839  0.4169  0.2815 -0.4350
  958MOL0     H29276  11.493   5.192   8.812  2.7502 -1.7346  0.2995
  958MOL0     H29277  11.560   5.077   9.100  1.4774 -0.7898  0.1610
  958MOL0     H29278  11.561   5.243   9.059  0.2757  0.5270 -1.9499
  958MOL0     H29279  11.778   5.087   9.040  0.1072  1.9182  2.0371
  958MOL0     H29280  11.712   5.036   8.887 -0.5224  1.5005 -2.0751
  958MOL0     H29281  11.979   5.161   8.908  2.7119  3.0789  1.3620
  958MOL0     H29282  12.119   5.321   8.717  0.2324  1.8959 -3.2874
  958MOL0     H29283  12.066   5.487   8.693  0.1508  2.2797  2.2040
  958MOL0     H29284  12.242   5.415   8.898 -0.9954 -1.8255  2.3139
  958MOL0     H29285  12.174   5.567   8.848 -1.3985 -0.2437 -0.6965
  958MOL0     H29286  12.039   5.382   9.044  0.4613 -0.9519  0.3926
  958MOL0     H29287  11.999   5.556   9.014 -0.3628 -0.5078 -0.6646
  958MOL0     H29288  12.101   5.546   9.220 -0.8331 -2.8993  0.0579
  958MOL0     H29289  12.220   5.620   9.110 -1.4894  1.4997 -0.2257
  958MOL0     H29290  12.474   5.351   9.031 -0.3908 -1.3312 -0.1093
  958MOL0     H29291  12.707   5.418   9.077  0.2810 -0.0190 -0.3084
  958MOL0     H29292  13.041   5.475   9.391 -0.4361  0.0608 -0.4483
  958MOL0     H29293  13.262   5.548   9.481  1.7753  2.5255 -0.1015
  958MOL0     H29294  13.400   5.621   9.652 -1.7609  0.6665  2.4615
  958MOL0     H29295  13.430   5.700   9.495 -2.1600  1.3424 -0.2546
  958MOL0     H29296  13.628   5.759   9.632  0.8203  1.6245  1.5812
  958MOL0     H29297  13.525   5.894   9.603 -0.9707 -1.1207 -2.6498
  958MOL0     H29298  13.424   5.803   9.839 -0.1210  0.4855 -1.8844
  958MOL0     H29299  13.570   5.703   9.832 -4.3930 -1.4991  2.7285
  958MOL0     H29300  13.606   6.007   9.856 -0.5261  0.6409  0.4065
  958MOL0     H29301  13.728   5.872   9.855  2.3449  0.7927  2.7534
  958MOL0     H29302  13.649   5.776  10.072 -1.9326  0.0538  2.2054
  958MOL0     H29303  13.517   5.887  10.081  0.5706 -4.1297  3.5633
  958MOL0     H29304  13.659   6.087  10.059 -0.5142 -2.2205 -1.6771
  958MOL0     H29305  13.684   5.987  10.215  2.0413  0.6801  0.6341
  958MOL0     H29306  13.852   5.990   9.958  1.3952 -1.4426 -0.0507
  958MOL0     H29307  13.906   5.925  10.107  0.4347 -0.1134  0.2996
  958MOL0     H29308  13.846   6.235  10.065 -0.2939 -0.1974  0.9966
  958MOL0     H29309  13.931   6.144  10.201 -0.4539 -1.4058  0.0466
  958MOL0     H29310  13.071   5.906   9.621  1.0030  1.8834 -4.3800
  958MOL0     H29311  12.854   5.823   9.517 -1.4831 -0.7716 -3.2764
  958MOL0     H29312  12.588   5.625   9.426 -1.3794 -0.8851  0.7150
  958MOL0     H29313  12.350   5.546   9.394  2.5165  2.3369  1.2808
  958MOL0     H29314  11.543   5.987   8.999  0.6456 -0.1977 -1.3244
  958MOL0     H29315  11.442   6.208   8.939 -0.2382 -0.2774  0.0335
  958MOL0     H29316  10.955   6.346   8.782  0.9574  0.3536  1.7586
  958MOL0     H29317  10.793   6.522   8.728  0.5832 -1.3577 -0.7882
  958MOL0     H29318  10.675   6.711   8.824 -0.5927 -0.5306 -0.2872
  958MOL0     H29319  10.679   6.683   8.644 -2.0791 -0.0611 -0.2447
  958MOL0     H29320  10.578   6.894   8.602 -3.0053 -1.7393  1.0566
  958MOL0     H29321  10.664   6.965   8.750 -0.6129 -1.8250  2.0565
  958MOL0     H29322  10.523   6.853   8.894  0.4064 -2.1560  0.1450
  958MOL0     H29323  10.450   6.755   8.773 -3.1871  1.6876  0.2849
  958MOL0     H29324  10.400   7.061   8.800 -0.9458 -1.6117  0.9231
  958MOL0     H29325  10.351   6.964   8.665 -0.7566 -1.4203  1.3960
  958MOL0     H29326  10.085   6.865   8.986 -1.0147 -0.2551 -1.1517
  958MOL0     H29327  11.091   6.812   8.731 -0.4406  0.1396  0.7875
  958MOL0     H29328  11.368   6.601   8.712 -0.4853 -2.8308  1.1070
  958MOL0     H29329  11.306   6.760   8.790 -0.4807  0.2330 -3.6286
  958MOL0     H29330  11.351   6.613   8.884  0.9984  2.0157  0.4397
  959MOL0     O29331   0.004  10.773   4.829  0.1823 -0.4411 -0.8875
  959MOL0     C29332  -0.027  10.891   4.823 -0.2583  0.2323 -0.9668
  959MOL0     O29333  -0.153  10.942   4.828  0.2216  0.3521  0.6641
  959MOL0     C29334  -0.263  10.875   4.878  0.2499 -0.3740  0.3597
  959MOL0     C29335  -0.275  10.769   4.969 -0.3099  0.0620 -0.5756
  959MOL0     C29336  -0.404  10.730   5.008 -1.0059 -0.2362 -0.4090
  959MOL0     C29337  -0.517  10.793   4.964 -0.0442  0.9341  0.6174
  959MOL0     O29338  -0.643  10.773   4.996  0.3403  0.3858  0.0713
  959MOL0     C29339  -0.670  10.640   5.051 -0.4489  0.1476 -0.2057
  959MOL0     C29340  -0.821  10.652   5.078  1.0419 -0.1165 -0.0410
  959MOL0     C29341  -0.875  10.520   5.133 -1.2633 -1.1720  0.0308
  959MOL0     C29342  -1.030  10.536   5.169  1.1211  0.8854 -0.1223
  959MOL0     C29343  -1.091  10.395   5.179  0.3113  0.6024  0.0580
  959MOL0     C29344  -1.248  10.401   5.174  0.6815 -0.8860 -0.4174
  959MOL0     C29345  -1.290  10.257   5.221 -0.5680 -0.1309  0.2754
  959MOL0     C29346  -1.448  10.242   5.215 -0.5055 -0.3594  0.4447
  959MOL0     N29347  -1.491  10.123   5.291  0.8577  0.1965  0.6569
  959MOL0     C29348  -1.543  10.117   5.418  1.4920 -0.7272 -0.2166
  959MOL0     C29349  -1.529   9.998   5.457 -0.1537 -0.6753 -0.5913
  959MOL0     C29350  -1.567   9.957   5.597  0.9508  1.1733 -0.0511
  959MOL0     C29351  -1.586   9.800   5.606  0.3568 -0.5558 -0.3609
  959MOL0     C29352  -1.711   9.755   5.523 -0.3406 -0.7062  0.4614
  959MOL0     C29353  -1.709   9.612   5.506  0.3512 -0.3113 -0.6483
  959MOL0     O29354  -1.721   9.545   5.640 -0.3892 -0.4531  0.7892
  959MOL0     C29355  -1.845   9.506   5.674  1.2368  0.2930 -0.2414
  959MOL0     C29356  -1.966   9.546   5.610 -0.2891 -0.3222  0.1938
  959MOL0     C29357  -2.087   9.480   5.650 -0.3026  0.1183 -0.2494
  959MOL0     C29358  -2.093   9.383   5.760  0.4373 -0.6661 -0.1294
  959MOL0     C29359  -2.220   9.340   5.815  0.6359 -0.3646  0.3404
  959MOL0     O29360  -2.334   9.397   5.757  0.8311  0.4117  0.4689
  959MOL0     C29361  -2.466   9.377   5.795 -0.2452 -0.1023  0.4980
  959MOL0     C29362  -2.503   9.315   5.911 -0.1217  0.1891 -0.0941
  959MOL0     C29363  -2.636   9.263   5.930  0.4840  0.3877  0.0360
  959MOL0     C29364  -2.731   9.293   5.834 -0.9560  0.1373 -0.1036
  959MOL0     O29365  -2.854   9.242   5.837  1.4181 -1.1383  0.1692
  959MOL0     C29366  -2.882   9.136   5.924  0.2871 -0.3943  0.0698
  959MOL0     C29367  -3.010   9.063   5.887  0.3037 -0.2389  0.2351
  959MOL0     C29368  -3.135   9.141   5.913 -0.6894  0.7686 -0.4802
  959MOL0     C29369  -3.266   9.058   5.911 -1.4749 -0.5373 -0.1658
  959MOL0     C29370  -3.376   9.136   5.843  0.5641 -0.3105  0.1630
  959MOL0     C29371  -3.504   9.058   5.812  0.4599 -0.2435  1.0180
  959MOL0     C29372  -3.600   9.123   5.707  0.4224 -0.1862 -0.9606
  959MOL0     C29373  -3.688   9.233   5.767  0.5915  0.0228 -0.2188
  959MOL0    Cl29374  -3.806   9.292   5.649 -0.0904  0.5454 -0.2291
  959MOL0     C29375  -2.693   9.349   5.716 -1.1899  0.7554  0.2984
  959MOL0     C29376  -2.560   9.392   5.695  0.0911  0.1720  0.7233
  959MOL0     O29377  -2.220   9.241   5.896  0.1928  0.1397 -0.9599
  959MOL0     C29378  -1.971   9.352   5.824 -0.6867 -0.6494 -0.3101
  959MOL0     C29379  -1.852   9.419   5.788 -0.1135 -0.8482 -0.3472
  959MOL0     N29380  -1.469   9.921   5.354  0.6834  0.3052  0.0316
  959MOL0     N29381  -1.453   9.999   5.254 -0.0735  0.4825 -0.2485
  959MOL0     C29382  -0.507  10.896   4.880 -0.1332 -0.1369 -0.1220
  959MOL0     C29383  -0.381  10.938   4.839 -0.2468 -0.2562 -0.1582
  959MOL0     C29384   0.090  10.975   4.846 -0.4958 -0.6600  0.5054
  959MOL0     C29385   0.069  11.112   4.878 -0.0621  0.0195  0.1256
  959MOL0     C29386   0.175  11.203   4.885  1.3181  0.6447  0.9866
  959MOL0     C29387   0.302  11.154   4.882  0.5181  0.2228  0.1309
  959MOL0     O29388   0.400  11.247   4.899  0.3408 -0.0426  0.5230
  959MOL0     C29389   0.535  11.214   4.869  0.0981 -0.7059  0.7223
  959MOL0     C29390   0.619  11.335   4.860  0.5082  0.0646 -0.0832
  959MOL0     C29391   0.774  11.306   4.845  0.6318  0.5432  0.4442
  959MOL0     C29392   0.869  11.415   4.865  0.1525  0.0920 -0.1398
  959MOL0     C29393   1.010  11.372   4.836  0.4837 -1.1668  0.7721
  959MOL0     C29394   1.118  11.335   4.810  0.0112  0.4900  0.6329
  959MOL0     C29395   0.322  11.019   4.854  0.3004  0.2893 -0.2340
  959MOL0     C29396   0.223  10.925   4.833  0.3475 -0.2053  0.5921
  959MOL0     C29397   0.268  10.782   4.795 -0.5472 -0.6516  0.1986
  959MOL0     H29398  -0.193  10.702   4.992  0.0961  0.3172 -1.2644
  959MOL0     H29399  -0.411  10.635   5.061  1.2356 -0.3660 -0.2290
  959MOL0     H29400  -0.648  10.563   4.976  2.6461  1.0638 -0.3669
  959MOL0     H29401  -0.605  10.625   5.138  0.5222  1.0307 -0.7470
  959MOL0     H29402  -0.870  10.678   4.983  0.1725  2.4792  1.0329
  959MOL0     H29403  -0.836  10.739   5.143  1.1565 -0.2147  0.1181
  959MOL0     H29404  -0.817  10.477   5.214 -1.0116  0.2228  0.6267
  959MOL0     H29405  -0.871  10.445   5.053  1.3794 -0.6961 -0.3576
  959MOL0     H29406  -1.050  10.596   5.258 -2.1867  3.5116 -2.3961
  959MOL0     H29407  -1.075  10.593   5.088  1.5995  1.2868 -0.1126
  959MOL0     H29408  -1.058  10.330   5.098  1.1943  1.0597  0.0280
  959MOL0     H29409  -1.057  10.352   5.274  0.4680 -0.1228 -0.3210
  959MOL0     H29410  -1.277  10.480   5.245  0.8408  1.9613 -3.3187
  959MOL0     H29411  -1.282  10.430   5.075 -0.8461  2.1861  0.8669
  959MOL0     H29412  -1.237  10.231   5.313 -1.3528  1.6569  1.2934
  959MOL0     H29413  -1.254  10.180   5.153  3.8321 -0.6590  2.8279
  959MOL0     H29414  -1.487  10.328   5.270 -0.0732 -2.7432  4.9335
  959MOL0     H29415  -1.488  10.233   5.114  0.4183  2.6564 -0.2914
  959MOL0     H29416  -1.584  10.192   5.485 -1.4498 -1.6217 -0.8564
  959MOL0     H29417  -1.482   9.985   5.660  0.8910 -0.9337  1.0680
  959MOL0     H29418  -1.652  10.018   5.629  0.7255  0.1470  1.4286
  959MOL0     H29419  -1.502   9.746   5.561  0.9788  2.8037 -3.7539
  959MOL0     H29420  -1.626   9.772   5.704 -0.6681  2.0104  0.0427
  959MOL0     H29421  -1.703   9.800   5.423 -0.9048  0.3467  0.8704
  959MOL0     H29422  -1.804   9.789   5.571  0.1577  1.6793 -0.1191
  959MOL0     H29423  -1.609   9.584   5.472  0.2236  0.1807 -1.4693
  959MOL0     H29424  -1.782   9.588   5.428  1.3766  1.7792 -2.3605
  959MOL0     H29425  -1.975   9.616   5.528  1.6948  0.2713  0.4165
  959MOL0     H29426  -2.181   9.497   5.599 -0.1734 -2.9171 -1.7407
  959MOL0     H29427  -2.430   9.314   5.991 -2.7143 -1.6980  2.4755
  959MOL0     H29428  -2.661   9.205   6.018  0.2907 -1.8748 -1.4231
  959MOL0     H29429  -2.803   9.063   5.906  3.0756  2.3432  0.4018
  959MOL0     H29430  -2.882   9.168   6.028 -0.0195 -0.9425  0.2442
  959MOL0     H29431  -3.001   9.042   5.780  0.9141 -0.9859  0.4261
  959MOL0     H29432  -3.013   8.969   5.942 -0.2369 -0.9402 -0.9532
  959MOL0     H29433  -3.123   9.172   6.018 -1.6250 -1.8521  0.4831
  959MOL0     H29434  -3.137   9.231   5.851  2.1386  0.9554 -0.4346
  959MOL0     H29435  -3.288   9.046   6.018  0.2938 -1.0958  0.1841
  959MOL0     H29436  -3.261   8.964   5.856  0.3864  0.4401 -1.7748
  959MOL0     H29437  -3.328   9.171   5.752  0.4679  2.3683  1.0512
  959MOL0     H29438  -3.407   9.231   5.887  1.1390  0.8007 -1.7245
  959MOL0     H29439  -3.475   8.963   5.766 -0.0366 -0.5953  1.4235
  959MOL0     H29440  -3.564   9.040   5.901 -0.6078 -0.9730  0.1680
  959MOL0     H29441  -3.670   9.045   5.679 -1.2390  0.5187  0.9784
  959MOL0     H29442  -3.534   9.166   5.631  0.8756 -0.9688 -1.0199
  959MOL0     H29443  -3.749   9.188   5.847 -0.6222 -0.8743 -1.5704
  959MOL0     H29444  -3.624   9.315   5.799  0.4272  1.2500 -2.8006
  959MOL0     H29445  -2.761   9.369   5.633 -0.8676 -3.5894 -1.2715
  959MOL0     H29446  -2.529   9.429   5.598  0.0164 -3.0589 -0.6483
  959MOL0     H29447  -1.970   9.282   5.906  2.6521 -1.0630 -0.5785
  959MOL0     H29448  -1.765   9.396   5.848  0.6420  3.1308  0.3576
  959MOL0     H29449  -0.596  10.954   4.860 -1.3971 -0.9542  2.6694
  959MOL0     H29450  -0.364  11.012   4.761  0.5533 -0.6414 -0.3562
  959MOL0     H29451  -0.033  11.146   4.892 -0.4724 -0.8050 -0.7068
  959MOL0     H29452   0.155  11.309   4.896 -2.2303  0.5655 -2.4016
  959MOL0     H29453   0.541  11.168   4.770 -2.0949  2.1081 -0.8863
  959MOL0     H29454   0.586  11.156   4.947  0.7697  0.6427  1.3154
  959MOL0     H29455   0.608  11.387   4.955  0.2315 -3.1859  1.7941
  959MOL0     H29456   0.575  11.404   4.787  1.0854 -1.1007 -1.5786
  959MOL0     H29457   0.788  11.262   4.745  0.9634 -1.5993  1.3880
  959MOL0     H29458   0.800  11.230   4.919 -0.6041 -2.1667 -1.7145
  959MOL0     H29459   0.846  11.497   4.795  2.8603 -0.0810 -1.3534
  959MOL0     H29460   0.864  11.454   4.967  0.5606  0.2216 -0.1666
  959MOL0     H29461   1.217  11.304   4.784 -1.3726 -1.6905 -2.6942
  959MOL0     H29462   0.425  10.986   4.843  0.3556  0.4817 -0.3136
  959MOL0     H29463   0.213  10.754   4.705 -2.1839 -0.3360  1.0616
  959MOL0     H29464   0.373  10.792   4.765 -0.2786 -0.5101  1.1616
  959MOL0     H29465   0.268  10.709   4.876 -0.1875  0.6992  1.4514
  960MOL0     O29466   5.097   7.050   6.481 -0.7626  1.0070  0.0322
  960MOL0     C29467   5.017   7.042   6.392 -0.1988 -0.7269  0.2624
  960MOL0     O29468   5.043   6.983   6.275 -0.4719 -0.7345  0.0611
  960MOL0     C29469   5.143   6.894   6.247  0.0711 -0.6297 -0.2987
  960MOL0     C29470   5.114   6.785   6.160 -0.2018 -0.4746 -0.1038
  960MOL0     C29471   5.219   6.686   6.135  0.3493 -0.5706 -0.3659
  960MOL0     C29472   5.343   6.700   6.210 -0.1046  0.2337 -0.0428
  960MOL0     O29473   5.453   6.617   6.210 -0.6735  0.1126  0.3751
  960MOL0     C29474   5.396   6.483   6.212 -0.4490  0.1085  0.6087
  960MOL0     C29475   5.518   6.392   6.204  0.1432 -0.6392 -0.0098
  960MOL0     C29476   5.613   6.426   6.320 -0.5633  0.1785  0.0677
  960MOL0     C29477   5.713   6.316   6.331 -0.2443 -0.5033 -0.7785
  960MOL0     C29478   5.812   6.342   6.443  0.1264  0.2256 -0.2806
  960MOL0     C29479   5.927   6.237   6.446  0.8088 -0.9341  0.2483
  960MOL0     C29480   6.018   6.252   6.560 -0.0125 -0.4880  0.8784
  960MOL0     C29481   6.111   6.381   6.562  0.3747  0.1881  0.1990
  960MOL0     N29482   6.157   6.378   6.697  0.2449  0.2049  0.1926
  960MOL0     C29483   6.226   6.279   6.763 -0.5143 -0.6104 -0.0059
  960MOL0     C29484   6.235   6.320   6.891 -0.1123  0.0821 -0.7906
  960MOL0     C29485   6.288   6.239   6.993  0.3922  1.0894 -0.1248
  960MOL0     C29486   6.428   6.181   6.971 -0.4029  0.7844 -0.3592
  960MOL0     C29487   6.473   6.096   7.086 -0.2414 -0.5979  0.0693
  960MOL0     C29488   6.623   6.090   7.103 -0.0617 -0.7625 -0.3740
  960MOL0     O29489   6.686   6.007   7.007  0.2666  0.7223  0.1206
  960MOL0     C29490   6.822   5.989   7.006 -0.4497  0.2231  0.3049
  960MOL0     C29491   6.909   6.065   7.089  1.2505  0.0803  0.5473
  960MOL0     C29492   7.044   6.020   7.096  0.9334 -0.5169  1.0930
  960MOL0     C29493   7.086   5.910   7.024  1.0085  0.0485 -0.0083
  960MOL0     C29494   7.224   5.850   7.052 -0.8362 -0.4477 -0.6839
  960MOL0     O29495   7.275   5.759   6.963  0.2411 -0.2991 -0.1092
  960MOL0     C29496   7.388   5.687   7.014 -0.4778  0.5264 -0.1254
  960MOL0     C29497   7.520   5.729   6.983  0.3121  0.2894 -0.7190
  960MOL0     C29498   7.622   5.650   7.033  0.7397 -0.0585 -0.4044
  960MOL0     C29499   7.595   5.530   7.101 -0.6633 -0.2048 -0.3746
  960MOL0     O29500   7.713   5.464   7.132 -0.6968 -0.0899  0.6711
  960MOL0     C29501   7.716   5.399   7.264  1.2162  0.4096  0.2542
  960MOL0     C29502   7.853   5.394   7.318  0.0279 -0.0220 -0.3350
  960MOL0     C29503   7.953   5.337   7.216 -0.7811 -0.1882  0.0788
  960MOL0     C29504   7.929   5.183   7.205 -1.1150  0.0411  0.5819
  960MOL0     C29505   8.042   5.103   7.159  0.4419  0.6207  0.1806
  960MOL0     C29506   7.998   4.952   7.181  0.0449 -0.0738 -0.3915
  960MOL0     C29507   7.994   4.915   7.333 -1.0678  0.8085  0.1435
  960MOL0     C29508   7.956   4.769   7.348  0.2403 -0.3858  0.2758
  960MOL0    Cl29509   7.820   4.697   7.264  0.1460 -0.2148 -0.1569
  960MOL0     C29510   7.464   5.506   7.141 -0.2291 -0.2156 -0.1072
  960MOL0     C29511   7.353   5.575   7.086  0.2425  0.8845  0.5284
  960MOL0     O29512   7.284   5.895   7.145 -0.0458 -0.2511  0.6754
  960MOL0     C29513   6.997   5.844   6.936  0.6154  0.4361 -0.0117
  960MOL0     C29514   6.863   5.882   6.934  0.1141  0.8968  0.0668
  960MOL0     N29515   6.156   6.436   6.902 -0.0019  0.0192 -0.4144
  960MOL0     N29516   6.101   6.467   6.788 -0.8091 -0.2055 -0.1018
  960MOL0     C29517   5.367   6.819   6.276 -0.0746 -0.3230 -0.0696
  960MOL0     C29518   5.273   6.916   6.295 -0.3518 -0.0767  0.4674
  960MOL0     C29519   4.883   7.091   6.395 -0.5345  0.2034 -0.2899
  960MOL0     C29520   4.860   7.199   6.319  0.4785 -0.7055  0.7622
  960MOL0     C29521   4.734   7.262   6.322  0.5377  0.1531 -0.3277
  960MOL0     C29522   4.626   7.209   6.400  0.1727  0.5834 -0.4660
  960MOL0     O29523   4.506   7.262   6.390  0.2893  0.2399 -0.2857
  960MOL0     C29524   4.450   7.296   6.519 -0.3862  0.0987  0.1577
  960MOL0     C29525   4.369   7.429   6.526 -0.2911 -0.1055 -0.8401
  960MOL0     C29526   4.233   7.425   6.451 -0.6789  0.3400  0.0103
  960MOL0     C29527   4.206   7.554   6.380 -0.6111 -0.4155 -0.3170
  960MOL0     C29528   4.078   7.546   6.314  0.3894  0.2849 -0.2893
  960MOL0     C29529   3.967   7.543   6.264  0.6259  0.4102 -0.5649
  960MOL0     C29530   4.653   7.090   6.465 -0.0539  0.4789  0.3394
  960MOL0     C29531   4.781   7.033   6.468  0.5035 -0.3219 -0.0820
  960MOL0     C29532   4.793   6.899   6.527  0.3910 -0.2810 -0.0199
  960MOL0     H29533   5.020   6.784   6.106 -0.2002 -0.2262 -0.1107
  960MOL0     H29534   5.206   6.604   6.064  3.4226 -0.5882 -1.0239
  960MOL0     H29535   5.342   6.468   6.307 -0.0080  1.0385  1.0210
  960MOL0     H29536   5.338   6.462   6.122  3.9979 -0.1821 -2.4656
  960MOL0     H29537   5.575   6.419   6.115  3.6393 -2.2758  1.5578
  960MOL0     H29538   5.488   6.287   6.194 -2.9197 -0.0238  1.3132
  960MOL0     H29539   5.566   6.426   6.419  1.2996  0.1702  0.9974
  960MOL0     H29540   5.670   6.518   6.298  0.6194 -1.2111 -3.4733
  960MOL0     H29541   5.657   6.222   6.343 -2.5265  0.4248 -3.2147
  960MOL0     H29542   5.770   6.305   6.238 -0.6800 -3.9391 -0.7619
  960MOL0     H29543   5.859   6.440   6.427  3.2902 -1.1293 -0.0418
  960MOL0     H29544   5.759   6.344   6.538  4.0227 -2.2948  2.2526
  960MOL0     H29545   5.878   6.140   6.440  1.3395 -1.2249  0.5838
  960MOL0     H29546   5.988   6.252   6.356  1.1448 -0.6651  0.5160
  960MOL0     H29547   6.083   6.164   6.558  1.7985  0.7865 -1.4304
  960MOL0     H29548   5.964   6.240   6.655  1.1597 -2.1676  1.3739
  960MOL0     H29549   6.182   6.377   6.478 -1.7597 -0.8902 -1.6956
  960MOL0     H29550   6.051   6.469   6.539  0.1575 -0.9184 -4.5307
  960MOL0     H29551   6.258   6.184   6.722  1.0552 -0.0760 -0.0607
  960MOL0     H29552   6.292   6.297   7.086  1.9711 -2.3631  2.1439
  960MOL0     H29553   6.221   6.153   7.001 -0.6433  1.7286 -1.4577
  960MOL0     H29554   6.422   6.118   6.881 -2.0259  0.4150 -0.0144
  960MOL0     H29555   6.495   6.267   6.958 -1.1612  1.3496 -0.6549
  960MOL0     H29556   6.426   5.997   7.081 -0.8134 -0.4037  1.2466
  960MOL0     H29557   6.433   6.141   7.178  1.2579 -1.0467  0.9736
  960MOL0     H29558   6.645   6.050   7.203 -0.0619  0.0143 -0.0519
  960MOL0     H29559   6.655   6.194   7.104 -0.1982 -0.7122  0.9049
  960MOL0     H29560   6.877   6.152   7.146 -1.0798 -1.1453  1.1975
  960MOL0     H29561   7.116   6.073   7.158 -2.3141  2.1357  2.8928
  960MOL0     H29562   7.538   5.816   6.922 -0.6552  1.8443  1.1020
  960MOL0     H29563   7.722   5.690   7.018  0.2778  2.4872  2.2057
  960MOL0     H29564   7.647   5.449   7.333  2.7783  0.3404  1.9191
  960MOL0     H29565   7.674   5.299   7.256 -2.7064  1.8417  0.6553
  960MOL0     H29566   7.890   5.486   7.364 -0.0277 -1.7836  3.6370
  960MOL0     H29567   7.856   5.330   7.407 -0.1552  0.9085  0.3581
  960MOL0     H29568   7.945   5.392   7.122 -0.9998  0.9424  0.7476
  960MOL0     H29569   8.054   5.347   7.258  0.0889 -0.5493 -1.8239
  960MOL0     H29570   7.846   5.175   7.134 -0.0533 -1.2340 -0.5669
  960MOL0     H29571   7.903   5.150   7.307  0.0196 -2.1548  0.2163
  960MOL0     H29572   8.125   5.142   7.219 -0.0997 -0.5137  1.7374
  960MOL0     H29573   8.065   5.120   7.054 -3.0241  1.3245 -0.6046
  960MOL0     H29574   7.898   4.939   7.138 -0.8532  2.2804  0.8249
  960MOL0     H29575   8.067   4.886   7.128  1.8677  3.2422 -2.5589
  960MOL0     H29576   7.919   4.970   7.391 -1.2492  1.8476 -1.0223
  960MOL0     H29577   8.092   4.934   7.377 -0.1904  0.3898 -1.5778
  960MOL0     H29578   8.040   4.703   7.324  2.3196  2.4371 -0.7814
  960MOL0     H29579   7.924   4.770   7.452  1.9700  0.3665  0.8384
  960MOL0     H29580   7.454   5.410   7.191 -0.4853 -0.1131  0.0400
  960MOL0     H29581   7.253   5.540   7.106  0.8129 -0.6314  0.8465
  960MOL0     H29582   7.016   5.750   6.884 -0.3904  0.6319 -0.7482
  960MOL0     H29583   6.790   5.833   6.871 -3.0358  4.6489  0.4229
  960MOL0     H29584   5.463   6.817   6.327  0.2212 -0.7049 -0.6295
  960MOL0     H29585   5.299   6.987   6.372  0.2882 -0.8565  0.9908
  960MOL0     H29586   4.930   7.252   6.255 -1.3575  2.1764  0.9435
  960MOL0     H29587   4.724   7.358   6.275  1.8646  2.9250  4.3577
  960MOL0     H29588   4.527   7.307   6.597  0.6447  1.6916 -1.0189
  960MOL0     H29589   4.388   7.210   6.545  0.6343 -0.5436  0.5694
  960MOL0     H29590   4.438   7.504   6.488 -0.4619  1.2629  1.3977
  960MOL0     H29591   4.352   7.460   6.630  1.7320 -2.4389  0.2920
  960MOL0     H29592   4.150   7.395   6.516  0.3281 -2.2953  0.2066
  960MOL0     H29593   4.244   7.345   6.378  0.8076  1.5253 -1.1137
  960MOL0     H29594   4.202   7.612   6.473  1.3607 -2.4361  1.1568
  960MOL0     H29595   4.285   7.598   6.319 -1.2259 -0.9716 -1.5409
  960MOL0     H29596   3.868   7.540   6.224  0.5128  0.1212 -0.2584
  960MOL0     H29597   4.582   7.032   6.522  2.0907 -0.0091  2.7107
  960MOL0     H29598   4.876   6.842   6.484 -0.9354 -3.2912  1.1144
  960MOL0     H29599   4.821   6.907   6.633  2.4475  1.5821 -0.6271
  960MOL0     H29600   4.699   6.842   6.527 -1.8223  3.1062  0.6631
  961MOL0     O29601   2.333  10.030   6.076 -0.6048  0.3284  0.1966
  961MOL0     C29602   2.308  10.099   6.177  0.5006  0.5252  0.5058
  961MOL0     O29603   2.389  10.138   6.266  0.1187 -0.3733  0.4822
  961MOL0     C29604   2.510  10.082   6.267  0.4981 -0.1620 -0.0315
  961MOL0     C29605   2.547   9.963   6.337 -0.2143 -0.4064  0.7552
  961MOL0     C29606   2.681   9.931   6.363  0.4222  0.3747 -0.1243
  961MOL0     C29607   2.786  10.007   6.324  0.6379  0.2349 -0.1952
  961MOL0     O29608   2.913   9.976   6.356 -0.3451  0.3445 -0.3321
  961MOL0     C29609   3.029  10.045   6.297 -0.3702  0.5613 -0.7970
  961MOL0     C29610   3.165   9.977   6.321  0.5072  0.2420  1.0440
  961MOL0     C29611   3.208   9.915   6.187 -0.3268  0.3916 -0.2485
  961MOL0     C29612   3.107   9.817   6.115  0.1879  0.0468 -0.2839
  961MOL0     C29613   3.179   9.760   5.992  0.4780  0.5314  0.0485
  961MOL0     C29614   3.078   9.681   5.907  0.1296 -0.2624 -0.0767
  961MOL0     C29615   3.146   9.615   5.781  0.0240 -0.9137  0.1236
  961MOL0     C29616   3.141   9.457   5.775 -0.2194 -0.2104 -0.2820
  961MOL0     N29617   3.230   9.396   5.877 -0.3045 -1.0695  1.2896
  961MOL0     C29618   3.361   9.365   5.859  0.5342 -0.6752  0.1450
  961MOL0     C29619   3.393   9.313   5.981  0.3644  0.1785  0.6949
  961MOL0     C29620   3.521   9.261   6.028 -0.2639  0.1260 -0.6547
  961MOL0     C29621   3.641   9.261   5.922 -0.2280  0.0589  0.3465
  961MOL0     C29622   3.772   9.227   5.995 -0.4128  0.3504 -0.4448
  961MOL0     C29623   3.850   9.352   6.062  0.3271  0.5149 -1.0613
  961MOL0     O29624   3.940   9.401   5.955 -0.3220  0.1229 -0.3869
  961MOL0     C29625   4.061   9.450   5.988  0.5428 -0.1065 -1.1105
  961MOL0     C29626   4.099   9.498   6.110 -0.1369  0.7726 -1.0596
  961MOL0     C29627   4.234   9.538   6.138  0.6075  0.0492  1.0643
  961MOL0     C29628   4.327   9.538   6.033  0.7110 -0.0443  0.5393
  961MOL0     C29629   4.473   9.586   6.054  0.2670 -0.2412  0.1075
  961MOL0     O29630   4.572   9.514   5.986  0.0150  0.8894  0.1850
  961MOL0     C29631   4.690   9.584   5.944 -0.6394  0.5292  0.0363
  961MOL0     C29632   4.692   9.717   5.889 -0.1697  0.1222 -0.6710
  961MOL0     C29633   4.814   9.768   5.853 -0.5252 -0.1240  0.6353
  961MOL0     C29634   4.937   9.706   5.863  0.1546  0.4148  0.6688
  961MOL0     O29635   5.063   9.755   5.827 -0.0694  0.2592 -0.5174
  961MOL0     C29636   5.082   9.896   5.820  0.3294 -0.3005  0.3317
  961MOL0     C29637   5.228   9.945   5.788  0.8755 -0.2463  0.3586
  961MOL0     C29638   5.295   9.871   5.671  0.5624  0.0698  0.9786
  961MOL0     C29639   5.411   9.959   5.638  0.2831  0.7988 -0.5014
  961MOL0     C29640   5.519   9.881   5.558 -0.0829 -0.3745  0.8262
  961MOL0     C29641   5.590   9.984   5.476 -0.4003 -0.1659  0.2095
  961MOL0     C29642   5.682   9.917   5.370  0.4682 -0.2828  0.3066
  961MOL0     C29643   5.761  10.026   5.291 -0.6180  0.2310  0.2691
  961MOL0    Cl29644   5.921   9.956   5.219 -0.0291  0.4871  0.0982
  961MOL0     C29645   4.928   9.572   5.902 -0.4227 -0.8490 -0.1444
  961MOL0     C29646   4.807   9.515   5.945 -0.3471 -1.1507 -0.8376
  961MOL0     O29647   4.479   9.704   6.102 -0.0843  0.0642  0.2143
  961MOL0     C29648   4.284   9.499   5.910 -1.0731 -0.1917  0.3082
  961MOL0     C29649   4.150   9.460   5.885  0.9117  0.1859 -0.6703
  961MOL0     N29650   3.289   9.305   6.066  0.3752 -0.2119  0.3415
  961MOL0     N29651   3.187   9.365   6.003 -0.3396 -0.1458  0.1616
  961MOL0     C29652   2.750  10.116   6.237 -0.6760  0.0356  0.1714
  961MOL0     C29653   2.612  10.150   6.206 -0.1111 -0.2452  0.6029
  961MOL0     C29654   2.183  10.169   6.190  0.1182  1.0101  0.2538
  961MOL0     C29655   2.177  10.281   6.275  0.1172 -0.0865  0.1769
  961MOL0     C29656   2.066  10.350   6.298  0.9271  0.9998  0.2737
  961MOL0     C29657   1.945  10.304   6.250 -0.4772  0.4183  0.5258
  961MOL0     O29658   1.834  10.380   6.284 -0.1357 -0.2751 -0.0184
  961MOL0     C29659   1.701  10.321   6.266 -0.0521 -0.5450 -0.4723
  961MOL0     C29660   1.586  10.415   6.310  0.0196 -1.0095 -0.8173
  961MOL0     C29661   1.447  10.344   6.295  0.6935 -0.2082 -0.6744
  961MOL0     C29662   1.351  10.424   6.380  0.2949 -0.2576 -0.4068
  961MOL0     C29663   1.221  10.363   6.404  0.0418  0.1993 -0.0890
  961MOL0     C29664   1.101  10.332   6.419  0.8014  0.3746  0.0986
  961MOL0     C29665   1.945  10.199   6.158  0.0432  0.0412  0.0683
  961MOL0     C29666   2.057  10.123   6.126 -0.2664 -0.2103 -0.2560
  961MOL0     C29667   2.032  10.007   6.031  0.2525 -0.3288 -0.9037
  961MOL0     H29668   2.464   9.901   6.368 -0.0965 -2.9200 -3.2450
  961MOL0     H29669   2.712   9.842   6.417  0.3450 -1.3088 -2.7113
  961MOL0     H29670   3.013  10.059   6.190 -0.4933  0.6443 -0.7673
  961MOL0     H29671   3.041  10.144   6.340  1.4660  0.5762 -1.2603
  961MOL0     H29672   3.147   9.910   6.406  1.7200  1.1093  2.0194
  961MOL0     H29673   3.237  10.041   6.372  2.1346 -1.4276  0.9528
  961MOL0     H29674   3.304   9.866   6.206  0.8995  4.0340  5.0009
  961MOL0     H29675   3.241  10.000   6.127 -1.3272  1.2792  0.4093
  961MOL0     H29676   3.087   9.732   6.181 -2.5217 -1.4185 -2.7736
  961MOL0     H29677   3.016   9.868   6.082  1.4432  3.2057  0.7261
  961MOL0     H29678   3.217   9.847   5.938 -1.6252  1.3305 -0.2180
  961MOL0     H29679   3.260   9.692   6.022  0.4613 -0.6146 -2.2816
  961MOL0     H29680   3.024   9.601   5.960  4.3823 -2.6423  1.2371
  961MOL0     H29681   3.003   9.752   5.873  1.0563  0.1909 -1.2342
  961MOL0     H29682   3.251   9.645   5.781  0.0741 -1.0827 -0.0985
  961MOL0     H29683   3.095   9.649   5.690  3.8614  2.0506 -1.1886
  961MOL0     H29684   3.035   9.437   5.794 -0.4189  2.9685  2.9084
  961MOL0     H29685   3.180   9.441   5.674  0.7170  2.4049 -0.3908
  961MOL0     H29686   3.418   9.392   5.770 -1.1222 -0.0212 -0.7795
  961MOL0     H29687   3.554   9.331   6.105 -2.6354  2.5819 -1.7212
  961MOL0     H29688   3.501   9.159   6.062 -1.2755  0.8034  0.9028
  961MOL0     H29689   3.616   9.182   5.850 -2.4180 -3.1706  4.2292
  961MOL0     H29690   3.644   9.357   5.870 -3.3510 -1.3408 -2.9078
  961MOL0     H29691   3.827   9.173   5.917 -0.6014 -1.0395  0.3566
  961MOL0     H29692   3.751   9.155   6.075  2.1578 -0.3761 -0.3358
  961MOL0     H29693   3.915   9.310   6.139 -0.4104 -0.0125 -0.7189
  961MOL0     H29694   3.781   9.425   6.105  0.1133 -1.9316  3.2090
  961MOL0     H29695   4.025   9.507   6.188 -0.9688 -2.1392 -1.3963
  961MOL0     H29696   4.264   9.575   6.235  1.7622  4.3890 -0.6999
  961MOL0     H29697   4.603   9.776   5.876 -0.9001 -0.9172 -0.5014
  961MOL0     H29698   4.827   9.873   5.832 -0.4929 -0.2823 -0.1561
  961MOL0     H29699   5.019   9.935   5.740 -0.0035 -0.1330  0.6723
  961MOL0     H29700   5.059   9.950   5.913  3.2450  1.5781  0.0825
  961MOL0     H29701   5.219  10.051   5.761  3.1597  0.8746  3.5067
  961MOL0     H29702   5.291   9.928   5.875  4.4453  0.9572 -1.7807
  961MOL0     H29703   5.327   9.772   5.707  0.6546 -0.1629  0.2657
  961MOL0     H29704   5.230   9.862   5.585  0.8310 -1.9367  0.9284
  961MOL0     H29705   5.458  10.002   5.726  1.8985  0.8094 -1.3308
  961MOL0     H29706   5.370  10.043   5.581  4.2926  1.8912 -2.1031
  961MOL0     H29707   5.467   9.809   5.494  0.8709 -0.9808  0.7193
  961MOL0     H29708   5.590   9.831   5.625 -0.6715 -1.0622  0.9603
  961MOL0     H29709   5.520  10.051   5.424  0.2821 -0.3255 -0.9480
  961MOL0     H29710   5.642  10.051   5.545 -0.2925  0.6015 -0.5915
  961MOL0     H29711   5.624   9.856   5.299  1.3147  0.5458 -1.1521
  961MOL0     H29712   5.757   9.855   5.420  2.3448 -0.9607 -3.0338
  961MOL0     H29713   5.709  10.057   5.200  0.1192  1.1082  0.1377
  961MOL0     H29714   5.783  10.114   5.352  0.9268 -0.3810  0.6482
  961MOL0     H29715   5.019   9.513   5.893  1.0299  1.4306 -1.7398
  961MOL0     H29716   4.806   9.410   5.974  1.1402 -1.2260 -0.9828
  961MOL0     H29717   4.354   9.498   5.827  1.1192  1.3534  2.0330
  961MOL0     H29718   4.116   9.443   5.783 -1.5495 -2.0752  0.4198
  961MOL0     H29719   2.821  10.193   6.211  0.4443 -1.3567 -0.9921
  961MOL0     H29720   2.584  10.243   6.159  0.9500 -0.2269 -0.0158
  961MOL0     H29721   2.254  10.328   6.334 -1.3916  1.7937  0.7834
  961MOL0     H29722   2.051  10.442   6.353  0.2803  0.2402  1.4085
  961MOL0     H29723   1.692  10.243   6.342  0.6906 -0.8260 -0.6603
  961MOL0     H29724   1.681  10.285   6.165 -1.3900 -0.5942 -0.2078
  961MOL0     H29725   1.571  10.498   6.241  0.5876 -1.0908 -1.0390
  961MOL0     H29726   1.609  10.457   6.409 -2.5905  0.9587 -0.9351
  961MOL0     H29727   1.453  10.240   6.329 -2.5824 -0.1815  0.3273
  961MOL0     H29728   1.420  10.342   6.190  0.7062  4.0610 -0.9420
  961MOL0     H29729   1.395  10.439   6.479  1.7982 -0.0383 -1.0891
  961MOL0     H29730   1.343  10.517   6.323  2.6605 -0.8967 -1.9394
  961MOL0     H29731   0.999  10.299   6.423  1.1026 -0.4902  1.8111
  961MOL0     H29732   1.862  10.165   6.097  1.7974 -1.1375 -1.8134
  961MOL0     H29733   1.924   9.997   6.018 -0.7278  2.8191  2.6835
  961MOL0     H29734   2.085  10.032   5.939 -0.0189 -0.5272 -1.1113
  961MOL0     H29735   2.075   9.922   6.086  0.0138 -0.3219 -0.7048
  962MOL0     O29736   1.447  10.561   5.984  0.2395  0.0397 -0.7309
  962MOL0     C29737   1.462  10.634   5.894  0.0726 -0.3992  0.8953
  962MOL0     O29738   1.574  10.641   5.813  0.0378 -0.2483 -0.2649
  962MOL0     C29739   1.680  10.550   5.829 -0.0370  0.1422 -0.2456
  962MOL0     C29740   1.802  10.595   5.883 -0.5269 -0.0234  0.2689
  962MOL0     C29741   1.903  10.496   5.889  0.6189 -0.8628 -0.4064
  962MOL0     C29742   1.884  10.365   5.866 -0.7796  0.2187  0.0210
  962MOL0     O29743   2.000  10.284   5.852 -0.2335  0.1643 -0.8018
  962MOL0     C29744   2.115  10.351   5.804  0.2821  0.2245  1.3024
  962MOL0     C29745   2.216  10.254   5.729 -0.2416 -0.7802 -0.1493
  962MOL0     C29746   2.359  10.261   5.785 -0.4458  0.2877  0.0066
  962MOL0     C29747   2.458  10.176   5.707  0.1496  0.4964 -0.6562
  962MOL0     C29748   2.593  10.186   5.780  0.0562 -0.0504 -0.7787
  962MOL0     C29749   2.704  10.130   5.698  0.2325 -1.0333  0.4581
  962MOL0     C29750   2.834  10.133   5.770  0.7189 -0.5660 -0.3463
  962MOL0     C29751   2.958  10.111   5.676  0.5908 -0.0450  0.1594
  962MOL0     N29752   3.079  10.127   5.756  0.2373 -0.2868 -0.0916
  962MOL0     C29753   3.125  10.255   5.758  0.4164  0.2608 -0.8313
  962MOL0     C29754   3.262  10.246   5.768  0.2022  0.2186 -0.5220
  962MOL0     C29755   3.353  10.369   5.782 -0.9237  1.1882 -0.5454
  962MOL0     C29756   3.499  10.339   5.844  0.3089  0.4029 -0.7796
  962MOL0     C29757   3.564  10.477   5.837  0.6223  0.5635  0.4577
  962MOL0     C29758   3.712  10.485   5.888  0.7353  0.0386  0.7133
  962MOL0     O29759   3.763  10.614   5.864 -0.7882 -0.2876 -0.0452
  962MOL0     C29760   3.889  10.649   5.910  0.8053  0.3124 -0.3868
  962MOL0     C29761   3.977  10.558   5.973 -1.0552  0.3231 -0.1488
  962MOL0     C29762   4.104  10.594   6.001 -1.0579 -0.2729 -0.3778
  962MOL0     C29763   4.152  10.720   5.971  1.1968  0.4057 -0.9469
  962MOL0     C29764   4.289  10.758   6.005 -0.1407 -0.9350 -0.5196
  962MOL0     O29765   4.357  10.682   6.084  0.0548 -0.4244 -0.2878
  962MOL0     C29766   4.491  10.709   6.098  0.0766  0.4296  0.0021
  962MOL0     C29767   4.581  10.667   5.997  0.7155  0.2003 -0.2004
  962MOL0     C29768   4.715  10.686   6.011 -0.2202  0.1773 -0.1940
  962MOL0     C29769   4.775  10.727   6.124 -0.1856  0.7258 -0.2334
  962MOL0     O29770   4.907  10.736   6.146 -0.3882 -0.0845  0.2203
  962MOL0     C29771   4.992  10.644   6.064 -0.6293 -0.2794  0.5496
  962MOL0     C29772   5.121  10.621   6.127  0.2612  0.0220  0.3495
  962MOL0     C29773   5.106  10.510   6.237  0.0860  0.0742 -0.1360
  962MOL0     C29774   5.231  10.471   6.313  0.9981  0.0923  1.4214
  962MOL0     C29775   5.204  10.450   6.459  0.1892  0.5185 -0.0172
  962MOL0     C29776   5.193  10.584   6.527 -0.7208 -0.7865 -0.8841
  962MOL0     C29777   5.327  10.669   6.537  0.2413 -0.8447 -0.3014
  962MOL0     C29778   5.281  10.818   6.563  0.4037 -0.4485 -0.1433
  962MOL0    Cl29779   5.435  10.912   6.552 -0.1637 -0.1765  0.2146
  962MOL0     C29780   4.681  10.769   6.232 -0.6695  0.6749  0.8554
  962MOL0     C29781   4.546  10.759   6.215 -0.0428  0.0902 -0.6316
  962MOL0     O29782   4.333  10.861   5.955  0.3962 -0.5382  0.1104
  962MOL0     C29783   4.056  10.810   5.922  0.0793 -0.1313  0.1407
  962MOL0     C29784   3.929  10.770   5.888 -0.5073  0.1880 -0.4059
  962MOL0     N29785   3.294  10.114   5.767 -0.8023  0.0285 -0.1288
  962MOL0     N29786   3.188  10.043   5.762  0.4722 -0.1898  0.0777
  962MOL0     C29787   1.758  10.316   5.826 -0.7212 -0.2562  0.3484
  962MOL0     C29788   1.661  10.412   5.800 -0.6504 -0.0061 -0.2896
  962MOL0     C29789   1.336  10.701   5.851  0.9790  0.0725  0.7230
  962MOL0     C29790   1.334  10.760   5.721  0.4365  0.3178  0.3128
  962MOL0     C29791   1.227  10.826   5.677  0.9891  1.1868  0.9915
  962MOL0     C29792   1.116  10.853   5.758 -0.1878  0.1447 -1.0564
  962MOL0     O29793   1.001  10.914   5.719  0.5067  0.7226 -0.1349
  962MOL0     C29794   1.030  11.026   5.636  0.3481 -0.5918  0.4412
  962MOL0     C29795   0.908  11.104   5.600  0.1445 -0.0791  0.1093
  962MOL0     C29796   0.817  11.125   5.721  0.5056  0.4232 -0.5080
  962MOL0     C29797   0.687  11.195   5.690 -0.0660  0.8178 -0.8640
  962MOL0     C29798   0.623  11.239   5.821 -0.7538 -0.0087  0.4743
  962MOL0     C29799   0.552  11.281   5.908 -0.5455 -0.0390 -0.0283
  962MOL0     C29800   1.129  10.806   5.887 -0.4319  0.1809  0.8960
  962MOL0     C29801   1.234  10.730   5.937 -0.6637 -0.9962 -0.1617
  962MOL0     C29802   1.231  10.715   6.088  0.7414 -0.6058 -0.0423
  962MOL0     H29803   1.811  10.702   5.893  0.6130  0.2984 -2.9128
  962MOL0     H29804   1.995  10.549   5.912  0.6740 -1.8429  1.8453
  962MOL0     H29805   2.080  10.420   5.726 -3.1958 -2.3074  0.3443
  962MOL0     H29806   2.166  10.406   5.882 -1.0682 -0.0302  2.4049
  962MOL0     H29807   2.209  10.286   5.625 -1.5571  0.5748  0.3172
  962MOL0     H29808   2.177  10.153   5.739 -2.6075  0.1671  0.8393
  962MOL0     H29809   2.363  10.240   5.892  0.7052  1.4791  0.2145
  962MOL0     H29810   2.395  10.362   5.766 -0.7839  0.1038 -1.8362
  962MOL0     H29811   2.429  10.071   5.721 -1.2757  1.2290  2.9998
  962MOL0     H29812   2.466  10.209   5.603  2.4265  1.2725 -0.3025
  962MOL0     H29813   2.620  10.289   5.804 -2.1110  0.3696  0.1033
  962MOL0     H29814   2.581  10.133   5.875 -2.5037  0.9015 -0.4752
  962MOL0     H29815   2.685  10.034   5.649  1.1992  0.5158 -3.3282
  962MOL0     H29816   2.717  10.207   5.621  0.4022 -0.1138  1.3812
  962MOL0     H29817   2.824  10.067   5.857 -0.5753  0.8458  0.6379
  962MOL0     H29818   2.845  10.234   5.811  0.1645 -0.9281  0.7419
  962MOL0     H29819   2.978  10.015   5.626  3.6382 -0.3745  1.8228
  962MOL0     H29820   2.957  10.178   5.589  1.4925  0.8962  0.8629
  962MOL0     H29821   3.064  10.343   5.743  2.9065  2.2437 -0.1144
  962MOL0     H29822   3.354  10.416   5.684 -2.7162  2.8982  0.1830
  962MOL0     H29823   3.312  10.442   5.853 -0.1087 -1.7322  3.3097
  962MOL0     H29824   3.492  10.296   5.945 -2.5005 -0.9742 -1.4710
  962MOL0     H29825   3.558  10.275   5.780 -1.4932  0.9777 -3.1475
  962MOL0     H29826   3.507  10.542   5.904 -3.6625 -2.1699 -0.1231
  962MOL0     H29827   3.557  10.513   5.734 -0.2725  0.1430  0.3647
  962MOL0     H29828   3.781  10.416   5.839 -0.2179 -0.6035  0.2415
  962MOL0     H29829   3.706  10.468   5.996 -2.1989 -0.6588  0.5307
  962MOL0     H29830   3.960  10.453   5.995  4.4653 -1.3557 -2.1982
  962MOL0     H29831   4.172  10.518   6.039 -1.5602 -2.6616 -3.7724
  962MOL0     H29832   4.533  10.632   5.907 -0.0510  0.0097  0.2695
  962MOL0     H29833   4.773  10.655   5.924 -3.1635 -1.3998 -1.7663
  962MOL0     H29834   4.949  10.548   6.036  3.1536 -1.7213 -0.9346
  962MOL0     H29835   5.007  10.703   5.973 -1.3609 -1.9253 -0.6996
  962MOL0     H29836   5.188  10.594   6.045  3.1013 -0.5486  2.6849
  962MOL0     H29837   5.160  10.715   6.165  0.3348 -0.4098  1.3764
  962MOL0     H29838   5.029  10.547   6.307 -1.8147 -0.2504 -1.9502
  962MOL0     H29839   5.066  10.420   6.191 -0.6927 -1.7423  3.6867
  962MOL0     H29840   5.307  10.548   6.299  0.1110  1.1238  2.1952
  962MOL0     H29841   5.259  10.372   6.275 -2.4111 -0.0354 -1.3116
  962MOL0     H29842   5.288  10.406   6.513 -0.4395 -1.3234 -0.4746
  962MOL0     H29843   5.115  10.392   6.487  0.5500  0.8471  2.0230
  962MOL0     H29844   5.114  10.640   6.476  0.3953  0.8300 -0.9344
  962MOL0     H29845   5.163  10.554   6.628  0.3881 -3.2940 -1.2266
  962MOL0     H29846   5.398  10.658   6.454  0.1291 -0.1048 -0.5017
  962MOL0     H29847   5.382  10.625   6.621 -0.4771 -1.5861 -0.1978
  962MOL0     H29848   5.207  10.868   6.500  1.7851  0.3382 -1.2269
  962MOL0     H29849   5.242  10.820   6.665  4.9092 -3.8200  1.9887
  962MOL0     H29850   4.724  10.809   6.324  1.3402  0.7638 -0.0745
  962MOL0     H29851   4.487  10.801   6.297  2.5549 -1.3116  2.1774
  962MOL0     H29852   4.091  10.913   5.912 -0.6935 -0.0141 -1.8583
  962MOL0     H29853   3.872  10.852   5.846  0.7716  1.6549  0.5959
  962MOL0     H29854   1.741  10.215   5.789 -0.1029 -0.5468  0.8393
  962MOL0     H29855   1.559  10.386   5.772 -0.8391 -0.0159  0.3984
  962MOL0     H29856   1.411  10.751   5.646  1.5382  0.5156  1.3825
  962MOL0     H29857   1.249  10.854   5.575  2.6092 -1.8257  0.4096
  962MOL0     H29858   1.072  10.998   5.539 -1.2217 -0.4221 -0.3119
  962MOL0     H29859   1.097  11.093   5.692  2.5545 -4.7989  3.4098
  962MOL0     H29860   0.860  11.037   5.529  1.2129 -2.0880  1.1971
  962MOL0     H29861   0.939  11.199   5.555 -3.8382  1.5005  0.2604
  962MOL0     H29862   0.864  11.187   5.798 -0.4501  0.0746  0.3760
  962MOL0     H29863   0.789  11.034   5.774  0.7334  1.5752  1.6991
  962MOL0     H29864   0.700  11.276   5.618  0.4324 -1.7278 -3.8229
  962MOL0     H29865   0.618  11.127   5.639 -0.4203 -0.6945  1.4473
  962MOL0     H29866   0.485  11.320   5.982 -0.0820  1.2997 -0.2795
  962MOL0     H29867   1.049  10.839   5.952 -1.4019 -3.4717  1.8154
  962MOL0     H29868   1.270  10.619   6.122  3.0493 -0.7937 -2.8597
  962MOL0     H29869   1.291  10.793   6.135  0.0100  0.2846 -0.5503
  962MOL0     H29870   1.130  10.725   6.129 -0.3791  0.0055 -2.7393
  963MOL0     O29871   3.052   1.265  11.225 -0.0148  0.1286 -0.0248
  963MOL0     C29872   3.122   1.159  11.243  0.0648 -0.4716 -0.5100
  963MOL0     O29873   3.248   1.159  11.282 -0.2152 -0.0665 -0.0476
  963MOL0     C29874   3.320   1.272  11.298 -0.0508 -0.2167  0.1309
  963MOL0     C29875   3.437   1.289  11.216 -0.0512 -0.3556  0.8048
  963MOL0     C29876   3.526   1.393  11.240 -0.2996 -1.0792 -0.6015
  963MOL0     C29877   3.503   1.490  11.342  0.3379 -0.1564  1.0103
  963MOL0     O29878   3.588   1.594  11.369  0.3915  0.1549  0.0553
  963MOL0     C29879   3.523   1.723  11.353 -0.0198  0.3597 -0.5044
  963MOL0     C29880   3.620   1.837  11.342 -0.4596 -0.9122 -0.1266
  963MOL0     C29881   3.760   1.815  11.270 -0.2122  1.0763  0.6386
  963MOL0     C29882   3.836   1.950  11.262 -0.1242  0.3711  0.3111
  963MOL0     C29883   3.895   1.967  11.121  0.1412 -0.0267 -0.6645
  963MOL0     C29884   4.018   2.058  11.119  0.6557 -0.1346 -0.0115
  963MOL0     C29885   4.057   2.089  10.970  0.7619 -0.2045  0.5812
  963MOL0     C29886   4.113   2.223  10.941 -0.0807 -0.9630 -0.0468
  963MOL0     N29887   4.217   2.258  11.045  0.0863 -1.1741  0.8000
  963MOL0     C29888   4.348   2.221  11.062 -0.2750  0.1383  0.2800
  963MOL0     C29889   4.383   2.249  11.191  0.8675 -0.8207 -0.2286
  963MOL0     C29890   4.523   2.248  11.244 -0.0929  0.7583 -0.0433
  963MOL0     C29891   4.606   2.373  11.209  0.2350  0.1278 -0.2250
  963MOL0     C29892   4.653   2.452  11.334 -0.3261  0.2088  0.4431
  963MOL0     C29893   4.759   2.370  11.413 -0.6251  0.3299  0.8721
  963MOL0     O29894   4.880   2.365  11.334 -0.1341 -0.2830  0.2546
  963MOL0     C29895   4.999   2.313  11.385  0.0936  0.7614 -0.6283
  963MOL0     C29896   5.097   2.335  11.288  0.7005  0.4536 -0.2538
  963MOL0     C29897   5.231   2.325  11.321  0.7121  0.2869  1.1349
  963MOL0     C29898   5.266   2.269  11.450 -0.6203 -0.1804  0.6412
  963MOL0     C29899   5.409   2.235  11.476  0.2859 -0.4346  0.3366
  963MOL0     O29900   5.505   2.335  11.454  0.2401  0.4527  0.3255
  963MOL0     C29901   5.635   2.285  11.477  0.7915 -0.3679 -0.1297
  963MOL0     C29902   5.687   2.178  11.404 -1.2548 -0.8082  0.7278
  963MOL0     C29903   5.820   2.139  11.421  0.1946  0.3698  0.0319
  963MOL0     C29904   5.892   2.191  11.526 -0.0867 -1.0744 -0.2875
  963MOL0     O29905   6.025   2.158  11.566  0.1174 -0.2538  0.5679
  963MOL0     C29906   6.075   2.037  11.519  0.0825  0.3770  0.3317
  963MOL0     C29907   6.207   2.017  11.579 -0.4154 -1.1595  0.0868
  963MOL0     C29908   6.273   1.887  11.541 -0.4258 -0.6068  0.2707
  963MOL0     C29909   6.407   1.867  11.606 -0.5933  0.0720  0.6930
  963MOL0     C29910   6.403   1.853  11.754  1.0474  0.2389 -0.5921
  963MOL0     C29911   6.540   1.819  11.822  0.0074  0.8619 -0.0565
  963MOL0     C29912   6.581   1.672  11.798 -0.4289  0.4861 -0.3127
  963MOL0     C29913   6.717   1.664  11.871  0.6117  0.1848  0.2452
  963MOL0    Cl29914   6.782   1.495  11.853 -0.0389 -0.0632 -0.0821
  963MOL0     C29915   5.841   2.296  11.592  0.1824 -0.0220  0.2988
  963MOL0     C29916   5.712   2.352  11.572 -0.7290  0.2517 -0.5457
  963MOL0     O29917   5.433   2.131  11.532 -0.2510  0.3039  0.4882
  963MOL0     C29918   5.167   2.246  11.544 -0.3069 -0.6990 -0.2462
  963MOL0     C29919   5.032   2.278  11.522 -0.1740  0.5055 -0.0908
  963MOL0     N29920   4.267   2.285  11.265  0.0156  0.3895  1.7657
  963MOL0     N29921   4.172   2.301  11.168 -0.7125  0.6240  0.3137
  963MOL0     C29922   3.389   1.465  11.428 -0.3104  1.0439  0.2527
  963MOL0     C29923   3.295   1.359  11.408 -0.2266 -0.0201 -0.2388
  963MOL0     C29924   3.078   1.021  11.210  0.3510 -0.1051  0.6798
  963MOL0     C29925   3.156   0.913  11.244  0.4472  0.2637 -1.0535
  963MOL0     C29926   3.120   0.781  11.213 -0.7424  0.6196  0.3191
  963MOL0     C29927   3.004   0.759  11.139 -0.0640 -1.4905 -0.3021
  963MOL0     O29928   2.965   0.643  11.088 -0.4014 -0.0572 -0.2484
  963MOL0     C29929   3.046   0.534  11.118  0.2926 -0.1844  0.1632
  963MOL0     C29930   2.994   0.419  11.032  1.1282 -0.3398  0.2032
  963MOL0     C29931   3.096   0.313  11.025 -0.1935  0.1830 -0.1052
  963MOL0     C29932   3.048   0.199  10.943  0.4484  0.2459 -0.5401
  963MOL0     C29933   3.141   0.093  10.930  0.3586 -0.6152 -0.4470
  963MOL0     C29934   3.216  -0.004  10.922 -0.1553  0.3259  0.0926
  963MOL0     C29935   2.918   0.871  11.104  0.6454  0.6999 -0.4554
  963MOL0     C29936   2.956   0.988  11.139 -0.8483 -0.3788  0.3748
  963MOL0     C29937   2.868   1.098  11.085  0.3150 -0.0964  0.5184
  963MOL0     H29938   3.441   1.225  11.128  0.1539 -0.9917  1.2703
  963MOL0     H29939   3.618   1.406  11.185 -0.3070  0.5142 -0.2761
  963MOL0     H29940   3.455   1.732  11.267 -0.7704  2.4523  0.2504
  963MOL0     H29941   3.463   1.737  11.443  1.1960  0.6129  0.2829
  963MOL0     H29942   3.638   1.863  11.447 -1.2621  3.3033 -0.8660
  963MOL0     H29943   3.567   1.919  11.293 -1.6119 -1.3370  0.3736
  963MOL0     H29944   3.753   1.764  11.174 -3.8949 -0.1058  1.3858
  963MOL0     H29945   3.826   1.750  11.328  2.2433  2.4045 -0.5278
  963MOL0     H29946   3.773   2.037  11.284 -1.7541 -0.8179  0.4525
  963MOL0     H29947   3.917   1.936  11.333  2.4825  1.3723 -2.2470
  963MOL0     H29948   3.922   1.871  11.075 -0.5727 -0.1389 -0.8662
  963MOL0     H29949   3.809   2.008  11.067  0.3511 -0.2104 -1.1454
  963MOL0     H29950   3.989   2.153  11.165  4.6686  1.8853 -1.1562
  963MOL0     H29951   4.108   2.021  11.170  0.2707 -2.3581 -0.8428
  963MOL0     H29952   3.968   2.076  10.908  1.3950  2.0679 -0.9410
  963MOL0     H29953   4.133   2.017  10.936  0.7163  0.3747 -0.8542
  963MOL0     H29954   4.152   2.226  10.838  1.7897  0.4486  0.6466
  963MOL0     H29955   4.037   2.301  10.940 -0.1484 -1.0299 -0.2759
  963MOL0     H29956   4.415   2.180  10.987  0.6157 -1.1860  1.7558
  963MOL0     H29957   4.522   2.249  11.353  1.1634  0.0721 -0.0054
  963MOL0     H29958   4.573   2.155  11.215 -0.4513  0.5399  0.0322
  963MOL0     H29959   4.689   2.339  11.145 -0.9866  1.3561 -2.6183
  963MOL0     H29960   4.548   2.441  11.146 -1.1698  0.5490  1.4751
  963MOL0     H29961   4.573   2.479  11.404  0.5762  0.2482  1.4770
  963MOL0     H29962   4.701   2.542  11.297  0.0406 -0.6447 -1.2568
  963MOL0     H29963   4.727   2.267  11.428 -0.2903 -0.8265 -4.3600
  963MOL0     H29964   4.761   2.419  11.511 -1.1315 -1.3079  1.7296
  963MOL0     H29965   5.067   2.363  11.188 -2.0094  1.3990  0.7415
  963MOL0     H29966   5.296   2.343  11.236  0.0574  3.9368  1.2531
  963MOL0     H29967   5.636   2.104  11.343  3.4622 -4.0536  0.1566
  963MOL0     H29968   5.862   2.052  11.371 -1.1388  0.2355 -0.9121
  963MOL0     H29969   6.010   1.951  11.538  2.8098 -1.1601  3.6706
  963MOL0     H29970   6.102   2.042  11.413  0.6127 -0.2207  0.4322
  963MOL0     H29971   6.280   2.097  11.559  0.4032 -1.7700  0.5451
  963MOL0     H29972   6.191   2.017  11.688  0.0305 -0.3730  0.1632
  963MOL0     H29973   6.197   1.812  11.563 -0.2757 -1.3775 -1.6393
  963MOL0     H29974   6.276   1.892  11.432 -4.2299 -0.5449  0.0236
  963MOL0     H29975   6.473   1.950  11.579  0.7923 -0.5264  2.0872
  963MOL0     H29976   6.447   1.775  11.565  2.2345  1.0778  0.9686
  963MOL0     H29977   6.328   1.778  11.785  0.5636  1.6075  1.7919
  963MOL0     H29978   6.365   1.949  11.790 -3.2402 -0.9130 -1.4772
  963MOL0     H29979   6.618   1.884  11.783  1.0955  1.7045  3.2267
  963MOL0     H29980   6.548   1.827  11.931  1.6100 -0.7646 -0.0102
  963MOL0     H29981   6.607   1.644  11.695  1.9194 -4.0200  1.2380
  963MOL0     H29982   6.519   1.596  11.845  0.9608 -0.3088  0.2920
  963MOL0     H29983   6.781   1.739  11.823 -0.7679 -0.8630 -3.5538
  963MOL0     H29984   6.715   1.678  11.979 -2.6633  0.3491  0.2607
  963MOL0     H29985   5.910   2.345  11.659 -1.1472  1.3185  0.7476
  963MOL0     H29986   5.666   2.427  11.635 -1.0050 -1.2953  1.1763
  963MOL0     H29987   5.195   2.205  11.640  2.1586  0.3940 -0.4348
  963MOL0     H29988   4.954   2.263  11.596  1.3593  0.1694  1.5228
  963MOL0     H29989   3.368   1.538  11.507 -2.0832  0.6908  0.1337
  963MOL0     H29990   3.211   1.365  11.476  1.6893  2.1666  2.1744
  963MOL0     H29991   3.243   0.920  11.309  0.7862  0.4927 -1.5236
  963MOL0     H29992   3.183   0.706  11.260  1.2056  0.7310 -1.9106
  963MOL0     H29993   3.033   0.499  11.221  1.4328 -0.8186  0.1081
  963MOL0     H29994   3.151   0.562  11.103 -0.5827  3.2243 -0.4556
  963MOL0     H29995   2.960   0.449  10.933  0.0809  0.3065  0.7411
  963MOL0     H29996   2.901   0.392  11.083  0.5440  2.0921  0.5418
  963MOL0     H29997   3.111   0.273  11.126  0.9156  0.3318 -0.1931
  963MOL0     H29998   3.187   0.364  10.992 -0.4813  0.4409 -0.5033
  963MOL0     H29999   2.965   0.157  11.000  1.3669 -2.2954 -0.9549
  963MOL0     H30000   3.014   0.246  10.851 -0.8331 -0.7805 -0.6148
  963MOL0     H30001   3.281  -0.089  10.924 -1.6410 -0.9087 -0.9971
  963MOL0     H30002   2.834   0.864  11.036  0.8823  1.3321 -0.8265
  963MOL0     H30003   2.821   1.143  11.173 -0.0799 -2.1193  1.3875
  963MOL0     H30004   2.925   1.167  11.023  2.9030 -1.7779  0.8726
  963MOL0     H30005   2.791   1.059  11.018  2.0966  0.3749 -1.9627
  964MOL0     O30006   1.203   6.729  10.369 -0.3192 -0.0474 -0.2287
  964MOL0     C30007   1.324   6.700  10.352  1.3415 -0.2603 -0.4717
  964MOL0     O30008   1.379   6.692  10.232 -0.1411  0.0462  0.0668
  964MOL0     C30009   1.328   6.732  10.119  0.5971  1.0180  0.0751
  964MOL0     C30010   1.349   6.640  10.016 -0.7285 -0.4343  0.2386
  964MOL0     C30011   1.293   6.655   9.885  0.5017 -0.4354  0.3580
  964MOL0     C30012   1.215   6.772   9.865 -0.3939  0.5557  0.0679
  964MOL0     O30013   1.177   6.799   9.736  0.9451  0.5140 -0.5601
  964MOL0     C30014   1.042   6.835   9.720 -0.2113  0.0686 -0.5989
  964MOL0     C30015   1.005   6.837   9.570 -0.4718  0.3212 -0.5342
  964MOL0     C30016   0.970   6.696   9.518 -0.2579  0.7297  0.0044
  964MOL0     C30017   1.075   6.579   9.535 -0.1576 -0.0566  0.9436
  964MOL0     C30018   1.211   6.625   9.486 -0.1957  0.0674 -1.0704
  964MOL0     C30019   1.230   6.631   9.325  0.4751  0.4103 -0.5195
  964MOL0     C30020   1.370   6.611   9.281 -0.0117 -0.0301  0.2743
  964MOL0     C30021   1.388   6.585   9.137 -1.1814  1.0229 -0.8834
  964MOL0     N30022   1.532   6.557   9.105 -0.1469  0.1562 -0.0219
  964MOL0     C30023   1.613   6.650   9.050 -0.1631 -0.1036  0.3926
  964MOL0     C30024   1.726   6.592   9.024 -1.1566 -0.3116  0.4169
  964MOL0     C30025   1.858   6.670   8.984  0.7170 -0.0178  0.0545
  964MOL0     C30026   1.922   6.733   9.115  0.0183 -0.0135  0.1507
  964MOL0     C30027   2.040   6.837   9.093  0.6295  0.0513 -0.2536
  964MOL0     C30028   2.160   6.763   9.038 -0.1777  0.7684 -0.0051
  964MOL0     O30029   2.261   6.863   9.009 -0.4311 -0.0927 -0.1110
  964MOL0     C30030   2.369   6.825   8.932  0.2761  0.1405 -0.5682
  964MOL0     C30031   2.479   6.905   8.954  0.7223 -0.3038 -0.3973
  964MOL0     C30032   2.606   6.879   8.890 -0.4464  0.2275 -0.0940
  964MOL0     C30033   2.623   6.762   8.816  0.5702 -0.0935 -0.0914
  964MOL0     C30034   2.752   6.730   8.745 -0.5027 -0.1534  1.6294
  964MOL0     O30035   2.843   6.815   8.776 -0.3725  0.5452  0.4006
  964MOL0     C30036   2.975   6.779   8.751  1.2495 -0.5762  1.1907
  964MOL0     C30037   3.048   6.841   8.644 -0.3030  0.3065 -0.4522
  964MOL0     C30038   3.190   6.827   8.640  0.3366  0.7318  0.1729
  964MOL0     C30039   3.262   6.748   8.727 -0.0982 -0.0332 -0.0803
  964MOL0     O30040   3.399   6.734   8.715 -0.6321  1.3098 -0.2594
  964MOL0     C30041   3.435   6.594   8.708  0.3041 -0.0836 -0.0155
  964MOL0     C30042   3.582   6.600   8.658 -0.2070 -0.7672 -0.2586
  964MOL0     C30043   3.671   6.668   8.769 -0.5505 -0.3628  0.0238
  964MOL0     C30044   3.753   6.577   8.858  0.4524 -1.1374 -0.0863
  964MOL0     C30045   3.821   6.452   8.795  0.8390 -0.1657 -0.3566
  964MOL0     C30046   3.949   6.419   8.862 -0.6889  0.3353  0.4068
  964MOL0     C30047   3.934   6.407   9.014 -0.3751 -0.4335  1.3702
  964MOL0     C30048   4.068   6.384   9.086  0.2746 -0.2031 -0.4841
  964MOL0    Cl30049   4.157   6.221   9.042  0.4171  0.2635 -0.5011
  964MOL0     C30050   3.177   6.678   8.819  1.2454  0.7483 -0.8853
  964MOL0     C30051   3.042   6.688   8.826 -0.3293  0.5491  0.0414
  964MOL0     O30052   2.771   6.613   8.700  0.4891 -0.5264 -0.5303
  964MOL0     C30053   2.509   6.681   8.795  0.0797 -0.2275  1.0862
  964MOL0     C30054   2.387   6.709   8.846  1.4111  0.1601 -1.0983
  964MOL0     N30055   1.721   6.458   9.059 -0.3088  0.0954 -0.2517
  964MOL0     N30056   1.604   6.440   9.109 -0.4533 -0.5169  0.0055
  964MOL0     C30057   1.196   6.862   9.958  0.7536  0.3583  0.0026
  964MOL0     C30058   1.251   6.843  10.088 -0.5719 -0.2356  0.2500
  964MOL0     C30059   1.405   6.661  10.467  0.2244 -0.2392  0.2794
  964MOL0     C30060   1.538   6.625  10.440 -0.4096  0.0842 -0.2635
  964MOL0     C30061   1.617   6.572  10.542  0.5011 -0.3361 -0.7009
  964MOL0     C30062   1.563   6.554  10.671 -0.1369 -0.2267  0.1652
  964MOL0     O30063   1.651   6.510  10.772  0.7939 -0.5414 -0.6275
  964MOL0     C30064   1.623   6.542  10.912  0.0818 -0.5843 -0.2632
  964MOL0     C30065   1.748   6.502  10.999 -0.5977  0.3704  0.3428
  964MOL0     C30066   1.876   6.579  10.958 -0.9352 -0.2673 -0.1737
  964MOL0     C30067   1.990   6.521  11.039  1.3049  0.2425  0.1369
  964MOL0     C30068   2.118   6.585  11.007  0.5260  0.5615 -0.1741
  964MOL0     C30069   2.225   6.629  10.975  0.8501 -0.6857 -0.2308
  964MOL0     C30070   1.430   6.590  10.698 -0.1626 -0.4800 -0.0295
  964MOL0     C30071   1.352   6.637  10.598  0.1530 -0.2735  0.4582
  964MOL0     C30072   1.208   6.674  10.637 -0.0046 -0.1738 -0.5128
  964MOL0     H30073   1.406   6.550  10.040 -2.0266 -1.1355  0.7976
  964MOL0     H30074   1.303   6.582   9.806  2.8534 -2.5646  2.4474
  964MOL0     H30075   0.976   6.763   9.769 -1.4284  1.1164 -0.6798
  964MOL0     H30076   1.024   6.936   9.756 -2.8570 -0.8721  0.9632
  964MOL0     H30077   1.086   6.885   9.515 -0.4312 -0.1081 -0.8526
  964MOL0     H30078   0.916   6.901   9.562 -1.7805 -0.8747  2.6882
  964MOL0     H30079   0.959   6.704   9.410 -2.0932  1.7274  0.2287
  964MOL0     H30080   0.879   6.659   9.566 -1.1407 -0.2776 -2.3131
  964MOL0     H30081   1.092   6.546   9.637  4.9214 -1.2560 -0.0323
  964MOL0     H30082   1.042   6.490   9.480 -2.0691  0.0916  1.7599
  964MOL0     H30083   1.233   6.725   9.524  1.5212 -0.1003 -1.5361
  964MOL0     H30084   1.282   6.553   9.528 -0.6200 -0.2313 -0.8557
  964MOL0     H30085   1.184   6.544   9.278  1.8566 -0.7184  0.1189
  964MOL0     H30086   1.177   6.722   9.295 -4.0888 -1.2477  1.5366
  964MOL0     H30087   1.410   6.527   9.338  0.5337  0.0870  0.0680
  964MOL0     H30088   1.422   6.697   9.323 -4.0245  2.2057  1.2399
  964MOL0     H30089   1.338   6.491   9.111  1.1850 -0.8051  0.7605
  964MOL0     H30090   1.351   6.665   9.072 -1.9572  0.9078 -0.5872
  964MOL0     H30091   1.587   6.755   9.043 -1.4084 -0.3731  0.6454
  964MOL0     H30092   1.926   6.606   8.927  2.3157  1.1075  0.6231
  964MOL0     H30093   1.838   6.748   8.910 -1.5774  0.5490  1.1721
  964MOL0     H30094   1.847   6.786   9.175  0.0486  2.3038 -1.6779
  964MOL0     H30095   1.958   6.648   9.173  1.2103 -0.1834 -0.8126
  964MOL0     H30096   2.061   6.880   9.192  0.0395 -0.9184  0.3132
  964MOL0     H30097   2.003   6.913   9.024  0.0168 -0.4950 -0.5349
  964MOL0     H30098   2.138   6.715   8.943 -0.0836 -1.6434  1.1250
  964MOL0     H30099   2.195   6.687   9.108  1.1825  2.7741  1.6343
  964MOL0     H30100   2.475   6.999   9.009 -1.6097 -1.1655  1.0372
  964MOL0     H30101   2.684   6.953   8.901  0.4967 -0.4295 -1.8855
  964MOL0     H30102   2.998   6.911   8.578 -1.2695  0.2487  0.2009
  964MOL0     H30103   3.235   6.886   8.561  2.3959  0.9422  1.4046
  964MOL0     H30104   3.429   6.541   8.804  1.9396 -2.2649 -1.0330
  964MOL0     H30105   3.370   6.552   8.631 -0.8606  2.0295 -0.2685
  964MOL0     H30106   3.611   6.498   8.631 -0.1177 -0.0794 -3.0928
  964MOL0     H30107   3.596   6.650   8.561  1.4635  0.6886  0.6731
  964MOL0     H30108   3.748   6.734   8.729 -0.2696  0.2668  1.5196
  964MOL0     H30109   3.611   6.741   8.823 -0.5858  2.1816 -3.1880
  964MOL0     H30110   3.690   6.555   8.945 -0.1008 -4.3730 -1.1490
  964MOL0     H30111   3.840   6.636   8.886 -0.1531  1.1981 -2.6694
  964MOL0     H30112   3.835   6.452   8.687 -1.0284 -1.5307 -0.6402
  964MOL0     H30113   3.753   6.367   8.805  1.3157 -0.4624  0.4977
  964MOL0     H30114   4.002   6.331   8.826  1.0200 -0.2371  3.8698
  964MOL0     H30115   4.009   6.510   8.849 -1.7052  0.9299 -0.2229
  964MOL0     H30116   3.852   6.339   9.041 -1.6896  0.0323 -1.1564
  964MOL0     H30117   3.908   6.505   9.056 -1.3065 -1.1748  2.6028
  964MOL0     H30118   4.132   6.470   9.062  0.0459  0.4997  1.2484
  964MOL0     H30119   4.054   6.395   9.194 -1.0751  1.3836 -0.7766
  964MOL0     H30120   3.212   6.612   8.899 -0.0257  0.1071 -0.8386
  964MOL0     H30121   2.991   6.644   8.911 -0.1703 -1.0686 -0.6494
  964MOL0     H30122   2.520   6.599   8.725  3.2733 -0.0541  1.2448
  964MOL0     H30123   2.309   6.635   8.833  2.7193 -0.9217 -3.4805
  964MOL0     H30124   1.140   6.950   9.928  1.1827  0.3245 -0.9321
  964MOL0     H30125   1.241   6.924  10.159  2.6836  0.0336  0.5205
  964MOL0     H30126   1.595   6.638  10.348 -0.4535  0.9540 -0.1727
  964MOL0     H30127   1.721   6.543  10.529  0.1394 -2.1227  0.0745
  964MOL0     H30128   1.532   6.496  10.952 -1.4442  1.3587 -1.3521
  964MOL0     H30129   1.607   6.650  10.912  1.4542 -0.3664 -0.5220
  964MOL0     H30130   1.764   6.394  10.999 -1.6206  0.2112  0.6903
  964MOL0     H30131   1.735   6.533  11.103  3.3679 -1.8870  1.7362
  964MOL0     H30132   1.858   6.684  10.982  0.7252 -0.4233  2.0277
  964MOL0     H30133   1.901   6.571  10.851 -0.2185 -1.3072  0.0620
  964MOL0     H30134   1.972   6.522  11.147  0.2106 -0.7686 -0.0120
  964MOL0     H30135   1.987   6.414  11.016 -0.7700  0.4526 -0.8328
  964MOL0     H30136   2.314   6.676  10.938  0.2769 -0.4476 -1.3556
  964MOL0     H30137   1.388   6.569  10.796  0.1236  0.2278  0.2494
  964MOL0     H30138   1.204   6.783  10.626 -0.6844  0.0754  1.7293
  964MOL0     H30139   1.135   6.629  10.569  0.3344  0.7861 -1.5399
  964MOL0     H30140   1.182   6.645  10.739 -1.6473 -2.8578 -1.5788
  965MOL0     O30141   3.754   2.293   2.976 -0.2813  0.3560  0.3129
  965MOL0     C30142   3.708   2.400   2.989  0.2543  0.0471 -0.0962
  965MOL0     O30143   3.766   2.504   3.045 -0.6328  0.5026 -0.3624
  965MOL0     C30144   3.889   2.485   3.107  0.3579 -0.3507  0.6409
  965MOL0     C30145   3.997   2.421   3.044  1.0574  0.0935 -0.4444
  965MOL0     C30146   4.118   2.403   3.101 -0.5021 -0.5237  0.3605
  965MOL0     C30147   4.144   2.455   3.227  0.4269  0.4015 -0.3512
  965MOL0     O30148   4.258   2.439   3.299  0.3124  0.1329  0.0716
  965MOL0     C30149   4.382   2.429   3.232  1.0466  0.1360  0.9664
  965MOL0     C30150   4.475   2.411   3.349 -0.4284  0.0500  0.1970
  965MOL0     C30151   4.629   2.400   3.310 -0.2409  0.3402  0.4119
  965MOL0     C30152   4.674   2.492   3.200  0.1003 -0.8638 -0.5738
  965MOL0     C30153   4.831   2.478   3.184  0.0012  0.3879  0.9051
  965MOL0     C30154   4.874   2.330   3.174  0.3109 -0.3631 -0.2653
  965MOL0     C30155   5.016   2.320   3.109  0.0765  0.1799  0.7935
  965MOL0     C30156   5.138   2.345   3.201  0.5797 -0.1788 -0.1618
  965MOL0     N30157   5.270   2.338   3.135 -0.0880  0.7629 -0.1389
  965MOL0     C30158   5.383   2.388   3.194  0.8116 -0.1343 -0.5306
  965MOL0     C30159   5.490   2.360   3.115 -0.0187 -1.0018 -0.4304
  965MOL0     C30160   5.628   2.399   3.131  0.2429 -0.6829 -0.3528
  965MOL0     C30161   5.708   2.281   3.197 -0.1931 -0.0550  0.2411
  965MOL0     C30162   5.693   2.271   3.343  0.1187 -0.2934  0.0301
  965MOL0     C30163   5.810   2.222   3.419  0.3367 -0.0303 -0.3910
  965MOL0     O30164   5.913   2.324   3.426  0.2159 -0.4716  0.1332
  965MOL0     C30165   6.014   2.298   3.515  0.5042 -0.0894 -1.2714
  965MOL0     C30166   6.098   2.400   3.544  0.3156 -0.1438 -0.0663
  965MOL0     C30167   6.203   2.384   3.636 -1.0697  0.7016  0.3648
  965MOL0     C30168   6.225   2.257   3.698 -0.3497 -0.1926 -0.1230
  965MOL0     C30169   6.335   2.229   3.787 -0.4120  0.0723 -0.1973
  965MOL0     O30170   6.444   2.309   3.779 -0.1210  0.4745  0.1587
  965MOL0     C30171   6.550   2.277   3.861 -0.1738 -0.3150 -0.5531
  965MOL0     C30172   6.640   2.173   3.833 -0.0137  0.0945 -0.2076
  965MOL0     C30173   6.765   2.153   3.900  1.0884 -0.6907 -0.2312
  965MOL0     C30174   6.795   2.246   4.001 -0.2522 -0.2851 -0.5634
  965MOL0     O30175   6.915   2.245   4.081 -0.4848 -0.2635  0.5290
  965MOL0     C30176   7.009   2.146   4.052  0.5158  0.1128 -0.4384
  965MOL0     C30177   6.984   2.012   4.130 -0.2151 -0.1805 -0.4200
  965MOL0     C30178   6.968   2.018   4.283  0.0765  0.2977 -0.3985
  965MOL0     C30179   6.956   1.871   4.340 -0.0387 -0.1632  0.3275
  965MOL0     C30180   6.940   1.881   4.492  0.1061 -0.2266 -0.4266
  965MOL0     C30181   6.901   1.743   4.547  0.8637  0.4724 -0.5564
  965MOL0     C30182   7.011   1.635   4.528  0.2703  0.1421 -0.7002
  965MOL0     C30183   6.986   1.513   4.623 -0.6816 -0.3227 -0.4322
  965MOL0    Cl30184   6.823   1.443   4.577 -0.0791  0.0625  0.6463
  965MOL0     C30185   6.707   2.353   4.021  1.1492 -0.1638  0.0706
  965MOL0     C30186   6.581   2.370   3.958  0.6045 -0.2136  0.2846
  965MOL0     O30187   6.339   2.125   3.862  0.1071 -0.9555 -0.0114
  965MOL0     C30188   6.134   2.155   3.675  0.1235 -0.0981 -0.5960
  965MOL0     C30189   6.029   2.180   3.593 -0.0512  0.2943 -0.6017
  965MOL0     N30190   5.441   2.278   3.009  0.5652 -0.0563  0.1791
  965MOL0     N30191   5.313   2.271   3.022 -0.0957  0.0663 -0.0720
  965MOL0     C30192   4.042   2.521   3.289 -0.0738  0.4810 -0.7695
  965MOL0     C30193   3.913   2.545   3.231 -0.1640  0.8168  0.3135
  965MOL0     C30194   3.566   2.411   2.923  0.1464 -0.0593 -0.1689
  965MOL0     C30195   3.478   2.294   2.911 -0.3956 -0.5362 -1.0690
  965MOL0     C30196   3.353   2.298   2.858  0.3664  0.4624  0.3559
  965MOL0     C30197   3.311   2.414   2.796  0.6542  0.1315 -0.6595
  965MOL0     O30198   3.192   2.406   2.731 -0.0320  0.1965  0.1639
  965MOL0     C30199   3.126   2.511   2.654 -0.2465 -0.9002  0.6006
  965MOL0     C30200   3.185   2.541   2.510  0.1626  0.2706 -0.2859
  965MOL0     C30201   3.183   2.404   2.432  0.1855  0.8450  0.6854
  965MOL0     C30202   3.224   2.412   2.288 -0.6445  0.3647  0.3418
  965MOL0     C30203   3.102   2.443   2.205  0.6717  0.0200  0.1528
  965MOL0     C30204   3.007   2.441   2.125 -0.1192 -0.2207 -0.6533
  965MOL0     C30205   3.399   2.525   2.788  0.0797 -0.0675  0.1047
  965MOL0     C30206   3.518   2.528   2.859  0.4709  0.0303  0.1655
  965MOL0     C30207   3.593   2.649   2.853  0.3372  0.3369  0.2220
  965MOL0     H30208   3.991   2.389   2.940  1.7646 -0.0125 -0.4586
  965MOL0     H30209   4.205   2.371   3.044  0.8920  1.3430  1.3527
  965MOL0     H30210   4.380   2.343   3.164  1.5785 -1.2029  2.5755
  965MOL0     H30211   4.408   2.520   3.177  0.6805 -1.0336 -1.2692
  965MOL0     H30212   4.445   2.316   3.393 -0.0266 -1.6006 -2.8291
  965MOL0     H30213   4.449   2.494   3.415  1.9805  1.3161 -0.3204
  965MOL0     H30214   4.650   2.294   3.289  2.3912  0.1692  3.2228
  965MOL0     H30215   4.680   2.422   3.404 -2.2012 -0.3367  1.6943
  965MOL0     H30216   4.625   2.462   3.107 -0.9575 -3.2321  0.6707
  965MOL0     H30217   4.661   2.597   3.228  2.8924 -1.1361  2.2017
  965MOL0     H30218   4.861   2.525   3.090 -2.2474  1.2842  0.5906
  965MOL0     H30219   4.890   2.538   3.255  3.0721 -0.8160 -0.4618
  965MOL0     H30220   4.877   2.292   3.276 -1.8124 -3.3509 -1.1762
  965MOL0     H30221   4.795   2.277   3.120 -2.6898  1.9491  1.4961
  965MOL0     H30222   5.036   2.378   3.018 -2.1317 -0.3921 -0.1305
  965MOL0     H30223   5.027   2.220   3.067  2.1064  0.7216 -0.0731
  965MOL0     H30224   5.117   2.446   3.238 -2.2496 -0.5681 -0.4268
  965MOL0     H30225   5.115   2.275   3.282 -3.0831  0.4464 -0.4844
  965MOL0     H30226   5.398   2.444   3.285  0.3943 -3.2523  1.6313
  965MOL0     H30227   5.671   2.408   3.031 -0.9800 -0.7005 -0.8847
  965MOL0     H30228   5.649   2.492   3.184  4.2361  0.2140 -3.0625
  965MOL0     H30229   5.670   2.191   3.147 -1.2314  1.1046 -1.1655
  965MOL0     H30230   5.814   2.294   3.176  0.1246  0.7643  2.1889
  965MOL0     H30231   5.612   2.202   3.367  0.6317 -1.8047 -2.2367
  965MOL0     H30232   5.663   2.371   3.376 -0.0676  2.0743 -6.0355
  965MOL0     H30233   5.856   2.140   3.363 -2.0257 -1.1626 -0.7838
  965MOL0     H30234   5.769   2.192   3.516 -0.1263  2.7087  0.3468
  965MOL0     H30235   6.091   2.497   3.495 -0.9169 -1.0375 -1.7740
  965MOL0     H30236   6.266   2.472   3.651  0.5345 -0.1042 -1.2378
  965MOL0     H30237   6.608   2.107   3.752 -1.6258 -1.2949  1.4824
  965MOL0     H30238   6.831   2.069   3.881  1.1243 -1.9100  4.2708
  965MOL0     H30239   7.029   2.140   3.945  1.9064 -2.8247 -0.1115
  965MOL0     H30240   7.096   2.183   4.107  0.1921  0.6426 -0.2762
  965MOL0     H30241   6.895   1.977   4.077 -1.6917  0.8930  1.2013
  965MOL0     H30242   7.061   1.940   4.100  0.3847 -0.1976  1.0418
  965MOL0     H30243   7.054   2.070   4.327 -0.0922  1.8777 -1.8494
  965MOL0     H30244   6.882   2.081   4.308 -1.0515 -0.8992 -1.1387
  965MOL0     H30245   7.040   1.809   4.308 -0.3563  1.2763 -3.9595
  965MOL0     H30246   6.873   1.815   4.296  0.4688 -1.7285  1.2484
  965MOL0     H30247   6.866   1.958   4.514  0.2261  0.7266 -3.0211
  965MOL0     H30248   7.035   1.915   4.533 -0.5456 -1.2598  2.0939
  965MOL0     H30249   6.883   1.756   4.654 -2.8594  2.0437 -1.2198
  965MOL0     H30250   6.812   1.704   4.498  1.0975 -2.7319  1.2832
  965MOL0     H30251   7.107   1.678   4.556 -1.2776  1.7843  2.6028
  965MOL0     H30252   7.007   1.586   4.430  3.7077 -2.9645  0.4717
  965MOL0     H30253   7.060   1.435   4.601  0.2347  0.8135 -1.5078
  965MOL0     H30254   6.995   1.548   4.726  2.9838  2.7529 -1.6042
  965MOL0     H30255   6.740   2.426   4.094  1.2067  0.9271 -0.9963
  965MOL0     H30256   6.512   2.452   3.975 -0.8980 -1.3593 -0.0852
  965MOL0     H30257   6.148   2.061   3.727  0.9112  1.3017  1.8828
  965MOL0     H30258   5.968   2.095   3.567  1.9504 -0.6500 -2.5931
  965MOL0     H30259   4.070   2.568   3.383  0.1866 -1.6433  0.2846
  965MOL0     H30260   3.833   2.601   3.279 -0.0669 -1.6231  3.6311
  965MOL0     H30261   3.493   2.204   2.969  1.0397  1.6766  2.3310
  965MOL0     H30262   3.277   2.221   2.869 -0.5322  1.4352  1.0789
  965MOL0     H30263   3.137   2.602   2.714  2.7627 -2.3349  2.4639
  965MOL0     H30264   3.021   2.484   2.641  0.1537 -2.1348 -0.2641
  965MOL0     H30265   3.284   2.585   2.521  1.4186 -2.0042 -1.7204
  965MOL0     H30266   3.125   2.607   2.448  1.4217 -0.3505 -2.2336
  965MOL0     H30267   3.080   2.370   2.437  0.2925  0.4156  0.1184
  965MOL0     H30268   3.255   2.342   2.487  1.3014  1.8788  0.4344
  965MOL0     H30269   3.296   2.493   2.274  0.0468 -0.2386  0.3296
  965MOL0     H30270   3.271   2.319   2.252 -0.6484  0.2257  0.6917
  965MOL0     H30271   2.928   2.445   2.053 -0.9897  1.3819  0.3370
  965MOL0     H30272   3.362   2.608   2.728 -1.4267 -2.2712 -2.2487
  965MOL0     H30273   3.539   2.724   2.794 -0.8240 -0.9182 -0.3665
  965MOL0     H30274   3.597   2.691   2.954  1.3491 -0.8813  0.7075
  965MOL0     H30275   3.695   2.638   2.818  0.3044  1.1262 -0.1468
  966MOL0     O30276   1.778   7.121   8.898 -0.2372 -0.5083  0.0168
  966MOL0     C30277   1.730   7.030   8.840 -0.9269 -0.2386 -0.4727
  966MOL0     O30278   1.778   6.976   8.720  0.3927  0.0629  0.3182
  966MOL0     C30279   1.909   6.954   8.681 -0.5668  0.2458  0.2546
  966MOL0     C30280   1.926   6.849   8.580 -0.2059 -0.0625  0.5255
  966MOL0     C30281   2.049   6.828   8.524  0.3901 -1.3351  0.7403
  966MOL0     C30282   2.162   6.893   8.567 -0.2603  0.6360 -0.1684
  966MOL0     O30283   2.277   6.872   8.494  0.5353 -0.1193  0.1722
  966MOL0     C30284   2.399   6.934   8.536  0.4749  0.3366 -0.3426
  966MOL0     C30285   2.418   7.072   8.466 -0.6350 -0.4282 -0.0890
  966MOL0     C30286   2.505   7.184   8.532 -0.2525 -0.0286  0.3023
  966MOL0     C30287   2.642   7.138   8.599  0.2257  0.7730  0.0683
  966MOL0     C30288   2.752   7.136   8.491  0.7317 -0.0502 -0.5389
  966MOL0     C30289   2.884   7.179   8.537  0.5775 -0.3830  0.0740
  966MOL0     C30290   2.982   7.182   8.413  0.2228  0.0667  0.0043
  966MOL0     C30291   3.113   7.256   8.453 -0.3441 -0.2507 -0.7477
  966MOL0     N30292   3.199   7.319   8.353  0.4295  0.0207  0.5585
  966MOL0     C30293   3.208   7.449   8.309 -0.2622  0.8856 -0.1160
  966MOL0     C30294   3.291   7.445   8.205 -0.6791 -0.0210 -0.1769
  966MOL0     C30295   3.336   7.553   8.108  0.0559 -0.5248  0.6961
  966MOL0     C30296   3.485   7.579   8.082  0.4653  1.1016  0.3679
  966MOL0     C30297   3.508   7.714   8.015 -0.0710  0.4775 -0.0617
  966MOL0     C30298   3.651   7.755   7.990 -0.7381 -0.3962 -0.1250
  966MOL0     O30299   3.713   7.653   7.919  0.1810 -0.0953  0.0596
  966MOL0     C30300   3.801   7.692   7.832 -1.0707 -0.2532  0.1821
  966MOL0     C30301   3.934   7.676   7.883 -0.0862 -0.5861  0.2831
  966MOL0     C30302   4.046   7.702   7.798  0.4993 -0.8621  0.5339
  966MOL0     C30303   4.019   7.735   7.661 -0.3452  0.2849 -0.2096
  966MOL0     C30304   4.138   7.771   7.571 -0.3817  0.2295 -0.4046
  966MOL0     O30305   4.262   7.781   7.623  0.2072 -0.6772 -0.5715
  966MOL0     C30306   4.354   7.830   7.538 -0.1005 -0.7111 -0.2750
  966MOL0     C30307   4.401   7.747   7.449 -1.3015 -0.4940  0.9569
  966MOL0     C30308   4.503   7.787   7.347 -0.2121 -0.9097 -0.4544
  966MOL0     C30309   4.530   7.930   7.341 -0.4723  1.1234  0.2791
  966MOL0     O30310   4.616   7.964   7.242  0.6849  0.3538  0.4700
  966MOL0     C30311   4.593   8.089   7.167  0.1933 -1.1552 -0.4572
  966MOL0     C30312   4.588   8.072   7.014  1.4885 -0.4541 -0.9586
  966MOL0     C30313   4.695   7.986   6.960 -0.5131 -0.8829  0.6704
  966MOL0     C30314   4.830   8.063   6.990 -0.1949 -0.7676 -0.1100
  966MOL0     C30315   4.955   7.985   6.941  0.7815 -0.2575 -0.1086
  966MOL0     C30316   5.070   8.076   6.959  0.2113  0.2396  0.3849
  966MOL0     C30317   5.172   8.018   6.873 -0.6482 -0.0025  0.6139
  966MOL0     C30318   5.290   8.104   6.913  0.4717  0.9994 -0.2307
  966MOL0    Cl30319   5.417   8.058   6.794 -0.0772 -0.1032  0.3478
  966MOL0     C30320   4.481   8.010   7.437 -1.0691  0.2599  0.6598
  966MOL0     C30321   4.401   7.962   7.546 -0.5137 -1.1308 -0.6827
  966MOL0     O30322   4.114   7.790   7.458  0.3176 -0.2458  0.4142
  966MOL0     C30323   3.886   7.759   7.618 -0.3328 -0.7146 -0.7392
  966MOL0     C30324   3.777   7.734   7.703  0.7748 -0.0750 -0.4795
  966MOL0     N30325   3.331   7.320   8.181 -0.2674 -0.4400  0.8222
  966MOL0     N30326   3.272   7.236   8.269  0.1166 -1.0659  0.6577
  966MOL0     C30327   2.154   6.992   8.669  0.2062  0.2746 -0.2778
  966MOL0     C30328   2.028   7.017   8.726  0.5501 -0.4131 -0.6232
  966MOL0     C30329   1.602   6.990   8.891  1.2284 -0.7623 -0.6239
  966MOL0     C30330   1.510   6.919   8.806 -0.5131  0.2721 -0.7115
  966MOL0     C30331   1.376   6.900   8.831 -0.5950  0.6840 -0.2778
  966MOL0     C30332   1.319   6.934   8.945  0.2240  0.0538  0.1269
  966MOL0     O30333   1.184   6.910   8.955 -0.3488  0.6487  0.2404
  966MOL0     C30334   1.122   6.976   9.061 -0.6371  0.1141  0.4452
  966MOL0     C30335   0.975   6.987   9.011  0.1800  0.1759  0.0986
  966MOL0     C30336   0.888   7.053   9.114  0.3886 -0.1176 -0.1379
  966MOL0     C30337   0.851   6.964   9.234  0.1377  0.2356 -0.0799
  966MOL0     C30338   0.735   7.026   9.304 -0.2634  0.1434  0.4452
  966MOL0     C30339   0.637   7.091   9.347  0.1283  1.0044  0.0749
  966MOL0     C30340   1.401   6.997   9.042  0.1915  0.3963  0.3695
  966MOL0     C30341   1.538   7.026   9.016  0.8755  0.3143 -0.6740
  966MOL0     C30342   1.603   7.113   9.113 -0.3991  0.2250  0.0724
  966MOL0     H30343   1.844   6.793   8.535  1.2145 -3.7059  2.0670
  966MOL0     H30344   2.056   6.754   8.445  2.5662  0.0692 -0.5058
  966MOL0     H30345   2.411   6.934   8.645  0.4709  0.3509 -0.3420
  966MOL0     H30346   2.484   6.875   8.501 -0.4837  0.2048 -2.6012
  966MOL0     H30347   2.322   7.111   8.430 -0.3054 -0.3970 -0.9709
  966MOL0     H30348   2.463   7.049   8.369 -0.1252 -0.5160  0.1669
  966MOL0     H30349   2.441   7.228   8.610 -0.1358  0.4705  0.1236
  966MOL0     H30350   2.509   7.268   8.462 -1.0746  0.1826  0.4927
  966MOL0     H30351   2.668   7.212   8.675 -0.8170  1.0734  0.1381
  966MOL0     H30352   2.636   7.041   8.650  2.5254  0.8265  0.5673
  966MOL0     H30353   2.766   7.038   8.445  0.7178  0.5700 -1.9136
  966MOL0     H30354   2.713   7.189   8.404  2.3723 -0.8373 -1.7999
  966MOL0     H30355   2.888   7.283   8.570  3.4495 -0.7168  1.1131
  966MOL0     H30356   2.920   7.124   8.625 -0.2108 -0.5975  0.2650
  966MOL0     H30357   2.931   7.238   8.335 -4.8222 -1.9762  1.4664
  966MOL0     H30358   3.001   7.078   8.387 -0.3161  0.1830 -0.8927
  966MOL0     H30359   3.088   7.345   8.511  0.2212  0.2273 -1.2261
  966MOL0     H30360   3.178   7.190   8.512 -0.1036  2.1828  1.9193
  966MOL0     H30361   3.151   7.536   8.342  0.8395  1.7829 -0.5052
  966MOL0     H30362   3.287   7.531   8.013 -4.3065 -1.7816  2.9520
  966MOL0     H30363   3.302   7.646   8.156 -4.2376 -1.5162  0.0312
  966MOL0     H30364   3.541   7.568   8.175 -1.6084 -3.8155  1.3741
  966MOL0     H30365   3.511   7.505   8.007 -0.9617 -0.4668  1.3255
  966MOL0     H30366   3.467   7.795   8.077 -0.0563  2.3810 -2.3586
  966MOL0     H30367   3.451   7.723   7.922 -0.2185  0.8145  0.0578
  966MOL0     H30368   3.711   7.773   8.080  0.5923 -0.1086 -1.0481
  966MOL0     H30369   3.657   7.851   7.939  0.3397  0.0508  0.8041
  966MOL0     H30370   3.961   7.640   7.982 -1.0688 -1.5609  0.2168
  966MOL0     H30371   4.147   7.692   7.835  0.6655 -0.2406  0.2631
  966MOL0     H30372   4.367   7.644   7.452  1.6386 -1.7320 -1.8646
  966MOL0     H30373   4.548   7.721   7.273  3.2313 -0.9269  1.4565
  966MOL0     H30374   4.509   8.152   7.196  4.3561  3.7894  2.5601
  966MOL0     H30375   4.675   8.154   7.197 -0.9601  2.1131 -3.5846
  966MOL0     H30376   4.495   8.024   6.983 -0.0754  0.3213  2.1604
  966MOL0     H30377   4.590   8.172   6.969 -2.4336  0.9714  1.5549
  966MOL0     H30378   4.690   7.880   6.986 -1.4034 -0.6765  1.3997
  966MOL0     H30379   4.680   7.992   6.852  2.0601 -0.1781  0.2912
  966MOL0     H30380   4.839   8.095   7.095  1.0258 -0.0349 -0.4105
  966MOL0     H30381   4.829   8.159   6.938  2.2487 -1.4172 -1.5152
  966MOL0     H30382   4.940   7.947   6.840  2.5999 -1.4232 -0.0067
  966MOL0     H30383   4.968   7.900   7.009 -0.6222 -0.7236 -0.3881
  966MOL0     H30384   5.041   8.177   6.928  0.8767  0.1993 -0.3861
  966MOL0     H30385   5.100   8.069   7.064  0.4271 -1.1656  0.2528
  966MOL0     H30386   5.157   8.028   6.765  0.9859 -0.8710  0.2680
  966MOL0     H30387   5.200   7.914   6.895  5.7497  0.3838 -3.1606
  966MOL0     H30388   5.264   8.210   6.904 -2.2045  0.3984 -0.4875
  966MOL0     H30389   5.323   8.079   7.014  1.9693 -3.3011 -1.5453
  966MOL0     H30390   4.498   8.114   7.413  0.9427 -0.3802 -0.9818
  966MOL0     H30391   4.358   8.027   7.621  1.4588 -1.7510  1.0767
  966MOL0     H30392   3.873   7.787   7.514 -2.8998 -1.1464 -0.6196
  966MOL0     H30393   3.676   7.754   7.670  0.4199 -0.9558  0.0303
  966MOL0     H30394   2.235   7.064   8.680  1.8460 -1.0089 -2.9126
  966MOL0     H30395   2.008   7.094   8.800  1.0167  0.8812 -1.7862
  966MOL0     H30396   1.542   6.874   8.713  0.1649 -1.2438  0.2095
  966MOL0     H30397   1.314   6.850   8.757 -0.1037  2.0821 -1.6853
  966MOL0     H30398   1.144   7.082   9.073  0.0280  0.3363 -2.1482
  966MOL0     H30399   1.134   6.920   9.154 -2.8987  0.3442  0.9252
  966MOL0     H30400   0.924   6.893   8.990 -0.5914  0.5026  0.4530
  966MOL0     H30401   0.973   7.042   8.917 -1.4469  0.0160  0.0089
  966MOL0     H30402   0.804   7.092   9.057 -0.1379  1.2210  1.5077
  966MOL0     H30403   0.932   7.149   9.144 -0.4819 -0.1125  1.1762
  966MOL0     H30404   0.815   6.869   9.195  2.2986  0.3336 -2.5727
  966MOL0     H30405   0.937   6.957   9.301  0.6924  1.1628 -0.6790
  966MOL0     H30406   0.555   7.144   9.392 -1.1926 -1.0348  0.1938
  966MOL0     H30407   1.361   7.034   9.136 -0.0636  2.2347 -0.4207
  966MOL0     H30408   1.582   7.218   9.089 -0.4832  0.3068  0.5057
  966MOL0     H30409   1.571   7.088   9.214  0.5785 -1.7833 -0.0743
  966MOL0     H30410   1.711   7.095   9.116  0.0455  2.6860  1.1264
  967MOL0     O30411   3.316   7.781   2.001 -0.5406  1.0329 -0.5643
  967MOL0     C30412   3.223   7.818   2.072 -0.8973 -0.2544  0.5171
  967MOL0     O30413   3.090   7.770   2.073 -0.1621  0.9103 -0.3533
  967MOL0     C30414   3.052   7.671   1.994 -0.2306  0.0893 -0.6653
  967MOL0     C30415   3.092   7.665   1.856 -0.0584  0.0159  0.5455
  967MOL0     C30416   3.056   7.557   1.777  0.6238 -1.2372  0.2486
  967MOL0     C30417   2.975   7.462   1.837  0.4515 -0.6840  0.7086
  967MOL0     O30418   2.932   7.353   1.762 -0.5955  0.0778 -0.4966
  967MOL0     C30419   2.918   7.377   1.616 -0.0226 -0.2701 -0.3001
  967MOL0     C30420   2.827   7.274   1.564  0.1086  0.5384 -0.5871
  967MOL0     C30421   2.864   7.125   1.602 -0.3059  0.0708 -0.1282
  967MOL0     C30422   2.778   7.016   1.528 -0.3733 -0.3221  0.0572
  967MOL0     C30423   2.834   6.874   1.551 -0.3008  0.3244 -0.3707
  967MOL0     C30424   2.747   6.759   1.490 -0.1734  0.1753  0.4297
  967MOL0     C30425   2.602   6.739   1.543  0.5423 -0.1185 -0.0019
  967MOL0     C30426   2.580   6.691   1.688 -0.9836  0.6892 -0.0936
  967MOL0     N30427   2.622   6.795   1.776 -0.7807 -0.8474 -0.7862
  967MOL0     C30428   2.554   6.913   1.788 -0.5197  0.1259  0.8321
  967MOL0     C30429   2.601   6.967   1.896  0.5503 -0.2264 -0.2699
  967MOL0     C30430   2.548   7.083   1.966 -0.6617 -0.1506  0.6529
  967MOL0     C30431   2.627   7.201   1.929  0.0297 -0.4610 -0.4043
  967MOL0     C30432   2.570   7.330   1.996  0.0063  0.1824  1.2114
  967MOL0     C30433   2.520   7.311   2.144 -0.1794  0.6143  0.1100
  967MOL0     O30434   2.631   7.265   2.224  0.5540 -0.7309 -0.4682
  967MOL0     C30435   2.646   7.333   2.346 -0.8489 -0.2251  0.0782
  967MOL0     C30436   2.686   7.471   2.339  0.3488 -0.6734  0.2712
  967MOL0     C30437   2.731   7.537   2.455 -0.0346  0.3954 -0.9036
  967MOL0     C30438   2.727   7.479   2.581 -0.6770 -0.1701  0.6369
  967MOL0     C30439   2.772   7.559   2.708  0.6140 -0.3664  0.8463
  967MOL0     O30440   2.823   7.682   2.700 -0.4056  0.1458 -0.1557
  967MOL0     C30441   2.849   7.740   2.825 -0.2512  0.2048  0.4992
  967MOL0     C30442   2.989   7.756   2.853 -0.2119  0.3274 -0.2526
  967MOL0     C30443   3.027   7.826   2.973  0.7504  0.6393 -0.0964
  967MOL0     C30444   2.932   7.886   3.055  0.3215 -0.0590  0.4920
  967MOL0     O30445   2.985   7.948   3.162  0.6410 -0.1429  0.3195
  967MOL0     C30446   2.882   7.969   3.264  0.2779 -0.3389 -0.0731
  967MOL0     C30447   2.961   8.003   3.393  0.0695 -0.7381  0.1137
  967MOL0     C30448   2.970   7.887   3.491  0.0602 -0.1454  0.2089
  967MOL0     C30449   2.830   7.833   3.545  0.1031  0.1789 -0.0662
  967MOL0     C30450   2.830   7.721   3.658  0.2623 -0.8875  0.5389
  967MOL0     C30451   2.876   7.582   3.605  0.8976 -0.8351 -0.1173
  967MOL0     C30452   2.745   7.517   3.553  0.2830  0.1288  0.4781
  967MOL0     C30453   2.760   7.366   3.505  0.3608  0.4287 -0.1935
  967MOL0    Cl30454   2.608   7.291   3.567  0.1933  0.4197  0.2158
  967MOL0     C30455   2.795   7.874   3.016 -1.1315  0.4826 -1.0348
  967MOL0     C30456   2.753   7.795   2.906 -0.4996 -0.5449 -0.6892
  967MOL0     O30457   2.748   7.496   2.811 -0.6262 -0.1577  0.4159
  967MOL0     C30458   2.688   7.348   2.585 -0.5452  0.0225  0.2571
  967MOL0     C30459   2.645   7.280   2.475  0.6980  0.6176 -0.0665
  967MOL0     N30460   2.691   6.886   1.956 -0.0771 -0.2201 -0.1639
  967MOL0     N30461   2.709   6.779   1.878 -0.5600 -0.5988  0.6386
  967MOL0     C30462   2.928   7.470   1.961 -0.3922  1.0218  0.7691
  967MOL0     C30463   2.975   7.568   2.046 -0.3280  0.4000 -0.1211
  967MOL0     C30464   3.255   7.927   2.166 -1.0085 -0.5033 -0.4996
  967MOL0     C30465   3.169   7.953   2.272  0.2526 -0.5854 -0.1317
  967MOL0     C30466   3.178   8.061   2.363  0.1877  0.4059 -0.8491
  967MOL0     C30467   3.278   8.155   2.351 -0.6025  0.6462 -0.6604
  967MOL0     O30468   3.294   8.264   2.439 -0.4359  0.2801  0.4397
  967MOL0     C30469   3.209   8.280   2.546  0.5644  0.3986  0.3662
  967MOL0     C30470   3.244   8.398   2.636 -0.7602 -0.2758  0.2080
  967MOL0     C30471   3.351   8.360   2.740  0.2366  0.2574 -0.1685
  967MOL0     C30472   3.400   8.476   2.823 -0.0854 -0.3031 -0.3117
  967MOL0     C30473   3.500   8.553   2.748  0.1118  0.2878 -0.8328
  967MOL0     C30474   3.567   8.634   2.692  0.7272  0.3575 -0.1607
  967MOL0     C30475   3.373   8.128   2.256 -0.2147 -0.0892  0.2299
  967MOL0     C30476   3.364   8.023   2.158  0.7982  0.6544  0.0052
  967MOL0     C30477   3.475   8.006   2.064 -0.1421  1.1174 -0.0551
  967MOL0     H30478   3.140   7.756   1.821  1.0361 -1.4175 -1.9344
  967MOL0     H30479   3.086   7.558   1.673 -0.2852  2.4483 -0.1254
  967MOL0     H30480   2.876   7.475   1.595 -0.6144 -0.3030  0.6790
  967MOL0     H30481   3.017   7.369   1.570  0.7853  0.2881  1.2657
  967MOL0     H30482   2.831   7.281   1.455 -2.0538 -0.1301 -0.7541
  967MOL0     H30483   2.727   7.289   1.607  0.8029  0.2103  1.2231
  967MOL0     H30484   2.852   7.114   1.710 -1.3053 -0.7722 -0.3115
  967MOL0     H30485   2.972   7.108   1.598  0.3140  3.1143  0.8163
  967MOL0     H30486   2.679   7.019   1.575 -0.6434  2.3060 -0.4921
  967MOL0     H30487   2.767   7.044   1.422  0.3885  0.1120  0.0853
  967MOL0     H30488   2.933   6.871   1.503  0.2835  2.4547  0.5623
  967MOL0     H30489   2.845   6.855   1.659  1.6183  0.0751 -0.5707
  967MOL0     H30490   2.739   6.780   1.383 -0.9800  0.3824  0.5233
  967MOL0     H30491   2.807   6.668   1.498  3.3430  2.4545  3.8548
  967MOL0     H30492   2.559   6.659   1.482  1.5295 -1.0974  0.5567
  967MOL0     H30493   2.544   6.831   1.527  1.7334  0.8705  1.1484
  967MOL0     H30494   2.475   6.670   1.710 -0.6047  0.5868  1.7360
  967MOL0     H30495   2.642   6.602   1.702 -1.0273  0.8727  1.4428
  967MOL0     H30496   2.489   6.962   1.716  5.1032  3.6204 -2.6477
  967MOL0     H30497   2.444   7.115   1.955  0.1343  1.8313 -2.4204
  967MOL0     H30498   2.570   7.068   2.072  0.7183  1.1095  0.5656
  967MOL0     H30499   2.728   7.189   1.971 -0.8958 -2.2590  1.4397
  967MOL0     H30500   2.645   7.224   1.823  0.4955  1.2993  0.0068
  967MOL0     H30501   2.491   7.364   1.928  0.3031 -2.0479 -0.3690
  967MOL0     H30502   2.646   7.407   2.005  0.2086  0.0270  0.8685
  967MOL0     H30503   2.440   7.237   2.152  1.0159 -0.6423  1.1345
  967MOL0     H30504   2.480   7.404   2.185 -0.9035  0.4407 -0.1943
  967MOL0     H30505   2.693   7.521   2.243  1.8383 -1.3527  0.0073
  967MOL0     H30506   2.773   7.637   2.459 -2.4970  1.5341 -1.4919
  967MOL0     H30507   3.058   7.706   2.786 -0.6183 -0.4147 -0.1282
  967MOL0     H30508   3.132   7.839   2.997  0.9615  2.0685 -1.6158
  967MOL0     H30509   2.821   8.059   3.249 -0.6233 -0.7781  0.7996
  967MOL0     H30510   2.816   7.884   3.285 -2.6283  1.2794 -2.0324
  967MOL0     H30511   3.064   8.028   3.368  0.1190  0.1443  1.1288
  967MOL0     H30512   2.922   8.093   3.443  2.5602  0.4441  0.0611
  967MOL0     H30513   3.022   7.803   3.444  0.4155 -1.9025  3.4620
  967MOL0     H30514   3.034   7.913   3.576  1.5465 -2.7827  0.0206
  967MOL0     H30515   2.772   7.798   3.459  0.2259  0.1299 -0.1287
  967MOL0     H30516   2.776   7.920   3.583  0.2411 -0.6908  2.2505
  967MOL0     H30517   2.733   7.703   3.706 -2.2181  7.0568  0.0043
  967MOL0     H30518   2.899   7.761   3.733 -0.0391 -1.7437  1.3022
  967MOL0     H30519   2.948   7.595   3.524  0.6919  0.9851 -0.0332
  967MOL0     H30520   2.914   7.530   3.694 -0.6570 -0.5567  0.7457
  967MOL0     H30521   2.700   7.571   3.469 -1.2174 -1.7051  0.0588
  967MOL0     H30522   2.678   7.505   3.638  4.5809 -2.5863  3.8945
  967MOL0     H30523   2.782   7.360   3.399  0.7759  2.6728 -0.2941
  967MOL0     H30524   2.842   7.323   3.562  0.8429 -0.3091 -1.4223
  967MOL0     H30525   2.711   7.914   3.073 -1.3224 -0.0089 -0.9647
  967MOL0     H30526   2.647   7.783   2.885 -0.7276 -0.7097  0.4823
  967MOL0     H30527   2.690   7.288   2.676 -0.0943 -0.0277  0.2184
  967MOL0     H30528   2.624   7.174   2.488 -1.2722  0.7240 -1.8784
  967MOL0     H30529   2.861   7.393   1.999  0.9671 -0.5550  0.0660
  967MOL0     H30530   2.961   7.563   2.153 -3.2713  2.3371 -0.3087
  967MOL0     H30531   3.081   7.894   2.296 -0.3134  1.2482  2.8874
  967MOL0     H30532   3.112   8.066   2.449  2.0675 -1.4861  0.8213
  967MOL0     H30533   3.213   8.199   2.619 -0.4715 -1.2492 -1.3186
  967MOL0     H30534   3.103   8.274   2.521  0.3097 -1.3967  1.6661
  967MOL0     H30535   3.154   8.442   2.682  0.2813  2.8150 -0.5213
  967MOL0     H30536   3.277   8.487   2.581  0.1944 -0.5781  0.2832
  967MOL0     H30537   3.434   8.314   2.687  0.0715  0.5353 -0.6774
  967MOL0     H30538   3.306   8.289   2.810  1.6367 -2.4236 -1.8126
  967MOL0     H30539   3.316   8.539   2.854 -0.5093 -1.3829  0.7919
  967MOL0     H30540   3.441   8.439   2.917 -0.6624 -0.1889 -0.0087
  967MOL0     H30541   3.608   8.710   2.629 -2.4400  1.9452 -0.5302
  967MOL0     H30542   3.472   8.173   2.248  1.7506 -3.8465  1.1438
  967MOL0     H30543   3.526   7.909   2.060  2.0699  2.2412 -1.2634
  967MOL0     H30544   3.438   8.026   1.963  0.5361 -1.2180 -0.8359
  967MOL0     H30545   3.553   8.081   2.075 -1.0578  1.9282  1.1994
  968MOL0     O30546   7.816   5.252   7.872 -0.2792  0.0266  0.0656
  968MOL0     C30547   7.882   5.152   7.909  1.6162 -0.0465 -0.2380
  968MOL0     O30548   7.831   5.056   7.983 -1.0437  0.8202 -0.4515
  968MOL0     C30549   7.703   5.053   8.011  0.2608  0.2221  0.4310
  968MOL0     C30550   7.674   5.055   8.149  0.7153 -0.2532 -0.2325
  968MOL0     C30551   7.537   5.036   8.178 -0.0574 -0.2061 -0.6187
  968MOL0     C30552   7.433   5.019   8.087 -0.0179  0.4467  0.4062
  968MOL0     O30553   7.298   5.010   8.109 -0.1541  0.2039 -0.4291
  968MOL0     C30554   7.247   5.017   8.243 -0.4063 -0.1616 -0.2311
  968MOL0     C30555   7.095   5.054   8.240  0.1905 -1.0847 -0.2574
  968MOL0     C30556   7.082   5.199   8.194  0.8064  0.3356 -0.2165
  968MOL0     C30557   6.932   5.240   8.196 -0.1079 -0.6485 -0.1140
  968MOL0     C30558   6.909   5.383   8.147  0.0135  0.0663 -0.5439
  968MOL0     C30559   6.772   5.398   8.077  0.2422  0.2678 -0.7460
  968MOL0     C30560   6.760   5.541   8.016 -0.1353  0.1337 -0.3064
  968MOL0     C30561   6.635   5.566   7.932 -0.2461 -0.8389 -0.1096
  968MOL0     N30562   6.622   5.701   7.881  0.6172  0.3295  0.1803
  968MOL0     C30563   6.718   5.788   7.834  0.2889  0.4649  0.4058
  968MOL0     C30564   6.638   5.895   7.798 -0.0885  0.7629 -0.2334
  968MOL0     C30565   6.694   6.022   7.734  0.3094  0.2994  0.2823
  968MOL0     C30566   6.824   6.074   7.792 -0.0727 -0.5416 -0.9244
  968MOL0     C30567   6.820   6.182   7.899  0.3100 -0.1379 -0.2998
  968MOL0     C30568   6.803   6.323   7.836  0.4161  0.3882  0.0556
  968MOL0     O30569   6.807   6.420   7.945  0.0038  0.2796  0.2065
  968MOL0     C30570   6.924   6.456   8.009 -0.7698 -0.1432 -0.4132
  968MOL0     C30571   6.923   6.565   8.092 -0.1713 -0.7467 -0.5914
  968MOL0     C30572   7.035   6.604   8.162  1.5496  0.4004 -0.1309
  968MOL0     C30573   7.151   6.524   8.156 -0.5820  0.5480 -0.3613
  968MOL0     C30574   7.273   6.553   8.244 -0.4604  0.3239 -0.2388
  968MOL0     O30575   7.378   6.467   8.246  0.0926  0.4021  0.0489
  968MOL0     C30576   7.498   6.496   8.304 -1.2863 -0.1911  0.5185
  968MOL0     C30577   7.590   6.402   8.332 -0.2036 -0.4474 -0.0700
  968MOL0     C30578   7.711   6.415   8.406 -0.6722  0.0387 -0.0293
  968MOL0     C30579   7.751   6.549   8.438 -0.2449 -0.7296  0.1081
  968MOL0     O30580   7.866   6.561   8.516 -0.0613 -0.3120  0.9299
  968MOL0     C30581   7.948   6.670   8.490  0.6541 -0.8040  0.6756
  968MOL0     C30582   8.070   6.682   8.584 -0.4747  0.1300  0.0055
  968MOL0     C30583   8.035   6.735   8.719 -0.6213 -0.2020 -0.3211
  968MOL0     C30584   8.009   6.616   8.824  0.1252 -0.3886  0.4860
  968MOL0     C30585   7.999   6.654   8.967  0.0719 -0.7327 -0.4833
  968MOL0     C30586   7.914   6.553   9.046  0.2993  0.5338  0.5180
  968MOL0     C30587   7.918   6.580   9.195 -0.6362  0.6522 -0.0337
  968MOL0     C30588   7.866   6.449   9.261  0.2833 -0.6080 -0.4958
  968MOL0    Cl30589   7.865   6.491   9.432  0.5840 -0.1173  0.1535
  968MOL0     C30590   7.668   6.654   8.390 -0.9056 -0.4134  0.3741
  968MOL0     C30591   7.542   6.625   8.328 -0.2830 -0.2402 -0.0339
  968MOL0     O30592   7.271   6.658   8.305  0.0237 -0.0258  0.3481
  968MOL0     C30593   7.155   6.427   8.057 -0.2925  0.3377  0.9718
  968MOL0     C30594   7.042   6.400   7.984  0.0231 -0.5657 -0.4922
  968MOL0     N30595   6.507   5.870   7.837 -0.2973 -0.1837 -0.0687
  968MOL0     N30596   6.506   5.765   7.902  0.1615  0.9433  1.1881
  968MOL0     C30597   7.474   5.020   7.955 -0.3379 -0.0635  0.0720
  968MOL0     C30598   7.605   5.041   7.916  0.2700 -0.3202  0.1291
  968MOL0     C30599   8.029   5.148   7.894  0.3622  0.8993 -0.2138
  968MOL0     C30600   8.114   5.091   7.995 -0.6436 -0.4882  0.3617
  968MOL0     C30601   8.261   5.097   7.990  0.3512 -0.3163 -0.1072
  968MOL0     C30602   8.324   5.159   7.877 -0.4258 -0.6861  0.0663
  968MOL0     O30603   8.458   5.177   7.862  0.6819 -0.5016 -0.7731
  968MOL0     C30604   8.543   5.121   7.960  0.0077 -0.2224  0.8333
  968MOL0     C30605   8.688   5.148   7.930 -0.4582  0.1965  0.5111
  968MOL0     C30606   8.736   5.295   7.936  0.5662  0.9088  0.4524
  968MOL0     C30607   8.672   5.380   7.835  0.0973 -0.8266  0.4745
  968MOL0     C30608   8.559   5.477   7.888  0.6316 -0.4416 -0.2698
  968MOL0     C30609   8.485   5.546   7.950 -0.4954 -0.8591  0.3434
  968MOL0     C30610   8.235   5.197   7.773 -0.2218 -0.1647 -0.7087
  968MOL0     C30611   8.091   5.200   7.782 -0.6624 -0.9054 -0.1812
  968MOL0     C30612   8.013   5.239   7.655  0.0571 -0.5084  0.2200
  968MOL0     H30613   7.739   5.061   8.235  1.0751 -0.1720 -0.5066
  968MOL0     H30614   7.516   5.051   8.284  2.2063  2.5715 -0.4166
  968MOL0     H30615   7.276   4.935   8.311  1.0091  1.3054  1.0269
  968MOL0     H30616   7.294   5.099   8.297 -0.5267  1.3068 -2.2593
  968MOL0     H30617   7.050   5.056   8.340  0.1470 -1.6875 -0.2587
  968MOL0     H30618   7.035   4.988   8.177 -0.1323 -1.6246  0.5924
  968MOL0     H30619   7.132   5.201   8.097  0.5928 -0.5521 -0.3489
  968MOL0     H30620   7.140   5.273   8.250  1.6043 -1.3871  1.3619
  968MOL0     H30621   6.881   5.169   8.130  1.3864 -0.1349 -1.8839
  968MOL0     H30622   6.894   5.232   8.299 -0.3943  1.1675 -0.0427
  968MOL0     H30623   6.915   5.443   8.238 -2.5683  0.2465 -0.4170
  968MOL0     H30624   6.992   5.416   8.084  1.2989 -0.4264  0.8372
  968MOL0     H30625   6.768   5.330   7.992 -0.9895 -0.6894  0.0389
  968MOL0     H30626   6.686   5.384   8.143  0.6034 -0.3027 -0.3921
  968MOL0     H30627   6.851   5.552   7.957 -0.5671 -2.5139 -1.5795
  968MOL0     H30628   6.762   5.617   8.096 -0.3319  1.1608 -1.2496
  968MOL0     H30629   6.633   5.498   7.846  0.2214 -0.1657 -0.6594
  968MOL0     H30630   6.547   5.554   7.995  0.8052  1.2286  1.8927
  968MOL0     H30631   6.823   5.764   7.828  0.6571  1.7924  1.1898
  968MOL0     H30632   6.712   6.010   7.627 -3.1827 -0.8072 -0.3031
  968MOL0     H30633   6.614   6.096   7.742  0.9464  0.8430  1.9198
  968MOL0     H30634   6.884   5.987   7.821 -1.6918 -1.1654  0.7376
  968MOL0     H30635   6.873   6.119   7.705 -1.1799  0.2579 -1.1503
  968MOL0     H30636   6.904   6.174   7.969 -2.7072  0.9515  3.9103
  968MOL0     H30637   6.727   6.166   7.955 -0.6289  1.2357 -1.4013
  968MOL0     H30638   6.708   6.334   7.781 -0.1413  4.4817  1.4747
  968MOL0     H30639   6.887   6.330   7.766 -1.1711  1.5517 -1.8482
  968MOL0     H30640   6.830   6.620   8.089  1.6291  2.4930 -2.6605
  968MOL0     H30641   7.040   6.693   8.224  2.7077  1.8851 -2.2137
  968MOL0     H30642   7.582   6.308   8.280 -2.3058  0.3659 -1.3237
  968MOL0     H30643   7.771   6.333   8.443 -0.0042  1.1149  1.4027
  968MOL0     H30644   7.984   6.663   8.387 -1.8849  2.1503 -0.5829
  968MOL0     H30645   7.881   6.757   8.490 -0.3554 -1.5152 -1.5308
  968MOL0     H30646   8.126   6.589   8.576 -0.8841 -0.0286 -1.2194
  968MOL0     H30647   8.139   6.755   8.539 -1.1313  0.3344 -0.6989
  968MOL0     H30648   8.124   6.788   8.754  3.0763 -4.2980 -2.5308
  968MOL0     H30649   7.946   6.798   8.725 -2.3297 -2.5258  0.5495
  968MOL0     H30650   8.082   6.535   8.815  1.1728  0.6065 -0.3921
  968MOL0     H30651   7.914   6.577   8.786  0.7593 -1.9532  0.4177
  968MOL0     H30652   7.944   6.748   8.976  0.8915 -0.2637 -0.1954
  968MOL0     H30653   8.099   6.654   9.013 -0.1954  1.6791  0.2138
  968MOL0     H30654   7.810   6.568   9.016  0.2011  0.4322  0.8116
  968MOL0     H30655   7.945   6.450   9.027  3.6699  1.5503 -0.2279
  968MOL0     H30656   7.850   6.660   9.224  0.0804  1.6778 -1.0755
  968MOL0     H30657   8.019   6.592   9.235  0.0913 -0.8386 -1.3000
  968MOL0     H30658   7.763   6.431   9.227  1.0462 -1.9483 -2.2263
  968MOL0     H30659   7.931   6.369   9.225  0.7209 -0.4625 -0.0406
  968MOL0     H30660   7.704   6.755   8.409 -0.8078 -0.3643 -0.0616
  968MOL0     H30661   7.489   6.704   8.275 -2.9243 -3.8132 -3.2314
  968MOL0     H30662   7.249   6.376   8.040 -0.3142  0.4317  0.5558
  968MOL0     H30663   7.050   6.314   7.919 -0.5436 -0.0005 -1.3246
  968MOL0     H30664   7.405   5.007   7.872  2.4882  1.7924 -2.7694
  968MOL0     H30665   7.625   5.060   7.811  2.5708  3.6215  1.0793
  968MOL0     H30666   8.064   5.057   8.085  0.9141 -1.3274  0.9507
  968MOL0     H30667   8.308   5.065   8.083  0.2529 -1.1122 -0.3226
  968MOL0     H30668   8.527   5.013   7.972  1.4198 -0.8398 -1.9169
  968MOL0     H30669   8.519   5.159   8.059 -0.4029 -0.3975  0.8015
  968MOL0     H30670   8.715   5.093   7.840 -3.4102 -1.7409  0.6893
  968MOL0     H30671   8.728   5.097   8.018 -1.1597 -0.3999  0.4891
  968MOL0     H30672   8.845   5.298   7.932  0.8172 -0.9385  3.2205
  968MOL0     H30673   8.715   5.331   8.037  0.9918  1.6153  0.2931
  968MOL0     H30674   8.745   5.446   7.787  0.4208 -0.0194  2.0108
  968MOL0     H30675   8.633   5.317   7.755 -1.5948 -0.5560  1.0454
  968MOL0     H30676   8.417   5.605   8.007 -0.3372 -2.2383  2.0304
  968MOL0     H30677   8.291   5.237   7.689  1.8518  0.9789  1.1367
  968MOL0     H30678   8.081   5.247   7.570 -1.5378  1.4913 -0.9708
  968MOL0     H30679   7.928   5.172   7.641  3.0119 -4.0593 -2.6839
  968MOL0     H30680   7.984   5.341   7.682  0.6832 -0.7336  1.8383
  969MOL0     O30681   2.527   5.355   8.026 -0.4545  0.2029  0.2582
  969MOL0     C30682   2.479   5.265   7.965  0.8609  0.1851 -0.3933
  969MOL0     O30683   2.430   5.147   8.030 -0.2113  0.2563  1.0787
  969MOL0     C30684   2.413   5.158   8.164  0.7162 -0.7432 -0.1978
  969MOL0     C30685   2.283   5.148   8.215  0.0744 -0.4639 -0.0948
  969MOL0     C30686   2.252   5.157   8.352  0.1390  0.5090  0.1109
  969MOL0     C30687   2.357   5.172   8.441 -0.0724  0.7740  0.4987
  969MOL0     O30688   2.337   5.181   8.570  0.2247  0.8218  0.1560
  969MOL0     C30689   2.437   5.154   8.669  1.0224 -0.8198 -0.1075
  969MOL0     C30690   2.364   5.122   8.799  0.0597  0.1441  0.2676
  969MOL0     C30691   2.471   5.129   8.917 -0.2780 -0.0285  0.1283
  969MOL0     C30692   2.584   5.021   8.910 -0.3684 -0.5164 -0.0681
  969MOL0     C30693   2.627   4.974   9.049  0.3787  0.6892 -0.2938
  969MOL0     C30694   2.741   4.873   9.053 -0.0792 -0.1450  0.1303
  969MOL0     C30695   2.883   4.923   8.994  0.5070  1.2057  0.5961
  969MOL0     C30696   2.985   4.818   9.032  0.0455  1.0403 -0.9170
  969MOL0     N30697   2.977   4.702   8.949 -0.0453 -1.0262  0.6618
  969MOL0     C30698   3.065   4.597   8.955  0.4291 -0.3158  0.3275
  969MOL0     C30699   3.028   4.511   8.857 -0.4325  0.3315  0.2241
  969MOL0     C30700   3.093   4.381   8.837 -0.4851 -0.2741  0.2610
  969MOL0     C30701   3.070   4.285   8.959  0.5322 -0.3293  0.2213
  969MOL0     C30702   2.924   4.293   9.006 -0.2642 -0.3631  0.2709
  969MOL0     C30703   2.886   4.167   9.091 -0.0744 -0.7553 -0.0306
  969MOL0     O30704   2.760   4.182   9.154  0.1170 -0.9581 -0.3950
  969MOL0     C30705   2.689   4.070   9.177 -0.0399 -0.1035 -0.2512
  969MOL0     C30706   2.562   4.073   9.231  0.3471 -0.5429  0.1712
  969MOL0     C30707   2.482   3.957   9.264  1.8068 -0.8822 -0.0925
  969MOL0     C30708   2.542   3.833   9.254  0.6012 -0.8633  0.5127
  969MOL0     C30709   2.453   3.716   9.289 -0.8639 -0.0682  0.2773
  969MOL0     O30710   2.451   3.617   9.191 -0.0410  0.1963 -0.4599
  969MOL0     C30711   2.357   3.515   9.190  0.4843 -0.1700  0.0192
  969MOL0     C30712   2.244   3.501   9.274 -0.7208  0.3066 -0.2952
  969MOL0     C30713   2.152   3.396   9.268 -0.2567  0.7117  0.2565
  969MOL0     C30714   2.168   3.301   9.163 -0.1642 -0.4320  0.1599
  969MOL0     O30715   2.074   3.213   9.140 -0.5849 -0.1855 -0.1760
  969MOL0     C30716   1.983   3.257   9.042  1.0493  0.6929 -0.3315
  969MOL0     C30717   1.848   3.201   9.100 -0.0887 -0.0802  0.1540
  969MOL0     C30718   1.816   3.058   9.049  0.1368  0.5544  0.4842
  969MOL0     C30719   1.768   2.961   9.158  0.3159 -0.7572  0.6664
  969MOL0     C30720   1.752   2.819   9.102 -0.6615 -0.9292 -0.0499
  969MOL0     C30721   1.639   2.802   9.009  0.2653 -0.5353  0.0473
  969MOL0     C30722   1.599   2.653   8.993  0.4645 -0.4419 -0.5595
  969MOL0     C30723   1.501   2.617   8.878 -0.0970  0.1103  0.2416
  969MOL0    Cl30724   1.488   2.448   8.847  0.9375  0.0601 -0.2700
  969MOL0     C30725   2.271   3.319   9.069  0.6877 -0.1544  0.2107
  969MOL0     C30726   2.369   3.420   9.088  0.2244  0.0364 -0.0750
  969MOL0     O30727   2.397   3.720   9.401 -0.1961  0.6206  0.3637
  969MOL0     C30728   2.677   3.830   9.216  0.3564 -0.0912 -0.4607
  969MOL0     C30729   2.749   3.944   9.184 -0.4806  0.4567 -0.4916
  969MOL0     N30730   2.929   4.575   8.775 -0.3148  0.0159  0.6240
  969MOL0     N30731   2.909   4.689   8.835 -0.4264  0.2981 -0.1813
  969MOL0     C30732   2.492   5.174   8.394  0.3347 -1.3052 -0.3370
  969MOL0     C30733   2.518   5.168   8.255  0.2862 -0.1713 -0.5331
  969MOL0     C30734   2.458   5.258   7.812 -0.3420 -0.4689  0.1918
  969MOL0     C30735   2.461   5.133   7.752  0.3216  0.5712 -0.1907
  969MOL0     C30736   2.464   5.116   7.611  1.2115 -0.3580 -0.6645
  969MOL0     C30737   2.470   5.232   7.530  0.5025  0.1047 -0.9599
  969MOL0     O30738   2.470   5.198   7.397  0.0725 -0.1833  0.0209
  969MOL0     C30739   2.445   5.291   7.291  0.3325 -0.1833 -0.1128
  969MOL0     C30740   2.300   5.348   7.294 -0.3561  0.0596 -0.4410
  969MOL0     C30741   2.275   5.456   7.195  1.2699  0.9155  0.5587
  969MOL0     C30742   2.121   5.504   7.192 -0.6128  0.0722  0.3026
  969MOL0     C30743   2.077   5.595   7.301 -0.0459  0.1677 -0.2223
  969MOL0     C30744   2.039   5.684   7.370 -0.0920  0.6620 -0.2788
  969MOL0     C30745   2.473   5.359   7.595  1.6382  0.2781 -0.0879
  969MOL0     C30746   2.453   5.375   7.734 -0.2342 -0.1600 -0.8906
  969MOL0     C30747   2.445   5.519   7.785  0.5633 -0.6368 -0.3975
  969MOL0     H30748   2.198   5.134   8.149 -2.8036  0.3363  3.1545
  969MOL0     H30749   2.154   5.124   8.385  1.7611 -1.5643  3.3176
  969MOL0     H30750   2.503   5.071   8.642  1.7151  0.6232 -3.3407
  969MOL0     H30751   2.488   5.250   8.681 -0.9615  0.0076  2.4879
  969MOL0     H30752   2.312   5.026   8.789 -1.5333  0.6598  2.6725
  969MOL0     H30753   2.292   5.202   8.814  0.2131 -0.1902  3.5392
  969MOL0     H30754   2.417   5.116   9.011 -0.5172 -1.0473 -0.1396
  969MOL0     H30755   2.519   5.227   8.926  0.9333 -0.3033 -2.4740
  969MOL0     H30756   2.553   4.938   8.845  3.0031 -1.9462 -0.0566
  969MOL0     H30757   2.676   5.059   8.864  0.0152 -0.4784  0.7281
  969MOL0     H30758   2.665   5.060   9.106  1.2718 -0.2389  0.5585
  969MOL0     H30759   2.540   4.937   9.104  0.8018 -0.3563 -0.3080
  969MOL0     H30760   2.767   4.857   9.158  1.8817 -0.1949 -0.3261
  969MOL0     H30761   2.701   4.783   9.006  0.7137 -1.1496  1.3103
  969MOL0     H30762   2.912   5.017   9.042  2.1792  1.2077 -0.3378
  969MOL0     H30763   2.876   4.936   8.885  1.1002 -1.9526  0.0923
  969MOL0     H30764   3.086   4.854   9.013 -0.2488  0.7420 -3.4141
  969MOL0     H30765   2.980   4.795   9.139 -3.7478 -1.1707 -1.3841
  969MOL0     H30766   3.138   4.564   9.028  4.3278  0.8452 -2.7222
  969MOL0     H30767   3.033   4.333   8.759  2.4371  1.5848 -3.4766
  969MOL0     H30768   3.200   4.386   8.814 -0.2156 -0.6849  1.3302
  969MOL0     H30769   3.108   4.185   8.934  0.2886 -0.6981  1.2663
  969MOL0     H30770   3.138   4.324   9.035  0.5080  1.0271 -0.4336
  969MOL0     H30771   2.859   4.307   8.920  1.1703 -1.9489 -1.1364
  969MOL0     H30772   2.923   4.384   9.066  3.0030  0.4313 -0.7009
  969MOL0     H30773   2.961   4.147   9.169 -2.0790  3.7390  3.5447
  969MOL0     H30774   2.886   4.078   9.027  1.3998 -1.4825  0.9260
  969MOL0     H30775   2.517   4.171   9.245 -1.4233 -1.1404 -1.0745
  969MOL0     H30776   2.375   3.959   9.280  0.8589 -4.3735 -4.0514
  969MOL0     H30777   2.227   3.566   9.360  1.7762 -1.3356  1.5850
  969MOL0     H30778   2.076   3.386   9.345  1.2111 -2.0555  1.4972
  969MOL0     H30779   1.971   3.363   9.018  0.2181  0.8993  0.9029
  969MOL0     H30780   1.991   3.212   8.943  1.3324  0.3835 -0.1678
  969MOL0     H30781   1.844   3.193   9.209  0.2268 -2.8194  0.0385
  969MOL0     H30782   1.775   3.277   9.070 -1.3153 -0.4178  2.0542
  969MOL0     H30783   1.748   3.064   8.963  0.7263 -1.1727 -0.1431
  969MOL0     H30784   1.906   3.012   9.008 -1.1685 -1.7782  0.0706
  969MOL0     H30785   1.674   3.000   9.198 -0.1041 -1.2753  0.2033
  969MOL0     H30786   1.842   2.966   9.239  1.1468 -1.3728 -0.0323
  969MOL0     H30787   1.734   2.756   9.190 -0.1871 -3.1094 -1.4574
  969MOL0     H30788   1.845   2.788   9.054 -1.8976 -2.8738 -1.3136
  969MOL0     H30789   1.556   2.851   9.063  1.3883  0.9393  0.5105
  969MOL0     H30790   1.643   2.860   8.917 -0.8465  0.9032  0.8501
  969MOL0     H30791   1.548   2.632   9.088  3.2244  1.0189  1.4020
  969MOL0     H30792   1.686   2.588   8.982  1.2194  0.1381  1.4681
  969MOL0     H30793   1.403   2.655   8.907  0.0622  1.1935 -0.5852
  969MOL0     H30794   1.537   2.653   8.782  0.6748 -1.1640  0.0273
  969MOL0     H30795   2.274   3.252   8.983 -1.0197 -2.4120  1.7662
  969MOL0     H30796   2.452   3.430   9.019 -2.0427  2.9369 -2.6416
  969MOL0     H30797   2.713   3.728   9.216 -2.8216 -1.3059 -0.3540
  969MOL0     H30798   2.855   3.926   9.164 -0.6272 -2.9369  1.1594
  969MOL0     H30799   2.574   5.200   8.460 -0.6381 -3.7468  2.0090
  969MOL0     H30800   2.616   5.176   8.209  1.2048 -3.4554  0.5433
  969MOL0     H30801   2.474   5.041   7.808 -0.7296  0.4239 -0.1792
  969MOL0     H30802   2.465   5.014   7.574  1.6070 -0.0893 -1.4296
  969MOL0     H30803   2.474   5.245   7.197  2.7376 -2.6952  1.7193
  969MOL0     H30804   2.520   5.370   7.302  1.1358 -0.9170 -0.3003
  969MOL0     H30805   2.272   5.376   7.396 -3.5768 -4.8245  0.3451
  969MOL0     H30806   2.225   5.270   7.275 -4.2733  2.9918  1.4387
  969MOL0     H30807   2.287   5.416   7.093 -0.7232  1.9769 -0.1549
  969MOL0     H30808   2.342   5.538   7.220  2.8075 -0.6688  1.9677
  969MOL0     H30809   2.103   5.568   7.105  1.8943  1.2639  0.5596
  969MOL0     H30810   2.053   5.419   7.180 -2.7746  1.6547  0.7272
  969MOL0     H30811   2.008   5.763   7.435  0.6545  0.7495 -0.0231
  969MOL0     H30812   2.480   5.438   7.521 -0.4466 -1.7424 -2.6040
  969MOL0     H30813   2.544   5.555   7.812  0.3607 -1.1032  1.0775
  969MOL0     H30814   2.399   5.583   7.710 -1.1542  0.4328  1.4695
  969MOL0     H30815   2.385   5.529   7.876 -0.6699 -0.7285 -1.1755
  970MOL0     O30816   8.529   1.674   3.613 -0.2836 -1.0457  0.7597
  970MOL0     C30817   8.532   1.668   3.736  0.1621  0.5237 -0.4717
  970MOL0     O30818   8.474   1.761   3.818 -0.6720  0.0472 -0.7061
  970MOL0     C30819   8.406   1.856   3.747  0.4557  0.3922 -0.4707
  970MOL0     C30820   8.283   1.813   3.700 -0.1429  0.0112  0.0597
  970MOL0     C30821   8.201   1.902   3.633  0.1368  0.6443  0.1166
  970MOL0     C30822   8.233   2.033   3.619 -0.9048 -0.2908 -0.0218
  970MOL0     O30823   8.137   2.115   3.558 -0.8282 -0.0874 -0.5894
  970MOL0     C30824   8.092   2.221   3.643 -0.0532 -0.6838  0.1161
  970MOL0     C30825   7.976   2.297   3.575  0.7273 -1.0344  0.1931
  970MOL0     C30826   7.868   2.211   3.512 -0.1710  0.4940  0.3580
  970MOL0     C30827   7.805   2.113   3.622 -0.2733  0.9943 -0.4250
  970MOL0     C30828   7.661   2.061   3.580 -0.6845 -0.7428 -0.6179
  970MOL0     C30829   7.677   1.973   3.458  0.5212  0.1635  1.2186
  970MOL0     C30830   7.545   1.911   3.417  0.3326  0.0568  0.7323
  970MOL0     C30831   7.540   1.877   3.268 -0.1884  0.0251 -0.0715
  970MOL0     N30832   7.403   1.873   3.221  0.1585  0.4135 -1.2004
  970MOL0     C30833   7.359   1.898   3.097  0.3086 -0.3409  0.0639
  970MOL0     C30834   7.232   1.856   3.089 -0.6165 -1.1029  1.2241
  970MOL0     C30835   7.152   1.834   2.955  0.4801 -0.4930  0.0661
  970MOL0     C30836   7.020   1.913   2.963  0.3174 -0.2828  0.3149
  970MOL0     C30837   7.018   2.053   3.027 -0.1355  0.2272  0.0638
  970MOL0     C30838   6.902   2.133   2.974  0.4113  0.0612  0.2548
  970MOL0     O30839   6.858   2.201   3.089 -0.0814 -0.7446 -0.1636
  970MOL0     C30840   6.748   2.278   3.071  0.2571  0.2369 -0.4162
  970MOL0     C30841   6.692   2.345   3.189  0.0071  0.7807 -0.0293
  970MOL0     C30842   6.568   2.409   3.184 -0.1366 -0.5868 -0.6015
  970MOL0     C30843   6.492   2.423   3.066  0.6425 -0.9255 -0.1309
  970MOL0     C30844   6.358   2.502   3.074 -0.3312 -0.5854  0.0190
  970MOL0     O30845   6.319   2.540   3.197  0.7637  0.1366 -0.7661
  970MOL0     C30846   6.205   2.616   3.220  0.1291 -0.1984  0.9335
  970MOL0     C30847   6.077   2.578   3.177 -0.3683 -0.4547  0.9220
  970MOL0     C30848   5.969   2.657   3.191 -0.3666 -0.7746  0.4195
  970MOL0     C30849   5.983   2.773   3.265 -0.1134 -1.2056  0.0999
  970MOL0     O30850   5.884   2.846   3.301  0.7065  0.0657  0.3693
  970MOL0     C30851   5.769   2.772   3.360 -0.5315  0.3514 -0.6522
  970MOL0     C30852   5.629   2.785   3.292 -0.2403  0.0662  0.3463
  970MOL0     C30853   5.512   2.721   3.374  0.0635 -0.3278  0.3602
  970MOL0     C30854   5.383   2.779   3.323 -0.2200  0.0207  0.3982
  970MOL0     C30855   5.265   2.754   3.425  0.5203  0.4290  0.1403
  970MOL0     C30856   5.128   2.787   3.358  0.8720  0.2161  0.2171
  970MOL0     C30857   5.107   2.938   3.318 -0.9308  0.1497  0.3012
  970MOL0     C30858   4.982   2.966   3.233 -0.3934 -0.9831 -0.2580
  970MOL0    Cl30859   4.818   2.942   3.302  0.0142 -0.6026  0.2980
  970MOL0     C30860   6.107   2.808   3.322 -0.0449 -0.1608  0.8825
  970MOL0     C30861   6.222   2.741   3.287 -0.1819  0.7092 -0.5518
  970MOL0     O30862   6.292   2.518   2.971  0.1640 -0.0684 -0.3283
  970MOL0     C30863   6.535   2.346   2.953 -0.3002 -0.2533  0.4166
  970MOL0     C30864   6.661   2.284   2.954 -0.6243 -0.1101 -0.7716
  970MOL0     N30865   7.194   1.805   3.211  0.3487 -0.1225  0.3055
  970MOL0     N30866   7.297   1.813   3.288  1.6700  0.2569 -0.1919
  970MOL0     C30867   8.361   2.083   3.656 -0.3752  0.8961  0.1194
  970MOL0     C30868   8.449   1.992   3.726 -0.7019 -0.2603 -0.1449
  970MOL0     C30869   8.622   1.566   3.795 -0.2755  0.5022 -1.4047
  970MOL0     C30870   8.655   1.448   3.725 -0.4910 -0.0220 -0.4836
  970MOL0     C30871   8.744   1.358   3.772  0.7840 -0.4767 -0.1951
  970MOL0     C30872   8.776   1.353   3.904 -0.7450 -0.1924 -0.3573
  970MOL0     O30873   8.858   1.252   3.956 -0.5428  0.0905 -0.6716
  970MOL0     C30874   8.893   1.141   3.870  1.0742  0.2961  0.3067
  970MOL0     C30875   8.942   1.022   3.958  0.7185 -0.0545 -0.0095
  970MOL0     C30876   9.072   1.061   4.036 -0.3114  0.0009 -0.2007
  970MOL0     C30877   9.112   0.942   4.131  0.1554  0.8889 -0.1991
  970MOL0     C30878   9.203   0.992   4.241  0.2824 -0.3160  0.5667
  970MOL0     C30879   9.274   1.024   4.335 -0.1115  0.0173 -0.3306
  970MOL0     C30880   8.739   1.452   3.984  0.4298 -0.3589 -0.0275
  970MOL0     C30881   8.672   1.569   3.937  0.8492  0.1247 -0.1994
  970MOL0     C30882   8.659   1.674   4.039 -0.0049 -0.6937  0.5125
  970MOL0     H30883   8.246   1.712   3.708  0.2486 -0.0488  1.3135
  970MOL0     H30884   8.116   1.859   3.580  1.4863 -1.0847 -0.7220
  970MOL0     H30885   8.055   2.176   3.736 -0.7018 -0.1815  0.1058
  970MOL0     H30886   8.168   2.294   3.673 -0.4103 -0.7563  1.2437
  970MOL0     H30887   8.009   2.374   3.504 -1.8625 -1.8487 -2.0690
  970MOL0     H30888   7.932   2.357   3.655  0.1715  0.0748 -0.9021
  970MOL0     H30889   7.912   2.149   3.433  1.1060  0.1152  1.3324
  970MOL0     H30890   7.793   2.270   3.460  1.4883  2.5143  0.1370
  970MOL0     H30891   7.870   2.027   3.639  0.3905  1.3880 -0.9256
  970MOL0     H30892   7.795   2.168   3.716  3.8141 -1.1346  1.4977
  970MOL0     H30893   7.616   2.006   3.663  1.7901  1.3676  2.3247
  970MOL0     H30894   7.606   2.150   3.550  2.5166  1.0132 -1.7536
  970MOL0     H30895   7.704   2.047   3.382 -3.0378 -0.1681 -0.5674
  970MOL0     H30896   7.756   1.898   3.468 -0.8942 -1.3710  1.4279
  970MOL0     H30897   7.468   1.986   3.439  1.4884  1.6944 -0.5376
  970MOL0     H30898   7.526   1.830   3.488  2.2548 -0.0482  1.1918
  970MOL0     H30899   7.598   1.957   3.219 -1.8101  0.7668 -0.8616
  970MOL0     H30900   7.583   1.779   3.246 -1.8543 -0.7440 -0.0572
  970MOL0     H30901   7.418   1.939   3.016  3.2316 -1.5374  1.4485
  970MOL0     H30902   7.214   1.872   2.874 -1.3211 -1.3516 -1.8047
  970MOL0     H30903   7.148   1.725   2.942  0.6201 -0.6337  1.0563
  970MOL0     H30904   6.971   1.911   2.865 -2.7675 -2.5828  1.7440
  970MOL0     H30905   6.946   1.851   3.014 -1.7069  1.2341 -0.6153
  970MOL0     H30906   7.117   2.101   3.030  0.2672 -0.6263  2.3844
  970MOL0     H30907   7.000   2.036   3.133 -1.0202  1.1900  0.0860
  970MOL0     H30908   6.827   2.079   2.915  0.3154  2.4369 -1.9596
  970MOL0     H30909   6.949   2.199   2.901  0.4027  1.0109  1.0820
  970MOL0     H30910   6.744   2.338   3.284  0.1397 -0.4380 -0.1708
  970MOL0     H30911   6.531   2.462   3.271 -1.8103 -1.3924 -0.7786
  970MOL0     H30912   6.062   2.483   3.126  0.9685 -0.8383  1.1788
  970MOL0     H30913   5.879   2.616   3.147 -0.8067 -0.7596  1.2790
  970MOL0     H30914   5.789   2.665   3.372  1.6613  0.5536 -2.0253
  970MOL0     H30915   5.762   2.815   3.460 -0.9912 -1.9231  0.3692
  970MOL0     H30916   5.618   2.892   3.275 -0.8124 -0.2411 -1.5601
  970MOL0     H30917   5.630   2.731   3.196  0.3175  0.7595 -0.0428
  970MOL0     H30918   5.515   2.613   3.356 -0.3601 -0.4785  1.1376
  970MOL0     H30919   5.523   2.748   3.479  2.0866 -0.9252  0.3332
  970MOL0     H30920   5.351   2.721   3.236 -3.5236 -1.3472  2.3095
  970MOL0     H30921   5.396   2.887   3.306  1.6787  0.1261  2.1749
  970MOL0     H30922   5.292   2.801   3.520  1.7183 -0.5652  0.3270
  970MOL0     H30923   5.261   2.648   3.450 -1.2739  0.8009  1.6900
  970MOL0     H30924   5.126   2.735   3.261  1.2573 -2.0705  1.3671
  970MOL0     H30925   5.050   2.750   3.425  1.7736 -1.5477  0.3454
  970MOL0     H30926   5.194   2.978   3.265  0.1837 -0.3414  1.6821
  970MOL0     H30927   5.105   2.982   3.418 -2.6716 -1.2720  0.9414
  970MOL0     H30928   5.002   3.070   3.205  1.7504 -1.5673 -1.1844
  970MOL0     H30929   4.977   2.920   3.134 -2.5297  0.9782 -1.1398
  970MOL0     H30930   6.111   2.894   3.388 -3.0037 -1.4815  2.9969
  970MOL0     H30931   6.314   2.768   3.339 -1.3627  2.3304  0.8016
  970MOL0     H30932   6.475   2.341   2.862 -0.5876 -0.9394  0.6354
  970MOL0     H30933   6.678   2.229   2.862 -0.7569 -2.7792  0.6907
  970MOL0     H30934   8.395   2.182   3.625  2.8111 -0.8292 -2.5614
  970MOL0     H30935   8.551   2.027   3.743 -0.4140 -1.4407  0.6406
  970MOL0     H30936   8.616   1.439   3.625 -1.1285 -0.3621 -0.2092
  970MOL0     H30937   8.783   1.286   3.700  3.1992  1.6134 -1.1467
  970MOL0     H30938   8.973   1.165   3.801  1.6855  0.5360  1.0840
  970MOL0     H30939   8.803   1.114   3.813  0.1557  2.9102  0.3647
  970MOL0     H30940   8.963   0.942   3.886  3.4032 -1.7244  2.3963
  970MOL0     H30941   8.859   0.984   4.019  0.5680 -1.0840 -0.8332
  970MOL0     H30942   9.066   1.151   4.097 -0.6310  0.2134 -0.5380
  970MOL0     H30943   9.159   1.067   3.969 -0.2238  1.7948  0.0308
  970MOL0     H30944   9.025   0.908   4.187  1.3812 -1.8237  0.2151
  970MOL0     H30945   9.166   0.859   4.084 -1.7205 -0.0107 -0.8342
  970MOL0     H30946   9.345   1.044   4.413 -0.0000 -1.8204  0.0878
  970MOL0     H30947   8.766   1.430   4.087 -1.9423 -1.7558  0.3601
  970MOL0     H30948   8.653   1.767   3.982  0.6241 -0.7095  0.4188
  970MOL0     H30949   8.569   1.662   4.101 -0.5257 -3.5013 -0.6131
  970MOL0     H30950   8.752   1.688   4.095  0.5095  3.8918 -1.0667
  971MOL0     O30951  10.996   2.423   2.233  0.8884  0.3157  0.2683
  971MOL0     C30952  10.877   2.413   2.203  0.6382 -0.2426 -0.1557
  971MOL0     O30953  10.817   2.380   2.075 -0.3170 -0.0586  0.2307
  971MOL0     C30954  10.872   2.311   1.974  0.4001  0.0683  0.1029
  971MOL0     C30955  10.994   2.246   1.981  0.9403 -0.1678  0.2188
  971MOL0     C30956  11.023   2.164   1.867 -0.1427  0.4275 -0.2306
  971MOL0     C30957  10.940   2.144   1.755 -0.7081 -0.1410 -0.2039
  971MOL0     O30958  10.985   2.051   1.664  0.0778 -0.2835 -0.3941
  971MOL0     C30959  10.997   2.100   1.525 -0.0472  0.0138 -0.4520
  971MOL0     C30960  11.094   2.227   1.510  0.8589  0.7020  0.5839
  971MOL0     C30961  11.234   2.189   1.567 -0.2469  0.2301  0.7041
  971MOL0     C30962  11.319   2.119   1.468 -0.1346  0.9356  0.0861
  971MOL0     C30963  11.460   2.066   1.506  0.5580 -0.1365  0.3490
  971MOL0     C30964  11.530   2.170   1.591 -0.0619  0.3563 -0.0734
  971MOL0     C30965  11.677   2.140   1.597 -0.2982 -0.4870  0.6635
  971MOL0     C30966  11.750   2.164   1.464  0.3873 -0.2528 -0.2806
  971MOL0     N30967  11.893   2.133   1.479 -0.5459  0.7001 -0.7677
  971MOL0     C30968  11.938   2.008   1.513  0.0620  0.5957 -0.7163
  971MOL0     C30969  12.072   2.016   1.516  0.5016  0.2242 -0.0551
  971MOL0     C30970  12.158   1.898   1.525  0.1616 -0.8079  0.4831
  971MOL0     C30971  12.178   1.812   1.395  0.0920  0.5631  0.4233
  971MOL0     C30972  12.216   1.896   1.272 -0.4176 -0.0120 -0.4302
  971MOL0     C30973  12.370   1.916   1.277  0.2150  0.6410 -0.1981
  971MOL0     O30974  12.416   2.006   1.173  0.0440 -0.6518  0.2811
  971MOL0     C30975  12.538   2.071   1.178  1.3373  0.0482  0.3945
  971MOL0     C30976  12.636   2.039   1.277  0.2105  0.4439 -0.1122
  971MOL0     C30977  12.758   2.107   1.293 -0.2451 -0.0277  0.4319
  971MOL0     C30978  12.783   2.205   1.187 -0.0699  0.4501 -0.6130
  971MOL0     C30979  12.914   2.283   1.196 -0.1419 -0.0415  1.0184
  971MOL0     O30980  12.943   2.369   1.090 -0.3825 -0.8463  0.1449
  971MOL0     C30981  13.072   2.421   1.077  0.5415  0.5135 -0.3666
  971MOL0     C30982  13.116   2.459   0.946 -0.1157 -0.2749  0.2412
  971MOL0     C30983  13.239   2.518   0.921  0.4369 -0.1863  0.1258
  971MOL0     C30984  13.341   2.528   1.023  1.1845  0.8581  0.3000
  971MOL0     O30985  13.465   2.579   1.003 -0.1636  0.1849 -0.0197
  971MOL0     C30986  13.530   2.570   0.874 -0.0777 -1.3972 -0.5240
  971MOL0     C30987  13.681   2.551   0.903  0.9794  0.5954 -0.4580
  971MOL0     C30988  13.751   2.599   0.774  0.6358  1.0408 -0.4221
  971MOL0     C30989  13.892   2.534   0.774 -0.1104 -0.5560  0.1199
  971MOL0     C30990  13.997   2.624   0.699  0.3113  0.0508 -0.5397
  971MOL0     C30991  14.078   2.732   0.787  0.3099  0.6346 -1.0079
  971MOL0     C30992  14.179   2.799   0.697  0.0461 -0.1787 -0.3689
  971MOL0     C30993  14.321   2.788   0.748 -0.5730 -0.0383 -1.4338
  971MOL0    Cl30994  14.342   2.881   0.903 -0.1537 -0.4647 -0.1376
  971MOL0     C30995  13.296   2.500   1.151  0.1448 -0.3349 -0.6737
  971MOL0     C30996  13.169   2.445   1.185 -0.0958 -0.6853  0.4868
  971MOL0     O30997  12.985   2.261   1.291  0.2078 -0.0811  0.1992
  971MOL0     C30998  12.686   2.238   1.088  0.5301 -0.1421 -0.2659
  971MOL0     C30999  12.567   2.171   1.082  0.3569 -0.1249 -1.2670
  971MOL0     N31000  12.113   2.141   1.478  0.0707 -0.0038  0.4436
  971MOL0     N31001  12.008   2.208   1.450 -0.2544 -0.0728  0.1134
  971MOL0     C31002  10.811   2.202   1.761  0.0270 -0.2210 -0.8297
  971MOL0     C31003  10.780   2.288   1.869  0.2306 -0.1422  0.2079
  971MOL0     C31004  10.779   2.444   2.306  0.0899  0.5198 -0.1573
  971MOL0     C31005  10.780   2.369   2.422 -0.2337  0.9158 -0.6483
  971MOL0     C31006  10.693   2.404   2.531 -0.1299  0.5657  0.0244
  971MOL0     C31007  10.621   2.525   2.527  1.8018 -0.6233  0.6516
  971MOL0     O31008  10.529   2.563   2.623  0.0306 -0.2050 -0.4091
  971MOL0     C31009  10.574   2.554   2.755 -0.6797 -0.7590  0.0519
  971MOL0     C31010  10.495   2.649   2.845 -0.7333  0.1153  0.1999
  971MOL0     C31011  10.342   2.629   2.834  0.1479  0.4217 -0.6276
  971MOL0     C31012  10.261   2.699   2.941 -0.3510 -0.1387 -0.3190
  971MOL0     C31013  10.299   2.841   2.968 -0.0204 -1.0857 -0.0357
  971MOL0     C31014  10.314   2.954   3.010 -0.3065  0.6397  0.3376
  971MOL0     C31015  10.621   2.607   2.409  0.8231 -0.1396  0.6593
  971MOL0     C31016  10.705   2.569   2.300 -0.7934  0.8005  0.2755
  971MOL0     C31017  10.711   2.657   2.172  0.3991 -0.0418 -1.2839
  971MOL0     H31018  11.072   2.255   2.056  2.6344  0.9436 -1.5764
  971MOL0     H31019  11.118   2.113   1.856 -0.5144 -0.6431  1.2065
  971MOL0     H31020  11.045   2.021   1.465 -0.9803  1.6328 -3.5735
  971MOL0     H31021  10.903   2.115   1.472  1.0241 -2.5608 -3.4166
  971MOL0     H31022  11.057   2.319   1.557  1.1556  1.0860  0.0696
  971MOL0     H31023  11.106   2.257   1.406  1.9635 -2.3536 -0.3017
  971MOL0     H31024  11.229   2.119   1.651  1.9920  0.9203  1.4776
  971MOL0     H31025  11.281   2.283   1.598  1.5738  0.2746 -1.8504
  971MOL0     H31026  11.268   2.029   1.434  0.3087  0.7830 -0.1910
  971MOL0     H31027  11.335   2.183   1.380 -1.4355  0.1149 -0.7902
  971MOL0     H31028  11.441   1.975   1.563 -1.7673  1.7735  2.8968
  971MOL0     H31029  11.516   2.050   1.413 -3.9527  3.0706 -3.4304
  971MOL0     H31030  11.517   2.269   1.546 -1.4760 -0.7770 -2.3544
  971MOL0     H31031  11.500   2.167   1.696 -0.7470 -1.6171 -0.2891
  971MOL0     H31032  11.680   2.034   1.625 -4.0963 -1.7641 -2.8026
  971MOL0     H31033  11.719   2.201   1.678  1.3839  1.7404 -1.7326
  971MOL0     H31034  11.714   2.091   1.390  1.9379 -3.1474  1.6375
  971MOL0     H31035  11.730   2.263   1.423 -3.0287 -0.8361 -0.2750
  971MOL0     H31036  11.890   1.911   1.524  0.0581  0.4227 -2.1093
  971MOL0     H31037  12.255   1.931   1.563  0.5533 -1.2202 -0.1558
  971MOL0     H31038  12.112   1.837   1.604 -0.0601 -1.3533 -0.0655
  971MOL0     H31039  12.247   1.728   1.400 -0.4058  0.2072  1.7904
  971MOL0     H31040  12.083   1.758   1.383 -0.2839  0.8369  1.9361
  971MOL0     H31041  12.165   1.991   1.253  2.1959  1.5807  0.0894
  971MOL0     H31042  12.205   1.826   1.188  1.4753  1.1166 -1.6961
  971MOL0     H31043  12.417   1.818   1.268 -1.0711 -0.1396  1.0643
  971MOL0     H31044  12.401   1.971   1.366 -1.9718  3.0869 -0.8041
  971MOL0     H31045  12.615   1.969   1.358 -0.3223  1.6422  0.8154
  971MOL0     H31046  12.826   2.103   1.378 -0.9196 -0.9723  0.9402
  971MOL0     H31047  13.055   2.447   0.857  0.8575 -1.9873 -0.2635
  971MOL0     H31048  13.256   2.544   0.817  2.7005 -3.0291 -0.3363
  971MOL0     H31049  13.499   2.480   0.821 -1.3474 -0.4548 -1.4307
  971MOL0     H31050  13.508   2.656   0.811  1.1992 -1.5093 -1.1588
  971MOL0     H31051  13.710   2.612   0.988  1.2360 -0.6079  0.3438
  971MOL0     H31052  13.713   2.448   0.921  2.3021  1.2029  0.8438
  971MOL0     H31053  13.683   2.568   0.694  1.4423 -0.9750 -0.3776
  971MOL0     H31054  13.768   2.707   0.771  1.7851  0.9007  0.1587
  971MOL0     H31055  13.882   2.431   0.738 -0.4188 -0.9720  1.3301
  971MOL0     H31056  13.919   2.534   0.880  1.5628 -0.0626 -0.2778
  971MOL0     H31057  13.962   2.671   0.606  0.8709 -0.9858 -1.2962
  971MOL0     H31058  14.067   2.555   0.650 -1.3544  0.2446 -3.4293
  971MOL0     H31059  14.005   2.799   0.834 -1.8037 -2.2779  0.1502
  971MOL0     H31060  14.129   2.676   0.866 -0.1163  0.9757 -0.4862
  971MOL0     H31061  14.168   2.908   0.696  4.0485  0.3566 -0.0287
  971MOL0     H31062  14.170   2.771   0.591  1.8283  1.5591 -1.0568
  971MOL0     H31063  14.367   2.690   0.762  1.5084  0.7503 -2.2954
  971MOL0     H31064  14.383   2.842   0.675 -1.2767  0.5022 -1.6366
  971MOL0     H31065  13.363   2.529   1.231  0.2724  0.2714 -0.9943
  971MOL0     H31066  13.137   2.429   1.288 -0.3963 -1.4323  0.2915
  971MOL0     H31067  12.704   2.310   1.008  2.3989 -0.5701 -0.2909
  971MOL0     H31068  12.489   2.190   1.009 -1.5699  0.1353  0.7709
  971MOL0     H31069  10.730   2.175   1.694  0.2017  0.1440 -1.1927
  971MOL0     H31070  10.679   2.326   1.881  1.4352  3.2974  0.4823
  971MOL0     H31071  10.842   2.280   2.423  0.2744  1.2322  2.0103
  971MOL0     H31072  10.688   2.349   2.625 -0.5598  1.8654  0.7798
  971MOL0     H31073  10.677   2.592   2.755 -1.3804  1.2350  0.1976
  971MOL0     H31074  10.574   2.453   2.797  0.0875 -1.7177 -2.1088
  971MOL0     H31075  10.533   2.749   2.820  1.3789  0.0039  2.5528
  971MOL0     H31076  10.517   2.622   2.949 -2.2303 -0.2067  0.4550
  971MOL0     H31077  10.318   2.523   2.836 -0.5318  0.5365 -1.7695
  971MOL0     H31078  10.302   2.666   2.738 -0.4531  3.5594  0.7134
  971MOL0     H31079  10.153   2.698   2.926 -0.6574 -0.2373  1.6081
  971MOL0     H31080  10.288   2.644   3.031  2.0493 -0.9320 -1.4425
  971MOL0     H31081  10.317   3.056   3.041 -2.1506  0.6966  0.3933
  971MOL0     H31082  10.566   2.700   2.413  0.5765 -0.0679 -2.1789
  971MOL0     H31083  10.635   2.735   2.169 -1.8978 -2.1224 -0.2788
  971MOL0     H31084  10.808   2.708   2.171  0.4282  0.0074  0.6229
  971MOL0     H31085  10.707   2.593   2.083  1.3915 -0.0909 -1.3110
  972MOL0     O31086  10.477   5.807   1.985  0.2082 -0.0069  0.3758
  972MOL0     C31087  10.500   5.897   2.063  1.4511 -0.7583 -0.2967
  972MOL0     O31088  10.606   5.985   2.055  0.6951 -0.4660 -0.1902
  972MOL0     C31089  10.697   5.975   1.948  0.6345 -0.1770  0.5391
  972MOL0     C31090  10.728   6.096   1.876 -0.2614  0.0378 -0.7843
  972MOL0     C31091  10.818   6.096   1.766 -0.2451  0.1040 -0.3199
  972MOL0     C31092  10.880   5.973   1.724 -0.1751 -0.4154  0.6948
  972MOL0     O31093  10.968   5.980   1.621  0.0030 -0.0467  0.0867
  972MOL0     C31094  10.950   5.876   1.522  0.1211 -0.1133 -0.5644
  972MOL0     C31095  10.997   5.936   1.392 -0.3792  0.6743  0.4195
  972MOL0     C31096  10.918   6.059   1.347  0.3849  0.1346 -0.3530
  972MOL0     C31097  10.979   6.129   1.232  0.7490 -0.2756 -0.2112
  972MOL0     C31098  10.892   6.244   1.190 -0.7611 -1.0245  1.4991
  972MOL0     C31099  10.959   6.345   1.092  0.0406  0.1047  0.3748
  972MOL0     C31100  10.964   6.299   0.945 -0.3360 -0.1267  0.6262
  972MOL0     C31101  10.989   6.415   0.854  0.4754 -0.5168 -0.0497
  972MOL0     N31102  11.132   6.441   0.849  0.1952 -0.8681  0.0318
  972MOL0     C31103  11.231   6.409   0.939  0.1522  0.4151  0.1213
  972MOL0     C31104  11.341   6.476   0.903  0.0478  0.5763  0.7384
  972MOL0     C31105  11.477   6.472   0.968 -0.4790  0.2360 -0.4133
  972MOL0     C31106  11.554   6.337   0.962  1.0157 -0.6082  0.4396
  972MOL0     C31107  11.685   6.333   1.042 -0.1461 -0.2211  0.5937
  972MOL0     C31108  11.758   6.195   1.018 -0.9309  1.2159  0.7244
  972MOL0     O31109  11.865   6.189   1.111 -0.0693  0.0988 -0.2180
  972MOL0     C31110  11.930   6.072   1.139  1.0563 -1.0112 -0.6198
  972MOL0     C31111  12.055   6.084   1.196  0.1481 -0.0447 -0.0396
  972MOL0     C31112  12.129   5.966   1.232  0.0368  0.2470  0.4295
  972MOL0     C31113  12.078   5.837   1.216  0.0904 -0.5697  0.3122
  972MOL0     C31114  12.168   5.730   1.255 -0.0826  0.4902  0.6249
  972MOL0     O31115  12.103   5.602   1.244 -0.3733  0.5143  0.5645
  972MOL0     C31116  12.189   5.492   1.256 -0.4906 -0.6732  0.2265
  972MOL0     C31117  12.182   5.425   1.379  0.3576  0.0085  0.0616
  972MOL0     C31118  12.266   5.310   1.401 -0.3739  0.0514 -0.3280
  972MOL0     C31119  12.356   5.272   1.302 -0.3785  0.2402 -0.7079
  972MOL0     O31120  12.444   5.165   1.324  0.2446  0.0304  0.9481
  972MOL0     C31121  12.398   5.044   1.388 -0.0675  0.1388 -0.5867
  972MOL0     C31122  12.469   5.029   1.521 -0.0220  0.2454  0.7584
  972MOL0     C31123  12.621   5.010   1.498  0.1499 -0.4135 -0.7386
  972MOL0     C31124  12.687   5.002   1.636  0.0145  0.5611  0.2082
  972MOL0     C31125  12.839   4.987   1.610 -0.1844  0.9332  0.5077
  972MOL0     C31126  12.905   5.108   1.538 -0.8436 -0.7376 -0.1447
  972MOL0     C31127  12.862   5.246   1.606 -1.1521 -0.4217  0.0414
  972MOL0     C31128  12.955   5.363   1.577 -0.9138 -0.0005 -1.1560
  972MOL0    Cl31129  12.952   5.423   1.401  0.1465  0.0615  0.1073
  972MOL0     C31130  12.356   5.331   1.170 -0.2860  0.5239 -0.5782
  972MOL0     C31131  12.271   5.442   1.149  0.0938 -0.0657 -0.8333
  972MOL0     O31132  12.285   5.750   1.277 -0.4697  0.0310 -1.5245
  972MOL0     C31133  11.953   5.823   1.155 -0.1270 -0.3609 -0.5140
  972MOL0     C31134  11.877   5.942   1.118  0.0291  0.0945  0.3189
  972MOL0     N31135  11.315   6.554   0.790  0.5271  0.7793 -0.8202
  972MOL0     N31136  11.189   6.535   0.767 -1.0006  0.3629 -0.6918
  972MOL0     C31137  10.840   5.859   1.788  0.1261  0.4162  0.2725
  972MOL0     C31138  10.760   5.863   1.900 -0.0028 -0.0849 -0.4807
  972MOL0     C31139  10.391   5.930   2.158  0.1720 -0.5196  0.0301
  972MOL0     C31140  10.395   6.060   2.212  0.6018  0.3399  0.2767
  972MOL0     C31141  10.317   6.086   2.320  0.4999 -0.4463 -0.0445
  972MOL0     C31142  10.222   5.991   2.363  0.3511 -0.2941 -0.6174
  972MOL0     O31143  10.130   6.020   2.456  0.3249  0.1587 -0.7403
  972MOL0     C31144  10.111   6.152   2.518 -0.9793  0.1666  0.0239
  972MOL0     C31145   9.975   6.160   2.578  0.2662  0.7673  0.1947
  972MOL0     C31146   9.867   6.203   2.468 -0.0090  0.9144 -0.6993
  972MOL0     C31147   9.803   6.088   2.391 -0.4097 -0.2504  0.5600
  972MOL0     C31148   9.730   6.143   2.279 -0.0885  0.7146 -1.0956
  972MOL0     C31149   9.677   6.194   2.183  0.5225  0.1852 -0.6926
  972MOL0     C31150  10.213   5.870   2.309 -1.7791  1.0295  0.3425
  972MOL0     C31151  10.289   5.839   2.197 -0.8015  0.2166 -0.5199
  972MOL0     C31152  10.271   5.697   2.141  0.2555 -0.4908 -0.1029
  972MOL0     H31153  10.684   6.189   1.908  0.7045  0.8004 -1.5842
  972MOL0     H31154  10.839   6.192   1.720 -0.5185  0.3350  0.0331
  972MOL0     H31155  11.009   5.789   1.551  1.7750  1.1496 -0.0086
  972MOL0     H31156  10.846   5.845   1.509  0.2198  0.1175 -2.1122
  972MOL0     H31157  10.977   5.861   1.316  0.1985  0.3268  0.6062
  972MOL0     H31158  11.105   5.948   1.396 -0.3355  1.4407 -1.9352
  972MOL0     H31159  10.921   6.129   1.431  3.2374  0.0791 -0.3274
  972MOL0     H31160  10.818   6.030   1.314  0.7335 -2.0167  0.3479
  972MOL0     H31161  11.078   6.166   1.263 -0.7428  0.6320  4.2840
  972MOL0     H31162  10.989   6.054   1.154 -0.4930  0.0780 -0.7338
  972MOL0     H31163  10.800   6.204   1.147 -1.0560 -0.3495  1.4950
  972MOL0     H31164  10.860   6.304   1.276  1.6900 -0.9500  2.4510
  972MOL0     H31165  10.899   6.435   1.109 -0.0345  0.2183 -0.4338
  972MOL0     H31166  11.061   6.366   1.124 -0.2751  0.3788  1.2150
  972MOL0     H31167  10.868   6.248   0.929 -1.5807  1.3748  2.8173
  972MOL0     H31168  11.034   6.215   0.934  0.2670 -0.1338  3.7179
  972MOL0     H31169  10.939   6.386   0.762 -3.1970 -1.0531  1.9242
  972MOL0     H31170  10.941   6.504   0.896 -0.3298 -1.3407  0.8338
  972MOL0     H31171  11.237   6.333   1.015  4.4873 -1.2594 -1.5554
  972MOL0     H31172  11.540   6.558   0.945  1.5788 -1.4941 -1.6866
  972MOL0     H31173  11.447   6.480   1.073  0.4093 -0.8592 -0.0568
  972MOL0     H31174  11.491   6.258   1.004  0.6454 -0.5447  0.0130
  972MOL0     H31175  11.583   6.314   0.859 -0.3047  1.3681 -0.4417
  972MOL0     H31176  11.676   6.340   1.151 -0.0416 -3.4399  0.9018
  972MOL0     H31177  11.757   6.408   1.008 -0.6271 -1.3492 -3.4433
  972MOL0     H31178  11.809   6.185   0.922  1.9377  1.4765  2.0930
  972MOL0     H31179  11.690   6.113   1.043 -0.2570  0.7870  1.1851
  972MOL0     H31180  12.090   6.183   1.221 -0.4394  0.7268 -2.0713
  972MOL0     H31181  12.224   5.985   1.280 -0.1152  3.2015 -0.2473
  972MOL0     H31182  12.114   5.465   1.453  1.0008  0.6882  0.2902
  972MOL0     H31183  12.268   5.263   1.498  3.4434  2.5871  1.0289
  972MOL0     H31184  12.292   5.043   1.414  0.3375  0.0536  1.2373
  972MOL0     H31185  12.412   4.952   1.331 -0.4748 -2.1236  2.6738
  972MOL0     H31186  12.453   5.123   1.575  0.7927  1.7235 -1.4203
  972MOL0     H31187  12.427   4.946   1.578 -1.1604  0.2138 -0.0808
  972MOL0     H31188  12.643   4.918   1.443  4.3964 -0.1519  0.1966
  972MOL0     H31189  12.661   5.089   1.434  1.1515 -0.3444 -0.0537
  972MOL0     H31190  12.658   4.921   1.703 -0.9354  1.6675  1.1690
  972MOL0     H31191  12.667   5.095   1.691 -3.1390 -1.2835  2.4758
  972MOL0     H31192  12.857   4.901   1.545 -2.7763 -0.9517  2.0662
  972MOL0     H31193  12.899   4.956   1.696 -0.5763  1.1033  0.8469
  972MOL0     H31194  13.011   5.090   1.556 -1.4185 -3.0405  1.3381
  972MOL0     H31195  12.880   5.109   1.432 -1.1314 -0.6559 -0.0774
  972MOL0     H31196  12.858   5.242   1.715 -2.4503 -1.3892 -0.0106
  972MOL0     H31197  12.770   5.267   1.551  0.4494 -2.1680 -3.6494
  972MOL0     H31198  12.931   5.448   1.642 -3.0656 -1.9669  0.7817
  972MOL0     H31199  13.059   5.334   1.595 -0.0724  0.9987 -3.9189
  972MOL0     H31200  12.434   5.294   1.104  2.5361  0.6734  2.4252
  972MOL0     H31201  12.274   5.498   1.056  0.2143  0.7549 -0.3467
  972MOL0     H31202  11.917   5.725   1.128 -1.3489  0.1171 -0.7109
  972MOL0     H31203  11.783   5.924   1.068 -0.7214  0.2834  1.6242
  972MOL0     H31204  10.889   5.765   1.766  0.0418  0.1468  1.1935
  972MOL0     H31205  10.732   5.777   1.960  0.9071  1.9235  3.1511
  972MOL0     H31206  10.467   6.133   2.177  1.6807  0.0691  1.8152
  972MOL0     H31207  10.325   6.184   2.367 -1.9576 -0.6065  0.8389
  972MOL0     H31208  10.119   6.241   2.455 -2.4506  0.7075  0.5408
  972MOL0     H31209  10.183   6.161   2.600 -0.7240  5.0872 -0.4376
  972MOL0     H31210   9.968   6.239   2.653  3.0694 -0.2963  1.6930
  972MOL0     H31211   9.950   6.068   2.631 -2.5182 -0.0128 -2.1961
  972MOL0     H31212   9.911   6.275   2.398  1.1134 -0.3148 -1.2838
  972MOL0     H31213   9.785   6.258   2.516  0.2988  2.5442 -1.9694
  972MOL0     H31214   9.868   6.005   2.359 -1.0646 -0.1635 -1.0615
  972MOL0     H31215   9.726   6.045   2.456 -3.2600  0.0448 -2.3708
  972MOL0     H31216   9.627   6.244   2.103  0.3333 -1.8511 -1.9020
  972MOL0     H31217  10.156   5.785   2.346 -3.0747  1.2691 -1.0294
  972MOL0     H31218  10.204   5.634   2.200 -0.6937 -0.4983 -1.1549
  972MOL0     H31219  10.235   5.702   2.038  1.9363 -2.2628 -0.8251
  972MOL0     H31220  10.363   5.639   2.152 -0.6344 -1.4739  3.5337
  973MOL0     O31221   5.552   2.566   1.487 -0.0883 -0.1885  0.1176
  973MOL0     C31222   5.589   2.674   1.437 -0.6976  0.7413 -0.0573
  973MOL0     O31223   5.505   2.760   1.378 -0.7268 -0.5611 -0.0181
  973MOL0     C31224   5.370   2.745   1.370  0.0396  0.5866  0.0385
  973MOL0     C31225   5.310   2.830   1.272 -0.2856 -0.5078  1.0719
  973MOL0     C31226   5.181   2.840   1.247  0.1174 -0.1419 -0.2628
  973MOL0     C31227   5.092   2.771   1.336  0.2870  0.0563  0.1872
  973MOL0     O31228   4.956   2.806   1.327  0.3654  0.7377 -0.9119
  973MOL0     C31229   4.880   2.793   1.446 -0.3678 -0.0658  0.4078
  973MOL0     C31230   4.739   2.808   1.405 -0.2426  0.8687 -0.2311
  973MOL0     C31231   4.650   2.856   1.522  0.2708  0.1084 -0.1865
  973MOL0     C31232   4.656   2.778   1.654 -0.0987  0.6407  0.8012
  973MOL0     C31233   4.567   2.829   1.764  0.1251  0.4495 -0.2326
  973MOL0     C31234   4.413   2.819   1.738  0.8677 -0.1109 -1.2721
  973MOL0     C31235   4.361   2.679   1.702 -0.5655 -0.0777 -0.9024
  973MOL0     C31236   4.216   2.674   1.670  0.2645  0.3750 -0.8979
  973MOL0     N31237   4.191   2.711   1.537  0.3873  0.9210 -0.1966
  973MOL0     C31238   4.211   2.630   1.426 -0.7450 -0.3594 -0.2958
  973MOL0     C31239   4.169   2.710   1.323 -0.4181  0.7000 -1.1481
  973MOL0     C31240   4.165   2.659   1.176 -0.1810  0.0191  0.0912
  973MOL0     C31241   4.302   2.641   1.116 -0.5149  0.1470  0.7793
  973MOL0     C31242   4.299   2.670   0.967  0.0867 -0.3064 -0.1855
  973MOL0     C31243   4.424   2.626   0.884  1.0027  0.2549 -1.5082
  973MOL0     O31244   4.538   2.689   0.941  0.1925  0.4011  0.0420
  973MOL0     C31245   4.655   2.616   0.928  0.9532  0.8568  0.0480
  973MOL0     C31246   4.763   2.645   1.017  0.0052  0.3391 -0.2174
  973MOL0     C31247   4.885   2.579   1.010 -0.2958 -0.0912 -0.1792
  973MOL0     C31248   4.911   2.492   0.905  0.3745  0.5966  0.2946
  973MOL0     C31249   5.043   2.426   0.892  0.5883 -0.5402 -0.1500
  973MOL0     O31250   5.137   2.464   0.989  0.3035 -0.1884 -0.2872
  973MOL0     C31251   5.270   2.432   0.977 -0.9983 -0.4146 -0.3466
  973MOL0     C31252   5.348   2.448   1.097  0.7637  0.0192  0.8326
  973MOL0     C31253   5.486   2.427   1.100  0.3811  0.7258 -0.4471
  973MOL0     C31254   5.549   2.379   0.983  0.3262 -0.3411  0.6025
  973MOL0     O31255   5.672   2.331   0.984 -0.0999  0.0858  0.4699
  973MOL0     C31256   5.767   2.353   1.095  0.1759 -0.0600 -0.5022
  973MOL0     C31257   5.906   2.305   1.048  0.4855  1.2150  0.1224
  973MOL0     C31258   6.010   2.296   1.163  0.2695 -0.0526 -0.2206
  973MOL0     C31259   6.149   2.264   1.105 -0.2038 -0.3907 -0.0284
  973MOL0     C31260   6.248   2.347   1.188 -0.0939 -0.0266  0.2628
  973MOL0     C31261   6.392   2.339   1.134 -0.6014  0.1834  0.2127
  973MOL0     C31262   6.486   2.239   1.202  0.7972 -0.0780 -0.8545
  973MOL0     C31263   6.627   2.246   1.145 -0.3456  0.7825 -0.3135
  973MOL0    Cl31264   6.696   2.417   1.151  0.0133  0.3827 -0.2053
  973MOL0     C31265   5.475   2.364   0.859  0.3240 -0.1154  0.2846
  973MOL0     C31266   5.336   2.390   0.861 -0.6089 -1.4353  0.6172
  973MOL0     O31267   5.058   2.348   0.806 -0.1735  0.6601 -0.8085
  973MOL0     C31268   4.800   2.463   0.816 -0.6132 -0.7294  0.4095
  973MOL0     C31269   4.676   2.513   0.829  0.1504  0.8468 -0.6048
  973MOL0     N31270   4.137   2.834   1.372 -0.0830 -0.8509  0.3419
  973MOL0     N31271   4.154   2.833   1.504  0.7975 -0.5703  0.6403
  973MOL0     C31272   5.150   2.678   1.423  0.2851 -0.6741  0.2153
  973MOL0     C31273   5.287   2.660   1.448 -0.2605 -0.4228  0.3653
  973MOL0     C31274   5.728   2.713   1.446  0.6806  0.2808  0.6716
  973MOL0     C31275   5.822   2.611   1.477 -0.2128 -0.7013  0.4264
  973MOL0     C31276   5.953   2.622   1.491 -0.7757  0.2858  0.1505
  973MOL0     C31277   6.014   2.750   1.480 -0.3500 -0.1648  0.9159
  973MOL0     O31278   6.148   2.769   1.463 -0.0340 -0.5857  0.8651
  973MOL0     C31279   6.232   2.707   1.564 -0.3013 -0.0912 -1.3084
  973MOL0     C31280   6.378   2.691   1.518  0.4150 -0.0471  0.4871
  973MOL0     C31281   6.448   2.825   1.512  0.0292 -0.3278  0.4068
  973MOL0     C31282   6.591   2.818   1.473 -0.7000  0.8809  0.4690
  973MOL0     C31283   6.585   2.744   1.342  0.8957  0.6618 -0.3337
  973MOL0     C31284   6.569   2.697   1.234  0.6967  0.3234  0.5124
  973MOL0     C31285   5.920   2.860   1.461 -0.9076  0.7838  0.5849
  973MOL0     C31286   5.781   2.842   1.449 -0.1890 -0.1941  0.1202
  973MOL0     C31287   5.695   2.973   1.429 -0.5691  0.2332  0.2581
  973MOL0     H31288   5.361   2.902   1.209 -0.4633  0.2783  1.8051
  973MOL0     H31289   5.149   2.917   1.176 -0.5780 -0.8580 -0.7563
  973MOL0     H31290   4.895   2.694   1.490 -1.4427 -1.3145 -1.8548
  973MOL0     H31291   4.909   2.876   1.510  0.6474 -0.3113  0.2874
  973MOL0     H31292   4.701   2.713   1.365 -0.8503  0.8895  0.2821
  973MOL0     H31293   4.734   2.883   1.325 -1.0143  0.5429 -0.4999
  973MOL0     H31294   4.546   2.854   1.487  0.2536 -0.2044 -0.1150
  973MOL0     H31295   4.690   2.957   1.537  0.0292 -0.1484  2.5570
  973MOL0     H31296   4.636   2.674   1.627  2.7547 -0.2046  1.6019
  973MOL0     H31297   4.759   2.780   1.692  0.3406  0.6535 -0.3260
  973MOL0     H31298   4.598   2.773   1.853 -1.7879 -0.5465 -0.1521
  973MOL0     H31299   4.593   2.933   1.787 -1.9739  1.4403 -1.9610
  973MOL0     H31300   4.360   2.861   1.824 -0.6658  0.5443 -2.4981
  973MOL0     H31301   4.386   2.880   1.652  1.0218  0.7762 -0.7022
  973MOL0     H31302   4.384   2.615   1.789  1.1668  2.4846  0.6751
  973MOL0     H31303   4.415   2.639   1.616  0.1772 -0.4982 -0.2684
  973MOL0     H31304   4.195   2.568   1.688 -0.3044 -0.0378 -3.5603
  973MOL0     H31305   4.161   2.745   1.733 -1.1356 -0.0498 -1.6118
  973MOL0     H31306   4.238   2.525   1.422  0.7118 -0.0305  0.2093
  973MOL0     H31307   4.113   2.564   1.162  2.1942 -1.0904 -2.1209
  973MOL0     H31308   4.107   2.738   1.128 -0.1706 -0.3397 -0.5164
  973MOL0     H31309   4.371   2.706   1.170  0.4367  0.7243 -1.0421
  973MOL0     H31310   4.347   2.542   1.127  1.6136  0.4497 -3.3185
  973MOL0     H31311   4.283   2.777   0.956 -0.2132 -0.4046 -0.7258
  973MOL0     H31312   4.215   2.619   0.918 -1.5020  1.5773  0.4713
  973MOL0     H31313   4.420   2.654   0.779 -1.7669  0.1076 -1.5317
  973MOL0     H31314   4.435   2.518   0.899 -0.0361  0.1614 -1.3303
  973MOL0     H31315   4.753   2.719   1.097  1.4277  1.9124 -1.4117
  973MOL0     H31316   4.955   2.609   1.087 -0.3377 -2.3637  0.8164
  973MOL0     H31317   5.290   2.487   1.180 -2.1989  1.6658 -1.7686
  973MOL0     H31318   5.538   2.419   1.195 -1.6199 -1.0084  0.5902
  973MOL0     H31319   5.787   2.456   1.128 -0.5887  0.2429 -0.9483
  973MOL0     H31320   5.736   2.293   1.180  2.8892 -2.9010 -1.3257
  973MOL0     H31321   5.880   2.204   1.015  0.4751  0.5485  1.9969
  973MOL0     H31322   5.946   2.352   0.958  0.8440 -2.7234 -2.0043
  973MOL0     H31323   6.000   2.391   1.216  0.7160  0.6299 -1.3358
  973MOL0     H31324   5.979   2.218   1.234 -2.1318 -1.1024 -2.2678
  973MOL0     H31325   6.157   2.318   1.010 -0.3600  3.2459  1.8470
  973MOL0     H31326   6.183   2.161   1.111  1.1406  0.0373  0.1900
  973MOL0     H31327   6.230   2.325   1.294  0.2465 -0.7362  0.1810
  973MOL0     H31328   6.212   2.450   1.198  0.6642  0.0346  4.0164
  973MOL0     H31329   6.390   2.314   1.028  0.5247  0.4683  0.1089
  973MOL0     H31330   6.427   2.441   1.151  2.1332 -0.3688 -1.5636
  973MOL0     H31331   6.448   2.136   1.196  0.0908  0.0406  0.9613
  973MOL0     H31332   6.493   2.263   1.308  1.1217 -2.0018 -0.3947
  973MOL0     H31333   6.682   2.177   1.210 -1.4971  1.7833  1.8369
  973MOL0     H31334   6.625   2.210   1.042 -0.9833  2.0318 -0.7534
  973MOL0     H31335   5.530   2.349   0.766  0.3201 -1.0738  0.4247
  973MOL0     H31336   5.289   2.394   0.763  2.6732 -2.0231 -1.1186
  973MOL0     H31337   4.836   2.394   0.740  0.0716 -1.0085  0.9757
  973MOL0     H31338   4.598   2.485   0.759  0.5266  1.7129 -1.3922
  973MOL0     H31339   5.082   2.617   1.483  2.5383 -1.7376  1.8343
  973MOL0     H31340   5.316   2.601   1.534 -0.9954  1.0641  1.6853
  973MOL0     H31341   5.789   2.507   1.480 -3.3051  0.1082 -1.1289
  973MOL0     H31342   6.017   2.536   1.502  0.3396  1.0610 -0.1191
  973MOL0     H31343   6.192   2.606   1.580 -0.3988 -0.0257 -1.1436
  973MOL0     H31344   6.222   2.765   1.656 -0.3512  0.2006 -1.4960
  973MOL0     H31345   6.374   2.630   1.427 -2.7660 -0.7390  0.9824
  973MOL0     H31346   6.439   2.631   1.587  3.8917  0.3208 -2.0145
  973MOL0     H31347   6.453   2.874   1.610  0.9923  0.4788 -0.0337
  973MOL0     H31348   6.385   2.884   1.445 -0.5816 -1.8972 -0.4653
  973MOL0     H31349   6.628   2.919   1.453  0.7274 -0.0681 -2.1757
  973MOL0     H31350   6.643   2.756   1.546  1.5718  1.1162 -0.8593
  973MOL0     H31351   6.569   2.653   1.137 -0.0968  3.4609 -1.0614
  973MOL0     H31352   5.973   2.955   1.459  0.7409 -0.0119  2.4193
  973MOL0     H31353   5.674   2.972   1.321  1.2491  0.3172 -0.1220
  973MOL0     H31354   5.610   2.984   1.498  1.1414 -2.3906  3.0267
  973MOL0     H31355   5.765   3.054   1.447  0.3859 -0.1358 -1.5470
  974MOL0     O31356   8.919   2.624   5.272  0.4312 -0.4228  0.4779
  974MOL0     C31357   8.882   2.710   5.352  0.5334 -0.1193 -0.0410
  974MOL0     O31358   8.750   2.746   5.367  0.6820  0.0827 -0.2694
  974MOL0     C31359   8.642   2.691   5.298  0.8890  0.2811 -0.4616
  974MOL0     C31360   8.552   2.781   5.250 -0.2445  0.1477  0.0410
  974MOL0     C31361   8.435   2.740   5.180 -0.9117 -0.3683 -1.1669
  974MOL0     C31362   8.410   2.599   5.162  0.4499  0.4714  1.0298
  974MOL0     O31363   8.291   2.547   5.101 -0.5965 -0.3450 -0.5509
  974MOL0     C31364   8.206   2.646   5.034  0.4387 -0.7232  0.7986
  974MOL0     C31365   8.079   2.584   4.978 -0.2125  0.6870 -0.4705
  974MOL0     C31366   7.964   2.676   4.954 -0.3516 -0.0121  0.3411
  974MOL0     C31367   7.954   2.693   4.800  1.1064 -0.2879 -0.7574
  974MOL0     C31368   7.882   2.575   4.723 -0.0598 -0.6392  0.4910
  974MOL0     C31369   7.761   2.520   4.794 -0.9035 -0.4192  0.2242
  974MOL0     C31370   7.695   2.417   4.697 -0.1968 -0.4126 -0.6200
  974MOL0     C31371   7.606   2.473   4.588 -0.0178 -0.6017 -0.0946
  974MOL0     N31372   7.508   2.573   4.645  0.6074  0.5349 -1.0040
  974MOL0     C31373   7.400   2.542   4.727  0.5591 -0.0737  0.1881
  974MOL0     C31374   7.339   2.663   4.750  0.1141 -0.1636 -0.7109
  974MOL0     C31375   7.221   2.698   4.829  0.6118  0.0906  0.2653
  974MOL0     C31376   7.102   2.635   4.762  0.5866 -0.1409 -0.1186
  974MOL0     C31377   6.987   2.739   4.773 -0.8142  0.0578  0.1375
  974MOL0     C31378   6.859   2.706   4.701 -1.1350 -0.4113  0.5353
  974MOL0     O31379   6.864   2.719   4.554 -0.5756  0.0264 -0.5769
  974MOL0     C31380   6.888   2.843   4.501 -0.0865  1.0237  0.5900
  974MOL0     C31381   7.018   2.869   4.446 -0.3737 -0.7905  0.0402
  974MOL0     C31382   7.039   2.985   4.375 -0.4741  0.0884 -0.7185
  974MOL0     C31383   6.940   3.082   4.365 -0.3257  0.0858 -0.4895
  974MOL0     C31384   6.982   3.213   4.319 -0.9360  0.7592 -0.5319
  974MOL0     O31385   7.113   3.241   4.318 -0.7494  0.1715  0.2641
  974MOL0     C31386   7.161   3.346   4.393  1.3275 -0.8307 -0.0938
  974MOL0     C31387   7.270   3.325   4.468 -1.0025 -0.7819 -0.1583
  974MOL0     C31388   7.348   3.433   4.513 -0.3877  0.5242 -0.1176
  974MOL0     C31389   7.294   3.562   4.515 -0.9767 -0.0747  0.4339
  974MOL0     O31390   7.362   3.672   4.563  0.1648 -0.0166 -0.0352
  974MOL0     C31391   7.286   3.770   4.629 -0.4894  0.2621 -0.6430
  974MOL0     C31392   7.380   3.857   4.711  0.1980  0.1156 -0.2222
  974MOL0     C31393   7.484   3.924   4.618 -0.5228  0.3272  0.9073
  974MOL0     C31394   7.600   3.991   4.701 -0.4009  0.0569  0.1528
  974MOL0     C31395   7.726   4.036   4.627  0.5214 -0.1284  0.5259
  974MOL0     C31396   7.838   4.090   4.717 -0.3342  0.5904  0.3444
  974MOL0     C31397   7.953   4.130   4.627  0.4203  0.7598 -0.0496
  974MOL0     C31398   8.022   4.257   4.671  0.2766  0.5829 -0.2341
  974MOL0    Cl31399   8.046   4.265   4.853  0.2614 -0.3315  0.0796
  974MOL0     C31400   7.173   3.577   4.449 -0.0295  0.1043  0.4956
  974MOL0     C31401   7.108   3.472   4.384 -0.8514  0.7190  0.0604
  974MOL0     O31402   6.893   3.291   4.293 -0.0292 -1.0574  0.6210
  974MOL0     C31403   6.812   3.050   4.410  0.9571  0.3792  0.3327
  974MOL0     C31404   6.783   2.931   4.473 -0.3763 -0.2230 -0.8403
  974MOL0     N31405   7.410   2.763   4.692  0.1326  0.3233 -0.0859
  974MOL0     N31406   7.510   2.707   4.621  1.1637 -0.0857  0.4287
  974MOL0     C31407   8.501   2.512   5.210 -0.0464 -0.5579  0.2846
  974MOL0     C31408   8.616   2.553   5.281  0.4705  0.2888 -0.6109
  974MOL0     C31409   8.970   2.780   5.434  1.1358  1.6645  0.1656
  974MOL0     C31410   8.947   2.918   5.460 -0.0775 -0.4987 -0.4031
  974MOL0     C31411   9.047   3.000   5.504 -0.0108  0.7762  1.2862
  974MOL0     C31412   9.174   2.948   5.544  0.1095 -1.0288 -0.2946
  974MOL0     O31413   9.277   3.024   5.592 -0.5396  0.2556  0.0732
  974MOL0     C31414   9.322   3.132   5.517  0.4783 -0.0209 -0.1154
  974MOL0     C31415   9.448   3.098   5.440 -0.4761  0.4342  0.3171
  974MOL0     C31416   9.428   2.984   5.332  0.5479  0.1713 -0.2776
  974MOL0     C31417   9.524   3.002   5.217  0.9321 -0.4126 -0.0099
  974MOL0     C31418   9.476   3.091   5.110 -0.8175  0.0808 -1.0179
  974MOL0     C31419   9.443   3.155   5.014  0.0324  0.7193  0.1329
  974MOL0     C31420   9.176   2.806   5.546  0.1620  0.6530  0.2134
  974MOL0     C31421   9.085   2.718   5.491  0.1333  0.0248  0.0070
  974MOL0     C31422   9.114   2.564   5.482 -0.1274 -0.3093 -0.2976
  974MOL0     H31423   8.558   2.888   5.266 -3.9241  0.8199 -1.8126
  974MOL0     H31424   8.382   2.831   5.154 -2.1083 -0.5980  0.3643
  974MOL0     H31425   8.169   2.722   5.104  0.1836  0.5318 -0.6364
  974MOL0     H31426   8.263   2.688   4.950  0.9831  0.9198  1.9506
  974MOL0     H31427   8.042   2.519   5.058 -1.9620  1.2390 -0.7808
  974MOL0     H31428   8.099   2.520   4.892 -1.4648  2.3587 -2.0936
  974MOL0     H31429   7.985   2.777   4.990  0.3926 -0.1744  0.3864
  974MOL0     H31430   7.873   2.642   5.004 -0.2533 -3.7401 -1.6668
  974MOL0     H31431   7.881   2.773   4.787 -1.5485 -2.7801 -2.3066
  974MOL0     H31432   8.045   2.713   4.742  0.7990  0.5132 -0.9781
  974MOL0     H31433   7.852   2.629   4.633  1.1952  1.4774  1.2663
  974MOL0     H31434   7.954   2.501   4.688  1.8684  0.9414  0.8985
  974MOL0     H31435   7.795   2.467   4.883 -0.6003  0.2656  0.5271
  974MOL0     H31436   7.693   2.603   4.818 -1.4276 -1.3885  2.3347
  974MOL0     H31437   7.636   2.349   4.759  2.0979 -3.5063 -1.5792
  974MOL0     H31438   7.767   2.355   4.642  1.5336  3.0596 -2.5910
  974MOL0     H31439   7.667   2.515   4.507 -0.8885 -1.7911 -1.4310
  974MOL0     H31440   7.561   2.390   4.531 -1.5290  1.9433 -2.9429
  974MOL0     H31441   7.366   2.443   4.755 -1.1874  0.4570  0.0297
  974MOL0     H31442   7.230   2.676   4.935  3.1866 -1.6645 -0.2428
  974MOL0     H31443   7.204   2.806   4.820 -0.3258 -0.0937 -0.3319
  974MOL0     H31444   7.123   2.610   4.657  0.1346 -1.0356 -0.0107
  974MOL0     H31445   7.079   2.537   4.807  0.7471 -0.8432 -1.5032
  974MOL0     H31446   7.015   2.831   4.722 -1.6535  0.0606 -0.3457
  974MOL0     H31447   6.966   2.759   4.878 -0.6948 -1.1884  0.4179
  974MOL0     H31448   6.787   2.780   4.736 -0.3975 -0.1278  1.4670
  974MOL0     H31449   6.829   2.604   4.728 -0.4547 -1.5635 -2.6068
  974MOL0     H31450   7.105   2.810   4.470  1.8825  2.7507  1.2787
  974MOL0     H31451   7.139   3.009   4.340 -0.4838 -0.2394 -0.9823
  974MOL0     H31452   7.313   3.226   4.481  0.6511  0.0729  1.4862
  974MOL0     H31453   7.447   3.424   4.556 -0.5569 -1.2186  0.0069
  974MOL0     H31454   7.250   3.844   4.557  0.0422  0.9237 -0.2396
  974MOL0     H31455   7.209   3.729   4.695 -0.9393  3.0877  0.7569
  974MOL0     H31456   7.323   3.930   4.769 -0.1163  0.5383 -1.0544
  974MOL0     H31457   7.429   3.799   4.790  1.0675  1.0440 -0.0462
  974MOL0     H31458   7.528   3.853   4.547  3.4999  1.4921  1.9768
  974MOL0     H31459   7.445   3.998   4.549  2.8931  1.1646 -0.3224
  974MOL0     H31460   7.622   3.920   4.782 -1.5793  3.5130  3.8327
  974MOL0     H31461   7.553   4.087   4.726  0.5562  0.2972  1.1225
  974MOL0     H31462   7.701   4.107   4.548 -0.7693 -0.8470  0.2599
  974MOL0     H31463   7.761   3.946   4.576  1.7324 -0.1025  1.2811
  974MOL0     H31464   7.801   4.176   4.774  0.8384  0.0473  1.9680
  974MOL0     H31465   7.876   4.011   4.782  0.9516 -0.8214 -2.0005
  974MOL0     H31466   7.917   4.147   4.525 -3.8031 -0.4773  1.0504
  974MOL0     H31467   8.016   4.041   4.618  0.2137  0.5274  0.7029
  974MOL0     H31468   8.116   4.247   4.615 -0.0325  2.1704 -1.0691
  974MOL0     H31469   7.964   4.343   4.637 -0.6975  0.8748  2.0164
  974MOL0     H31470   7.129   3.675   4.434  1.9020  1.1201  1.2227
  974MOL0     H31471   7.010   3.492   4.341 -0.1705  2.3301 -0.8283
  974MOL0     H31472   6.740   3.128   4.388 -1.7153 -1.6232  1.4843
  974MOL0     H31473   6.679   2.907   4.495  0.6071 -2.2814  2.1383
  974MOL0     H31474   8.450   2.417   5.225 -1.0663 -0.2198 -0.8555
  974MOL0     H31475   8.677   2.481   5.334  1.4482 -0.1071 -2.1887
  974MOL0     H31476   8.857   2.973   5.433  0.7521  1.6281  0.9615
  974MOL0     H31477   9.035   3.107   5.520  1.3127  1.5185 -2.0127
  974MOL0     H31478   9.329   3.229   5.566 -0.6272  1.0446 -1.9395
  974MOL0     H31479   9.243   3.163   5.448 -1.6525  2.2049  3.0282
  974MOL0     H31480   9.506   3.061   5.525 -2.8698 -1.7151  1.1529
  974MOL0     H31481   9.494   3.189   5.401  1.3956 -1.0825 -1.2136
  974MOL0     H31482   9.329   2.984   5.286  1.4207  1.3461 -2.3246
  974MOL0     H31483   9.441   2.882   5.368  1.0701 -1.0937 -3.6363
  974MOL0     H31484   9.621   3.042   5.247  0.1926  1.1603  0.3858
  974MOL0     H31485   9.542   2.898   5.186  0.0736 -1.6163  3.0731
  974MOL0     H31486   9.413   3.201   4.922 -0.0678  0.6944  0.1534
  974MOL0     H31487   9.262   2.761   5.595 -1.1036 -0.8097  1.1770
  974MOL0     H31488   9.033   2.501   5.520 -0.6610  1.3906  1.5714
  974MOL0     H31489   9.118   2.542   5.375 -1.2943 -2.2370  0.0061
  974MOL0     H31490   9.198   2.529   5.542 -1.4436 -2.7878  0.1924
  975MOL0     O31491   2.072   4.872   0.783 -0.5852  0.8103  0.0086
  975MOL0     C31492   2.078   4.980   0.843 -0.4526  0.1219 -0.4724
  975MOL0     O31493   2.188   5.034   0.908  0.1982 -0.2631  0.0806
  975MOL0     C31494   2.324   4.999   0.889  0.4494  0.5210 -0.2422
  975MOL0     C31495   2.425   5.096   0.926  0.1368  0.4203  0.1490
  975MOL0     C31496   2.566   5.069   0.917 -0.2522  0.3192  0.1519
  975MOL0     C31497   2.608   4.941   0.867  0.1675  0.0745  0.2055
  975MOL0     O31498   2.739   4.894   0.850  0.6152 -0.1202 -0.5202
  975MOL0     C31499   2.832   4.981   0.924  1.3609 -0.1065  0.4261
  975MOL0     C31500   2.965   4.907   0.945 -0.2149 -0.0853  0.0449
  975MOL0     C31501   3.050   4.979   1.052 -0.0495 -0.1450 -0.1597
  975MOL0     C31502   3.169   4.900   1.105  0.8709 -0.4198 -0.3480
  975MOL0     C31503   3.236   4.956   1.241 -0.6458  0.1040  0.4665
  975MOL0     C31504   3.275   5.105   1.235 -0.1022  0.6707 -0.0329
  975MOL0     C31505   3.365   5.172   1.334  0.2038 -0.5583  1.3980
  975MOL0     C31506   3.382   5.329   1.320 -1.4336 -0.5559 -0.7983
  975MOL0     N31507   3.404   5.376   1.180 -0.5374  0.3356 -0.1172
  975MOL0     C31508   3.496   5.320   1.087  0.5356  0.2046 -0.1571
  975MOL0     C31509   3.494   5.400   0.979  0.1202  0.3760  0.2331
  975MOL0     C31510   3.575   5.375   0.859 -0.0286  1.1309 -0.2883
  975MOL0     C31511   3.728   5.350   0.882 -0.1654  0.6689  0.0142
  975MOL0     C31512   3.797   5.446   0.974 -0.4299  0.4987 -0.1124
  975MOL0     C31513   3.946   5.431   0.958 -0.6724  0.3207 -0.4637
  975MOL0     O31514   4.010   5.540   1.031  0.2933  0.1153 -1.2701
  975MOL0     C31515   4.142   5.552   1.055 -0.2993 -0.3631  0.0068
  975MOL0     C31516   4.227   5.436   1.063  0.4187  0.1615 -0.2385
  975MOL0     C31517   4.357   5.465   1.094  0.0788  0.8508 -0.7330
  975MOL0     C31518   4.415   5.594   1.116  0.0459 -0.9033 -0.7868
  975MOL0     C31519   4.568   5.614   1.146  0.2762 -0.5097  0.1506
  975MOL0     O31520   4.626   5.497   1.206  0.4414  0.0388 -0.1938
  975MOL0     C31521   4.762   5.460   1.205  0.0854 -0.7463 -0.8945
  975MOL0     C31522   4.870   5.551   1.164  0.8937  0.0180 -0.7456
  975MOL0     C31523   5.005   5.511   1.189  0.4671 -0.1635  0.7051
  975MOL0     C31524   5.038   5.398   1.253 -0.5817 -0.1154 -0.0673
  975MOL0     O31525   5.171   5.370   1.273 -0.4466 -0.4995 -0.4374
  975MOL0     C31526   5.203   5.233   1.274  0.2456  1.6271  0.1399
  975MOL0     C31527   5.352   5.224   1.277  0.2426  0.0440  0.2180
  975MOL0     C31528   5.415   5.284   1.398  1.1182  0.2947  0.2645
  975MOL0     C31529   5.550   5.214   1.435 -0.0487 -0.2059  0.8524
  975MOL0     C31530   5.650   5.186   1.319 -0.1583 -1.1352  0.4867
  975MOL0     C31531   5.790   5.222   1.352 -0.2287  0.3731 -0.9117
  975MOL0     C31532   5.848   5.158   1.485 -0.6145 -0.3508 -0.8659
  975MOL0     C31533   5.994   5.199   1.499 -0.1622  0.5174  1.1154
  975MOL0    Cl31534   6.028   5.375   1.556 -0.0811  0.1787 -0.2667
  975MOL0     C31535   4.935   5.314   1.293  0.5340 -0.2623  0.2745
  975MOL0     C31536   4.799   5.346   1.273 -0.7473  1.1480  0.1052
  975MOL0     O31537   4.627   5.715   1.107  1.1020  0.0342 -0.7601
  975MOL0     C31538   4.322   5.702   1.121  0.8107  0.0047  0.0815
  975MOL0     C31539   4.186   5.677   1.087  0.1909 -0.3024 -0.3597
  975MOL0     N31540   3.395   5.497   1.000  0.1471  0.4865  0.7269
  975MOL0     N31541   3.337   5.480   1.115  0.3800 -0.6745 -0.5087
  975MOL0     C31542   2.505   4.857   0.817 -0.6911 -0.2752 -0.3657
  975MOL0     C31543   2.371   4.884   0.831  0.4157 -0.5918 -0.8440
  975MOL0     C31544   1.942   5.047   0.853 -1.1103  0.3018  0.9365
  975MOL0     C31545   1.817   4.978   0.853 -1.6476 -0.3314  0.2546
  975MOL0     C31546   1.700   5.048   0.858 -0.0291  0.5422  1.1450
  975MOL0     C31547   1.693   5.183   0.866 -0.5799 -0.4006  0.4831
  975MOL0     O31548   1.571   5.254   0.876 -0.8429  0.5608 -0.7315
  975MOL0     C31549   1.566   5.375   0.952 -0.0387 -0.7595 -0.3129
  975MOL0     C31550   1.418   5.397   0.990 -0.4074 -0.3190 -0.4394
  975MOL0     C31551   1.370   5.280   1.086  0.3504 -0.0436  0.0596
  975MOL0     C31552   1.282   5.198   0.989 -0.0171 -0.7203 -0.1519
  975MOL0     C31553   1.220   5.088   1.054  0.5384  0.0599 -0.2399
  975MOL0     C31554   1.144   4.996   1.100  0.8824  0.1471 -0.4372
  975MOL0     C31555   1.813   5.245   0.843 -0.1780  0.2814  0.3604
  975MOL0     C31556   1.941   5.189   0.847  0.7066 -0.1170 -0.1747
  975MOL0     C31557   2.063   5.289   0.857 -0.6649  0.4106 -0.5719
  975MOL0     H31558   2.402   5.192   0.973  0.1908  0.8333 -0.6539
  975MOL0     H31559   2.634   5.145   0.955  1.6978 -1.0177 -0.4922
  975MOL0     H31560   2.862   5.070   0.866  0.0322 -0.0149 -0.1661
  975MOL0     H31561   2.795   5.010   1.023  1.0897  3.1279 -0.4967
  975MOL0     H31562   3.024   4.906   0.853  0.3684  1.1546  0.3754
  975MOL0     H31563   2.955   4.805   0.982  0.0958 -0.7903 -1.7199
  975MOL0     H31564   2.979   4.989   1.135 -2.7357 -0.6969 -2.2620
  975MOL0     H31565   3.075   5.081   1.019  0.0427 -0.3118 -0.6115
  975MOL0     H31566   3.159   4.792   1.119  1.7513 -0.2928  1.6005
  975MOL0     H31567   3.244   4.903   1.026  0.9468  0.6159 -0.2443
  975MOL0     H31568   3.168   4.950   1.326  3.7578  2.8738  4.7056
  975MOL0     H31569   3.324   4.893   1.254  0.1412  1.1736  0.5070
  975MOL0     H31570   3.324   5.113   1.137  1.1489 -1.9873  0.2915
  975MOL0     H31571   3.185   5.166   1.223 -0.7294  0.2273  2.0204
  975MOL0     H31572   3.461   5.121   1.326  0.2496 -0.5173  1.6619
  975MOL0     H31573   3.326   5.160   1.436 -0.0192  0.7218  1.4830
  975MOL0     H31574   3.291   5.377   1.355 -2.5029 -2.3704 -1.0013
  975MOL0     H31575   3.472   5.360   1.375 -0.8999 -0.6457 -1.6089
  975MOL0     H31576   3.564   5.237   1.106 -0.0845  0.0373  1.4835
  975MOL0     H31577   3.542   5.285   0.807  2.6431  0.0530 -0.2606
  975MOL0     H31578   3.552   5.457   0.789  0.0007  2.0968  0.8017
  975MOL0     H31579   3.735   5.246   0.914 -2.8739  0.3454 -0.1885
  975MOL0     H31580   3.773   5.362   0.783 -0.8403  1.7559 -0.1810
  975MOL0     H31581   3.759   5.414   1.072 -1.4892  2.1098  0.0411
  975MOL0     H31582   3.773   5.551   0.955  1.7046  0.9501 -0.5512
  975MOL0     H31583   3.969   5.435   0.851 -0.8523 -0.4400 -0.5375
  975MOL0     H31584   3.973   5.332   0.996 -2.4734 -0.1020 -0.2153
  975MOL0     H31585   4.196   5.337   1.030  0.3391 -1.1919  3.4892
  975MOL0     H31586   4.430   5.385   1.084  1.8459  2.3146 -0.0688
  975MOL0     H31587   4.845   5.653   1.140 -2.6841 -0.5096  0.2756
  975MOL0     H31588   5.084   5.572   1.148 -1.7839 -0.1932 -4.4495
  975MOL0     H31589   5.162   5.191   1.367  0.5974 -0.4148 -0.5779
  975MOL0     H31590   5.154   5.188   1.187  0.0950  0.6409  0.7195
  975MOL0     H31591   5.376   5.119   1.263 -0.2610  0.0048 -0.4332
  975MOL0     H31592   5.389   5.278   1.189  0.8416  0.5046  0.7448
  975MOL0     H31593   5.428   5.390   1.375 -0.2788  0.9087  2.0623
  975MOL0     H31594   5.348   5.252   1.478 -0.2484 -0.1592 -1.0125
  975MOL0     H31595   5.530   5.120   1.487 -2.3377 -0.1597  0.1585
  975MOL0     H31596   5.580   5.283   1.515  0.8368 -0.2244  0.5551
  975MOL0     H31597   5.616   5.224   1.223  4.2866 -0.2508 -0.9839
  975MOL0     H31598   5.643   5.079   1.299 -0.2058 -0.9438 -0.5840
  975MOL0     H31599   5.854   5.204   1.265  0.2361 -3.0124 -0.0156
  975MOL0     H31600   5.786   5.330   1.371 -0.6739  0.3499 -0.8574
  975MOL0     H31601   5.843   5.048   1.485  0.9338 -0.4508 -0.1460
  975MOL0     H31602   5.793   5.196   1.571  0.1940  3.7068 -1.9358
  975MOL0     H31603   6.031   5.125   1.570  1.3954 -0.8325 -0.9806
  975MOL0     H31604   6.051   5.172   1.409 -2.7557  0.0794 -0.5061
  975MOL0     H31605   4.949   5.225   1.353  0.0113 -0.5664 -0.0383
  975MOL0     H31606   4.740   5.264   1.313 -1.1989 -1.3896 -4.9505
  975MOL0     H31607   4.353   5.795   1.169 -0.3222 -1.3078  3.7539
  975MOL0     H31608   4.101   5.745   1.088  0.1853 -0.1724 -3.0768
  975MOL0     H31609   2.540   4.764   0.773  0.6226  1.2383 -2.7196
  975MOL0     H31610   2.308   4.803   0.797 -1.5986  0.8328 -0.6968
  975MOL0     H31611   1.814   4.870   0.865 -1.0903 -0.5731 -1.4419
  975MOL0     H31612   1.612   4.984   0.868 -0.6966  0.9522 -1.3829
  975MOL0     H31613   1.613   5.456   0.895 -2.8050  1.9988  1.0205
  975MOL0     H31614   1.632   5.363   1.039  1.4840  0.9382 -1.1400
  975MOL0     H31615   1.365   5.415   0.895  2.8073  0.4550 -2.2485
  975MOL0     H31616   1.409   5.487   1.051  2.4493  1.7078 -2.7607
  975MOL0     H31617   1.308   5.313   1.170  3.0505  0.0064  2.1491
  975MOL0     H31618   1.443   5.215   1.134 -0.5745 -0.2798  1.1945
  975MOL0     H31619   1.198   5.246   0.939  0.1303  0.8933  1.0457
  975MOL0     H31620   1.345   5.147   0.916 -1.4266 -0.4679 -1.5846
  975MOL0     H31621   1.070   4.922   1.123 -0.1855  2.1028  3.1686
  975MOL0     H31622   1.817   5.353   0.834 -0.1521  0.4527  2.0646
  975MOL0     H31623   2.036   5.392   0.880  2.9471  1.3154  0.1232
  975MOL0     H31624   2.132   5.266   0.938 -0.3413 -3.4019 -1.7147
  975MOL0     H31625   2.127   5.278   0.768 -1.0734 -1.9991 -0.6559
  976MOL0     O31626   0.653   4.995   0.053 -0.1567  0.1190  0.3044
  976MOL0     C31627   0.571   4.903   0.059  0.1172  0.0128 -0.1076
  976MOL0     O31628   0.601   4.770   0.087 -0.2603  0.1042 -0.4998
  976MOL0     C31629   0.720   4.742   0.138  0.6763  0.5822  0.4774
  976MOL0     C31630   0.780   4.623   0.093  0.2121  0.2047  0.3369
  976MOL0     C31631   0.914   4.589   0.121  0.5942 -0.1963  0.4796
  976MOL0     C31632   0.987   4.676   0.200 -0.3459 -0.6809 -1.0325
  976MOL0     O31633   1.122   4.642   0.226  0.1596 -0.5244  0.9701
  976MOL0     C31634   1.196   4.702   0.340  0.5288  0.3009  0.5358
  976MOL0     C31635   1.342   4.722   0.289 -0.5901 -0.3648  0.2041
  976MOL0     C31636   1.374   4.834   0.196  0.2787 -0.1497  1.3253
  976MOL0     C31637   1.527   4.837   0.179  0.0013  0.1730  0.6039
  976MOL0     C31638   1.566   4.896   0.041  0.0368 -0.0440 -0.1958
  976MOL0     C31639   1.716   4.932   0.034  0.5922 -0.7017  0.2263
  976MOL0     C31640   1.762   4.960  -0.108  0.2244 -0.0774  0.1890
  976MOL0     C31641   1.901   5.028  -0.095 -0.0301 -0.8121  0.8572
  976MOL0     N31642   1.992   4.925  -0.037  0.0717 -0.2484 -0.3049
  976MOL0     C31643   2.070   4.856  -0.127 -0.1226 -0.1080 -0.6041
  976MOL0     C31644   2.175   4.819  -0.047 -0.2328  0.2112 -0.8033
  976MOL0     C31645   2.313   4.755  -0.101 -0.0854 -0.0583 -0.3400
  976MOL0     C31646   2.382   4.648  -0.008  0.4930 -0.0520  0.2075
  976MOL0     C31647   2.511   4.590  -0.078  0.5154  0.7026  0.9693
  976MOL0     C31648   2.585   4.484  -0.002  0.0788  0.0535 -0.0871
  976MOL0     O31649   2.713   4.481  -0.058 -0.2154 -0.5404 -0.1309
  976MOL0     C31650   2.821   4.473   0.026 -0.3830  0.2633 -0.9345
  976MOL0     C31651   2.867   4.576   0.107 -0.1999 -0.3557 -1.6576
  976MOL0     C31652   2.970   4.547   0.204 -0.1837  0.5200 -0.5683
  976MOL0     C31653   3.035   4.429   0.213  0.2591 -0.2818 -0.1981
  976MOL0     C31654   3.163   4.409   0.299 -0.2378  0.1397  0.0980
  976MOL0     O31655   3.210   4.515   0.378  0.6270  0.0034  0.6264
  976MOL0     C31656   3.328   4.492   0.451 -0.0247 -0.0138 -0.6663
  976MOL0     C31657   3.321   4.478   0.585  0.3199  0.5616  0.4315
  976MOL0     C31658   3.430   4.471   0.669 -0.6618 -0.8588  0.4924
  976MOL0     C31659   3.557   4.468   0.607  0.7552  0.3290 -0.2776
  976MOL0     O31660   3.660   4.445   0.685 -0.5862 -0.1592 -0.5103
  976MOL0     C31661   3.783   4.520   0.664  0.4791 -0.7589  0.5870
  976MOL0     C31662   3.868   4.536   0.796 -0.4005  0.6073  0.8296
  976MOL0     C31663   3.897   4.409   0.878 -0.3681  0.0488 -0.0926
  976MOL0     C31664   3.975   4.291   0.807 -0.1244  0.0449  0.0193
  976MOL0     C31665   4.036   4.186   0.899 -0.7179 -0.1877  0.3276
  976MOL0     C31666   4.173   4.238   0.943 -0.5731  0.4198 -0.3441
  976MOL0     C31667   4.206   4.197   1.085  0.0406 -0.6138 -0.1405
  976MOL0     C31668   4.183   4.049   1.121  0.2357  0.2813  0.0453
  976MOL0    Cl31669   4.242   3.935   0.999 -0.4697 -0.3404 -0.1442
  976MOL0     C31670   3.569   4.476   0.462  0.3551 -0.2013 -0.0844
  976MOL0     C31671   3.454   4.492   0.384 -0.8755 -0.1515 -0.1935
  976MOL0     O31672   3.216   4.300   0.296 -1.0623  0.1955  0.4991
  976MOL0     C31673   2.992   4.329   0.125 -0.0596  0.0288  0.2906
  976MOL0     C31674   2.889   4.344   0.038  0.5008  0.5538  0.6814
  976MOL0     N31675   2.159   4.852   0.087  0.4908 -0.3519 -0.5854
  976MOL0     N31676   2.044   4.906   0.094  0.2026 -0.4484 -0.2430
  976MOL0     C31677   0.929   4.790   0.252  1.0759 -0.3843 -0.0502
  976MOL0     C31678   0.797   4.822   0.226  0.4261  0.5740  0.0988
  976MOL0     C31679   0.438   4.939   0.034  0.7353 -0.7065 -0.3753
  976MOL0     C31680   0.360   5.023   0.119 -0.1332  0.4542 -0.7596
  976MOL0     C31681   0.224   5.054   0.090 -0.3297  0.5822 -0.6283
  976MOL0     C31682   0.171   5.005  -0.023  0.4962 -0.6073  0.5734
  976MOL0     O31683   0.039   5.037  -0.045 -0.1402  0.0796 -0.4356
  976MOL0     C31684   0.028   5.143  -0.142 -0.0236  0.1338  1.3140
  976MOL0     C31685  -0.122   5.163  -0.180  0.0146 -0.3838 -0.0406
  976MOL0     C31686  -0.216   5.218  -0.068  0.3178  0.5510  0.4537
  976MOL0     C31687  -0.353   5.243  -0.125  0.0895  0.3266  0.0488
  976MOL0     C31688  -0.435   5.315  -0.024  1.2541 -0.2298  0.7277
  976MOL0     C31689  -0.474   5.363   0.078 -0.1896 -0.3814  0.2214
  976MOL0     C31690   0.247   4.941  -0.113 -0.0064 -0.7250 -0.2735
  976MOL0     C31691   0.382   4.908  -0.089 -0.3328 -0.2848 -0.1851
  976MOL0     C31692   0.449   4.826  -0.194  0.1318 -0.5147  0.1132
  976MOL0     H31693   0.721   4.546   0.045  1.2024 -2.3930  2.9936
  976MOL0     H31694   0.959   4.499   0.079  0.5351 -0.2905  0.6189
  976MOL0     H31695   1.154   4.794   0.381 -0.3174 -0.0382  0.4366
  976MOL0     H31696   1.195   4.625   0.418  0.0168 -0.9877 -0.7136
  976MOL0     H31697   1.375   4.627   0.247 -2.2409 -1.7208  1.8444
  976MOL0     H31698   1.399   4.738   0.381  0.4886 -1.9868 -0.1316
  976MOL0     H31699   1.344   4.935   0.227 -2.7923 -1.4108  2.9067
  976MOL0     H31700   1.331   4.818   0.097  1.7628 -2.0245  0.9303
  976MOL0     H31701   1.558   4.896   0.266  4.5182 -1.3297  0.2686
  976MOL0     H31702   1.573   4.737   0.179  4.1437  1.8382 -1.5557
  976MOL0     H31703   1.542   4.816  -0.031  0.9577  0.0679 -0.6444
  976MOL0     H31704   1.509   4.986   0.017  1.9383  1.1306 -0.5011
  976MOL0     H31705   1.748   5.017   0.095  3.6611 -1.4800 -0.0964
  976MOL0     H31706   1.773   4.842   0.060 -0.1578 -1.2617 -0.0345
  976MOL0     H31707   1.690   5.017  -0.168  0.3492 -1.4482 -1.3448
  976MOL0     H31708   1.769   4.866  -0.163  0.0216  1.4911 -2.7834
  976MOL0     H31709   1.953   5.046  -0.189  1.8075 -0.7801  1.8468
  976MOL0     H31710   1.905   5.122  -0.038  1.4118  1.7179 -3.0673
  976MOL0     H31711   2.057   4.852  -0.235  4.1235  0.1662 -1.2922
  976MOL0     H31712   2.303   4.706  -0.199  1.0564 -1.5708  0.2619
  976MOL0     H31713   2.390   4.832  -0.110  0.8832 -1.1830 -2.7458
  976MOL0     H31714   2.421   4.701   0.079  2.0252 -0.2822 -0.3152
  976MOL0     H31715   2.320   4.563   0.022 -1.7632  0.5075 -2.4265
  976MOL0     H31716   2.569   4.679  -0.104 -0.8184  0.8707 -1.8484
  976MOL0     H31717   2.475   4.542  -0.170 -0.2870  2.5522  0.2578
  976MOL0     H31718   2.527   4.392  -0.005 -0.4311  0.3827 -0.6157
  976MOL0     H31719   2.597   4.509   0.103  1.4285  1.6399 -0.5681
  976MOL0     H31720   2.829   4.674   0.082 -2.7843 -0.9527 -0.3494
  976MOL0     H31721   3.007   4.618   0.278 -0.2812 -1.2288  1.2351
  976MOL0     H31722   3.222   4.474   0.630  0.0385 -2.0586 -0.2480
  976MOL0     H31723   3.412   4.474   0.776  1.6571  2.4416  0.9452
  976MOL0     H31724   3.846   4.476   0.586  0.2146  1.0042 -0.6737
  976MOL0     H31725   3.764   4.624   0.636 -1.1000  0.3402  4.9370
  976MOL0     H31726   3.967   4.579   0.777 -0.5250 -0.0646 -1.7400
  976MOL0     H31727   3.814   4.607   0.860 -2.4272 -0.0542 -0.0536
  976MOL0     H31728   3.950   4.435   0.970  0.5100 -1.3242 -0.1910
  976MOL0     H31729   3.806   4.368   0.923  0.6264 -1.3254  0.7085
  976MOL0     H31730   4.056   4.341   0.755  1.7263 -2.0465  0.7446
  976MOL0     H31731   3.910   4.242   0.733  0.4536  2.2290 -2.0515
  976MOL0     H31732   4.039   4.089   0.849 -1.9387 -0.6513  1.1177
  976MOL0     H31733   3.969   4.167   0.983 -1.8811 -2.5454 -1.0456
  976MOL0     H31734   4.252   4.198   0.879 -0.9267 -0.7574 -0.0721
  976MOL0     H31735   4.175   4.347   0.946  1.2870  0.4007  0.6507
  976MOL0     H31736   4.156   4.266   1.154  3.6135  0.3615  1.7323
  976MOL0     H31737   4.312   4.214   1.106 -0.1957 -1.1995  1.7330
  976MOL0     H31738   4.227   4.030   1.219  0.4866  1.3295  0.1408
  976MOL0     H31739   4.074   4.035   1.124  0.3265 -0.7621 -0.8126
  976MOL0     H31740   3.667   4.481   0.415 -0.7955  0.7965 -2.5685
  976MOL0     H31741   3.453   4.482   0.276 -0.7002 -4.3016  0.0604
  976MOL0     H31742   3.050   4.237   0.120  1.6019  0.9181  1.6962
  976MOL0     H31743   2.865   4.263  -0.030  2.7920  0.4987 -0.1260
  976MOL0     H31744   0.970   4.870   0.313 -0.3692 -0.9606  1.7774
  976MOL0     H31745   0.742   4.909   0.261 -1.3233 -0.8869  1.1345
  976MOL0     H31746   0.402   5.051   0.215  3.2457 -1.0953 -1.6389
  976MOL0     H31747   0.164   5.120   0.152  1.8695  2.7807 -0.6826
  976MOL0     H31748   0.074   5.114  -0.237  0.1866  2.6181  0.5804
  976MOL0     H31749   0.083   5.226  -0.097 -0.6997  0.9063  0.7552
  976MOL0     H31750  -0.166   5.071  -0.219 -0.0417  0.1895 -1.3986
  976MOL0     H31751  -0.129   5.235  -0.263  3.5617 -0.5622 -0.6482
  976MOL0     H31752  -0.168   5.309  -0.030 -2.5214  1.3377  2.5268
  976MOL0     H31753  -0.222   5.141   0.009  0.5460  0.6590  0.5809
  976MOL0     H31754  -0.343   5.302  -0.217 -2.2069 -2.1165 -1.9481
  976MOL0     H31755  -0.399   5.146  -0.145  0.1773  0.1787  0.5414
  976MOL0     H31756  -0.502   5.414   0.169  3.7933 -0.5086  1.6972
  976MOL0     H31757   0.195   4.902  -0.200  0.1430  0.1223 -0.7605
  976MOL0     H31758   0.393   4.837  -0.288 -2.1459  0.3091  1.4819
  976MOL0     H31759   0.551   4.860  -0.217 -1.0465  1.7220 -2.4267
  976MOL0     H31760   0.448   4.718  -0.178 -2.6981 -0.7985 -1.3931
  977MOL0     O31761   2.741   1.619   0.865  0.9051 -0.2452 -0.3600
  977MOL0     C31762   2.797   1.559   0.959  1.1313 -0.2362  0.4954
  977MOL0     O31763   2.888   1.628   1.042  0.1286  0.1290 -0.6088
  977MOL0     C31764   2.982   1.715   0.990  0.2147  0.1638  0.2606
  977MOL0     C31765   3.063   1.774   1.081 -0.2330 -0.2647 -0.6217
  977MOL0     C31766   3.155   1.874   1.053  0.4058  0.2326  0.6372
  977MOL0     C31767   3.191   1.905   0.921 -0.2443  0.6612 -0.6932
  977MOL0     O31768   3.291   1.998   0.889  0.7897  0.0946 -0.8830
  977MOL0     C31769   3.365   1.978   0.769  0.0152  0.6610  0.7906
  977MOL0     C31770   3.494   2.064   0.765 -0.8215 -0.2016 -0.1982
  977MOL0     C31771   3.470   2.206   0.724  0.5931  0.0874  0.3369
  977MOL0     C31772   3.596   2.288   0.737  0.9907 -0.3765  0.0444
  977MOL0     C31773   3.588   2.434   0.694 -0.2623 -0.5667  0.8218
  977MOL0     C31774   3.713   2.514   0.683 -0.1919  0.9951 -0.3234
  977MOL0     C31775   3.806   2.473   0.795  0.1582 -0.0495 -0.4691
  977MOL0     C31776   3.950   2.514   0.777  0.4085  0.3649 -0.5941
  977MOL0     N31777   4.035   2.425   0.696 -0.0409  0.1802 -0.3605
  977MOL0     C31778   4.021   2.387   0.558  0.1184 -1.1436 -0.1852
  977MOL0     C31779   4.141   2.339   0.526 -1.0095 -0.4475  1.1380
  977MOL0     C31780   4.171   2.273   0.391  0.2000  0.3570  0.3430
  977MOL0     C31781   4.199   2.389   0.291 -0.1685 -0.2775 -0.1396
  977MOL0     C31782   4.306   2.332   0.202 -0.7275 -0.5174  0.8634
  977MOL0     C31783   4.448   2.319   0.254 -0.3916 -0.6396  1.1788
  977MOL0     O31784   4.497   2.458   0.273 -0.2428  0.3016 -0.1247
  977MOL0     C31785   4.611   2.470   0.352  0.2431 -1.2031 -0.7652
  977MOL0     C31786   4.697   2.371   0.377 -0.2546  0.4814  0.1563
  977MOL0     C31787   4.824   2.382   0.433 -0.9431 -0.0650 -0.0656
  977MOL0     C31788   4.874   2.516   0.474  1.3252 -0.2822 -1.0959
  977MOL0     C31789   5.008   2.532   0.527 -0.2728 -0.3332 -0.2492
  977MOL0     O31790   5.095   2.450   0.458  0.1067 -0.4934 -0.3677
  977MOL0     C31791   5.214   2.522   0.427  0.3184 -0.1751 -0.5293
  977MOL0     C31792   5.254   2.540   0.292 -0.0518  0.3065 -0.3972
  977MOL0     C31793   5.374   2.602   0.254 -0.6045 -0.7097 -0.0119
  977MOL0     C31794   5.460   2.661   0.348  0.1434 -0.9977 -0.4038
  977MOL0     O31795   5.569   2.739   0.326  0.3668 -0.4333 -0.5623
  977MOL0     C31796   5.621   2.784   0.199  0.4268  0.0041 -0.4952
  977MOL0     C31797   5.754   2.850   0.220 -0.6021  0.3012  0.2246
  977MOL0     C31798   5.854   2.743   0.276  0.4936 -0.2473 -0.1078
  977MOL0     C31799   5.983   2.818   0.294 -0.1134 -0.3511  0.8878
  977MOL0     C31800   6.080   2.717   0.348  0.0566 -0.6248 -0.0218
  977MOL0     C31801   6.211   2.789   0.367  0.6949 -0.1357 -0.1061
  977MOL0     C31802   6.317   2.686   0.414  0.3195  0.0490  0.5849
  977MOL0     C31803   6.455   2.742   0.425  0.9588 -0.6714 -0.4275
  977MOL0    Cl31804   6.505   2.826   0.274  0.0771 -0.0049 -0.2438
  977MOL0     C31805   5.420   2.643   0.476  0.2851 -0.2756 -0.8873
  977MOL0     C31806   5.303   2.571   0.516 -0.2553 -0.9657  0.3897
  977MOL0     O31807   5.036   2.629   0.603 -0.8249 -0.4363 -0.4077
  977MOL0     C31808   4.784   2.621   0.459  0.4888  0.2839  0.1080
  977MOL0     C31809   4.656   2.599   0.401  1.0910 -0.3207 -0.4185
  977MOL0     N31810   4.222   2.339   0.644 -0.0404  0.1875  0.0756
  977MOL0     N31811   4.159   2.392   0.742  0.3610  0.8672 -0.8462
  977MOL0     C31812   3.128   1.834   0.826  0.2996  0.7857  1.4756
  977MOL0     C31813   3.015   1.747   0.854  0.7151  0.4500 -0.0720
  977MOL0     C31814   2.748   1.425   0.987  0.2501  0.0365  0.0021
  977MOL0     C31815   2.633   1.377   0.913 -0.6394  0.2462  0.6614
  977MOL0     C31816   2.567   1.261   0.944 -0.2004 -0.9065 -0.8143
  977MOL0     C31817   2.623   1.178   1.038  0.1052  0.8024  0.2752
  977MOL0     O31818   2.564   1.060   1.080 -0.8285  0.3880  1.0895
  977MOL0     C31819   2.474   1.064   1.192  0.1441  0.1685 -0.3544
  977MOL0     C31820   2.374   1.173   1.193  0.6393  1.5490 -0.0089
  977MOL0     C31821   2.284   1.149   1.311 -0.7678  0.5817 -0.4924
  977MOL0     C31822   2.211   1.273   1.363 -0.3574  0.3519  0.2521
  977MOL0     C31823   2.288   1.379   1.425  0.3163 -0.1103 -0.5944
  977MOL0     C31824   2.360   1.473   1.465  0.4634  0.3006 -0.4628
  977MOL0     C31825   2.742   1.209   1.089  0.3216  0.0153 -0.6415
  977MOL0     C31826   2.801   1.336   1.074 -0.3051 -0.7272  0.0565
  977MOL0     C31827   2.924   1.365   1.164  0.3312 -0.3390 -0.3630
  977MOL0     H31828   3.047   1.744   1.184  1.7689  3.7605  1.0882
  977MOL0     H31829   3.210   1.926   1.131 -2.0928  2.6228  0.9724
  977MOL0     H31830   3.401   1.877   0.745 -1.1224  1.0876 -3.3967
  977MOL0     H31831   3.307   1.999   0.679  1.8782 -1.3174 -1.0216
  977MOL0     H31832   3.568   2.010   0.705 -1.9061  0.0494 -1.8205
  977MOL0     H31833   3.540   2.060   0.865  2.0708 -2.0375 -1.4604
  977MOL0     H31834   3.394   2.246   0.792 -0.0757 -1.4985  0.5789
  977MOL0     H31835   3.431   2.223   0.623 -0.5733  2.6842  1.1348
  977MOL0     H31836   3.632   2.287   0.840 -1.5662 -0.7291  1.0259
  977MOL0     H31837   3.673   2.257   0.665  2.7221  1.0517  1.2024
  977MOL0     H31838   3.537   2.440   0.598  2.4222  1.0899 -0.6217
  977MOL0     H31839   3.527   2.478   0.774 -0.8041  1.5417 -0.6606
  977MOL0     H31840   3.763   2.500   0.587 -0.1501 -3.3181  0.1367
  977MOL0     H31841   3.699   2.621   0.697 -1.0959  1.0251 -1.3688
  977MOL0     H31842   3.810   2.364   0.809  1.7831  0.1537  1.0823
  977MOL0     H31843   3.767   2.514   0.889  0.7175  2.4217 -1.2443
  977MOL0     H31844   3.959   2.611   0.728 -0.0637  1.1351  0.7908
  977MOL0     H31845   3.988   2.525   0.878 -2.6264  1.6060  0.5305
  977MOL0     H31846   3.929   2.383   0.500  0.4814 -1.9867 -0.7265
  977MOL0     H31847   4.261   2.214   0.414 -0.8600 -0.7719  1.9031
  977MOL0     H31848   4.090   2.210   0.353  0.6620 -0.4713  0.6985
  977MOL0     H31849   4.106   2.396   0.233 -0.6453 -3.3083  0.0786
  977MOL0     H31850   4.230   2.483   0.337  0.0878 -0.6424  0.4465
  977MOL0     H31851   4.305   2.395   0.113 -2.8034 -1.2326  0.3319
  977MOL0     H31852   4.270   2.236   0.164 -1.3890 -0.5829  1.6089
  977MOL0     H31853   4.507   2.271   0.175 -3.2294 -0.1230 -1.4455
  977MOL0     H31854   4.441   2.251   0.339 -1.7017 -3.1625 -0.8204
  977MOL0     H31855   4.679   2.268   0.346  1.4532 -0.8123  3.0249
  977MOL0     H31856   4.886   2.296   0.457  2.4387  1.3344 -2.8941
  977MOL0     H31857   5.194   2.507   0.208  3.1137  0.1664 -2.7750
  977MOL0     H31858   5.401   2.617   0.150 -0.5401  0.5881  0.1738
  977MOL0     H31859   5.643   2.698   0.135  2.7877 -1.5426  2.1472
  977MOL0     H31860   5.552   2.857   0.157  0.5319  1.7926  2.1601
  977MOL0     H31861   5.789   2.875   0.120  0.3655  3.1746  1.1802
  977MOL0     H31862   5.751   2.940   0.282 -1.6103  2.2879 -2.5119
  977MOL0     H31863   5.820   2.710   0.375  3.3929  2.6758  2.0648
  977MOL0     H31864   5.855   2.657   0.208 -2.6588 -1.4728  1.1608
  977MOL0     H31865   5.972   2.892   0.373 -0.5655 -0.5145  0.9800
  977MOL0     H31866   6.019   2.855   0.197 -0.0022 -4.2083 -0.7346
  977MOL0     H31867   6.078   2.641   0.270  1.5317  0.7379 -1.4450
  977MOL0     H31868   6.042   2.674   0.441  2.2180 -0.3110  1.0585
  977MOL0     H31869   6.239   2.828   0.269 -0.4935 -1.1120 -0.8681
  977MOL0     H31870   6.201   2.870   0.439  0.4309 -0.4592  0.2295
  977MOL0     H31871   6.323   2.606   0.340  2.8914 -0.8994  1.7373
  977MOL0     H31872   6.289   2.650   0.513  1.8959 -1.4877  0.5192
  977MOL0     H31873   6.450   2.819   0.502 -1.6254  0.5156 -1.6510
  977MOL0     H31874   6.529   2.664   0.444  1.9316  0.0366 -1.2083
  977MOL0     H31875   5.478   2.687   0.557 -2.1448  1.1861  0.1865
  977MOL0     H31876   5.294   2.553   0.622  4.0327 -0.2711  1.0405
  977MOL0     H31877   4.814   2.719   0.493  0.4519  0.3181  0.0410
  977MOL0     H31878   4.602   2.693   0.397  1.6929  0.3713  3.5762
  977MOL0     H31879   3.146   1.845   0.720  1.2394 -4.2569  0.8692
  977MOL0     H31880   2.958   1.698   0.776 -0.8129 -1.0073  1.8680
  977MOL0     H31881   2.575   1.439   0.845 -0.7936 -0.8999 -0.2744
  977MOL0     H31882   2.473   1.238   0.893 -1.3621  0.1662  0.7474
  977MOL0     H31883   2.538   1.063   1.281  0.9790  1.6004 -0.9081
  977MOL0     H31884   2.423   0.968   1.208 -1.0254  0.7700 -0.3490
  977MOL0     H31885   2.309   1.171   1.105 -0.7621  2.9488  0.9468
  977MOL0     H31886   2.419   1.272   1.194  2.7865  0.6320  0.0879
  977MOL0     H31887   2.341   1.125   1.402 -1.2657  4.4731  1.0562
  977MOL0     H31888   2.213   1.067   1.298  1.5387 -1.5950 -0.1037
  977MOL0     H31889   2.173   1.310   1.268  1.0512 -0.0506 -0.5083
  977MOL0     H31890   2.127   1.255   1.430 -2.1762  2.0173 -1.4673
  977MOL0     H31891   2.408   1.567   1.483  0.1509  0.7299 -1.7611
  977MOL0     H31892   2.777   1.140   1.165 -1.5968  1.3619  1.6151
  977MOL0     H31893   3.010   1.343   1.100 -0.8595 -2.7144 -1.2464
  977MOL0     H31894   2.915   1.455   1.225 -1.5384 -2.2530  2.4115
  977MOL0     H31895   2.917   1.283   1.235 -1.8290 -0.7019 -0.9097
  978MOL0     O31896   1.254   8.476  11.029  0.2378 -0.0642 -0.0814
  978MOL0     C31897   1.179   8.560  10.965 -0.5502  0.9668 -0.3080
  978MOL0     O31898   1.154   8.690  10.994 -0.2261  0.3083 -1.0142
  978MOL0     C31899   1.187   8.738  11.126 -0.5098  0.1875 -1.0185
  978MOL0     C31900   1.090   8.791  11.208 -0.6449  0.1887  0.0035
  978MOL0     C31901   1.118   8.823  11.343  0.0161  0.5297 -0.1307
  978MOL0     C31902   1.246   8.812  11.391 -0.9881  0.7214 -0.6239
  978MOL0     O31903   1.253   8.825  11.526 -0.2744 -0.3002 -0.1644
  978MOL0     C31904   1.344   8.745  11.602  0.2498 -0.1923 -0.3141
  978MOL0     C31905   1.286   8.717  11.735  0.3669 -0.2406 -0.2461
  978MOL0     C31906   1.148   8.654  11.715 -0.0590 -0.2141 -0.1068
  978MOL0     C31907   1.130   8.521  11.639 -0.0197 -0.3641  0.8619
  978MOL0     C31908   1.215   8.402  11.696 -0.1753 -0.9749  0.2321
  978MOL0     C31909   1.173   8.266  11.623  0.3868  0.1640  0.2500
  978MOL0     C31910   1.224   8.137  11.693  0.1398 -0.1772 -0.3876
  978MOL0     C31911   1.162   8.012  11.643 -0.0002  0.2644  0.0402
  978MOL0     N31912   1.207   7.985  11.506 -0.1025  0.5612  0.2401
  978MOL0     C31913   1.149   8.030  11.385 -0.2246  0.3082 -0.4372
  978MOL0     C31914   1.232   7.970  11.287  0.1618 -0.4228 -0.3603
  978MOL0     C31915   1.215   8.001  11.139 -1.0289 -0.5846  0.0686
  978MOL0     C31916   1.289   7.893  11.055 -0.8548  0.2181  0.2314
  978MOL0     C31917   1.310   7.942  10.916 -0.8145  0.6465 -0.0813
  978MOL0     C31918   1.188   7.925  10.825  0.0440  0.4474 -0.4656
  978MOL0     O31919   1.241   7.963  10.698  0.0797  0.5118  0.7882
  978MOL0     C31920   1.153   7.983  10.592 -0.2877 -0.0530 -0.5517
  978MOL0     C31921   1.019   7.963  10.597 -0.0322  0.0280 -0.2119
  978MOL0     C31922   0.935   7.998  10.489 -0.5358 -0.2753 -0.2615
  978MOL0     C31923   0.994   8.046  10.366  0.1896  0.2269  0.4464
  978MOL0     C31924   0.911   8.082  10.254  0.0948 -0.4358  0.1806
  978MOL0     O31925   0.778   8.045  10.260 -0.0069  0.3596 -0.6023
  978MOL0     C31926   0.706   8.068  10.148  0.0901 -0.1654  0.1428
  978MOL0     C31927   0.668   8.190  10.108 -0.4873  0.1967 -0.4212
  978MOL0     C31928   0.589   8.198   9.988 -0.1395 -0.5333 -1.0780
  978MOL0     C31929   0.585   8.090   9.897  1.2486  1.0653 -0.5338
  978MOL0     O31930   0.530   8.090   9.775  0.4586  0.8765  0.4682
  978MOL0     C31931   0.413   8.171   9.739  0.9544 -0.3574  0.4827
  978MOL0     C31932   0.318   8.101   9.645  0.0409  0.6217 -0.5285
  978MOL0     C31933   0.388   8.057   9.511  0.0700  0.1831  0.4779
  978MOL0     C31934   0.281   7.987   9.415 -0.7932 -0.4030 -0.4831
  978MOL0     C31935   0.272   8.064   9.291 -0.0273 -0.0134  0.3012
  978MOL0     C31936   0.187   8.191   9.308  0.2489  0.6742 -0.2566
  978MOL0     C31937   0.189   8.281   9.177  0.1886 -0.1527 -0.3678
  978MOL0     C31938   0.325   8.337   9.141  0.5298 -0.3896  0.1114
  978MOL0    Cl31939   0.303   8.459   9.021 -0.2161 -0.3211  0.5786
  978MOL0     C31940   0.622   7.971   9.945 -0.9352 -0.4169 -0.3061
  978MOL0     C31941   0.677   7.953  10.070  0.3941  0.3575 -0.8350
  978MOL0     O31942   0.967   8.138  10.160  0.7721 -0.2046 -0.4489
  978MOL0     C31943   1.132   8.065  10.362  0.2600 -0.2849 -0.3193
  978MOL0     C31944   1.209   8.023  10.476  0.7149  0.5495  0.5667
  978MOL0     N31945   1.334   7.891  11.345  0.5244 -0.3323  0.4774
  978MOL0     N31946   1.314   7.897  11.468  1.6059 -0.1439 -0.4508
  978MOL0     C31947   1.349   8.773  11.316  0.1439  0.1758  0.3247
  978MOL0     C31948   1.318   8.730  11.181 -0.1872 -0.2267 -0.2938
  978MOL0     C31949   1.100   8.512  10.856  0.0990 -0.3047 -0.1841
  978MOL0     C31950   0.964   8.537  10.848  0.8834  0.2396  0.3202
  978MOL0     C31951   0.881   8.471  10.753  0.5784 -0.0524 -0.5733
  978MOL0     C31952   0.929   8.385  10.657  0.2642  0.8039 -0.0371
  978MOL0     O31953   0.849   8.333  10.553 -0.3374  0.5602 -0.3893
  978MOL0     C31954   0.712   8.384  10.529 -0.1011  0.0775  0.0573
  978MOL0     C31955   0.716   8.520  10.464 -0.0641  0.5150 -1.0150
  978MOL0     C31956   0.577   8.573  10.456  0.3310  0.0191  0.1618
  978MOL0     C31957   0.513   8.532  10.328  0.3602  0.0793 -0.3873
  978MOL0     C31958   0.377   8.574  10.321  0.5950 -1.6052  0.0695
  978MOL0     C31959   0.260   8.603  10.311  0.7643  0.6917 -0.0579
  978MOL0     C31960   1.066   8.352  10.666 -0.2201  0.4265 -0.0677
  978MOL0     C31961   1.149   8.421  10.759  0.6105  1.4599  0.1805
  978MOL0     C31962   1.294   8.385  10.750 -0.0450  0.2282  0.0476
  978MOL0     H31963   0.993   8.821  11.170 -1.2519 -1.3870  0.2251
  978MOL0     H31964   1.028   8.862  11.390 -0.6477  2.7276 -2.8788
  978MOL0     H31965   1.373   8.655  11.547  1.1616  0.0369 -0.2250
  978MOL0     H31966   1.435   8.803  11.621 -0.1007  0.6879 -1.2626
  978MOL0     H31967   1.278   8.810  11.792  0.2637 -1.5358  1.9629
  978MOL0     H31968   1.349   8.645  11.788  0.3711 -1.6446 -2.0539
  978MOL0     H31969   1.080   8.715  11.656 -2.7952 -2.5040  0.4664
  978MOL0     H31970   1.100   8.651  11.813 -0.3424  0.4227 -0.2247
  978MOL0     H31971   1.024   8.495  11.651 -0.3119  0.0101 -0.7515
  978MOL0     H31972   1.157   8.540  11.535  1.5379 -0.6838  1.1858
  978MOL0     H31973   1.321   8.426  11.680 -0.5811 -0.2794 -1.6815
  978MOL0     H31974   1.192   8.405  11.803  2.7872  0.0178  0.9379
  978MOL0     H31975   1.064   8.266  11.631  0.4037  1.3043  0.5433
  978MOL0     H31976   1.191   8.279  11.515  0.5481  0.4496  0.3124
  978MOL0     H31977   1.209   8.151  11.800  0.2535  0.1403 -0.4116
  978MOL0     H31978   1.333   8.132  11.679  0.5268  0.8305  1.8163
  978MOL0     H31979   1.209   7.936  11.705  1.6026  1.6120  0.5619
  978MOL0     H31980   1.054   8.007  11.660  0.5152 -2.0928  3.6194
  978MOL0     H31981   1.067   8.099  11.370 -0.3297  1.0942  2.9611
  978MOL0     H31982   1.111   8.008  11.107 -1.2662 -0.6588  0.8212
  978MOL0     H31983   1.256   8.101  11.121 -3.3309  0.4261  0.0598
  978MOL0     H31984   1.391   7.880  11.092  0.1693  3.3336 -1.1445
  978MOL0     H31985   1.247   7.792  11.056  2.0387 -1.0755  0.0399
  978MOL0     H31986   1.389   7.875  10.881  1.1411  0.7784  3.6168
  978MOL0     H31987   1.344   8.046  10.920  0.3187  0.2999  4.0525
  978MOL0     H31988   1.099   7.973  10.866 -0.6288 -2.5848  1.9765
  978MOL0     H31989   1.160   7.820  10.813 -0.2245  0.8168 -4.7020
  978MOL0     H31990   0.971   7.932  10.689  2.0549  1.0966  1.3033
  978MOL0     H31991   0.828   7.984  10.480 -1.0085  3.0475 -1.3374
  978MOL0     H31992   0.699   8.269  10.175 -1.7943 -1.4247  2.2831
  978MOL0     H31993   0.543   8.290   9.953 -1.5769 -2.0533 -3.4847
  978MOL0     H31994   0.357   8.180   9.833  0.8369  1.2136  0.2878
  978MOL0     H31995   0.443   8.269   9.700  0.0662  0.4771  1.8219
  978MOL0     H31996   0.274   8.015   9.697 -0.0077  2.8796  3.6313
  978MOL0     H31997   0.229   8.164   9.638  0.6722  1.5538 -0.3404
  978MOL0     H31998   0.419   8.148   9.459  0.8109  0.2448  1.0120
  978MOL0     H31999   0.472   7.991   9.537 -1.7353 -3.1149 -1.3576
  978MOL0     H32000   0.182   7.974   9.459 -2.2779 -0.9263 -3.7033
  978MOL0     H32001   0.312   7.887   9.384 -3.0141 -2.3307  2.8533
  978MOL0     H32002   0.230   7.998   9.214 -0.3456 -0.4562  0.8536
  978MOL0     H32003   0.373   8.093   9.258 -0.0626  2.4292  2.0906
  978MOL0     H32004   0.086   8.152   9.328  0.0523  1.8704  1.2786
  978MOL0     H32005   0.215   8.262   9.387  1.9164  2.8546 -2.6365
  978MOL0     H32006   0.119   8.365   9.187 -0.6356 -0.6215 -1.8875
  978MOL0     H32007   0.166   8.229   9.084 -0.2277  1.0554 -0.9644
  978MOL0     H32008   0.373   8.398   9.219  4.0693 -0.5450 -1.7239
  978MOL0     H32009   0.405   8.273   9.101  3.9019  1.9345  2.5178
  978MOL0     H32010   0.607   7.891   9.873  0.2495 -0.5706 -0.4011
  978MOL0     H32011   0.724   7.862  10.107 -0.3919  0.4945  0.5784
  978MOL0     H32012   1.172   8.103  10.269  0.2738 -1.4719 -0.8121
  978MOL0     H32013   1.311   8.060  10.475  0.1675  2.1331 -0.8143
  978MOL0     H32014   1.444   8.759  11.365 -1.3673 -2.9703  2.7034
  978MOL0     H32015   1.399   8.683  11.126 -0.3830 -0.9122 -0.0077
  978MOL0     H32016   0.912   8.605  10.915  3.7386  2.2853  0.6177
  978MOL0     H32017   0.775   8.494  10.748  0.3259 -1.1632 -0.5217
  978MOL0     H32018   0.648   8.379  10.617  0.7089 -2.4541  0.5983
  978MOL0     H32019   0.646   8.324  10.465 -1.4796 -1.5699  2.8187
  978MOL0     H32020   0.755   8.512  10.362 -0.1219  1.2411 -1.0999
  978MOL0     H32021   0.775   8.581  10.534 -0.0424  0.2180 -0.7738
  978MOL0     H32022   0.574   8.683  10.463 -1.0293 -0.0910  2.1429
  978MOL0     H32023   0.502   8.538  10.527 -2.1772 -0.5496 -2.6021
  978MOL0     H32024   0.566   8.560  10.237  4.2941 -0.7583  1.4502
  978MOL0     H32025   0.522   8.423  10.327  4.1614  0.2604 -0.9825
  978MOL0     H32026   0.159   8.639  10.303  0.5607  1.1599  3.2391
  978MOL0     H32027   1.107   8.280  10.595  1.3630  0.4527  0.7619
  978MOL0     H32028   1.350   8.477  10.773 -1.0892  0.6541  0.9873
  978MOL0     H32029   1.310   8.293  10.806 -1.5628  0.2448  0.5371
  978MOL0     H32030   1.311   8.363  10.645 -0.3488  0.7907 -0.1259
  979MOL0     O32031   5.154   5.956   3.396 -0.5329 -0.2244 -0.0446
  979MOL0     C32032   5.091   5.893   3.312 -0.5905 -0.8546  0.7804
  979MOL0     O32033   5.144   5.802   3.222  0.0913 -0.0056  0.3138
  979MOL0     C32034   5.279   5.816   3.186  0.4835 -0.4990 -0.8390
  979MOL0     C32035   5.343   5.695   3.157  0.5239 -0.8289  0.3699
  979MOL0     C32036   5.480   5.686   3.133  0.4922  0.0923 -0.2105
  979MOL0     C32037   5.557   5.803   3.121  0.8436  0.0858  0.1525
  979MOL0     O32038   5.689   5.784   3.091  0.4805 -0.1747 -0.2802
  979MOL0     C32039   5.779   5.894   3.135  1.2235  0.1004  0.1641
  979MOL0     C32040   5.925   5.831   3.121  0.0225  0.6400 -0.6048
  979MOL0     C32041   6.031   5.933   3.173  0.0712 -0.3012  0.2447
  979MOL0     C32042   6.173   5.872   3.156  0.0360 -0.4657 -0.0552
  979MOL0     C32043   6.267   5.953   3.248 -0.7475  0.7307  0.6704
  979MOL0     C32044   6.423   5.925   3.231  0.5963 -0.9397 -0.0392
  979MOL0     C32045   6.489   6.052   3.274 -0.7282 -0.1191  0.2457
  979MOL0     C32046   6.641   6.054   3.269  0.2309  0.3413  0.0322
  979MOL0     N32047   6.699   5.945   3.346 -0.6238  0.0897 -0.0809
  979MOL0     C32048   6.780   5.845   3.296 -0.2973 -0.4998 -0.3437
  979MOL0     C32049   6.817   5.765   3.403  1.0054  0.3584 -0.4271
  979MOL0     C32050   6.928   5.660   3.390 -0.3649 -0.1982  0.1283
  979MOL0     C32051   6.960   5.589   3.522 -0.3594  0.2024  0.4110
  979MOL0     C32052   6.842   5.496   3.578 -0.7684  0.1358  0.9335
  979MOL0     C32053   6.857   5.433   3.715 -0.1420 -0.2930 -0.7626
  979MOL0     O32054   6.975   5.352   3.711 -0.2174  0.0283  0.0863
  979MOL0     C32055   7.053   5.369   3.823 -0.1721 -0.0920 -0.4585
  979MOL0     C32056   7.193   5.341   3.811  0.5591 -0.0862  0.7447
  979MOL0     C32057   7.273   5.329   3.924 -0.7738  1.0198 -0.6317
  979MOL0     C32058   7.218   5.342   4.056  0.1529  0.1662  1.0563
  979MOL0     C32059   7.314   5.343   4.174  0.4254  0.0771  0.0419
  979MOL0     O32060   7.267   5.411   4.290  0.1752 -0.1087  0.3310
  979MOL0     C32061   7.326   5.384   4.410  1.0088 -0.5477 -0.2766
  979MOL0     C32062   7.319   5.252   4.454  0.1076  1.0417  0.4575
  979MOL0     C32063   7.364   5.216   4.572 -0.2571  0.7938 -0.4416
  979MOL0     C32064   7.405   5.316   4.660 -0.2492 -0.5704  1.2595
  979MOL0     O32065   7.453   5.298   4.784  0.8061 -0.6901 -0.5903
  979MOL0     C32066   7.410   5.174   4.847  0.0426  0.7445  0.3380
  979MOL0     C32067   7.457   5.161   5.004  0.0617 -0.2816  1.4318
  979MOL0     C32068   7.606   5.128   5.001 -0.3334 -0.6936  0.5888
  979MOL0     C32069   7.634   4.979   4.960  0.4571  0.9346 -0.5367
  979MOL0     C32070   7.779   4.940   4.991 -0.2799  0.1645  0.2814
  979MOL0     C32071   7.884   5.038   4.920 -1.0583  0.0372  0.8582
  979MOL0     C32072   7.896   5.045   4.770  0.4357 -0.7459  0.2706
  979MOL0     C32073   8.028   5.106   4.721  0.0941  0.9232  0.5149
  979MOL0    Cl32074   8.170   4.997   4.755 -0.0267 -0.4763  0.0683
  979MOL0     C32075   7.424   5.449   4.616 -0.7345  0.3485 -0.5908
  979MOL0     C32076   7.377   5.483   4.494  0.0786 -0.8295  0.0527
  979MOL0     O32077   7.423   5.295   4.161  0.8514  0.6976 -0.6214
  979MOL0     C32078   7.084   5.384   4.066  0.3904  0.1965  0.5051
  979MOL0     C32079   7.007   5.389   3.950  0.6155  0.0912  0.3052
  979MOL0     N32080   6.757   5.820   3.514 -0.0703  0.4435  0.4954
  979MOL0     N32081   6.683   5.921   3.483 -0.1432 -0.1211 -0.3742
  979MOL0     C32082   5.493   5.925   3.158  0.2409  1.0607  0.0051
  979MOL0     C32083   5.359   5.930   3.186 -0.3478  0.0568  0.7207
  979MOL0     C32084   4.944   5.896   3.329 -0.2688 -1.8865 -0.2655
  979MOL0     C32085   4.878   5.792   3.271 -1.5979  1.0334  0.0156
  979MOL0     C32086   4.741   5.781   3.281  0.5364  0.0590 -0.8590
  979MOL0     C32087   4.660   5.877   3.346 -0.8237 -1.1660 -0.0656
  979MOL0     O32088   4.524   5.883   3.358  0.2229 -0.4626  0.0255
  979MOL0     C32089   4.441   5.776   3.337  0.2271  0.0117 -0.7584
  979MOL0     C32090   4.311   5.815   3.253  0.3935 -0.4783 -0.2048
  979MOL0     C32091   4.341   5.822   3.103  0.9586  0.0345  0.1034
  979MOL0     C32092   4.444   5.735   3.040  0.1542  0.9871 -0.3104
  979MOL0     C32093   4.407   5.588   3.059  0.6944 -0.3439 -0.3383
  979MOL0     C32094   4.382   5.471   3.070 -0.2129 -0.6620 -0.0000
  979MOL0     C32095   4.730   5.987   3.396  0.0522 -0.0272 -0.3736
  979MOL0     C32096   4.869   5.997   3.387  0.0230 -0.3926  0.0239
  979MOL0     C32097   4.938   6.117   3.433 -0.1253  0.7093 -0.6466
  979MOL0     H32098   5.287   5.602   3.168 -0.6431 -0.4353 -1.6992
  979MOL0     H32099   5.520   5.587   3.115 -0.7207 -0.5341  0.4750
  979MOL0     H32100   5.774   5.978   3.065 -1.3465 -1.6510 -1.9653
  979MOL0     H32101   5.759   5.932   3.236 -1.7929 -1.7076  0.3706
  979MOL0     H32102   5.950   5.803   3.018  0.8643 -0.5291 -0.1051
  979MOL0     H32103   5.926   5.735   3.174  3.0030 -0.3986 -2.3365
  979MOL0     H32104   6.012   5.965   3.275  0.3787  0.1614  0.1589
  979MOL0     H32105   6.029   6.024   3.112  0.1546  0.4274  1.3038
  979MOL0     H32106   6.169   5.769   3.194  2.5958 -0.0832  1.4771
  979MOL0     H32107   6.200   5.870   3.050 -1.1575  0.2765 -0.3929
  979MOL0     H32108   6.243   6.060   3.241 -1.4366  0.4842 -1.3698
  979MOL0     H32109   6.230   5.925   3.348 -2.0035 -1.3734 -0.3096
  979MOL0     H32110   6.463   5.841   3.290  0.3742 -0.4675  0.8051
  979MOL0     H32111   6.437   5.893   3.128 -3.4098 -1.1190 -0.6670
  979MOL0     H32112   6.462   6.073   3.378 -0.7251 -1.3466  0.5101
  979MOL0     H32113   6.457   6.144   3.224  4.1861  2.4472  1.1864
  979MOL0     H32114   6.678   6.053   3.166  2.6031 -1.3089  0.7964
  979MOL0     H32115   6.683   6.151   3.299  1.8935  0.1974 -1.6118
  979MOL0     H32116   6.836   5.837   3.203 -0.5931  0.0042 -0.5707
  979MOL0     H32117   6.904   5.576   3.324 -0.0131 -3.0564  3.3705
  979MOL0     H32118   7.007   5.725   3.352  0.4854  0.0088  2.1435
  979MOL0     H32119   7.052   5.531   3.512  1.8059  2.4606  4.5496
  979MOL0     H32120   6.972   5.670   3.595  0.6297  1.9348 -1.5899
  979MOL0     H32121   6.833   5.407   3.515 -5.0651 -0.2620  1.7496
  979MOL0     H32122   6.741   5.540   3.574 -0.4270  0.8600 -0.0563
  979MOL0     H32123   6.766   5.380   3.743 -1.2777  0.5816 -2.5821
  979MOL0     H32124   6.875   5.517   3.782 -2.5443  0.8180 -1.4070
  979MOL0     H32125   7.238   5.325   3.714  0.8939  2.5862  0.3676
  979MOL0     H32126   7.378   5.306   3.907 -0.4820  0.2958  1.7676
  979MOL0     H32127   7.292   5.171   4.387  2.2083 -0.0595  0.8521
  979MOL0     H32128   7.369   5.112   4.599  1.5719  0.9493 -0.0703
  979MOL0     H32129   7.302   5.160   4.843  0.2472 -2.1101  1.9102
  979MOL0     H32130   7.450   5.090   4.790  1.4580  0.2907  1.8887
  979MOL0     H32131   7.442   5.258   5.053  0.6565  0.1173  0.8563
  979MOL0     H32132   7.402   5.082   5.055  0.7930 -0.4590  1.9655
  979MOL0     H32133   7.656   5.193   4.929 -0.3544 -0.7948  0.4822
  979MOL0     H32134   7.651   5.158   5.096  1.5074 -1.4884  0.0046
  979MOL0     H32135   7.612   4.970   4.853  1.6629  0.4651 -0.7596
  979MOL0     H32136   7.566   4.913   5.015 -0.9988  0.8756 -2.3131
  979MOL0     H32137   7.802   4.844   4.945  2.2093  1.7264 -2.1191
  979MOL0     H32138   7.799   4.943   5.099  1.2382  0.8289  0.0166
  979MOL0     H32139   7.859   5.134   4.966 -1.3023 -0.2078  1.2429
  979MOL0     H32140   7.978   5.004   4.966  0.5692  2.5800 -0.3838
  979MOL0     H32141   7.817   5.113   4.738 -0.2406 -1.1558  1.0176
  979MOL0     H32142   7.867   4.951   4.723  0.4955 -0.0080 -1.2795
  979MOL0     H32143   8.030   5.110   4.612  1.6568 -2.2532  0.3023
  979MOL0     H32144   8.044   5.209   4.752 -0.1768  0.6607  1.5837
  979MOL0     H32145   7.473   5.520   4.681 -1.2270  0.1096  0.0573
  979MOL0     H32146   7.367   5.589   4.473 -0.7015 -1.3445 -2.5331
  979MOL0     H32147   7.041   5.417   4.160  0.4254  2.9377 -0.3323
  979MOL0     H32148   6.901   5.409   3.948  0.7313  0.7335 -0.0424
  979MOL0     H32149   5.546   6.020   3.160 -1.0070  1.7738  0.7826
  979MOL0     H32150   5.314   6.026   3.208 -2.6259 -0.2686 -2.0047
  979MOL0     H32151   4.926   5.718   3.208  2.1555 -0.2990  4.0144
  979MOL0     H32152   4.697   5.687   3.250  1.2188 -0.3048 -0.7453
  979MOL0     H32153   4.412   5.766   3.442 -1.8706  3.1130 -0.9006
  979MOL0     H32154   4.487   5.680   3.315 -0.1496 -0.1853 -0.6988
  979MOL0     H32155   4.272   5.913   3.283  0.2772 -0.1165 -1.4748
  979MOL0     H32156   4.227   5.753   3.286 -0.2635  1.8506  3.0760
  979MOL0     H32157   4.380   5.923   3.092  2.8215 -0.2995  2.5630
  979MOL0     H32158   4.248   5.802   3.049 -0.2088 -1.5564  2.4797
  979MOL0     H32159   4.448   5.769   2.936 -0.7169  2.4584  0.1147
  979MOL0     H32160   4.539   5.749   3.093  1.6610 -2.0539 -1.8910
  979MOL0     H32161   4.363   5.365   3.063  2.6778 -1.2440 -0.6840
  979MOL0     H32162   4.670   6.057   3.454  0.4488  0.2876 -0.3301
  979MOL0     H32163   5.007   6.151   3.355  0.2846 -1.9739 -1.5404
  979MOL0     H32164   4.856   6.186   3.454 -1.1608 -0.6756 -0.0087
  979MOL0     H32165   4.994   6.114   3.526 -0.7368  3.4285 -0.0847
  980MOL0     O32166   9.443   7.219   8.268  0.0941  0.3886  0.0524
  980MOL0     C32167   9.525   7.173   8.184  0.1717  0.5868  0.0219
  980MOL0     O32168   9.485   7.105   8.063 -0.8957 -1.0635  0.3458
  980MOL0     C32169   9.355   7.095   8.022  0.3241  1.0153  0.3870
  980MOL0     C32170   9.258   7.042   8.097 -0.4479  0.6138 -0.5020
  980MOL0     C32171   9.129   7.043   8.065 -0.6978 -0.7087 -0.2598
  980MOL0     C32172   9.087   7.106   7.946 -0.2853  0.9143  0.4004
  980MOL0     O32173   8.949   7.112   7.925 -0.3526  0.4127 -0.7777
  980MOL0     C32174   8.896   7.183   7.815  0.7451  0.1136  0.1405
  980MOL0     C32175   8.756   7.137   7.808 -0.0073 -0.3898  0.6457
  980MOL0     C32176   8.664   7.211   7.702 -0.1981 -0.1317 -0.5790
  980MOL0     C32177   8.548   7.133   7.665 -0.0827 -0.2518  0.5172
  980MOL0     C32178   8.445   7.196   7.558  0.4371  0.0623 -0.5488
  980MOL0     C32179   8.392   7.336   7.610  0.3410 -0.0755 -0.2434
  980MOL0     C32180   8.258   7.367   7.550 -1.1476 -0.0357 -0.4672
  980MOL0     C32181   8.193   7.489   7.626 -0.0093  1.5766 -0.5700
  980MOL0     N32182   8.077   7.547   7.556 -0.0315  0.1816  0.2142
  980MOL0     C32183   7.953   7.492   7.540 -0.1229  0.8548 -0.0520
  980MOL0     C32184   7.878   7.586   7.482 -0.1551 -0.3074  0.4040
  980MOL0     C32185   7.732   7.581   7.436 -0.4450 -0.8223 -0.2124
  980MOL0     C32186   7.698   7.468   7.335 -0.3563  0.1941  0.2053
  980MOL0     C32187   7.641   7.349   7.407 -0.6759 -0.1657  0.2465
  980MOL0     C32188   7.578   7.240   7.313  0.2145 -0.3422 -0.3050
  980MOL0     O32189   7.649   7.218   7.192 -0.3101  0.2160 -0.7928
  980MOL0     C32190   7.773   7.166   7.197 -0.7938 -0.2683  0.0147
  980MOL0     C32191   7.822   7.085   7.304 -0.1010  0.2685  0.2442
  980MOL0     C32192   7.966   7.051   7.308  0.6603 -0.7017  0.1422
  980MOL0     C32193   8.052   7.088   7.203 -0.7766 -0.2294  0.2778
  980MOL0     C32194   8.202   7.071   7.210 -0.2723 -0.9741 -0.4117
  980MOL0     O32195   8.285   7.149   7.140 -0.8146  0.2576  0.1758
  980MOL0     C32196   8.420   7.130   7.132 -0.1318  0.8789 -0.4620
  980MOL0     C32197   8.509   7.239   7.145  0.3185  0.5186 -0.3922
  980MOL0     C32198   8.646   7.221   7.174  0.5710 -0.4495  0.8105
  980MOL0     C32199   8.692   7.090   7.155 -0.4156  0.8664  0.0526
  980MOL0     O32200   8.828   7.052   7.174  0.6176 -0.6824 -0.4456
  980MOL0     C32201   8.916   7.143   7.248  0.8817  0.1908 -0.6492
  980MOL0     C32202   9.000   7.052   7.317  0.0966 -0.2945 -0.1178
  980MOL0     C32203   8.933   6.964   7.423  0.0827  1.1626  0.5738
  980MOL0     C32204   9.012   6.855   7.495 -0.0567 -0.0194  0.0197
  980MOL0     C32205   9.145   6.911   7.557  0.1704  0.5017  0.0682
  980MOL0     C32206   9.223   6.795   7.620  0.3329 -0.3725  1.0643
  980MOL0     C32207   9.352   6.831   7.697  0.4196  0.1991 -0.3473
  980MOL0     C32208   9.455   6.907   7.618  0.1828 -0.5793 -0.2382
  980MOL0    Cl32209   9.608   6.928   7.699 -0.1187  0.0480 -0.0406
  980MOL0     C32210   8.605   6.976   7.141  0.3639 -0.4369 -0.0345
  980MOL0     C32211   8.472   6.994   7.123  0.5719 -0.9332 -0.0419
  980MOL0     O32212   8.233   6.976   7.282  0.1299  0.0526  0.0508
  980MOL0     C32213   7.994   7.160   7.097  0.0541 -0.5481 -0.2311
  980MOL0     C32214   7.857   7.196   7.092  0.3001 -0.1358 -0.2855
  980MOL0     N32215   7.955   7.703   7.477 -0.3376 -0.0214 -0.3288
  980MOL0     N32216   8.074   7.681   7.522  0.2071  0.1445 -0.6965
  980MOL0     C32217   9.187   7.158   7.863  0.0242 -0.0217 -0.0191
  980MOL0     C32218   9.327   7.149   7.899 -0.4280 -1.1674 -0.6229
  980MOL0     C32219   9.676   7.195   8.196  0.7762 -0.3797 -1.1454
  980MOL0     C32220   9.757   7.149   8.095  0.0197  0.4252  0.2081
  980MOL0     C32221   9.897   7.164   8.099  0.5955 -0.0734  0.0379
  980MOL0     C32222   9.951   7.229   8.212 -0.2046 -0.2305  0.5113
  980MOL0     O32223  10.088   7.258   8.208 -0.5710 -0.5353 -0.3976
  980MOL0     C32224  10.160   7.258   8.332  0.4668 -0.5986 -0.3105
  980MOL0     C32225  10.316   7.233   8.310  0.2238 -0.1808  0.6944
  980MOL0     C32226  10.393   7.225   8.440 -0.0622  0.0291  0.9662
  980MOL0     C32227  10.511   7.130   8.427  0.7660 -0.2140 -0.7879
  980MOL0     C32228  10.599   7.146   8.317 -0.7439 -0.1435  0.4276
  980MOL0     C32229  10.675   7.164   8.215  0.4782 -0.0877 -0.1641
  980MOL0     C32230   9.869   7.265   8.323 -0.7842  0.4034 -1.7003
  980MOL0     C32231   9.732   7.237   8.319  0.1576  0.2806 -0.2888
  980MOL0     C32232   9.641   7.270   8.447  0.6194  0.7813  0.4583
  980MOL0     H32233   9.283   6.997   8.193  3.4340  1.7813 -0.7919
  980MOL0     H32234   9.054   7.010   8.136 -0.2620 -1.4414 -0.1352
  980MOL0     H32235   8.900   7.292   7.828 -1.6704  0.0283  2.7515
  980MOL0     H32236   8.931   7.156   7.715  2.6460 -2.0519  1.3041
  980MOL0     H32237   8.714   7.147   7.908  1.6566  1.3990  1.2432
  980MOL0     H32238   8.765   7.030   7.788  1.5070 -0.0547 -0.6865
  980MOL0     H32239   8.715   7.230   7.607  0.4838 -0.3777 -0.2661
  980MOL0     H32240   8.619   7.298   7.751  0.7319 -0.6895  1.3830
  980MOL0     H32241   8.574   7.032   7.632  0.5563 -0.1568  0.7055
  980MOL0     H32242   8.496   7.121   7.760  1.0964 -2.7767  0.9343
  980MOL0     H32243   8.485   7.213   7.458 -1.0833 -3.7808 -2.0077
  980MOL0     H32244   8.359   7.128   7.555  0.8026 -0.4376  0.0708
  980MOL0     H32245   8.394   7.334   7.720 -1.4166 -2.6874 -0.1710
  980MOL0     H32246   8.468   7.409   7.579 -0.0640 -0.8610 -3.4136
  980MOL0     H32247   8.197   7.275   7.546 -1.4244  0.0074  1.5297
  980MOL0     H32248   8.275   7.392   7.445  2.3561 -1.9865 -0.4953
  980MOL0     H32249   8.156   7.449   7.721 -1.7681  1.0414 -1.4296
  980MOL0     H32250   8.258   7.573   7.651 -1.7177  2.8454 -0.1916
  980MOL0     H32251   7.910   7.396   7.565  2.8167 -0.7233 -0.6758
  980MOL0     H32252   7.661   7.582   7.519  0.9865 -1.5998  1.0948
  980MOL0     H32253   7.731   7.671   7.374 -1.7876 -2.3155 -2.4902
  980MOL0     H32254   7.624   7.498   7.260 -1.1528 -1.7736  0.1473
  980MOL0     H32255   7.783   7.443   7.270 -1.3017  2.0773 -1.9107
  980MOL0     H32256   7.562   7.381   7.475 -2.0401 -0.1687 -1.2589
  980MOL0     H32257   7.725   7.309   7.464 -0.0448  2.2948  1.1303
  980MOL0     H32258   7.485   7.281   7.273 -0.2732 -2.0424 -0.9932
  980MOL0     H32259   7.562   7.145   7.364  2.1591  0.4828  2.0441
  980MOL0     H32260   7.750   7.061   7.382 -0.5806 -0.1028 -0.3018
  980MOL0     H32261   8.005   7.010   7.400  2.8311 -0.3962 -0.5809
  980MOL0     H32262   8.465   7.338   7.146 -1.3312 -0.1885  0.6699
  980MOL0     H32263   8.712   7.306   7.194 -0.7755  0.9579 -0.4397
  980MOL0     H32264   8.975   7.202   7.178  0.4485 -0.4742 -1.5953
  980MOL0     H32265   8.879   7.207   7.329  0.7201 -0.1968 -0.4115
  980MOL0     H32266   9.048   6.994   7.237  1.4979 -0.2428  0.6499
  980MOL0     H32267   9.082   7.111   7.358  0.0080  1.5608 -2.3865
  980MOL0     H32268   8.900   7.036   7.498 -1.0845  2.9121 -1.4775
  980MOL0     H32269   8.839   6.925   7.384 -1.0374  3.6380  0.5615
  980MOL0     H32270   9.052   6.780   7.425  0.9526 -0.2218  0.7897
  980MOL0     H32271   8.952   6.801   7.568 -0.2155 -0.9726 -0.7928
  980MOL0     H32272   9.124   6.974   7.644  1.9096 -1.9634  2.4765
  980MOL0     H32273   9.207   6.969   7.487  0.4415  0.5459  0.3406
  980MOL0     H32274   9.148   6.746   7.683 -1.9249  2.2846  0.6446
  980MOL0     H32275   9.252   6.714   7.552  2.3139 -1.2642  2.8805
  980MOL0     H32276   9.410   6.744   7.730  3.0940  2.1102  0.2302
  980MOL0     H32277   9.323   6.895   7.781  3.5264 -1.0054  1.8207
  980MOL0     H32278   9.474   6.864   7.519 -0.0850 -2.5330  0.5129
  980MOL0     H32279   9.410   7.006   7.602  0.9697 -0.2077 -0.1763
  980MOL0     H32280   8.643   6.877   7.118  1.3625 -0.6747  2.4132
  980MOL0     H32281   8.396   6.916   7.110  1.3990 -1.5642 -1.2959
  980MOL0     H32282   8.064   7.188   7.019  1.0912 -5.6866 -1.5571
  980MOL0     H32283   7.823   7.270   7.021  4.2682  1.4862 -0.7420
  980MOL0     H32284   9.166   7.205   7.767  0.9118  1.1488  0.3248
  980MOL0     H32285   9.408   7.184   7.836  0.0588 -3.7961 -1.5722
  980MOL0     H32286   9.720   7.117   7.998 -0.9249 -0.0132  0.7039
  980MOL0     H32287   9.964   7.137   8.017 -0.5382  0.1143 -0.9880
  980MOL0     H32288  10.128   7.174   8.394  1.6785 -0.0031  1.1594
  980MOL0     H32289  10.140   7.352   8.383  2.4235  0.0813 -0.7259
  980MOL0     H32290  10.358   7.318   8.255 -0.0543  0.9032  2.0937
  980MOL0     H32291  10.324   7.144   8.246  0.8368  1.2247 -1.2766
  980MOL0     H32292  10.320   7.196   8.516 -0.9163  0.2469  0.2485
  980MOL0     H32293  10.431   7.322   8.473 -0.3706  0.3700  0.3427
  980MOL0     H32294  10.568   7.106   8.517 -0.1127 -7.0186 -1.5451
  980MOL0     H32295  10.467   7.037   8.392  2.3728 -0.2440 -2.9708
  980MOL0     H32296  10.742   7.169   8.132  2.9133  1.4104  1.7166
  980MOL0     H32297   9.912   7.300   8.416 -2.5301 -0.2972 -0.5921
  980MOL0     H32298   9.587   7.365   8.451  1.8510  1.4746  2.9938
  980MOL0     H32299   9.569   7.191   8.472 -1.4932  1.8955 -1.6726
  980MOL0     H32300   9.703   7.284   8.536 -2.5790 -0.8312  3.2015
  981MOL0     O32301   3.269  10.888   6.291  0.3048 -0.0797 -0.5336
  981MOL0     C32302   3.379  10.874   6.242  0.0370  0.5349  0.6491
  981MOL0     O32303   3.393  10.825   6.103  0.5986  0.0219 -0.4672
  981MOL0     C32304   3.271  10.829   6.032 -0.4707 -0.0096 -0.4151
  981MOL0     C32305   3.230  10.941   5.968 -0.2648  0.6233  0.4631
  981MOL0     C32306   3.106  10.939   5.918 -0.0986 -0.2047  0.5767
  981MOL0     C32307   3.020  10.828   5.917  0.4391  0.3945  0.5861
  981MOL0     O32308   2.897  10.836   5.859  0.3064 -0.0965 -0.5476
  981MOL0     C32309   2.782  10.859   5.943 -0.5840  0.1190  0.3299
  981MOL0     C32310   2.764  11.008   5.975  0.1288 -0.3424 -0.3498
  981MOL0     C32311   2.670  11.026   6.093 -0.1470 -0.7956  1.0841
  981MOL0     C32312   2.520  11.058   6.047  0.0347  0.1107 -0.5238
  981MOL0     C32313   2.444  11.088   6.170 -0.2561  0.4646  0.2045
  981MOL0     C32314   2.303  11.143   6.138 -0.6416 -0.8449  0.8245
  981MOL0     C32315   2.226  11.194   6.262 -0.1677 -0.0071  0.7345
  981MOL0     C32316   2.162  11.074   6.335  1.1307  0.1965 -0.3840
  981MOL0     N32317   2.112  11.101   6.469  0.8033  0.5746  0.4568
  981MOL0     C32318   2.152  11.197   6.559  0.6898 -1.2844 -0.3001
  981MOL0     C32319   2.048  11.203   6.648 -0.2418  0.1323  0.4779
  981MOL0     C32320   2.024  11.309   6.752  0.5226 -0.3345  0.6193
  981MOL0     C32321   1.967  11.429   6.682 -0.6638 -0.2324  0.6747
  981MOL0     C32322   1.975  11.550   6.777  0.3541  0.1343  0.0499
  981MOL0     C32323   2.110  11.612   6.807 -0.5102 -0.5005 -0.2042
  981MOL0     O32324   2.206  11.607   6.704 -0.0989  0.2964 -0.2303
  981MOL0     C32325   2.335  11.640   6.742  0.2955 -0.4844  0.7280
  981MOL0     C32326   2.429  11.598   6.652 -1.1640  0.0026 -0.8907
  981MOL0     C32327   2.566  11.640   6.666 -0.1842  0.0469 -0.9909
  981MOL0     C32328   2.601  11.734   6.769 -0.0865  0.0693  0.0356
  981MOL0     C32329   2.744  11.766   6.784 -0.4638  1.5997  0.1339
  981MOL0     O32330   2.838  11.674   6.761 -0.5485  1.0693  0.7436
  981MOL0     C32331   2.973  11.710   6.760  0.1471 -0.0957 -0.1003
  981MOL0     C32332   3.029  11.832   6.738  0.4640 -0.7952  1.1685
  981MOL0     C32333   3.169  11.850   6.757  0.3864 -1.0624  1.3513
  981MOL0     C32334   3.248  11.749   6.801 -0.1404  0.2920  0.1279
  981MOL0     O32335   3.382  11.734   6.800 -0.4240  0.5564 -0.1131
  981MOL0     C32336   3.458  11.848   6.765  0.0109  0.3906 -0.4544
  981MOL0     C32337   3.606  11.810   6.781 -0.0541 -0.2650 -0.9115
  981MOL0     C32338   3.636  11.775   6.924  0.1647 -0.1179 -0.0158
  981MOL0     C32339   3.787  11.760   6.952  0.3996 -0.0515  1.1347
  981MOL0     C32340   3.821  11.696   7.082 -0.0504 -0.0852  0.0638
  981MOL0     C32341   3.972  11.703   7.107 -0.2438 -0.2853  0.4025
  981MOL0     C32342   3.995  11.680   7.259  0.1115  0.0161 -0.2685
  981MOL0     C32343   4.117  11.589   7.270 -0.3679 -0.4440  0.3168
  981MOL0    Cl32344   4.256  11.643   7.166 -0.0344  0.4265  0.7732
  981MOL0     C32345   3.183  11.625   6.815 -0.2096 -1.0862 -0.8999
  981MOL0     C32346   3.047  11.607   6.813  0.0358 -0.6787 -0.4630
  981MOL0     O32347   2.762  11.874   6.825 -0.1855  0.5762  0.5570
  981MOL0     C32348   2.497  11.791   6.842  0.4918  0.4691 -0.3444
  981MOL0     C32349   2.368  11.735   6.835 -0.2112 -0.8249 -0.0505
  981MOL0     N32350   1.964  11.095   6.627  0.5891  0.5116  0.5503
  981MOL0     N32351   2.001  11.042   6.513  0.0219  0.9268  0.5439
  981MOL0     C32352   3.076  10.709   5.973  0.2574  0.3001 -0.0181
  981MOL0     C32353   3.202  10.710   6.030 -0.0011 -1.0192  0.7390
  981MOL0     C32354   3.502  10.884   6.325 -0.5873 -0.3966  0.2164
  981MOL0     C32355   3.611  10.807   6.276  0.8317 -0.7261  0.1544
  981MOL0     C32356   3.729  10.816   6.351  0.0717  0.1701  0.2974
  981MOL0     C32357   3.746  10.907   6.458 -0.3501 -0.9085  0.2713
  981MOL0     O32358   3.855  10.929   6.537 -0.3987  0.0481  0.3093
  981MOL0     C32359   3.978  10.871   6.483 -0.7699  0.7924 -0.2131
  981MOL0     C32360   4.105  10.921   6.572  0.4911  0.2100  0.7050
  981MOL0     C32361   4.220  10.865   6.487  0.4340 -0.6640 -0.5771
  981MOL0     C32362   4.347  10.875   6.568 -0.1135 -0.1223  0.1710
  981MOL0     C32363   4.377  11.012   6.595 -0.3632 -0.8313  0.0263
  981MOL0     C32364   4.409  11.131   6.601  0.6897  0.0429 -0.6676
  981MOL0     C32365   3.642  10.988   6.497  0.7249  0.3761 -0.1356
  981MOL0     C32366   3.522  10.974   6.432  0.2912 -0.4923 -1.1255
  981MOL0     C32367   3.414  11.069   6.477  0.5848 -0.0945  0.2810
  981MOL0     H32368   3.271  11.038   5.994 -1.5551  0.9574  1.3646
  981MOL0     H32369   3.065  11.030   5.876 -0.5825 -0.3292  0.7810
  981MOL0     H32370   2.692  10.820   5.893 -1.0408  0.1596  1.1014
  981MOL0     H32371   2.796  10.791   6.028 -2.8874 -1.4626 -0.4403
  981MOL0     H32372   2.736  11.055   5.881  0.1011  1.0463  0.3203
  981MOL0     H32373   2.860  11.050   6.007  0.4968 -0.6092 -1.0902
  981MOL0     H32374   2.722  11.103   6.149  1.9688 -1.4707  0.1625
  981MOL0     H32375   2.660  10.936   6.155 -1.9754  0.4395  2.6737
  981MOL0     H32376   2.523  11.148   5.984 -2.6472  1.0486  0.5685
  981MOL0     H32377   2.483  10.973   5.990 -0.3774 -1.4030  1.8945
  981MOL0     H32378   2.440  11.000   6.236  1.2480  1.8196  2.2348
  981MOL0     H32379   2.494  11.167   6.227 -0.1750  1.4226 -1.1511
  981MOL0     H32380   2.304  11.227   6.068  2.0510 -1.3850  0.0994
  981MOL0     H32381   2.244  11.060   6.098  0.1009 -0.6412 -0.7669
  981MOL0     H32382   2.145  11.261   6.231 -0.6746 -1.0048 -0.1601
  981MOL0     H32383   2.294  11.254   6.323  1.0293  1.4290 -1.8482
  981MOL0     H32384   2.083  11.031   6.272 -0.6329 -1.1828  2.5698
  981MOL0     H32385   2.225  10.985   6.339 -2.7349 -2.8667 -0.7451
  981MOL0     H32386   2.227  11.275   6.551  0.1906 -0.7852 -0.2724
  981MOL0     H32387   1.952  11.271   6.825 -0.7522  0.5949 -0.1171
  981MOL0     H32388   2.118  11.332   6.804 -1.0381  1.6316  2.7570
  981MOL0     H32389   2.023  11.461   6.594  0.2634  0.2423  1.4108
  981MOL0     H32390   1.863  11.414   6.651 -0.2612 -0.5960 -0.5351
  981MOL0     H32391   1.929  11.534   6.875  3.9877  1.2528  2.1451
  981MOL0     H32392   1.915  11.625   6.724 -0.2458 -0.2621  0.1541
  981MOL0     H32393   2.148  11.564   6.897  1.0729 -3.7543 -2.4250
  981MOL0     H32394   2.085  11.716   6.831  3.4456  0.5124  0.0953
  981MOL0     H32395   2.397  11.524   6.580  0.8349 -1.4809 -0.3427
  981MOL0     H32396   2.650  11.595   6.615  1.1819  1.1202  0.2255
  981MOL0     H32397   2.972  11.917   6.702  3.1696  0.9498  0.6554
  981MOL0     H32398   3.198  11.952   6.739 -3.1254  0.5109  3.5323
  981MOL0     H32399   3.455  11.859   6.656  3.0698 -0.2299 -0.6876
  981MOL0     H32400   3.424  11.932   6.826  2.8390  2.4220 -1.4785
  981MOL0     H32401   3.637  11.728   6.716  3.9174 -1.2067  1.7541
  981MOL0     H32402   3.661  11.902   6.757 -0.9379  0.3728 -0.5175
  981MOL0     H32403   3.593  11.844   6.997 -0.2119 -0.9886  0.5904
  981MOL0     H32404   3.589  11.678   6.938 -3.1186  1.4265  0.5595
  981MOL0     H32405   3.847  11.850   6.935 -0.5563  0.9020  2.5625
  981MOL0     H32406   3.836  11.693   6.881  0.6229  2.4626 -1.2669
  981MOL0     H32407   3.795  11.589   7.078  0.0468 -0.1075  0.0465
  981MOL0     H32408   3.750  11.741   7.153 -2.2397 -1.1387 -1.3412
  981MOL0     H32409   4.028  11.626   7.053 -0.1822  0.0938 -0.0806
  981MOL0     H32410   4.010  11.800   7.075  1.4911 -1.3484 -0.9377
  981MOL0     H32411   3.910  11.641   7.316 -1.3516  5.2547  1.7619
  981MOL0     H32412   4.006  11.782   7.296 -1.1515  0.7419 -1.7551
  981MOL0     H32413   4.150  11.567   7.372  1.1557 -1.0370 -0.2822
  981MOL0     H32414   4.093  11.490   7.231  1.1609 -0.4596 -0.6684
  981MOL0     H32415   3.249  11.549   6.855  1.9984  0.9073 -0.5003
  981MOL0     H32416   2.994  11.524   6.859  0.2575 -1.5886 -1.7922
  981MOL0     H32417   2.525  11.873   6.908  2.6724  0.1393 -0.7863
  981MOL0     H32418   2.299  11.793   6.895  3.8528 -0.2702  4.7676
  981MOL0     H32419   3.009  10.624   5.967  0.2249  0.1657  1.6451
  981MOL0     H32420   3.241  10.615   6.064  3.0459 -1.0551 -2.2672
  981MOL0     H32421   3.605  10.739   6.192  1.9340  0.0649 -0.5885
  981MOL0     H32422   3.810  10.754   6.313 -0.0665  1.4400 -2.2788
  981MOL0     H32423   4.004  10.903   6.382 -0.3033 -1.7548 -0.9721
  981MOL0     H32424   3.965  10.763   6.493 -4.2989  1.1247  0.1351
  981MOL0     H32425   4.104  10.874   6.671 -0.3591  1.6906  1.4323
  981MOL0     H32426   4.120  11.029   6.583 -0.8461  0.2957  2.0220
  981MOL0     H32427   4.230  10.915   6.390 -0.2053  1.2975  0.3076
  981MOL0     H32428   4.207  10.757   6.473 -3.5715 -0.3421 -0.6115
  981MOL0     H32429   4.341  10.823   6.663 -0.6313 -1.6252 -0.6452
  981MOL0     H32430   4.443  10.847   6.523  0.1976  0.2062  0.6172
  981MOL0     H32431   4.450  11.230   6.602  1.1754 -0.1359  1.4783
  981MOL0     H32432   3.658  11.055   6.581  3.0197  0.4562 -0.5653
  981MOL0     H32433   3.333  11.000   6.502  2.0282 -1.7779  0.5824
  981MOL0     H32434   3.442  11.138   6.558 -1.3160  4.2306 -2.3988
  981MOL0     H32435   3.377  11.135   6.398 -2.4586 -1.1807  0.6685
  982MOL0     O32436   9.013   5.435   2.082  0.2301 -0.2629 -1.1807
  982MOL0     C32437   8.960   5.484   2.183 -0.1750  0.9432  0.3319
  982MOL0     O32438   9.026   5.534   2.293 -0.1338 -0.0730 -0.0545
  982MOL0     C32439   9.163   5.542   2.301 -0.2446 -0.1018  0.3914
  982MOL0     C32440   9.244   5.449   2.369 -0.2214 -0.1488  0.5289
  982MOL0     C32441   9.380   5.478   2.383 -0.7958 -0.3087  0.1970
  982MOL0     C32442   9.432   5.600   2.325 -0.1830  0.2398 -0.0698
  982MOL0     O32443   9.572   5.614   2.335  0.5088  0.3818  0.1335
  982MOL0     C32444   9.644   5.734   2.337  0.9561 -0.4190 -0.4957
  982MOL0     C32445   9.798   5.717   2.341  1.2729  0.3106 -0.8680
  982MOL0     C32446   9.861   5.660   2.213 -0.0978  0.3836  0.7549
  982MOL0     C32447   9.883   5.505   2.225  0.1596 -0.2985 -0.3141
  982MOL0     C32448   9.987   5.446   2.122  0.8315 -0.6523 -0.1009
  982MOL0     C32449   9.917   5.443   1.986 -0.3539 -0.0848  0.4912
  982MOL0     C32450  10.026   5.399   1.877 -0.4970 -0.2339  0.4496
  982MOL0     C32451  10.087   5.253   1.907  0.7418 -0.6085  0.1153
  982MOL0     N32452  10.180   5.228   1.794  0.3696 -1.2196  0.4866
  982MOL0     C32453  10.244   5.111   1.755 -0.7297  0.2372 -0.0705
  982MOL0     C32454  10.334   5.144   1.666 -0.4575  0.1906 -0.0196
  982MOL0     C32455  10.450   5.058   1.619  0.5693 -0.3962 -0.7638
  982MOL0     C32456  10.431   5.004   1.475 -0.6486  0.5843 -0.6981
  982MOL0     C32457  10.390   4.857   1.475  0.1942  0.3715 -0.1371
  982MOL0     C32458  10.240   4.825   1.485 -0.4224 -0.0948  0.4462
  982MOL0     O32459  10.206   4.689   1.522  0.3168  0.3098 -0.2124
  982MOL0     C32460  10.070   4.660   1.529 -0.3380  0.2520 -0.6117
  982MOL0     C32461   9.994   4.610   1.422 -0.1335  0.2435 -0.3072
  982MOL0     C32462   9.860   4.568   1.443  1.0282 -0.8002  0.0983
  982MOL0     C32463   9.800   4.571   1.564  0.2860 -0.1627  0.1483
  982MOL0     C32464   9.657   4.536   1.593 -0.4272 -0.5213 -0.1974
  982MOL0     O32465   9.581   4.527   1.483  0.1732  0.1224  0.6153
  982MOL0     C32466   9.438   4.508   1.478 -0.0152  0.0125 -0.1453
  982MOL0     C32467   9.366   4.450   1.585 -0.0385  0.0921  0.6578
  982MOL0     C32468   9.228   4.449   1.584  0.6500 -0.5071  0.6012
  982MOL0     C32469   9.145   4.517   1.491 -0.6535 -0.9660  0.0160
  982MOL0     O32470   9.013   4.548   1.515  0.9146  0.8407  1.0064
  982MOL0     C32471   8.973   4.602   1.644  0.4976  1.0246  0.7846
  982MOL0     C32472   8.883   4.499   1.714  0.3995  0.4244 -0.4016
  982MOL0     C32473   8.767   4.456   1.631  0.5983  0.0859  0.4565
  982MOL0     C32474   8.670   4.359   1.695 -0.7498  0.6075 -0.0870
  982MOL0     C32475   8.574   4.427   1.782 -0.4291 -0.1252 -0.3878
  982MOL0     C32476   8.447   4.346   1.791 -0.5763  1.2843  0.6211
  982MOL0     C32477   8.314   4.418   1.828  0.0128  0.5983  0.3232
  982MOL0     C32478   8.190   4.347   1.798  0.1308 -0.4713  0.5045
  982MOL0    Cl32479   8.181   4.181   1.879 -0.0625  0.0377  0.5331
  982MOL0     C32480   9.212   4.577   1.387 -0.3805  0.7668  0.5103
  982MOL0     C32481   9.352   4.562   1.372 -0.6751  0.7611  0.7185
  982MOL0     O32482   9.610   4.559   1.701 -0.3064  0.0943 -0.3748
  982MOL0     C32483   9.886   4.617   1.669  0.2834 -0.2096  0.0733
  982MOL0     C32484  10.021   4.654   1.659  0.5103  1.3804 -0.9254
  982MOL0     N32485  10.319   5.282   1.638 -0.1112 -0.1937 -0.2321
  982MOL0     N32486  10.228   5.330   1.719  0.2580 -0.2068  0.3757
  982MOL0     C32487   9.350   5.690   2.258  0.9763 -0.2439 -0.0327
  982MOL0     C32488   9.211   5.665   2.249  0.0680 -0.1887 -0.4338
  982MOL0     C32489   8.810   5.490   2.182 -1.0833 -0.6107 -0.1458
  982MOL0     C32490   8.744   5.537   2.302  0.5944 -0.1951 -0.3846
  982MOL0     C32491   8.603   5.559   2.305 -1.1310  0.3533 -0.8129
  982MOL0     C32492   8.521   5.512   2.203 -0.4157  1.0556 -1.4762
  982MOL0     O32493   8.377   5.510   2.216 -0.2421 -0.4524  1.2297
  982MOL0     C32494   8.327   5.414   2.311  0.6598  0.0340  0.3070
  982MOL0     C32495   8.341   5.455   2.456 -0.0225 -0.6022 -0.1899
  982MOL0     C32496   8.277   5.349   2.553  0.0991  0.0704 -0.1733
  982MOL0     C32497   8.121   5.344   2.533  0.0538 -1.0104  0.4784
  982MOL0     C32498   8.093   5.232   2.438 -0.1267  0.1998  0.9957
  982MOL0     C32499   8.087   5.138   2.362 -0.7327 -0.2809  0.1863
  982MOL0     C32500   8.584   5.455   2.095 -0.5818 -1.0238 -0.4800
  982MOL0     C32501   8.729   5.449   2.078 -0.0214  0.5030  0.1400
  982MOL0     C32502   8.777   5.398   1.953 -1.2313  0.0772  0.3926
  982MOL0     H32503   9.188   5.366   2.412 -2.7966  1.5369  0.6639
  982MOL0     H32504   9.448   5.402   2.420  0.5125 -0.8292 -3.0040
  982MOL0     H32505   9.612   5.791   2.249 -2.5426  0.5150  1.2017
  982MOL0     H32506   9.608   5.785   2.427 -1.9241 -3.9604  0.6149
  982MOL0     H32507   9.839   5.656   2.421  1.0052  0.4335 -0.6343
  982MOL0     H32508   9.844   5.812   2.369  1.7540 -0.3388  0.6346
  982MOL0     H32509   9.956   5.710   2.196 -0.0075  0.0496  0.2434
  982MOL0     H32510   9.799   5.686   2.126  0.4014 -0.4157  0.1481
  982MOL0     H32511   9.917   5.495   2.329  0.7485  2.4564 -0.1776
  982MOL0     H32512   9.781   5.467   2.222 -2.2231  5.1484  0.1081
  982MOL0     H32513  10.068   5.518   2.121 -0.7030  1.1673  0.6200
  982MOL0     H32514  10.026   5.349   2.156  3.5207  0.9562  1.7822
  982MOL0     H32515   9.826   5.384   1.974  0.0208 -0.9201  1.5720
  982MOL0     H32516   9.879   5.545   1.977 -1.1672 -0.1318  2.7093
  982MOL0     H32517  10.104   5.474   1.895 -1.0100 -0.0029  1.8032
  982MOL0     H32518   9.976   5.399   1.779 -1.5328 -1.4174  0.9493
  982MOL0     H32519  10.137   5.243   2.004  0.7101 -1.7005  0.0320
  982MOL0     H32520  10.004   5.182   1.905 -0.1509  0.1400 -5.1650
  982MOL0     H32521  10.242   5.012   1.799  0.6320  1.1547  2.2460
  982MOL0     H32522  10.528   5.135   1.616 -0.3693  0.5559 -2.7532
  982MOL0     H32523  10.471   4.977   1.690  2.4980  0.3025 -0.4570
  982MOL0     H32524  10.355   5.062   1.421 -0.7278  0.3802 -0.8089
  982MOL0     H32525  10.517   5.018   1.408 -2.2602  3.6445 -2.3381
  982MOL0     H32526  10.441   4.815   1.562 -1.5753 -2.7411 -0.4385
  982MOL0     H32527  10.426   4.810   1.383  0.6348 -0.3144  0.3768
  982MOL0     H32528  10.207   4.849   1.383  0.3682  1.6949  0.5688
  982MOL0     H32529  10.209   4.908   1.548 -0.3911  0.4507 -0.2383
  982MOL0     H32530  10.031   4.608   1.320  1.4393 -2.8225  0.2152
  982MOL0     H32531   9.804   4.526   1.359  0.2682 -2.0598  1.1919
  982MOL0     H32532   9.415   4.410   1.673 -1.8048 -0.3170  1.4909
  982MOL0     H32533   9.178   4.399   1.665 -2.4259 -0.9905 -1.4350
  982MOL0     H32534   9.059   4.619   1.708  2.2463 -2.7014 -0.2754
  982MOL0     H32535   8.920   4.695   1.621  2.8206  1.8134 -2.0885
  982MOL0     H32536   8.949   4.413   1.728 -1.0825 -0.5115  1.2196
  982MOL0     H32537   8.846   4.535   1.810 -2.2727 -2.5046 -0.1762
  982MOL0     H32538   8.709   4.545   1.604 -0.9884 -0.5702  1.5376
  982MOL0     H32539   8.809   4.407   1.542 -0.0689 -2.8577  1.6383
  982MOL0     H32540   8.722   4.283   1.754 -1.0546 -0.5440 -1.2609
  982MOL0     H32541   8.625   4.312   1.608 -1.8707  1.9096 -0.2346
  982MOL0     H32542   8.547   4.520   1.732 -1.0455 -0.1063 -0.0305
  982MOL0     H32543   8.623   4.455   1.876  1.1202 -1.0106 -0.8964
  982MOL0     H32544   8.430   4.303   1.692  1.4401  1.2958  0.2283
  982MOL0     H32545   8.460   4.268   1.867 -1.0129 -1.9122 -2.3181
  982MOL0     H32546   8.303   4.515   1.777 -0.7752  0.3722  0.0497
  982MOL0     H32547   8.330   4.456   1.930 -0.2302 -1.7466  1.2856
  982MOL0     H32548   8.105   4.413   1.818  2.2530  1.6681  3.3598
  982MOL0     H32549   8.195   4.328   1.690 -0.3244 -0.4185  0.4734
  982MOL0     H32550   9.157   4.635   1.313  2.4025 -0.0197 -2.3826
  982MOL0     H32551   9.402   4.605   1.286 -0.9487 -0.2507  0.0441
  982MOL0     H32552   9.843   4.626   1.768  0.7715  0.5077  0.2271
  982MOL0     H32553  10.087   4.684   1.739 -1.9545 -2.4588  3.0143
  982MOL0     H32554   9.393   5.785   2.227  0.1563 -0.8238 -3.3062
  982MOL0     H32555   9.141   5.745   2.225 -0.1695  0.7668  3.0016
  982MOL0     H32556   8.805   5.571   2.385 -1.0852  0.0589  0.7931
  982MOL0     H32557   8.581   5.613   2.397 -1.5426  0.5795 -1.0407
  982MOL0     H32558   8.366   5.315   2.287 -3.1832 -1.4354 -0.8062
  982MOL0     H32559   8.221   5.396   2.287  0.1216  2.3161  0.7181
  982MOL0     H32560   8.296   5.553   2.474 -0.4946 -1.0607  1.2856
  982MOL0     H32561   8.446   5.473   2.481 -0.9740  2.1536  2.3216
  982MOL0     H32562   8.296   5.390   2.652  3.8204 -0.0108 -0.7096
  982MOL0     H32563   8.310   5.245   2.546 -1.3788 -0.4451  0.1727
  982MOL0     H32564   8.073   5.323   2.629  0.7645  0.4175  1.1717
  982MOL0     H32565   8.083   5.436   2.490  0.8760 -1.7872 -2.0903
  982MOL0     H32566   8.083   5.056   2.293 -0.1610  0.8288 -1.2418
  982MOL0     H32567   8.519   5.424   2.014 -0.4314 -0.9447 -0.6317
  982MOL0     H32568   8.699   5.367   1.882 -0.8592 -2.2260  0.9072
  982MOL0     H32569   8.842   5.467   1.898 -0.2115  0.2148  1.7254
  982MOL0     H32570   8.842   5.312   1.972  1.2758  1.1432 -2.5506
  983MOL0     O32571   4.388  11.239   0.702 -0.3136 -0.2726 -0.1556
  983MOL0     C32572   4.310  11.335   0.735  0.5418 -0.3101  1.4443
  983MOL0     O32573   4.347  11.465   0.735 -0.1875 -0.5598 -0.0752
  983MOL0     C32574   4.471  11.509   0.699 -0.1819  0.6070 -0.2976
  983MOL0     C32575   4.550  11.458   0.594 -0.2148  0.4617  1.0617
  983MOL0     C32576   4.676  11.513   0.577  0.2422  0.8553  0.4395
  983MOL0     C32577   4.728  11.622   0.648 -0.6436 -0.5712 -0.5820
  983MOL0     O32578   4.858  11.675   0.630  0.4379 -0.7712  0.2196
  983MOL0     C32579   4.876  11.819   0.608  0.3525  0.9817 -0.7534
  983MOL0     C32580   5.014  11.849   0.554 -0.1293  0.1358  0.2665
  983MOL0     C32581   5.019  11.828   0.392  0.3316 -0.1468 -0.1988
  983MOL0     C32582   5.061  11.689   0.343 -0.2947 -0.0603 -0.0200
  983MOL0     C32583   5.058  11.692   0.192 -0.3631 -0.4890 -0.4173
  983MOL0     C32584   4.914  11.727   0.135  0.7833 -0.3583  0.4923
  983MOL0     C32585   4.793  11.660   0.201  0.0584 -0.5154  0.6802
  983MOL0     C32586   4.669  11.707   0.127  0.6406  0.3619 -0.3552
  983MOL0     N32587   4.557  11.625   0.185  0.6663 -0.1680  0.2781
  983MOL0     C32588   4.452  11.673   0.255  0.1558  0.4456 -0.4879
  983MOL0     C32589   4.368  11.563   0.274  0.1412 -0.0282 -0.8564
  983MOL0     C32590   4.241  11.583   0.352 -0.3044 -0.6841 -0.2086
  983MOL0     C32591   4.120  11.539   0.269  0.1312 -0.1575  0.1098
  983MOL0     C32592   3.999  11.533   0.373  0.1383  0.5152  0.4425
  983MOL0     C32593   3.875  11.553   0.302 -0.0252  0.4798  0.6333
  983MOL0     O32594   3.850  11.448   0.200  0.6898  0.2925 -0.4663
  983MOL0     C32595   3.726  11.428   0.147  0.7799 -0.7699  1.5398
  983MOL0     C32596   3.616  11.507   0.188 -0.5135  0.0857  1.2829
  983MOL0     C32597   3.487  11.482   0.134 -0.0674 -0.1088 -0.3831
  983MOL0     C32598   3.464  11.378   0.040  1.2782  0.3414 -0.0652
  983MOL0     C32599   3.335  11.357  -0.025  0.1072  0.3458 -0.6502
  983MOL0     O32600   3.239  11.445   0.020  0.7507 -0.9544 -0.8107
  983MOL0     C32601   3.105  11.427  -0.018  0.4543  0.7648  0.5513
  983MOL0     C32602   3.062  11.396  -0.148 -0.3299  1.2984  0.2603
  983MOL0     C32603   2.930  11.354  -0.172 -1.1084  0.7095 -0.4895
  983MOL0     C32604   2.835  11.362  -0.072 -0.1116 -0.3283 -1.1911
  983MOL0     O32605   2.704  11.328  -0.095 -0.5276 -0.1717 -0.0777
  983MOL0     C32606   2.598  11.420  -0.054  0.6794  0.6954  0.1066
  983MOL0     C32607   2.472  11.363  -0.105  0.2269 -0.3220 -0.1940
  983MOL0     C32608   2.359  11.450  -0.044  0.0905  0.6579 -0.1741
  983MOL0     C32609   2.225  11.393  -0.099  0.2470  0.2829  0.3453
  983MOL0     C32610   2.101  11.488  -0.075  0.0390 -0.2715  0.2720
  983MOL0     C32611   2.081  11.545   0.063 -0.5458 -0.1619  0.3464
  983MOL0     C32612   1.984  11.670   0.066 -0.0261 -1.0183 -0.0188
  983MOL0     C32613   1.947  11.685   0.222 -0.9085 -0.0192  0.3993
  983MOL0    Cl32614   1.809  11.564   0.248 -0.1511  0.4765  0.0075
  983MOL0     C32615   2.879  11.382   0.061  0.5818  0.5570 -0.2880
  983MOL0     C32616   3.007  11.420   0.081 -0.2672 -0.1197 -0.8214
  983MOL0     O32617   3.316  11.276  -0.112  0.0115  0.6059 -0.8280
  983MOL0     C32618   3.576  11.303  -0.007  0.7249 -0.1795 -0.0784
  983MOL0     C32619   3.706  11.326   0.051 -0.2772  0.4465  0.1638
  983MOL0     N32620   4.416  11.453   0.213  0.5078 -0.7859 -0.4640
  983MOL0     N32621   4.531  11.488   0.168  1.0551 -0.5193 -0.1685
  983MOL0     C32622   4.650  11.663   0.751 -0.0995 -0.1826  0.6947
  983MOL0     C32623   4.523  11.615   0.773 -0.3754  0.6048  1.0804
  983MOL0     C32624   4.166  11.303   0.770  0.2351  0.0688  0.1269
  983MOL0     C32625   4.131  11.163   0.777 -0.2773  0.0760 -0.4603
  983MOL0     C32626   3.996  11.128   0.791 -0.4888  0.3768  0.0967
  983MOL0     C32627   3.899  11.222   0.784 -0.0355  0.2256 -0.7388
  983MOL0     O32628   3.762  11.196   0.799  0.8579 -0.1140 -0.9044
  983MOL0     C32629   3.715  11.095   0.891  0.2486 -0.2900 -0.0856
  983MOL0     C32630   3.706  10.951   0.836 -0.4939  0.0449 -0.3528
  983MOL0     C32631   3.620  10.853   0.922  0.2448 -0.1697  0.0398
  983MOL0     C32632   3.655  10.696   0.896  0.0103 -0.1850 -0.4125
  983MOL0     C32633   3.593  10.675   0.764  0.9088  0.0463 -0.1077
  983MOL0     C32634   3.534  10.653   0.662 -1.0409  0.1130 -0.7528
  983MOL0     C32635   3.934  11.350   0.761 -0.1480 -0.0831 -0.1916
  983MOL0     C32636   4.062  11.398   0.777  0.0099 -0.3688  0.6235
  983MOL0     C32637   4.087  11.549   0.763 -0.0563 -0.0257 -0.3327
  983MOL0     H32638   4.526  11.368   0.537  2.7569  1.0506 -1.4297
  983MOL0     H32639   4.726  11.462   0.494  0.6112  1.4099  0.3181
  983MOL0     H32640   4.802  11.852   0.535 -2.2038 -0.6506  0.9483
  983MOL0     H32641   4.854  11.865   0.705  6.0115 -2.0647  2.5449
  983MOL0     H32642   5.087  11.784   0.603 -1.8310 -1.0804  1.2862
  983MOL0     H32643   5.051  11.948   0.583  1.0309 -0.1935 -0.0510
  983MOL0     H32644   5.082  11.900   0.338 -1.5803  1.1171 -0.8681
  983MOL0     H32645   4.919  11.857   0.356 -0.8858 -2.6790  0.9205
  983MOL0     H32646   5.163  11.664   0.373  0.8150  0.8500 -2.7122
  983MOL0     H32647   4.997  11.606   0.375 -0.1823  0.4721  1.7018
  983MOL0     H32648   5.135  11.763   0.160 -0.8865  0.3762  0.2033
  983MOL0     H32649   5.086  11.590   0.162  3.3033 -0.4973  2.3129
  983MOL0     H32650   4.895  11.834   0.138  2.3501  0.1577 -2.8858
  983MOL0     H32651   4.914  11.710   0.027  2.0288  0.0778  0.4130
  983MOL0     H32652   4.782  11.684   0.307  1.2852  1.2384  0.4466
  983MOL0     H32653   4.806  11.552   0.188  0.0256 -0.6754  1.8381
  983MOL0     H32654   4.662  11.813   0.153  0.9979  0.2049  0.4001
  983MOL0     H32655   4.688  11.698   0.019 -0.6231  0.6316 -0.6158
  983MOL0     H32656   4.444  11.774   0.295 -0.1883  0.1832  0.1107
  983MOL0     H32657   4.255  11.526   0.444 -1.4720 -1.2053 -0.3359
  983MOL0     H32658   4.220  11.689   0.369  0.4512 -0.4664 -0.5890
  983MOL0     H32659   4.096  11.603   0.184 -1.2538  0.8172  1.1876
  983MOL0     H32660   4.140  11.445   0.217 -0.8566  0.7704 -2.0911
  983MOL0     H32661   4.000  11.621   0.439  0.6249  0.2107  0.8537
  983MOL0     H32662   3.998  11.447   0.441 -1.2128  0.7115  0.7043
  983MOL0     H32663   3.863  11.654   0.262 -0.3657  1.1442  2.3556
  983MOL0     H32664   3.793  11.547   0.374 -0.8629 -1.7866 -0.4150
  983MOL0     H32665   3.624  11.586   0.263 -1.0232  1.6562 -0.2561
  983MOL0     H32666   3.408  11.552   0.158 -0.3106 -0.3075 -0.6046
  983MOL0     H32667   3.140  11.395  -0.224  0.7025  1.9846  1.2818
  983MOL0     H32668   2.910  11.324  -0.274 -0.5307 -4.3414  0.6306
  983MOL0     H32669   2.600  11.435   0.055 -1.3966  4.6933 -0.1981
  983MOL0     H32670   2.613  11.523  -0.089 -0.1726 -0.0881 -2.8272
  983MOL0     H32671   2.471  11.380  -0.214 -1.7679 -0.1331 -0.1934
  983MOL0     H32672   2.467  11.255  -0.091  1.5171 -0.4628 -0.7008
  983MOL0     H32673   2.340  11.442   0.063  0.4417  1.3631 -0.0519
  983MOL0     H32674   2.381  11.550  -0.084  3.7981 -0.9332 -2.7357
  983MOL0     H32675   2.206  11.295  -0.055 -2.8344  1.5044  2.0145
  983MOL0     H32676   2.228  11.370  -0.205  0.1492  1.2533  0.1202
  983MOL0     H32677   2.009  11.436  -0.104 -0.3085  0.6060 -0.2234
  983MOL0     H32678   2.119  11.568  -0.147  1.6575  0.2044  1.1437
  983MOL0     H32679   2.040  11.461   0.120 -2.1894 -0.1811 -0.7998
  983MOL0     H32680   2.183  11.576   0.091  0.6482 -1.8418 -1.8759
  983MOL0     H32681   1.893  11.682   0.005 -1.0071  2.1291  1.8469
  983MOL0     H32682   2.050  11.751   0.032 -0.4183 -1.3388 -1.6634
  983MOL0     H32683   2.030  11.654   0.286 -0.2814  2.1336  0.6981
  983MOL0     H32684   1.920  11.784   0.261  0.3362 -0.7179  3.2811
  983MOL0     H32685   2.800  11.379   0.135  0.9509 -0.2106  0.0884
  983MOL0     H32686   3.037  11.433   0.184 -1.2099 -0.8993 -0.4352
  983MOL0     H32687   3.570  11.225  -0.083  0.1710 -2.3206  2.0546
  983MOL0     H32688   3.775  11.251   0.014  1.4503  2.1115 -0.1341
  983MOL0     H32689   4.674  11.750   0.810 -2.2248 -0.0115  1.3741
  983MOL0     H32690   4.454  11.655   0.847  1.0923  2.6935  1.3876
  983MOL0     H32691   4.213  11.091   0.778 -0.6209 -0.4269 -2.9730
  983MOL0     H32692   3.977  11.023   0.808 -0.1906  0.4637  1.0493
  983MOL0     H32693   3.610  11.123   0.898 -0.7540 -1.8876 -4.9478
  983MOL0     H32694   3.769  11.099   0.986  2.8355  4.5269 -1.4216
  983MOL0     H32695   3.808  10.910   0.838 -0.6725 -0.4637 -1.3329
  983MOL0     H32696   3.654  10.947   0.740 -0.7365 -0.7039 -0.1931
  983MOL0     H32697   3.514  10.864   0.895  0.5237 -1.3517 -1.6999
  983MOL0     H32698   3.632  10.878   1.028 -2.3962 -0.4771  0.4891
  983MOL0     H32699   3.763  10.684   0.879 -0.0283  1.5448 -2.3461
  983MOL0     H32700   3.602  10.635   0.969  1.0998 -0.8447 -0.1456
  983MOL0     H32701   3.493  10.611   0.573 -1.2814 -1.4334  0.0551
  983MOL0     H32702   3.862  11.430   0.772  1.7940  1.7175  0.0541
  983MOL0     H32703   4.126  11.575   0.665 -1.0373  2.3383 -0.1563
  983MOL0     H32704   3.989  11.598   0.767 -0.3879 -0.6623 -0.4458
  983MOL0     H32705   4.153  11.579   0.845  0.2891 -0.2498 -0.5271
  984MOL0     O32706   9.588   2.043   3.271  0.0775  0.0541  0.5724
  984MOL0     C32707   9.490   2.023   3.341 -0.2192  0.6630 -1.2696
  984MOL0     O32708   9.502   1.963   3.464  0.1761  0.3497 -0.4105
  984MOL0     C32709   9.617   1.895   3.498  0.2167  0.3864 -0.1843
  984MOL0     C32710   9.635   1.863   3.628 -0.1322  0.2011 -0.3140
  984MOL0     C32711   9.749   1.803   3.689 -0.7415 -0.5940 -0.1421
  984MOL0     C32712   9.845   1.753   3.602  0.0087 -0.0612 -0.5195
  984MOL0     O32713   9.957   1.681   3.638 -0.8104 -0.1481 -0.7002
  984MOL0     C32714  10.078   1.754   3.614 -0.6713 -0.9997  0.8162
  984MOL0     C32715  10.182   1.759   3.731  0.6587  0.1556 -0.5650
  984MOL0     C32716  10.227   1.638   3.794  0.2300  0.2026 -0.0129
  984MOL0     C32717  10.374   1.638   3.825  0.6724  0.3030 -0.3224
  984MOL0     C32718  10.441   1.599   3.697 -0.2096  0.3947  0.0637
  984MOL0     C32719  10.591   1.586   3.720  0.2332 -0.5676 -0.4003
  984MOL0     C32720  10.677   1.531   3.614 -0.0296 -0.8131 -1.3986
  984MOL0     C32721  10.685   1.621   3.494 -0.2057 -1.2191 -0.3074
  984MOL0     N32722  10.725   1.760   3.521 -0.6093 -0.1413 -0.2789
  984MOL0     C32723  10.634   1.863   3.547  0.3992 -0.4877  0.5891
  984MOL0     C32724  10.707   1.966   3.592  0.3404 -0.8571 -0.3161
  984MOL0     C32725  10.640   2.105   3.624 -0.0318 -0.0093  0.3503
  984MOL0     C32726  10.700   2.211   3.513  0.8865  0.3167 -0.1249
  984MOL0     C32727  10.783   2.324   3.577 -0.5075  0.5347  0.3121
  984MOL0     C32728  10.926   2.278   3.599  0.1398 -0.0729 -0.2920
  984MOL0     O32729  11.013   2.396   3.625 -0.7117  0.1319 -0.2324
  984MOL0     C32730  11.094   2.430   3.512  1.5377 -0.1762  0.2040
  984MOL0     C32731  11.215   2.483   3.550 -0.4666  0.0972  0.4464
  984MOL0     C32732  11.316   2.504   3.457 -0.6126 -0.8679 -0.2358
  984MOL0     C32733  11.287   2.484   3.318 -0.4762 -0.1090 -0.4129
  984MOL0     C32734  11.391   2.526   3.222 -0.0971 -0.6512 -0.0454
  984MOL0     O32735  11.349   2.539   3.092  0.4122  0.7473  0.3484
  984MOL0     C32736  11.442   2.583   3.004 -0.4282  0.2053 -0.4028
  984MOL0     C32737  11.555   2.497   2.968 -0.1537  1.3553  0.6329
  984MOL0     C32738  11.654   2.551   2.889 -0.0767 -0.6432  0.3793
  984MOL0     C32739  11.653   2.690   2.852  0.1151 -0.3164 -0.2568
  984MOL0     O32740  11.764   2.736   2.793 -0.0868  0.0151 -0.4063
  984MOL0     C32741  11.793   2.877   2.789  0.2909  0.3074  0.2711
  984MOL0     C32742  11.914   2.902   2.708 -0.5672 -0.9740 -0.6024
  984MOL0     C32743  12.046   2.847   2.787  0.7157 -0.2001  0.0825
  984MOL0     C32744  12.125   2.933   2.882 -0.4492  0.6685 -0.5273
  984MOL0     C32745  12.243   2.846   2.936 -0.7094 -0.3784 -0.3195
  984MOL0     C32746  12.310   2.904   3.063 -0.1510 -0.4689 -0.4839
  984MOL0     C32747  12.324   3.060   3.069 -0.6715 -0.2129 -0.4047
  984MOL0     C32748  12.449   3.115   2.997  0.3316  0.5393  0.2372
  984MOL0    Cl32749  12.435   3.094   2.819  0.1788 -0.5143 -0.1448
  984MOL0     C32750  11.542   2.767   2.876  0.0117  0.2016  0.3444
  984MOL0     C32751  11.442   2.715   2.960 -0.0022 -0.0102 -0.9403
  984MOL0     O32752  11.506   2.524   3.258 -1.2440 -0.4170  0.0707
  984MOL0     C32753  11.156   2.460   3.279 -0.8428  0.7283 -0.8952
  984MOL0     C32754  11.058   2.424   3.375  0.4307 -1.1385 -0.1914
  984MOL0     N32755  10.840   1.920   3.601 -0.4296 -0.2407  0.5415
  984MOL0     N32756  10.846   1.806   3.561  0.3490  0.0059 -0.7294
  984MOL0     C32757   9.823   1.767   3.465  0.5394 -0.6167 -0.0486
  984MOL0     C32758   9.714   1.840   3.413  0.0320  0.9942  0.0582
  984MOL0     C32759   9.359   2.048   3.281 -0.1812 -0.1410  0.5213
  984MOL0     C32760   9.360   2.093   3.148  0.6159  0.6338 -0.2463
  984MOL0     C32761   9.239   2.109   3.077  0.7533  0.5052  0.2884
  984MOL0     C32762   9.120   2.083   3.137  0.6057 -0.8931  0.7728
  984MOL0     O32763   8.993   2.100   3.085 -1.1431 -0.0743  0.0412
  984MOL0     C32764   8.986   2.161   2.959 -0.1128 -0.5675 -0.2021
  984MOL0     C32765   8.837   2.166   2.925 -0.3128 -0.2061  0.3427
  984MOL0     C32766   8.798   2.026   2.878 -0.1951 -0.2645  1.2329
  984MOL0     C32767   8.784   2.015   2.723  0.1505  0.4281  1.1016
  984MOL0     C32768   8.886   2.075   2.637 -0.2844 -0.5172 -0.1742
  984MOL0     C32769   8.981   2.112   2.562  0.2809 -0.0852  0.4346
  984MOL0     C32770   9.110   2.038   3.265  0.4791  0.9193  0.3272
  984MOL0     C32771   9.229   2.035   3.345  0.1588  0.2637  1.1778
  984MOL0     C32772   9.217   2.015   3.491 -0.6717  0.7004 -0.7336
  984MOL0     H32773   9.552   1.890   3.693 -1.0929 -1.8012 -0.6459
  984MOL0     H32774   9.756   1.782   3.795 -3.1179 -0.3390  0.1300
  984MOL0     H32775  10.124   1.696   3.533  0.0480  0.3385  0.2339
  984MOL0     H32776  10.062   1.852   3.569 -1.8170 -1.6073 -0.1372
  984MOL0     H32777  10.151   1.833   3.806 -0.5474 -1.8784  1.0312
  984MOL0     H32778  10.266   1.810   3.683  0.7703  0.5198  0.0116
  984MOL0     H32779  10.186   1.559   3.729 -1.2575  0.6126  0.3811
  984MOL0     H32780  10.164   1.627   3.883 -0.5765 -1.1545 -0.7073
  984MOL0     H32781  10.411   1.733   3.863  1.5585  0.7801 -2.2557
  984MOL0     H32782  10.394   1.559   3.898  0.4487  1.3137  0.8601
  984MOL0     H32783  10.407   1.505   3.652 -1.6903  1.6677 -1.6040
  984MOL0     H32784  10.414   1.679   3.627 -4.3479  2.7183  3.7961
  984MOL0     H32785  10.620   1.685   3.755 -1.9529 -0.4587  1.3805
  984MOL0     H32786  10.615   1.526   3.807  1.7913  1.4535  0.6348
  984MOL0     H32787  10.651   1.432   3.576  1.4303 -0.3429 -3.8448
  984MOL0     H32788  10.778   1.526   3.656  0.0808 -1.7168 -1.7562
  984MOL0     H32789  10.766   1.583   3.431  1.6295  1.5049  0.2213
  984MOL0     H32790  10.593   1.621   3.435  0.6447 -1.8041 -1.6764
  984MOL0     H32791  10.526   1.858   3.535  0.0287 -1.2319  3.5463
  984MOL0     H32792  10.532   2.089   3.617 -0.1023  1.0003 -1.1543
  984MOL0     H32793  10.674   2.143   3.720 -2.2467  0.3815  1.0352
  984MOL0     H32794  10.773   2.168   3.444  0.3966  2.2725 -1.9889
  984MOL0     H32795  10.617   2.255   3.456  1.2638  2.1025  0.6412
  984MOL0     H32796  10.742   2.359   3.672  1.4316  1.0933  0.9854
  984MOL0     H32797  10.783   2.411   3.511  1.4088 -1.8831 -3.2358
  984MOL0     H32798  10.972   2.207   3.531 -1.6672 -3.2864  1.5474
  984MOL0     H32799  10.938   2.212   3.686  0.9815 -0.9222 -1.0338
  984MOL0     H32800  11.250   2.492   3.653 -0.9628  3.9866  0.4456
  984MOL0     H32801  11.407   2.541   3.502 -1.4903 -1.1684  1.8846
  984MOL0     H32802  11.552   2.395   3.004 -1.5169  1.2375  0.2658
  984MOL0     H32803  11.738   2.485   2.869  1.3363  1.3456 -0.6803
  984MOL0     H32804  11.709   2.932   2.745 -3.0616 -4.0624  0.5763
  984MOL0     H32805  11.823   2.911   2.888  0.4235  1.5407 -0.1686
  984MOL0     H32806  11.901   2.862   2.607 -2.2688 -0.9071 -0.4353
  984MOL0     H32807  11.921   3.009   2.687 -0.0152 -1.7600 -5.6877
  984MOL0     H32808  12.034   2.754   2.844 -0.1482 -0.4750 -0.5258
  984MOL0     H32809  12.119   2.824   2.708  1.2386  5.8433 -1.6726
  984MOL0     H32810  12.058   2.977   2.957 -0.3575  1.1186 -0.7038
  984MOL0     H32811  12.161   3.014   2.818  2.0342 -0.8713 -1.1942
  984MOL0     H32812  12.316   2.846   2.854 -1.3035  0.3195 -0.8651
  984MOL0     H32813  12.204   2.746   2.955 -0.3078 -0.5155 -0.2077
  984MOL0     H32814  12.245   2.879   3.147 -1.8724  1.4459 -1.1648
  984MOL0     H32815  12.406   2.853   3.074  1.4584  2.6935  1.5500
  984MOL0     H32816  12.339   3.103   3.169  2.2125  1.8634 -1.5975
  984MOL0     H32817  12.235   3.102   3.020 -0.8807 -0.9013 -0.6211
  984MOL0     H32818  12.442   3.222   3.019 -1.3856  1.0421 -2.2710
  984MOL0     H32819  12.547   3.084   3.035 -1.3057 -1.4951  3.1453
  984MOL0     H32820  11.516   2.869   2.853 -0.7438  0.3154  1.6109
  984MOL0     H32821  11.356   2.771   2.994  0.0895 -1.0439  1.1731
  984MOL0     H32822  11.128   2.450   3.175  2.1261  2.1001 -1.9564
  984MOL0     H32823  10.955   2.396   3.352  0.2296 -0.4089 -0.2069
  984MOL0     H32824   9.910   1.726   3.414  0.2603 -1.9951  0.5297
  984MOL0     H32825   9.699   1.857   3.306 -0.2756  1.0781  0.1134
  984MOL0     H32826   9.443   2.103   3.079 -0.5563 -0.8386 -1.9706
  984MOL0     H32827   9.235   2.152   2.977  0.6247  1.6032  0.7512
  984MOL0     H32828   9.047   2.101   2.891  2.0194 -0.0075  1.1163
  984MOL0     H32829   9.023   2.263   2.971  2.0232 -1.1177 -1.5786
  984MOL0     H32830   8.816   2.252   2.862 -0.3526  1.2041  2.2060
  984MOL0     H32831   8.783   2.197   3.015 -0.9642  1.9223 -0.7266
  984MOL0     H32832   8.700   2.002   2.921 -1.3629  1.1284 -0.5174
  984MOL0     H32833   8.871   1.949   2.906 -0.2405 -0.5194  0.6582
  984MOL0     H32834   8.783   1.912   2.687  2.2050  0.8419 -0.2766
  984MOL0     H32835   8.693   2.065   2.687  0.3355 -1.2091 -2.0213
  984MOL0     H32836   9.060   2.157   2.506  0.8052 -0.4512  0.8731
  984MOL0     H32837   9.015   2.019   3.313  0.7036 -0.8806  0.1554
  984MOL0     H32838   9.113   2.031   3.522 -0.4438  1.6701 -0.4244
  984MOL0     H32839   9.250   1.914   3.517 -0.2112  1.1322  0.4687
  984MOL0     H32840   9.285   2.085   3.541  0.8241 -0.9558 -0.3625
  985MOL0     O32841  11.401   9.521   5.436  0.7989  0.1551 -0.0304
  985MOL0     C32842  11.498   9.596   5.465  0.2304 -0.4023 -0.8861
  985MOL0     O32843  11.492   9.686   5.570  0.0254  0.6045 -0.5742
  985MOL0     C32844  11.381   9.692   5.653  0.8884 -0.1183  0.4214
  985MOL0     C32845  11.396   9.681   5.792 -0.0662 -0.4997  0.1239
  985MOL0     C32846  11.300   9.715   5.882 -0.6332  0.5733  0.7214
  985MOL0     C32847  11.170   9.751   5.825  0.2222  0.5020  0.3086
  985MOL0     O32848  11.059   9.796   5.891 -0.2959  0.4832  0.0267
  985MOL0     C32849  11.033   9.784   6.027 -0.2844 -0.9352 -0.2612
  985MOL0     C32850  10.880   9.779   6.057  0.3145 -0.1267  0.0784
  985MOL0     C32851  10.797   9.916   6.036 -0.3818 -1.0754  0.3536
  985MOL0     C32852  10.804   9.985   5.903  0.4297 -0.2780  0.4075
  985MOL0     C32853  10.681  10.078   5.878 -0.9933 -0.1537  0.5540
  985MOL0     C32854  10.712  10.172   5.763  0.6109  0.4210  0.0642
  985MOL0     C32855  10.792  10.294   5.810  0.0921 -0.3849  0.6242
  985MOL0     C32856  10.716  10.426   5.824 -0.0390 -0.0159  0.0024
  985MOL0     N32857  10.786  10.528   5.902 -0.0517  0.3501 -0.1794
  985MOL0     C32858  10.812  10.510   6.040  0.1604 -0.2275 -0.4711
  985MOL0     C32859  10.887  10.613   6.070  0.1023  0.3699  0.1654
  985MOL0     C32860  10.939  10.646   6.212  0.2199  0.4476  0.2856
  985MOL0     C32861  11.077  10.603   6.221 -0.1367  0.2074 -0.2781
  985MOL0     C32862  11.167  10.711   6.163  0.2098  0.3388  0.1143
  985MOL0     C32863  11.315  10.697   6.197  0.2948 -0.7761  0.1337
  985MOL0     O32864  11.334  10.758   6.328  0.2457  0.5083 -0.4296
  985MOL0     C32865  11.447  10.755   6.400  0.1922 -0.1080 -0.7659
  985MOL0     C32866  11.444  10.760   6.539 -0.2994 -0.7038 -0.7691
  985MOL0     C32867  11.568  10.750   6.608 -0.2110  0.2539 -0.5225
  985MOL0     C32868  11.692  10.726   6.547 -0.3511  0.0914 -0.6404
  985MOL0     C32869  11.816  10.713   6.630  0.1772 -0.4030  0.1362
  985MOL0     O32870  11.803  10.681   6.765 -0.1213 -0.4232  0.2183
  985MOL0     C32871  11.898  10.702   6.859  0.4725  0.1367 -0.1589
  985MOL0     C32872  11.898  10.616   6.966 -0.6712  0.4754 -0.0873
  985MOL0     C32873  11.992  10.621   7.072 -0.5480 -0.4436  0.5544
  985MOL0     C32874  12.094  10.716   7.063 -0.0191 -0.0764  0.0816
  985MOL0     O32875  12.205  10.723   7.135  0.0973 -0.6645 -0.0194
  985MOL0     C32876  12.204  10.815   7.244 -0.8135  0.0813  0.7448
  985MOL0     C32877  12.267  10.753   7.377 -0.1093  0.5078  0.0177
  985MOL0     C32878  12.404  10.699   7.352 -0.8409 -0.0087 -0.2803
  985MOL0     C32879  12.466  10.653   7.492  0.3303 -0.1149  1.1505
  985MOL0     C32880  12.578  10.552   7.470  0.2804  0.5005  1.0557
  985MOL0     C32881  12.658  10.545   7.599 -0.4685 -0.3474  0.5053
  985MOL0     C32882  12.737  10.413   7.602 -0.5274  0.1429  0.1100
  985MOL0     C32883  12.854  10.407   7.498  0.0700 -0.4277 -0.2632
  985MOL0    Cl32884  12.980  10.522   7.563 -0.1696  0.0808 -0.1339
  985MOL0     C32885  12.091  10.812   6.960 -0.7841  0.4420  0.4392
  985MOL0     C32886  11.991  10.811   6.862  0.6940 -0.4137  0.5596
  985MOL0     O32887  11.924  10.738   6.574 -0.0173  0.0292 -0.3123
  985MOL0     C32888  11.686  10.744   6.406  0.3383 -0.2342 -0.6167
  985MOL0     C32889  11.569  10.753   6.328 -0.1298 -0.0423  0.0459
  985MOL0     N32890  10.903  10.686   5.961  0.6108  0.2673 -0.4235
  985MOL0     N32891  10.854  10.633   5.848  0.0999  0.2126 -0.2058
  985MOL0     C32892  11.152   9.751   5.684  0.0825  0.7808  0.1024
  985MOL0     C32893  11.257   9.723   5.594 -0.4440  0.7844 -0.3959
  985MOL0     C32894  11.638   9.564   5.415  0.3685  0.4922  0.6130
  985MOL0     C32895  11.634   9.491   5.300  0.0727  0.3970 -0.6572
  985MOL0     C32896  11.755   9.439   5.241  0.0533 -0.7619 -0.5268
  985MOL0     C32897  11.878   9.467   5.291  0.9615 -0.4623 -0.0752
  985MOL0     O32898  11.985   9.409   5.234 -0.3205  0.1075 -0.9315
  985MOL0     C32899  12.104   9.484   5.241  0.6147 -0.3623  0.0959
  985MOL0     C32900  12.094   9.606   5.148  0.7983  0.3218 -0.4752
  985MOL0     C32901  12.232   9.672   5.140 -0.3323 -0.4716 -0.2685
  985MOL0     C32902  12.257   9.758   5.271 -0.3119  0.4369  0.4122
  985MOL0     C32903  12.398   9.763   5.303  0.0987 -0.2763 -0.3875
  985MOL0     C32904  12.517   9.763   5.316 -0.3239 -0.0055 -0.4196
  985MOL0     C32905  11.879   9.563   5.393 -0.4800 -0.7580 -0.1854
  985MOL0     C32906  11.767   9.600   5.465 -0.4956 -0.3899 -0.1677
  985MOL0     C32907  11.785   9.685   5.585 -0.7457 -0.2518 -0.8313
  985MOL0     H32908  11.494   9.657   5.832  0.9000  0.3462 -1.6341
  985MOL0     H32909  11.312   9.720   5.990 -2.0337  0.6051  0.9032
  985MOL0     H32910  11.082   9.694   6.063  1.8813 -0.3092 -1.4643
  985MOL0     H32911  11.078   9.872   6.075 -0.6685 -0.6965 -0.3332
  985MOL0     H32912  10.874   9.745   6.161  2.3699 -0.5037  0.1164
  985MOL0     H32913  10.839   9.694   6.001  4.4651 -2.8477  0.6941
  985MOL0     H32914  10.803   9.978   6.125 -0.4979  1.5509 -1.3503
  985MOL0     H32915  10.697   9.874   6.051  0.5102 -2.5047  2.7622
  985MOL0     H32916  10.899  10.038   5.892  1.9972 -2.6225  1.8743
  985MOL0     H32917  10.802   9.907   5.827 -0.1012 -1.4142  1.5487
  985MOL0     H32918  10.593  10.020   5.850 -2.9609  2.1345  1.6204
  985MOL0     H32919  10.646  10.123   5.971  1.2826  0.0284  1.3968
  985MOL0     H32920  10.764  10.128   5.678  2.0946  0.8094  0.7401
  985MOL0     H32921  10.615  10.201   5.722  1.3045 -1.4259 -3.2004
  985MOL0     H32922  10.876  10.310   5.741 -1.3149 -1.5315 -1.4508
  985MOL0     H32923  10.843  10.273   5.905 -1.3534  0.1624  1.5523
  985MOL0     H32924  10.707  10.478   5.729  2.3813  0.1913 -0.1712
  985MOL0     H32925  10.614  10.409   5.860 -0.2478  1.4968  0.1967
  985MOL0     H32926  10.794  10.437   6.117  3.3311 -0.4539  0.1691
  985MOL0     H32927  10.936  10.753   6.234  0.0255  0.0370  2.5003
  985MOL0     H32928  10.876  10.587   6.279 -2.2565  0.1528 -2.1214
  985MOL0     H32929  11.096  10.596   6.328 -0.9148 -0.7460 -0.1862
  985MOL0     H32930  11.112  10.512   6.173  1.0227  2.1384 -3.3989
  985MOL0     H32931  11.141  10.809   6.203  0.5889  0.7008 -0.5256
  985MOL0     H32932  11.154  10.706   6.055  0.4839 -2.0378  0.1313
  985MOL0     H32933  11.366  10.750   6.116 -0.4193 -3.1730 -1.9986
  985MOL0     H32934  11.358  10.597   6.187  1.3547 -0.2438 -0.9309
  985MOL0     H32935  11.351  10.764   6.595  0.5585  0.7891  0.6569
  985MOL0     H32936  11.557  10.751   6.716 -2.8832 -1.3600 -0.6829
  985MOL0     H32937  11.826  10.535   6.974 -0.8859  0.7288  0.6852
  985MOL0     H32938  11.990  10.551   7.154 -4.3013  1.8598  2.6911
  985MOL0     H32939  12.255  10.904   7.207  0.2946 -0.0899  1.7986
  985MOL0     H32940  12.101  10.837   7.273 -0.2114  0.2355  2.8658
  985MOL0     H32941  12.261  10.832   7.453  1.4857  0.7641 -0.0920
  985MOL0     H32942  12.206  10.665   7.400 -0.9688  0.8450 -0.8939
  985MOL0     H32943  12.402  10.609   7.289  3.5105  0.6165 -1.6554
  985MOL0     H32944  12.468  10.771   7.301  3.1183 -2.4964  0.6584
  985MOL0     H32945  12.383  10.610   7.549 -0.9970  1.8051  0.7814
  985MOL0     H32946  12.508  10.738   7.546  1.3838 -0.3792  0.7705
  985MOL0     H32947  12.635  10.590   7.384 -4.7379 -2.5974 -4.4617
  985MOL0     H32948  12.535  10.455   7.442  1.8534  0.0167  0.1939
  985MOL0     H32949  12.722  10.633   7.602 -1.8085  0.6862  3.6543
  985MOL0     H32950  12.600  10.556   7.692  0.5301  0.3909  1.0685
  985MOL0     H32951  12.666  10.331   7.587 -1.2595  1.1288 -2.4217
  985MOL0     H32952  12.779  10.400   7.702 -1.7124  0.3808  0.6527
  985MOL0     H32953  12.899  10.308   7.485 -3.5898 -2.3891  0.4462
  985MOL0     H32954  12.829  10.439   7.397  1.2501  1.2366 -0.0508
  985MOL0     H32955  12.164  10.892   6.972  0.0466 -0.6300  3.3048
  985MOL0     H32956  11.997  10.890   6.788 -0.1110 -1.4382 -0.6463
  985MOL0     H32957  11.774  10.734   6.345 -0.1290  0.1859 -1.3757
  985MOL0     H32958  11.569  10.762   6.220 -1.2934  0.5214  0.0766
  985MOL0     H32959  11.054   9.783   5.650  0.1116  1.1069  0.3212
  985MOL0     H32960  11.234   9.748   5.491 -0.2895  1.2919 -0.3095
  985MOL0     H32961  11.543   9.443   5.265  1.7705 -2.0907 -1.9537
  985MOL0     H32962  11.751   9.363   5.164  0.5619 -1.3328  0.0017
  985MOL0     H32963  12.183   9.415   5.208 -0.9353 -1.3208 -1.8627
  985MOL0     H32964  12.129   9.521   5.341 -0.8710  0.5855  0.1395
  985MOL0     H32965  12.013   9.672   5.181  1.2642 -0.1976  1.9054
  985MOL0     H32966  12.055   9.574   5.051 -0.4621  1.8691 -0.5185
  985MOL0     H32967  12.237   9.743   5.057 -0.0652 -0.2361 -0.0545
  985MOL0     H32968  12.311   9.597   5.134 -0.4031 -0.6698  0.9333
  985MOL0     H32969  12.221   9.861   5.260 -2.9567 -0.2926  1.5158
  985MOL0     H32970  12.210   9.708   5.356  0.3705 -1.1417 -0.1184
  985MOL0     H32971  12.622   9.780   5.317 -0.0784 -1.0199 -2.8336
  985MOL0     H32972  11.978   9.583   5.434  0.4540 -1.6908 -1.8599
  985MOL0     H32973  11.738   9.780   5.558 -2.0189 -0.5656  0.2100
  985MOL0     H32974  11.727   9.648   5.670 -1.2238  2.5653  0.1744
  985MOL0     H32975  11.887   9.716   5.608  0.0476 -1.3965 -2.5453
  986MOL0     O32976  10.788   2.896   5.870 -0.0285 -0.5342  0.2582
  986MOL0     C32977  10.827   2.893   5.752  0.9133 -0.9526  0.9160
  986MOL0     O32978  10.952   2.873   5.709 -0.1895  0.2884  0.1917
  986MOL0     C32979  11.048   2.877   5.804 -0.4728  0.6289 -0.3386
  986MOL0     C32980  11.086   3.002   5.856 -0.2012  0.8232  0.8481
  986MOL0     C32981  11.183   3.011   5.958 -0.4269  0.5342 -0.0535
  986MOL0     C32982  11.253   2.898   5.997  0.6345 -0.0454  0.7833
  986MOL0     O32983  11.342   2.907   6.104 -0.1325  0.6665  0.1054
  986MOL0     C32984  11.416   2.789   6.154  0.9147  0.4318 -0.4240
  986MOL0     C32985  11.504   2.828   6.275 -0.4988  0.1555  1.1796
  986MOL0     C32986  11.535   2.693   6.340  0.4344  0.8386 -0.5758
  986MOL0     C32987  11.604   2.715   6.476 -0.0850 -0.2322  0.0983
  986MOL0     C32988  11.757   2.733   6.486 -0.2535  0.0004  0.3875
  986MOL0     C32989  11.833   2.596   6.491  0.5202  0.3548  0.6522
  986MOL0     C32990  11.980   2.606   6.518  0.4449  0.3741 -0.4023
  986MOL0     C32991  12.016   2.480   6.602 -0.6577 -0.1112  0.2364
  986MOL0     N32992  11.984   2.509   6.743 -0.0170  1.0406  0.4755
  986MOL0     C32993  12.063   2.583   6.832 -0.2169  0.4787  0.0841
  986MOL0     C32994  12.010   2.566   6.954  0.3450 -0.1017  0.2504
  986MOL0     C32995  12.035   2.648   7.074  0.7891  0.0411 -0.3495
  986MOL0     C32996  11.966   2.785   7.073  0.2195 -0.2183 -0.1453
  986MOL0     C32997  12.021   2.882   6.974 -0.5414  0.1782 -0.0806
  986MOL0     C32998  12.167   2.931   6.997  0.3834 -0.5489  0.1906
  986MOL0     O32999  12.189   2.934   7.136  0.5583  0.1933 -0.7387
  986MOL0     C33000  12.317   2.900   7.178 -1.2492 -0.4395 -0.0691
  986MOL0     C33001  12.445   2.935   7.119  0.6569 -0.3414  0.7379
  986MOL0     C33002  12.568   2.906   7.180 -0.2592  0.1398 -0.2400
  986MOL0     C33003  12.572   2.834   7.302 -0.8128  0.3154  0.0660
  986MOL0     C33004  12.697   2.781   7.356  0.2374 -0.6326  0.0207
  986MOL0     O33005  12.690   2.733   7.486 -0.4464  0.0349  0.6648
  986MOL0     C33006  12.807   2.697   7.544 -0.1743 -0.3064 -0.1071
  986MOL0     C33007  12.902   2.790   7.554 -0.5550 -0.2590  0.4424
  986MOL0     C33008  13.026   2.769   7.623  0.4382  0.7050  0.4424
  986MOL0     C33009  13.049   2.642   7.684  0.4257  0.9461  0.2496
  986MOL0     O33010  13.162   2.601   7.751 -0.2907  0.3988 -0.2408
  986MOL0     C33011  13.272   2.690   7.726 -0.9505 -0.1168 -0.5821
  986MOL0     C33012  13.402   2.620   7.777  0.2116  0.5856 -0.3423
  986MOL0     C33013  13.482   2.717   7.870 -0.4062 -0.4970  0.4401
  986MOL0     C33014  13.581   2.649   7.976 -0.0772 -0.1706 -0.8589
  986MOL0     C33015  13.640   2.733   8.075 -0.8614 -0.4131  0.3233
  986MOL0     C33016  13.737   2.826   8.001  0.3498 -0.8080 -0.1715
  986MOL0     C33017  13.829   2.891   8.101  0.4131  0.4054  0.2706
  986MOL0     C33018  13.899   3.012   8.032  0.2753  0.9863  0.0735
  986MOL0    Cl33019  14.042   3.075   8.111 -0.0614  0.4543  0.4230
  986MOL0     C33020  12.949   2.547   7.674 -0.2507  0.4594  0.8716
  986MOL0     C33021  12.828   2.573   7.606 -0.6263 -0.0630 -0.6891
  986MOL0     O33022  12.797   2.775   7.280 -0.6983 -0.2701 -0.1023
  986MOL0     C33023  12.451   2.785   7.352  0.4000 -1.0564  0.9441
  986MOL0     C33024  12.330   2.823   7.298  0.5663  0.0776  1.2508
  986MOL0     N33025  11.910   2.476   6.942  0.3391  0.0189  0.2632
  986MOL0     N33026  11.892   2.442   6.820  0.3309  0.3683  0.7152
  986MOL0     C33027  11.211   2.772   5.946 -0.7708  0.0195  0.2088
  986MOL0     C33028  11.096   2.761   5.862 -0.3103 -0.2364  0.0142
  986MOL0     C33029  10.723   2.922   5.646 -0.4319  0.4976 -0.0647
  986MOL0     C33030  10.586   2.902   5.685 -0.0047 -0.0327 -0.3419
  986MOL0     C33031  10.483   2.909   5.589 -1.0231 -0.7384  0.1084
  986MOL0     C33032  10.518   2.927   5.452 -0.0727  0.3399 -0.5133
  986MOL0     O33033  10.427   2.934   5.346 -0.4062  0.7083  0.8586
  986MOL0     C33034  10.318   2.842   5.345  0.0081 -0.1228 -0.6776
  986MOL0     C33035  10.192   2.925   5.342  0.0827 -0.3967 -0.9715
  986MOL0     C33036  10.064   2.847   5.354  0.0429 -0.4401  0.8798
  986MOL0     C33037   9.938   2.932   5.320  1.1365 -0.6422 -0.4842
  986MOL0     C33038   9.822   2.849   5.347 -0.3405 -0.0291  0.5068
  986MOL0     C33039   9.716   2.788   5.367  0.0003  0.4866  0.5035
  986MOL0     C33040  10.648   2.972   5.423  0.4744 -0.2998  0.4696
  986MOL0     C33041  10.750   2.959   5.513 -1.1482 -0.9539  0.4155
  986MOL0     C33042  10.882   2.998   5.455 -0.9755 -0.2195 -0.8380
  986MOL0     H33043  11.038   3.089   5.812 -0.9208 -0.7353 -1.6219
  986MOL0     H33044  11.200   3.105   6.009  1.7000 -0.5884  1.4649
  986MOL0     H33045  11.339   2.717   6.185  0.6560 -0.2027 -2.4170
  986MOL0     H33046  11.483   2.747   6.079  0.1792 -0.0022 -0.8470
  986MOL0     H33047  11.453   2.897   6.343  0.6906  1.3074  0.9595
  986MOL0     H33048  11.599   2.877   6.251  1.0291 -2.6936  0.9399
  986MOL0     H33049  11.588   2.619   6.279  0.0793  0.9842 -1.0675
  986MOL0     H33050  11.439   2.647   6.363  0.9905  0.0160  0.1932
  986MOL0     H33051  11.567   2.805   6.527  1.9916  1.3072 -0.9377
  986MOL0     H33052  11.579   2.640   6.551 -2.5472  1.4040  1.0329
  986MOL0     H33053  11.794   2.788   6.399 -0.3990 -0.6114 -0.0743
  986MOL0     H33054  11.778   2.792   6.575  0.9508  1.0174 -0.5372
  986MOL0     H33055  11.792   2.538   6.574  2.2971  0.3093  1.5652
  986MOL0     H33056  11.811   2.549   6.395 -0.8920  0.8484  0.7092
  986MOL0     H33057  12.014   2.698   6.568 -0.4095  0.1049  0.7372
  986MOL0     H33058  12.026   2.614   6.420 -1.5549  1.8544 -1.3113
  986MOL0     H33059  11.965   2.392   6.562 -1.8761  1.2226 -1.2558
  986MOL0     H33060  12.121   2.449   6.600 -1.2176 -2.3817 -3.9499
  986MOL0     H33061  12.129   2.661   6.793 -2.5364  1.1430 -2.8701
  986MOL0     H33062  12.006   2.598   7.167  0.0088  0.8956 -0.1250
  986MOL0     H33063  12.144   2.660   7.081  0.7063  0.4971  0.2281
  986MOL0     H33064  11.859   2.763   7.062  0.0415 -1.8067  3.5007
  986MOL0     H33065  11.973   2.830   7.172 -3.7538  1.4431 -0.4445
  986MOL0     H33066  11.959   2.972   6.980  2.0363  1.9669  1.3859
  986MOL0     H33067  12.002   2.847   6.872  2.3318 -0.4660 -0.4736
  986MOL0     H33068  12.192   3.032   6.965  0.1073 -0.0756  1.3896
  986MOL0     H33069  12.231   2.855   6.949  2.5205  1.7675 -0.8559
  986MOL0     H33070  12.432   2.993   7.029 -0.5550 -3.8852 -1.5641
  986MOL0     H33071  12.661   2.933   7.132 -0.2307 -2.3434 -1.7529
  986MOL0     H33072  12.891   2.883   7.501  1.4483 -0.8912 -1.2334
  986MOL0     H33073  13.100   2.847   7.612  1.7353 -0.5614 -0.1644
  986MOL0     H33074  13.282   2.708   7.619 -2.1550 -0.5462 -0.7875
  986MOL0     H33075  13.248   2.786   7.772  1.1318  0.5903 -0.8585
  986MOL0     H33076  13.370   2.533   7.835  1.2618 -1.2459 -2.4008
  986MOL0     H33077  13.454   2.581   7.689  1.3605  0.5155  0.3482
  986MOL0     H33078  13.537   2.778   7.797 -1.2683  0.4435  0.5432
  986MOL0     H33079  13.409   2.771   7.931  0.0589 -1.0791  1.5343
  986MOL0     H33080  13.664   2.600   7.924  2.0473  4.1165 -1.9186
  986MOL0     H33081  13.528   2.578   8.040 -1.5810 -1.5202 -3.4158
  986MOL0     H33082  13.701   2.678   8.147  3.6849  1.7255 -1.4886
  986MOL0     H33083  13.568   2.795   8.130  0.6283  0.7880  0.9801
  986MOL0     H33084  13.790   2.771   7.923 -0.5640 -0.7302 -0.8615
  986MOL0     H33085  13.668   2.894   7.950 -1.0471 -1.5643  0.6463
  986MOL0     H33086  13.896   2.811   8.134  0.0876  0.3621  0.8458
  986MOL0     H33087  13.767   2.930   8.182 -1.1378 -1.1311 -0.1100
  986MOL0     H33088  13.937   2.975   7.936 -0.9826  0.0574 -0.0955
  986MOL0     H33089  13.840   3.098   8.000  1.4493  0.9286 -2.4628
  986MOL0     H33090  12.968   2.448   7.716  0.6483 -0.3802 -1.3588
  986MOL0     H33091  12.744   2.504   7.610  0.7845 -1.9600 -2.0985
  986MOL0     H33092  12.461   2.714   7.433 -1.3354 -4.5032 -1.6250
  986MOL0     H33093  12.243   2.793   7.356  0.3713 -1.8412  0.0437
  986MOL0     H33094  11.276   2.686   5.957 -0.3922  0.4492  1.6199
  986MOL0     H33095  11.067   2.668   5.814 -0.5309 -0.1249 -0.0648
  986MOL0     H33096  10.559   2.865   5.783 -0.3726 -0.2331 -0.5158
  986MOL0     H33097  10.381   2.891   5.623 -0.2300 -3.6718  1.2363
  986MOL0     H33098  10.323   2.774   5.431 -1.6100 -0.7316 -1.0298
  986MOL0     H33099  10.337   2.783   5.255 -1.0999  0.1524 -1.1103
  986MOL0     H33100  10.195   2.978   5.247  0.0504  0.0165 -0.7458
  986MOL0     H33101  10.197   2.991   5.429  0.4640  0.3318 -1.5367
  986MOL0     H33102  10.063   2.805   5.455 -0.1454 -0.0556  1.0409
  986MOL0     H33103  10.075   2.763   5.285 -1.5289  2.0470 -2.6836
  986MOL0     H33104   9.931   3.024   5.378  3.3606 -0.8653  0.2169
  986MOL0     H33105   9.935   2.970   5.217 -1.5720 -1.0044 -0.6218
  986MOL0     H33106   9.643   2.720   5.404  0.7401 -1.1667 -0.9185
  986MOL0     H33107  10.666   3.004   5.321 -1.9584  2.8916  0.8935
  986MOL0     H33108  10.942   2.909   5.433  2.2880  0.9542  2.3266
  986MOL0     H33109  10.871   3.054   5.361  0.2267 -1.8578 -2.0100
  986MOL0     H33110  10.932   3.065   5.526 -0.1417 -1.5856 -0.1097
  987MOL0     O33111   3.687   1.779   2.713 -0.4893  0.5439 -0.3930
  987MOL0     C33112   3.754   1.680   2.684 -1.0149 -1.4730  0.4404
  987MOL0     O33113   3.713   1.570   2.621  0.4862  0.5117  0.0692
  987MOL0     C33114   3.580   1.557   2.612 -0.1885  0.5040  0.9670
  987MOL0     C33115   3.513   1.618   2.503  1.1437 -0.2532  0.4417
  987MOL0     C33116   3.378   1.608   2.491  0.8753  1.0680 -0.2682
  987MOL0     C33117   3.300   1.548   2.591  0.0026  0.9206 -1.0395
  987MOL0     O33118   3.165   1.543   2.575  0.8840  0.1094  0.1729
  987MOL0     C33119   3.088   1.420   2.605 -0.2989 -0.8459 -0.8466
  987MOL0     C33120   2.941   1.442   2.557 -0.3948 -0.7660  0.8611
  987MOL0     C33121   2.888   1.555   2.640 -0.1284  1.1842  0.1911
  987MOL0     C33122   2.738   1.561   2.628  0.1636 -0.0205  0.3365
  987MOL0     C33123   2.689   1.698   2.663 -0.6208  0.0001 -0.6820
  987MOL0     C33124   2.543   1.705   2.683  0.4928  1.0761 -1.0550
  987MOL0     C33125   2.500   1.833   2.757  1.0190 -0.6436 -0.4928
  987MOL0     C33126   2.431   1.935   2.659 -1.1049  0.7308  0.2558
  987MOL0     N33127   2.362   2.034   2.734  0.3432 -0.4130  0.2667
  987MOL0     C33128   2.233   2.013   2.766  0.2527 -0.3716  0.4219
  987MOL0     C33129   2.179   2.128   2.813  0.6061 -0.1270  0.2355
  987MOL0     C33130   2.039   2.130   2.862  0.7748 -0.2382  0.0734
  987MOL0     C33131   1.933   2.163   2.747  0.1009 -0.2216 -0.6479
  987MOL0     C33132   1.786   2.193   2.787 -1.1496 -0.9040 -0.4548
  987MOL0     C33133   1.764   2.328   2.845  0.2999 -0.3645  0.2552
  987MOL0     O33134   1.620   2.353   2.874  0.1566  0.0703  0.5681
  987MOL0     C33135   1.581   2.483   2.899  0.9060 -0.1754 -0.5360
  987MOL0     C33136   1.657   2.597   2.925 -0.1123  0.4940  0.1438
  987MOL0     C33137   1.601   2.724   2.950  0.9545 -0.2555 -0.2792
  987MOL0     C33138   1.462   2.744   2.936  1.2365  0.3682  1.4645
  987MOL0     C33139   1.393   2.870   2.966 -0.3996 -0.5384 -0.0867
  987MOL0     O33140   1.485   2.973   2.964 -0.0225 -0.3401 -0.7808
  987MOL0     C33141   1.425   3.094   2.975 -0.0618 -0.3621 -1.4082
  987MOL0     C33142   1.428   3.165   3.096 -0.5144 -0.7158  0.3633
  987MOL0     C33143   1.364   3.287   3.107  1.1501  0.6520 -0.3980
  987MOL0     C33144   1.299   3.352   2.997 -0.0441 -0.7414  0.7280
  987MOL0     O33145   1.225   3.470   3.012  0.7663 -0.4153 -0.1663
  987MOL0     C33146   1.148   3.476   3.136 -0.5619  0.2869 -0.3154
  987MOL0     C33147   1.040   3.575   3.115 -0.1776 -0.7189 -0.0357
  987MOL0     C33148   0.926   3.527   3.032 -0.0438  0.2686 -0.0811
  987MOL0     C33149   0.816   3.630   3.011  0.7177  0.0486 -0.0070
  987MOL0     C33150   0.704   3.590   2.905  0.7351  0.5020 -0.1955
  987MOL0     C33151   0.636   3.456   2.936  0.1430 -1.2256 -0.5583
  987MOL0     C33152   0.517   3.429   2.843  0.7729 -0.3361  0.6545
  987MOL0     C33153   0.480   3.281   2.838  0.3653  0.0828 -0.8011
  987MOL0    Cl33154   0.323   3.291   2.774 -0.0160  0.4070  0.2182
  987MOL0     C33155   1.291   3.287   2.875 -0.4149 -0.3919 -0.6475
  987MOL0     C33156   1.352   3.155   2.868 -0.1875 -0.7822 -0.4896
  987MOL0     O33157   1.280   2.880   2.971  0.2535 -0.0224 -0.1398
  987MOL0     C33158   1.386   2.634   2.898  0.1956 -0.4114  0.5430
  987MOL0     C33159   1.439   2.504   2.893  0.7820  0.2161 -0.7456
  987MOL0     N33160   2.276   2.221   2.795  0.3850 -0.1529 -0.7196
  987MOL0     N33161   2.385   2.166   2.746 -0.0906 -1.4465 -0.1414
  987MOL0     C33162   3.367   1.480   2.700 -0.5352 -0.2371  0.3999
  987MOL0     C33163   3.507   1.481   2.697  0.0381  0.6259 -1.2586
  987MOL0     C33164   3.896   1.665   2.740  0.0138  0.0868  0.5830
  987MOL0     C33165   3.934   1.544   2.792 -0.9194  0.4372 -0.2981
  987MOL0     C33166   4.071   1.517   2.816 -0.5076  0.7237 -0.0732
  987MOL0     C33167   4.171   1.605   2.784  0.1603  0.1752  0.1658
  987MOL0     O33168   4.308   1.587   2.812 -0.7652  0.6628  0.1297
  987MOL0     C33169   4.350   1.450   2.791  0.7555 -0.2135 -0.3664
  987MOL0     C33170   4.504   1.438   2.794 -1.1595  0.8164 -0.3081
  987MOL0     C33171   4.581   1.566   2.737  0.1488  0.1169 -0.2677
  987MOL0     C33172   4.729   1.538   2.710  0.3825  0.5576 -0.7393
  987MOL0     C33173   4.753   1.410   2.646  0.4168  0.4103  0.1328
  987MOL0     C33174   4.764   1.296   2.602 -0.5714 -0.0287  0.2709
  987MOL0     C33175   4.135   1.730   2.738 -0.5391  0.0132  0.8232
  987MOL0     C33176   4.002   1.762   2.712  0.0701 -0.7879  0.3144
  987MOL0     C33177   3.986   1.888   2.638  0.4050 -0.0541 -0.3501
  987MOL0     H33178   3.562   1.683   2.431  1.7400  0.0330  1.0937
  987MOL0     H33179   3.327   1.666   2.415 -2.9579  0.8008  1.7856
  987MOL0     H33180   3.122   1.328   2.558  1.9266  0.6274 -2.3153
  987MOL0     H33181   3.092   1.389   2.710  0.4855 -0.1258 -0.6502
  987MOL0     H33182   2.878   1.353   2.567 -4.3319  1.3162 -2.4753
  987MOL0     H33183   2.939   1.484   2.457 -0.7077  2.8486  2.2501
  987MOL0     H33184   2.922   1.653   2.606 -3.1367  2.7548  1.4331
  987MOL0     H33185   2.907   1.541   2.747 -4.1975 -1.0526  0.8401
  987MOL0     H33186   2.708   1.546   2.523 -1.2063  2.4747  0.3015
  987MOL0     H33187   2.699   1.486   2.696 -0.1910  1.0084  1.2926
  987MOL0     H33188   2.737   1.734   2.754 -1.2415 -0.8434 -0.0029
  987MOL0     H33189   2.722   1.775   2.593 -0.3458  0.6070  0.1033
  987MOL0     H33190   2.481   1.694   2.593 -0.3911 -2.5447 -0.1843
  987MOL0     H33191   2.526   1.617   2.746 -0.4409  2.4856  0.7796
  987MOL0     H33192   2.581   1.888   2.807 -1.2302  2.2842  0.2002
  987MOL0     H33193   2.420   1.802   2.824  1.5864  0.9495  0.9911
  987MOL0     H33194   2.514   1.976   2.602  0.2483 -1.3403  0.6271
  987MOL0     H33195   2.358   1.889   2.592 -1.9941 -1.6081  2.6297
  987MOL0     H33196   2.184   1.918   2.745  1.4876 -0.4938 -2.3036
  987MOL0     H33197   2.008   2.034   2.905 -2.0160 -0.2015 -1.6882
  987MOL0     H33198   2.028   2.212   2.933  1.0565  0.8529 -1.1136
  987MOL0     H33199   1.971   2.248   2.689 -1.4859 -0.0061 -1.4156
  987MOL0     H33200   1.936   2.073   2.685  1.3811 -0.8309  0.2365
  987MOL0     H33201   1.761   2.119   2.863 -1.6932 -0.5623 -0.2950
  987MOL0     H33202   1.723   2.195   2.698  0.3164 -2.2912 -1.5848
  987MOL0     H33203   1.800   2.401   2.772  0.2415  0.2237  0.8161
  987MOL0     H33204   1.822   2.346   2.935 -0.9955 -2.6592  1.6574
  987MOL0     H33205   1.765   2.584   2.918 -0.1664 -0.3241  0.7740
  987MOL0     H33206   1.674   2.801   2.975 -0.6490  0.6825  1.8173
  987MOL0     H33207   1.463   3.118   3.188  1.2551  1.7901  1.0876
  987MOL0     H33208   1.376   3.334   3.204  1.8434 -0.0304 -0.1426
  987MOL0     H33209   1.104   3.376   3.148  1.9052 -0.6545  1.8376
  987MOL0     H33210   1.206   3.493   3.227 -0.1951 -1.6724 -0.1352
  987MOL0     H33211   1.013   3.624   3.209  0.0855  2.8095 -1.6624
  987MOL0     H33212   1.088   3.663   3.072  1.6485 -0.1866  2.8305
  987MOL0     H33213   0.963   3.495   2.934  0.8135  1.1541 -0.0633
  987MOL0     H33214   0.888   3.435   3.078  0.3605  0.4434  0.6168
  987MOL0     H33215   0.860   3.726   2.983  1.2500  0.4466  2.0539
  987MOL0     H33216   0.766   3.641   3.108  0.9099  1.5008 -0.0566
  987MOL0     H33217   0.740   3.577   2.803 -1.4394  0.0176 -0.9672
  987MOL0     H33218   0.629   3.670   2.909  0.5161  0.2527  2.4791
  987MOL0     H33219   0.714   3.381   2.924  0.4922 -1.0708  0.5917
  987MOL0     H33220   0.599   3.460   3.039  1.2672 -0.6575 -0.1546
  987MOL0     H33221   0.529   3.466   2.741  1.1734  1.1373  1.2127
  987MOL0     H33222   0.434   3.491   2.877  1.4071  1.5506 -1.0459
  987MOL0     H33223   0.545   3.230   2.767 -0.9674 -0.8452 -1.3998
  987MOL0     H33224   0.486   3.239   2.939 -0.8130  1.2203 -0.2225
  987MOL0     H33225   1.242   3.333   2.790  2.2528  0.3776 -1.8752
  987MOL0     H33226   1.348   3.098   2.776  0.5692 -2.9581  0.7405
  987MOL0     H33227   1.280   2.657   2.884  0.5454  0.5512 -0.6682
  987MOL0     H33228   1.370   2.425   2.865 -2.3167  2.1661  0.8108
  987MOL0     H33229   3.307   1.421   2.768 -0.3730  0.2885  1.0095
  987MOL0     H33230   3.557   1.410   2.761 -0.3665  1.2729 -0.1958
  987MOL0     H33231   3.863   1.463   2.810 -0.3583 -0.2072 -0.9123
  987MOL0     H33232   4.092   1.419   2.858 -0.3551  0.4370 -0.8145
  987MOL0     H33233   4.315   1.415   2.694 -1.8358  2.3400 -0.5005
  987MOL0     H33234   4.309   1.399   2.879  2.1248 -1.2526 -0.2932
  987MOL0     H33235   4.536   1.348   2.740  1.0575  1.1842  0.3035
  987MOL0     H33236   4.546   1.424   2.894 -0.2197  0.7109 -0.7071
  987MOL0     H33237   4.576   1.638   2.819  3.4260 -2.3321  2.3541
  987MOL0     H33238   4.521   1.604   2.653  0.0496 -2.2039 -1.3223
  987MOL0     H33239   4.766   1.619   2.647  1.9973 -0.8888 -1.7545
  987MOL0     H33240   4.790   1.540   2.801  1.3425 -0.0895 -1.3453
  987MOL0     H33241   4.764   1.195   2.564  1.4733  0.1805 -0.3964
  987MOL0     H33242   4.213   1.799   2.708 -0.7156 -0.6570 -1.4022
  987MOL0     H33243   3.894   1.889   2.579  0.6031  0.4258 -0.6573
  987MOL0     H33244   3.989   1.964   2.717 -0.9493 -0.8469  0.5078
  987MOL0     H33245   4.064   1.904   2.564  1.2300  0.5056  0.6086
  988MOL0     O33246  10.744   7.869   0.534 -0.4833  0.4424 -0.0156
  988MOL0     C33247  10.853   7.845   0.573 -0.2011  0.3309 -0.1611
  988MOL0     O33248  10.919   7.918   0.670 -0.4499  0.0398  0.4156
  988MOL0     C33249  10.836   7.977   0.761 -1.3909 -0.5897 -1.3445
  988MOL0     C33250  10.840   7.914   0.885 -0.3670 -0.3007 -0.2033
  988MOL0     C33251  10.758   7.959   0.990 -0.4591  0.1747  0.0866
  988MOL0     C33252  10.679   8.067   0.975  0.3905 -0.1719  0.3253
  988MOL0     O33253  10.578   8.090   1.073 -0.1254 -0.5324  0.3424
  988MOL0     C33254  10.459   8.171   1.042 -0.0372 -1.1354  0.5724
  988MOL0     C33255  10.332   8.125   1.114  0.2606 -1.2354 -0.5176
  988MOL0     C33256  10.213   8.212   1.096 -0.7154 -0.1952 -0.3873
  988MOL0     C33257  10.141   8.181   0.973  0.4689  0.2536 -0.2586
  988MOL0     C33258  10.042   8.291   0.938 -0.3555  0.7543 -0.2923
  988MOL0     C33259   9.937   8.247   0.831  1.2127  0.3387 -1.4456
  988MOL0     C33260   9.829   8.353   0.800  0.0015  0.2774 -1.1335
  988MOL0     C33261   9.897   8.453   0.703 -0.6739 -0.5625  0.3772
  988MOL0     N33262   9.949   8.393   0.565 -0.2903  0.2286 -1.1262
  988MOL0     C33263   9.875   8.298   0.506 -1.2808 -0.3803  0.5368
  988MOL0     C33264   9.969   8.241   0.419 -0.0085 -0.3356  0.1679
  988MOL0     C33265   9.953   8.125   0.322 -0.3529  0.6888  0.2536
  988MOL0     C33266  10.007   7.990   0.388  0.0602 -1.0977  0.0836
  988MOL0     C33267   9.975   7.867   0.309  0.1641  0.0550 -0.9362
  988MOL0     C33268  10.090   7.786   0.255 -0.0086 -0.1342 -0.2372
  988MOL0     O33269  10.176   7.863   0.166 -0.2999  0.0291 -0.6728
  988MOL0     C33270  10.287   7.811   0.124  0.2619  0.0515  0.0185
  988MOL0     C33271  10.310   7.668   0.116  0.0895 -1.4340 -0.2149
  988MOL0     C33272  10.428   7.622   0.063 -0.3895 -0.3211 -0.4278
  988MOL0     C33273  10.532   7.704   0.022  0.1262 -0.2008 -0.2582
  988MOL0     C33274  10.660   7.637  -0.018  0.0780 -0.9932 -0.0503
  988MOL0     O33275  10.683   7.500  -0.007 -0.1993 -0.0638 -0.9080
  988MOL0     C33276  10.800   7.461  -0.073  0.7462  0.3456  1.0729
  988MOL0     C33277  10.892   7.394  -0.002  0.0547 -0.8567  0.4541
  988MOL0     C33278  10.996   7.336  -0.070 -0.1791 -0.4881  0.7405
  988MOL0     C33279  11.019   7.353  -0.209  0.2760 -0.5239  1.3375
  988MOL0     O33280  11.122   7.292  -0.279  0.6510  0.1609  0.0434
  988MOL0     C33281  11.072   7.195  -0.373 -0.1640 -0.7528  0.1290
  988MOL0     C33282  11.088   7.049  -0.338 -0.6384  1.0861  0.4354
  988MOL0     C33283  11.032   7.014  -0.206  0.3455  1.0557  0.0780
  988MOL0     C33284  11.130   6.998  -0.084  0.0976  0.7467  0.3716
  988MOL0     C33285  11.063   6.951   0.047  0.2551 -0.3314 -0.2485
  988MOL0     C33286  11.167   6.906   0.149 -0.4297  0.3528 -0.1194
  988MOL0     C33287  11.119   6.900   0.292 -0.5547 -0.0236  0.0726
  988MOL0     C33288  11.222   6.873   0.408  0.5771 -0.0070  0.7096
  988MOL0    Cl33289  11.368   6.987   0.400 -0.1411  0.0604 -0.0184
  988MOL0     C33290  10.924   7.432  -0.282 -0.0375  0.5218  0.3671
  988MOL0     C33291  10.808   7.472  -0.203 -0.3976 -0.9876  0.2297
  988MOL0     O33292  10.752   7.725  -0.037 -0.1763 -0.3918  0.1779
  988MOL0     C33293  10.511   7.844   0.035  0.6355  0.3060  0.2545
  988MOL0     C33294  10.394   7.893   0.084  1.0567 -0.2835 -0.8880
  988MOL0     N33295  10.092   8.309   0.433 -0.7148  1.0820 -0.9437
  988MOL0     N33296  10.074   8.412   0.516  0.5567  0.2515 -0.4482
  988MOL0     C33297  10.681   8.143   0.857  0.5752 -0.3074  0.6879
  988MOL0     C33298  10.769   8.100   0.752  0.5502  0.1928  0.0545
  988MOL0     C33299  10.919   7.733   0.522  0.6422 -0.1554  0.4352
  988MOL0     C33300  11.036   7.683   0.575  0.3063  0.0386  1.2891
  988MOL0     C33301  11.093   7.561   0.543 -0.6274  0.4685  0.1958
  988MOL0     C33302  11.039   7.481   0.435 -0.0842  0.1370  0.0944
  988MOL0     O33303  11.090   7.366   0.383  1.3562  0.2267  0.0943
  988MOL0     C33304  11.233   7.363   0.376  0.5655 -0.2433 -0.2669
  988MOL0     C33305  11.276   7.318   0.240 -0.6279  0.1954 -0.9864
  988MOL0     C33306  11.428   7.323   0.236 -0.1884  0.2248  0.2015
  988MOL0     C33307  11.484   7.223   0.136 -1.0808  0.2948 -0.4254
  988MOL0     C33308  11.449   7.269  -0.002 -0.2622  0.6582 -0.4039
  988MOL0     C33309  11.406   7.279  -0.112 -0.5978  0.1927 -0.6832
  988MOL0     C33310  10.916   7.525   0.386  0.7199 -0.2104  0.0062
  988MOL0     C33311  10.856   7.652   0.425 -0.5888 -0.0183  0.4833
  988MOL0     C33312  10.727   7.669   0.347 -0.1094 -0.3128  0.0564
  988MOL0     H33313  10.894   7.821   0.894 -1.1144 -0.7027  0.2520
  988MOL0     H33314  10.751   7.905   1.084  0.2609  1.4983  0.9196
  988MOL0     H33315  10.491   8.269   1.078 -2.4666  0.1483 -0.5222
  988MOL0     H33316  10.448   8.174   0.934  4.7078 -2.3744 -0.1559
  988MOL0     H33317  10.345   8.124   1.222  0.2213  0.0929 -0.4870
  988MOL0     H33318  10.317   8.020   1.085  2.1555 -0.8203 -3.3920
  988MOL0     H33319  10.245   8.317   1.095 -1.9420  0.2060  0.1629
  988MOL0     H33320  10.141   8.206   1.179  1.1616  1.0471  1.4484
  988MOL0     H33321  10.210   8.170   0.889  0.1518  2.4244 -0.8586
  988MOL0     H33322  10.081   8.093   0.996 -0.0385  0.4577 -0.7681
  988MOL0     H33323   9.992   8.319   1.031 -0.8306 -1.5838  0.2165
  988MOL0     H33324  10.106   8.375   0.907  0.5244 -0.1099 -0.8986
  988MOL0     H33325   9.985   8.215   0.738  1.9268 -0.8583 -0.7026
  988MOL0     H33326   9.880   8.158   0.859  0.5712 -0.0342 -3.7420
  988MOL0     H33327   9.796   8.401   0.893 -1.0657  1.3821 -2.0538
  988MOL0     H33328   9.749   8.299   0.750 -0.2048 -1.4048  0.8679
  988MOL0     H33329   9.835   8.538   0.672 -1.0476 -0.5535  1.1268
  988MOL0     H33330   9.971   8.513   0.756  0.1358 -1.2151  0.0103
  988MOL0     H33331   9.775   8.271   0.538 -2.4538  0.2050 -2.2962
  988MOL0     H33332   9.847   8.107   0.303 -0.1920  0.7396 -0.7309
  988MOL0     H33333   9.994   8.148   0.223 -2.5600  0.8187 -0.6912
  988MOL0     H33334  10.113   8.015   0.402 -0.1640  0.0181 -0.1123
  988MOL0     H33335   9.976   7.983   0.493  2.0777  1.1122  0.9400
  988MOL0     H33336   9.895   7.901   0.243 -1.4176 -1.5087  0.0829
  988MOL0     H33337   9.914   7.799   0.370 -2.2032  1.8076 -1.1825
  988MOL0     H33338  10.056   7.694   0.207 -1.5056  1.3106 -2.0781
  988MOL0     H33339  10.159   7.757   0.336  1.4497  0.4774 -1.2149
  988MOL0     H33340  10.235   7.597   0.150 -1.1176 -0.2526 -0.3343
  988MOL0     H33341  10.452   7.516   0.071  0.4284 -0.0112  2.3212
  988MOL0     H33342  10.897   7.376   0.105  2.8671 -1.2128  0.3446
  988MOL0     H33343  11.061   7.271  -0.013 -0.6269 -1.4216  0.1972
  988MOL0     H33344  10.966   7.205  -0.394  0.1933  0.1697 -1.3787
  988MOL0     H33345  11.120   7.220  -0.468 -3.5718 -0.6647 -1.6913
  988MOL0     H33346  11.027   6.993  -0.409 -1.5195  1.1303  1.1434
  988MOL0     H33347  11.191   7.011  -0.340 -0.6601  1.0368  0.1325
  988MOL0     H33348  10.951   7.082  -0.178  0.2026  0.0550  2.3183
  988MOL0     H33349  10.989   6.914  -0.220  1.1365  0.4986  1.3978
  988MOL0     H33350  11.184   7.090  -0.061  1.2346  0.7471 -2.0053
  988MOL0     H33351  11.205   6.920  -0.104  2.3799  2.3520  2.1235
  988MOL0     H33352  11.003   6.862   0.026 -1.1821  0.5595 -0.0140
  988MOL0     H33353  10.999   7.025   0.095  1.2864  1.9932 -2.2243
  988MOL0     H33354  11.209   6.810   0.115  2.5673  1.9909 -1.4463
  988MOL0     H33355  11.240   6.987   0.142 -0.7002  0.6250  0.2257
  988MOL0     H33356  11.033   6.832   0.298 -2.3288  2.2043  1.6103
  988MOL0     H33357  11.063   6.991   0.315 -0.5159  0.1016 -0.3163
  988MOL0     H33358  11.169   6.894   0.501  0.9107 -2.9621  1.6741
  988MOL0     H33359  11.269   6.774   0.408 -1.7217 -1.2457  3.5518
  988MOL0     H33360  10.934   7.451  -0.388 -2.8366  0.0861 -0.0508
  988MOL0     H33361  10.730   7.524  -0.258  2.4588  2.8938 -0.5548
  988MOL0     H33362  10.586   7.918   0.009 -1.4967  1.8663 -1.9313
  988MOL0     H33363  10.398   8.001   0.094 -1.8885 -0.3285  2.3593
  988MOL0     H33364  10.633   8.240   0.868  2.4256  0.4827  2.3836
  988MOL0     H33365  10.780   8.161   0.663  1.1751 -0.6899 -0.4862
  988MOL0     H33366  11.081   7.752   0.645  1.1955  1.6578 -0.7670
  988MOL0     H33367  11.177   7.532   0.605 -2.0219 -1.0627  1.4650
  988MOL0     H33368  11.282   7.295   0.446  0.7763 -1.6550 -1.7313
  988MOL0     H33369  11.273   7.465   0.387 -2.2692  0.8781  0.7497
  988MOL0     H33370  11.231   7.371   0.156 -0.4957 -0.7592 -1.6721
  988MOL0     H33371  11.247   7.213   0.229 -0.6346 -0.1116  1.3435
  988MOL0     H33372  11.465   7.296   0.336 -0.9773 -0.3608  0.3431
  988MOL0     H33373  11.467   7.424   0.219  0.0392  0.4594  1.8974
  988MOL0     H33374  11.593   7.209   0.138 -1.1394 -0.0802  0.1090
  988MOL0     H33375  11.446   7.122   0.150  1.9907 -0.9098  0.0993
  988MOL0     H33376  11.372   7.291  -0.213  0.3159  1.5308 -0.8669
  988MOL0     H33377  10.870   7.454   0.319 -1.9781 -0.3390  1.8110
  988MOL0     H33378  10.720   7.614   0.253  0.0835 -0.2405 -0.0013
  988MOL0     H33379  10.644   7.628   0.406 -1.1601  1.5351 -0.0664
  988MOL0     H33380  10.700   7.774   0.331 -1.5869 -0.3250  2.0701
  989MOL0     O33381   7.715   1.137   0.600  0.1637 -0.3844 -0.0439
  989MOL0     C33382   7.790   1.048   0.586 -0.0987 -0.3060 -0.2917
  989MOL0     O33383   7.767   0.926   0.528  0.3586  0.2135 -0.0371
  989MOL0     C33384   7.856   0.831   0.517 -0.5040 -0.1312  0.3824
  989MOL0     C33385   7.850   0.728   0.613  0.0211 -0.1093 -0.3304
  989MOL0     C33386   7.944   0.624   0.597  0.0474 -0.3669  0.1594
  989MOL0     C33387   8.037   0.631   0.488  0.3784  0.0952  0.1277
  989MOL0     O33388   8.108   0.517   0.467  0.3521  0.2534  0.5494
  989MOL0     C33389   8.250   0.531   0.452  0.0069 -0.4389 -0.6650
  989MOL0     C33390   8.328   0.547   0.582 -0.4962  0.0036  0.2934
  989MOL0     C33391   8.474   0.550   0.544 -1.0365  0.5416  0.1613
  989MOL0     C33392   8.573   0.525   0.654  0.4715  0.2609  1.0118
  989MOL0     C33393   8.716   0.524   0.610 -0.1223 -0.4523  0.6242
  989MOL0     C33394   8.799   0.531   0.743  0.7485  0.5988  0.3522
  989MOL0     C33395   8.948   0.553   0.689  0.0285  0.0526 -0.1930
  989MOL0     C33396   9.060   0.543   0.795 -0.0190 -0.3971 -0.0498
  989MOL0     N33397   9.043   0.665   0.878  0.4542  0.4439  0.3930
  989MOL0     C33398   9.087   0.788   0.841  0.3656 -0.9509  0.7342
  989MOL0     C33399   9.003   0.866   0.917  0.1442  0.0991  0.4212
  989MOL0     C33400   8.994   1.010   0.914 -0.0699  0.1803 -0.4278
  989MOL0     C33401   9.121   1.095   0.938 -1.2126  0.0730  0.7036
  989MOL0     C33402   9.182   1.053   1.074  1.3518 -0.4548  0.4728
  989MOL0     C33403   9.278   1.154   1.129 -0.5025 -0.4924  0.1549
  989MOL0     O33404   9.298   1.134   1.264  0.1073  0.2977  0.5686
  989MOL0     C33405   9.376   1.220   1.339  0.2823 -0.4423 -1.0883
  989MOL0     C33406   9.424   1.343   1.295 -0.2210  0.4733 -0.2588
  989MOL0     C33407   9.509   1.419   1.382  0.6871 -0.5651  0.3643
  989MOL0     C33408   9.537   1.372   1.512 -0.6121 -0.1519 -0.0242
  989MOL0     C33409   9.621   1.445   1.609 -0.8904 -0.1891 -0.7712
  989MOL0     O33410   9.690   1.375   1.704 -0.9945  0.7672 -0.6776
  989MOL0     C33411   9.700   1.424   1.833 -0.6024  1.1326  0.0832
  989MOL0     C33412   9.582   1.462   1.903  0.3872  0.6546 -0.0840
  989MOL0     C33413   9.592   1.505   2.032 -0.3757  0.0308 -0.3858
  989MOL0     C33414   9.711   1.508   2.099 -0.7070  0.5078 -0.6035
  989MOL0     O33415   9.718   1.558   2.226 -0.4355 -0.0809 -0.3624
  989MOL0     C33416   9.837   1.545   2.310 -0.0336 -0.0568  0.3003
  989MOL0     C33417   9.820   1.594   2.448 -0.4172 -0.2503  0.1061
  989MOL0     C33418   9.735   1.501   2.535 -0.3437 -0.3291  0.4206
  989MOL0     C33419   9.665   1.570   2.653 -0.0414 -0.2937  0.4259
  989MOL0     C33420   9.585   1.480   2.739  0.4012  0.7031 -0.6791
  989MOL0     C33421   9.657   1.353   2.794  0.7581 -0.5516 -0.5601
  989MOL0     C33422   9.784   1.383   2.870  0.2859  0.0810 -0.2868
  989MOL0     C33423   9.809   1.283   2.988  0.4732 -0.7281 -0.1116
  989MOL0    Cl33424   9.679   1.249   3.098  0.1643 -0.5242  0.1669
  989MOL0     C33425   9.828   1.448   2.032 -0.0087 -1.1115 -0.7025
  989MOL0     C33426   9.820   1.405   1.907 -0.1104 -0.1397  0.0070
  989MOL0     O33427   9.631   1.563   1.589  0.9559 -0.5045  0.6138
  989MOL0     C33428   9.490   1.246   1.552 -0.7353 -0.9488 -0.5966
  989MOL0     C33429   9.420   1.171   1.461 -0.4394 -0.2649 -0.9785
  989MOL0     N33430   8.920   0.792   0.991  0.8846 -0.8921  0.2559
  989MOL0     N33431   8.944   0.675   0.965  0.7295  0.3238  0.0311
  989MOL0     C33432   8.046   0.743   0.406  0.3542 -0.5745  0.2260
  989MOL0     C33433   7.947   0.838   0.416  0.4917  0.0977 -0.6120
  989MOL0     C33434   7.924   1.080   0.651  0.4168 -0.0676 -0.4636
  989MOL0     C33435   7.968   0.998   0.757 -0.4381  0.1553  0.3343
  989MOL0     C33436   8.098   0.992   0.795  0.7069 -0.6247  0.2771
  989MOL0     C33437   8.196   1.071   0.736 -0.6396  0.6754 -0.5306
  989MOL0     O33438   8.319   1.074   0.803 -0.2418 -0.8785  0.5622
  989MOL0     C33439   8.436   1.081   0.715  1.2608 -0.5107  0.0920
  989MOL0     C33440   8.553   1.008   0.778 -0.2342  0.3648 -0.4938
  989MOL0     C33441   8.584   1.055   0.920  0.2215  0.1209 -0.2841
  989MOL0     C33442   8.639   1.203   0.932 -0.6913  0.0025 -0.1533
  989MOL0     C33443   8.713   1.222   1.058  0.4763  1.8557 -0.0266
  989MOL0     C33444   8.777   1.254   1.156 -0.9019  0.6612  0.0548
  989MOL0     C33445   8.151   1.157   0.631 -1.5962  0.2826 -0.3834
  989MOL0     C33446   8.017   1.162   0.592 -0.6175 -0.9770 -0.5943
  989MOL0     C33447   7.979   1.228   0.455  0.2940 -0.0848  0.1867
  989MOL0     H33448   7.767   0.732   0.683 -0.3292 -1.2623 -0.6498
  989MOL0     H33449   7.951   0.538   0.664  2.5998 -0.6248 -0.3405
  989MOL0     H33450   8.278   0.433   0.412 -0.4017 -2.0570  2.5994
  989MOL0     H33451   8.279   0.613   0.386  3.9537 -0.8648  0.3178
  989MOL0     H33452   8.294   0.473   0.655 -2.7428  2.4991  1.9976
  989MOL0     H33453   8.306   0.641   0.632  2.4368  0.3702  1.0462
  989MOL0     H33454   8.498   0.647   0.498  0.0163 -0.4342 -1.4605
  989MOL0     H33455   8.499   0.476   0.467  1.3180  0.3094  1.0746
  989MOL0     H33456   8.565   0.610   0.723  1.4952 -0.2239  1.7540
  989MOL0     H33457   8.529   0.442   0.711  0.5558 -1.3000 -1.1031
  989MOL0     H33458   8.732   0.434   0.551  2.7684  0.7115 -0.5198
  989MOL0     H33459   8.742   0.611   0.549 -0.2728 -2.2840 -2.2330
  989MOL0     H33460   8.760   0.608   0.810 -2.1040 -0.5482  0.1504
  989MOL0     H33461   8.809   0.440   0.803  2.8743 -0.0520 -0.8682
  989MOL0     H33462   8.957   0.649   0.638  1.1979 -0.4902 -1.0621
  989MOL0     H33463   8.966   0.477   0.612 -3.9565  0.9006 -2.2472
  989MOL0     H33464   9.070   0.447   0.846  1.9627 -1.5671 -2.4379
  989MOL0     H33465   9.152   0.546   0.737 -2.2740  1.3622 -3.9436
  989MOL0     H33466   9.154   0.822   0.763 -0.6242 -1.6969 -0.4810
  989MOL0     H33467   8.959   1.051   0.819 -1.2045  1.6322  0.5794
  989MOL0     H33468   8.928   1.044   0.994 -0.3488 -1.2287 -0.0250
  989MOL0     H33469   9.194   1.083   0.858 -0.2000  1.8467  1.3268
  989MOL0     H33470   9.112   1.203   0.922  2.2433  0.3931  0.1611
  989MOL0     H33471   9.226   0.953   1.069 -1.1143 -1.6369  0.6549
  989MOL0     H33472   9.095   1.041   1.140  0.7812  1.4856  0.1528
  989MOL0     H33473   9.240   1.255   1.108 -1.1418 -1.2471 -2.8937
  989MOL0     H33474   9.375   1.145   1.079 -1.4439  0.4177 -1.9906
  989MOL0     H33475   9.401   1.395   1.202 -2.2926  3.5705  1.7865
  989MOL0     H33476   9.538   1.519   1.349 -0.6477 -0.5283 -0.8234
  989MOL0     H33477   9.489   1.435   1.854  1.0494 -1.1485 -0.4272
  989MOL0     H33478   9.498   1.528   2.081  0.3229  0.5904  0.7326
  989MOL0     H33479   9.887   1.447   2.311  0.0430 -0.0268  1.5962
  989MOL0     H33480   9.915   1.610   2.270 -1.1265  1.9183  1.2604
  989MOL0     H33481   9.916   1.610   2.499  0.0426 -1.0335 -0.4988
  989MOL0     H33482   9.761   1.685   2.442 -1.7039 -1.1045 -0.5738
  989MOL0     H33483   9.654   1.455   2.478 -0.7197  1.2296 -0.3635
  989MOL0     H33484   9.784   1.410   2.568  0.6091 -0.2156 -0.6289
  989MOL0     H33485   9.610   1.651   2.605  1.5983  3.2765  4.0059
  989MOL0     H33486   9.741   1.613   2.718  0.0882  0.0958  0.0189
  989MOL0     H33487   9.497   1.439   2.688 -0.1501  1.8123 -0.6541
  989MOL0     H33488   9.548   1.550   2.814 -0.0775  0.5839 -0.7986
  989MOL0     H33489   9.585   1.299   2.858  2.8336 -0.7642  1.7500
  989MOL0     H33490   9.683   1.280   2.717  1.4987  0.0616 -0.8888
  989MOL0     H33491   9.789   1.479   2.922  2.1664 -0.7400  1.1493
  989MOL0     H33492   9.869   1.391   2.802 -0.3782  2.8222 -0.9015
  989MOL0     H33493   9.835   1.182   2.954 -0.5102  0.0983 -3.7995
  989MOL0     H33494   9.891   1.325   3.047 -1.7918  1.7145  1.5244
  989MOL0     H33495   9.920   1.451   2.089 -0.3962  0.1062 -0.0947
  989MOL0     H33496   9.904   1.365   1.851  2.5420  3.1483  1.3388
  989MOL0     H33497   9.504   1.219   1.656  1.4521 -1.5181 -0.9917
  989MOL0     H33498   9.393   1.069   1.485 -0.2141  0.3200  2.2575
  989MOL0     H33499   8.116   0.769   0.327 -1.5672 -1.1110 -1.7587
  989MOL0     H33500   7.947   0.933   0.363  1.7421 -0.3802 -1.4981
  989MOL0     H33501   7.898   0.933   0.809 -0.2233  0.0906  0.5410
  989MOL0     H33502   8.116   0.924   0.877 -1.6574 -2.7595 -0.8303
  989MOL0     H33503   8.456   1.188   0.714 -1.1227  0.0029 -0.0289
  989MOL0     H33504   8.418   1.040   0.615 -1.8335 -4.0252  1.8045
  989MOL0     H33505   8.630   1.031   0.704 -1.2284 -1.0364 -2.0226
  989MOL0     H33506   8.540   0.899   0.774 -2.7353  0.5866  0.0051
  989MOL0     H33507   8.662   0.984   0.948  0.1743  0.0765 -0.2672
  989MOL0     H33508   8.499   1.050   0.988  1.6144 -1.1330  1.4576
  989MOL0     H33509   8.705   1.231   0.850  0.1312  2.8270  1.3269
  989MOL0     H33510   8.561   1.280   0.931  0.8288  1.6432  1.5071
  989MOL0     H33511   8.843   1.284   1.234 -0.0031  2.5485 -1.3689
  989MOL0     H33512   8.217   1.230   0.586  1.8291 -0.2546  3.2051
  989MOL0     H33513   7.935   1.160   0.381  0.5294 -0.5140  0.4349
  989MOL0     H33514   7.909   1.310   0.467 -1.7091 -1.6535 -0.2650
  989MOL0     H33515   8.066   1.265   0.399 -0.5587 -0.2901 -1.3360
  990MOL0     O33516   0.339   8.583   1.606  0.0862 -0.0371  0.0646
  990MOL0     C33517   0.274   8.671   1.550 -0.1698 -0.1861 -0.2523
  990MOL0     O33518   0.313   8.717   1.425  0.3991 -0.4625 -0.3973
  990MOL0     C33519   0.423   8.657   1.369 -0.1042 -0.6502  0.0853
  990MOL0     C33520   0.400   8.567   1.265 -0.2980 -0.3543 -0.0087
  990MOL0     C33521   0.502   8.491   1.197 -0.5597  0.3023 -0.8912
  990MOL0     C33522   0.632   8.516   1.249 -0.5728  0.5178 -0.1162
  990MOL0     O33523   0.752   8.449   1.206  0.2311  0.0267 -0.6811
  990MOL0     C33524   0.740   8.357   1.100  1.0841 -0.5335  0.1527
  990MOL0     C33525   0.873   8.305   1.047  0.2694  0.2516 -0.1078
  990MOL0     C33526   0.977   8.266   1.164 -0.2189  0.3051  0.6170
  990MOL0     C33527   1.122   8.242   1.097  0.8710  0.5286 -0.1566
  990MOL0     C33528   1.232   8.177   1.181  0.5197 -0.2136 -0.1250
  990MOL0     C33529   1.371   8.202   1.107 -0.2074  0.3679 -0.2457
  990MOL0     C33530   1.478   8.089   1.133 -0.4138  0.3084 -0.8673
  990MOL0     C33531   1.617   8.114   1.060  0.3680  1.0622  0.5002
  990MOL0     N33532   1.677   7.983   1.033  0.4449  0.0665  0.7093
  990MOL0     C33533   1.657   7.911   0.913 -0.7180  0.7211  0.2462
  990MOL0     C33534   1.703   7.782   0.941  0.4262  0.6307  0.4839
  990MOL0     C33535   1.698   7.667   0.841  0.2273 -0.4596  0.5727
  990MOL0     C33536   1.828   7.657   0.762  1.0197 -0.5408 -0.4233
  990MOL0     C33537   1.850   7.768   0.661 -0.8646 -0.2778  0.2483
  990MOL0     C33538   1.960   7.718   0.563 -0.3229  0.0455 -1.1547
  990MOL0     O33539   2.070   7.671   0.638  0.3578  0.0235  0.4154
  990MOL0     C33540   2.191   7.687   0.589 -0.2346  0.0529 -0.4383
  990MOL0     C33541   2.278   7.576   0.576 -0.0471 -0.2130 -0.7793
  990MOL0     C33542   2.404   7.589   0.531  0.2041  0.4809 -0.7784
  990MOL0     C33543   2.455   7.714   0.509 -0.0883 -0.5331 -0.2288
  990MOL0     C33544   2.592   7.727   0.459  0.1954 -0.8532  0.3770
  990MOL0     O33545   2.672   7.612   0.448 -0.3119  0.4837 -0.2494
  990MOL0     C33546   2.801   7.621   0.409  0.8533 -0.5369 -0.2141
  990MOL0     C33547   2.893   7.708   0.473  0.4116  0.2974  0.3035
  990MOL0     C33548   3.011   7.730   0.409  0.1111  0.5080 -0.1700
  990MOL0     C33549   3.057   7.658   0.306  0.2749  0.1120 -1.1177
  990MOL0     O33550   3.189   7.691   0.270 -0.2796  0.1242 -0.3369
  990MOL0     C33551   3.249   7.618   0.158  0.4015 -0.2367 -0.3155
  990MOL0     C33552   3.169   7.642   0.030  0.0941 -0.3819 -0.2402
  990MOL0     C33553   3.189   7.541  -0.077 -0.2560 -0.6258  1.2123
  990MOL0     C33554   3.109   7.569  -0.214 -0.3249  0.8001  0.2743
  990MOL0     C33555   3.121   7.426  -0.291 -0.3143 -0.2379 -0.4434
  990MOL0     C33556   3.028   7.430  -0.416  0.3758 -0.2226 -0.1514
  990MOL0     C33557   2.896   7.496  -0.405  0.6844  0.2418 -0.0154
  990MOL0     C33558   2.794   7.470  -0.511  0.6665 -0.1045  0.0064
  990MOL0    Cl33559   2.631   7.539  -0.485  0.7520 -0.0766 -0.2723
  990MOL0     C33560   2.975   7.555   0.264 -0.1520  0.2208  0.4055
  990MOL0     C33561   2.849   7.544   0.310 -0.0327 -0.2574  0.5380
  990MOL0     O33562   2.621   7.835   0.411  0.0944  0.2880 -0.4165
  990MOL0     C33563   2.374   7.827   0.528 -0.6985 -0.4461 -0.9570
  990MOL0     C33564   2.241   7.812   0.564  0.1165  0.4397 -0.6394
  990MOL0     N33565   1.750   7.778   1.068 -0.1092  1.1130  0.8982
  990MOL0     N33566   1.726   7.896   1.124 -0.4703 -0.3043  0.3128
  990MOL0     C33567   0.660   8.613   1.343  0.2873  0.7251  0.0262
  990MOL0     C33568   0.554   8.683   1.400 -0.5181 -0.4733  0.0166
  990MOL0     C33569   0.143   8.719   1.593  0.1575 -0.1830 -0.5657
  990MOL0     C33570   0.061   8.770   1.492 -0.2088 -0.3028  0.2247
  990MOL0     C33571  -0.062   8.827   1.520  0.6989 -1.5809 -0.8770
  990MOL0     C33572  -0.096   8.837   1.650  0.1900  0.3527  0.2902
  990MOL0     O33573  -0.206   8.906   1.695 -0.5702 -0.3148 -0.1085
  990MOL0     C33574  -0.329   8.841   1.661 -0.0252 -0.1928 -0.1549
  990MOL0     C33575  -0.436   8.903   1.746 -1.1217 -0.3186  0.2171
  990MOL0     C33576  -0.437   8.864   1.891 -0.3161  0.0832 -1.0279
  990MOL0     C33577  -0.581   8.897   1.945  0.0155  0.3845  0.0154
  990MOL0     C33578  -0.597   8.852   2.080 -0.0139  0.1826 -0.3482
  990MOL0     C33579  -0.629   8.817   2.196  0.0769  0.2411  0.7068
  990MOL0     C33580  -0.023   8.772   1.745 -0.6898 -0.1973 -0.6637
  990MOL0     C33581   0.094   8.704   1.725  0.6253 -0.5762  0.3467
  990MOL0     C33582   0.176   8.655   1.844 -0.4583 -0.4569  0.0358
  990MOL0     H33583   0.296   8.549   1.237 -0.3518  1.1679 -0.9614
  990MOL0     H33584   0.487   8.421   1.116  0.2538 -0.9540  0.0120
  990MOL0     H33585   0.681   8.274   1.140  0.5149 -0.4879 -0.5675
  990MOL0     H33586   0.691   8.400   1.012  1.0008 -1.8235 -0.4585
  990MOL0     H33587   0.908   8.378   0.974 -2.1327 -1.2909 -3.0588
  990MOL0     H33588   0.851   8.221   0.980 -0.2176  1.7792 -1.9224
  990MOL0     H33589   0.947   8.175   1.217  0.5938  2.3985  5.1605
  990MOL0     H33590   0.977   8.345   1.239 -0.4201 -1.8667  3.0548
  990MOL0     H33591   1.110   8.171   1.015  2.2905 -0.8410  0.7731
  990MOL0     H33592   1.149   8.341   1.058 -0.7743  1.2977  0.5407
  990MOL0     H33593   1.218   8.216   1.283 -2.6524  1.1419 -0.9402
  990MOL0     H33594   1.212   8.070   1.183 -0.4625 -0.0440  1.9070
  990MOL0     H33595   1.349   8.190   1.001  0.7885 -1.8683 -0.2530
  990MOL0     H33596   1.394   8.308   1.125 -5.6418  1.7317  0.5323
  990MOL0     H33597   1.431   7.997   1.099  2.6773 -1.4355 -0.7766
  990MOL0     H33598   1.495   8.079   1.240  5.0591 -0.2256 -1.4845
  990MOL0     H33599   1.592   8.149   0.959 -1.3079 -0.6341  0.2583
  990MOL0     H33600   1.676   8.185   1.117 -0.5941  0.6167  2.1191
  990MOL0     H33601   1.602   7.929   0.821 -1.9673 -1.8713  0.3966
  990MOL0     H33602   1.674   7.570   0.885 -1.1371  0.2390  1.4368
  990MOL0     H33603   1.607   7.688   0.784 -0.4301  3.1531  2.6903
  990MOL0     H33604   1.914   7.655   0.829  1.3834  0.7807 -0.8073
  990MOL0     H33605   1.836   7.563   0.708  2.6445 -0.1527 -0.9063
  990MOL0     H33606   1.883   7.860   0.710 -3.9942  1.1576 -0.1273
  990MOL0     H33607   1.761   7.798   0.606 -0.5377 -0.2921 -0.3046
  990MOL0     H33608   1.992   7.798   0.496  2.0102 -0.6021 -0.8967
  990MOL0     H33609   1.933   7.626   0.509  1.0710 -2.7424  2.5103
  990MOL0     H33610   2.238   7.480   0.607  1.0498 -0.0811  1.1996
  990MOL0     H33611   2.469   7.503   0.520  0.3775  0.2717  1.5000
  990MOL0     H33612   2.851   7.760   0.558 -0.0801 -0.8780  0.8050
  990MOL0     H33613   3.085   7.799   0.451  0.4779 -0.1688  0.3076
  990MOL0     H33614   3.351   7.658   0.154  1.2949 -2.1812  1.5427
  990MOL0     H33615   3.258   7.512   0.183 -2.3248 -0.2650  0.8783
  990MOL0     H33616   3.061   7.646   0.045 -0.9579 -0.1730 -5.7422
  990MOL0     H33617   3.208   7.735  -0.013 -0.0099  0.4897  1.4440
  990MOL0     H33618   3.293   7.549  -0.108 -0.9724 -0.0087 -1.2992
  990MOL0     H33619   3.162   7.442  -0.038 -0.2626 -1.3783 -0.5716
  990MOL0     H33620   3.147   7.660  -0.261 -0.6243  0.9369  0.2971
  990MOL0     H33621   3.006   7.594  -0.188 -0.0014 -1.0664  4.0402
  990MOL0     H33622   3.083   7.343  -0.233 -0.3859 -0.6886 -1.1219
  990MOL0     H33623   3.224   7.395  -0.313 -0.1716 -1.5124  1.7779
  990MOL0     H33624   3.081   7.485  -0.495 -1.4496  1.7897 -0.0495
  990MOL0     H33625   3.019   7.333  -0.467  2.1333  0.4900 -1.9630
  990MOL0     H33626   2.913   7.603  -0.385  0.9755  0.2647 -0.3845
  990MOL0     H33627   2.853   7.459  -0.311  1.1184 -0.9521 -0.2809
  990MOL0     H33628   2.828   7.512  -0.606 -0.3170  2.4724  0.7008
  990MOL0     H33629   2.784   7.362  -0.526 -1.7375  0.0339  0.2517
  990MOL0     H33630   3.020   7.483   0.197  0.2721  0.3437  0.5585
  990MOL0     H33631   2.776   7.478   0.264  1.1226 -1.1651 -0.0383
  990MOL0     H33632   2.410   7.927   0.505  2.1889 -0.9923  0.6946
  990MOL0     H33633   2.173   7.897   0.569 -2.7177 -1.6855  0.1628
  990MOL0     H33634   0.765   8.630   1.364  0.9523 -0.3700 -2.1676
  990MOL0     H33635   0.562   8.767   1.469 -3.0348 -0.1035 -0.0399
  990MOL0     H33636   0.096   8.755   1.390 -2.2496 -1.7030 -0.3403
  990MOL0     H33637  -0.138   8.861   1.450  0.5675  4.0105  1.4396
  990MOL0     H33638  -0.339   8.735   1.687 -1.6681  0.4206  2.0792
  990MOL0     H33639  -0.355   8.852   1.556 -2.8173  0.3159  0.5051
  990MOL0     H33640  -0.529   8.865   1.704 -0.4350  0.5118 -2.2015
  990MOL0     H33641  -0.426   9.010   1.725 -0.8594 -0.6601 -1.5265
  990MOL0     H33642  -0.355   8.907   1.950 -0.3686  0.3366 -1.1432
  990MOL0     H33643  -0.417   8.756   1.888  3.1045  0.5136  1.0064
  990MOL0     H33644  -0.585   9.006   1.955  0.3736  0.2269  2.7123
  990MOL0     H33645  -0.666   8.861   1.887  0.3083 -4.1778  1.9635
  990MOL0     H33646  -0.637   8.794   2.300  1.8185  1.5101  1.1678
  990MOL0     H33647  -0.064   8.778   1.846 -0.2646  0.7664 -0.5391
  990MOL0     H33648   0.145   8.692   1.942 -0.7577 -0.3067 -0.1149
  990MOL0     H33649   0.167   8.546   1.850  0.4031 -0.4991  0.8936
  990MOL0     H33650   0.282   8.677   1.829 -0.7710 -0.0204 -1.8217
  991MOL0     O33651   0.937   5.192   4.558 -0.5730 -0.5426 -0.0288
  991MOL0     C33652   0.849   5.266   4.510  0.2334 -0.2198  0.2527
  991MOL0     O33653   0.869   5.396   4.467  0.1819 -0.1727  0.7453
  991MOL0     C33654   0.986   5.463   4.501  0.2915  0.5681 -0.3827
  991MOL0     C33655   1.070   5.512   4.400 -0.1396  0.0489  0.2779
  991MOL0     C33656   1.176   5.597   4.428  0.1524 -0.2394  0.4867
  991MOL0     C33657   1.226   5.612   4.558 -0.2426 -0.8869 -0.1469
  991MOL0     O33658   1.346   5.677   4.571 -0.7344 -0.2687  0.3229
  991MOL0     C33659   1.402   5.690   4.704 -0.8922 -0.1127 -0.1584
  991MOL0     C33660   1.531   5.762   4.688 -0.5466  0.8568  0.5029
  991MOL0     C33661   1.581   5.802   4.827  0.4877 -0.5635  0.4729
  991MOL0     C33662   1.727   5.840   4.805 -0.5325 -0.5237  0.6777
  991MOL0     C33663   1.783   5.902   4.926  0.0687  0.2377  0.2529
  991MOL0     C33664   1.933   5.925   4.924  0.2520  0.5666  0.2989
  991MOL0     C33665   2.028   5.798   4.956  0.3327 -0.1086  0.5524
  991MOL0     C33666   2.180   5.830   4.961 -0.1047 -0.6530  0.4981
  991MOL0     N33667   2.226   5.916   5.075  0.5128  0.8599 -0.5260
  991MOL0     C33668   2.302   6.027   5.076 -0.9029  0.9897 -0.7219
  991MOL0     C33669   2.331   6.057   5.206  0.2839  0.9876  0.1297
  991MOL0     C33670   2.410   6.168   5.250 -1.0130 -0.2185  0.5134
  991MOL0     C33671   2.365   6.304   5.198  0.5747  0.0759 -0.3142
  991MOL0     C33672   2.376   6.426   5.296 -0.0934  0.4248 -0.3417
  991MOL0     C33673   2.306   6.412   5.428  0.2057 -0.2420 -0.1970
  991MOL0     O33674   2.358   6.322   5.533 -0.0131  0.1004  0.0632
  991MOL0     C33675   2.468   6.357   5.600 -0.7630  0.6069 -0.3707
  991MOL0     C33676   2.539   6.258   5.682  0.7798 -0.1698 -0.7618
  991MOL0     C33677   2.670   6.283   5.732  0.3201 -0.4691  0.3236
  991MOL0     C33678   2.714   6.414   5.737 -0.2142  0.1307  0.0285
  991MOL0     C33679   2.849   6.447   5.796 -0.1382  0.6858  0.6727
  991MOL0     O33680   2.901   6.575   5.788 -0.6851 -0.2470 -0.0290
  991MOL0     C33681   3.026   6.595   5.844  0.0659  0.1644  0.2438
  991MOL0     C33682   3.145   6.528   5.798 -0.1053  0.4551  0.4773
  991MOL0     C33683   3.270   6.546   5.857  0.1825 -0.8651  0.1726
  991MOL0     C33684   3.290   6.649   5.947 -0.5971  0.1308 -0.7104
  991MOL0     O33685   3.415   6.655   6.000  0.2793 -0.4312  0.2657
  991MOL0     C33686   3.450   6.755   6.104 -0.1133 -0.3009  0.2517
  991MOL0     C33687   3.605   6.744   6.136 -0.1777 -0.3306 -0.4630
  991MOL0     C33688   3.635   6.609   6.208 -0.1697 -1.1810 -0.2477
  991MOL0     C33689   3.580   6.604   6.357 -0.8153  0.3655  0.1430
  991MOL0     C33690   3.696   6.612   6.447  0.8233  0.3205  0.8794
  991MOL0     C33691   3.649   6.573   6.593  0.1793  0.7458 -0.4105
  991MOL0     C33692   3.761   6.598   6.693 -0.3197 -0.2145  0.3933
  991MOL0     C33693   3.703   6.609   6.824 -0.3547  0.0600 -1.0859
  991MOL0    Cl33694   3.841   6.612   6.933 -0.2159  0.2406 -0.2930
  991MOL0     C33695   3.172   6.722   5.986 -0.1878  0.7104  0.0211
  991MOL0     C33696   3.045   6.690   5.935 -0.0390 -0.0991 -0.0019
  991MOL0     O33697   2.901   6.353   5.858 -0.6927 -0.5958  0.0845
  991MOL0     C33698   2.646   6.508   5.660 -0.3707 -0.3300  0.3946
  991MOL0     C33699   2.534   6.476   5.584 -0.2874  0.6898  0.5585
  991MOL0     N33700   2.268   5.964   5.285  0.2073 -0.5359 -0.5597
  991MOL0     N33701   2.208   5.876   5.209  0.2544  0.3448  0.1639
  991MOL0     C33702   1.150   5.546   4.666  0.0949 -0.3348  0.5371
  991MOL0     C33703   1.025   5.493   4.639  0.2973  0.5418  0.0138
  991MOL0     C33704   0.710   5.223   4.474 -0.3353 -0.0074  0.4908
  991MOL0     C33705   0.626   5.316   4.410 -0.2682 -0.1233 -0.4226
  991MOL0     C33706   0.496   5.287   4.371 -0.5827  0.5389  0.3041
  991MOL0     C33707   0.445   5.157   4.396 -0.5716 -0.1154 -0.0060
  991MOL0     O33708   0.322   5.110   4.359 -0.2796  0.4866  0.4673
  991MOL0     C33709   0.243   5.213   4.295  0.0815  0.0809 -0.7974
  991MOL0     C33710   0.110   5.148   4.246  0.0500 -0.0594 -0.9406
  991MOL0     C33711   0.009   5.255   4.190  0.1142  1.0331  0.2946
  991MOL0     C33712  -0.138   5.201   4.190  0.2496  0.0595  0.2859
  991MOL0     C33713  -0.151   5.088   4.102 -0.1607 -0.1421  0.1318
  991MOL0     C33714  -0.156   4.989   4.035 -0.3199  0.3160  0.0134
  991MOL0     C33715   0.522   5.071   4.467 -0.5775  0.3447 -0.1019
  991MOL0     C33716   0.657   5.099   4.504  0.2271 -0.6565 -0.0128
  991MOL0     C33717   0.727   5.000   4.591  0.9292  0.0231  0.4108
  991MOL0     H33718   1.050   5.495   4.295  0.7763  1.5723 -0.1782
  991MOL0     H33719   1.223   5.642   4.342 -2.1598 -0.6776 -1.1003
  991MOL0     H33720   1.335   5.756   4.760 -3.9648 -0.7946 -2.6882
  991MOL0     H33721   1.415   5.598   4.762  1.2202 -0.4308 -1.0346
  991MOL0     H33722   1.509   5.849   4.625 -1.1065 -1.2787 -2.4379
  991MOL0     H33723   1.607   5.700   4.640  0.9505 -0.0289  3.7234
  991MOL0     H33724   1.577   5.713   4.891  4.0104 -0.0518  1.6689
  991MOL0     H33725   1.524   5.884   4.871  1.2436  1.8430 -2.6846
  991MOL0     H33726   1.793   5.756   4.782 -0.0262  0.5310 -2.1463
  991MOL0     H33727   1.737   5.900   4.714  1.2928  0.0784  1.2416
  991MOL0     H33728   1.740   6.002   4.936  1.9421  1.2263 -1.0240
  991MOL0     H33729   1.762   5.839   5.013  1.8296 -1.4290 -0.4759
  991MOL0     H33730   1.949   5.969   4.825 -1.5311 -0.5349 -0.5288
  991MOL0     H33731   1.960   6.000   4.999  0.6285  1.2660 -0.5272
  991MOL0     H33732   2.010   5.716   4.886  1.3367  1.4841 -1.7098
  991MOL0     H33733   2.010   5.769   5.059 -1.2091  0.4316  0.4665
  991MOL0     H33734   2.231   5.735   4.944  0.8368 -0.4346  1.9141
  991MOL0     H33735   2.208   5.874   4.864 -1.1114 -1.2871 -0.0997
  991MOL0     H33736   2.353   6.081   4.996  1.2003  1.3607  0.7902
  991MOL0     H33737   2.390   6.167   5.358 -0.1464  0.8908  0.7062
  991MOL0     H33738   2.515   6.147   5.232 -1.0557  1.7204 -2.8420
  991MOL0     H33739   2.426   6.336   5.113 -1.1612  0.4680 -1.4623
  991MOL0     H33740   2.265   6.298   5.156  0.1482  2.8801  0.0788
  991MOL0     H33741   2.320   6.507   5.247 -2.0837 -0.6030  0.1028
  991MOL0     H33742   2.482   6.451   5.305  0.0695  0.6681 -2.3371
  991MOL0     H33743   2.203   6.378   5.414 -1.0047  2.7582  0.4902
  991MOL0     H33744   2.294   6.513   5.471 -1.2375 -0.0211 -1.0802
  991MOL0     H33745   2.493   6.162   5.702  1.5311  0.0050  2.3435
  991MOL0     H33746   2.740   6.209   5.769 -1.0804 -1.7495  0.4577
  991MOL0     H33747   3.151   6.450   5.723 -0.6668  1.8948 -1.1167
  991MOL0     H33748   3.362   6.498   5.824 -0.9347 -0.3285 -4.4725
  991MOL0     H33749   3.424   6.854   6.065 -2.4520 -2.1197 -3.3588
  991MOL0     H33750   3.393   6.735   6.196 -1.8657  0.7480 -0.5502
  991MOL0     H33751   3.664   6.738   6.044  1.9177 -2.3357  0.9174
  991MOL0     H33752   3.624   6.835   6.194 -1.4669 -0.8953  0.9102
  991MOL0     H33753   3.608   6.518   6.154  2.1494 -1.7345 -0.6157
  991MOL0     H33754   3.745   6.611   6.205 -0.1140  3.3562 -1.8635
  991MOL0     H33755   3.537   6.504   6.374 -0.2980 -0.1202 -1.2470
  991MOL0     H33756   3.516   6.691   6.372  1.0868  1.6956  0.8166
  991MOL0     H33757   3.740   6.712   6.447 -2.5245  1.9639  0.0509
  991MOL0     H33758   3.772   6.541   6.414 -0.0652 -0.7767  1.1005
  991MOL0     H33759   3.558   6.630   6.612 -2.1234 -2.5129 -0.8960
  991MOL0     H33760   3.621   6.468   6.601  1.2220  0.4394 -0.5630
  991MOL0     H33761   3.823   6.685   6.670  0.6676 -0.3253  2.4053
  991MOL0     H33762   3.818   6.504   6.697  0.3385  0.2203  1.6431
  991MOL0     H33763   3.654   6.706   6.814 -0.2933  0.2310  0.1742
  991MOL0     H33764   3.636   6.528   6.854  0.2914 -1.8337 -4.2578
  991MOL0     H33765   3.185   6.809   6.050 -1.4384  0.4888  0.5997
  991MOL0     H33766   2.952   6.742   5.955  0.0926 -0.0592  0.4998
  991MOL0     H33767   2.667   6.614   5.661  0.6488 -0.5196  0.9472
  991MOL0     H33768   2.501   6.554   5.515 -0.9934 -1.8604 -2.1760
  991MOL0     H33769   1.175   5.528   4.770 -2.8257 -5.2538  0.6982
  991MOL0     H33770   0.962   5.462   4.722 -1.3128  1.0221 -0.9959
  991MOL0     H33771   0.653   5.418   4.387 -4.5179  0.8184 -2.2813
  991MOL0     H33772   0.443   5.375   4.337 -0.2111 -0.7048 -4.0689
  991MOL0     H33773   0.294   5.266   4.214  2.6705  1.0755  1.3174
  991MOL0     H33774   0.209   5.296   4.357  0.7951 -0.3197  0.1537
  991MOL0     H33775   0.064   5.094   4.329 -0.4525 -0.0763 -1.2232
  991MOL0     H33776   0.126   5.068   4.173  2.5490  0.8003 -1.4338
  991MOL0     H33777   0.048   5.278   4.091  1.9846  0.4997  0.8637
  991MOL0     H33778   0.005   5.350   4.245 -1.6335  0.1470  1.8113
  991MOL0     H33779  -0.171   5.176   4.291  0.7644  3.8865  1.5405
  991MOL0     H33780  -0.197   5.283   4.147  1.6912  0.3009 -1.3667
  991MOL0     H33781  -0.183   4.898   3.985  1.8683 -1.4772  1.9136
  991MOL0     H33782   0.488   4.971   4.491  2.0696 -0.8783 -1.0007
  991MOL0     H33783   0.820   4.958   4.552  0.1148 -0.8339 -0.7013
  991MOL0     H33784   0.755   5.056   4.681  4.3191  0.5966 -0.8422
  991MOL0     H33785   0.662   4.915   4.614  2.8837 -2.3929 -2.2123
  992MOL0     O33786   6.725   1.372   6.235  0.0680  0.0995  0.1002
  992MOL0     C33787   6.748   1.453   6.142  0.0968  0.3753 -0.0996
  992MOL0     O33788   6.857   1.531   6.139 -0.5667  0.1175 -0.4554
  992MOL0     C33789   6.980   1.506   6.204  0.7143 -0.5147  0.2374
  992MOL0     C33790   7.015   1.399   6.287 -0.1677  0.4721  0.0036
  992MOL0     C33791   7.147   1.390   6.346 -0.5744  0.8565 -0.2113
  992MOL0     C33792   7.246   1.475   6.306 -0.5046  0.0433 -0.0347
  992MOL0     O33793   7.373   1.457   6.358 -0.7069  0.0733  0.1239
  992MOL0     C33794   7.382   1.510   6.485  0.0492  0.3379  0.2555
  992MOL0     C33795   7.405   1.399   6.582  0.2770  0.9236  0.0026
  992MOL0     C33796   7.426   1.466   6.713  0.4218  0.3388 -1.1144
  992MOL0     C33797   7.572   1.500   6.736  0.4768 -0.0914 -0.7753
  992MOL0     C33798   7.594   1.578   6.867 -0.6868 -0.4995 -0.1758
  992MOL0     C33799   7.740   1.624   6.895  0.5574  0.5839 -0.5186
  992MOL0     C33800   7.746   1.710   7.017 -0.3951 -0.3744  0.1655
  992MOL0     C33801   7.892   1.760   7.047  0.9362 -0.8299  0.2553
  992MOL0     N33802   7.888   1.813   7.178  0.3931  0.1532  0.0082
  992MOL0     C33803   7.889   1.950   7.208  0.4289  0.4424 -0.2973
  992MOL0     C33804   7.875   1.952   7.341 -0.0649  0.6445 -0.1994
  992MOL0     C33805   7.867   2.064   7.435 -0.3519 -0.1808 -0.5828
  992MOL0     C33806   8.003   2.125   7.477  1.3752  0.1035  0.3114
  992MOL0     C33807   7.981   2.257   7.559  0.1208  0.0015 -0.1671
  992MOL0     C33808   8.107   2.323   7.608 -0.9784  0.5697  0.2941
  992MOL0     O33809   8.147   2.440   7.530  0.4369 -0.1675  0.4756
  992MOL0     C33810   8.265   2.507   7.569 -0.1940 -0.2618 -0.0956
  992MOL0     C33811   8.344   2.471   7.687  0.1315 -0.2191 -0.4082
  992MOL0     C33812   8.461   2.549   7.728 -0.2773  0.4468 -0.3608
  992MOL0     C33813   8.491   2.667   7.655 -0.3975 -0.0557  0.0967
  992MOL0     C33814   8.592   2.757   7.712  0.4941 -0.2804  0.0113
  992MOL0     O33815   8.626   2.740   7.843 -0.0636  0.1998  0.2476
  992MOL0     C33816   8.737   2.819   7.868  0.0714 -0.0234  0.4435
  992MOL0     C33817   8.722   2.921   7.964 -0.0933  0.8209 -0.3450
  992MOL0     C33818   8.830   3.011   7.992 -0.3041 -1.3909 -0.0866
  992MOL0     C33819   8.956   2.997   7.936  0.7048  0.0658  0.4899
  992MOL0     O33820   9.069   3.075   7.958  0.3565  0.5193 -0.8848
  992MOL0     C33821   9.136   3.047   8.082  1.2645 -0.7415  0.6475
  992MOL0     C33822   9.277   2.997   8.046  0.0557  0.3957 -0.3155
  992MOL0     C33823   9.364   3.100   7.961 -0.1753 -0.1550 -0.3975
  992MOL0     C33824   9.512   3.063   8.008 -0.2382 -0.3024  0.1148
  992MOL0     C33825   9.622   3.148   7.937 -0.4122  0.5315  0.1377
  992MOL0     C33826   9.611   3.163   7.787 -0.5964 -0.1326  0.5604
  992MOL0     C33827   9.744   3.202   7.725 -0.4629  0.0156 -0.6807
  992MOL0     C33828   9.725   3.215   7.574 -0.3664 -0.6715 -0.0757
  992MOL0    Cl33829   9.647   3.073   7.492  0.3121  0.1061 -0.4698
  992MOL0     C33830   8.970   2.886   7.847 -0.2253 -0.0705  0.4217
  992MOL0     C33831   8.868   2.795   7.817 -0.1764  0.6752  0.8665
  992MOL0     O33832   8.624   2.849   7.637  0.2591 -0.3474 -1.0670
  992MOL0     C33833   8.416   2.693   7.541  0.2577 -0.7965  2.0504
  992MOL0     C33834   8.306   2.618   7.502  0.2525  0.5473 -0.0568
  992MOL0     N33835   7.878   1.822   7.390 -0.3004 -0.2325 -0.4572
  992MOL0     N33836   7.883   1.739   7.291  0.4737 -0.1855 -0.3130
  992MOL0     C33837   7.220   1.573   6.208  0.7508 -0.1432 -0.4818
  992MOL0     C33838   7.087   1.590   6.160  1.0448 -0.6113 -0.3932
  992MOL0     C33839   6.634   1.486   6.049 -1.0567 -0.5102  0.2313
  992MOL0     C33840   6.646   1.607   5.978  0.4355  0.2248  0.2239
  992MOL0     C33841   6.548   1.644   5.877  0.4173  0.8156  0.6671
  992MOL0     C33842   6.448   1.558   5.848  0.8011  0.2977  0.8177
  992MOL0     O33843   6.371   1.596   5.734 -0.5851 -0.4003 -0.9766
  992MOL0     C33844   6.275   1.504   5.686 -0.1644  0.7032  0.2506
  992MOL0     C33845   6.206   1.565   5.556 -0.0767 -0.0494 -1.2894
  992MOL0     C33846   6.070   1.510   5.531 -0.3829 -0.1753 -0.8257
  992MOL0     C33847   6.057   1.358   5.523  1.7124  0.2376 -0.0513
  992MOL0     C33848   6.157   1.278   5.456  0.5843 -0.6860 -0.2379
  992MOL0     C33849   6.257   1.231   5.400 -0.2772  0.1081 -0.0863
  992MOL0     C33850   6.441   1.434   5.911  0.4779  0.4411 -0.1199
  992MOL0     C33851   6.532   1.396   6.012 -1.4275 -0.0796  0.0849
  992MOL0     C33852   6.521   1.253   6.065  0.7836  0.4837  0.7471
  992MOL0     H33853   6.953   1.314   6.310  0.1373  0.1384 -0.3964
  992MOL0     H33854   7.180   1.302   6.400  2.3432  3.1657  2.1687
  992MOL0     H33855   7.471   1.573   6.484 -0.0140  0.4451  0.9082
  992MOL0     H33856   7.297   1.574   6.512  0.5283  1.6407 -1.2256
  992MOL0     H33857   7.496   1.348   6.549  0.7392  1.2360  0.7809
  992MOL0     H33858   7.324   1.324   6.585 -1.7373  2.9542  3.6187
  992MOL0     H33859   7.382   1.410   6.796  1.5302  0.6820 -0.2732
  992MOL0     H33860   7.364   1.556   6.717 -0.5196 -0.3418  1.1359
  992MOL0     H33861   7.624   1.403   6.731 -2.8263 -2.0778 -0.0482
  992MOL0     H33862   7.610   1.553   6.648 -0.0048  3.1441  0.8282
  992MOL0     H33863   7.528   1.665   6.877  1.1262  0.8706  0.2455
  992MOL0     H33864   7.554   1.515   6.948  2.1764 -2.2549 -0.0102
  992MOL0     H33865   7.810   1.541   6.908 -2.2649 -1.6355  2.0931
  992MOL0     H33866   7.766   1.684   6.806 -0.7446  0.4145 -1.0357
  992MOL0     H33867   7.722   1.644   7.101 -0.8908  0.0763  0.3872
  992MOL0     H33868   7.675   1.792   7.002  2.2852  2.5260  2.2254
  992MOL0     H33869   7.960   1.674   7.045  1.1336 -0.7188  1.3653
  992MOL0     H33870   7.924   1.841   6.981  0.6902  2.5790  3.9749
  992MOL0     H33871   7.909   2.034   7.142  2.4325  0.7714  0.6407
  992MOL0     H33872   7.801   2.141   7.395 -0.6204  0.0146  0.2274
  992MOL0     H33873   7.810   2.041   7.526 -0.7951 -2.6936 -1.4133
  992MOL0     H33874   8.053   2.050   7.539 -0.0194 -2.3613 -1.3693
  992MOL0     H33875   8.067   2.129   7.389 -0.2188 -2.4183 -1.0799
  992MOL0     H33876   7.922   2.227   7.646 -2.0815  1.0761 -1.2126
  992MOL0     H33877   7.925   2.331   7.501 -0.2654  0.9191  1.3450
  992MOL0     H33878   8.190   2.252   7.615  0.6290  2.4452  1.2394
  992MOL0     H33879   8.075   2.347   7.709 -0.5367 -0.4359  0.6932
  992MOL0     H33880   8.327   2.383   7.749  1.8596  0.7207  1.5051
  992MOL0     H33881   8.511   2.518   7.820 -2.3757 -1.7680  0.1286
  992MOL0     H33882   8.630   2.944   8.017  1.6729  0.4188  3.1898
  992MOL0     H33883   8.800   3.088   8.062 -2.5206 -1.7171 -0.5990
  992MOL0     H33884   9.139   3.136   8.146 -0.4797  1.3924 -2.0174
  992MOL0     H33885   9.082   2.968   8.135 -1.1808  1.5449  1.7944
  992MOL0     H33886   9.325   2.988   8.144 -1.5533 -3.4197  0.3014
  992MOL0     H33887   9.282   2.901   7.994  2.6159  0.1697  0.2315
  992MOL0     H33888   9.343   3.095   7.853 -1.4185  3.6056 -0.4691
  992MOL0     H33889   9.342   3.201   7.996 -1.6740 -0.5487 -0.1185
  992MOL0     H33890   9.527   2.957   7.983 -3.5709 -0.7071 -0.6628
  992MOL0     H33891   9.527   3.091   8.112  1.4222  1.3987 -0.5108
  992MOL0     H33892   9.716   3.103   7.970 -0.7278  0.7204  1.3658
  992MOL0     H33893   9.615   3.253   7.966 -1.5966  1.1035 -2.0312
  992MOL0     H33894   9.591   3.063   7.749 -2.6996  0.4235  0.0561
  992MOL0     H33895   9.533   3.231   7.751  1.3314  0.9749 -1.8091
  992MOL0     H33896   9.822   3.126   7.738 -0.4680  0.2700  1.1794
  992MOL0     H33897   9.776   3.294   7.775  0.8740 -0.1214 -1.2510
  992MOL0     H33898   9.667   3.305   7.555 -0.4356 -0.2533  1.8777
  992MOL0     H33899   9.826   3.225   7.535 -0.6043  1.0726 -0.3037
  992MOL0     H33900   9.067   2.872   7.800 -0.7330 -1.1953 -0.3183
  992MOL0     H33901   8.884   2.706   7.757  0.4481 -0.0753  2.0946
  992MOL0     H33902   8.449   2.790   7.505 -0.7331 -1.2735 -0.3172
  992MOL0     H33903   8.255   2.629   7.407  0.5566 -2.2837 -0.6316
  992MOL0     H33904   7.300   1.636   6.170  2.4820 -0.2016  2.7406
  992MOL0     H33905   7.069   1.673   6.093 -0.6016 -0.3445  0.3155
  992MOL0     H33906   6.723   1.676   6.010  0.0653 -0.1228  2.0037
  992MOL0     H33907   6.546   1.742   5.830 -1.7955  1.0344  1.1302
  992MOL0     H33908   6.201   1.477   5.761 -0.4357 -2.4716 -1.0208
  992MOL0     H33909   6.322   1.410   5.654  0.7730  0.3842  2.4318
  992MOL0     H33910   6.286   1.547   5.484  0.5911 -0.4004 -0.4827
  992MOL0     H33911   6.194   1.671   5.579  0.6890 -0.2099 -0.0396
  992MOL0     H33912   6.034   1.549   5.435 -2.6482 -0.4059 -0.1374
  992MOL0     H33913   6.009   1.562   5.605 -0.0789 -1.6481  0.5262
  992MOL0     H33914   6.065   1.330   5.629  0.6191  1.3477  0.3564
  992MOL0     H33915   5.955   1.335   5.489  1.0131  1.8425  0.8273
  992MOL0     H33916   6.339   1.178   5.357 -1.1436 -0.8279 -0.6361
  992MOL0     H33917   6.378   1.351   5.881  1.7664 -0.0819 -1.5087
  992MOL0     H33918   6.504   1.260   6.173  0.2570  2.7871  0.5673
  992MOL0     H33919   6.446   1.183   6.028  1.1149 -0.9118  2.5622
  992MOL0     H33920   6.613   1.196   6.048 -0.2025 -1.1818  0.7792
  993MOL0     O33921   4.734   1.823   8.137  0.0043 -0.3151 -0.6229
  993MOL0     C33922   4.661   1.726   8.132  0.4654 -0.4595  0.3086
  993MOL0     O33923   4.698   1.595   8.147  0.4109 -0.4481  0.5744
  993MOL0     C33924   4.829   1.567   8.144  0.2686  0.2952 -0.3361
  993MOL0     C33925   4.912   1.609   8.041  0.1107 -0.4037 -0.3905
  993MOL0     C33926   5.047   1.573   8.035 -1.1249 -0.2775  0.0064
  993MOL0     C33927   5.102   1.486   8.136 -0.7356 -0.0597 -0.5810
  993MOL0     O33928   5.235   1.442   8.137 -0.1713  0.5694 -0.1906
  993MOL0     C33929   5.324   1.456   8.023 -0.3855 -0.0346  0.1466
  993MOL0     C33930   5.432   1.353   8.024  0.7033 -0.4944  0.4971
  993MOL0     C33931   5.528   1.385   8.142 -0.0864 -0.2483  0.8408
  993MOL0     C33932   5.657   1.305   8.117 -0.1429 -0.7282 -0.3011
  993MOL0     C33933   5.764   1.341   8.229 -0.2951 -0.3929 -0.1032
  993MOL0     C33934   5.902   1.274   8.198 -0.8195 -0.1372 -0.1992
  993MOL0     C33935   6.030   1.319   8.277  0.5250 -0.3929 -0.6349
  993MOL0     C33936   6.012   1.294   8.424 -0.2244  0.7291  1.0438
  993MOL0     N33937   6.100   1.369   8.515 -0.1655 -0.2528 -0.1747
  993MOL0     C33938   6.225   1.428   8.504  0.4221  0.0878  0.0050
  993MOL0     C33939   6.230   1.517   8.609 -0.2254 -0.3301  0.5177
  993MOL0     C33940   6.350   1.602   8.634 -0.6756  0.1132 -1.0801
  993MOL0     C33941   6.446   1.539   8.732 -0.5046 -0.6908 -0.0287
  993MOL0     C33942   6.540   1.651   8.780  0.5164  0.0983  0.3168
  993MOL0     C33943   6.619   1.616   8.899  1.0550 -0.0079 -0.5624
  993MOL0     O33944   6.713   1.509   8.858 -0.0066 -0.2551 -0.5975
  993MOL0     C33945   6.840   1.531   8.905 -0.6082  0.0620  0.4649
  993MOL0     C33946   6.884   1.565   9.036  0.0626  0.1983 -0.7329
  993MOL0     C33947   7.012   1.556   9.076  0.9211  0.3950 -1.2128
  993MOL0     C33948   7.107   1.513   8.979  0.5346 -0.2574 -0.3248
  993MOL0     C33949   7.242   1.491   9.017  0.3040 -0.3350  0.2741
  993MOL0     O33950   7.278   1.531   9.141 -0.4088 -0.2907  0.9615
  993MOL0     C33951   7.411   1.525   9.174  0.3584 -0.2574 -0.6505
  993MOL0     C33952   7.445   1.414   9.252 -0.9038  0.5216 -0.5104
  993MOL0     C33953   7.581   1.376   9.262 -0.5070  0.3382  0.8159
  993MOL0     C33954   7.683   1.450   9.198 -0.4799 -0.0052 -0.1771
  993MOL0     O33955   7.815   1.420   9.198 -1.0001  0.3021  0.3524
  993MOL0     C33956   7.844   1.288   9.223 -0.3074  0.6694  0.1622
  993MOL0     C33957   7.997   1.268   9.213  0.0252 -0.7833 -0.1010
  993MOL0     C33958   8.062   1.310   9.085  0.8129 -0.2997 -0.0308
  993MOL0     C33959   8.192   1.239   9.060 -0.8803 -0.3035  0.2974
  993MOL0     C33960   8.292   1.240   9.185  0.1259  0.2175 -0.0997
  993MOL0     C33961   8.374   1.365   9.166  0.1318  0.5292 -0.5756
  993MOL0     C33962   8.491   1.393   9.255 -0.3162 -0.9838  0.6399
  993MOL0     C33963   8.588   1.499   9.197 -0.3844  0.4838 -0.1804
  993MOL0    Cl33964   8.724   1.530   9.310 -0.3006  0.2576 -0.3331
  993MOL0     C33965   7.644   1.561   9.125  0.6910 -0.5290  0.2954
  993MOL0     C33966   7.508   1.602   9.112  0.6037 -0.7276  0.7863
  993MOL0     O33967   7.318   1.441   8.929  0.0653  0.2178 -0.1273
  993MOL0     C33968   7.073   1.503   8.838 -0.0106 -0.8095  0.6152
  993MOL0     C33969   6.933   1.510   8.800  0.0865 -0.2560 -0.8197
  993MOL0     N33970   6.110   1.500   8.679  0.6503  0.0720 -0.0754
  993MOL0     N33971   6.035   1.404   8.634  0.1797  0.3509  0.9316
  993MOL0     C33972   5.016   1.447   8.231 -0.8911  0.4253  0.8513
  993MOL0     C33973   4.880   1.482   8.241  0.1188 -0.3923  0.4119
  993MOL0     C33974   4.521   1.761   8.080  0.8456  0.4399 -0.3792
  993MOL0     C33975   4.484   1.698   7.966  0.0810  0.0795  0.3061
  993MOL0     C33976   4.362   1.730   7.897 -0.8452 -0.0867 -0.1247
  993MOL0     C33977   4.272   1.822   7.955  0.1539 -0.3715  0.0762
  993MOL0     O33978   4.160   1.856   7.886  0.0953 -0.2303 -0.0545
  993MOL0     C33979   4.077   1.961   7.933 -0.9226 -0.3345 -0.6049
  993MOL0     C33980   3.963   1.992   7.837 -0.5098  0.2854  0.0167
  993MOL0     C33981   3.859   1.888   7.826 -0.2168 -0.4440  0.1718
  993MOL0     C33982   3.749   1.929   7.728  0.3845 -0.1176 -0.3911
  993MOL0     C33983   3.648   1.826   7.706  0.9095 -0.4244 -0.5283
  993MOL0     C33984   3.564   1.737   7.712  0.5808 -0.8680 -0.2115
  993MOL0     C33985   4.310   1.880   8.080  1.1499 -0.8180 -0.1052
  993MOL0     C33986   4.429   1.853   8.140 -0.0244  0.8139  0.4136
  993MOL0     C33987   4.458   1.911   8.279  0.2064 -0.0937 -0.1723
  993MOL0     H33988   4.876   1.680   7.967  1.5579  0.0322 -0.7004
  993MOL0     H33989   5.117   1.611   7.961 -0.4195 -0.0609  0.7718
  993MOL0     H33990   5.272   1.438   7.928  2.4719 -2.6757 -1.1161
  993MOL0     H33991   5.376   1.553   8.020  1.3993 -0.9159  0.9614
  993MOL0     H33992   5.488   1.361   7.930 -1.4622  1.6218 -0.7352
  993MOL0     H33993   5.385   1.255   8.033 -1.3480 -0.0466 -3.2301
  993MOL0     H33994   5.477   1.364   8.237 -1.7071 -0.1612  0.0337
  993MOL0     H33995   5.553   1.491   8.133 -1.1117 -0.1884 -3.2650
  993MOL0     H33996   5.641   1.197   8.118  2.8294 -1.2498  0.5358
  993MOL0     H33997   5.697   1.331   8.018  1.3864 -2.1302 -0.1073
  993MOL0     H33998   5.772   1.450   8.221 -2.3766 -0.3175 -2.4367
  993MOL0     H33999   5.728   1.320   8.330  0.5435  1.4312  0.6310
  993MOL0     H34000   5.891   1.165   8.197 -1.5830 -0.0602 -0.7957
  993MOL0     H34001   5.934   1.308   8.099 -0.9887 -2.3294 -1.0640
  993MOL0     H34002   6.039   1.425   8.251  0.2234 -0.5144 -1.2458
  993MOL0     H34003   6.126   1.273   8.249  1.2027 -1.0612  2.4646
  993MOL0     H34004   5.907   1.319   8.444  0.2666  1.0779  3.4978
  993MOL0     H34005   6.036   1.189   8.443  0.5018  0.1566 -2.3371
  993MOL0     H34006   6.298   1.411   8.425  0.5151  2.2677 -0.4513
  993MOL0     H34007   6.409   1.628   8.546  1.5627 -0.2423  0.2516
  993MOL0     H34008   6.313   1.699   8.668  0.7595 -0.2184  1.6848
  993MOL0     H34009   6.383   1.494   8.810 -0.4767 -2.6735 -1.1002
  993MOL0     H34010   6.507   1.460   8.688 -1.4798 -0.8316 -1.1852
  993MOL0     H34011   6.476   1.739   8.786 -2.1420 -1.6577 -0.2700
  993MOL0     H34012   6.610   1.676   8.700  0.8746  0.6470  0.7949
  993MOL0     H34013   6.561   1.589   8.989 -0.0363 -3.0757 -2.0457
  993MOL0     H34014   6.675   1.706   8.923  0.2522 -0.3956  3.5163
  993MOL0     H34015   6.808   1.581   9.111 -1.2082  0.4378 -2.0366
  993MOL0     H34016   7.035   1.572   9.181  3.3541  1.0795 -1.7705
  993MOL0     H34017   7.372   1.344   9.291 -1.5749 -0.9193 -3.9687
  993MOL0     H34018   7.599   1.292   9.328 -0.2802  1.4813  2.2652
  993MOL0     H34019   7.819   1.255   9.324 -0.5849 -0.4203 -0.2439
  993MOL0     H34020   7.787   1.225   9.153  1.6566 -2.2923  1.0146
  993MOL0     H34021   8.051   1.324   9.291  1.6876 -1.9959 -0.3280
  993MOL0     H34022   8.018   1.163   9.237  1.5795 -0.5975 -0.5010
  993MOL0     H34023   7.990   1.296   9.004 -1.8981  1.9425  1.8027
  993MOL0     H34024   8.084   1.417   9.095  2.8448 -0.5930 -0.8565
  993MOL0     H34025   8.238   1.294   8.978  0.4663  5.6745  4.4102
  993MOL0     H34026   8.175   1.135   9.030  1.7531 -0.1928 -1.9538
  993MOL0     H34027   8.357   1.153   9.173  0.3857  0.2801  0.7811
  993MOL0     H34028   8.248   1.247   9.285 -0.4337  4.4815 -0.4387
  993MOL0     H34029   8.422   1.361   9.067  1.3265  2.4953 -0.1331
  993MOL0     H34030   8.304   1.449   9.173  2.9536  3.0337 -0.3688
  993MOL0     H34031   8.555   1.305   9.266 -2.0112 -2.1364  1.8153
  993MOL0     H34032   8.457   1.428   9.353  0.5238 -1.4403  1.1145
  993MOL0     H34033   8.619   1.478   9.094  4.9635 -0.3597  1.2802
  993MOL0     H34034   8.545   1.599   9.187  2.4693  1.9602  0.9515
  993MOL0     H34035   7.719   1.625   9.078 -0.4773 -0.0379 -0.9805
  993MOL0     H34036   7.490   1.694   9.057  1.0763  0.3900  2.4250
  993MOL0     H34037   7.147   1.467   8.768 -0.9649 -4.0380  1.0997
  993MOL0     H34038   6.897   1.482   8.701 -1.8052  1.6035 -0.7244
  993MOL0     H34039   5.072   1.418   8.319 -2.8119  0.0344  2.0104
  993MOL0     H34040   4.828   1.455   8.332  1.0476  1.5628  1.6041
  993MOL0     H34041   4.549   1.621   7.924  0.9770  1.0190 -0.0779
  993MOL0     H34042   4.341   1.669   7.810  0.5783  0.1747 -0.6865
  993MOL0     H34043   4.141   2.047   7.951 -1.3612 -0.4745  1.9229
  993MOL0     H34044   4.039   1.917   8.026 -1.7217 -2.2268 -1.7513
  993MOL0     H34045   4.020   2.013   7.746 -3.8063  1.7177 -1.9064
  993MOL0     H34046   3.909   2.081   7.871  0.0307  1.2588 -1.5801
  993MOL0     H34047   3.821   1.880   7.928  0.7195 -2.2943  0.4352
  993MOL0     H34048   3.895   1.788   7.799 -0.6306 -0.4891 -0.2399
  993MOL0     H34049   3.698   2.011   7.778  1.2535 -0.4587  1.1314
  993MOL0     H34050   3.791   1.963   7.633  0.3718 -0.1587 -0.4118
  993MOL0     H34051   3.485   1.665   7.723 -0.8422  0.7117  0.3681
  993MOL0     H34052   4.242   1.954   8.121 -0.1987 -1.8192 -0.4712
  993MOL0     H34053   4.447   1.820   8.339  0.3730 -0.7038 -1.0433
  993MOL0     H34054   4.561   1.946   8.291  1.1637 -1.2996 -3.6322
  993MOL0     H34055   4.375   1.978   8.305 -0.7659 -1.6298  0.8529
  994MOL0     O34056   2.966   1.924   5.379  0.3997  0.0628  0.3247
  994MOL0     C34057   3.005   1.984   5.474 -0.4834  0.6103  0.5380
  994MOL0     O34058   3.135   2.002   5.499  0.0262 -0.8063  0.0465
  994MOL0     C34059   3.225   1.922   5.437 -0.1801 -0.3045 -0.6876
  994MOL0     C34060   3.279   1.969   5.315 -0.1925  0.2149 -0.3539
  994MOL0     C34061   3.368   1.893   5.242 -0.4055  0.3820  0.7087
  994MOL0     C34062   3.433   1.783   5.303  0.7293  1.3483 -0.9043
  994MOL0     O34063   3.524   1.695   5.254 -0.2737  0.0355 -0.3108
  994MOL0     C34064   3.553   1.701   5.114  0.5486  0.7820 -0.3460
  994MOL0     C34065   3.619   1.573   5.073  0.4688  0.3072 -0.1044
  994MOL0     C34066   3.526   1.446   5.096 -0.3911  0.4352 -0.7887
  994MOL0     C34067   3.532   1.383   5.240  0.4286  0.0165 -0.6457
  994MOL0     C34068   3.475   1.239   5.240 -0.7115  0.0113 -0.0885
  994MOL0     C34069   3.323   1.249   5.216 -0.0088  0.6689 -1.0896
  994MOL0     C34070   3.249   1.109   5.261 -0.4592  0.0273  0.1922
  994MOL0     C34071   3.288   1.011   5.155  0.0657 -0.0620  0.1313
  994MOL0     N34072   3.213   0.887   5.169  0.4335  0.1861  0.8632
  994MOL0     C34073   3.168   0.837   5.282 -0.5439 -0.0387 -1.0137
  994MOL0     C34074   3.083   0.741   5.246 -0.0107  0.4933 -0.2328
  994MOL0     C34075   2.989   0.660   5.343  0.0873 -0.4943 -0.7595
  994MOL0     C34076   2.888   0.563   5.274 -1.1486 -0.5734 -0.1335
  994MOL0     C34077   2.783   0.527   5.367  0.5130 -0.0227 -0.4579
  994MOL0     C34078   2.682   0.446   5.303 -0.0253 -0.6428 -0.3305
  994MOL0     O34079   2.564   0.420   5.386  0.4748  0.9525 -0.0291
  994MOL0     C34080   2.469   0.508   5.416  0.0838 -0.0976  0.1114
  994MOL0     C34081   2.375   0.469   5.506  0.1200 -1.3159 -0.3103
  994MOL0     C34082   2.249   0.536   5.525 -0.9719 -0.4899 -1.1321
  994MOL0     C34083   2.224   0.647   5.449  0.2191  0.0219 -0.6183
  994MOL0     C34084   2.094   0.718   5.459  0.6466  1.2208  0.1805
  994MOL0     O34085   1.992   0.643   5.518  0.2174  0.2267 -0.1259
  994MOL0     C34086   1.863   0.681   5.505  0.0442 -0.0226  0.1892
  994MOL0     C34087   1.814   0.738   5.388 -0.3892 -0.4762 -0.2551
  994MOL0     C34088   1.680   0.776   5.392  0.8292 -0.3276  0.0251
  994MOL0     C34089   1.595   0.745   5.504 -0.5422 -0.3267 -0.5599
  994MOL0     O34090   1.468   0.802   5.497  0.0506 -0.0801 -0.1126
  994MOL0     C34091   1.377   0.827   5.609  0.0303  0.0262  0.4892
  994MOL0     C34092   1.267   0.922   5.539  0.7962  0.8709  0.1160
  994MOL0     C34093   1.177   0.864   5.427 -0.3802  0.7983 -0.2898
  994MOL0     C34094   1.123   0.968   5.332  1.1355 -0.7800 -0.5333
  994MOL0     C34095   0.990   1.016   5.383 -0.2865 -0.0731  0.2904
  994MOL0     C34096   0.935   1.110   5.269  0.4865  0.3303 -0.1809
  994MOL0     C34097   0.819   1.184   5.324 -0.1237 -0.1184 -0.4388
  994MOL0     C34098   0.751   1.273   5.217 -0.0170  0.1306  0.4152
  994MOL0    Cl34099   0.598   1.344   5.286  0.1438  0.1609  0.5197
  994MOL0     C34100   1.647   0.682   5.612  0.3280 -0.1135  0.0608
  994MOL0     C34101   1.783   0.648   5.617 -0.3985 -1.5591  0.2017
  994MOL0     O34102   2.091   0.834   5.428 -0.1059 -0.5822 -0.3837
  994MOL0     C34103   2.331   0.696   5.366 -0.2956  1.0616 -0.3121
  994MOL0     C34104   2.450   0.632   5.352 -0.3619  0.6816 -1.0729
  994MOL0     N34105   3.100   0.714   5.115 -0.5293 -0.1165 -0.4947
  994MOL0     N34106   3.190   0.798   5.065  0.7374 -0.2315 -0.0978
  994MOL0     C34107   3.391   1.740   5.433 -0.3945 -0.3290 -0.2189
  994MOL0     C34108   3.283   1.810   5.501  0.3910 -0.9221  1.3646
  994MOL0     C34109   2.906   2.045   5.566 -0.0343 -0.5137 -0.2847
  994MOL0     C34110   2.947   2.088   5.688  0.2102  0.6362  0.5729
  994MOL0     C34111   2.868   2.158   5.774  0.6214  0.4849 -0.0787
  994MOL0     C34112   2.735   2.175   5.752  0.0819  0.2126 -0.2642
  994MOL0     O34113   2.655   2.242   5.843  0.0656  0.3906  0.3024
  994MOL0     C34114   2.517   2.210   5.843  0.2867  0.2555  0.3928
  994MOL0     C34115   2.440   2.290   5.952 -0.6161  0.3467  0.1081
  994MOL0     C34116   2.428   2.433   5.911 -0.7131  0.4106  0.3801
  994MOL0     C34117   2.332   2.497   6.015  0.4202 -0.1152 -0.4271
  994MOL0     C34118   2.341   2.639   5.989 -0.4527 -0.7684 -0.8037
  994MOL0     C34119   2.334   2.757   5.980  0.7432 -0.0949  0.1866
  994MOL0     C34120   2.688   2.129   5.628  0.3110  0.5369 -0.1863
  994MOL0     C34121   2.767   2.062   5.534  0.1325  0.4055  0.0997
  994MOL0     C34122   2.707   2.007   5.405 -0.2035  0.3388 -0.1840
  994MOL0     H34123   3.228   2.052   5.268 -2.2570  0.7136  2.4948
  994MOL0     H34124   3.387   1.920   5.138 -1.3393 -0.7301  0.2388
  994MOL0     H34125   3.456   1.703   5.062 -0.1691 -2.1230  0.6695
  994MOL0     H34126   3.612   1.790   5.092  0.5197  1.0654  0.6702
  994MOL0     H34127   3.717   1.560   5.121  0.8074  0.7306 -0.6639
  994MOL0     H34128   3.623   1.588   4.964  0.3573 -2.7760 -0.6142
  994MOL0     H34129   3.543   1.374   5.016 -0.5093  0.6416 -1.0034
  994MOL0     H34130   3.422   1.479   5.084 -0.4006  0.2332 -1.3112
  994MOL0     H34131   3.635   1.372   5.276  0.1001 -1.3866 -0.0570
  994MOL0     H34132   3.492   1.451   5.315  1.4307  0.6038 -0.6235
  994MOL0     H34133   3.522   1.188   5.156 -0.8428  0.1095 -0.2219
  994MOL0     H34134   3.504   1.191   5.334 -1.4728 -0.9646 -0.3481
  994MOL0     H34135   3.281   1.337   5.265 -0.8682 -1.8698  3.2844
  994MOL0     H34136   3.311   1.268   5.109  1.4057  2.9882 -0.8894
  994MOL0     H34137   3.141   1.125   5.249 -0.6294  1.1377  2.5885
  994MOL0     H34138   3.286   1.076   5.359 -0.2685  0.1001  0.1437
  994MOL0     H34139   3.264   1.040   5.053 -2.2604 -2.5796 -0.1433
  994MOL0     H34140   3.396   1.000   5.165  0.3209  1.3872 -0.6864
  994MOL0     H34141   3.180   0.866   5.386 -1.1435  1.6161 -1.3791
  994MOL0     H34142   3.046   0.599   5.412 -2.2088 -0.1054  1.6506
  994MOL0     H34143   2.939   0.741   5.398  1.7527 -0.0092  0.1133
  994MOL0     H34144   2.849   0.605   5.181  2.0856  0.2439 -1.2414
  994MOL0     H34145   2.944   0.475   5.241  0.2984  0.0027  0.6535
  994MOL0     H34146   2.736   0.616   5.409  1.6384 -0.0919  1.0405
  994MOL0     H34147   2.825   0.473   5.453 -2.3501 -0.5143  0.7477
  994MOL0     H34148   2.728   0.351   5.273  1.3581  0.3677 -1.5806
  994MOL0     H34149   2.652   0.503   5.214 -0.9804 -0.4874  0.0795
  994MOL0     H34150   2.380   0.373   5.557 -2.6325 -2.3823 -1.8584
  994MOL0     H34151   2.176   0.497   5.595 -0.6915  0.9166 -0.0188
  994MOL0     H34152   1.881   0.772   5.310  2.2804 -2.4619  1.0132
  994MOL0     H34153   1.643   0.839   5.312 -0.0555  0.3560  0.9540
  994MOL0     H34154   1.326   0.737   5.646 -3.7987  0.3313 -3.1976
  994MOL0     H34155   1.431   0.869   5.694  2.5817 -2.1269  0.0694
  994MOL0     H34156   1.197   0.950   5.619  0.1977 -3.1105  1.2059
  994MOL0     H34157   1.332   1.004   5.506  4.0727 -0.2106  3.1951
  994MOL0     H34158   1.230   0.784   5.375 -2.3728 -1.5552  1.0532
  994MOL0     H34159   1.089   0.819   5.474  0.4024  0.6458  1.1006
  994MOL0     H34160   1.095   0.914   5.241  0.0803  0.5388 -1.0194
  994MOL0     H34161   1.196   1.049   5.319  1.2909 -0.0241  3.8040
  994MOL0     H34162   0.996   1.061   5.482 -3.2511  0.2437  0.4229
  994MOL0     H34163   0.908   0.945   5.393 -2.6229  2.7071  2.7142
  994MOL0     H34164   1.011   1.182   5.238  1.2771 -0.4949 -0.2263
  994MOL0     H34165   0.899   1.057   5.180 -2.4888  1.5885  0.1342
  994MOL0     H34166   0.842   1.247   5.410 -0.0674  1.4308 -1.5375
  994MOL0     H34167   0.745   1.112   5.360  0.1136 -1.0078 -1.6520
  994MOL0     H34168   0.825   1.347   5.186  0.6367  1.6981  5.0738
  994MOL0     H34169   0.722   1.211   5.131  0.1725 -4.1406  3.1133
  994MOL0     H34170   1.575   0.664   5.691  1.5889  0.3122  1.3502
  994MOL0     H34171   1.838   0.603   5.698  4.1048 -1.0034 -2.2153
  994MOL0     H34172   2.309   0.789   5.316  1.0671  1.4304 -0.2803
  994MOL0     H34173   2.516   0.666   5.273 -0.7306  0.8116 -1.3284
  994MOL0     H34174   3.438   1.654   5.481  3.8427  0.6321 -2.1959
  994MOL0     H34175   3.255   1.773   5.599  0.9000 -2.2830  1.0186
  994MOL0     H34176   3.039   2.060   5.739 -1.2103 -4.6216  0.8545
  994MOL0     H34177   2.910   2.201   5.865  0.0451  0.5293  0.1703
  994MOL0     H34178   2.495   2.105   5.861  1.1471  0.0270  0.1313
  994MOL0     H34179   2.483   2.250   5.747  2.1727  2.0885  0.4201
  994MOL0     H34180   2.501   2.286   6.043  1.2610  0.8558 -1.0687
  994MOL0     H34181   2.340   2.248   5.964 -0.5308 -0.2824 -1.2840
  994MOL0     H34182   2.389   2.437   5.809 -2.5754  3.3773  1.0789
  994MOL0     H34183   2.524   2.486   5.915 -1.1329  1.1716  0.7065
  994MOL0     H34184   2.230   2.458   6.006  0.2457 -0.5430  2.4544
  994MOL0     H34185   2.355   2.480   6.120 -0.7266  1.9612  0.1989
  994MOL0     H34186   2.328   2.862   5.958 -1.8623 -0.5010 -1.5257
  994MOL0     H34187   2.584   2.131   5.596 -0.1528  0.2694  1.2551
  994MOL0     H34188   2.743   2.059   5.315  0.1608  0.3430 -0.0388
  994MOL0     H34189   2.719   1.899   5.401  0.5019  0.4116 -0.1274
  994MOL0     H34190   2.599   2.022   5.402 -0.7631 -2.9391  0.5500
  995MOL0     O34191   4.536   6.584   1.216  0.3632  0.2140 -0.5338
  995MOL0     C34192   4.565   6.561   1.095 -0.0529 -0.1443  0.5817
  995MOL0     O34193   4.695   6.557   1.049 -0.1108  0.8276 -0.5533
  995MOL0     C34194   4.790   6.619   1.128 -0.1373  0.2585 -1.0753
  995MOL0     C34195   4.894   6.547   1.189  0.7487 -0.2685 -0.2731
  995MOL0     C34196   4.985   6.608   1.278 -0.0039  0.0118  0.6415
  995MOL0     C34197   4.981   6.751   1.286  0.2331  1.4636  1.1857
  995MOL0     O34198   5.070   6.817   1.362  0.1074 -0.0539  0.1936
  995MOL0     C34199   5.178   6.747   1.431  0.7898 -0.5685  0.0044
  995MOL0     C34200   5.255   6.851   1.495 -0.5011 -0.2523  0.4973
  995MOL0     C34201   5.385   6.808   1.568  0.3261 -0.5887 -0.6072
  995MOL0     C34202   5.422   6.891   1.695  0.8338  0.4069 -0.0574
  995MOL0     C34203   5.447   7.037   1.670  0.3125  0.0261 -0.2177
  995MOL0     C34204   5.456   7.115   1.803 -0.5779 -0.7483  0.5475
  995MOL0     C34205   5.476   7.273   1.773  0.6010  1.1718 -0.4546
  995MOL0     C34206   5.534   7.363   1.881 -0.0888 -0.2939  0.3000
  995MOL0     N34207   5.666   7.335   1.929  0.0369  0.4086 -0.1174
  995MOL0     C34208   5.783   7.399   1.895 -0.6330 -0.4140 -0.4162
  995MOL0     C34209   5.879   7.327   1.962  0.1441  0.4902  0.2489
  995MOL0     C34210   6.028   7.355   1.959  0.7453 -0.2532 -0.5453
  995MOL0     C34211   6.103   7.244   1.880 -0.2536  0.0633  1.0926
  995MOL0     C34212   6.265   7.245   1.889  0.7125 -0.6908  1.1213
  995MOL0     C34213   6.344   7.294   1.762  0.4305  0.4191 -0.3924
  995MOL0     O34214   6.485   7.298   1.791 -0.1799 -0.4471 -0.3632
  995MOL0     C34215   6.572   7.350   1.698 -0.2824  0.6925  0.6913
  995MOL0     C34216   6.694   7.374   1.750  0.1573 -0.3078 -0.1238
  995MOL0     C34217   6.801   7.404   1.663  0.2529 -0.1340  0.3329
  995MOL0     C34218   6.779   7.428   1.524 -0.9737 -0.0970 -0.0398
  995MOL0     C34219   6.886   7.461   1.423 -0.6645 -0.4549 -0.8285
  995MOL0     O34220   6.842   7.531   1.319  0.2966 -1.3716 -0.3512
  995MOL0     C34221   6.935   7.554   1.215 -0.4848  0.7069 -0.1544
  995MOL0     C34222   7.062   7.604   1.230 -0.1196 -0.4638  0.1249
  995MOL0     C34223   7.152   7.612   1.124 -0.5657 -0.1395 -0.9474
  995MOL0     C34224   7.113   7.582   0.997 -0.0319 -0.0187  0.2234
  995MOL0     O34225   7.196   7.601   0.889  0.6222 -0.8249  0.1506
  995MOL0     C34226   7.303   7.506   0.876  0.1161  0.0621  0.0512
  995MOL0     C34227   7.435   7.549   0.932  0.2630 -0.2214 -0.0133
  995MOL0     C34228   7.512   7.648   0.852  0.2806  0.4490  0.4815
  995MOL0     C34229   7.647   7.689   0.934  0.5043  0.0810  0.5143
  995MOL0     C34230   7.746   7.771   0.857  0.1828 -0.2483 -0.6405
  995MOL0     C34231   7.873   7.784   0.928  0.1701  0.2303 -0.8556
  995MOL0     C34232   7.950   7.900   0.863  0.0434  0.1348 -0.2951
  995MOL0     C34233   8.084   7.902   0.926 -0.8917 -0.3572 -1.2082
  995MOL0    Cl34234   8.153   7.736   0.946  0.3096 -0.1924  0.1698
  995MOL0     C34235   6.984   7.545   0.976 -0.3667 -0.4636 -0.7716
  995MOL0     C34236   6.894   7.528   1.083  0.3046  0.7869  0.1335
  995MOL0     O34237   7.001   7.443   1.456  0.0090 -0.2457 -0.1214
  995MOL0     C34238   6.651   7.401   1.470  0.5465  0.1476 -0.7458
  995MOL0     C34239   6.555   7.361   1.567  0.2418  0.6041  0.5870
  995MOL0     N34240   5.818   7.230   2.029 -0.1395  0.0300 -0.0861
  995MOL0     N34241   5.687   7.237   2.022 -0.5490 -0.1918  0.4776
  995MOL0     C34242   4.876   6.828   1.220  0.1535  0.8763 -0.0499
  995MOL0     C34243   4.773   6.756   1.153  0.3352  0.2833  0.2877
  995MOL0     C34244   4.454   6.512   0.995  0.8221  0.6762 -0.0996
  995MOL0     C34245   4.484   6.407   0.906 -0.8458  0.4379  0.9539
  995MOL0     C34246   4.393   6.356   0.813  0.4244 -1.0132 -0.3218
  995MOL0     C34247   4.265   6.410   0.800 -0.5738 -0.2120  0.3509
  995MOL0     O34248   4.195   6.372   0.691  0.7697  0.3380 -0.1606
  995MOL0     C34249   4.060   6.404   0.697  0.5854 -0.4637  0.1532
  995MOL0     C34250   3.985   6.344   0.573  0.0490 -0.3675  0.0321
  995MOL0     C34251   4.029   6.203   0.539 -0.0289 -0.0059 -0.1072
  995MOL0     C34252   3.951   6.134   0.430 -0.4964  0.7315  0.1598
  995MOL0     C34253   3.823   6.094   0.491 -0.8143 -0.4653  1.0696
  995MOL0     C34254   3.724   6.038   0.542 -0.2674 -0.0605  0.1407
  995MOL0     C34255   4.237   6.514   0.889  0.2634 -0.4140 -0.8981
  995MOL0     C34256   4.319   6.562   0.996  1.0862 -0.4613  0.3632
  995MOL0     C34257   4.271   6.674   1.080  0.3138 -0.0523 -0.6270
  995MOL0     H34258   4.893   6.443   1.156 -2.8834 -0.7605  0.9273
  995MOL0     H34259   5.056   6.531   1.308 -0.2181 -0.7524 -0.7762
  995MOL0     H34260   5.157   6.671   1.507  2.4401  0.3280  1.4133
  995MOL0     H34261   5.238   6.703   1.352 -2.6491 -2.7431 -1.6655
  995MOL0     H34262   5.186   6.903   1.563 -1.2736 -0.0371 -0.4251
  995MOL0     H34263   5.280   6.929   1.422 -0.7915  0.3435  1.0228
  995MOL0     H34264   5.469   6.819   1.500  0.9181 -0.0276  0.1947
  995MOL0     H34265   5.370   6.702   1.590  2.6331 -0.7148  0.7216
  995MOL0     H34266   5.334   6.877   1.760  2.0393  1.3130  1.8657
  995MOL0     H34267   5.512   6.851   1.742  0.3097  1.1077  1.6347
  995MOL0     H34268   5.544   7.044   1.621  0.4302 -2.6461 -0.5129
  995MOL0     H34269   5.367   7.078   1.608 -1.6525 -1.3039  1.3030
  995MOL0     H34270   5.372   7.094   1.870  0.0450 -0.0534  1.5794
  995MOL0     H34271   5.543   7.066   1.848 -0.2380 -0.5649  0.0934
  995MOL0     H34272   5.376   7.314   1.752 -1.4991 -1.8528  2.5758
  995MOL0     H34273   5.534   7.289   1.681  1.4809 -3.6275 -0.9842
  995MOL0     H34274   5.519   7.466   1.849  1.1109 -0.4243 -0.7460
  995MOL0     H34275   5.461   7.359   1.963 -0.8120 -0.5667 -0.3351
  995MOL0     H34276   5.788   7.479   1.822  0.2437 -0.7999 -0.7895
  995MOL0     H34277   6.061   7.442   1.901  1.9604 -0.5586 -0.3230
  995MOL0     H34278   6.055   7.365   2.064 -0.9215  0.6399 -0.1585
  995MOL0     H34279   6.071   7.146   1.915 -0.4578 -2.1813 -4.4069
  995MOL0     H34280   6.055   7.250   1.782 -0.0863 -4.1036  0.6060
  995MOL0     H34281   6.294   7.139   1.894 -1.0381 -1.2742 -0.2295
  995MOL0     H34282   6.293   7.282   1.988  1.8753 -0.8626  0.8763
  995MOL0     H34283   6.317   7.396   1.734 -0.0228  0.3161 -0.3336
  995MOL0     H34284   6.316   7.231   1.677  1.6144  1.0017 -1.2390
  995MOL0     H34285   6.705   7.366   1.858  2.4027  2.1088 -0.0810
  995MOL0     H34286   6.905   7.406   1.696  0.8109  2.4342 -1.2548
  995MOL0     H34287   7.096   7.645   1.324 -0.7046 -2.3124  1.2013
  995MOL0     H34288   7.255   7.639   1.147  0.0586 -0.2581 -3.2889
  995MOL0     H34289   7.287   7.413   0.932  1.7930  0.5442  1.3769
  995MOL0     H34290   7.310   7.476   0.771 -0.7258 -0.1173  0.0358
  995MOL0     H34291   7.414   7.587   1.033 -0.6073  1.9545 -0.9484
  995MOL0     H34292   7.498   7.462   0.953  0.2286  0.1522  1.8661
  995MOL0     H34293   7.523   7.600   0.754 -2.2345  1.0805 -0.1758
  995MOL0     H34294   7.458   7.741   0.830  2.1067  1.6726  0.9604
  995MOL0     H34295   7.694   7.591   0.949 -2.9124 -1.5092  1.9280
  995MOL0     H34296   7.616   7.725   1.033 -0.5624 -2.1544  1.0600
  995MOL0     H34297   7.709   7.874   0.853  0.9661  0.0975  0.4347
  995MOL0     H34298   7.764   7.739   0.754  0.9129 -0.8647 -0.3249
  995MOL0     H34299   7.871   7.798   1.036 -3.2676 -1.1643 -0.6175
  995MOL0     H34300   7.913   7.684   0.906 -1.6821 -1.0208  1.0993
  995MOL0     H34301   7.889   7.990   0.862  0.7263  0.7008 -3.5730
  995MOL0     H34302   7.965   7.872   0.758  0.3179  0.7642 -0.4239
  995MOL0     H34303   8.154   7.971   0.876 -1.3150 -0.8387 -2.5085
  995MOL0     H34304   8.072   7.951   1.023  2.2753  1.9701 -1.8103
  995MOL0     H34305   6.960   7.508   0.877 -2.3573 -0.5379 -0.3075
  995MOL0     H34306   6.790   7.497   1.076  0.9789 -1.7581  0.5468
  995MOL0     H34307   6.621   7.417   1.367  0.9797 -1.0065 -1.0726
  995MOL0     H34308   6.456   7.338   1.527  0.3556  0.6873  0.2508
  995MOL0     H34309   4.860   6.930   1.250 -1.8636  0.5465  0.1433
  995MOL0     H34310   4.686   6.802   1.107 -1.0213 -2.2841  0.0926
  995MOL0     H34311   4.579   6.356   0.908  0.5170  2.6914 -0.9662
  995MOL0     H34312   4.420   6.277   0.744  0.0255 -0.1715 -1.4767
  995MOL0     H34313   4.040   6.511   0.687 -1.6847 -0.9048 -0.8082
  995MOL0     H34314   4.020   6.359   0.788 -1.5700  1.5581  0.2855
  995MOL0     H34315   3.986   6.412   0.488 -3.1881 -0.3186 -0.0784
  995MOL0     H34316   3.880   6.334   0.603 -0.9225 -0.5250 -3.0593
  995MOL0     H34317   4.023   6.145   0.632  0.2730 -1.2297 -0.8321
  995MOL0     H34318   4.135   6.214   0.515 -0.0958  2.6218  0.5235
  995MOL0     H34319   3.943   6.189   0.336  0.9224 -1.1571 -1.1513
  995MOL0     H34320   4.019   6.054   0.398 -2.2034  0.2468 -2.5592
  995MOL0     H34321   3.635   5.988   0.575  0.9967 -2.0970  0.6860
  995MOL0     H34322   4.147   6.574   0.883  0.0478 -0.2063  2.4344
  995MOL0     H34323   4.306   6.770   1.040 -2.0047  1.4636  0.7392
  995MOL0     H34324   4.162   6.668   1.081  0.3931 -3.3704 -0.9911
  995MOL0     H34325   4.300   6.653   1.183  0.4482 -1.6986 -0.9697
  996MOL0     O34326   4.386   6.431   0.145 -0.2084 -0.8260 -0.5197
  996MOL0     C34327   4.276   6.447   0.207 -0.6390  0.7868 -1.0029
  996MOL0     O34328   4.266   6.422   0.341  0.1279 -0.5668 -0.8331
  996MOL0     C34329   4.377   6.385   0.412  0.5362  0.1082  0.1050
  996MOL0     C34330   4.467   6.485   0.444 -0.1720 -0.4497  0.0946
  996MOL0     C34331   4.585   6.448   0.522  0.3500 -0.4103 -0.1835
  996MOL0     C34332   4.606   6.312   0.554  0.2603 -0.0633  0.7406
  996MOL0     O34333   4.710   6.268   0.632  0.4321 -0.5599 -0.7526
  996MOL0     C34334   4.790   6.367   0.685 -0.0619 -1.1708  0.8890
  996MOL0     C34335   4.912   6.304   0.763 -0.6494  0.6256  0.8013
  996MOL0     C34336   5.027   6.244   0.686  0.3310  0.7809 -0.2784
  996MOL0     C34337   5.139   6.182   0.766  0.0970  0.4929 -0.4062
  996MOL0     C34338   5.238   6.090   0.696  0.1950 -1.1123 -0.3114
  996MOL0     C34339   5.371   6.146   0.644 -0.0815 -0.1797  1.2925
  996MOL0     C34340   5.344   6.248   0.525  0.0719  0.4050 -0.2752
  996MOL0     C34341   5.466   6.277   0.434  0.2389  0.0307  0.4780
  996MOL0     N34342   5.418   6.362   0.324 -0.1505  0.5909 -0.5883
  996MOL0     C34343   5.387   6.329   0.197 -0.4686  0.3738  0.0450
  996MOL0     C34344   5.348   6.442   0.144 -0.5302 -0.1814  0.6227
  996MOL0     C34345   5.295   6.451  -0.002  0.3222  0.0109  0.2561
  996MOL0     C34346   5.414   6.501  -0.088 -0.3860 -0.5854  1.0013
  996MOL0     C34347   5.374   6.582  -0.209  0.8210  0.4330 -0.3706
  996MOL0     C34348   5.402   6.731  -0.183 -0.8334  0.5091  0.5470
  996MOL0     O34349   5.359   6.814  -0.292 -0.2981 -0.7402  0.3961
  996MOL0     C34350   5.228   6.850  -0.298 -0.6050 -0.2486  0.0799
  996MOL0     C34351   5.138   6.823  -0.192  0.6811 -0.3433 -0.1774
  996MOL0     C34352   5.000   6.862  -0.209  0.2475  0.2259  0.1983
  996MOL0     C34353   4.950   6.913  -0.333  0.3683 -0.9986 -0.2071
  996MOL0     C34354   4.800   6.934  -0.350 -0.4974 -0.0621  0.6547
  996MOL0     O34355   4.721   6.925  -0.246  0.0646 -0.6910 -0.1482
  996MOL0     C34356   4.587   6.941  -0.281 -0.0958 -0.7337  0.3472
  996MOL0     C34357   4.530   7.075  -0.293  0.1774  0.5515 -0.2643
  996MOL0     C34358   4.393   7.098  -0.325 -0.2676 -0.2771 -0.7217
  996MOL0     C34359   4.308   6.988  -0.341  0.1163  0.6485  0.5665
  996MOL0     O34360   4.172   7.016  -0.367  0.5355 -0.0618 -0.0497
  996MOL0     C34361   4.079   6.950  -0.280  1.3379  0.6615 -0.0683
  996MOL0     C34362   3.938   6.956  -0.346 -0.5187  0.2458 -0.4025
  996MOL0     C34363   3.893   7.088  -0.369 -0.6684  0.1043  0.5629
  996MOL0     C34364   3.747   7.076  -0.421  0.1381  0.4188  0.1754
  996MOL0     C34365   3.675   7.211  -0.396 -0.9023  0.4753  0.8701
  996MOL0     C34366   3.535   7.214  -0.454 -0.8471 -0.7126  1.0152
  996MOL0     C34367   3.522   7.163  -0.604  0.0614 -0.5790  0.2383
  996MOL0     C34368   3.395   7.205  -0.661  0.2202  0.2883  0.1029
  996MOL0    Cl34369   3.376   7.186  -0.843  0.0397  0.2900 -0.0087
  996MOL0     C34370   4.368   6.855  -0.339 -1.0950  0.6337  0.2586
  996MOL0     C34371   4.502   6.833  -0.302  0.4981 -0.3482 -0.2141
  996MOL0     O34372   4.765   6.968  -0.466 -0.0847  0.1258 -0.5324
  996MOL0     C34373   5.041   6.930  -0.434 -0.2192  0.5600 -0.8375
  996MOL0     C34374   5.177   6.901  -0.419 -0.5596  0.1591  0.8740
  996MOL0     N34375   5.342   6.546   0.229  0.1002  0.4131  0.2919
  996MOL0     N34376   5.375   6.491   0.343 -0.2413 -0.6374  0.0322
  996MOL0     C34377   4.513   6.208   0.510 -0.0723  0.1174 -0.2412
  996MOL0     C34378   4.396   6.245   0.436  0.0269 -0.6026 -0.4049
  996MOL0     C34379   4.159   6.495   0.131 -0.2504 -0.1157  1.2494
  996MOL0     C34380   4.038   6.482   0.194 -0.4682 -0.5922  0.4850
  996MOL0     C34381   3.919   6.535   0.141 -0.7405 -0.7797  0.5389
  996MOL0     C34382   3.923   6.602   0.019  1.0199 -0.8227 -0.1622
  996MOL0     O34383   3.813   6.664  -0.048  0.4684 -0.3988 -0.3419
  996MOL0     C34384   3.687   6.592  -0.058 -0.3607  0.2598 -0.4910
  996MOL0     C34385   3.613   6.632  -0.185 -0.2151 -0.0486  0.3270
  996MOL0     C34386   3.562   6.784  -0.166 -0.7162  1.0727  0.7217
  996MOL0     C34387   3.468   6.833  -0.278 -0.8396 -0.0316  0.3177
  996MOL0     C34388   3.342   6.747  -0.296  0.6380 -0.3973  0.8678
  996MOL0     C34389   3.240   6.686  -0.282  0.1898  0.1295 -0.5658
  996MOL0     C34390   4.044   6.612  -0.049 -0.7454 -0.2599 -0.3926
  996MOL0     C34391   4.164   6.555  -0.001 -0.7814  0.2323  0.6477
  996MOL0     C34392   4.272   6.552  -0.097  0.4844 -0.5115 -0.3942
  996MOL0     H34393   4.454   6.586   0.405  1.5956 -0.6097 -1.0043
  996MOL0     H34394   4.654   6.529   0.546 -2.0990  1.3226  1.4590
  996MOL0     H34395   4.836   6.434   0.612  1.1646 -1.8379  1.0242
  996MOL0     H34396   4.738   6.434   0.753  1.5664  0.0574  0.9813
  996MOL0     H34397   4.883   6.221   0.827 -0.8423 -1.3502 -1.6915
  996MOL0     H34398   4.951   6.382   0.829  1.0335  2.3289 -1.9694
  996MOL0     H34399   5.072   6.326   0.629 -1.4951  1.5448 -0.6676
  996MOL0     H34400   4.982   6.162   0.630  1.1346 -1.2286  1.8291
  996MOL0     H34401   5.196   6.242   0.838 -1.3967 -0.0750  1.3119
  996MOL0     H34402   5.084   6.109   0.826  1.3470  0.5834  0.9085
  996MOL0     H34403   5.260   6.007   0.763  0.3385 -1.4604 -0.7806
  996MOL0     H34404   5.185   6.062   0.604 -1.6529 -1.4024  0.7852
  996MOL0     H34405   5.430   6.199   0.719 -1.7462  0.5672  2.1316
  996MOL0     H34406   5.426   6.058   0.612 -1.0661 -0.0295 -1.0221
  996MOL0     H34407   5.305   6.342   0.566 -2.7059 -0.6366 -0.3383
  996MOL0     H34408   5.266   6.202   0.463 -1.5252 -1.8424  3.1221
  996MOL0     H34409   5.550   6.322   0.489  0.7448 -0.7333  0.3548
  996MOL0     H34410   5.519   6.188   0.400 -0.3338 -1.1277  2.4535
  996MOL0     H34411   5.413   6.235   0.148  2.1475 -0.2497  2.3812
  996MOL0     H34412   5.251   6.358  -0.038 -2.2217  1.3038 -0.2124
  996MOL0     H34413   5.213   6.524  -0.005  0.0944 -0.0693  2.6188
  996MOL0     H34414   5.483   6.553  -0.021 -2.8061  1.3154  2.1934
  996MOL0     H34415   5.457   6.418  -0.145 -1.2924  0.1483 -0.8420
  996MOL0     H34416   5.270   6.559  -0.230  0.9439  0.1406 -0.6622
  996MOL0     H34417   5.429   6.555  -0.300  1.4699  2.6206 -0.6914
  996MOL0     H34418   5.511   6.733  -0.176 -0.3000 -0.9859 -3.9010
  996MOL0     H34419   5.373   6.775  -0.087  2.3059 -0.3091  1.9806
  996MOL0     H34420   5.159   6.776  -0.097 -4.5489 -0.4713  1.2276
  996MOL0     H34421   4.928   6.845  -0.130  1.2896  0.2488  1.1889
  996MOL0     H34422   4.595   7.162  -0.281  2.9082 -1.0618 -2.2636
  996MOL0     H34423   4.355   7.199  -0.330 -2.6783 -1.1747 -2.6190
  996MOL0     H34424   4.103   6.845  -0.259  0.5086  0.6175  0.6778
  996MOL0     H34425   4.075   6.997  -0.182 -2.0474 -3.0866  1.8801
  996MOL0     H34426   3.943   6.902  -0.441  1.8272 -0.7745  0.2415
  996MOL0     H34427   3.869   6.902  -0.280  1.4414 -1.3485  0.4636
  996MOL0     H34428   3.910   7.158  -0.286 -1.6880  3.6342 -1.9614
  996MOL0     H34429   3.950   7.141  -0.446  0.0881 -2.4078 -0.7060
  996MOL0     H34430   3.689   6.994  -0.379 -2.4029  1.6056 -0.7977
  996MOL0     H34431   3.746   7.062  -0.529 -0.0743 -1.3296  0.3727
  996MOL0     H34432   3.736   7.291  -0.437 -0.0112 -0.4758  0.3132
  996MOL0     H34433   3.666   7.225  -0.287 -1.5832 -1.7968  1.1578
  996MOL0     H34434   3.471   7.155  -0.388 -0.5537  0.6788  2.6156
  996MOL0     H34435   3.499   7.317  -0.442  1.4762  0.3949 -0.7824
  996MOL0     H34436   3.525   7.054  -0.600 -0.0434 -0.5420  1.9269
  996MOL0     H34437   3.603   7.192  -0.672  2.0310 -0.2931  2.5875
  996MOL0     H34438   3.313   7.155  -0.609 -0.4302  1.2915  0.0779
  996MOL0     H34439   3.387   7.311  -0.636  1.4056  1.0707 -2.5167
  996MOL0     H34440   4.302   6.769  -0.343  0.5923 -0.6940 -1.0279
  996MOL0     H34441   4.542   6.733  -0.290 -5.3633 -3.0979 -0.0606
  996MOL0     H34442   4.996   6.971  -0.524 -1.4803  3.0325  0.8072
  996MOL0     H34443   5.248   6.903  -0.501 -1.0307  1.6573  0.4668
  996MOL0     H34444   4.542   6.106   0.537  1.3275  0.6161  0.2145
  996MOL0     H34445   4.324   6.169   0.408  1.0313 -1.0519 -1.9554
  996MOL0     H34446   4.037   6.440   0.294  0.2451 -0.7901  0.4146
  996MOL0     H34447   3.826   6.514   0.192 -1.8514 -0.7806 -1.4125
  996MOL0     H34448   3.628   6.603   0.034 -0.6598 -0.7071 -0.5527
  996MOL0     H34449   3.707   6.484  -0.064  0.0428 -0.0379  3.4041
  996MOL0     H34450   3.533   6.559  -0.200  1.7371 -1.9352 -1.5119
  996MOL0     H34451   3.667   6.614  -0.278  1.0884 -0.5785  1.1561
  996MOL0     H34452   3.654   6.844  -0.167 -0.0281  0.0454  0.3530
  996MOL0     H34453   3.511   6.786  -0.069 -0.5552  0.8687  0.8146
  996MOL0     H34454   3.448   6.939  -0.262  1.6731  0.5926 -0.2052
  996MOL0     H34455   3.522   6.834  -0.373 -3.6447 -1.2943 -1.3993
  996MOL0     H34456   3.153   6.626  -0.262  0.8157 -0.5648  0.1616
  996MOL0     H34457   4.038   6.654  -0.148 -2.0465  1.6288  0.4382
  996MOL0     H34458   4.296   6.447  -0.116 -2.8946 -1.5151  0.3134
  996MOL0     H34459   4.238   6.596  -0.191  2.3855  1.2249 -0.3513
  996MOL0     H34460   4.364   6.606  -0.071  1.1206 -1.3814 -0.7984
  997MOL0     O34461   8.761   2.205  10.321 -0.2867 -0.5198 -0.3197
  997MOL0     C34462   8.757   2.102  10.381  0.8229 -0.4905 -0.6828
  997MOL0     O34463   8.830   2.069  10.491 -0.4082 -0.3039  0.3839
  997MOL0     C34464   8.918   2.167  10.529  0.1494  0.1659 -0.2044
  997MOL0     C34465   8.894   2.247  10.634  0.5507  0.2285 -0.3118
  997MOL0     C34466   8.986   2.349  10.679  0.3081  0.4738 -0.4415
  997MOL0     C34467   9.119   2.336  10.636  0.3850  0.1002 -0.0823
  997MOL0     O34468   9.222   2.420  10.655 -0.3025  0.1876 -0.4306
  997MOL0     C34469   9.211   2.543  10.732  0.2199 -0.4124  0.8704
  997MOL0     C34470   9.281   2.542  10.856 -0.5626  0.7339 -0.6773
  997MOL0     C34471   9.259   2.422  10.950 -0.2584  0.9021  0.5392
  997MOL0     C34472   9.122   2.419  11.011  0.0990 -0.1510 -0.3519
  997MOL0     C34473   9.106   2.300  11.102 -0.9809 -0.5052 -0.3010
  997MOL0     C34474   8.967   2.299  11.168  0.6867  0.5673  0.5046
  997MOL0     C34475   8.941   2.421  11.248 -0.0998  0.1205  0.6176
  997MOL0     C34476   8.820   2.398  11.352  0.1403 -0.0376  1.2131
  997MOL0     N34477   8.709   2.337  11.268 -0.1651 -0.2859 -0.4892
  997MOL0     C34478   8.679   2.205  11.254 -0.0806  1.0306  0.2907
  997MOL0     C34479   8.581   2.200  11.156  0.2695 -0.1082 -0.3546
  997MOL0     C34480   8.497   2.082  11.105 -0.5972 -0.3875  0.5304
  997MOL0     C34481   8.404   2.012  11.208 -0.1853  0.1973  0.3273
  997MOL0     C34482   8.253   2.052  11.182 -0.2861  0.0258  0.3916
  997MOL0     C34483   8.219   2.194  11.234  0.0873  0.3790  0.0134
  997MOL0     O34484   8.079   2.201  11.241 -0.2985  0.2242  0.0339
  997MOL0     C34485   7.999   2.175  11.128 -0.4056 -0.2730  0.1236
  997MOL0     C34486   8.028   2.190  10.994 -0.4096  0.2852  0.9249
  997MOL0     C34487   7.933   2.168  10.890 -0.0978 -0.0540 -0.1246
  997MOL0     C34488   7.811   2.105  10.923 -0.4005 -0.3098 -1.0055
  997MOL0     C34489   7.709   2.064  10.826 -0.2170 -0.3860  0.1082
  997MOL0     O34490   7.743   2.081  10.694  0.3524  0.3782  0.3854
  997MOL0     C34491   7.651   2.047  10.595 -0.4706 -0.2836  0.3367
  997MOL0     C34492   7.590   1.924  10.600  0.2160  0.4445 -0.1378
  997MOL0     C34493   7.501   1.880  10.500  0.4364  0.6252 -0.4598
  997MOL0     C34494   7.462   1.967  10.395  0.5753  0.2995  0.3557
  997MOL0     O34495   7.381   1.918  10.301  0.9777  0.2107  0.6724
  997MOL0     C34496   7.302   1.999  10.221  0.5741  1.3082  0.5603
  997MOL0     C34497   7.254   1.915  10.105 -0.2946 -0.1476 -0.0060
  997MOL0     C34498   7.356   1.837  10.016 -0.4522  0.5485  0.4532
  997MOL0     C34499   7.277   1.737   9.917  0.2496 -0.2777 -0.1854
  997MOL0     C34500   7.251   1.802   9.776 -0.4855  0.1548 -0.4988
  997MOL0     C34501   7.161   1.716   9.697 -0.1505 -1.0797  0.5658
  997MOL0     C34502   7.205   1.705   9.554 -0.5046  0.2268  1.5407
  997MOL0     C34503   7.107   1.613   9.467 -0.3402 -0.1773 -0.5652
  997MOL0    Cl34504   7.171   1.447   9.483 -0.1266  0.2156 -0.0011
  997MOL0     C34505   7.517   2.101  10.405  0.1298 -0.1444  0.2766
  997MOL0     C34506   7.619   2.136  10.490  0.9335  0.2169  0.1048
  997MOL0     O34507   7.597   2.057  10.867  0.1355 -0.1641 -0.3170
  997MOL0     C34508   7.781   2.078  11.061 -0.6814  0.6462  0.1029
  997MOL0     C34509   7.875   2.115  11.164  0.1508 -0.5396 -0.0352
  997MOL0     N34510   8.552   2.328  11.111  0.2208 -0.2717  0.0379
  997MOL0     N34511   8.631   2.409  11.179  0.1329  0.0408 -0.2107
  997MOL0     C34512   9.140   2.247  10.532  0.1477 -0.8519  0.1080
  997MOL0     C34513   9.047   2.169  10.473 -0.2628  0.3042 -0.5804
  997MOL0     C34514   8.655   2.006  10.325  0.3793 -0.1174  0.4398
  997MOL0     C34515   8.678   1.866  10.312 -0.3292  0.4045 -0.0100
  997MOL0     C34516   8.588   1.779  10.260 -0.2623 -0.5596  0.5542
  997MOL0     C34517   8.465   1.827  10.221  0.5581 -0.4144 -0.3086
  997MOL0     O34518   8.366   1.741  10.177  0.3101  0.0184 -0.4187
  997MOL0     C34519   8.386   1.597  10.176  0.2194 -0.1395  0.3425
  997MOL0     C34520   8.377   1.541  10.318 -0.3954 -0.1065 -0.0305
  997MOL0     C34521   8.241   1.569  10.379  0.1073 -0.6945 -0.1063
  997MOL0     C34522   8.238   1.553  10.533  0.1165  0.2684 -0.4425
  997MOL0     C34523   8.251   1.408  10.565  0.1388  0.3700  0.4107
  997MOL0     C34524   8.268   1.287  10.580  0.4852  0.0337  0.0921
  997MOL0     C34525   8.438   1.966  10.223 -0.8022  0.0296  0.0537
  997MOL0     C34526   8.534   2.061  10.267 -0.0046  1.3420  0.0854
  997MOL0     C34527   8.490   2.201  10.256  0.1149 -0.0855  0.4405
  997MOL0     H34528   8.796   2.238  10.681  0.6833 -0.7434 -0.1877
  997MOL0     H34529   8.938   2.420  10.746 -0.7264 -1.5765  1.1139
  997MOL0     H34530   9.262   2.626  10.682  1.2304 -0.4141  1.8568
  997MOL0     H34531   9.107   2.575  10.743 -0.5966 -2.2172 -1.0620
  997MOL0     H34532   9.260   2.635  10.909 -1.6670  1.0700 -1.6546
  997MOL0     H34533   9.388   2.545  10.833 -0.7364 -1.5711 -2.1648
  997MOL0     H34534   9.342   2.412  11.020  2.6989 -1.1935 -2.8644
  997MOL0     H34535   9.273   2.336  10.883  1.4298  0.4001  1.4805
  997MOL0     H34536   9.115   2.514  11.064  0.6954  1.8939 -3.6348
  997MOL0     H34537   9.044   2.416  10.933  1.7627  0.2557 -2.1141
  997MOL0     H34538   9.135   2.214  11.041  3.0097 -0.0666  0.7115
  997MOL0     H34539   9.168   2.315  11.190 -1.9301  0.0430  0.2929
  997MOL0     H34540   8.897   2.287  11.084  0.1758  2.0887  0.6948
  997MOL0     H34541   8.970   2.211  11.233 -1.1046 -0.0191 -0.1427
  997MOL0     H34542   8.909   2.508  11.189  1.5917 -0.9545 -2.1062
  997MOL0     H34543   9.036   2.445  11.296  0.7500 -0.8657 -0.5114
  997MOL0     H34544   8.857   2.334  11.432 -2.4273 -1.1545  1.6032
  997MOL0     H34545   8.794   2.501  11.380  1.2157  0.9782 -1.1671
  997MOL0     H34546   8.729   2.114  11.287 -1.4850  0.4888  0.9698
  997MOL0     H34547   8.448   2.102  11.009 -3.9188  0.1945  2.1759
  997MOL0     H34548   8.568   2.000  11.094 -2.7187 -1.9799 -2.9496
  997MOL0     H34549   8.410   1.903  11.199  0.4805  0.1599  1.0816
  997MOL0     H34550   8.443   2.042  11.306 -0.2460  3.0794 -0.4516
  997MOL0     H34551   8.183   1.977  11.222 -0.0615 -0.4031 -0.0083
  997MOL0     H34552   8.222   2.042  11.078 -3.1207 -2.7653  1.3243
  997MOL0     H34553   8.274   2.280  11.195  1.0553  0.5627  1.6526
  997MOL0     H34554   8.244   2.197  11.341  1.6674  1.2660 -0.3478
  997MOL0     H34555   8.125   2.232  10.970  0.0468 -1.7248 -1.1080
  997MOL0     H34556   7.962   2.198  10.790  1.2041 -4.8553 -1.4506
  997MOL0     H34557   7.606   1.857  10.684  0.7223  0.8769  0.1195
  997MOL0     H34558   7.472   1.776  10.510  0.9031  0.5063 -0.3606
  997MOL0     H34559   7.217   2.036  10.279 -0.3084 -1.3164  1.0524
  997MOL0     H34560   7.350   2.084  10.170  0.8521  1.8966  1.7586
  997MOL0     H34561   7.190   1.836  10.144 -0.5164  1.2485  2.7347
  997MOL0     H34562   7.182   1.970  10.044 -0.6841  0.8258  1.2820
  997MOL0     H34563   7.411   1.914   9.962  1.7337 -1.6318 -0.6126
  997MOL0     H34564   7.426   1.773  10.072  1.7759  0.9545 -1.6942
  997MOL0     H34565   7.175   1.719   9.949 -0.2205 -0.0422 -1.4757
  997MOL0     H34566   7.338   1.648   9.900  3.9014  2.4429 -3.0353
  997MOL0     H34567   7.348   1.816   9.729  0.7985 -1.2882  1.5508
  997MOL0     H34568   7.212   1.903   9.793  0.9479  0.8353 -1.1105
  997MOL0     H34569   7.140   1.616   9.736  0.0738 -1.9187 -1.3633
  997MOL0     H34570   7.065   1.770   9.700  2.3491  4.0114 -0.4510
  997MOL0     H34571   7.308   1.672   9.539 -1.3586 -1.5530 -0.9878
  997MOL0     H34572   7.196   1.802   9.505 -1.6251 -1.4864 -1.9397
  997MOL0     H34573   7.004   1.636   9.495  0.2992  2.5821 -0.2107
  997MOL0     H34574   7.120   1.632   9.360 -2.3648 -0.8778 -0.9683
  997MOL0     H34575   7.487   2.176  10.332 -2.4975 -0.3524  1.0248
  997MOL0     H34576   7.654   2.237  10.469 -2.8885  1.7936  0.5249
  997MOL0     H34577   7.683   2.044  11.093 -0.4316  0.7578  0.9962
  997MOL0     H34578   7.834   2.113  11.264 -1.3133 -2.5372 -0.6102
  997MOL0     H34579   9.242   2.250  10.494  0.4279 -0.3023  0.8749
  997MOL0     H34580   9.076   2.099  10.396  0.0267  0.9189 -1.0405
  997MOL0     H34581   8.771   1.819  10.344 -0.4203 -1.5570 -2.3514
  997MOL0     H34582   8.622   1.677  10.254  1.7669  0.1524 -1.6551
  997MOL0     H34583   8.482   1.575  10.129 -0.4393  0.9345 -1.5778
  997MOL0     H34584   8.309   1.555  10.110 -1.3020 -0.4417  2.2022
  997MOL0     H34585   8.449   1.587  10.385  0.4901  0.1066 -1.0956
  997MOL0     H34586   8.396   1.433  10.314 -2.1010 -0.3942 -2.2883
  997MOL0     H34587   8.163   1.510  10.330 -1.6908  0.3569  1.3497
  997MOL0     H34588   8.207   1.672  10.360  0.5540 -0.4513  0.3715
  997MOL0     H34589   8.314   1.610  10.587  2.5884 -2.3464 -0.9366
  997MOL0     H34590   8.145   1.581  10.583  0.1051 -0.7942  0.1492
  997MOL0     H34591   8.291   1.187  10.609  2.8687 -0.2803 -2.4989
  997MOL0     H34592   8.337   2.003  10.205 -0.8912  0.4830  1.3339
  997MOL0     H34593   8.556   2.255  10.188 -1.9742 -1.0314 -2.5367
  997MOL0     H34594   8.390   2.209  10.213  0.9912 -2.4411 -2.3483
  997MOL0     H34595   8.501   2.248  10.355  0.5876  2.2435 -0.6407
  998MOL0     O34596   5.720   7.346   9.415  0.5432 -0.5038  0.5086
  998MOL0     C34597   5.661   7.251   9.462  0.0106 -0.5363 -0.3138
  998MOL0     O34598   5.694   7.123   9.446 -0.4309  0.5981 -0.2369
  998MOL0     C34599   5.811   7.076   9.397 -0.3780  0.6680 -0.1483
  998MOL0     C34600   5.834   6.940   9.435  0.1419  0.0998 -0.0559
  998MOL0     C34601   5.953   6.877   9.398  0.5248 -0.5720 -0.0190
  998MOL0     C34602   6.050   6.939   9.315  0.1116 -0.1228  0.5722
  998MOL0     O34603   6.166   6.877   9.269  0.1463 -0.1939 -0.4500
  998MOL0     C34604   6.175   6.740   9.243 -0.4821 -0.4049  0.7932
  998MOL0     C34605   6.305   6.709   9.159 -0.4122  0.8021  0.3950
  998MOL0     C34606   6.291   6.756   9.015 -0.1010  1.5269 -0.0081
  998MOL0     C34607   6.411   6.719   8.939 -0.2845 -0.1975 -0.3537
  998MOL0     C34608   6.433   6.801   8.819 -1.3834  0.0928  0.0721
  998MOL0     C34609   6.538   6.748   8.724 -1.0880  0.1710 -0.6593
  998MOL0     C34610   6.590   6.858   8.643 -0.4960 -0.4414  0.3018
  998MOL0     C34611   6.481   6.922   8.547  0.1690  0.7269  0.1265
  998MOL0     N34612   6.533   7.030   8.459 -0.4059 -0.1052 -0.2071
  998MOL0     C34613   6.651   7.028   8.389  0.5891  1.2772  0.9974
  998MOL0     C34614   6.634   7.131   8.299 -0.2378  0.5596 -0.9163
  998MOL0     C34615   6.734   7.196   8.208 -1.1089 -1.0370  0.3287
  998MOL0     C34616   6.698   7.155   8.058 -0.9548  0.5800 -0.0156
  998MOL0     C34617   6.756   7.013   8.030 -0.0650 -0.3039  0.6750
  998MOL0     C34618   6.906   6.989   8.061 -0.2766  0.1733 -0.0074
  998MOL0     O34619   6.946   6.868   7.997  0.3926  1.2469 -0.1276
  998MOL0     C34620   7.078   6.856   7.979 -0.3831 -0.0862 -0.5933
  998MOL0     C34621   7.175   6.896   8.072 -0.0815 -0.4044  0.2864
  998MOL0     C34622   7.310   6.863   8.053 -0.4276 -1.0171 -1.1820
  998MOL0     C34623   7.352   6.791   7.941 -0.8947 -0.9251 -0.3006
  998MOL0     C34624   7.493   6.738   7.915 -0.5338  0.6633  0.0195
  998MOL0     O34625   7.592   6.787   7.994 -0.1023  0.4410 -0.0138
  998MOL0     C34626   7.709   6.732   7.970  0.5253 -0.1787 -0.2377
  998MOL0     C34627   7.719   6.593   8.006 -1.2413 -1.1604  0.0042
  998MOL0     C34628   7.838   6.537   8.018  0.4077  0.7177 -0.2329
  998MOL0     C34629   7.960   6.604   8.002  0.1279 -0.0898 -0.6066
  998MOL0     O34630   8.083   6.540   8.007  0.3819 -0.1094  0.0367
  998MOL0     C34631   8.201   6.601   8.057 -0.3473 -0.6717  0.5311
  998MOL0     C34632   8.184   6.636   8.201  0.3411  0.2416  1.3117
  998MOL0     C34633   8.323   6.648   8.267  0.3501  0.5214  0.9789
  998MOL0     C34634   8.357   6.508   8.307 -1.2175  0.3127 -0.3029
  998MOL0     C34635   8.462   6.507   8.428 -0.2708  0.1897 -0.6316
  998MOL0     C34636   8.455   6.365   8.501 -0.3127 -0.0821 -0.0575
  998MOL0     C34637   8.540   6.373   8.627  0.1783  0.3080  1.0427
  998MOL0     C34638   8.525   6.248   8.713 -0.0074 -0.3662 -0.0845
  998MOL0    Cl34639   8.597   6.121   8.608 -0.1334 -0.4188  0.3559
  998MOL0     C34640   7.949   6.740   7.987 -0.0819  0.3698 -0.0232
  998MOL0     C34641   7.830   6.806   7.961 -0.2900  1.1565  0.0329
  998MOL0     O34642   7.496   6.648   7.823  0.5792  0.0584  0.1326
  998MOL0     C34643   7.252   6.758   7.848  0.1854  0.0226 -0.3881
  998MOL0     C34644   7.117   6.788   7.867 -1.0045 -0.3651  0.3535
  998MOL0     N34645   6.509   7.183   8.315 -0.4417  1.6348 -0.1857
  998MOL0     N34646   6.447   7.116   8.404  0.1980  0.1158 -0.2598
  998MOL0     C34647   6.019   7.073   9.272  0.0044  0.4975  0.2138
  998MOL0     C34648   5.903   7.143   9.314  0.5057 -0.3747  0.0063
  998MOL0     C34649   5.536   7.284   9.542  0.4346  0.2596 -0.3556
  998MOL0     C34650   5.426   7.333   9.477  0.6135 -0.1340 -0.1958
  998MOL0     C34651   5.310   7.370   9.552  0.2175 -0.5344 -0.6522
  998MOL0     C34652   5.315   7.364   9.690 -0.3221 -0.4712 -0.4887
  998MOL0     O34653   5.205   7.410   9.754  0.0638 -0.3919  0.3098
  998MOL0     C34654   5.144   7.332   9.868 -0.3953  0.5856  0.6753
  998MOL0     C34655   5.157   7.420   9.987 -0.1338  0.1654 -0.3285
  998MOL0     C34656   5.210   7.334  10.104 -0.4158 -0.0059 -0.8466
  998MOL0     C34657   5.188   7.396  10.245  0.7815 -0.2282  0.0483
  998MOL0     C34658   5.233   7.292  10.340 -0.5218 -0.4425  0.0696
  998MOL0     C34659   5.264   7.195  10.399  0.5244 -0.2208 -0.4398
  998MOL0     C34660   5.427   7.318   9.751 -0.2068 -0.1196 -1.0983
  998MOL0     C34661   5.539   7.280   9.678  0.1542  0.0968 -0.9846
  998MOL0     C34662   5.652   7.217   9.752  0.2569 -0.2550 -0.1536
  998MOL0     H34663   5.786   6.902   9.525  1.9833  2.0801  1.8948
  998MOL0     H34664   5.968   6.774   9.427  1.6250 -0.8813 -1.5920
  998MOL0     H34665   6.180   6.681   9.335 -0.7021  2.1686  2.5373
  998MOL0     H34666   6.084   6.703   9.195 -2.8540  2.9682  2.3212
  998MOL0     H34667   6.315   6.600   9.170  1.3291  0.9344  0.3795
  998MOL0     H34668   6.393   6.753   9.208 -0.8547  1.4376  0.6281
  998MOL0     H34669   6.281   6.865   9.010  0.3548  1.6457  1.2176
  998MOL0     H34670   6.201   6.722   8.964  0.2804  1.7082 -0.8162
  998MOL0     H34671   6.499   6.737   9.001  1.2952  0.2593 -2.5849
  998MOL0     H34672   6.411   6.613   8.909 -0.9913 -0.5728  0.8994
  998MOL0     H34673   6.336   6.802   8.767 -1.5846  1.0520  0.4355
  998MOL0     H34674   6.449   6.904   8.854  0.6646  0.4462 -1.7331
  998MOL0     H34675   6.616   6.689   8.773 -0.1581  2.7929  1.2370
  998MOL0     H34676   6.494   6.672   8.659 -3.3099 -1.7188  2.7444
  998MOL0     H34677   6.665   6.808   8.581 -2.5593 -1.6234 -1.3844
  998MOL0     H34678   6.643   6.933   8.702  0.3459  1.6039 -2.8262
  998MOL0     H34679   6.433   6.838   8.495  0.9034  0.3953 -0.0300
  998MOL0     H34680   6.401   6.962   8.609 -0.3629 -0.3274  0.1458
  998MOL0     H34681   6.742   6.971   8.407 -0.7622 -1.1176  0.7895
  998MOL0     H34682   6.727   7.304   8.221 -1.1786 -0.9374 -0.4958
  998MOL0     H34683   6.838   7.173   8.232 -0.3822 -1.0425 -2.4901
  998MOL0     H34684   6.592   7.168   8.035 -1.3314 -0.5970  0.9231
  998MOL0     H34685   6.757   7.229   8.003  2.5612 -0.0227  2.6083
  998MOL0     H34686   6.752   7.011   7.920 -0.4492 -0.6201  0.6907
  998MOL0     H34687   6.686   6.937   8.067  0.0564 -0.0900  1.3459
  998MOL0     H34688   6.924   6.985   8.169 -0.1989  1.9948  0.0750
  998MOL0     H34689   6.960   7.070   8.011  1.3371 -1.7265 -1.4992
  998MOL0     H34690   7.140   6.934   8.167 -3.7629 -3.9920  0.6432
  998MOL0     H34691   7.385   6.910   8.116 -2.4159  1.8073 -0.7244
  998MOL0     H34692   7.627   6.539   8.027 -1.3738 -1.4839 -1.3462
  998MOL0     H34693   7.831   6.433   8.047  2.0825  0.5335 -0.3928
  998MOL0     H34694   8.281   6.527   8.041  0.2683 -0.1397  1.1188
  998MOL0     H34695   8.232   6.683   7.991 -0.5739 -0.0995  1.1261
  998MOL0     H34696   8.137   6.734   8.188 -1.0613 -0.1927  2.8512
  998MOL0     H34697   8.123   6.560   8.249 -1.3603 -1.7309 -3.3980
  998MOL0     H34698   8.402   6.668   8.194  1.7258 -2.6084  1.4523
  998MOL0     H34699   8.331   6.706   8.359  1.1414  3.5037 -0.8408
  998MOL0     H34700   8.417   6.462   8.227 -1.7287 -2.4761  0.7929
  998MOL0     H34701   8.273   6.446   8.340 -1.8924  0.9029 -0.8804
  998MOL0     H34702   8.438   6.594   8.491 -0.2628  1.1959 -1.9658
  998MOL0     H34703   8.562   6.537   8.394 -1.1033  1.2220 -2.3328
  998MOL0     H34704   8.354   6.337   8.530  0.6742 -1.5170  2.3397
  998MOL0     H34705   8.497   6.289   8.434  1.6929  0.6190  0.3241
  998MOL0     H34706   8.505   6.463   8.679 -1.6056  1.2921 -1.6287
  998MOL0     H34707   8.645   6.372   8.597  0.1923  1.1005  1.0383
  998MOL0     H34708   8.573   6.252   8.811 -4.2455 -0.9695  2.2999
  998MOL0     H34709   8.421   6.226   8.739 -0.3692  0.8021 -0.4771
  998MOL0     H34710   8.036   6.791   7.947 -1.0104 -0.0292 -2.7406
  998MOL0     H34711   7.831   6.910   7.930  0.5597  1.8217  2.1170
  998MOL0     H34712   7.267   6.695   7.761 -0.6604 -1.6881  0.6472
  998MOL0     H34713   7.049   6.754   7.789  1.8479  0.8471 -2.9155
  998MOL0     H34714   6.102   7.123   9.223  0.9081  3.6138  4.3297
  998MOL0     H34715   5.887   7.249   9.295 -0.7159 -0.0803  2.3717
  998MOL0     H34716   5.441   7.330   9.369  0.4639  1.5686 -0.2939
  998MOL0     H34717   5.232   7.424   9.499  0.5992 -0.1488 -0.8321
  998MOL0     H34718   5.182   7.229   9.871 -0.8182  0.3353 -1.0735
  998MOL0     H34719   5.041   7.299   9.850 -0.3743  1.6273 -1.7260
  998MOL0     H34720   5.064   7.474  10.010 -0.6920 -1.0930  0.4931
  998MOL0     H34721   5.239   7.490   9.972  0.4048 -0.4980 -0.5467
  998MOL0     H34722   5.319   7.321  10.105 -0.4146 -0.2010  1.2658
  998MOL0     H34723   5.179   7.230  10.097  1.3980 -0.5421 -1.5865
  998MOL0     H34724   5.242   7.491  10.253  0.5734 -0.1059 -0.0074
  998MOL0     H34725   5.080   7.409  10.258  0.4279 -1.4033 -1.3598
  998MOL0     H34726   5.272   7.094  10.435  1.5620 -0.1030 -0.3115
  998MOL0     H34727   5.426   7.317   9.860 -0.2651 -3.0143 -1.0579
  998MOL0     H34728   5.746   7.253   9.709  1.6073  0.9582  3.4460
  998MOL0     H34729   5.646   7.244   9.858 -2.0557 -1.1365 -0.0113
  998MOL0     H34730   5.649   7.109   9.735 -0.5310 -0.0126 -1.7026
  999MOL0     O34731   0.236   3.142   5.550 -0.1430  0.1915 -0.3253
  999MOL0     C34732   0.126   3.096   5.575  0.1763 -0.0026  0.7323
  999MOL0     O34733   0.088   3.052   5.705  0.3626 -0.1086 -0.1046
  999MOL0     C34734   0.184   3.011   5.796  1.2193 -0.2958  0.3666
  999MOL0     C34735   0.193   3.080   5.922  0.2008  0.3409  0.4608
  999MOL0     C34736   0.279   3.025   6.019 -0.8715 -0.3503 -0.1828
  999MOL0     C34737   0.365   2.915   5.993  0.6167  0.3841 -0.0732
  999MOL0     O34738   0.432   2.851   6.089 -0.2087  0.8719 -0.1576
  999MOL0     C34739   0.526   2.945   6.140 -0.0514  0.3563 -0.2593
  999MOL0     C34740   0.617   2.847   6.214  0.1484 -0.2253 -0.1962
  999MOL0     C34741   0.751   2.908   6.273  0.9733  0.5013  0.4697
  999MOL0     C34742   0.850   2.798   6.303  0.0900 -0.2427  0.2372
  999MOL0     C34743   0.970   2.855   6.381  0.0176  1.2235  0.3721
  999MOL0     C34744   1.094   2.769   6.385 -0.4867  0.7509  0.0338
  999MOL0     C34745   1.048   2.636   6.448  0.0957 -0.3504  0.4425
  999MOL0     C34746   1.159   2.549   6.491 -0.7323  0.6666  0.4200
  999MOL0     N34747   1.240   2.493   6.378  0.3803  0.2746 -0.4238
  999MOL0     C34748   1.351   2.550   6.339  0.0818  0.3963  0.5257
  999MOL0     C34749   1.398   2.474   6.233  0.1622 -0.0308  0.1423
  999MOL0     C34750   1.531   2.510   6.180 -1.1191 -0.1099 -0.5955
  999MOL0     C34751   1.647   2.427   6.247  0.0124 -0.1851 -0.3034
  999MOL0     C34752   1.634   2.268   6.226 -0.1442 -0.6848  0.4522
  999MOL0     C34753   1.671   2.207   6.093  0.2469 -0.2580 -0.1623
  999MOL0     O34754   1.646   2.062   6.085 -0.3826 -1.1202 -0.3040
  999MOL0     C34755   1.694   1.992   5.980  0.2324  0.3631  0.5723
  999MOL0     C34756   1.739   2.047   5.858  0.3876  0.4767 -0.6086
  999MOL0     C34757   1.780   1.964   5.752 -0.0518 -0.3881  0.2777
  999MOL0     C34758   1.760   1.824   5.753 -0.4964  0.2329 -0.5325
  999MOL0     C34759   1.808   1.742   5.638  0.8294  0.5533  0.2981
  999MOL0     O34760   1.844   1.608   5.672 -0.4883  0.9205 -0.4260
  999MOL0     C34761   1.915   1.543   5.571  0.5291  0.4272 -0.5503
  999MOL0     C34762   2.057   1.513   5.592  0.5143 -0.0333  0.9876
  999MOL0     C34763   2.131   1.446   5.488 -0.3003 -0.4915  0.3224
  999MOL0     C34764   2.072   1.426   5.363 -0.4679 -0.3732 -0.5309
  999MOL0     O34765   2.140   1.372   5.263  0.1967 -0.6778  0.0129
  999MOL0     C34766   2.108   1.236   5.212 -0.5396  1.1557  0.4700
  999MOL0     C34767   2.139   1.114   5.298 -0.0397  0.2135  0.0095
  999MOL0     C34768   2.271   1.123   5.380 -0.1660  0.6653 -0.8419
  999MOL0     C34769   2.391   1.072   5.297 -0.2580 -0.1848 -0.7604
  999MOL0     C34770   2.530   1.100   5.367  0.5560  0.8251 -1.0412
  999MOL0     C34771   2.644   1.032   5.293 -0.7912 -0.1728 -0.5693
  999MOL0     C34772   2.778   1.038   5.370  0.6633 -0.6520 -0.4996
  999MOL0     C34773   2.781   0.947   5.494 -0.4595 -0.4175 -0.0326
  999MOL0    Cl34774   2.949   0.960   5.550 -0.2896 -0.0299  0.0298
  999MOL0     C34775   1.940   1.452   5.343  0.9451  1.1162 -0.3650
  999MOL0     C34776   1.864   1.510   5.442  1.0536 -0.1112 -0.9582
  999MOL0     O34777   1.825   1.798   5.532  0.0695  0.3710  0.5547
  999MOL0     C34778   1.698   1.771   5.872 -0.4602 -0.5260  0.5257
  999MOL0     C34779   1.660   1.858   5.982  0.3893 -0.4805  0.9942
  999MOL0     N34780   1.312   2.364   6.221  0.1065 -0.3717  0.2585
  999MOL0     N34781   1.218   2.382   6.308  0.0227 -0.3319 -0.2944
  999MOL0     C34782   0.358   2.857   5.863  0.5743 -1.2125 -1.2058
  999MOL0     C34783   0.267   2.906   5.769 -0.1997 -1.0525  0.7607
  999MOL0     C34784   0.038   3.074   5.461 -0.0846  0.0545 -0.2706
  999MOL0     C34785   0.061   3.141   5.336 -0.6632 -0.2593  0.1509
  999MOL0     C34786  -0.030   3.133   5.225  0.3864 -0.9003 -0.3613
  999MOL0     C34787  -0.149   3.054   5.241 -0.2760 -0.8889 -0.2573
  999MOL0     O34788  -0.242   3.043   5.144 -0.6849  0.1864  0.4742
  999MOL0     C34789  -0.237   3.127   5.025  0.3211 -0.0232  0.4928
  999MOL0     C34790  -0.357   3.103   4.929  0.0679  0.0255 -0.6369
  999MOL0     C34791  -0.360   3.179   4.794 -0.0797 -0.9156 -0.6296
  999MOL0     C34792  -0.487   3.137   4.699 -0.7756 -0.1477 -0.4753
  999MOL0     C34793  -0.502   3.223   4.587 -0.2403 -1.1973  0.6021
  999MOL0     C34794  -0.510   3.299   4.487  0.6557 -0.2523 -0.0188
  999MOL0     C34795  -0.175   2.981   5.360 -0.8796 -0.5500 -0.1535
  999MOL0     C34796  -0.083   2.989   5.470  0.4676 -0.3319  0.2201
  999MOL0     C34797  -0.130   2.913   5.594 -0.0492 -0.2099 -0.0180
  999MOL0     H34798   0.138   3.171   5.945  2.3233  1.8543 -0.1627
  999MOL0     H34799   0.292   3.048   6.124 -1.3780  0.0202 -0.2013
  999MOL0     H34800   0.575   3.007   6.064  0.3875  2.4883  1.6448
  999MOL0     H34801   0.483   3.032   6.191 -1.4064  0.6432 -1.8124
  999MOL0     H34802   0.636   2.759   6.150  0.5645  0.1180 -0.5576
  999MOL0     H34803   0.578   2.816   6.311  3.6772  1.8897  2.1298
  999MOL0     H34804   0.724   2.974   6.356  0.9182  2.4777 -1.0370
  999MOL0     H34805   0.797   2.981   6.205 -0.1093  0.7499 -0.0262
  999MOL0     H34806   0.807   2.736   6.383 -1.6022 -1.3884 -1.4688
  999MOL0     H34807   0.882   2.747   6.212  0.3649  2.2685 -1.1440
  999MOL0     H34808   0.994   2.935   6.310 -1.7275 -0.3451 -2.1816
  999MOL0     H34809   0.943   2.907   6.473 -0.3108  2.0676 -0.1799
  999MOL0     H34810   1.128   2.759   6.282 -0.2402 -1.2257  0.2615
  999MOL0     H34811   1.175   2.809   6.447  2.5380 -2.6987 -1.2746
  999MOL0     H34812   0.973   2.594   6.381 -0.5036  2.3332 -0.6877
  999MOL0     H34813   0.997   2.648   6.544  1.3973 -3.5304  1.6581
  999MOL0     H34814   1.224   2.611   6.554  0.9849  1.3527 -1.8536
  999MOL0     H34815   1.118   2.465   6.547  0.5754 -0.1070  0.2835
  999MOL0     H34816   1.397   2.639   6.381 -0.4493 -0.5356  3.2460
  999MOL0     H34817   1.527   2.489   6.072 -1.1234 -2.8122 -0.1583
  999MOL0     H34818   1.558   2.615   6.194  1.0023 -0.5878 -0.7787
  999MOL0     H34819   1.746   2.464   6.216  0.6333 -1.7792 -0.2940
  999MOL0     H34820   1.656   2.457   6.352  0.0168  1.0977 -0.6442
  999MOL0     H34821   1.527   2.246   6.231  0.2401 -2.8800 -0.2702
  999MOL0     H34822   1.688   2.217   6.307 -1.2565 -1.4142  0.7720
  999MOL0     H34823   1.779   2.228   6.085  0.9355 -2.0459  2.8659
  999MOL0     H34824   1.604   2.258   6.023 -1.1810 -2.6700 -0.6710
  999MOL0     H34825   1.769   2.149   5.840  1.5601  0.0698 -1.0920
  999MOL0     H34826   1.827   2.018   5.671  1.1027  0.1521  1.2743
  999MOL0     H34827   2.104   1.522   5.689  0.4034 -2.5621  1.3382
  999MOL0     H34828   2.236   1.419   5.496  0.7597  2.0705 -2.6636
  999MOL0     H34829   2.004   1.245   5.177  0.7560  3.9174 -3.4339
  999MOL0     H34830   2.181   1.224   5.131 -0.1736 -1.4167  1.1273
  999MOL0     H34831   2.056   1.102   5.369  0.5386  0.9413  0.8392
  999MOL0     H34832   2.132   1.023   5.239 -2.6159 -1.5148  2.6548
  999MOL0     H34833   2.276   1.225   5.420 -0.3412  1.3063 -2.4024
  999MOL0     H34834   2.265   1.058   5.468 -0.9455  0.2341 -1.1974
  999MOL0     H34835   2.381   1.101   5.192 -1.7841 -3.1087 -1.5300
  999MOL0     H34836   2.384   0.965   5.278  1.3837  0.0078 -2.8341
  999MOL0     H34837   2.518   1.059   5.468  1.0948  1.5493 -0.6676
  999MOL0     H34838   2.546   1.208   5.372  3.6442  0.3833  1.4256
  999MOL0     H34839   2.612   0.930   5.268 -1.0604 -0.0618 -0.6898
  999MOL0     H34840   2.660   1.098   5.207 -0.4563  0.3962 -0.0754
  999MOL0     H34841   2.779   1.141   5.408 -1.3457  0.7420 -3.8124
  999MOL0     H34842   2.858   1.020   5.299  1.7377  0.8905  0.2841
  999MOL0     H34843   2.710   0.975   5.572 -0.0488 -1.5703  0.7869
  999MOL0     H34844   2.773   0.841   5.467 -0.5068 -0.1540 -1.1030
  999MOL0     H34845   1.903   1.423   5.245 -3.4650  1.4205  0.9892
  999MOL0     H34846   1.766   1.540   5.407  2.0571  1.1535 -2.8845
  999MOL0     H34847   1.668   1.666   5.877 -1.3016 -0.2464  2.9467
  999MOL0     H34848   1.600   1.816   6.062 -1.2517  0.6225  0.3874
  999MOL0     H34849   0.410   2.764   5.841  1.8547 -1.0414  0.8178
  999MOL0     H34850   0.267   2.871   5.666 -1.0523  0.1113  0.3441
  999MOL0     H34851   0.151   3.200   5.326 -1.6125  1.0636 -0.8721
  999MOL0     H34852  -0.020   3.196   5.137 -3.5874  1.0191  0.3513
  999MOL0     H34853  -0.148   3.111   4.963 -0.1896  0.9067 -0.5171
  999MOL0     H34854  -0.232   3.229   5.064  0.6254  0.1545  0.0013
  999MOL0     H34855  -0.449   3.129   4.983 -0.9862 -1.8358 -1.4855
  999MOL0     H34856  -0.350   2.995   4.916 -0.3609 -0.4136  2.0918
  999MOL0     H34857  -0.263   3.176   4.744  0.2230  0.5603 -0.1831
  999MOL0     H34858  -0.369   3.281   4.831 -3.2840 -0.9748 -0.9404
  999MOL0     H34859  -0.471   3.037   4.657 -3.4671  0.1885 -2.5719
  999MOL0     H34860  -0.577   3.130   4.761 -0.8318 -0.1127 -0.5536
  999MOL0     H34861  -0.495   3.359   4.400  2.2677 -2.3317 -1.2474
  999MOL0     H34862  -0.269   2.929   5.345 -1.4498  0.1392  0.8818
  999MOL0     H34863  -0.166   2.978   5.674  2.1971  0.2663  0.6543
  999MOL0     H34864  -0.198   2.831   5.568  0.5734  0.2512 -3.5138
  999MOL0     H34865  -0.048   2.852   5.634 -2.0147 -2.3328  1.0741
 1000MOL0     O34866  11.230  10.052   7.443  0.1366  0.5610 -0.4502
 1000MOL0     C34867  11.189  10.129   7.537 -0.0025 -0.9011 -0.1843
 1000MOL0     O34868  11.272  10.192   7.632 -0.7154 -0.1937 -0.1977
 1000MOL0     C34869  11.407  10.175   7.640 -0.6746 -0.3529 -0.0400
 1000MOL0     C34870  11.472  10.284   7.698 -0.4500  0.6996  0.3227
 1000MOL0     C34871  11.613  10.277   7.730  0.4973  0.2459 -0.4594
 1000MOL0     C34872  11.682  10.150   7.713 -0.0507 -0.4242 -0.3472
 1000MOL0     O34873  11.812  10.124   7.752  0.9940 -0.0880 -0.0141
 1000MOL0     C34874  11.867  10.188   7.867  0.9351  0.6349  0.0433
 1000MOL0     C34875  12.011  10.143   7.864 -0.0394 -0.2296 -1.2555
 1000MOL0     C34876  12.085  10.170   8.002  0.0524  0.8891 -0.1356
 1000MOL0     C34877  12.049  10.088   8.128  0.7900  0.1092 -0.3243
 1000MOL0     C34878  12.173  10.068   8.201  0.4831  0.0710 -0.4880
 1000MOL0     C34879  12.141   9.985   8.333  0.0403 -0.0848  0.3013
 1000MOL0     C34880  12.266   9.952   8.423 -0.3150  0.5962 -0.3785
 1000MOL0     C34881  12.346  10.076   8.449  0.3219 -0.4136  0.9096
 1000MOL0     N34882  12.462  10.048   8.532 -0.2071 -0.6577 -0.4184
 1000MOL0     C34883  12.590  10.043   8.493 -0.3630 -0.1276 -0.2313
 1000MOL0     C34884  12.673  10.053   8.597  0.2595  0.9857  0.4450
 1000MOL0     C34885  12.821  10.060   8.621  0.0442 -0.2125  0.5228
 1000MOL0     C34886  12.897   9.954   8.533  0.6863  0.4398 -0.4132
 1000MOL0     C34887  13.044   9.960   8.561 -0.2891  0.1382  0.0748
 1000MOL0     C34888  13.115   9.895   8.680 -0.0407 -0.3705 -0.0608
 1000MOL0     O34889  13.201   9.994   8.728  0.0680 -0.5713 -0.0993
 1000MOL0     C34890  13.323   9.951   8.774 -0.1591 -0.9165 -0.0654
 1000MOL0     C34891  13.345   9.829   8.831  0.4913  0.5780  0.8879
 1000MOL0     C34892  13.472   9.806   8.873 -0.4695  0.0498  0.6056
 1000MOL0     C34893  13.582   9.898   8.854  0.8907  0.2183  0.0630
 1000MOL0     C34894  13.718   9.854   8.897  0.4140 -0.3172 -0.2995
 1000MOL0     O34895  13.744   9.728   8.916  1.1149  0.2097 -0.6999
 1000MOL0     C34896  13.869   9.691   8.962  0.0539  0.2432  0.3439
 1000MOL0     C34897  13.880   9.599   9.064  0.3690  0.0341  1.3681
 1000MOL0     C34898  13.996   9.524   9.090  0.6102 -0.4092 -0.1057
 1000MOL0     C34899  14.122   9.565   9.035  0.1352 -0.0147 -0.1731
 1000MOL0     O34900  14.232   9.490   9.078 -0.3852  0.5113  0.1666
 1000MOL0     C34901  14.359   9.552   9.068  0.2734 -0.7780  0.3139
 1000MOL0     C34902  14.467   9.465   9.115 -1.0264  0.2889 -0.1865
 1000MOL0     C34903  14.513   9.353   9.015  0.5349  0.7728 -0.6279
 1000MOL0     C34904  14.507   9.390   8.866  0.1515 -0.1658 -0.6029
 1000MOL0     C34905  14.558   9.277   8.771 -1.0988  0.4645  0.6890
 1000MOL0     C34906  14.459   9.168   8.746  0.7621  0.0747 -1.0849
 1000MOL0     C34907  14.502   9.089   8.623 -0.6815  0.4109  0.8534
 1000MOL0     C34908  14.392   9.043   8.531  0.3906  0.3504  0.1326
 1000MOL0    Cl34909  14.463   9.006   8.375 -0.2181 -0.1951  0.0054
 1000MOL0     C34910  14.119   9.668   8.939  1.1845 -0.2934 -0.4868
 1000MOL0     C34911  13.996   9.721   8.899  0.4796  1.0469 -0.0395
 1000MOL0     O34912  13.793   9.947   8.925  1.0584 -0.0681  0.0448
 1000MOL0     C34913  13.556  10.016   8.793 -0.3393 -0.3684 -0.8159
 1000MOL0     C34914  13.426  10.045   8.752  0.7980  0.4718  0.6799
 1000MOL0     N34915  12.594  10.049   8.712  0.3319  0.1150 -0.2218
 1000MOL0     N34916  12.468  10.058   8.668  0.3791  0.2318  0.4001
 1000MOL0     C34917  11.606  10.043   7.665  0.0717  0.6836  1.6522
 1000MOL0     C34918  11.473  10.049   7.639  0.0589  0.1753 -0.5570
 1000MOL0     C34919  11.045  10.157   7.539  0.6520 -0.1564 -0.6456
 1000MOL0     C34920  11.007  10.256   7.637  0.1425  0.1203  0.0520
 1000MOL0     C34921  10.880  10.290   7.660  1.4146 -0.1144  0.4740
 1000MOL0     C34922  10.778  10.231   7.585  0.7919 -0.5959  0.3047
 1000MOL0     O34923  10.642  10.272   7.590  0.1256  0.2386  0.1758
 1000MOL0     C34924  10.561  10.226   7.696  0.5107 -0.3372 -0.5898
 1000MOL0     C34925  10.428  10.176   7.640  0.0884 -0.0391  0.2284
 1000MOL0     C34926  10.351  10.293   7.568 -0.9492  0.7298 -0.4209
 1000MOL0     C34927  10.208  10.282   7.596  0.0110  1.5661  0.6610
 1000MOL0     C34928  10.132  10.368   7.504  0.1493  0.2723 -0.0043
 1000MOL0     C34929  10.090  10.450   7.418 -0.0978 -0.5244  0.2610
 1000MOL0     C34930  10.806  10.131   7.491  0.4644 -0.8819  0.3804
 1000MOL0     C34931  10.942  10.093   7.467 -0.4776 -0.2568  0.0715
 1000MOL0     C34932  10.966   9.992   7.361  0.7098 -0.7278 -0.1322
 1000MOL0     H34933  11.427  10.383   7.697 -2.9918 -0.3121  2.3493
 1000MOL0     H34934  11.667  10.359   7.777 -1.1721  0.5373  1.0842
 1000MOL0     H34935  11.869  10.297   7.868 -2.5245  0.8171  1.0246
 1000MOL0     H34936  11.814  10.154   7.957  0.1269  0.2898 -0.5452
 1000MOL0     H34937  12.061  10.197   7.783  1.1272  1.8112  0.7174
 1000MOL0     H34938  12.014  10.034   7.854 -0.8488 -0.4470  0.4226
 1000MOL0     H34939  12.077  10.278   8.019 -3.0324  0.9114 -1.1075
 1000MOL0     H34940  12.190  10.158   7.974 -0.1923  0.9353 -1.0973
 1000MOL0     H34941  11.977  10.136   8.194  1.2099 -0.7641  0.8034
 1000MOL0     H34942  12.015   9.993   8.086  0.8499 -0.1880  0.2908
 1000MOL0     H34943  12.249  10.019   8.139  1.4536 -0.3949  1.0316
 1000MOL0     H34944  12.217  10.164   8.232  0.7917  0.3574 -1.7179
 1000MOL0     H34945  12.067  10.035   8.396  0.9861  0.0455  1.3434
 1000MOL0     H34946  12.093   9.889   8.310 -2.8605  1.1535  0.6692
 1000MOL0     H34947  12.327   9.880   8.367  1.4064  2.5034 -1.0570
 1000MOL0     H34948  12.234   9.907   8.518 -0.8467  1.0114 -0.3576
 1000MOL0     H34949  12.375  10.131   8.359  0.7165 -0.5810  0.9320
 1000MOL0     H34950  12.287  10.151   8.503  1.3292  3.0220 -2.2762
 1000MOL0     H34951  12.604  10.031   8.386 -1.7561  0.7834 -0.5433
 1000MOL0     H34952  12.851  10.157   8.581  1.6002 -0.2821  1.4733
 1000MOL0     H34953  12.845  10.056   8.727 -0.6301 -3.4383  0.6736
 1000MOL0     H34954  12.869   9.855   8.571  1.3149  0.9894  1.6442
 1000MOL0     H34955  12.867   9.966   8.429  1.8371  3.8659 -0.4773
 1000MOL0     H34956  13.071  10.066   8.559  1.0269 -0.1420  1.3653
 1000MOL0     H34957  13.083   9.908   8.473  0.8068 -0.4649  0.8863
 1000MOL0     H34958  13.167   9.806   8.646  1.2678  1.0949 -2.1309
 1000MOL0     H34959  13.060   9.857   8.767  0.6111 -1.2357 -0.0191
 1000MOL0     H34960  13.264   9.760   8.855  2.0618 -1.7209 -0.1294
 1000MOL0     H34961  13.495   9.706   8.907 -1.1613 -1.7534 -3.6628
 1000MOL0     H34962  13.800   9.557   9.124  0.3284 -2.5740 -0.3322
 1000MOL0     H34963  13.983   9.455   9.173 -4.7438  0.3710  0.0636
 1000MOL0     H34964  14.377   9.596   8.970  1.2787 -0.2308  0.7251
 1000MOL0     H34965  14.362   9.636   9.138  2.0636  0.2279 -0.9053
 1000MOL0     H34966  14.558   9.523   9.128  0.0487 -1.1106 -1.1213
 1000MOL0     H34967  14.443   9.416   9.209 -0.3084  1.5242  0.6641
 1000MOL0     H34968  14.614   9.321   9.045 -0.8301 -1.4395  2.1680
 1000MOL0     H34969  14.452   9.263   9.027  1.2797  0.1188 -1.5690
 1000MOL0     H34970  14.577   9.474   8.863 -1.3976  1.1992 -0.0278
 1000MOL0     H34971  14.406   9.419   8.836  0.2999 -1.5434 -2.6433
 1000MOL0     H34972  14.654   9.244   8.809 -0.8330 -1.1131 -1.2019
 1000MOL0     H34973  14.580   9.342   8.685  0.8016  4.1368  3.6278
 1000MOL0     H34974  14.436   9.091   8.821 -0.6683  0.4522 -1.0948
 1000MOL0     H34975  14.361   9.213   8.726 -0.2114 -1.6812 -0.4909
 1000MOL0     H34976  14.560   9.000   8.650 -1.9697 -0.7983 -0.2400
 1000MOL0     H34977  14.567   9.157   8.568  0.6415 -0.2917  1.5129
 1000MOL0     H34978  14.347   8.955   8.579 -0.6974 -0.3338 -2.0087
 1000MOL0     H34979  14.307   9.110   8.515  0.4182  0.2143 -0.6421
 1000MOL0     H34980  14.212   9.704   8.897  0.3889  0.0631 -2.0138
 1000MOL0     H34981  13.994   9.785   8.811 -1.5945  2.4008  0.9278
 1000MOL0     H34982  13.638  10.084   8.774 -0.5149  0.5637  1.4833
 1000MOL0     H34983  13.413  10.142   8.707 -0.6917  1.1154  2.3926
 1000MOL0     H34984  11.648   9.944   7.661  0.4481  0.8705  0.9515
 1000MOL0     H34985  11.412   9.971   7.596 -0.8598  0.8361 -0.4859
 1000MOL0     H34986  11.079  10.301   7.704  0.3882 -1.6661  1.0644
 1000MOL0     H34987  10.850  10.359   7.739  0.5382 -0.1306  0.1658
 1000MOL0     H34988  10.543  10.297   7.777 -1.4142 -1.0982 -0.3059
 1000MOL0     H34989  10.605  10.134   7.735 -0.4074 -2.2155 -3.5833
 1000MOL0     H34990  10.366  10.137   7.720 -2.1145  4.8472  1.2924
 1000MOL0     H34991  10.460  10.092   7.578  1.9223  1.1950 -0.6077
 1000MOL0     H34992  10.380  10.283   7.463 -0.8518 -0.7634 -0.2707
 1000MOL0     H34993  10.383  10.394   7.595 -0.6511  0.7841 -0.9611
 1000MOL0     H34994  10.183  10.177   7.581  2.9956  0.5816  1.8887
 1000MOL0     H34995  10.189  10.306   7.701  2.3143 -1.7910  2.0070
 1000MOL0     H34996  10.052  10.517   7.343  0.0659  1.3031  1.7519
 1000MOL0     H34997  10.731  10.093   7.422 -0.1164  0.4015  0.2884
 1000MOL0     H34998  11.032  10.036   7.286 -1.2776 -1.9120 -2.7297
 1000MOL0     H34999  11.016   9.905   7.404 -0.8937 -1.3443  0.5690
 1000MOL0     H35000  10.871   9.965   7.314 -0.0967  1.5616  0.0271
 1001MOL0     O35001   1.248   6.848   3.507  0.1542  0.1216 -0.0759
 1001MOL0     C35002   1.266   6.852   3.385  0.6921 -0.4860  0.7710
 1001MOL0     O35003   1.171   6.883   3.287  0.1766  0.3384  0.2812
 1001MOL0     C35004   1.048   6.927   3.331  1.0055  0.8196 -0.0695
 1001MOL0     C35005   0.953   6.851   3.411  0.3448 -0.0890 -0.0988
 1001MOL0     C35006   0.836   6.908   3.456 -0.4215 -0.6265 -0.0937
 1001MOL0     C35007   0.802   7.038   3.408 -0.4624  0.5852 -0.0681
 1001MOL0     O35008   0.689   7.111   3.445  0.2235 -0.5223  0.3429
 1001MOL0     C35009   0.589   7.041   3.522  0.8380 -0.9989  0.0946
 1001MOL0     C35010   0.474   7.145   3.551  0.0776  0.3776  0.0205
 1001MOL0     C35011   0.375   7.159   3.436 -0.1642  0.3211 -0.3243
 1001MOL0     C35012   0.276   7.034   3.427 -0.4311 -0.0198 -0.6702
 1001MOL0     C35013   0.248   7.008   3.274  0.2830 -0.7270  1.0137
 1001MOL0     C35014   0.117   6.919   3.274  0.3745  0.7171 -0.4046
 1001MOL0     C35015   0.155   6.771   3.311  0.9032 -0.2788  0.0953
 1001MOL0     C35016   0.046   6.663   3.269 -0.1521  0.6029  0.3606
 1001MOL0     N35017  -0.100   6.703   3.300  0.3433 -0.4628  0.1539
 1001MOL0     C35018  -0.208   6.694   3.208 -0.3226 -0.0716 -0.0447
 1001MOL0     C35019  -0.317   6.706   3.277  0.0040 -0.1528 -0.7705
 1001MOL0     C35020  -0.453   6.671   3.224  0.0824 -0.2764  1.4730
 1001MOL0     C35021  -0.535   6.789   3.162 -0.4610  0.0342 -0.1996
 1001MOL0     C35022  -0.562   6.917   3.254  0.5204 -0.0539  0.2354
 1001MOL0     C35023  -0.673   6.889   3.345 -0.0748 -0.5437 -0.3194
 1001MOL0     O35024  -0.733   7.013   3.373 -0.3047 -0.2438 -0.4234
 1001MOL0     C35025  -0.860   7.013   3.421  0.4336  0.4872 -0.1876
 1001MOL0     C35026  -0.944   7.121   3.398 -0.3750 -0.4694  0.3679
 1001MOL0     C35027  -1.076   7.123   3.442 -0.8083 -0.6105 -0.1555
 1001MOL0     C35028  -1.128   7.013   3.501 -0.3179  0.2345 -0.5752
 1001MOL0     C35029  -1.274   6.997   3.508  0.4910 -0.3522  0.2027
 1001MOL0     O35030  -1.329   6.883   3.565  0.1545  1.0300 -0.5444
 1001MOL0     C35031  -1.469   6.858   3.600 -0.1109 -0.5827  0.0104
 1001MOL0     C35032  -1.494   6.851   3.738  0.4633 -0.6223  0.4142
 1001MOL0     C35033  -1.631   6.864   3.778 -0.1867 -0.3926 -0.4829
 1001MOL0     C35034  -1.739   6.878   3.696  0.0775  0.2757  0.0904
 1001MOL0     O35035  -1.872   6.890   3.742 -0.0796 -0.2651 -0.2485
 1001MOL0     C35036  -1.915   6.974   3.854  0.1226 -0.5870  0.6880
 1001MOL0     C35037  -2.068   6.961   3.875  0.9898 -0.3744  0.3282
 1001MOL0     C35038  -2.125   7.043   4.002  0.4418 -0.2544 -0.7387
 1001MOL0     C35039  -2.126   7.201   3.994 -0.0765  0.2494  0.6787
 1001MOL0     C35040  -2.176   7.268   4.119 -0.6175  0.0372  0.6133
 1001MOL0     C35041  -2.150   7.422   4.099 -0.1820  0.0038 -0.6701
 1001MOL0     C35042  -2.210   7.497   4.220  0.4521 -0.5865 -0.9036
 1001MOL0     C35043  -2.160   7.649   4.224  1.1782 -0.5563 -0.2468
 1001MOL0    Cl35044  -2.227   7.729   4.084 -0.2654 -0.4266  0.4558
 1001MOL0     C35045  -1.712   6.874   3.559  0.0737  0.4934 -0.2046
 1001MOL0     C35046  -1.578   6.872   3.520 -0.2757  1.1885 -0.2194
 1001MOL0     O35047  -1.344   7.083   3.462  0.6934 -0.2467  0.0510
 1001MOL0     C35048  -1.046   6.906   3.533 -0.4148  0.4533  0.6104
 1001MOL0     C35049  -0.911   6.903   3.497  0.5711 -0.4393 -0.8665
 1001MOL0     N35050  -0.280   6.736   3.410 -0.7745  0.1406 -0.0696
 1001MOL0     N35051  -0.152   6.722   3.418 -0.1507  0.3755  0.1689
 1001MOL0     C35052   0.887   7.115   3.336 -0.8842 -0.1731  0.5337
 1001MOL0     C35053   1.009   7.059   3.300  0.1036 -0.0485  0.1892
 1001MOL0     C35054   1.411   6.834   3.341 -0.0856 -0.3509 -0.2063
 1001MOL0     C35055   1.457   6.909   3.235 -0.7712 -0.1739  0.5945
 1001MOL0     C35056   1.585   6.894   3.186 -0.3017 -0.1999  0.7720
 1001MOL0     C35057   1.674   6.801   3.246  1.0985 -0.1262  0.0868
 1001MOL0     O35058   1.799   6.786   3.196 -0.4875  0.5466  0.7232
 1001MOL0     C35059   1.907   6.781   3.292 -0.8155  0.0704  0.5227
 1001MOL0     C35060   2.025   6.699   3.237  0.4018 -0.1009 -0.0688
 1001MOL0     C35061   2.093   6.760   3.114 -0.1543  0.1710 -0.4227
 1001MOL0     C35062   2.036   6.699   2.988 -0.3041  0.1454 -0.7433
 1001MOL0     C35063   2.085   6.761   2.865  0.0183  0.4433  0.3447
 1001MOL0     C35064   2.126   6.821   2.770 -0.1202 -1.4253 -0.4081
 1001MOL0     C35065   1.628   6.726   3.349  0.3488  0.5551 -0.3956
 1001MOL0     C35066   1.496   6.736   3.397  0.0679  0.3388 -0.0691
 1001MOL0     C35067   1.453   6.645   3.503  0.3078  0.7298  0.5350
 1001MOL0     H35068   0.982   6.754   3.449  1.0508  0.1990  0.1280
 1001MOL0     H35069   0.772   6.865   3.532 -0.8742  2.4367  1.4068
 1001MOL0     H35070   0.542   6.957   3.469 -1.0639  1.1421 -1.8280
 1001MOL0     H35071   0.629   7.002   3.616 -1.5704 -0.5442  1.4027
 1001MOL0     H35072   0.521   7.241   3.577  2.0311 -0.5079 -0.0468
 1001MOL0     H35073   0.415   7.121   3.640 -2.1613 -0.2323 -1.5444
 1001MOL0     H35074   0.433   7.159   3.344 -1.5557 -2.6150 -1.3303
 1001MOL0     H35075   0.326   7.256   3.450  0.9866  0.6606  1.7698
 1001MOL0     H35076   0.319   6.943   3.471 -3.3914 -0.4268  1.8219
 1001MOL0     H35077   0.187   7.058   3.486  0.0613 -2.3814  1.2020
 1001MOL0     H35078   0.223   7.106   3.231  1.9917 -0.4003  0.7020
 1001MOL0     H35079   0.325   6.962   3.211 -1.2829  0.9900 -2.4401
 1001MOL0     H35080   0.032   6.958   3.331 -0.6820 -1.5521 -0.3262
 1001MOL0     H35081   0.081   6.926   3.171  0.0910 -0.3921 -0.3867
 1001MOL0     H35082   0.163   6.752   3.418  1.0517 -4.1571 -0.4733
 1001MOL0     H35083   0.252   6.751   3.265 -0.4831 -2.2856 -2.1846
 1001MOL0     H35084   0.060   6.657   3.160 -1.7656  4.0611 -0.1748
 1001MOL0     H35085   0.079   6.572   3.320  1.2943  1.9050  1.8582
 1001MOL0     H35086  -0.201   6.666   3.104 -2.5287  0.5583 -0.4009
 1001MOL0     H35087  -0.457   6.601   3.139 -0.2272 -0.8885  1.9859
 1001MOL0     H35088  -0.506   6.620   3.305  0.2563 -3.4218 -0.2225
 1001MOL0     H35089  -0.476   6.823   3.077  1.5520  0.5625  1.3216
 1001MOL0     H35090  -0.628   6.739   3.136  0.4408 -1.2295 -1.1650
 1001MOL0     H35091  -0.576   7.010   3.198  1.4881 -0.1409 -0.1704
 1001MOL0     H35092  -0.475   6.939   3.316  1.7005 -3.7496  0.1591
 1001MOL0     H35093  -0.649   6.833   3.435  0.4335 -1.5316 -1.0509
 1001MOL0     H35094  -0.752   6.828   3.300 -1.0952 -1.5621  2.6473
 1001MOL0     H35095  -0.901   7.206   3.345  0.3146 -1.1931 -0.2828
 1001MOL0     H35096  -1.134   7.215   3.430 -1.8862 -1.1694  0.5902
 1001MOL0     H35097  -1.404   6.847   3.799 -0.6250  0.9560  2.2425
 1001MOL0     H35098  -1.658   6.872   3.882  0.3825  1.1966 -0.4230
 1001MOL0     H35099  -1.859   6.949   3.944 -1.1762  1.2941  2.1021
 1001MOL0     H35100  -1.887   7.077   3.829  1.6734 -1.4916 -1.6654
 1001MOL0     H35101  -2.121   6.989   3.784  0.7603  0.8450  0.8132
 1001MOL0     H35102  -2.093   6.861   3.911  1.5141  0.6507  3.9512
 1001MOL0     H35103  -2.227   7.005   4.009  0.3780  0.1676  1.4520
 1001MOL0     H35104  -2.073   7.015   4.095  0.0496 -1.3501 -0.8422
 1001MOL0     H35105  -2.204   7.240   3.928  0.2599  2.8038  1.6526
 1001MOL0     H35106  -2.027   7.238   3.964  0.0029 -1.3562 -1.2398
 1001MOL0     H35107  -2.117   7.250   4.209 -0.4567 -3.4424 -0.0617
 1001MOL0     H35108  -2.283   7.246   4.132 -0.8814  1.8289  1.8990
 1001MOL0     H35109  -2.043   7.446   4.094 -0.1916  0.4429  0.7489
 1001MOL0     H35110  -2.189   7.460   4.004  3.5031 -0.1182 -2.4184
 1001MOL0     H35111  -2.172   7.455   4.313 -0.0304  2.2828  0.6981
 1001MOL0     H35112  -2.319   7.503   4.226  0.6093  1.5593  2.0819
 1001MOL0     H35113  -2.209   7.701   4.307  3.6805 -0.0359  1.0162
 1001MOL0     H35114  -2.054   7.676   4.235  1.0288  0.0398 -0.2378
 1001MOL0     H35115  -1.796   6.871   3.491 -0.7494  0.4126  0.8094
 1001MOL0     H35116  -1.579   6.864   3.411  1.4452 -0.0127 -0.1962
 1001MOL0     H35117  -1.098   6.812   3.552 -3.4250  1.8367 -0.1499
 1001MOL0     H35118  -0.851   6.815   3.520 -2.6602 -2.2791  1.2202
 1001MOL0     H35119   0.854   7.213   3.304  1.2155 -0.2024 -1.9799
 1001MOL0     H35120   1.068   7.117   3.230 -0.1443  0.1193  0.1170
 1001MOL0     H35121   1.388   6.975   3.181  1.1141 -0.3248 -2.2200
 1001MOL0     H35122   1.610   6.953   3.098  0.7434 -1.4917  0.1685
 1001MOL0     H35123   1.869   6.748   3.390  0.7923 -2.1285  0.4784
 1001MOL0     H35124   1.940   6.885   3.300  0.0172 -0.2230  0.9524
 1001MOL0     H35125   1.994   6.595   3.222 -0.1728 -0.0128  0.4441
 1001MOL0     H35126   2.090   6.688   3.325  0.3730 -3.2015 -0.3099
 1001MOL0     H35127   2.201   6.746   3.122  0.0852  2.1900  0.4982
 1001MOL0     H35128   2.075   6.867   3.105  1.3985  0.4757 -0.1760
 1001MOL0     H35129   2.065   6.594   2.992  0.2872  0.3140 -0.3071
 1001MOL0     H35130   1.929   6.718   2.998  0.1455  1.6942  2.5342
 1001MOL0     H35131   2.144   6.882   2.684 -3.0247  2.6352  1.4927
 1001MOL0     H35132   1.692   6.652   3.396  0.8098  1.1580 -0.0698
 1001MOL0     H35133   1.459   6.695   3.601  0.5884  0.8792  0.4417
 1001MOL0     H35134   1.348   6.615   3.497  0.6192 -0.1904 -0.7259
 1001MOL0     H35135   1.516   6.558   3.524  1.6466  2.0683  2.3979
 1002MOL0     O35136   5.705   0.326   5.709 -0.0266 -0.0117 -0.5945
 1002MOL0     C35137   5.634   0.246   5.655 -0.1840 -0.0457  0.1811
 1002MOL0     O35138   5.526   0.179   5.701  0.5364  0.2144  0.4383
 1002MOL0     C35139   5.516   0.148   5.834 -0.8268  0.1449 -0.3869
 1002MOL0     C35140   5.444   0.231   5.926 -0.0037  0.3625 -0.2398
 1002MOL0     C35141   5.421   0.188   6.054 -0.6292 -0.4090  0.3790
 1002MOL0     C35142   5.456   0.058   6.099  1.6652 -0.0870 -0.6984
 1002MOL0     O35143   5.434   0.019   6.234 -0.3574  0.2913 -0.2771
 1002MOL0     C35144   5.545   0.000   6.310  0.0818 -0.9871 -1.0446
 1002MOL0     C35145   5.548   0.111   6.412  0.3536 -0.2923  0.0544
 1002MOL0     C35146   5.671   0.103   6.492 -0.0692  0.3263 -0.4546
 1002MOL0     C35147   5.708   0.226   6.574 -0.4227  0.2188 -1.3157
 1002MOL0     C35148   5.851   0.185   6.646 -0.3013 -0.1820 -0.5079
 1002MOL0     C35149   5.959   0.302   6.622 -0.9602 -0.3463 -0.6794
 1002MOL0     C35150   6.089   0.275   6.699  0.1869  0.3817 -0.0753
 1002MOL0     C35151   6.199   0.381   6.679 -0.1894  0.2099 -0.4498
 1002MOL0     N35152   6.297   0.353   6.573  0.3655  0.8832  0.6785
 1002MOL0     C35153   6.392   0.249   6.574 -0.4422 -0.1042  0.3403
 1002MOL0     C35154   6.455   0.265   6.455  0.8325 -0.1325 -0.6808
 1002MOL0     C35155   6.554   0.173   6.396 -0.6687  0.2709  0.1560
 1002MOL0     C35156   6.662   0.115   6.503  0.5070  0.5657  0.8268
 1002MOL0     C35157   6.757   0.231   6.541  0.5091  0.2021  0.9044
 1002MOL0     C35158   6.862   0.203   6.641 -0.4322 -0.1830  0.5004
 1002MOL0     O35159   6.973   0.300   6.631  0.7856 -0.4578  0.5395
 1002MOL0     C35160   7.101   0.266   6.661 -0.2996 -0.4937 -0.3043
 1002MOL0     C35161   7.143   0.136   6.695 -0.7142 -0.2013  0.7365
 1002MOL0     C35162   7.284   0.113   6.713  0.2924 -0.1857  0.6432
 1002MOL0     C35163   7.380   0.211   6.694  0.2361 -1.2045 -0.0606
 1002MOL0     C35164   7.524   0.191   6.722 -0.2512 -0.2317 -0.1380
 1002MOL0     O35165   7.599   0.306   6.700  0.1220 -0.2513 -0.0145
 1002MOL0     C35166   7.735   0.292   6.684  0.0989  0.6011  0.3459
 1002MOL0     C35167   7.825   0.390   6.729 -0.3755  0.5073 -0.2279
 1002MOL0     C35168   7.964   0.377   6.709 -0.1567  0.3182 -0.0307
 1002MOL0     C35169   8.017   0.260   6.656  0.6999  0.2566  1.0952
 1002MOL0     O35170   8.154   0.254   6.628  0.9476 -0.5318 -0.0009
 1002MOL0     C35171   8.226   0.190   6.729 -0.0030 -0.4065 -0.3726
 1002MOL0     C35172   8.198   0.038   6.719 -0.0733  0.4476 -0.0957
 1002MOL0     C35173   8.290  -0.022   6.814  0.2056  1.8831  0.1694
 1002MOL0     C35174   8.271  -0.180   6.839 -0.6616  0.3178 -0.1348
 1002MOL0     C35175   8.375  -0.245   6.948  0.6276 -0.2050  1.1506
 1002MOL0     C35176   8.512  -0.271   6.891 -0.1036  0.3889 -0.5355
 1002MOL0     C35177   8.586  -0.387   6.973  0.1966 -0.8569  0.2444
 1002MOL0     C35178   8.742  -0.382   6.940  0.7321 -0.5620 -0.5660
 1002MOL0    Cl35179   8.797  -0.513   7.034 -0.0469 -0.2070  0.3316
 1002MOL0     C35180   7.932   0.171   6.595 -0.5599 -0.0222  0.0231
 1002MOL0     C35181   7.796   0.179   6.620 -0.5270 -0.1742  0.1618
 1002MOL0     O35182   7.567   0.086   6.764  0.2879  0.3005 -0.1942
 1002MOL0     C35183   7.331   0.341   6.660 -0.5787  0.7376  0.5446
 1002MOL0     C35184   7.198   0.365   6.637  0.3058  0.4953  0.2362
 1002MOL0     N35185   6.387   0.356   6.380 -0.1792  0.3122  0.3462
 1002MOL0     N35186   6.296   0.415   6.452 -0.1796  0.2857  0.2874
 1002MOL0     C35187   5.513  -0.034   6.009 -0.0629 -0.2008  0.4341
 1002MOL0     C35188   5.541   0.018   5.882  0.2687  0.7120  0.2542
 1002MOL0     C35189   5.666   0.211   5.511 -1.0071 -0.3940  0.0018
 1002MOL0     C35190   5.799   0.206   5.468 -0.0798 -0.8010 -1.0655
 1002MOL0     C35191   5.835   0.174   5.343  0.2967 -0.0887  0.7989
 1002MOL0     C35192   5.737   0.139   5.253 -0.5377  0.7749  0.0896
 1002MOL0     O35193   5.756   0.110   5.117  0.4741  0.3975 -0.2799
 1002MOL0     C35194   5.891   0.092   5.060  0.6255 -0.0369  0.9961
 1002MOL0     C35195   5.913   0.222   4.980  0.5022  0.4412  0.1760
 1002MOL0     C35196   6.040   0.208   4.895  1.1777  0.2896  0.3176
 1002MOL0     C35197   6.070   0.334   4.818  0.8852 -0.2864 -0.8799
 1002MOL0     C35198   6.183   0.345   4.725 -0.7731  0.4172  1.7894
 1002MOL0     C35199   6.264   0.343   4.634  0.1282  0.4430 -1.1923
 1002MOL0     C35200   5.603   0.150   5.287 -0.9121 -0.0464 -0.4226
 1002MOL0     C35201   5.564   0.192   5.418 -0.2447 -0.4701  0.7313
 1002MOL0     C35202   5.414   0.220   5.439  0.3206  0.3459  0.1237
 1002MOL0     H35203   5.419   0.333   5.899 -1.2246 -0.0788 -0.8272
 1002MOL0     H35204   5.367   0.247   6.128 -2.2423 -3.3340  1.6641
 1002MOL0     H35205   5.527  -0.093   6.365 -0.7549 -0.3588 -0.2257
 1002MOL0     H35206   5.640  -0.010   6.256 -0.1954 -1.6182 -1.4168
 1002MOL0     H35207   5.455   0.113   6.470 -0.1531  0.8146 -0.7599
 1002MOL0     H35208   5.547   0.199   6.347  0.9389  1.5035  2.3294
 1002MOL0     H35209   5.749   0.072   6.422 -0.8572  2.0681 -2.2039
 1002MOL0     H35210   5.660   0.020   6.564  0.1504  1.1409  0.5438
 1002MOL0     H35211   5.724   0.311   6.506  1.1832 -0.1639 -1.4716
 1002MOL0     H35212   5.632   0.241   6.651  0.3670 -2.6900  0.1970
 1002MOL0     H35213   5.836   0.170   6.753  1.3017  0.3695 -0.1681
 1002MOL0     H35214   5.906   0.102   6.602  4.6477  2.3734  0.1324
 1002MOL0     H35215   5.965   0.324   6.515 -0.2679 -0.5703 -0.6924
 1002MOL0     H35216   5.925   0.392   6.673  1.1133  0.0393  0.1226
 1002MOL0     H35217   6.139   0.183   6.666  2.3571  0.7339  1.8965
 1002MOL0     H35218   6.067   0.256   6.804  1.9581  0.3974  0.3372
 1002MOL0     H35219   6.145   0.474   6.658  0.9831  1.4169  1.5377
 1002MOL0     H35220   6.250   0.393   6.775 -1.5371 -0.7492  0.4244
 1002MOL0     H35221   6.394   0.165   6.642  2.7123 -2.7203 -2.5723
 1002MOL0     H35222   6.501   0.085   6.357  1.6508  0.1824 -3.2749
 1002MOL0     H35223   6.610   0.239   6.329  1.7922 -1.1117  0.7504
 1002MOL0     H35224   6.611   0.096   6.597 -2.6301  1.9397 -0.4667
 1002MOL0     H35225   6.703   0.019   6.473 -2.1567 -0.4408  0.1382
 1002MOL0     H35226   6.695   0.309   6.585 -0.9470 -0.1383 -0.4343
 1002MOL0     H35227   6.801   0.271   6.449  3.4378  2.7374  3.1764
 1002MOL0     H35228   6.897   0.102   6.615  3.0206  1.0297 -0.0347
 1002MOL0     H35229   6.820   0.197   6.742 -0.0550  0.9035  0.7354
 1002MOL0     H35230   7.078   0.051   6.712  1.4660 -2.2286 -0.4810
 1002MOL0     H35231   7.318   0.012   6.733  0.8008  0.2700  2.2314
 1002MOL0     H35232   7.780   0.473   6.783 -2.3687 -2.0438  2.2876
 1002MOL0     H35233   8.030   0.446   6.761 -0.2561 -0.1670  0.7529
 1002MOL0     H35234   8.333   0.210   6.714 -0.8287  2.2288 -3.8352
 1002MOL0     H35235   8.201   0.230   6.828 -0.0245  0.4593 -0.7298
 1002MOL0     H35236   8.095   0.015   6.747 -0.8233  1.8480 -1.4827
 1002MOL0     H35237   8.203  -0.005   6.618 -0.5645  0.0381  0.0470
 1002MOL0     H35238   8.393   0.006   6.788 -0.1753  3.2188  0.0130
 1002MOL0     H35239   8.267   0.024   6.911 -2.1756  1.7709 -0.2894
 1002MOL0     H35240   8.291  -0.228   6.743 -3.4415 -1.1039 -0.1134
 1002MOL0     H35241   8.170  -0.209   6.872  0.0168  0.5276  2.3214
 1002MOL0     H35242   8.333  -0.341   6.980  2.7625 -1.0075  1.7468
 1002MOL0     H35243   8.389  -0.174   7.030  0.5394  1.3913 -0.1708
 1002MOL0     H35244   8.508  -0.303   6.786  0.6047  2.1332 -1.1462
 1002MOL0     H35245   8.566  -0.176   6.887  1.3803 -0.4468 -3.4420
 1002MOL0     H35246   8.546  -0.484   6.942  4.7764 -2.2491 -2.2554
 1002MOL0     H35247   8.573  -0.366   7.079 -1.0809  0.9860 -0.2227
 1002MOL0     H35248   8.759  -0.399   6.833  2.6742  1.0133 -0.5771
 1002MOL0     H35249   8.781  -0.287   6.978 -0.7812  0.5386 -1.6243
 1002MOL0     H35250   7.981   0.086   6.548 -1.7896 -0.9480  0.3717
 1002MOL0     H35251   7.733   0.108   6.566  0.8421 -0.1858 -1.5153
 1002MOL0     H35252   7.395   0.428   6.669 -1.9153  1.9114 -0.8313
 1002MOL0     H35253   7.165   0.465   6.612  0.1237  0.4447  0.2745
 1002MOL0     H35254   5.532  -0.139   6.028 -1.5681 -0.5410  0.1965
 1002MOL0     H35255   5.594  -0.042   5.809 -2.4341 -1.4046 -0.1407
 1002MOL0     H35256   5.875   0.216   5.545 -1.7666 -3.5674  1.2023
 1002MOL0     H35257   5.938   0.159   5.311 -0.4621 -0.8461 -1.5460
 1002MOL0     H35258   5.894   0.004   4.995 -2.2790 -0.4753  1.3264
 1002MOL0     H35259   5.972   0.078   5.132  2.3104 -1.0145 -0.9926
 1002MOL0     H35260   5.947   0.297   5.052  1.8318  0.0584 -0.0144
 1002MOL0     H35261   5.825   0.242   4.918  0.4631 -0.0336  0.0795
 1002MOL0     H35262   6.025   0.128   4.822 -0.6431 -0.5410  1.5285
 1002MOL0     H35263   6.126   0.179   4.957  1.8119  0.5138 -0.4405
 1002MOL0     H35264   5.976   0.351   4.764 -0.1155 -2.6686 -0.0360
 1002MOL0     H35265   6.084   0.420   4.884 -1.5612 -0.2733 -0.2986
 1002MOL0     H35266   6.328   0.312   4.555 -1.3497 -3.1013 -1.1907
 1002MOL0     H35267   5.525   0.132   5.214 -0.4054 -0.4939 -0.8672
 1002MOL0     H35268   5.359   0.230   5.345  0.8625  0.5075 -0.1772
 1002MOL0     H35269   5.368   0.143   5.502  3.2416 -0.8000  1.0290
 1002MOL0     H35270   5.400   0.315   5.492  2.2164  2.1706 -2.4099
 1003MOL0     O35271   1.929   2.376   3.495 -0.2107 -0.1997 -0.3440
 1003MOL0     C35272   1.859   2.422   3.399  0.5634 -0.2755  0.3469
 1003MOL0     O35273   1.859   2.375   3.267 -0.2640  0.7606 -0.2194
 1003MOL0     C35274   1.962   2.290   3.251  0.1625  0.0669 -0.4971
 1003MOL0     C35275   2.071   2.334   3.180  0.3091  0.4390  0.1840
 1003MOL0     C35276   2.186   2.250   3.163  0.4491 -0.1876  0.3812
 1003MOL0     C35277   2.178   2.116   3.201 -0.0687 -0.1230  0.6493
 1003MOL0     O35278   2.278   2.017   3.186 -0.3141 -0.6058 -0.6948
 1003MOL0     C35279   2.400   2.052   3.125  0.2066 -0.0042  0.6256
 1003MOL0     C35280   2.510   1.965   3.169  0.8720 -1.0158  0.0368
 1003MOL0     C35281   2.465   1.819   3.155 -0.4639 -0.2269  0.9852
 1003MOL0     C35282   2.585   1.729   3.126  0.1569  0.1236 -0.1116
 1003MOL0     C35283   2.556   1.578   3.096  0.8135  0.5408  0.2689
 1003MOL0     C35284   2.677   1.501   3.067 -1.2303  0.9576 -1.0416
 1003MOL0     C35285   2.758   1.467   3.193 -0.0910  1.2149 -0.3091
 1003MOL0     C35286   2.877   1.365   3.173 -0.8999  0.2869 -0.3076
 1003MOL0     N35287   2.986   1.418   3.094  0.3773  1.0358  0.5763
 1003MOL0     C35288   3.070   1.509   3.133  0.3557 -0.9014 -0.7884
 1003MOL0     C35289   3.162   1.514   3.038  0.5325 -0.5673  0.3392
 1003MOL0     C35290   3.285   1.598   3.042 -0.1106 -0.0147  0.3906
 1003MOL0     C35291   3.274   1.729   2.962 -0.6552 -0.3895 -0.6893
 1003MOL0     C35292   3.380   1.837   3.008  0.6880 -0.8001 -0.0084
 1003MOL0     C35293   3.527   1.789   3.027 -0.3528 -0.2559 -0.0060
 1003MOL0     O35294   3.554   1.720   3.146 -0.0639 -0.1275 -0.1073
 1003MOL0     C35295   3.686   1.690   3.178 -0.3722 -0.1839  0.1581
 1003MOL0     C35296   3.715   1.629   3.298  0.5033 -1.0731 -0.4015
 1003MOL0     C35297   3.845   1.586   3.324 -0.6137  0.4541 -0.4727
 1003MOL0     C35298   3.953   1.599   3.236  0.4065 -0.1311 -0.5847
 1003MOL0     C35299   4.085   1.539   3.257 -0.3659  0.3103 -0.2125
 1003MOL0     O35300   4.173   1.539   3.152 -0.5935  0.3313 -0.3452
 1003MOL0     C35301   4.308   1.497   3.176  0.0979 -0.6644  0.0976
 1003MOL0     C35302   4.403   1.580   3.111 -0.1499  0.7772  0.2132
 1003MOL0     C35303   4.537   1.550   3.124 -0.7509 -0.1375  0.3713
 1003MOL0     C35304   4.574   1.421   3.181  0.1195 -0.7613  0.6477
 1003MOL0     O35305   4.705   1.371   3.188  0.2759 -0.6500  0.6545
 1003MOL0     C35306   4.801   1.433   3.097 -0.3976  0.2079  0.0824
 1003MOL0     C35307   4.919   1.345   3.098  0.2136 -0.3881  0.8194
 1003MOL0     C35308   5.011   1.390   2.984 -0.0341  0.5449 -0.3108
 1003MOL0     C35309   5.134   1.297   2.968 -0.5766  0.5671  0.4123
 1003MOL0     C35310   5.249   1.355   2.880  0.1814 -0.6901  0.0167
 1003MOL0     C35311   5.345   1.438   2.969  0.0796 -0.3120 -0.7698
 1003MOL0     C35312   5.455   1.487   2.878  0.0344 -0.9190 -0.6273
 1003MOL0     C35313   5.542   1.594   2.927  0.0588 -0.1225  0.2147
 1003MOL0    Cl35314   5.619   1.549   3.080  0.2579 -0.1804  0.0651
 1003MOL0     C35315   4.483   1.356   3.259 -0.0822 -0.0312  0.5841
 1003MOL0     C35316   4.345   1.387   3.245 -0.1588  0.4714  0.1059
 1003MOL0     O35317   4.102   1.487   3.367 -0.3943 -0.2373 -0.3190
 1003MOL0     C35318   3.929   1.661   3.115  0.5217 -0.9470  0.1941
 1003MOL0     C35319   3.794   1.701   3.084  0.0804 -0.4726  0.7941
 1003MOL0     N35320   3.134   1.408   2.951 -0.0023 -0.3889  0.4170
 1003MOL0     N35321   3.024   1.358   2.977  0.1017  0.8150 -0.0135
 1003MOL0     C35322   2.059   2.075   3.263  0.7723 -0.6877  0.5981
 1003MOL0     C35323   1.952   2.162   3.296  0.3558 -0.1172  0.1974
 1003MOL0     C35324   1.790   2.556   3.416 -0.4732 -0.7164 -0.1686
 1003MOL0     C35325   1.797   2.643   3.301 -0.1224 -0.4697 -0.1033
 1003MOL0     C35326   1.734   2.761   3.293 -0.3604  0.3073  0.1751
 1003MOL0     C35327   1.656   2.798   3.398 -0.4974  0.3203 -0.7063
 1003MOL0     O35328   1.572   2.904   3.377  0.1303 -0.2949 -0.4144
 1003MOL0     C35329   1.477   2.938   3.481 -0.1721 -0.0428  0.3624
 1003MOL0     C35330   1.372   3.030   3.419  0.5215 -0.7171 -0.9351
 1003MOL0     C35331   1.243   3.048   3.506 -0.3323 -0.7521 -0.9917
 1003MOL0     C35332   1.258   3.158   3.619 -0.1788  0.5208 -0.6547
 1003MOL0     C35333   1.138   3.165   3.702  0.5804  0.1228  1.2723
 1003MOL0     C35334   1.034   3.172   3.765  0.7784 -0.3470 -0.7255
 1003MOL0     C35335   1.655   2.720   3.523  0.0761  0.9397 -0.2239
 1003MOL0     C35336   1.725   2.596   3.525 -0.0887 -0.4974  0.0405
 1003MOL0     C35337   1.727   2.510   3.654  0.6356  0.4847  0.7649
 1003MOL0     H35338   2.070   2.434   3.138 -1.3764  1.6072  2.7272
 1003MOL0     H35339   2.282   2.282   3.122  0.5410  0.8138  1.3407
 1003MOL0     H35340   2.389   2.042   3.016 -0.4077 -0.5344  0.7300
 1003MOL0     H35341   2.434   2.152   3.154  1.0715 -0.3273  0.7779
 1003MOL0     H35342   2.537   1.987   3.273 -0.2289  0.2020  0.0874
 1003MOL0     H35343   2.600   1.987   3.111  0.8695 -2.6722 -0.6281
 1003MOL0     H35344   2.388   1.809   3.079  0.2972 -0.4297  0.2272
 1003MOL0     H35345   2.423   1.785   3.251  1.9836 -1.0291  1.8631
 1003MOL0     H35346   2.657   1.778   3.060 -0.5826 -0.7933 -1.6565
 1003MOL0     H35347   2.629   1.712   3.225  3.1831 -2.3115 -1.7004
 1003MOL0     H35348   2.512   1.538   3.187  1.3042  1.1501  0.7792
 1003MOL0     H35349   2.485   1.569   3.012 -2.9434  0.9461  3.1237
 1003MOL0     H35350   2.641   1.410   3.018 -1.2560  0.6567 -0.4654
 1003MOL0     H35351   2.745   1.546   2.994 -1.6620  0.4908 -1.7446
 1003MOL0     H35352   2.683   1.428   3.263 -1.6584  0.0018 -2.5672
 1003MOL0     H35353   2.798   1.561   3.231 -2.0975  2.1611 -0.4052
 1003MOL0     H35354   2.920   1.320   3.263 -1.8162 -0.7261 -0.3508
 1003MOL0     H35355   2.828   1.284   3.118 -0.8581  0.9953 -1.4184
 1003MOL0     H35356   3.063   1.573   3.220  1.9128 -2.1017  0.2642
 1003MOL0     H35357   3.303   1.618   3.147  0.7304 -0.1832  0.2832
 1003MOL0     H35358   3.370   1.538   3.007 -0.4327  0.4842 -1.3814
 1003MOL0     H35359   3.304   1.714   2.858  1.0954  0.5260 -0.3507
 1003MOL0     H35360   3.170   1.765   2.959 -0.6470  0.0065  1.7505
 1003MOL0     H35361   3.349   1.894   3.096  1.7099  0.1303 -0.2342
 1003MOL0     H35362   3.378   1.913   2.930  2.5623  0.5579  1.1815
 1003MOL0     H35363   3.584   1.882   3.038 -0.1583 -0.1115 -1.9983
 1003MOL0     H35364   3.559   1.727   2.943  2.9384  1.0858  0.0757
 1003MOL0     H35365   3.635   1.614   3.370  1.4825 -2.7894  0.3935
 1003MOL0     H35366   3.865   1.533   3.416 -1.4644  0.8509 -0.0445
 1003MOL0     H35367   4.377   1.663   3.047 -1.0948 -0.3199 -0.8883
 1003MOL0     H35368   4.605   1.617   3.072  2.6927 -2.3140  1.7390
 1003MOL0     H35369   4.766   1.446   2.994  2.6556  1.1272 -0.9436
 1003MOL0     H35370   4.834   1.528   3.139  0.4903 -0.5840  1.2194
 1003MOL0     H35371   4.961   1.350   3.199  2.6849 -0.0373 -0.1478
 1003MOL0     H35372   4.881   1.247   3.068 -1.1312  0.6961 -1.2823
 1003MOL0     H35373   4.955   1.394   2.890  1.1472  0.0046 -1.0649
 1003MOL0     H35374   5.042   1.489   3.019 -1.0011  0.9684 -0.6426
 1003MOL0     H35375   5.109   1.198   2.930  0.2789 -0.6464  2.7835
 1003MOL0     H35376   5.177   1.279   3.067 -0.0247 -1.8116 -0.2075
 1003MOL0     H35377   5.206   1.428   2.810 -0.1387  0.1913  1.0977
 1003MOL0     H35378   5.310   1.278   2.833 -1.4516 -2.0631  0.0401
 1003MOL0     H35379   5.287   1.514   3.021 -0.5576 -1.4434  0.2070
 1003MOL0     H35380   5.392   1.384   3.051  2.1725 -1.1152 -2.3983
 1003MOL0     H35381   5.408   1.520   2.785 -1.3999 -0.2424  0.3052
 1003MOL0     H35382   5.521   1.405   2.848  1.0117  0.0487 -1.2088
 1003MOL0     H35383   5.629   1.615   2.865 -0.3166  2.2169  0.3640
 1003MOL0     H35384   5.489   1.687   2.952  2.9779  2.1168 -1.2792
 1003MOL0     H35385   4.499   1.273   3.328  2.7213  0.2625  0.3861
 1003MOL0     H35386   4.275   1.319   3.291  2.7376 -2.1402  0.9844
 1003MOL0     H35387   4.006   1.678   3.041 -1.3778  1.3344 -1.4390
 1003MOL0     H35388   3.786   1.729   2.979  2.3941  1.7574  1.0886
 1003MOL0     H35389   2.057   1.971   3.292  3.6028 -0.4621  2.0136
 1003MOL0     H35390   1.865   2.124   3.348 -0.1295  2.7936  1.6597
 1003MOL0     H35391   1.870   2.611   3.228 -0.0947 -0.2158 -0.1864
 1003MOL0     H35392   1.740   2.822   3.203  0.5230 -0.5606 -0.3645
 1003MOL0     H35393   1.501   2.993   3.572 -1.4023  1.8340 -0.3928
 1003MOL0     H35394   1.430   2.847   3.522  1.7604 -0.7973  1.0338
 1003MOL0     H35395   1.345   2.995   3.319  2.5644 -2.8469 -0.8483
 1003MOL0     H35396   1.411   3.132   3.422  0.2616 -0.6137 -1.0359
 1003MOL0     H35397   1.219   2.949   3.547 -2.0693  0.2630  0.6048
 1003MOL0     H35398   1.156   3.077   3.447 -2.3905  0.0819  2.2161
 1003MOL0     H35399   1.330   3.142   3.700 -0.0027  0.1566 -0.8838
 1003MOL0     H35400   1.265   3.258   3.574  1.3180  0.4532 -0.6178
 1003MOL0     H35401   0.946   3.179   3.826  0.2556  0.3087 -1.5371
 1003MOL0     H35402   1.600   2.746   3.613 -0.8566 -2.8247  0.4396
 1003MOL0     H35403   1.698   2.409   3.627  1.0090  0.3034  1.0272
 1003MOL0     H35404   1.830   2.506   3.693  0.7479 -0.6269  0.3871
 1003MOL0     H35405   1.658   2.544   3.732 -0.2010  0.2658  0.1290
 1004MOL0     O35406   9.581   6.891   8.451  0.0382 -1.3088 -0.4472
 1004MOL0     C35407   9.592   6.860   8.331  0.3757  0.2011 -0.0631
 1004MOL0     O35408   9.710   6.861   8.252  0.7266 -0.3797 -0.2436
 1004MOL0     C35409   9.833   6.846   8.323  1.6856  0.1683 -0.7274
 1004MOL0     C35410   9.953   6.857   8.246 -0.0089 -0.0889 -0.9329
 1004MOL0     C35411  10.076   6.835   8.302 -0.3616 -0.1621  0.4162
 1004MOL0     C35412  10.084   6.810   8.433  0.1516  0.0645 -0.0258
 1004MOL0     O35413  10.204   6.788   8.487 -0.5832 -0.5162  0.5761
 1004MOL0     C35414  10.235   6.667   8.549  0.0903 -0.3154 -0.6986
 1004MOL0     C35415  10.320   6.586   8.441  0.5740  1.0375  0.3663
 1004MOL0     C35416  10.450   6.652   8.399 -0.5591  0.3671 -0.7428
 1004MOL0     C35417  10.547   6.554   8.337 -0.4290 -0.5972  0.6980
 1004MOL0     C35418  10.663   6.622   8.260  0.4683  0.4144 -0.2138
 1004MOL0     C35419  10.792   6.616   8.345  0.0738  1.9176 -1.2620
 1004MOL0     C35420  10.910   6.691   8.282  0.4524 -0.0126 -0.6177
 1004MOL0     C35421  10.940   6.627   8.142 -0.3192  0.6294  0.4378
 1004MOL0     N35422  11.073   6.674   8.091  1.1961  0.3940 -0.5445
 1004MOL0     C35423  11.107   6.779   8.015 -0.4213  0.2581  0.3123
 1004MOL0     C35424  11.231   6.754   7.962 -0.2452 -0.3049  1.0527
 1004MOL0     C35425  11.307   6.862   7.884 -0.0904  0.1808 -0.5412
 1004MOL0     C35426  11.237   6.921   7.767  0.2402 -0.8497 -0.5304
 1004MOL0     C35427  11.335   7.032   7.702  0.0848 -0.2767 -0.3887
 1004MOL0     C35428  11.260   7.107   7.588  0.5307  0.0184 -0.0613
 1004MOL0     O35429  11.357   7.203   7.538 -0.1072 -0.0700 -0.2689
 1004MOL0     C35430  11.328   7.290   7.443  0.4580  0.5063 -0.1396
 1004MOL0     C35431  11.197   7.317   7.379 -0.5574  0.3991 -0.1351
 1004MOL0     C35432  11.188   7.380   7.257 -0.7601 -0.3047  0.1204
 1004MOL0     C35433  11.302   7.434   7.191  0.4236 -0.1591  1.3482
 1004MOL0     C35434  11.293   7.512   7.068 -0.6897 -0.1488  0.2156
 1004MOL0     O35435  11.405   7.547   7.008 -0.3958  0.1055  0.2874
 1004MOL0     C35436  11.411   7.643   6.908 -0.5895  0.0295  0.0198
 1004MOL0     C35437  11.501   7.612   6.806 -0.1118  0.0652 -0.2084
 1004MOL0     C35438  11.517   7.702   6.700  0.2036  0.1679 -0.1694
 1004MOL0     C35439  11.448   7.826   6.699  0.5071 -0.0812  0.6737
 1004MOL0     O35440  11.489   7.910   6.593  0.1915  0.1566  0.1621
 1004MOL0     C35441  11.491   8.059   6.604  0.3088 -0.3388 -0.5117
 1004MOL0     C35442  11.389   8.130   6.515  0.2390 -0.0128 -0.4309
 1004MOL0     C35443  11.413   8.067   6.375  0.7371  0.3377  0.7226
 1004MOL0     C35444  11.360   8.170   6.267 -1.1491  0.9008 -0.0396
 1004MOL0     C35445  11.207   8.196   6.263 -0.3999 -0.4362 -0.2315
 1004MOL0     C35446  11.164   8.301   6.159 -0.4526 -0.7035  0.2826
 1004MOL0     C35447  11.218   8.290   6.016  1.1081  0.3406 -1.3502
 1004MOL0     C35448  11.187   8.157   5.943 -0.5819 -0.5686 -0.0043
 1004MOL0    Cl35449  11.238   8.195   5.767  0.6265  0.1712  0.0322
 1004MOL0     C35450  11.352   7.853   6.799  0.3211  0.1453  0.3740
 1004MOL0     C35451  11.341   7.765   6.905  0.5511 -0.2321  0.2682
 1004MOL0     O35452  11.184   7.535   7.027  0.2748 -0.4746  0.4787
 1004MOL0     C35453  11.424   7.405   7.255 -0.2306 -0.3854  1.1660
 1004MOL0     C35454  11.442   7.329   7.376 -1.4375  0.1825 -0.9308
 1004MOL0     N35455  11.279   6.643   8.014  0.2883  0.6336  0.3421
 1004MOL0     N35456  11.183   6.587   8.094 -0.2808  0.7529 -0.5084
 1004MOL0     C35457   9.976   6.817   8.518  0.1348  0.7798 -0.9378
 1004MOL0     C35458   9.845   6.809   8.465 -0.0065 -0.3519 -0.5330
 1004MOL0     C35459   9.476   6.793   8.254  0.7812 -0.3628 -0.2362
 1004MOL0     C35460   9.352   6.780   8.329 -0.7024 -0.8942  1.1741
 1004MOL0     C35461   9.246   6.707   8.286  0.9197  0.2534 -0.4156
 1004MOL0     C35462   9.256   6.636   8.168  0.7616 -0.2275  1.0570
 1004MOL0     O35463   9.156   6.568   8.104  0.8242 -0.2329  0.1691
 1004MOL0     C35464   9.072   6.656   8.027  0.0208  0.0227  0.3987
 1004MOL0     C35465   8.932   6.635   8.074  0.1919 -0.2976 -0.1099
 1004MOL0     C35466   8.837   6.745   8.028  0.0587 -0.4519 -0.5837
 1004MOL0     C35467   8.688   6.725   8.056  0.0934  0.2586  0.1059
 1004MOL0     C35468   8.637   6.602   7.993  0.4451  1.1636  0.3441
 1004MOL0     C35469   8.581   6.494   7.965  0.5196 -0.3021 -0.2894
 1004MOL0     C35470   9.377   6.641   8.088 -0.2072 -0.2516  0.0921
 1004MOL0     C35471   9.486   6.723   8.126  0.2228  0.3001  0.5858
 1004MOL0     C35472   9.605   6.720   8.034 -0.0446 -0.2853 -0.3176
 1004MOL0     H35473   9.949   6.874   8.139 -2.1594 -0.6169 -0.9787
 1004MOL0     H35474  10.162   6.817   8.239 -1.8347 -3.5706 -0.8426
 1004MOL0     H35475  10.293   6.676   8.641 -2.0264  0.4147  0.6244
 1004MOL0     H35476  10.142   6.614   8.574 -0.5078  1.0109 -0.0201
 1004MOL0     H35477  10.249   6.572   8.359  0.8645  1.6563  0.0123
 1004MOL0     H35478  10.347   6.489   8.485 -0.7860 -0.1976 -1.3717
 1004MOL0     H35479  10.496   6.699   8.487 -0.5769  0.2747 -0.6841
 1004MOL0     H35480  10.434   6.725   8.318  0.3589  2.9804  1.2710
 1004MOL0     H35481  10.576   6.475   8.407 -1.4722 -2.8510 -1.2713
 1004MOL0     H35482  10.483   6.498   8.268 -2.5780  0.5358  1.6693
 1004MOL0     H35483  10.676   6.575   8.162 -0.1532 -2.0270  0.7809
 1004MOL0     H35484  10.645   6.728   8.241  1.0817  0.8058  1.2900
 1004MOL0     H35485  10.787   6.668   8.442 -0.4661  2.0575 -1.3621
 1004MOL0     H35486  10.811   6.511   8.371 -2.9226  1.0563 -2.1226
 1004MOL0     H35487  10.990   6.663   8.350 -1.3960 -2.2614  0.8019
 1004MOL0     H35488  10.901   6.799   8.270 -0.9681  0.0677  0.8168
 1004MOL0     H35489  10.940   6.518   8.144  3.2587  0.5059 -0.2479
 1004MOL0     H35490  10.871   6.656   8.062  1.0071  0.1054 -0.9389
 1004MOL0     H35491  11.049   6.869   8.001  2.4130  2.1193 -0.4277
 1004MOL0     H35492  11.329   6.946   7.951 -1.3825  1.8432 -2.0778
 1004MOL0     H35493  11.395   6.823   7.832  1.8127  1.5920  1.4385
 1004MOL0     H35494  11.208   6.842   7.697  0.4938 -2.4953  1.1460
 1004MOL0     H35495  11.149   6.981   7.793  0.7633 -0.2034 -0.2405
 1004MOL0     H35496  11.425   6.983   7.665 -0.7765 -0.3042 -2.6485
 1004MOL0     H35497  11.358   7.100   7.784  2.4197 -2.7222  1.1431
 1004MOL0     H35498  11.169   7.156   7.624  0.6573 -0.4376  0.9234
 1004MOL0     H35499  11.247   7.043   7.501  2.2700 -0.0229 -0.3262
 1004MOL0     H35500  11.111   7.272   7.428  0.5706  0.0096  1.5758
 1004MOL0     H35501  11.097   7.395   7.200 -2.4363 -5.4335  0.9218
 1004MOL0     H35502  11.568   7.526   6.808  0.2544  0.3423  2.3328
 1004MOL0     H35503  11.584   7.688   6.616 -0.8473  0.5103 -1.0876
 1004MOL0     H35504  11.486   8.101   6.705 -4.5516 -0.0003 -0.6463
 1004MOL0     H35505  11.589   8.081   6.563  0.1551 -0.5653 -1.0106
 1004MOL0     H35506  11.288   8.099   6.544  1.0547 -0.6102  1.9708
 1004MOL0     H35507  11.407   8.238   6.518  2.5844 -0.3735  0.4888
 1004MOL0     H35508  11.515   8.030   6.369  0.6172 -0.6946  3.6653
 1004MOL0     H35509  11.353   7.976   6.360 -0.0983  0.8200  1.0613
 1004MOL0     H35510  11.403   8.129   6.175  0.9741 -0.6993  1.5496
 1004MOL0     H35511  11.408   8.266   6.289 -1.7513  1.0506  0.6616
 1004MOL0     H35512  11.180   8.226   6.364  0.4758  0.6147 -0.2874
 1004MOL0     H35513  11.161   8.098   6.249 -1.2739 -0.1860  0.7830
 1004MOL0     H35514  11.055   8.310   6.157 -0.3726  0.3448 -0.0651
 1004MOL0     H35515  11.195   8.401   6.192 -0.4173  0.0086 -1.7720
 1004MOL0     H35516  11.326   8.306   6.013  1.3511 -0.8869 -0.2295
 1004MOL0     H35517  11.168   8.369   5.958  0.8070  1.3994  0.2953
 1004MOL0     H35518  11.245   8.077   5.989 -0.3289 -2.4938 -3.3748
 1004MOL0     H35519  11.083   8.125   5.930  0.3445 -3.0183 -2.2011
 1004MOL0     H35520  11.293   7.943   6.806  0.3054  0.2283 -0.6435
 1004MOL0     H35521  11.273   7.775   6.988  1.0360 -3.0638  1.1255
 1004MOL0     H35522  11.520   7.430   7.211 -0.5401 -2.1789 -0.7402
 1004MOL0     H35523  11.536   7.315   7.428 -0.5095 -0.8197 -2.7821
 1004MOL0     H35524   9.999   6.811   8.624  0.4664 -1.4937 -1.0725
 1004MOL0     H35525   9.765   6.784   8.533 -0.4207  0.6085 -0.6579
 1004MOL0     H35526   9.346   6.827   8.426  0.2423  0.9617  0.3833
 1004MOL0     H35527   9.158   6.688   8.348  2.3157 -0.6611  1.3653
 1004MOL0     H35528   9.073   6.633   7.920  0.1752 -0.8865  0.5844
 1004MOL0     H35529   9.113   6.757   8.041  3.8068 -1.1218 -1.0044
 1004MOL0     H35530   8.929   6.639   8.184  2.0444 -0.5468 -0.0193
 1004MOL0     H35531   8.898   6.537   8.038 -2.4816  1.7317 -3.6671
 1004MOL0     H35532   8.849   6.767   7.921  0.3217  1.1364 -0.2523
 1004MOL0     H35533   8.879   6.837   8.071  3.7111 -0.5120 -3.4334
 1004MOL0     H35534   8.665   6.701   8.160  2.7165 -1.2540  0.4370
 1004MOL0     H35535   8.629   6.811   8.023 -0.2378  0.0079  0.0359
 1004MOL0     H35536   8.534   6.399   7.950 -0.0085 -0.0947  0.0041
 1004MOL0     H35537   9.372   6.591   7.992  2.9778 -0.7387  0.0964
 1004MOL0     H35538   9.571   6.673   7.941 -1.8345 -0.7514  0.5373
 1004MOL0     H35539   9.645   6.819   8.008  0.8768 -0.7515 -0.7088
 1004MOL0     H35540   9.683   6.656   8.076  0.7726  0.3270 -0.8705
 1005MOL0     O35541   8.224   9.069   1.408 -0.0044 -0.3932  0.1531
 1005MOL0     C35542   8.188   8.949   1.421 -0.7641 -0.1808 -0.9239
 1005MOL0     O35543   8.277   8.843   1.441  0.2557  0.6558  0.0357
 1005MOL0     C35544   8.415   8.865   1.413  0.0496 -0.1223  0.5753
 1005MOL0     C35545   8.474   8.964   1.318 -0.5834 -0.8681 -0.7679
 1005MOL0     C35546   8.613   8.962   1.285 -0.4342 -0.0933  0.1178
 1005MOL0     C35547   8.703   8.873   1.345  1.1111 -1.0444 -0.1471
 1005MOL0     O35548   8.834   8.863   1.300 -0.1048 -0.0269 -1.1550
 1005MOL0     C35549   8.928   8.809   1.392  0.6699  0.1061 -0.1686
 1005MOL0     C35550   9.069   8.861   1.360  0.5888  0.0242  0.1090
 1005MOL0     C35551   9.169   8.778   1.445 -0.1723  0.4353  0.7316
 1005MOL0     C35552   9.307   8.842   1.457 -0.2836  0.9337 -0.0676
 1005MOL0     C35553   9.391   8.795   1.585 -0.3002  0.1288  0.2102
 1005MOL0     C35554   9.543   8.849   1.601  0.6174  0.7539  0.5705
 1005MOL0     C35555   9.612   8.753   1.702 -1.1771  0.1000  1.0082
 1005MOL0     C35556   9.765   8.790   1.709  0.0428 -0.3251  0.4051
 1005MOL0     N35557   9.850   8.687   1.756 -0.3542  1.0407 -0.3417
 1005MOL0     C35558   9.839   8.547   1.750 -0.7955  0.5874 -0.4562
 1005MOL0     C35559   9.947   8.502   1.813  1.3093 -0.8107  0.2050
 1005MOL0     C35560   9.964   8.353   1.818  0.3336 -0.2893 -0.0565
 1005MOL0     C35561  10.112   8.333   1.808 -0.7671  0.6709  0.0380
 1005MOL0     C35562  10.143   8.187   1.771  0.3716  0.6234  0.7553
 1005MOL0     C35563  10.293   8.157   1.738  0.3138 -0.0919  0.2633
 1005MOL0     O35564  10.336   8.224   1.624  0.1909  0.4430  0.8228
 1005MOL0     C35565  10.470   8.198   1.598 -0.0691  0.2928 -0.0203
 1005MOL0     C35566  10.557   8.301   1.617 -0.2008 -0.8260 -0.4848
 1005MOL0     C35567  10.696   8.285   1.598  0.0848  0.2813  0.5498
 1005MOL0     C35568  10.751   8.165   1.553  0.8155  1.2202 -0.1382
 1005MOL0     C35569  10.892   8.166   1.530  0.1918  0.6901  0.2474
 1005MOL0     O35570  10.936   8.067   1.450 -0.2706 -0.6948 -0.5054
 1005MOL0     C35571  11.069   8.036   1.442  0.5260  0.3516  0.3794
 1005MOL0     C35572  11.168   8.066   1.538 -0.5903 -0.7631  0.8123
 1005MOL0     C35573  11.304   8.045   1.507  0.2011 -0.4028  0.5517
 1005MOL0     C35574  11.339   7.996   1.381 -0.2991 -1.1228 -0.2346
 1005MOL0     O35575  11.474   7.990   1.351  0.3091 -0.6998 -0.2963
 1005MOL0     C35576  11.549   7.903   1.437  0.2255  0.2377  0.4655
 1005MOL0     C35577  11.685   7.869   1.371  0.0578  0.2414 -0.0855
 1005MOL0     C35578  11.675   7.789   1.237  0.3287 -0.8754  0.0348
 1005MOL0     C35579  11.816   7.762   1.175  0.3210  0.3471  0.6281
 1005MOL0     C35580  11.913   7.689   1.273  0.1012 -0.1698 -0.3899
 1005MOL0     C35581  12.038   7.640   1.198  0.6918  0.2556 -0.1980
 1005MOL0     C35582  12.136   7.600   1.300  0.0053  0.2683 -0.1833
 1005MOL0     C35583  12.250   7.525   1.233  0.0863 -0.9342  0.2119
 1005MOL0    Cl35584  12.355   7.440   1.355  0.1755 -0.6049 -0.5999
 1005MOL0     C35585  11.246   7.977   1.286 -0.1057 -0.3061  0.1429
 1005MOL0     C35586  11.105   7.978   1.319  0.3412 -0.3115  0.0303
 1005MOL0     O35587  10.958   8.244   1.585  0.1081 -0.5620  0.2863
 1005MOL0     C35588  10.659   8.056   1.543 -0.0208  0.2153  0.7518
 1005MOL0     C35589  10.521   8.071   1.552  0.3883 -0.1852 -0.3285
 1005MOL0     N35590  10.009   8.608   1.871  0.3347 -0.0765 -0.5353
 1005MOL0     N35591   9.947   8.713   1.847 -0.1277  0.1704 -0.1514
 1005MOL0     C35592   8.643   8.777   1.421 -0.2448  0.4549  0.3512
 1005MOL0     C35593   8.508   8.768   1.448  0.2818 -0.7770 -0.1860
 1005MOL0     C35594   8.039   8.908   1.411  0.1768 -1.0009 -0.0677
 1005MOL0     C35595   7.954   9.003   1.341 -0.0970  1.5707  0.0978
 1005MOL0     C35596   7.819   8.973   1.318 -0.0326 -0.5249 -0.1796
 1005MOL0     C35597   7.758   8.857   1.375 -0.4721 -0.0018  0.0562
 1005MOL0     O35598   7.627   8.824   1.354  0.4489  1.1951 -0.1857
 1005MOL0     C35599   7.543   8.923   1.282  0.3870  0.0211 -0.1344
 1005MOL0     C35600   7.386   8.905   1.288  0.3320 -0.2088 -0.6476
 1005MOL0     C35601   7.348   8.807   1.400  0.3964  0.4777 -0.2377
 1005MOL0     C35602   7.196   8.788   1.439 -0.8188 -0.5775 -1.1137
 1005MOL0     C35603   7.129   8.742   1.315 -0.7046  0.2118 -0.0991
 1005MOL0     C35604   7.087   8.696   1.208  0.1072  0.6093  0.0587
 1005MOL0     C35605   7.842   8.774   1.442  0.6229  0.4262  0.3400
 1005MOL0     C35606   7.977   8.799   1.465  0.3727  1.1975 -0.8209
 1005MOL0     C35607   8.038   8.692   1.563  0.9709  0.6204  0.3427
 1005MOL0     H35608   8.403   9.026   1.265 -1.3923 -1.4283 -0.3755
 1005MOL0     H35609   8.658   9.034   1.217  0.7758 -1.6687 -0.8026
 1005MOL0     H35610   8.909   8.825   1.498 -3.8722 -2.0833 -0.4139
 1005MOL0     H35611   8.922   8.701   1.375 -0.5394  0.2151 -0.5047
 1005MOL0     H35612   9.066   8.967   1.383  2.0366  0.1403 -0.1110
 1005MOL0     H35613   9.091   8.842   1.254  2.4853 -0.9559  0.6291
 1005MOL0     H35614   9.174   8.678   1.401 -1.7523 -0.9299  3.3899
 1005MOL0     H35615   9.120   8.766   1.542 -2.8551  2.1385 -0.2963
 1005MOL0     H35616   9.369   8.821   1.369 -1.1100 -0.9282 -0.2595
 1005MOL0     H35617   9.288   8.949   1.471  1.2917  1.0287  1.6559
 1005MOL0     H35618   9.331   8.831   1.669  0.3797 -0.7444  1.0864
 1005MOL0     H35619   9.387   8.686   1.584  0.6797  0.0844  0.3215
 1005MOL0     H35620   9.594   8.847   1.504  1.2118 -1.4466  0.8692
 1005MOL0     H35621   9.538   8.952   1.636 -3.3441  1.2574 -1.0468
 1005MOL0     H35622   9.612   8.653   1.658  1.2421  0.9100 -1.0463
 1005MOL0     H35623   9.565   8.753   1.801 -1.0401  1.7101  1.1075
 1005MOL0     H35624   9.798   8.796   1.605  2.0098 -0.0724  1.0133
 1005MOL0     H35625   9.789   8.876   1.772  4.3763 -1.3180  0.4438
 1005MOL0     H35626   9.775   8.479   1.695  1.4589 -1.7753 -0.3580
 1005MOL0     H35627   9.929   8.313   1.914  4.3685 -0.5629  1.5102
 1005MOL0     H35628   9.899   8.308   1.742  0.1927 -0.7818  0.3473
 1005MOL0     H35629  10.153   8.384   1.720  0.5756  1.7618  1.2449
 1005MOL0     H35630  10.171   8.364   1.895  1.4949  0.1319 -1.2259
 1005MOL0     H35631  10.078   8.157   1.688  1.4792 -1.0647  0.4487
 1005MOL0     H35632  10.121   8.117   1.852  1.1984 -3.7010 -2.3788
 1005MOL0     H35633  10.311   8.052   1.717  0.0814  0.2118 -1.6245
 1005MOL0     H35634  10.350   8.196   1.823 -0.2352  1.3474  0.0110
 1005MOL0     H35635  10.518   8.392   1.661  2.3971  0.4966 -0.7005
 1005MOL0     H35636  10.763   8.366   1.624 -0.2141 -0.1256  2.8401
 1005MOL0     H35637  11.132   8.095   1.636 -1.8803 -0.0709  0.1666
 1005MOL0     H35638  11.372   8.080   1.584  1.2062  0.4387 -0.6798
 1005MOL0     H35639  11.559   7.952   1.534 -3.9696 -0.0817  1.2262
 1005MOL0     H35640  11.494   7.810   1.453 -0.1864  0.4686  0.4132
 1005MOL0     H35641  11.741   7.962   1.357 -2.0227  1.7677  1.2068
 1005MOL0     H35642  11.732   7.811   1.452 -2.6249 -2.4076 -0.2316
 1005MOL0     H35643  11.621   7.699   1.267  1.1232 -1.2608  0.3342
 1005MOL0     H35644  11.609   7.851   1.175 -1.5053 -1.3415  1.4304
 1005MOL0     H35645  11.858   7.855   1.136 -3.5022  1.8420 -0.4067
 1005MOL0     H35646  11.801   7.709   1.081  0.2695  0.1977  0.7185
 1005MOL0     H35647  11.870   7.601   1.323 -0.2267 -1.6183 -3.0551
 1005MOL0     H35648  11.954   7.755   1.350  3.3607 -1.5885 -0.7544
 1005MOL0     H35649  12.029   7.560   1.124 -1.8910 -1.7002  2.0466
 1005MOL0     H35650  12.075   7.730   1.147 -0.6802  2.0992  1.8336
 1005MOL0     H35651  12.077   7.536   1.367 -3.6648  0.8580 -2.5783
 1005MOL0     H35652  12.182   7.684   1.353  1.9634  0.1419 -1.5563
 1005MOL0     H35653  12.214   7.450   1.162  1.4468  1.6249 -3.4561
 1005MOL0     H35654  12.306   7.593   1.168 -0.6256  0.1290  0.6733
 1005MOL0     H35655  11.266   7.937   1.187 -3.8648 -0.9039 -0.5301
 1005MOL0     H35656  11.026   7.958   1.247  0.6369  1.4397 -0.8544
 1005MOL0     H35657  10.697   7.960   1.510  1.7204  1.2536 -0.4423
 1005MOL0     H35658  10.454   7.988   1.531 -1.3305  0.9103  0.5914
 1005MOL0     H35659   8.709   8.698   1.456  0.9595  0.9737 -0.6910
 1005MOL0     H35660   8.472   8.683   1.506  2.9588  0.2547  3.3287
 1005MOL0     H35661   7.993   9.092   1.294  3.3050  0.0758 -0.1544
 1005MOL0     H35662   7.766   9.058   1.275 -0.5526  2.0367  4.8083
 1005MOL0     H35663   7.582   8.906   1.181 -1.7186 -3.5137 -0.5207
 1005MOL0     H35664   7.553   9.028   1.312  1.8254 -0.3947  0.9998
 1005MOL0     H35665   7.344   8.875   1.192  0.3135  0.9752 -1.0234
 1005MOL0     H35666   7.356   9.008   1.311  2.4521  0.3845 -0.3934
 1005MOL0     H35667   7.392   8.851   1.490  1.7592 -0.2292 -0.5263
 1005MOL0     H35668   7.400   8.712   1.383  3.7347  2.1099 -0.0189
 1005MOL0     H35669   7.185   8.720   1.524 -1.8427 -0.6691 -1.3023
 1005MOL0     H35670   7.154   8.879   1.482  2.8508 -0.0740  1.8953
 1005MOL0     H35671   7.046   8.654   1.118  1.2476  2.0342 -1.1747
 1005MOL0     H35672   7.802   8.679   1.476  1.5084  0.5039  1.6621
 1005MOL0     H35673   8.067   8.744   1.655  1.3616  1.5200 -0.2754
 1005MOL0     H35674   7.977   8.605   1.591 -0.6136  0.7131 -2.4804
 1005MOL0     H35675   8.127   8.639   1.528  0.9168 -0.3450  1.5819
 1006MOL0     O35676   9.746   8.754   3.373  0.3672 -0.0801 -0.6323
 1006MOL0     C35677   9.784   8.869   3.342  0.2653  0.1947  0.3133
 1006MOL0     O35678   9.721   8.950   3.247 -0.5082 -0.8038  0.0760
 1006MOL0     C35679   9.597   8.913   3.208  0.5574  0.6366 -0.3951
 1006MOL0     C35680   9.480   8.982   3.247  0.3397  0.5332 -0.9371
 1006MOL0     C35681   9.355   8.928   3.205  1.0861 -0.2560 -0.5851
 1006MOL0     C35682   9.345   8.854   3.081  1.0356  0.0699 -0.2783
 1006MOL0     O35683   9.232   8.806   3.018  0.1854  0.5613 -0.2642
 1006MOL0     C35684   9.104   8.850   3.068 -0.2766 -0.3378 -0.2269
 1006MOL0     C35685   8.993   8.822   2.967 -0.5212  1.0820  0.8524
 1006MOL0     C35686   8.848   8.835   3.018  0.3883  0.1624 -0.7272
 1006MOL0     C35687   8.736   8.812   2.916  0.4120 -0.4742 -0.8953
 1006MOL0     C35688   8.599   8.840   2.986  0.0480 -0.3855  0.1169
 1006MOL0     C35689   8.558   8.763   3.103  0.2322 -0.2479 -0.4307
 1006MOL0     C35690   8.434   8.829   3.163  0.9943  0.6148 -0.1138
 1006MOL0     C35691   8.352   8.721   3.227 -0.1535  0.6067  0.3122
 1006MOL0     N35692   8.217   8.762   3.261  0.3138  0.3072 -0.3507
 1006MOL0     C35693   8.179   8.858   3.354  0.1722  0.8912  0.2868
 1006MOL0     C35694   8.045   8.842   3.368  0.0352  0.3264  0.1354
 1006MOL0     C35695   7.957   8.943   3.440  0.0121  1.3158  0.3768
 1006MOL0     C35696   7.938   9.075   3.361 -0.3752  0.1587  0.0758
 1006MOL0     C35697   7.878   9.182   3.454 -0.4756 -1.1269 -0.1131
 1006MOL0     C35698   7.756   9.138   3.542  0.2968 -0.4768  0.7441
 1006MOL0     O35699   7.718   9.261   3.604 -0.5793 -0.1911  0.0571
 1006MOL0     C35700   7.627   9.261   3.705  0.3644  0.8038  0.7996
 1006MOL0     C35701   7.571   9.389   3.724  1.0319 -0.3723 -0.9144
 1006MOL0     C35702   7.476   9.415   3.827  0.6734 -0.9683  0.2428
 1006MOL0     C35703   7.461   9.313   3.927 -0.3917  0.1185  0.2180
 1006MOL0     C35704   7.380   9.333   4.049 -0.2819  0.2379 -0.0926
 1006MOL0     O35705   7.332   9.457   4.064 -0.3295 -0.3127  0.3505
 1006MOL0     C35706   7.253   9.468   4.173  0.8121  0.2678  0.6280
 1006MOL0     C35707   7.115   9.484   4.152 -0.8473  0.4218  0.0232
 1006MOL0     C35708   7.032   9.495   4.258 -0.1779 -0.2704  0.5955
 1006MOL0     C35709   7.078   9.499   4.387  0.3650 -1.1879 -0.2226
 1006MOL0     O35710   7.010   9.518   4.507 -0.4480  0.4408  0.1923
 1006MOL0     C35711   6.874   9.508   4.512 -0.3666  0.4422 -0.6876
 1006MOL0     C35712   6.825   9.482   4.656 -0.6215 -0.5353 -0.2336
 1006MOL0     C35713   6.900   9.554   4.770  0.3229  0.0164 -0.7811
 1006MOL0     C35714   6.927   9.699   4.731  0.7140 -1.0354  0.6657
 1006MOL0     C35715   6.997   9.780   4.835 -0.7322  0.2601 -0.0203
 1006MOL0     C35716   7.150   9.759   4.817  0.9673 -1.3097  0.1535
 1006MOL0     C35717   7.203   9.860   4.718 -0.0900 -0.3382  0.7511
 1006MOL0     C35718   7.349   9.854   4.703  0.1090  0.4705 -0.6391
 1006MOL0    Cl35719   7.389   9.997   4.611  0.4204 -0.1386 -0.4589
 1006MOL0     C35720   7.216   9.485   4.413  0.1748 -0.0668  0.4443
 1006MOL0     C35721   7.303   9.471   4.304  0.3809 -0.2095  0.1941
 1006MOL0     O35722   7.384   9.248   4.139  0.1512  0.0086  0.2339
 1006MOL0     C35723   7.516   9.189   3.908  0.3196 -0.8367  0.6961
 1006MOL0     C35724   7.602   9.161   3.800  0.6437 -0.7350  0.3637
 1006MOL0     N35725   8.000   8.730   3.293 -0.4332  0.7440 -0.2771
 1006MOL0     N35726   8.108   8.688   3.222 -0.0506 -0.6850  0.2553
 1006MOL0     C35727   9.456   8.803   3.036 -0.1072  0.5472 -0.0220
 1006MOL0     C35728   9.580   8.825   3.098 -0.4646 -0.4161  0.0974
 1006MOL0     C35729   9.892   8.928   3.422 -0.2663  0.8089  0.1296
 1006MOL0     C35730   9.912   9.067   3.412 -0.4313  0.0238 -0.1263
 1006MOL0     C35731  10.007   9.128   3.496 -0.0817  0.2310 -0.8480
 1006MOL0     C35732  10.071   9.062   3.595 -0.0991  0.0437 -0.5225
 1006MOL0     O35733  10.162   9.127   3.666  0.3815 -0.0392 -0.0521
 1006MOL0     C35734  10.293   9.090   3.634 -0.9637  0.2046  0.3689
 1006MOL0     C35735  10.368   9.223   3.629 -0.5326  0.1652 -0.2681
 1006MOL0     C35736  10.522   9.210   3.598  0.2657  0.5770 -0.5016
 1006MOL0     C35737  10.529   9.166   3.445  0.0277 -0.2124 -0.1790
 1006MOL0     C35738  10.671   9.160   3.409 -0.1695  0.5021 -0.4388
 1006MOL0     C35739  10.787   9.150   3.379  0.1598 -0.6378  0.0741
 1006MOL0     C35740  10.046   8.928   3.610  1.4851 -0.2082  0.0410
 1006MOL0     C35741   9.967   8.855   3.522  0.0810  0.6005  0.3489
 1006MOL0     C35742   9.982   8.698   3.530 -0.2569 -0.0171  0.4678
 1006MOL0     H35743   9.501   9.065   3.315 -4.3214  0.0849  1.4054
 1006MOL0     H35744   9.265   8.967   3.253 -0.9343 -3.0038 -1.8381
 1006MOL0     H35745   9.090   8.794   3.161  1.3647  0.4915  0.5575
 1006MOL0     H35746   9.100   8.950   3.110  1.1663 -1.2372  2.2669
 1006MOL0     H35747   8.991   8.716   2.938 -1.8295  0.3992  3.1664
 1006MOL0     H35748   9.008   8.889   2.882 -2.4244  1.4046  0.7370
 1006MOL0     H35749   8.842   8.939   3.053 -1.9172 -0.9507  2.6874
 1006MOL0     H35750   8.832   8.770   3.104  0.5712  2.2391  0.9707
 1006MOL0     H35751   8.761   8.886   2.840 -0.1543  1.2103  0.4791
 1006MOL0     H35752   8.732   8.713   2.870  1.1197 -0.2881 -1.3660
 1006MOL0     H35753   8.609   8.945   3.015  1.7503 -0.4738 -0.0620
 1006MOL0     H35754   8.520   8.838   2.910  1.2399 -1.7970 -1.1603
 1006MOL0     H35755   8.543   8.661   3.066 -0.5083  0.6166 -2.6681
 1006MOL0     H35756   8.637   8.748   3.177 -0.0064 -1.9486 -0.4828
 1006MOL0     H35757   8.374   8.875   3.084  0.6487 -2.1444 -1.5844
 1006MOL0     H35758   8.459   8.904   3.238  0.5239  3.4353 -2.6067
 1006MOL0     H35759   8.334   8.634   3.164  0.8147  1.1464 -0.7401
 1006MOL0     H35760   8.398   8.677   3.316 -1.9084  1.3192  1.6491
 1006MOL0     H35761   8.228   8.941   3.403 -1.1609  0.6242  2.2167
 1006MOL0     H35762   7.857   8.900   3.448  0.7392 -0.4793  0.2521
 1006MOL0     H35763   7.999   8.971   3.537  1.9390  0.8906 -0.2816
 1006MOL0     H35764   8.028   9.103   3.305  0.9354  1.1901  2.5369
 1006MOL0     H35765   7.856   9.060   3.290 -0.4477  2.1470 -0.3172
 1006MOL0     H35766   7.850   9.268   3.394  1.1363 -0.3318  0.2364
 1006MOL0     H35767   7.955   9.220   3.521 -0.3924  2.6523 -2.0920
 1006MOL0     H35768   7.797   9.059   3.605  0.4828 -0.9587  0.0358
 1006MOL0     H35769   7.681   9.098   3.473  0.8421  1.2069 -0.9206
 1006MOL0     H35770   7.599   9.458   3.646  0.7598  0.3250 -0.4060
 1006MOL0     H35771   7.406   9.498   3.821  1.5614 -0.3156 -2.2564
 1006MOL0     H35772   7.072   9.486   4.053 -0.5604 -0.2198 -0.1183
 1006MOL0     H35773   6.928   9.517   4.236  1.2597  3.2609 -4.6412
 1006MOL0     H35774   6.819   9.597   4.480 -1.6675 -0.2513 -0.4458
 1006MOL0     H35775   6.838   9.422   4.453  1.5753 -0.5206 -0.5680
 1006MOL0     H35776   6.718   9.504   4.649  0.1191  3.9691 -0.0526
 1006MOL0     H35777   6.834   9.375   4.676  0.9679 -0.2252  0.9490
 1006MOL0     H35778   6.830   9.556   4.854  1.4785  1.3875  0.1924
 1006MOL0     H35779   6.986   9.489   4.788 -0.9097 -1.5063 -0.1628
 1006MOL0     H35780   6.828   9.742   4.718  0.1722 -2.4899 -0.1659
 1006MOL0     H35781   6.971   9.707   4.631 -1.3723  1.6144 -0.1597
 1006MOL0     H35782   6.964   9.752   4.936 -1.1924 -1.8775 -0.7144
 1006MOL0     H35783   6.971   9.886   4.825 -5.1773 -0.2810  2.8903
 1006MOL0     H35784   7.190   9.769   4.918 -1.3689 -0.0381  1.0408
 1006MOL0     H35785   7.181   9.661   4.780  2.8666 -0.8662  0.4508
 1006MOL0     H35786   7.180   9.964   4.743  2.8595  0.6680 -0.2585
 1006MOL0     H35787   7.159   9.836   4.620  0.0706  0.7772  0.3901
 1006MOL0     H35788   7.411   9.856   4.794 -0.4355  1.6322 -0.2798
 1006MOL0     H35789   7.369   9.760   4.651  0.0333  0.8085 -1.2876
 1006MOL0     H35790   7.254   9.482   4.515 -3.5558 -0.5987  2.0072
 1006MOL0     H35791   7.411   9.468   4.309  0.5576  0.3598 -1.9595
 1006MOL0     H35792   7.490   9.113   3.981 -0.0154  0.7590  2.2902
 1006MOL0     H35793   7.663   9.071   3.792  0.3379 -0.8164 -1.2511
 1006MOL0     H35794   9.457   8.742   2.946 -0.5304  1.3953 -0.6202
 1006MOL0     H35795   9.658   8.758   3.062 -2.3889 -1.7336 -1.8646
 1006MOL0     H35796   9.856   9.135   3.348  1.4612  0.6218 -1.2455
 1006MOL0     H35797  10.027   9.232   3.476  3.2947 -0.1383  0.0242
 1006MOL0     H35798  10.300   9.039   3.538 -1.8471 -0.7198  0.7799
 1006MOL0     H35799  10.328   9.027   3.716 -3.3128 -2.2012 -0.3487
 1006MOL0     H35800  10.342   9.287   3.714 -1.3638  1.1565 -1.2313
 1006MOL0     H35801  10.321   9.287   3.553  0.5781 -0.7012 -1.7411
 1006MOL0     H35802  10.573   9.138   3.662  0.4449  3.7042  3.2394
 1006MOL0     H35803  10.565   9.309   3.611 -3.9631  2.7682 -1.2790
 1006MOL0     H35804  10.482   9.068   3.432 -3.2701  0.5927  3.5191
 1006MOL0     H35805  10.473   9.225   3.373 -1.6728 -1.7222 -0.1721
 1006MOL0     H35806  10.891   9.142   3.355  0.4403  1.7957  0.2483
 1006MOL0     H35807  10.097   8.871   3.687 -0.0270 -4.1415 -1.6042
 1006MOL0     H35808  10.076   8.673   3.579 -0.8625 -1.3323  0.9890
 1006MOL0     H35809   9.905   8.638   3.579 -1.1872  0.1398 -0.7436
 1006MOL0     H35810   9.985   8.658   3.428 -3.5368 -1.9073  0.9832
 1007MOL0     O35811   0.938   4.197  10.631 -0.0445  0.1940 -0.8833
 1007MOL0     C35812   0.936   4.100  10.555 -0.3732 -0.3773 -0.4096
 1007MOL0     O35813   1.045   4.020  10.527 -0.3815  0.0088 -0.8145
 1007MOL0     C35814   1.168   4.037  10.565  0.3266 -0.1499  0.2961
 1007MOL0     C35815   1.206   3.957  10.674  0.1979 -0.1744  0.0882
 1007MOL0     C35816   1.335   3.952  10.719  0.1462 -0.4099 -0.0693
 1007MOL0     C35817   1.421   4.047  10.672 -0.1896  0.1072  0.0618
 1007MOL0     O35818   1.537   4.044  10.736 -0.9351 -0.1532 -0.1537
 1007MOL0     C35819   1.660   4.052  10.653  0.1281  0.5342 -0.0985
 1007MOL0     C35820   1.731   4.162  10.723 -0.1276  1.0135  0.5414
 1007MOL0     C35821   1.864   4.189  10.653  0.2348  0.0040  0.9517
 1007MOL0     C35822   1.979   4.260  10.740 -0.8399  0.0470  0.2643
 1007MOL0     C35823   2.075   4.304  10.636 -0.5963  0.0857 -1.0090
 1007MOL0     C35824   2.201   4.211  10.628 -0.3816  0.7611 -1.0880
 1007MOL0     C35825   2.305   4.273  10.541 -0.3788  0.6518  0.7860
 1007MOL0     C35826   2.401   4.178  10.475  1.1983 -0.2887  0.4572
 1007MOL0     N35827   2.516   4.147  10.562 -0.3607 -0.5962 -0.0814
 1007MOL0     C35828   2.627   4.227  10.571  0.4715 -0.6563 -1.1275
 1007MOL0     C35829   2.727   4.157  10.608 -1.4751  1.8533  0.2244
 1007MOL0     C35830   2.869   4.211  10.617  0.4904  0.9002  0.4323
 1007MOL0     C35831   2.878   4.323  10.715 -0.0857  0.6469 -0.1318
 1007MOL0     C35832   2.960   4.447  10.658  0.3096  0.9715  0.6194
 1007MOL0     C35833   3.110   4.412  10.680 -0.2560 -0.1749  0.3091
 1007MOL0     O35834   3.187   4.510  10.615 -0.2320 -0.2811  0.3853
 1007MOL0     C35835   3.315   4.509  10.660  0.2574 -0.5690 -0.9367
 1007MOL0     C35836   3.346   4.611  10.754 -0.8486 -0.3798  0.4470
 1007MOL0     C35837   3.471   4.612  10.810 -0.1914  0.2033  1.2159
 1007MOL0     C35838   3.556   4.501  10.789  0.0846  0.6257 -0.7268
 1007MOL0     C35839   3.677   4.492  10.882  0.3797 -0.3996 -0.1778
 1007MOL0     O35840   3.772   4.406  10.837  0.1568 -0.2591 -0.8723
 1007MOL0     C35841   3.856   4.352  10.925 -0.8795  0.4848 -0.0298
 1007MOL0     C35842   3.819   4.238  11.009 -0.4036 -0.4607 -0.0282
 1007MOL0     C35843   3.902   4.195  11.114  0.6905 -0.2360 -0.3557
 1007MOL0     C35844   4.026   4.255  11.132 -0.5030 -0.0831 -0.9023
 1007MOL0     O35845   4.106   4.202  11.238  0.7056 -0.0439  0.2856
 1007MOL0     C35846   4.251   4.230  11.236 -0.0130  0.0524 -0.2490
 1007MOL0     C35847   4.325   4.142  11.132  0.6806 -0.2816  0.2925
 1007MOL0     C35848   4.474   4.182  11.136  0.2979  0.1094  1.2313
 1007MOL0     C35849   4.546   4.118  11.256  0.4199  0.1755 -0.3062
 1007MOL0     C35850   4.691   4.158  11.264 -0.0551  0.2816 -0.0884
 1007MOL0     C35851   4.752   4.088  11.381  0.3244  0.7119 -0.6669
 1007MOL0     C35852   4.897   4.119  11.381  0.7388 -0.0043 -0.3701
 1007MOL0     C35853   4.969   4.052  11.503  0.3608 -0.3031  0.0662
 1007MOL0    Cl35854   5.140   4.090  11.476 -0.3261 -0.3424 -0.0517
 1007MOL0     C35855   4.064   4.359  11.046  0.1982  0.3043  0.2773
 1007MOL0     C35856   3.981   4.405  10.944  0.2133  0.3769 -0.3532
 1007MOL0     O35857   3.672   4.540  10.994  0.4161  0.4717 -0.0749
 1007MOL0     C35858   3.529   4.401  10.697  0.1775  1.0725  0.4021
 1007MOL0     C35859   3.400   4.395  10.638  1.1137 -0.2365 -0.0879
 1007MOL0     N35860   2.690   4.018  10.617 -0.3537 -0.4735  0.0350
 1007MOL0     N35861   2.554   4.019  10.592 -0.2087  0.0614  0.0067
 1007MOL0     C35862   1.392   4.140  10.574  0.1232 -0.4850  0.0884
 1007MOL0     C35863   1.263   4.127  10.508  0.3953 -1.0536 -0.8534
 1007MOL0     C35864   0.812   4.066  10.490 -1.0242 -0.6329 -0.5777
 1007MOL0     C35865   0.806   3.933  10.432 -0.9108 -0.4770  0.8086
 1007MOL0     C35866   0.698   3.883  10.371  0.8197  0.7458 -0.0803
 1007MOL0     C35867   0.585   3.963  10.362 -0.3445  0.3971  0.3486
 1007MOL0     O35868   0.471   3.910  10.297 -0.5478  0.6787 -0.2130
 1007MOL0     C35869   0.391   4.006  10.239 -0.1876 -0.1993  0.5273
 1007MOL0     C35870   0.276   3.936  10.162  0.6060  0.6503 -0.6800
 1007MOL0     C35871   0.161   4.030  10.113  0.1890  0.1252  0.1382
 1007MOL0     C35872   0.059   4.071  10.223 -0.3772  0.2155 -0.3463
 1007MOL0     C35873  -0.041   3.971  10.246  0.8730 -0.2286  0.2765
 1007MOL0     C35874  -0.128   3.888  10.261  0.0324 -0.7426 -0.2710
 1007MOL0     C35875   0.587   4.090  10.420 -0.0072  0.0100 -0.0496
 1007MOL0     C35876   0.689   4.137  10.493  0.0977  0.4744 -0.0400
 1007MOL0     C35877   0.670   4.264  10.570  0.2018 -0.0389 -0.7679
 1007MOL0     H35878   1.129   3.896  10.719 -0.0776 -0.4051 -0.6740
 1007MOL0     H35879   1.366   3.891  10.803 -1.4083 -2.1545 -0.6870
 1007MOL0     H35880   1.720   3.962  10.641 -0.3274  0.2580 -0.3532
 1007MOL0     H35881   1.639   4.099  10.556  0.1760  0.5824 -0.0848
 1007MOL0     H35882   1.762   4.129  10.822  0.3061 -1.4923 -0.3618
 1007MOL0     H35883   1.666   4.250  10.732 -0.9014  0.4715  0.3456
 1007MOL0     H35884   1.839   4.261  10.574  1.7025  0.6209  1.0154
 1007MOL0     H35885   1.908   4.094  10.624  0.6092  0.6568 -0.7226
 1007MOL0     H35886   1.937   4.350  10.786 -0.6790  0.5121 -0.4889
 1007MOL0     H35887   2.030   4.187  10.804 -0.1078  1.9118  1.8883
 1007MOL0     H35888   2.041   4.312  10.532  1.9913 -0.4801 -1.9718
 1007MOL0     H35889   2.108   4.406  10.659 -0.2516  0.2478 -2.1537
 1007MOL0     H35890   2.249   4.181  10.722  0.3006 -0.3697 -1.7692
 1007MOL0     H35891   2.176   4.114  10.584 -1.0774  1.1599 -1.5957
 1007MOL0     H35892   2.361   4.341  10.605  1.6295 -0.4046  0.2302
 1007MOL0     H35893   2.259   4.345  10.473  2.8668  1.9891 -0.1753
 1007MOL0     H35894   2.353   4.085  10.443 -0.7248  0.8604 -0.1579
 1007MOL0     H35895   2.450   4.216  10.385 -2.3169 -0.5769 -1.7496
 1007MOL0     H35896   2.625   4.333  10.548 -3.1299 -0.4151 -0.3538
 1007MOL0     H35897   2.931   4.125  10.645  0.4086  0.5579 -0.4163
 1007MOL0     H35898   2.894   4.242  10.515 -0.9182 -0.8727 -0.5082
 1007MOL0     H35899   2.781   4.360  10.748 -0.2377 -0.9750  1.3733
 1007MOL0     H35900   2.924   4.276  10.802  1.2491  0.6522 -0.8034
 1007MOL0     H35901   2.948   4.544  10.708 -0.3776  1.8681 -1.2005
 1007MOL0     H35902   2.945   4.461  10.551  1.7362 -0.2319  0.2231
 1007MOL0     H35903   3.123   4.314  10.634  2.5953  1.4355 -2.7477
 1007MOL0     H35904   3.126   4.400  10.788  1.2091  0.1166  0.1369
 1007MOL0     H35905   3.268   4.686  10.767 -0.0112  0.6445 -0.2721
 1007MOL0     H35906   3.496   4.693  10.876 -0.9610 -1.3335  3.5069
 1007MOL0     H35907   3.719   4.203  10.987  0.7970 -2.7994 -2.2507
 1007MOL0     H35908   3.866   4.126  11.190  0.6094  0.0356 -0.1453
 1007MOL0     H35909   4.274   4.335  11.215  0.3355  0.0642  0.1773
 1007MOL0     H35910   4.282   4.198  11.336  1.0626 -4.2713 -1.7343
 1007MOL0     H35911   4.303   4.036  11.147  0.0270 -0.2578 -0.4177
 1007MOL0     H35912   4.284   4.159  11.031 -1.2704 -3.1259  0.4774
 1007MOL0     H35913   4.514   4.152  11.040  1.1398 -0.7989  1.8501
 1007MOL0     H35914   4.478   4.291  11.143 -0.9084  0.5191 -2.3794
 1007MOL0     H35915   4.527   4.011  11.262 -1.8362  0.4432 -1.5490
 1007MOL0     H35916   4.491   4.157  11.342 -0.8062  1.8259 -1.7619
 1007MOL0     H35917   4.690   4.267  11.279  1.2986  0.0687  1.9230
 1007MOL0     H35918   4.744   4.118  11.178  1.2998 -2.8468  2.0072
 1007MOL0     H35919   4.705   4.135  11.468  0.5540  0.1343 -0.2262
 1007MOL0     H35920   4.733   3.980  11.378  0.6778  0.5031  1.9794
 1007MOL0     H35921   4.907   4.228  11.390 -2.7252  0.2670  3.2379
 1007MOL0     H35922   4.934   4.090  11.283  0.3933  1.1344 -0.8569
 1007MOL0     H35923   4.947   4.093  11.602 -2.0255  1.1734 -0.9951
 1007MOL0     H35924   4.934   3.948  11.501  1.6302 -0.7481  0.0403
 1007MOL0     H35925   4.161   4.403  11.061  0.6933 -1.2184  1.9196
 1007MOL0     H35926   4.017   4.481  10.875 -1.6572  1.2744 -0.3901
 1007MOL0     H35927   3.592   4.314  10.687 -0.2528  0.8681 -0.7329
 1007MOL0     H35928   3.362   4.315  10.576 -0.5977  2.1548 -2.3218
 1007MOL0     H35929   1.466   4.209  10.533 -2.4037  1.8080 -0.9077
 1007MOL0     H35930   1.247   4.192  10.422 -2.9299 -2.0035 -1.0895
 1007MOL0     H35931   0.896   3.872  10.420 -1.0062 -0.2990 -1.2023
 1007MOL0     H35932   0.683   3.778  10.347  1.6148  0.7894 -0.7738
 1007MOL0     H35933   0.446   4.057  10.161  0.8273 -0.9065  0.7613
 1007MOL0     H35934   0.345   4.080  10.305  0.5631 -1.2000  2.2369
 1007MOL0     H35935   0.231   3.862  10.228  1.9900  0.8035  0.4874
 1007MOL0     H35936   0.309   3.888  10.069 -0.1697 -0.5848 -0.3409
 1007MOL0     H35937   0.117   3.990  10.022  3.7112 -1.9914 -0.7910
 1007MOL0     H35938   0.220   4.118  10.086 -1.1517  1.6127  1.7984
 1007MOL0     H35939   0.101   4.088  10.323 -1.2317 -0.6195  0.1701
 1007MOL0     H35940   0.002   4.161  10.198 -0.4274 -0.1213 -1.5101
 1007MOL0     H35941  -0.202   3.816  10.290 -3.1194  1.6782 -1.6722
 1007MOL0     H35942   0.497   4.152  10.420 -0.5685 -0.7799 -1.0378
 1007MOL0     H35943   0.748   4.333  10.536 -2.9989  3.1317 -2.4770
 1007MOL0     H35944   0.577   4.319  10.549  0.0185 -0.8443 -2.1773
 1007MOL0     H35945   0.672   4.243  10.677  0.5140 -0.5589 -0.8749
 1008MOL0     O35946   9.619   8.330   7.240  0.1030  0.3288  0.4355
 1008MOL0     C35947   9.514   8.300   7.178  0.1480  0.3564 -0.3677
 1008MOL0     O35948   9.393   8.271   7.232 -0.6505  0.2848 -0.3674
 1008MOL0     C35949   9.394   8.268   7.370  0.1978 -0.0227  0.0875
 1008MOL0     C35950   9.355   8.387   7.441  0.4182  0.1476 -0.1722
 1008MOL0     C35951   9.359   8.377   7.579  0.1186  0.0854  0.4352
 1008MOL0     C35952   9.385   8.253   7.647  0.3110  1.2948  0.4099
 1008MOL0     O35953   9.374   8.236   7.785 -0.6300 -0.2481  0.0439
 1008MOL0     C35954   9.393   8.358   7.872  0.1831  0.6800  0.9091
 1008MOL0     C35955   9.273   8.433   7.927  0.2439 -0.2279 -0.4404
 1008MOL0     C35956   9.313   8.513   8.050 -0.4464 -0.6694 -0.1916
 1008MOL0     C35957   9.323   8.433   8.172  0.0818 -0.0676 -0.4567
 1008MOL0     C35958   9.373   8.515   8.289  0.3167  0.0315 -0.8925
 1008MOL0     C35959   9.531   8.493   8.287 -0.1358  0.0307  0.1777
 1008MOL0     C35960   9.591   8.563   8.402 -0.3883  0.0856  0.6358
 1008MOL0     C35961   9.621   8.704   8.366 -0.3363  0.2623  0.9676
 1008MOL0     N35962   9.751   8.713   8.299  0.1951 -1.4087 -0.0041
 1008MOL0     C35963   9.858   8.799   8.338  0.2431 -0.5887 -0.9139
 1008MOL0     C35964   9.961   8.780   8.253  0.2152 -0.2717  0.7730
 1008MOL0     C35965  10.091   8.837   8.258 -0.3764 -0.7552  0.4215
 1008MOL0     C35966  10.113   8.993   8.241 -0.3429  0.0316 -0.6458
 1008MOL0     C35967  10.250   9.047   8.282  0.5103 -0.6624 -0.6631
 1008MOL0     C35968  10.249   9.202   8.291 -0.1157 -0.1213  0.3194
 1008MOL0     O35969  10.387   9.258   8.307  0.8073 -0.1645 -0.2818
 1008MOL0     C35970  10.387   9.387   8.359  1.0824 -0.3267  0.7147
 1008MOL0     C35971  10.284   9.474   8.324  0.0291  0.0671 -0.5919
 1008MOL0     C35972  10.287   9.606   8.373 -0.2352  0.1233  0.0713
 1008MOL0     C35973  10.391   9.652   8.450 -1.5573 -0.3598 -0.5574
 1008MOL0     C35974  10.398   9.790   8.489 -0.2492 -0.8941 -0.3416
 1008MOL0     O35975  10.486   9.824   8.583  0.4121  0.2499  0.1719
 1008MOL0     C35976  10.524   9.956   8.599 -0.3011 -0.0953 -0.1252
 1008MOL0     C35977  10.648   9.997   8.555 -0.0177  0.1568 -0.6358
 1008MOL0     C35978  10.683  10.137   8.563  1.2460 -0.1598  0.3542
 1008MOL0     C35979  10.579  10.227   8.617 -0.5199 -0.3050 -0.4664
 1008MOL0     O35980  10.601  10.363   8.617 -0.1398  0.0654 -0.0468
 1008MOL0     C35981  10.679  10.421   8.513 -0.3811 -0.1533 -0.4511
 1008MOL0     C35982  10.653  10.573   8.529  0.3927  1.0042  0.0763
 1008MOL0     C35983  10.674  10.657   8.398  0.8779 -0.8470  1.3717
 1008MOL0     C35984  10.677  10.810   8.417  0.1907 -0.0590 -0.2670
 1008MOL0     C35985  10.671  10.875   8.279 -0.0800  0.0755 -0.2962
 1008MOL0     C35986  10.667  11.026   8.304 -0.1494 -0.9321 -0.8949
 1008MOL0     C35987  10.606  11.109   8.193 -0.7408 -0.2036 -0.6323
 1008MOL0     C35988  10.687  11.113   8.060  0.3068  0.4846  0.1544
 1008MOL0    Cl35989  10.595  11.223   7.953  0.7947 -0.1527  0.4423
 1008MOL0     C35990  10.460  10.181   8.674 -0.6307  0.2874 -0.3234
 1008MOL0     C35991  10.436  10.043   8.663  0.4648 -0.5754  0.2271
 1008MOL0     O35992  10.332   9.871   8.416  0.1078 -0.3656  0.1680
 1008MOL0     C35993  10.499   9.563   8.480  0.1521  0.2180 -0.5440
 1008MOL0     C35994  10.497   9.434   8.434 -0.0175 -1.1269  0.8284
 1008MOL0     N35995   9.914   8.692   8.163  0.0260 -0.7019  0.1164
 1008MOL0     N35996   9.790   8.666   8.183  0.1976  1.0045 -0.3137
 1008MOL0     C35997   9.411   8.139   7.578  0.4359  0.4063 -0.5057
 1008MOL0     C35998   9.423   8.151   7.438  0.4197 -0.2021  0.5698
 1008MOL0     C35999   9.512   8.322   7.031 -0.0494  0.1438 -0.4340
 1008MOL0     C36000   9.389   8.357   6.972  0.2121  0.8430 -0.2447
 1008MOL0     C36001   9.380   8.387   6.838  0.5654  0.1735  0.4498
 1008MOL0     C36002   9.494   8.385   6.762  0.2458 -0.0545  0.4534
 1008MOL0     O36003   9.470   8.424   6.628  0.5306  0.2834 -0.3316
 1008MOL0     C36004   9.569   8.514   6.569  0.8677  0.1110  0.4499
 1008MOL0     C36005   9.523   8.557   6.433 -1.1056 -0.3214  0.3056
 1008MOL0     C36006   9.617   8.662   6.373 -0.2328 -0.3870 -0.2475
 1008MOL0     C36007   9.600   8.675   6.222 -0.0106  0.2631  0.8978
 1008MOL0     C36008   9.470   8.699   6.165  0.3612 -0.7089 -0.5762
 1008MOL0     C36009   9.349   8.706   6.136  0.9889  0.7266 -0.3466
 1008MOL0     C36010   9.607   8.333   6.806 -0.0957  0.6753 -0.4415
 1008MOL0     C36011   9.626   8.309   6.943 -0.2447 -0.2489  0.3453
 1008MOL0     C36012   9.760   8.265   6.990 -1.2156  0.4731  0.0797
 1008MOL0     H36013   9.301   8.464   7.387  1.0006  0.9695  0.3918
 1008MOL0     H36014   9.324   8.459   7.641 -0.1503 -0.6386  1.2704
 1008MOL0     H36015   9.448   8.326   7.961  1.5155  0.9707  0.2191
 1008MOL0     H36016   9.453   8.439   7.830 -1.0155  1.5528  0.8236
 1008MOL0     H36017   9.205   8.352   7.956  1.6039 -1.4512 -0.5014
 1008MOL0     H36018   9.230   8.493   7.846 -2.5926 -0.1216  1.0256
 1008MOL0     H36019   9.233   8.588   8.052 -2.4804 -2.7144  0.5271
 1008MOL0     H36020   9.405   8.570   8.039 -1.1118  0.8888  1.7305
 1008MOL0     H36021   9.227   8.385   8.194 -0.8837 -0.3346 -4.4581
 1008MOL0     H36022   9.391   8.349   8.160  1.6741  1.0929 -0.0078
 1008MOL0     H36023   9.348   8.622   8.284 -0.0162  0.2824  3.1585
 1008MOL0     H36024   9.327   8.475   8.380  2.1964  0.4511  0.2954
 1008MOL0     H36025   9.572   8.392   8.290  0.9170  0.4607  1.8765
 1008MOL0     H36026   9.566   8.548   8.199 -2.0245  2.4184  0.8174
 1008MOL0     H36027   9.687   8.516   8.423 -1.6060 -4.2215 -2.1693
 1008MOL0     H36028   9.532   8.552   8.494  0.6628 -2.1512  1.0944
 1008MOL0     H36029   9.546   8.749   8.300 -0.6785 -0.9216  0.5294
 1008MOL0     H36030   9.622   8.759   8.461 -2.7675  3.3164 -0.5893
 1008MOL0     H36031   9.877   8.859   8.426 -2.6821 -1.2138  0.2582
 1008MOL0     H36032  10.125   8.803   8.357  2.6145 -1.6481 -0.8119
 1008MOL0     H36033  10.159   8.786   8.190 -2.8335  0.9758 -3.6980
 1008MOL0     H36034  10.109   9.025   8.136  0.0987 -0.9461 -0.9708
 1008MOL0     H36035  10.036   9.043   8.300 -0.7585 -0.4663 -0.7615
 1008MOL0     H36036  10.326   9.026   8.206  0.4990 -0.3559 -0.7586
 1008MOL0     H36037  10.289   8.995   8.370  0.3408  1.5189  0.7892
 1008MOL0     H36038  10.183   9.234   8.371 -0.8248  2.5284 -1.2157
 1008MOL0     H36039  10.215   9.244   8.196 -1.0906 -1.1343  0.1992
 1008MOL0     H36040  10.192   9.453   8.271 -0.3674  1.1236 -0.3628
 1008MOL0     H36041  10.207   9.667   8.333  0.3956  0.1003 -1.2805
 1008MOL0     H36042  10.726   9.934   8.513  1.1210  0.7841  0.4964
 1008MOL0     H36043  10.778  10.170   8.521  1.3664  0.3417  0.9975
 1008MOL0     H36044  10.787  10.411   8.523 -0.5500 -1.7285  0.0710
 1008MOL0     H36045  10.642  10.394   8.413  0.4978  1.1514 -1.1586
 1008MOL0     H36046  10.554  10.580   8.575  0.8014 -1.9235  1.6562
 1008MOL0     H36047  10.727  10.609   8.600  0.3684 -0.2816  0.7844
 1008MOL0     H36048  10.756  10.613   8.341 -0.3230 -2.0655  0.5079
 1008MOL0     H36049  10.587  10.648   8.333  0.4404  0.0435  1.8137
 1008MOL0     H36050  10.767  10.830   8.476 -0.6468 -2.8697  2.1825
 1008MOL0     H36051  10.590  10.845   8.475  1.9315  1.1065  1.7879
 1008MOL0     H36052  10.576  10.854   8.229 -1.3533 -0.5172  2.2316
 1008MOL0     H36053  10.747  10.839   8.208 -1.2976  1.8101 -2.6148
 1008MOL0     H36054  10.620  11.047   8.400 -2.2787 -1.9825 -1.6256
 1008MOL0     H36055  10.767  11.066   8.321 -0.6476 -0.0388 -0.0205
 1008MOL0     H36056  10.601  11.215   8.221  3.9699  0.1315 -0.2767
 1008MOL0     H36057  10.504  11.072   8.177 -0.9914 -0.7927  1.9008
 1008MOL0     H36058  10.791  11.147   8.066  0.1869  1.2002 -1.4499
 1008MOL0     H36059  10.697  11.015   8.012  1.0615 -1.3624  3.7243
 1008MOL0     H36060  10.393  10.252   8.721 -2.1957 -0.8503 -0.7390
 1008MOL0     H36061  10.338  10.009   8.695  1.6975 -4.1247  0.6781
 1008MOL0     H36062  10.579   9.588   8.549  0.1865  0.1047 -0.5405
 1008MOL0     H36063  10.573   9.362   8.464 -3.0798 -4.3835  1.4024
 1008MOL0     H36064   9.427   8.043   7.627  0.2397 -0.2992 -1.7665
 1008MOL0     H36065   9.461   8.062   7.386 -0.4638 -0.3632  0.1907
 1008MOL0     H36066   9.302   8.364   7.037 -0.7841 -0.9122 -1.3115
 1008MOL0     H36067   9.284   8.393   6.788  0.4947 -1.5866  0.2820
 1008MOL0     H36068   9.663   8.459   6.573  1.4015  0.8913 -0.8152
 1008MOL0     H36069   9.575   8.600   6.636 -0.4262  1.0800 -0.5960
 1008MOL0     H36070   9.422   8.600   6.429 -1.5681 -0.8334  3.5574
 1008MOL0     H36071   9.524   8.471   6.366  0.2429  0.3296 -0.5494
 1008MOL0     H36072   9.721   8.630   6.385 -0.7122 -1.1822  2.4464
 1008MOL0     H36073   9.603   8.760   6.418  3.5723  0.2270 -0.1164
 1008MOL0     H36074   9.667   8.753   6.185  0.7088 -0.5737  0.4247
 1008MOL0     H36075   9.641   8.580   6.187  0.7096  0.9527 -0.1746
 1008MOL0     H36076   9.247   8.722   6.107  1.4654  1.0629 -1.9382
 1008MOL0     H36077   9.686   8.306   6.738 -1.3029  0.9756 -2.0320
 1008MOL0     H36078   9.751   8.166   7.036  0.0243  0.5768  0.5781
 1008MOL0     H36079   9.831   8.247   6.909 -1.3788 -0.7195  0.1837
 1008MOL0     H36080   9.796   8.331   7.069 -3.4657 -0.6781  2.2188
 1009MOL0     O36081   2.830   6.139   4.382 -0.7710  0.7480 -0.2960
 1009MOL0     C36082   2.878   6.251   4.387  0.0095 -0.1614  1.0328
 1009MOL0     O36083   2.974   6.296   4.465  0.4150 -0.3513 -0.7299
 1009MOL0     C36084   3.052   6.219   4.543  0.1410  0.4773  0.1575
 1009MOL0     C36085   3.071   6.240   4.684 -0.5506 -0.6386  0.7593
 1009MOL0     C36086   3.155   6.150   4.758  0.1974 -0.4421 -0.7388
 1009MOL0     C36087   3.239   6.059   4.690  0.6891  0.6081 -0.1941
 1009MOL0     O36088   3.329   5.977   4.745 -0.0236  0.1229 -0.2216
 1009MOL0     C36089   3.452   6.041   4.795  0.2691 -0.5036 -0.1702
 1009MOL0     C36090   3.543   5.942   4.870  0.5125 -0.4561  0.5227
 1009MOL0     C36091   3.679   5.983   4.903 -0.0094 -0.5089  0.0832
 1009MOL0     C36092   3.683   6.106   5.000  0.4591  0.9144  0.7891
 1009MOL0     C36093   3.622   6.072   5.139 -0.6540  0.4244  0.3739
 1009MOL0     C36094   3.715   5.990   5.231  0.9251 -0.2099  0.6230
 1009MOL0     C36095   3.845   6.062   5.273  0.1960  0.3124 -0.1048
 1009MOL0     C36096   3.913   5.976   5.381  0.2696 -0.1549 -0.1838
 1009MOL0     N36097   4.038   6.034   5.427  0.7456  0.4094 -0.4417
 1009MOL0     C36098   4.078   6.054   5.558  0.6102 -0.3828  0.3244
 1009MOL0     C36099   4.196   6.121   5.536 -0.0323  0.1990 -0.0647
 1009MOL0     C36100   4.290   6.174   5.651 -0.2001 -0.0181  0.0405
 1009MOL0     C36101   4.440   6.169   5.620  0.0676  0.5973 -0.2037
 1009MOL0     C36102   4.489   6.027   5.581 -0.1380 -0.0136 -0.5910
 1009MOL0     C36103   4.634   6.011   5.535 -0.3135  0.2434  0.5350
 1009MOL0     O36104   4.721   6.046   5.638  0.1021 -0.6067  0.2011
 1009MOL0     C36105   4.853   6.014   5.635 -0.5984 -0.9693 -0.0884
 1009MOL0     C36106   4.938   6.031   5.747  0.6256 -0.2590  0.3529
 1009MOL0     C36107   5.076   6.000   5.744 -0.1946  0.6104  0.4477
 1009MOL0     C36108   5.137   5.946   5.630 -0.3575 -0.6081 -1.5218
 1009MOL0     C36109   5.285   5.920   5.617  0.5581 -0.5128  0.2056
 1009MOL0     O36110   5.335   5.862   5.497  0.0310  0.6421 -0.5369
 1009MOL0     C36111   5.473   5.830   5.505 -0.7476 -0.0393 -0.0342
 1009MOL0     C36112   5.517   5.699   5.504  0.0570 -0.4628 -0.4282
 1009MOL0     C36113   5.651   5.663   5.499  1.3248 -0.3386  0.6790
 1009MOL0     C36114   5.757   5.752   5.507 -0.7216  0.2902  0.5916
 1009MOL0     O36115   5.884   5.721   5.549 -0.1717 -0.0676  0.1467
 1009MOL0     C36116   5.891   5.585   5.605 -0.2501  0.4148  0.2608
 1009MOL0     C36117   5.862   5.569   5.756 -0.8603 -0.6005 -0.4747
 1009MOL0     C36118   5.916   5.438   5.808 -0.2841  0.3050  0.5405
 1009MOL0     C36119   5.801   5.331   5.792  0.3948 -0.0026 -0.0495
 1009MOL0     C36120   5.848   5.204   5.873 -0.6152  0.1987  0.5729
 1009MOL0     C36121   5.796   5.076   5.806  0.0804 -0.9587  0.0227
 1009MOL0     C36122   5.815   4.949   5.887  0.3433  0.2331  0.0221
 1009MOL0     C36123   5.764   4.821   5.818  0.3914 -0.1661 -1.7299
 1009MOL0    Cl36124   5.589   4.846   5.786  0.5952 -0.1633 -0.4466
 1009MOL0     C36125   5.715   5.892   5.493 -0.5134 -0.0565 -0.8421
 1009MOL0     C36126   5.582   5.927   5.504  0.8493 -0.4158 -0.8173
 1009MOL0     O36127   5.350   5.955   5.713  0.7142 -0.0223  0.3775
 1009MOL0     C36128   5.053   5.935   5.512 -0.2570  0.0932 -1.3563
 1009MOL0     C36129   4.913   5.970   5.512 -0.2017  0.0359  0.3634
 1009MOL0     N36130   4.234   6.123   5.403  0.5451 -0.2571 -1.0489
 1009MOL0     N36131   4.130   6.089   5.344  1.0977 -0.4538  0.4598
 1009MOL0     C36132   3.215   6.038   4.557 -0.5143  0.4332  0.8530
 1009MOL0     C36133   3.121   6.107   4.479 -0.0750 -0.3749 -0.1554
 1009MOL0     C36134   2.835   6.344   4.277 -0.4279  0.2945 -0.4185
 1009MOL0     C36135   2.814   6.486   4.307 -0.4682 -0.6683 -0.6838
 1009MOL0     C36136   2.769   6.576   4.205  1.1043 -0.1805  0.5451
 1009MOL0     C36137   2.761   6.533   4.072 -0.5792  0.0905  0.4609
 1009MOL0     O36138   2.735   6.618   3.968 -0.2536 -0.6871 -0.7554
 1009MOL0     C36139   2.849   6.645   3.883  0.3134 -0.0976  0.2677
 1009MOL0     C36140   2.825   6.785   3.833  0.3124 -0.5309  0.2398
 1009MOL0     C36141   2.920   6.819   3.716 -0.7209  0.5360  0.1488
 1009MOL0     C36142   2.897   6.954   3.641 -0.7215 -0.4476 -0.3746
 1009MOL0     C36143   2.941   7.073   3.720 -0.3102 -0.2875 -0.0592
 1009MOL0     C36144   2.966   7.173   3.790 -0.9076 -0.0812  0.3382
 1009MOL0     C36145   2.794   6.397   4.046 -0.0866  0.0226  0.1530
 1009MOL0     C36146   2.831   6.301   4.140  1.1047 -0.7950 -0.3489
 1009MOL0     C36147   2.852   6.156   4.089  1.0702  0.6463 -0.4377
 1009MOL0     H36148   3.044   6.334   4.732  2.7496  0.7277  0.2192
 1009MOL0     H36149   3.183   6.159   4.862 -0.6193  0.3949 -0.5799
 1009MOL0     H36150   3.498   6.084   4.706  0.5546 -1.5452 -0.5307
 1009MOL0     H36151   3.430   6.127   4.859 -0.9463 -0.9776  0.0762
 1009MOL0     H36152   3.549   5.851   4.809 -0.9400 -0.6129  0.5718
 1009MOL0     H36153   3.481   5.914   4.956  0.5728  0.5878  0.9211
 1009MOL0     H36154   3.721   6.009   4.805  0.0945 -0.0730  0.2432
 1009MOL0     H36155   3.731   5.890   4.927 -0.3636 -0.5647  0.6459
 1009MOL0     H36156   3.786   6.140   5.013 -0.0709  5.1059 -3.2869
 1009MOL0     H36157   3.621   6.188   4.961 -0.2651 -0.4635 -1.1447
 1009MOL0     H36158   3.614   6.176   5.175  0.6710  0.6630  0.0253
 1009MOL0     H36159   3.528   6.019   5.125 -0.8841  1.3106 -1.6907
 1009MOL0     H36160   3.649   5.955   5.310  1.3286 -1.2377  0.5246
 1009MOL0     H36161   3.747   5.905   5.169  2.1002  0.7527 -0.1469
 1009MOL0     H36162   3.816   6.154   5.325  2.9230  0.8246  0.6618
 1009MOL0     H36163   3.916   6.077   5.191 -2.2082  0.6885 -2.2369
 1009MOL0     H36164   3.845   5.963   5.465 -1.1787 -0.1715 -1.3248
 1009MOL0     H36165   3.939   5.880   5.336 -0.7859 -0.0218 -1.1171
 1009MOL0     H36166   4.022   6.038   5.649  0.3468 -1.3141  0.0160
 1009MOL0     H36167   4.276   6.281   5.668  0.7679  0.1182  0.0148
 1009MOL0     H36168   4.262   6.109   5.735 -1.8401  0.2566 -0.2578
 1009MOL0     H36169   4.470   6.232   5.536 -1.6813  1.9594  0.1590
 1009MOL0     H36170   4.489   6.193   5.715 -0.1683 -3.4078  1.1093
 1009MOL0     H36171   4.422   5.978   5.509 -0.9989 -1.5481  1.1948
 1009MOL0     H36172   4.489   5.955   5.663 -0.0857 -2.1211 -2.3504
 1009MOL0     H36173   4.644   6.070   5.443 -3.9464 -1.1939 -0.9547
 1009MOL0     H36174   4.637   5.904   5.512  0.3689  0.3045  0.3040
 1009MOL0     H36175   4.895   6.057   5.843 -0.4272 -2.0975  0.4303
 1009MOL0     H36176   5.133   6.014   5.836  1.4305  1.5802 -0.6562
 1009MOL0     H36177   5.443   5.622   5.486  0.1040 -1.1225  1.8431
 1009MOL0     H36178   5.649   5.555   5.483 -2.6770 -0.2957 -0.2192
 1009MOL0     H36179   5.848   5.502   5.549  1.1297  0.9202 -1.6459
 1009MOL0     H36180   5.998   5.564   5.595 -0.5080 -0.5455 -0.5789
 1009MOL0     H36181   5.909   5.650   5.812  0.6858 -2.5164  1.1628
 1009MOL0     H36182   5.753   5.575   5.770 -0.7241  0.6013  0.2291
 1009MOL0     H36183   6.007   5.405   5.757 -0.1677 -3.1176  2.6580
 1009MOL0     H36184   5.939   5.453   5.914  1.6915  0.0851  0.1804
 1009MOL0     H36185   5.767   5.319   5.689 -1.9450  4.0698  0.0224
 1009MOL0     H36186   5.707   5.356   5.843  0.5744  0.5551  0.0199
 1009MOL0     H36187   5.827   5.208   5.981 -1.1208 -0.1214  0.4888
 1009MOL0     H36188   5.955   5.186   5.860 -0.9447 -0.8150 -0.9299
 1009MOL0     H36189   5.687   5.086   5.805  0.2840  2.2423  0.6447
 1009MOL0     H36190   5.828   5.060   5.702 -1.3370 -0.1984 -0.5603
 1009MOL0     H36191   5.758   4.969   5.978 -0.2618  0.7616 -0.4688
 1009MOL0     H36192   5.919   4.933   5.918  0.3244 -0.3218 -0.1905
 1009MOL0     H36193   5.821   4.787   5.731 -1.5018 -0.9583 -2.7345
 1009MOL0     H36194   5.785   4.737   5.884  3.0060  2.5448  1.2553
 1009MOL0     H36195   5.792   5.969   5.493 -2.9811  2.6695  0.9698
 1009MOL0     H36196   5.555   6.032   5.498 -1.6504 -0.5760  3.6698
 1009MOL0     H36197   5.100   5.908   5.418  1.1889  1.1960 -0.9851
 1009MOL0     H36198   4.852   5.985   5.423  0.8996  1.0325 -0.2563
 1009MOL0     H36199   3.270   5.964   4.500  3.2624  3.8496 -0.4251
 1009MOL0     H36200   3.108   6.072   4.377 -2.2126 -2.4724  0.7372
 1009MOL0     H36201   2.841   6.534   4.400 -1.0470  0.2571 -0.9754
 1009MOL0     H36202   2.754   6.680   4.233  2.2430 -0.8185  4.1184
 1009MOL0     H36203   2.827   6.579   3.799 -4.2752  1.0442  0.2958
 1009MOL0     H36204   2.944   6.633   3.936 -1.0677 -1.4559  2.6054
 1009MOL0     H36205   2.844   6.852   3.918 -2.6789  0.1948  0.4648
 1009MOL0     H36206   2.721   6.803   3.804 -1.3007  2.2647  6.1597
 1009MOL0     H36207   2.920   6.739   3.642  3.6109 -0.4588  0.9413
 1009MOL0     H36208   3.020   6.818   3.760 -1.4896 -2.7215  2.1100
 1009MOL0     H36209   2.947   6.951   3.544 -0.1217  0.5688 -0.1063
 1009MOL0     H36210   2.788   6.963   3.631 -0.5274  0.6632 -1.8383
 1009MOL0     H36211   2.996   7.255   3.853 -0.1173  0.7660 -1.1045
 1009MOL0     H36212   2.783   6.368   3.942 -3.8077 -0.6324  0.5832
 1009MOL0     H36213   2.938   6.113   4.140  0.4172 -3.3829 -2.3705
 1009MOL0     H36214   2.771   6.089   4.117  2.6960 -0.9891  0.5506
 1009MOL0     H36215   2.886   6.145   3.985 -1.2391 -0.3245 -1.1612
 1010MOL0     O36216   9.548  10.374   1.058 -0.6171 -0.2652 -0.1691
 1010MOL0     C36217   9.507  10.267   1.098  0.0491  0.7562  0.0063
 1010MOL0     O36218   9.577  10.147   1.085  0.4970 -0.2797 -0.2984
 1010MOL0     C36219   9.714  10.157   1.067 -0.1646 -0.6459  0.3829
 1010MOL0     C36220   9.801  10.201   1.166 -0.6265 -0.1666 -0.3380
 1010MOL0     C36221   9.936  10.210   1.135 -0.1822  0.0127 -0.1163
 1010MOL0     C36222   9.993  10.161   1.019 -0.4209  0.8216  1.2857
 1010MOL0     O36223  10.135  10.168   1.002  0.5057  0.3925 -0.0116
 1010MOL0     C36224  10.192  10.045   0.953  0.7163 -0.0110 -0.9541
 1010MOL0     C36225  10.343  10.058   0.967 -0.0959  0.1850 -0.0834
 1010MOL0     C36226  10.396  10.164   0.875  0.0361 -0.0008 -0.7031
 1010MOL0     C36227  10.554  10.177   0.878 -0.2808  0.0630  0.3213
 1010MOL0     C36228  10.596  10.251   0.745  0.0254 -0.1170  0.1553
 1010MOL0     C36229  10.590  10.404   0.743 -0.5807 -0.2266  0.4877
 1010MOL0     C36230  10.646  10.456   0.608 -0.5600 -0.3313  0.2723
 1010MOL0     C36231  10.650  10.608   0.597  0.2001 -0.4847 -0.2096
 1010MOL0     N36232  10.660  10.644   0.451 -0.2090  0.3123  0.0320
 1010MOL0     C36233  10.556  10.691   0.366 -0.1268  0.0204  0.5494
 1010MOL0     C36234  10.621  10.684   0.244 -0.6625 -0.2627 -0.4088
 1010MOL0     C36235  10.559  10.714   0.113 -0.3425 -0.7740 -0.9470
 1010MOL0     C36236  10.533  10.574   0.043  0.2878  0.3217  0.5638
 1010MOL0     C36237  10.414  10.501   0.119  0.0272 -0.4576 -0.1607
 1010MOL0     C36238  10.370  10.371   0.066 -0.6173  0.0400 -0.1205
 1010MOL0     O36239  10.227  10.343   0.057  0.0547 -0.2664  0.5929
 1010MOL0     C36240  10.138  10.334   0.165  0.7315 -0.1607 -0.0898
 1010MOL0     C36241  10.156  10.332   0.303  0.3752 -0.8701  0.2483
 1010MOL0     C36242  10.053  10.305   0.390 -0.7941  0.0322 -0.0845
 1010MOL0     C36243   9.931  10.273   0.350  1.1033 -0.0058 -1.7058
 1010MOL0     C36244   9.829  10.216   0.446 -0.3298 -0.6490 -0.7422
 1010MOL0     O36245   9.692  10.224   0.415 -0.0939 -0.2417  0.3019
 1010MOL0     C36246   9.596  10.220   0.519 -0.3924 -0.4243  0.0391
 1010MOL0     C36247   9.497  10.128   0.510 -0.5847 -1.2189 -0.0505
 1010MOL0     C36248   9.403  10.124   0.613 -0.3851  1.1618 -0.2773
 1010MOL0     C36249   9.395  10.216   0.719  0.2995 -0.3551 -0.4412
 1010MOL0     O36250   9.284  10.225   0.798  0.0248 -0.2660 -0.4900
 1010MOL0     C36251   9.166  10.175   0.739  0.4733 -0.1470 -0.3657
 1010MOL0     C36252   9.047  10.206   0.845 -0.2106 -0.1109  0.3244
 1010MOL0     C36253   8.918  10.193   0.768  0.7486  0.6667  0.7579
 1010MOL0     C36254   8.841  10.060   0.791 -0.8439  0.6005  0.7269
 1010MOL0     C36255   8.705  10.065   0.721 -0.7918 -0.1997 -0.1442
 1010MOL0     C36256   8.626   9.937   0.740 -1.3736 -0.3753 -0.3139
 1010MOL0     C36257   8.557   9.943   0.875  0.1892 -0.1259 -0.2214
 1010MOL0     C36258   8.417  10.013   0.880 -1.0617  0.3303 -0.8510
 1010MOL0    Cl36259   8.311   9.934   0.754 -0.0094 -0.5894  0.1254
 1010MOL0     C36260   9.509  10.298   0.740  0.1662 -0.0378 -0.4652
 1010MOL0     C36261   9.609  10.298   0.638  0.2401 -0.1878 -0.1042
 1010MOL0     O36262   9.881  10.169   0.549  0.3170 -0.3457  0.3836
 1010MOL0     C36263   9.898  10.275   0.217 -0.2978 -1.0653  0.0943
 1010MOL0     C36264  10.002  10.307   0.123 -0.3969 -0.1335 -1.0019
 1010MOL0     N36265  10.755  10.660   0.258 -0.1903  0.4370  0.1560
 1010MOL0     N36266  10.777  10.638   0.388 -0.1185 -1.4906 -0.1121
 1010MOL0     C36267   9.904  10.095   0.929  0.8426 -0.2580  0.2141
 1010MOL0     C36268   9.770  10.105   0.946  0.4574  1.0255 -0.6524
 1010MOL0     C36269   9.373  10.252   1.167  0.6174 -0.5703 -0.4620
 1010MOL0     C36270   9.340  10.129   1.223  0.2983  0.3715 -0.3016
 1010MOL0     C36271   9.210  10.093   1.254 -0.1396 -0.6080  0.0280
 1010MOL0     C36272   9.115  10.192   1.247 -0.1254  0.0545  0.8389
 1010MOL0     O36273   8.989  10.154   1.285  0.3962  0.1834  1.0461
 1010MOL0     C36274   8.891  10.245   1.328  0.3983 -0.2871 -0.5452
 1010MOL0     C36275   8.773  10.174   1.398  0.1571 -0.2623 -0.0706
 1010MOL0     C36276   8.661  10.123   1.299 -0.0172 -0.4920  0.4904
 1010MOL0     C36277   8.580  10.015   1.370  0.0601  0.8322  1.1006
 1010MOL0     C36278   8.445  10.028   1.315 -0.1629  0.7596 -0.1756
 1010MOL0     C36279   8.330  10.007   1.274  0.0995 -0.2669 -0.4183
 1010MOL0     C36280   9.144  10.324   1.213  0.0398  0.1783 -0.3741
 1010MOL0     C36281   9.271  10.355   1.171 -1.0839 -0.0998  0.8031
 1010MOL0     C36282   9.298  10.495   1.100  0.6245  0.1117 -0.6631
 1010MOL0     H36283   9.769  10.252   1.256 -0.8078 -0.3982 -0.2709
 1010MOL0     H36284  10.003  10.260   1.204  0.5286 -2.0319  0.7562
 1010MOL0     H36285  10.154   9.961   1.010  0.5983 -0.1015 -1.1625
 1010MOL0     H36286  10.163  10.021   0.850 -0.4901  0.7946 -0.8270
 1010MOL0     H36287  10.381   9.964   0.928  2.5016  0.7826  0.8375
 1010MOL0     H36288  10.377  10.066   1.071  1.8677 -1.4808 -0.5437
 1010MOL0     H36289  10.342  10.259   0.885  0.1290 -0.1928  2.4452
 1010MOL0     H36290  10.361  10.116   0.783  1.2042 -1.8360 -0.2528
 1010MOL0     H36291  10.594  10.222   0.969  0.3541  0.1726 -0.0027
 1010MOL0     H36292  10.599  10.077   0.875  0.9192  0.5842  0.2540
 1010MOL0     H36293  10.702  10.226   0.729  0.2514  0.4952  0.6683
 1010MOL0     H36294  10.542  10.214   0.657  0.3898 -0.1632 -0.0532
 1010MOL0     H36295  10.488  10.443   0.749  0.0109  1.2998  1.0064
 1010MOL0     H36296  10.638  10.434   0.836 -2.7769  4.5537  0.3564
 1010MOL0     H36297  10.593  10.406   0.527  0.5438 -2.0461  0.5720
 1010MOL0     H36298  10.749  10.422   0.611 -0.7458 -0.8238  1.3424
 1010MOL0     H36299  10.556  10.643   0.640  0.2338 -0.1920 -0.3741
 1010MOL0     H36300  10.732  10.660   0.648 -1.4390  2.3296 -0.2126
 1010MOL0     H36301  10.453  10.710   0.393 -0.2899  0.2367 -0.1937
 1010MOL0     H36302  10.466  10.769   0.130  1.2466  1.1513  2.8243
 1010MOL0     H36303  10.629  10.778   0.060 -0.2744  0.9141  1.0393
 1010MOL0     H36304  10.506  10.593  -0.062  0.3639  0.0824  0.4998
 1010MOL0     H36305  10.632  10.528   0.039  0.2136  0.2430 -1.7838
 1010MOL0     H36306  10.325  10.563   0.122 -0.0592 -0.5709 -0.4097
 1010MOL0     H36307  10.442  10.492   0.225  0.1162 -0.2499 -0.1662
 1010MOL0     H36308  10.431  10.289   0.105  0.6272 -0.6358 -3.1656
 1010MOL0     H36309  10.411  10.389  -0.034  2.4128  0.2971  1.0418
 1010MOL0     H36310  10.254  10.349   0.346  0.4272  0.4770 -0.3363
 1010MOL0     H36311  10.088  10.296   0.493  0.7451  0.7867 -0.5216
 1010MOL0     H36312   9.496  10.051   0.433  1.5735 -1.0639 -0.3042
 1010MOL0     H36313   9.330  10.051   0.580 -1.6371  1.5849  1.4476
 1010MOL0     H36314   9.145  10.236   0.651 -0.0260  2.6305  1.5355
 1010MOL0     H36315   9.179  10.067   0.726  0.7989 -0.4115  1.7909
 1010MOL0     H36316   9.040  10.127   0.920 -1.9411  1.2149  1.6489
 1010MOL0     H36317   9.061  10.308   0.882  1.1164 -0.3062  0.3994
 1010MOL0     H36318   8.846  10.266   0.806  0.4192  0.3590  0.7285
 1010MOL0     H36319   8.926  10.210   0.660 -0.6956 -0.9115  0.3543
 1010MOL0     H36320   8.812  10.048   0.896  1.5894  0.0333  1.3833
 1010MOL0     H36321   8.910   9.981   0.761  0.2965  1.9911 -0.5117
 1010MOL0     H36322   8.707  10.090   0.614 -5.1368  3.5751  0.3669
 1010MOL0     H36323   8.644  10.150   0.753 -0.0491  0.3158 -0.0818
 1010MOL0     H36324   8.560   9.935   0.652 -1.7091  2.5030 -0.2129
 1010MOL0     H36325   8.699   9.856   0.732  0.8878  1.6346 -1.4953
 1010MOL0     H36326   8.626   9.978   0.953 -0.1744 -0.9550  0.4926
 1010MOL0     H36327   8.535   9.840   0.903  0.8398 -1.2929 -3.5230
 1010MOL0     H36328   8.372   9.992   0.978 -0.7669 -0.2753 -0.8413
 1010MOL0     H36329   8.430  10.121   0.886  2.2845 -0.0233  0.7574
 1010MOL0     H36330   9.508  10.375   0.817 -0.4302  0.9375 -1.4313
 1010MOL0     H36331   9.694  10.365   0.645 -0.8763  1.3011 -0.3853
 1010MOL0     H36332   9.802  10.245   0.176  0.1205 -2.1226 -0.1363
 1010MOL0     H36333   9.979  10.302   0.017  1.4092  2.1914 -1.5743
 1010MOL0     H36334   9.929  10.035   0.843 -3.8720 -0.7817 -1.0522
 1010MOL0     H36335   9.688  10.078   0.880 -2.5956  2.8275  2.1050
 1010MOL0     H36336   9.412  10.047   1.221 -0.6291 -0.5439  1.5722
 1010MOL0     H36337   9.192   9.986   1.261  2.7181 -1.1842 -0.3211
 1010MOL0     H36338   8.868  10.290   1.231  0.7652 -1.5103 -1.2216
 1010MOL0     H36339   8.936  10.317   1.397  0.2959 -1.1601  0.4581
 1010MOL0     H36340   8.706  10.242   1.451 -0.4508 -2.9394  2.8779
 1010MOL0     H36341   8.801  10.085   1.455 -0.8972 -0.1685  0.6105
 1010MOL0     H36342   8.713  10.098   1.206  1.8851  1.3300  0.9658
 1010MOL0     H36343   8.601  10.212   1.283 -1.0031 -0.8852  1.8612
 1010MOL0     H36344   8.607   9.911   1.352 -0.4589  0.6806  1.1740
 1010MOL0     H36345   8.595  10.028   1.478  0.4176  1.4059  0.9854
 1010MOL0     H36346   8.236  10.001   1.223 -0.1780  0.5019 -0.0182
 1010MOL0     H36347   9.062  10.394   1.198 -2.4347 -2.2402  0.8981
 1010MOL0     H36348   9.216  10.560   1.133  0.8384 -0.5693  1.3471
 1010MOL0     H36349   9.388  10.543   1.139 -1.5205  2.1639  2.1635
 1010MOL0     H36350   9.301  10.485   0.991  1.5055 -1.3373 -0.5445
 1011MOL0     O36351   8.013   5.614   5.799  0.1133  0.3813  0.0503
 1011MOL0     C36352   7.925   5.687   5.758 -0.0614  0.0401 -0.2219
 1011MOL0     O36353   7.945   5.801   5.677  0.1379 -0.6001 -0.3026
 1011MOL0     C36354   8.073   5.812   5.622  0.2229 -0.7568  1.0418
 1011MOL0     C36355   8.088   5.792   5.485 -0.2076  0.1437  0.3185
 1011MOL0     C36356   8.220   5.812   5.424 -0.2609  0.3699 -0.5889
 1011MOL0     C36357   8.330   5.851   5.500 -0.6340 -0.3969  0.3004
 1011MOL0     O36358   8.456   5.900   5.454  0.1170 -0.0106 -0.2332
 1011MOL0     C36359   8.479   5.879   5.314  0.0543 -0.2326 -0.3322
 1011MOL0     C36360   8.603   5.949   5.271 -0.4049 -0.4880 -0.3492
 1011MOL0     C36361   8.729   5.861   5.305 -0.2197 -0.1732 -0.8436
 1011MOL0     C36362   8.851   5.934   5.259  0.0390  0.0595 -0.2121
 1011MOL0     C36363   8.969   5.903   5.336  0.6559 -0.0179 -0.3388
 1011MOL0     C36364   9.094   5.976   5.290  0.2273 -0.4580 -0.5800
 1011MOL0     C36365   9.144   5.905   5.170 -0.1805  0.0627  0.8589
 1011MOL0     C36366   9.273   5.962   5.107  0.0619  0.4857  0.2394
 1011MOL0     N36367   9.274   5.917   4.965 -0.1589 -0.1070  0.1515
 1011MOL0     C36368   9.281   5.790   4.905  0.6253  0.4858 -0.2036
 1011MOL0     C36369   9.315   5.819   4.779 -1.1048 -0.3303  0.2624
 1011MOL0     C36370   9.359   5.722   4.672 -0.3216  0.2870 -0.7780
 1011MOL0     C36371   9.511   5.713   4.646  0.2300  0.0114  0.3183
 1011MOL0     C36372   9.577   5.637   4.763 -0.4059 -0.1704  0.5985
 1011MOL0     C36373   9.724   5.616   4.746 -0.5710 -0.9205  0.1772
 1011MOL0     O36374   9.790   5.741   4.713  0.3058  0.4362  0.1831
 1011MOL0     C36375   9.925   5.746   4.670 -0.0773  0.4911  0.7299
 1011MOL0     C36376   9.961   5.862   4.600 -0.1316  0.5102 -0.5888
 1011MOL0     C36377  10.091   5.868   4.538  0.1329  0.3124 -0.7889
 1011MOL0     C36378  10.190   5.773   4.550  0.3510 -0.6245 -1.1434
 1011MOL0     C36379  10.314   5.784   4.479 -0.0669  0.1971 -0.1881
 1011MOL0     O36380  10.411   5.695   4.518  0.5757 -0.1426 -0.7928
 1011MOL0     C36381  10.535   5.696   4.463 -0.7040 -0.0869  0.9899
 1011MOL0     C36382  10.634   5.766   4.517  0.0506  0.2103  0.2406
 1011MOL0     C36383  10.758   5.782   4.455 -0.6566  0.1747 -0.0759
 1011MOL0     C36384  10.785   5.714   4.332  0.4545  0.2779  0.0804
 1011MOL0     O36385  10.907   5.696   4.278 -1.0500 -0.2730 -0.3947
 1011MOL0     C36386  11.032   5.741   4.351 -0.1217 -0.1131  0.2079
 1011MOL0     C36387  11.159   5.734   4.261 -0.5387 -0.0277  0.2791
 1011MOL0     C36388  11.276   5.715   4.359 -0.6556  0.7982 -0.2430
 1011MOL0     C36389  11.403   5.723   4.270  0.5302 -0.0895  0.1440
 1011MOL0     C36390  11.524   5.741   4.353  0.7624  0.5184  0.0668
 1011MOL0     C36391  11.554   5.603   4.421 -0.7261 -0.2229 -0.4475
 1011MOL0     C36392  11.684   5.603   4.493  0.8400 -0.0728 -1.0074
 1011MOL0     C36393  11.795   5.672   4.433 -0.1909 -0.5249  0.7968
 1011MOL0    Cl36394  11.949   5.654   4.517 -0.3216 -0.0907 -0.0065
 1011MOL0     C36395  10.679   5.644   4.273 -0.0488  0.0359  0.6736
 1011MOL0     C36396  10.551   5.634   4.334  0.0151 -0.9229  1.0597
 1011MOL0     O36397  10.332   5.867   4.387 -0.3728 -0.1760 -0.4723
 1011MOL0     C36398  10.153   5.661   4.626 -1.3721  0.1086 -0.8656
 1011MOL0     C36399  10.026   5.645   4.681 -0.4815  0.1833  0.6412
 1011MOL0     N36400   9.331   5.961   4.760 -0.2663 -0.0280 -0.2885
 1011MOL0     N36401   9.303   6.010   4.874  0.0646 -0.5188  0.1588
 1011MOL0     C36402   8.310   5.852   5.642  0.1715  0.0226  0.3132
 1011MOL0     C36403   8.187   5.835   5.699  0.2099  0.5957 -0.2760
 1011MOL0     C36404   7.788   5.691   5.817  0.2986 -0.1749  0.0142
 1011MOL0     C36405   7.694   5.792   5.785 -0.3963  0.7554  0.2026
 1011MOL0     C36406   7.571   5.804   5.848 -0.7737 -0.3241 -0.0819
 1011MOL0     C36407   7.530   5.717   5.953  0.4028 -0.0460 -0.1378
 1011MOL0     O36408   7.411   5.745   6.022  0.6854 -0.7710  0.2130
 1011MOL0     C36409   7.310   5.636   6.015 -0.5171 -0.9558  0.2471
 1011MOL0     C36410   7.165   5.687   6.009  0.4994 -0.0192  0.0020
 1011MOL0     C36411   7.122   5.752   6.141  0.5576 -0.4514  0.1604
 1011MOL0     C36412   6.973   5.767   6.158  0.0035 -1.0074 -0.9291
 1011MOL0     C36413   6.903   5.821   6.050  0.1777 -0.5635  0.5634
 1011MOL0     C36414   6.854   5.882   5.959  0.7859 -0.2724 -0.0507
 1011MOL0     C36415   7.603   5.604   5.974 -0.2833 -0.3809  0.0283
 1011MOL0     C36416   7.735   5.586   5.907 -0.1249 -0.3909 -0.8691
 1011MOL0     C36417   7.808   5.468   5.957  0.8430  0.3807  0.0159
 1011MOL0     H36418   8.009   5.792   5.410 -1.1847  0.8890  1.3180
 1011MOL0     H36419   8.226   5.789   5.318 -1.8501  2.5573 -1.2292
 1011MOL0     H36420   8.488   5.770   5.304  0.1617 -0.6371  2.9139
 1011MOL0     H36421   8.396   5.908   5.250  1.2770  0.4404 -1.6886
 1011MOL0     H36422   8.601   6.041   5.331 -1.3481  0.9095 -2.4121
 1011MOL0     H36423   8.617   5.971   5.165  0.7802 -0.2063 -0.1549
 1011MOL0     H36424   8.727   5.762   5.258  3.9539 -0.2751 -1.1144
 1011MOL0     H36425   8.734   5.838   5.412  0.3267  0.7384 -0.6725
 1011MOL0     H36426   8.863   5.908   5.153 -2.2339  1.4557 -0.8950
 1011MOL0     H36427   8.833   6.042   5.253 -1.8412 -0.2835 -3.7884
 1011MOL0     H36428   8.948   5.945   5.435  0.6734 -0.9748  0.0850
 1011MOL0     H36429   8.988   5.796   5.345  2.0490  0.2984  1.0323
 1011MOL0     H36430   9.062   6.072   5.247 -1.8140 -0.8953 -0.1245
 1011MOL0     H36431   9.171   5.988   5.367 -1.2642  3.3472  0.5715
 1011MOL0     H36432   9.073   5.906   5.086  2.6207 -2.5147 -1.8198
 1011MOL0     H36433   9.153   5.800   5.201  0.1813 -0.6004 -1.3329
 1011MOL0     H36434   9.279   6.071   5.110 -0.6486  0.6478 -2.3162
 1011MOL0     H36435   9.355   5.914   5.162 -1.5212  0.8574  3.1412
 1011MOL0     H36436   9.252   5.697   4.952  0.4572 -0.2924 -1.7761
 1011MOL0     H36437   9.330   5.619   4.694 -0.0901  0.0085 -1.7454
 1011MOL0     H36438   9.311   5.746   4.577  1.0730  1.9673 -1.0955
 1011MOL0     H36439   9.516   5.651   4.556 -0.2261 -0.3114  0.5122
 1011MOL0     H36440   9.559   5.806   4.615 -0.1796  0.3459  0.6764
 1011MOL0     H36441   9.527   5.545   4.794 -2.1136 -0.0267 -1.5038
 1011MOL0     H36442   9.563   5.709   4.845 -2.5132  2.8875 -2.2067
 1011MOL0     H36443   9.733   5.529   4.679 -4.3121 -0.1033 -1.6359
 1011MOL0     H36444   9.768   5.593   4.844 -2.2125  0.7729  1.3703
 1011MOL0     H36445   9.881   5.935   4.596 -1.2046 -0.6613 -4.0121
 1011MOL0     H36446  10.106   5.958   4.479  0.5822 -0.0035 -1.1655
 1011MOL0     H36447  10.609   5.800   4.618  1.2836 -1.2591  1.0775
 1011MOL0     H36448  10.833   5.845   4.500 -0.8116 -1.4485  2.6444
 1011MOL0     H36449  11.028   5.847   4.376  4.3094 -0.1848  2.1725
 1011MOL0     H36450  11.042   5.688   4.446  1.9552 -1.0825 -0.4808
 1011MOL0     H36451  11.155   5.654   4.187  1.2087  0.2514 -0.1661
 1011MOL0     H36452  11.167   5.823   4.198 -3.3171 -0.5489 -0.9710
 1011MOL0     H36453  11.282   5.801   4.426 -4.7384  0.6297  0.6000
 1011MOL0     H36454  11.276   5.621   4.415  0.0343  0.6816 -0.4245
 1011MOL0     H36455  11.395   5.818   4.215 -0.0030  0.2368  0.7802
 1011MOL0     H36456  11.395   5.646   4.193 -2.8571  1.5275 -1.3536
 1011MOL0     H36457  11.501   5.821   4.424  1.4350 -0.3106  1.2609
 1011MOL0     H36458  11.608   5.761   4.285  1.5931 -1.0055  0.5779
 1011MOL0     H36459  11.474   5.580   4.491  1.1368 -1.2764  1.4603
 1011MOL0     H36460  11.563   5.514   4.359  1.4037 -1.7785  1.8826
 1011MOL0     H36461  11.722   5.505   4.521 -0.0618 -0.5513 -1.4138
 1011MOL0     H36462  11.665   5.662   4.583 -0.8529 -0.3920 -1.1206
 1011MOL0     H36463  11.811   5.646   4.328  1.5504 -0.5451  1.0377
 1011MOL0     H36464  11.773   5.779   4.435  3.2143  0.3184  0.1942
 1011MOL0     H36465  10.692   5.582   4.186 -1.3019  0.5263  0.1080
 1011MOL0     H36466  10.469   5.588   4.280  0.8042  0.4447 -1.5271
 1011MOL0     H36467  10.229   5.584   4.635  0.1259  1.5373 -0.7920
 1011MOL0     H36468  10.012   5.547   4.726 -0.0253 -0.4726 -0.5964
 1011MOL0     H36469   8.400   5.867   5.701  1.2627 -0.9003 -1.0374
 1011MOL0     H36470   8.171   5.839   5.806 -1.4645  0.2331 -0.4784
 1011MOL0     H36471   7.715   5.866   5.709 -1.3588 -0.4180 -1.2661
 1011MOL0     H36472   7.501   5.885   5.827 -2.3296 -1.4714  0.5360
 1011MOL0     H36473   7.329   5.576   6.104  1.0472  1.6011  1.7710
 1011MOL0     H36474   7.326   5.571   5.928 -0.1088 -0.0288 -0.3892
 1011MOL0     H36475   7.095   5.605   5.989  0.2504  0.3078 -0.5096
 1011MOL0     H36476   7.163   5.761   5.928  0.7363 -1.8075 -1.7119
 1011MOL0     H36477   7.169   5.850   6.152 -2.3904  0.9226  1.6630
 1011MOL0     H36478   7.164   5.687   6.217  0.2394 -1.6728 -0.6757
 1011MOL0     H36479   6.935   5.668   6.188  2.6196 -1.9015 -0.2879
 1011MOL0     H36480   6.945   5.831   6.242  2.0038 -2.3005  0.8268
 1011MOL0     H36481   6.829   5.944   5.876  1.9534  2.0803  1.2246
 1011MOL0     H36482   7.571   5.532   6.048  0.2449 -1.2249 -0.5387
 1011MOL0     H36483   7.811   5.480   6.066  1.2660  0.8094 -0.0388
 1011MOL0     H36484   7.744   5.383   5.932  1.4250  0.5320 -2.1684
 1011MOL0     H36485   7.911   5.451   5.923  0.3742  0.3283 -1.4283
 1012MOL0     O36486  10.413  10.872   0.837  0.1764 -0.0354  0.1622
 1012MOL0     C36487  10.444  10.906   0.724  0.6456 -0.5853  0.6349
 1012MOL0     O36488  10.568  10.945   0.694 -0.1028  0.2592  1.1136
 1012MOL0     C36489  10.662  10.966   0.793  0.0781  0.0540  0.8480
 1012MOL0     C36490  10.791  10.925   0.752 -0.0207 -0.8067  0.4992
 1012MOL0     C36491  10.900  10.945   0.846 -0.2021  0.3324  0.3745
 1012MOL0     C36492  10.882  11.009   0.967 -0.4678  0.2871  0.5570
 1012MOL0     O36493  10.989  11.046   1.047 -0.7079  0.2490 -0.2620
 1012MOL0     C36494  11.108  11.087   0.977  0.4802 -0.3527 -0.7301
 1012MOL0     C36495  11.213  11.121   1.080  0.2714  0.6184 -0.9019
 1012MOL0     C36496  11.353  11.139   1.021  0.9494 -0.2720 -0.1939
 1012MOL0     C36497  11.454  11.143   1.126  0.1448 -0.1419 -0.4593
 1012MOL0     C36498  11.576  11.225   1.087 -0.2706  0.4042  0.3703
 1012MOL0     C36499  11.654  11.176   0.965  0.3264  0.1742  0.2243
 1012MOL0     C36500  11.704  11.035   1.002  0.5018 -0.0982  0.4052
 1012MOL0     C36501  11.795  10.976   0.886  0.2245 -0.1209 -0.0017
 1012MOL0     N36502  11.711  10.914   0.782 -0.3528 -0.0782 -0.0140
 1012MOL0     C36503  11.723  10.776   0.767  0.6594 -0.0531  0.1402
 1012MOL0     C36504  11.656  10.750   0.650  0.9891  0.5005  0.2074
 1012MOL0     C36505  11.641  10.609   0.596  0.1759 -0.2418  0.8779
 1012MOL0     C36506  11.724  10.605   0.467  0.1942  0.3699  0.7707
 1012MOL0     C36507  11.722  10.471   0.391 -0.4044  1.1114 -0.5782
 1012MOL0     C36508  11.828  10.372   0.444  0.1426 -0.5019  0.0696
 1012MOL0     O36509  11.955  10.427   0.415 -0.5835  0.6724 -0.0758
 1012MOL0     C36510  12.066  10.339   0.420  0.1927 -0.0392 -1.1039
 1012MOL0     C36511  12.189  10.383   0.382  0.4286  0.3054 -0.0320
 1012MOL0     C36512  12.311  10.321   0.413 -0.3334  0.9712 -0.9392
 1012MOL0     C36513  12.307  10.199   0.490 -0.2303  0.4173 -0.3510
 1012MOL0     C36514  12.436  10.140   0.530  0.6809  0.9596 -0.4324
 1012MOL0     O36515  12.556  10.196   0.483 -0.3066  0.4585  0.4091
 1012MOL0     C36516  12.678  10.153   0.525  0.0103  0.1886 -0.1299
 1012MOL0     C36517  12.774  10.247   0.478  0.8087 -0.5674 -0.6128
 1012MOL0     C36518  12.907  10.230   0.511 -0.4927  0.1848 -0.4305
 1012MOL0     C36519  12.945  10.127   0.589 -0.4259 -0.5034 -0.7901
 1012MOL0     O36520  13.080  10.111   0.625  0.9166  0.1560 -0.4612
 1012MOL0     C36521  13.123  10.190   0.748  0.2357  0.4485  0.0076
 1012MOL0     C36522  13.270  10.221   0.727  0.8775  0.1477  0.6754
 1012MOL0     C36523  13.313  10.294   0.846  0.5069  0.4152 -0.9756
 1012MOL0     C36524  13.463  10.342   0.834  0.1647 -0.2466  0.4695
 1012MOL0     C36525  13.573  10.240   0.844 -0.1071  1.0880  0.4126
 1012MOL0     C36526  13.717  10.300   0.830  0.1719 -0.1941  0.3431
 1012MOL0     C36527  13.729  10.398   0.713 -0.0076 -0.0625  0.3362
 1012MOL0     C36528  13.873  10.411   0.661 -1.2050  0.3733  0.0027
 1012MOL0    Cl36529  14.004  10.458   0.792  0.2030  0.3279  0.1546
 1012MOL0     C36530  12.852  10.038   0.639  0.2558  0.4476  0.5770
 1012MOL0     C36531  12.718  10.047   0.604  0.8151  0.5930  0.1155
 1012MOL0     O36532  12.427  10.022   0.573 -0.0065  0.0826  0.0811
 1012MOL0     C36533  12.181  10.146   0.512 -0.1461  0.1785 -0.2125
 1012MOL0     C36534  12.062  10.213   0.492  0.2285 -0.4622 -0.8753
 1012MOL0     N36535  11.610  10.864   0.594 -0.9775  0.4900  0.6743
 1012MOL0     N36536  11.643  10.960   0.674  0.9133  0.1066 -0.1716
 1012MOL0     C36537  10.756  11.062   0.999 -0.0788 -0.6703  0.0054
 1012MOL0     C36538  10.647  11.042   0.910 -0.6719 -0.4182  0.0153
 1012MOL0     C36539  10.337  10.896   0.617  0.7057 -0.1120  0.0491
 1012MOL0     C36540  10.363  10.965   0.499  0.1815  0.1825  0.5094
 1012MOL0     C36541  10.281  10.960   0.390  0.7387 -1.1988 -0.8996
 1012MOL0     C36542  10.163  10.887   0.390 -0.2590 -0.2767  0.5361
 1012MOL0     O36543  10.098  10.891   0.264 -0.8147 -0.3825 -0.0457
 1012MOL0     C36544  10.035  10.762   0.229  0.2510  0.1536  0.9569
 1012MOL0     C36545   9.881  10.771   0.235 -0.3617 -0.1956 -0.4484
 1012MOL0     C36546   9.844  10.630   0.198 -0.1882  0.4219  0.2676
 1012MOL0     C36547   9.692  10.612   0.199  0.4234 -0.0909  0.8607
 1012MOL0     C36548   9.628  10.594   0.331  0.0571 -0.0341  1.2844
 1012MOL0     C36549   9.589  10.585   0.443 -0.3262  0.4979 -1.3798
 1012MOL0     C36550  10.138  10.820   0.513 -0.6723  0.5406  0.5126
 1012MOL0     C36551  10.223  10.806   0.619 -0.5554 -0.0451 -0.0872
 1012MOL0     C36552  10.198  10.700   0.713 -0.8777  0.2238 -0.2659
 1012MOL0     H36553  10.814  10.877   0.657  2.1954 -1.5565  1.3504
 1012MOL0     H36554  11.002  10.915   0.823  0.3016 -2.0173  4.5249
 1012MOL0     H36555  11.150  11.010   0.911  0.0700 -0.5122 -0.8108
 1012MOL0     H36556  11.089  11.180   0.923 -0.9225  0.1059  0.5003
 1012MOL0     H36557  11.225  11.033   1.145  3.3147  0.9876 -0.7990
 1012MOL0     H36558  11.170  11.199   1.144 -2.5655 -0.2611 -1.6034
 1012MOL0     H36559  11.352  11.232   0.963  2.3981 -0.3800 -0.4293
 1012MOL0     H36560  11.380  11.056   0.956 -0.5745 -1.1681  0.2686
 1012MOL0     H36561  11.418  11.192   1.218  2.6564  0.8602  0.0847
 1012MOL0     H36562  11.481  11.043   1.162  0.6600  0.0117 -0.4183
 1012MOL0     H36563  11.539  11.326   1.065  3.6419  1.8601 -0.3039
 1012MOL0     H36564  11.643  11.226   1.174 -1.1964 -2.2771  1.2172
 1012MOL0     H36565  11.591  11.168   0.875 -1.1888  3.8079  0.7919
 1012MOL0     H36566  11.733  11.248   0.942  0.5721 -0.0260  0.4327
 1012MOL0     H36567  11.624  10.963   1.020  0.6765 -0.0734  1.3198
 1012MOL0     H36568  11.759  11.031   1.096  1.5214  2.4090  0.0063
 1012MOL0     H36569  11.863  11.053   0.850 -0.3566 -0.2085 -1.3459
 1012MOL0     H36570  11.851  10.903   0.946  0.9317  0.4079 -0.0103
 1012MOL0     H36571  11.768  10.699   0.828 -1.7559  0.0883  2.3009
 1012MOL0     H36572  11.686  10.536   0.664 -0.5417 -0.0659  1.5489
 1012MOL0     H36573  11.537  10.578   0.588 -0.7679  2.7102  0.8841
 1012MOL0     H36574  11.667  10.663   0.394  0.1810 -1.6659 -0.9326
 1012MOL0     H36575  11.824  10.647   0.480  0.2994  0.9471 -1.5197
 1012MOL0     H36576  11.739  10.486   0.284 -1.0294 -0.8658 -0.9929
 1012MOL0     H36577  11.622  10.426   0.391 -0.8539  2.0045 -2.2953
 1012MOL0     H36578  11.812  10.278   0.389  1.1094 -0.2389 -0.6941
 1012MOL0     H36579  11.811  10.354   0.550  0.5587 -0.7571  0.0939
 1012MOL0     H36580  12.194  10.482   0.336  2.0001  0.3758  0.2465
 1012MOL0     H36581  12.407  10.363   0.388  1.8037 -2.1297  1.3731
 1012MOL0     H36582  12.734  10.341   0.441  0.4568  1.0902  3.5028
 1012MOL0     H36583  12.978  10.310   0.493 -1.0517  1.5518  2.6981
 1012MOL0     H36584  13.067  10.284   0.753 -0.7912 -0.0375 -1.6454
 1012MOL0     H36585  13.114  10.133   0.840  0.6504  2.9746  1.7277
 1012MOL0     H36586  13.320  10.125   0.712 -0.0918  0.0152 -2.2971
 1012MOL0     H36587  13.285  10.280   0.636  2.9108 -2.1411 -0.5909
 1012MOL0     H36588  13.246  10.379   0.862  0.5933  0.6777 -1.9111
 1012MOL0     H36589  13.297  10.232   0.934 -1.6064 -2.3372 -3.0889
 1012MOL0     H36590  13.485  10.427   0.899 -0.3267  1.5958 -1.6624
 1012MOL0     H36591  13.474  10.386   0.735 -1.9986 -0.3552  0.1292
 1012MOL0     H36592  13.558  10.170   0.762  2.2641  1.3293 -0.3025
 1012MOL0     H36593  13.553  10.197   0.942 -4.2636 -1.8531 -1.4601
 1012MOL0     H36594  13.743  10.359   0.919  3.7222 -2.9813  1.3963
 1012MOL0     H36595  13.797  10.227   0.817 -0.0698 -0.2678 -0.7700
 1012MOL0     H36596  13.688  10.497   0.734 -0.3780  0.7070 -3.3404
 1012MOL0     H36597  13.673  10.367   0.625 -0.0871 -2.8791  1.2834
 1012MOL0     H36598  13.887  10.311   0.618 -0.7726 -0.1045  1.1956
 1012MOL0     H36599  13.873  10.494   0.590  2.0067 -0.5133 -1.2057
 1012MOL0     H36600  12.878   9.962   0.711  1.3763  1.2521  1.0342
 1012MOL0     H36601  12.648   9.976   0.647  0.5267  1.4538  1.1256
 1012MOL0     H36602  12.180  10.046   0.553  3.2466 -0.8330 -2.2455
 1012MOL0     H36603  11.969  10.168   0.525 -0.7257  2.8969  1.4406
 1012MOL0     H36604  10.742  11.118   1.090 -1.4385 -1.6818  0.4609
 1012MOL0     H36605  10.546  11.077   0.933  0.8854  3.2447  2.2291
 1012MOL0     H36606  10.456  11.020   0.495  1.6308 -2.1559 -0.4240
 1012MOL0     H36607  10.309  11.040   0.321  1.0812 -0.0083  0.5710
 1012MOL0     H36608  10.081  10.671   0.269  1.4652  0.2330 -0.1831
 1012MOL0     H36609  10.075  10.738   0.129  3.6979 -1.3935  2.5207
 1012MOL0     H36610   9.841  10.854   0.176 -2.9413 -0.6361  0.5469
 1012MOL0     H36611   9.847  10.793   0.336  2.2287  0.2811  0.3921
 1012MOL0     H36612   9.889  10.561   0.270 -0.0457  1.6422  1.4012
 1012MOL0     H36613   9.875  10.599   0.098  2.0821  0.4447  0.8976
 1012MOL0     H36614   9.636  10.695   0.155 -1.7306 -0.7580  2.1972
 1012MOL0     H36615   9.672  10.527   0.133 -1.2626 -0.1431  1.3997
 1012MOL0     H36616   9.546  10.565   0.539  0.7929 -0.2106 -1.0085
 1012MOL0     H36617  10.045  10.764   0.512  0.4650 -1.4588  0.1798
 1012MOL0     H36618  10.268  10.619   0.690 -2.0112 -1.7538  2.6074
 1012MOL0     H36619  10.217  10.746   0.810 -1.1738  0.9975 -0.5703
 1012MOL0     H36620  10.093  10.670   0.711 -0.6390 -0.6271 -0.3857
 1013MOL0     O36621  10.457   5.781   2.621  0.0237  1.0599 -0.2786
 1013MOL0     C36622  10.516   5.766   2.516 -0.5582 -0.2984  0.9906
 1013MOL0     O36623  10.517   5.646   2.444 -0.0752  0.5898 -0.2626
 1013MOL0     C36624  10.422   5.542   2.472 -0.2644  0.4258 -0.1542
 1013MOL0     C36625  10.292   5.568   2.519  0.0013  0.5500 -0.0821
 1013MOL0     C36626  10.201   5.468   2.540  0.0927 -0.2113 -0.2449
 1013MOL0     C36627  10.242   5.332   2.512  0.3822 -0.7472 -0.1592
 1013MOL0     O36628  10.153   5.222   2.528 -0.4304 -0.0784  0.3472
 1013MOL0     C36629  10.096   5.215   2.663 -0.6549 -0.7843  0.1990
 1013MOL0     C36630  10.121   5.086   2.723  1.0043  0.8007 -0.3098
 1013MOL0     C36631  10.265   5.048   2.750 -1.2101  0.0284 -0.3225
 1013MOL0     C36632  10.279   4.922   2.838 -0.6365  0.1174  0.7161
 1013MOL0     C36633  10.420   4.880   2.879  0.1878  0.7487 -0.7505
 1013MOL0     C36634  10.498   4.986   2.955  0.7523  0.5448 -0.7294
 1013MOL0     C36635  10.617   4.937   3.034 -0.2857  0.1706 -0.0398
 1013MOL0     C36636  10.715   4.863   2.950  0.1201 -1.4167 -0.2149
 1013MOL0     N36637  10.771   4.954   2.854  0.3696  0.0584  0.0453
 1013MOL0     C36638  10.723   4.978   2.727  0.5770 -0.3194 -0.2393
 1013MOL0     C36639  10.775   5.092   2.677  0.1630 -1.0328 -0.1201
 1013MOL0     C36640  10.755   5.166   2.549 -0.1912  0.0796 -0.2818
 1013MOL0     C36641  10.850   5.119   2.435  0.4654  0.2242 -0.2213
 1013MOL0     C36642  10.889   4.977   2.425 -0.5385  0.4081 -0.1603
 1013MOL0     C36643  10.993   4.944   2.321 -0.8381  0.4123  0.1492
 1013MOL0     O36644  11.109   5.035   2.331  0.1552 -0.0836  1.1032
 1013MOL0     C36645  11.235   4.973   2.305 -0.2830  0.0082 -0.0692
 1013MOL0     C36646  11.269   4.866   2.215  0.2626 -0.8344 -0.5659
 1013MOL0     C36647  11.406   4.834   2.195 -0.0794 -0.5852  0.1358
 1013MOL0     C36648  11.500   4.894   2.274  0.5129  0.4387 -0.0965
 1013MOL0     C36649  11.643   4.852   2.253 -0.5831 -0.0156 -0.3076
 1013MOL0     O36650  11.740   4.926   2.333 -0.4964  0.4340  0.5617
 1013MOL0     C36651  11.866   4.882   2.306  0.4428 -0.4754 -0.5858
 1013MOL0     C36652  11.973   4.979   2.294 -0.0669  0.6360  0.3637
 1013MOL0     C36653  12.106   4.942   2.279 -0.3790 -0.1869 -0.0766
 1013MOL0     C36654  12.138   4.806   2.277 -0.4633 -0.0016 -0.0888
 1013MOL0     O36655  12.265   4.767   2.259 -1.0475  0.9030  0.3877
 1013MOL0     C36656  12.337   4.692   2.359  0.2553  0.4710  0.3416
 1013MOL0     C36657  12.483   4.720   2.355 -0.2775 -0.0608  0.3884
 1013MOL0     C36658  12.556   4.665   2.237 -0.7780 -0.2890  0.0538
 1013MOL0     C36659  12.708   4.663   2.266  0.3459  0.4117 -0.3130
 1013MOL0     C36660  12.795   4.631   2.150  1.1170  0.5280  0.4930
 1013MOL0     C36661  12.945   4.623   2.180  0.3640 -0.2464  0.0835
 1013MOL0     C36662  13.043   4.646   2.064 -0.1912  0.5003 -0.2897
 1013MOL0     C36663  13.194   4.667   2.099  0.3536 -0.6222  0.7748
 1013MOL0    Cl36664  13.247   4.560   2.233  0.1374 -0.5508 -0.1263
 1013MOL0     C36665  12.040   4.717   2.299  0.2081 -0.2163 -0.2332
 1013MOL0     C36666  11.901   4.745   2.316 -0.2354 -0.4488  0.5996
 1013MOL0     O36667  11.665   4.776   2.152  0.1263  0.2300 -0.7394
 1013MOL0     C36668  11.465   4.992   2.369 -0.3791 -0.9134  0.0724
 1013MOL0     C36669  11.336   5.040   2.373 -0.2636  0.7245  0.3722
 1013MOL0     N36670  10.860   5.126   2.774  0.1089 -0.0961 -0.4873
 1013MOL0     N36671  10.847   5.057   2.885 -0.7747  0.1224 -0.7236
 1013MOL0     C36672  10.371   5.308   2.459 -0.0405  0.3190  1.0898
 1013MOL0     C36673  10.465   5.411   2.447  0.3812  0.3025  0.1205
 1013MOL0     C36674  10.599   5.880   2.466  0.8268 -0.0662 -0.5015
 1013MOL0     C36675  10.690   5.844   2.362 -0.4223  0.5128  1.3528
 1013MOL0     C36676  10.784   5.932   2.315 -0.2505  0.1092 -0.5891
 1013MOL0     C36677  10.797   6.057   2.376 -0.5361  0.4015  0.1849
 1013MOL0     O36678  10.902   6.144   2.346 -0.0997  0.8524  0.5414
 1013MOL0     C36679  10.899   6.203   2.213 -0.5877  0.8407  0.6180
 1013MOL0     C36680  10.988   6.321   2.182  0.3710 -0.7231 -0.0304
 1013MOL0     C36681  10.989   6.361   2.036  0.3641  0.0315 -0.0919
 1013MOL0     C36682  11.100   6.465   2.006  1.0388 -0.4259  0.4507
 1013MOL0     C36683  11.076   6.597   2.061  0.8410  0.0074 -0.4869
 1013MOL0     C36684  11.076   6.689   2.146 -1.1972  0.1842  0.8519
 1013MOL0     C36685  10.707   6.089   2.480  1.6183 -1.3095  0.2320
 1013MOL0     C36686  10.611   6.008   2.521  0.2251 -1.2449  0.5318
 1013MOL0     C36687  10.506   6.053   2.630 -0.1957 -0.6644  1.1456
 1013MOL0     H36688  10.269   5.673   2.532  2.6571  1.5035 -2.1854
 1013MOL0     H36689  10.102   5.486   2.582 -1.7175 -4.4782 -2.0611
 1013MOL0     H36690  10.134   5.293   2.729 -0.2793 -2.3810  1.9755
 1013MOL0     H36691   9.988   5.233   2.662 -0.2373  2.1286 -0.2049
 1013MOL0     H36692  10.078   5.011   2.656  0.4225  1.0924 -0.2664
 1013MOL0     H36693  10.063   5.088   2.815  0.1971 -3.1031 -0.5732
 1013MOL0     H36694  10.305   5.139   2.796 -0.0027 -0.5472 -0.2016
 1013MOL0     H36695  10.325   5.039   2.659 -0.3288 -0.3404  0.2818
 1013MOL0     H36696  10.205   4.924   2.919 -0.3969  0.3138  0.9357
 1013MOL0     H36697  10.247   4.845   2.767  2.9899  2.1447 -3.6054
 1013MOL0     H36698  10.403   4.798   2.949 -2.6577  2.6071  0.9327
 1013MOL0     H36699  10.470   4.837   2.791 -3.0204 -2.2680 -1.3327
 1013MOL0     H36700  10.536   5.060   2.885 -0.0039  0.8240 -0.8546
 1013MOL0     H36701  10.425   5.032   3.022 -2.2965 -0.1380 -3.3208
 1013MOL0     H36702  10.583   4.868   3.113 -0.7406 -4.2960 -3.7123
 1013MOL0     H36703  10.671   5.016   3.087  1.5121 -0.9308 -0.1782
 1013MOL0     H36704  10.804   4.836   3.008  0.7048 -0.9607 -0.8695
 1013MOL0     H36705  10.670   4.772   2.911  2.1687 -1.5761 -2.4263
 1013MOL0     H36706  10.660   4.908   2.673  1.0322  0.3437 -1.6790
 1013MOL0     H36707  10.651   5.151   2.519 -0.1944  2.2464 -1.5375
 1013MOL0     H36708  10.776   5.273   2.563  0.9993  0.7792 -5.2772
 1013MOL0     H36709  10.802   5.153   2.343 -0.3766 -2.1538 -0.7317
 1013MOL0     H36710  10.942   5.178   2.434 -0.2543  1.3744 -0.1779
 1013MOL0     H36711  10.795   4.924   2.406 -2.0195  2.8081 -0.0293
 1013MOL0     H36712  10.918   4.942   2.524 -1.4627 -0.0282 -0.0382
 1013MOL0     H36713  10.952   4.959   2.221  1.5193 -0.5563 -1.0163
 1013MOL0     H36714  11.020   4.838   2.326 -1.9313  0.0904 -0.3514
 1013MOL0     H36715  11.208   4.810   2.145  0.4833  0.5845 -1.9227
 1013MOL0     H36716  11.431   4.750   2.132 -0.5373 -0.2018 -0.5666
 1013MOL0     H36717  11.958   5.087   2.286 -2.1000  0.4183  0.5125
 1013MOL0     H36718  12.177   5.023   2.264  2.4141 -2.1849  1.4898
 1013MOL0     H36719  12.310   4.734   2.457  0.9345  3.3035 -0.5722
 1013MOL0     H36720  12.324   4.585   2.342  3.6565 -0.3050  1.7766
 1013MOL0     H36721  12.498   4.829   2.358  2.3005 -0.3831  1.5903
 1013MOL0     H36722  12.513   4.667   2.446 -0.9546  0.2311  0.7860
 1013MOL0     H36723  12.521   4.563   2.215  1.7581 -1.0242 -0.9764
 1013MOL0     H36724  12.535   4.728   2.150  0.4556 -0.4247 -0.3474
 1013MOL0     H36725  12.733   4.579   2.331  0.4052  1.9078  1.7183
 1013MOL0     H36726  12.739   4.751   2.323 -0.5021 -0.3519  1.3933
 1013MOL0     H36727  12.785   4.698   2.064  0.0291 -1.5442 -1.0730
 1013MOL0     H36728  12.758   4.539   2.105 -1.0082  1.1021  0.9765
 1013MOL0     H36729  12.973   4.690   2.262 -0.5722  0.4915 -0.1871
 1013MOL0     H36730  12.964   4.520   2.212 -1.2803 -1.3282 -2.1349
 1013MOL0     H36731  13.011   4.744   2.025 -0.2562  3.0997  5.2826
 1013MOL0     H36732  13.036   4.578   1.979  2.0609 -0.7871  0.4729
 1013MOL0     H36733  13.250   4.636   2.011 -0.5912  0.4160 -0.2334
 1013MOL0     H36734  13.219   4.770   2.125 -1.3777 -0.9331  4.3133
 1013MOL0     H36735  12.076   4.614   2.301 -0.6345 -0.5701  2.8119
 1013MOL0     H36736  11.829   4.665   2.333  1.4987 -1.7386  2.3540
 1013MOL0     H36737  11.539   5.046   2.428 -0.2139  3.2324 -3.4127
 1013MOL0     H36738  11.316   5.125   2.439 -1.4913 -0.8102  2.0729
 1013MOL0     H36739  10.412   5.212   2.428 -0.7080 -0.6814  3.1089
 1013MOL0     H36740  10.567   5.391   2.416  0.7700  0.2075  1.4038
 1013MOL0     H36741  10.692   5.749   2.310  2.0676  1.1381  0.1352
 1013MOL0     H36742  10.846   5.908   2.229  1.2869  0.1301  0.4791
 1013MOL0     H36743  10.795   6.223   2.185 -0.0724 -1.3282 -3.6573
 1013MOL0     H36744  10.919   6.128   2.136 -1.1557 -0.5499  1.7693
 1013MOL0     H36745  11.088   6.304   2.223  0.6786 -1.7514 -1.1295
 1013MOL0     H36746  10.951   6.404   2.242  2.3866  0.0321  0.2625
 1013MOL0     H36747  10.891   6.394   2.001  0.6996  0.4913 -0.6140
 1013MOL0     H36748  11.010   6.268   1.983  0.0044 -1.4433  2.2080
 1013MOL0     H36749  11.194   6.423   2.045  2.7844  3.5033  0.9078
 1013MOL0     H36750  11.109   6.484   1.899  0.8809  0.3732  0.5731
 1013MOL0     H36751  11.101   6.762   2.221  0.1310 -0.1582  0.7622
 1013MOL0     H36752  10.706   6.188   2.526 -1.1067 -1.0810 -0.1533
 1013MOL0     H36753  10.519   6.161   2.644  1.4057 -0.1980 -2.7639
 1013MOL0     H36754  10.411   6.015   2.592  0.3048 -1.9661  1.1372
 1013MOL0     H36755  10.520   6.000   2.724  0.6126 -1.4958  0.5745
 1014MOL0     O36756   7.176   7.569   7.407 -0.2265 -0.0391 -0.3013
 1014MOL0     C36757   7.078   7.630   7.361 -0.2952  0.3945 -1.7285
 1014MOL0     O36758   7.079   7.761   7.315 -0.0145 -0.4240 -0.2091
 1014MOL0     C36759   7.192   7.843   7.310  0.5225  0.0177 -0.8564
 1014MOL0     C36760   7.195   7.973   7.358  0.2262 -0.3987 -0.3416
 1014MOL0     C36761   7.303   8.061   7.332  0.4218  0.1265 -0.1888
 1014MOL0     C36762   7.420   8.012   7.272  0.7274 -0.8223 -0.5159
 1014MOL0     O36763   7.524   8.100   7.253  0.3259 -0.3839  0.3186
 1014MOL0     C36764   7.628   8.056   7.161  0.1750  1.1059 -0.5167
 1014MOL0     C36765   7.737   8.150   7.120  0.2611  0.4756 -0.3864
 1014MOL0     C36766   7.839   8.171   7.231 -0.8890 -0.6538  0.3836
 1014MOL0     C36767   7.920   8.051   7.275  1.4549 -0.0366 -0.4088
 1014MOL0     C36768   8.069   8.068   7.304 -0.9125  0.3851  0.2824
 1014MOL0     C36769   8.091   8.140   7.437  0.6538 -0.5577  0.4634
 1014MOL0     C36770   8.243   8.157   7.476 -0.5597  1.1459  0.2858
 1014MOL0     C36771   8.312   8.255   7.380 -0.0479 -0.2015  0.4225
 1014MOL0     N36772   8.456   8.236   7.362 -0.5557 -0.7845  0.3531
 1014MOL0     C36773   8.550   8.227   7.465  1.0220 -0.6104 -0.6818
 1014MOL0     C36774   8.672   8.221   7.406 -0.6030 -0.2855  0.1727
 1014MOL0     C36775   8.811   8.182   7.464  0.3993  0.1965 -0.6922
 1014MOL0     C36776   8.830   8.032   7.469  0.3145  0.5762 -0.0435
 1014MOL0     C36777   8.977   7.997   7.478 -0.2334  0.4019 -0.0257
 1014MOL0     C36778   9.049   7.995   7.339 -0.5219  0.5670  0.3812
 1014MOL0     O36779   9.188   7.957   7.330 -0.9106 -0.0768 -0.3814
 1014MOL0     C36780   9.254   7.948   7.210 -0.1202 -0.0751  0.1149
 1014MOL0     C36781   9.206   7.999   7.084  0.1349  0.1702  0.3449
 1014MOL0     C36782   9.285   7.989   6.965  0.0327 -0.2372  0.2527
 1014MOL0     C36783   9.405   7.919   6.962 -0.1599 -0.0118  0.4065
 1014MOL0     C36784   9.481   7.924   6.838 -0.2738 -0.4242 -0.3329
 1014MOL0     O36785   9.427   7.993   6.725  0.2404  0.3265 -0.0771
 1014MOL0     C36786   9.488   7.987   6.603 -0.2126 -0.2063 -0.1107
 1014MOL0     C36787   9.526   7.871   6.538  0.4372  0.2686  0.9646
 1014MOL0     C36788   9.595   7.866   6.420 -0.1918  0.1220  0.6094
 1014MOL0     C36789   9.630   7.980   6.356 -0.1794 -1.9039  0.1119
 1014MOL0     O36790   9.708   7.993   6.241  1.4819 -0.4222 -0.4127
 1014MOL0     C36791   9.770   7.874   6.189 -1.3228  0.0125 -0.0516
 1014MOL0     C36792   9.841   7.899   6.047  0.2954  0.2294 -0.7916
 1014MOL0     C36793   9.952   8.005   6.045  0.2899  0.3302  0.5130
 1014MOL0     C36794  10.026   8.017   5.912 -0.7528  0.9715  0.9183
 1014MOL0     C36795  10.116   8.139   5.915 -0.5513 -0.0915  0.1591
 1014MOL0     C36796  10.247   8.128   5.990  0.4594 -0.0639 -0.5314
 1014MOL0     C36797  10.321   8.254   5.992  0.3241  0.1445 -0.4081
 1014MOL0     C36798  10.243   8.377   6.056  0.5896 -0.5670 -0.5761
 1014MOL0    Cl36799  10.344   8.534   6.029  0.2164  0.0654  0.1609
 1014MOL0     C36800   9.582   8.106   6.415 -0.2782  0.4674 -0.0774
 1014MOL0     C36801   9.516   8.109   6.540 -0.3612  0.0891 -0.0496
 1014MOL0     O36802   9.585   7.862   6.841 -0.0026  0.1851  0.5146
 1014MOL0     C36803   9.442   7.867   7.085 -0.3187 -0.4681 -0.2589
 1014MOL0     C36804   9.369   7.879   7.210 -0.8884 -0.4273  0.5209
 1014MOL0     N36805   8.647   8.260   7.276 -0.1979  0.3106  0.5625
 1014MOL0     N36806   8.518   8.262   7.248 -0.2721  0.1968 -0.2443
 1014MOL0     C36807   7.428   7.872   7.242  0.5080 -0.8443 -0.1749
 1014MOL0     C36808   7.312   7.791   7.266 -0.6341 -0.0699  0.5392
 1014MOL0     C36809   6.950   7.552   7.361 -0.5026 -0.5127 -0.3813
 1014MOL0     C36810   6.958   7.416   7.378  0.5889  0.3643 -0.5063
 1014MOL0     C36811   6.849   7.340   7.397  0.8019 -0.3474 -0.2161
 1014MOL0     C36812   6.717   7.392   7.383 -0.4183 -0.7480  0.9518
 1014MOL0     O36813   6.609   7.313   7.394 -0.8941  0.8800 -0.1076
 1014MOL0     C36814   6.478   7.351   7.384  0.5712 -0.7207  0.3431
 1014MOL0     C36815   6.374   7.235   7.399  0.5344  0.3074  0.9377
 1014MOL0     C36816   6.264   7.234   7.293 -0.3955  0.1673 -0.3176
 1014MOL0     C36817   6.132   7.229   7.357 -0.7952 -0.0607 -0.3365
 1014MOL0     C36818   6.087   7.358   7.420  0.6178  0.0284 -0.8690
 1014MOL0     C36819   6.034   7.446   7.485  0.3960  0.5772  0.3173
 1014MOL0     C36820   6.710   7.523   7.334 -0.2593  0.4962 -0.8987
 1014MOL0     C36821   6.822   7.607   7.331  0.1960  0.1975  0.0851
 1014MOL0     C36822   6.800   7.754   7.300 -0.1405  1.6430  0.7629
 1014MOL0     H36823   7.104   8.005   7.408  0.5734  2.5932 -1.4312
 1014MOL0     H36824   7.305   8.165   7.363 -0.7490  0.1369 -0.1209
 1014MOL0     H36825   7.675   7.970   7.210  1.8183  0.5299 -2.9223
 1014MOL0     H36826   7.577   8.036   7.066 -2.5096  3.3458  0.3392
 1014MOL0     H36827   7.702   8.250   7.094 -1.0415  0.1611  0.0857
 1014MOL0     H36828   7.788   8.111   7.031 -0.3112  0.5571 -0.7562
 1014MOL0     H36829   7.791   8.215   7.319 -2.5865  0.7060 -1.1547
 1014MOL0     H36830   7.910   8.243   7.189 -0.3038 -0.2383  2.0039
 1014MOL0     H36831   7.881   8.017   7.371  2.3482  1.2989  0.4517
 1014MOL0     H36832   7.912   7.969   7.202  1.0157 -0.5699  0.2295
 1014MOL0     H36833   8.120   7.972   7.317 -1.1190  0.4349  1.5460
 1014MOL0     H36834   8.112   8.117   7.216 -1.1208  2.6585  1.3985
 1014MOL0     H36835   8.036   8.234   7.431 -0.5215 -1.2924 -1.1979
 1014MOL0     H36836   8.040   8.086   7.518 -2.0556 -0.5934 -1.1279
 1014MOL0     H36837   8.284   8.057   7.456 -0.4223  1.3923 -0.6832
 1014MOL0     H36838   8.261   8.169   7.583 -3.4406 -0.7506  1.1159
 1014MOL0     H36839   8.269   8.259   7.279  0.8767 -1.7747 -0.0688
 1014MOL0     H36840   8.287   8.351   7.426 -0.6915 -0.9756  1.7322
 1014MOL0     H36841   8.526   8.205   7.569 -1.3829  0.3270 -0.9835
 1014MOL0     H36842   8.900   8.231   7.423  2.2170 -1.1837  1.3474
 1014MOL0     H36843   8.803   8.219   7.567  0.9307 -2.5099  0.4199
 1014MOL0     H36844   8.771   7.990   7.551  2.9509 -0.4724  1.4421
 1014MOL0     H36845   8.778   7.988   7.383  1.0199 -0.9984  0.3072
 1014MOL0     H36846   8.976   7.892   7.510 -0.8474 -0.0140 -1.3788
 1014MOL0     H36847   9.027   8.067   7.546  0.4872  0.9999 -1.1471
 1014MOL0     H36848   9.048   8.100   7.310  1.2320  0.6153  0.3981
 1014MOL0     H36849   8.994   7.919   7.283 -0.1751 -1.1428  2.2200
 1014MOL0     H36850   9.112   8.053   7.079 -0.2631 -0.4069  1.2232
 1014MOL0     H36851   9.239   8.028   6.875 -2.3415 -0.4008  1.2958
 1014MOL0     H36852   9.496   7.771   6.570 -0.7684 -0.2780 -1.6493
 1014MOL0     H36853   9.613   7.765   6.383  1.7813  0.6466  0.0126
 1014MOL0     H36854   9.847   7.828   6.252 -1.2953  1.5190  1.0540
 1014MOL0     H36855   9.699   7.792   6.173  0.9864 -2.2023  0.3930
 1014MOL0     H36856   9.873   7.802   6.009 -3.0540 -1.3499  0.0482
 1014MOL0     H36857   9.766   7.928   5.973 -2.5517  0.0167  1.8086
 1014MOL0     H36858   9.897   8.098   6.061 -4.1157 -1.6162 -1.6491
 1014MOL0     H36859  10.023   7.987   6.126  0.5852 -2.0945 -0.2235
 1014MOL0     H36860   9.950   8.038   5.835  1.5247  1.5043 -1.3465
 1014MOL0     H36861  10.077   7.925   5.883  0.2616  1.0920  2.2733
 1014MOL0     H36862  10.050   8.219   5.949 -1.5387 -1.3440  1.3209
 1014MOL0     H36863  10.157   8.162   5.816 -0.2094  0.0724  0.3360
 1014MOL0     H36864  10.223   8.108   6.095 -3.4531  2.0596 -0.8109
 1014MOL0     H36865  10.306   8.048   5.945  0.6575 -1.0371  1.3552
 1014MOL0     H36866  10.348   8.288   5.892 -1.5679  1.3124 -0.5800
 1014MOL0     H36867  10.413   8.246   6.050 -0.2308  2.5084  0.9276
 1014MOL0     H36868  10.142   8.381   6.015  0.9421 -0.4935 -1.4586
 1014MOL0     H36869  10.231   8.368   6.164  2.2004  0.6964 -0.2554
 1014MOL0     H36870   9.592   8.202   6.367 -0.3633  1.6972  2.2332
 1014MOL0     H36871   9.489   8.205   6.584  1.0139  1.3109 -1.7106
 1014MOL0     H36872   9.530   7.805   7.075  0.9113  1.4901 -2.6216
 1014MOL0     H36873   9.411   7.844   7.304  2.0680  1.6502  0.0975
 1014MOL0     H36874   7.516   7.825   7.198 -0.4977 -1.7855 -1.2534
 1014MOL0     H36875   7.319   7.689   7.232  0.2880  0.3284 -0.5262
 1014MOL0     H36876   7.048   7.357   7.394 -0.8042 -1.8205 -0.2883
 1014MOL0     H36877   6.871   7.236   7.418 -1.7850 -1.5181 -2.7099
 1014MOL0     H36878   6.460   7.404   7.290 -2.2086 -0.3835  0.9907
 1014MOL0     H36879   6.460   7.428   7.460  0.0511 -1.3043  0.8199
 1014MOL0     H36880   6.338   7.229   7.502  0.0285 -0.9318  0.7126
 1014MOL0     H36881   6.433   7.143   7.388 -0.0666 -0.4666  3.5424
 1014MOL0     H36882   6.263   7.136   7.245 -3.0675 -1.2420  2.3074
 1014MOL0     H36883   6.269   7.319   7.224 -0.8246 -0.3459 -0.9806
 1014MOL0     H36884   6.052   7.210   7.285 -0.2079  1.2386 -1.3849
 1014MOL0     H36885   6.142   7.155   7.438  1.9019  0.4619 -0.0746
 1014MOL0     H36886   5.996   7.523   7.550 -0.9380  0.3638 -0.1742
 1014MOL0     H36887   6.610   7.565   7.330 -0.4368  0.3744  1.0048
 1014MOL0     H36888   6.853   7.820   7.369  0.0861  2.4493 -0.1560
 1014MOL0     H36889   6.843   7.774   7.201  2.3531 -3.4786  0.4963
 1014MOL0     H36890   6.695   7.785   7.302 -0.8821  0.0459 -3.4403
 1015MOL0     O36891   1.421   1.755   6.258  0.6328 -0.1037  0.0619
 1015MOL0     C36892   1.319   1.825   6.261 -0.1777 -1.6425 -0.3192
 1015MOL0     O36893   1.210   1.816   6.170  0.5119 -0.2800  0.2807
 1015MOL0     C36894   1.239   1.724   6.069  0.1662 -0.6342 -0.7543
 1015MOL0     C36895   1.291   1.770   5.946 -0.6197  0.1889  0.2257
 1015MOL0     C36896   1.312   1.682   5.834 -0.1522 -0.1090 -0.3371
 1015MOL0     C36897   1.308   1.543   5.857 -0.1649 -0.5101  0.0499
 1015MOL0     O36898   1.341   1.443   5.765  0.5171  0.4021 -0.5278
 1015MOL0     C36899   1.409   1.489   5.647 -0.5572  0.6114  0.6287
 1015MOL0     C36900   1.460   1.370   5.558 -0.3205  0.3301 -0.4956
 1015MOL0     C36901   1.531   1.256   5.637  0.3940 -0.6714  0.7848
 1015MOL0     C36902   1.668   1.295   5.693  0.5688 -0.4058  0.1548
 1015MOL0     C36903   1.756   1.174   5.732  0.8722 -0.3632 -1.1776
 1015MOL0     C36904   1.813   1.091   5.620  0.4594  0.1536  0.1085
 1015MOL0     C36905   1.919   0.996   5.681  0.0799  0.4035  1.3231
 1015MOL0     C36906   2.057   1.055   5.709 -0.4737 -0.5017  0.3302
 1015MOL0     N36907   2.129   0.951   5.778 -0.0675 -0.1470 -0.9192
 1015MOL0     C36908   2.242   0.886   5.730 -0.5696  0.3298  0.3878
 1015MOL0     C36909   2.295   0.825   5.834 -0.0200  0.2498  0.3631
 1015MOL0     C36910   2.421   0.746   5.845  0.5515  0.1492  0.7204
 1015MOL0     C36911   2.551   0.826   5.811 -0.5608 -0.0412 -0.5750
 1015MOL0     C36912   2.664   0.740   5.761  0.4529  0.8751  0.4516
 1015MOL0     C36913   2.723   0.671   5.884 -0.8971 -0.2791 -0.4480
 1015MOL0     O36914   2.843   0.599   5.849  0.3272  0.3712  0.1109
 1015MOL0     C36915   2.952   0.682   5.826  0.5237 -0.3188  0.2060
 1015MOL0     C36916   3.017   0.662   5.702  1.0643  0.4986 -0.3462
 1015MOL0     C36917   3.136   0.725   5.669 -0.4819  0.2966  0.0461
 1015MOL0     C36918   3.183   0.815   5.765 -0.3542 -0.3388 -0.4856
 1015MOL0     C36919   3.321   0.868   5.744  0.0190 -0.3211  0.2395
 1015MOL0     O36920   3.385   0.831   5.625  0.1577 -0.1663  0.4605
 1015MOL0     C36921   3.517   0.851   5.601  0.8112 -0.3920 -0.2738
 1015MOL0     C36922   3.607   0.799   5.689 -0.3470  0.2027 -0.5925
 1015MOL0     C36923   3.745   0.815   5.656  0.5572  0.1214 -0.4243
 1015MOL0     C36924   3.788   0.871   5.532 -0.6217 -0.7221  0.2009
 1015MOL0     O36925   3.918   0.873   5.486 -0.6833  0.2478  0.1209
 1015MOL0     C36926   3.961   0.886   5.353 -0.4778  0.3130  0.0142
 1015MOL0     C36927   4.098   0.826   5.341 -0.5741 -0.2642  0.0171
 1015MOL0     C36928   4.198   0.900   5.429 -1.1793  0.7136  0.5634
 1015MOL0     C36929   4.332   0.824   5.441 -0.4090  0.1413  0.2944
 1015MOL0     C36930   4.424   0.881   5.539 -0.8153  0.3304 -0.4310
 1015MOL0     C36931   4.552   0.796   5.555  0.0385  0.3004  0.1451
 1015MOL0     C36932   4.635   0.797   5.426 -0.8257  1.6524 -0.7388
 1015MOL0     C36933   4.771   0.737   5.474  0.0915 -0.3352  0.0126
 1015MOL0    Cl36934   4.740   0.572   5.529 -1.0374  0.2564 -0.6136
 1015MOL0     C36935   3.691   0.926   5.455  0.4660 -0.2132  0.7782
 1015MOL0     C36936   3.557   0.917   5.485  0.3384 -0.9406 -0.0950
 1015MOL0     O36937   3.373   0.940   5.826 -0.3083 -0.2378 -1.5766
 1015MOL0     C36938   3.114   0.857   5.880 -0.1113 -0.2934  0.5716
 1015MOL0     C36939   2.999   0.789   5.912  0.0711  0.0101 -0.0120
 1015MOL0     N36940   2.224   0.865   5.949  0.1513  0.8564 -0.1356
 1015MOL0     N36941   2.116   0.926   5.909 -0.3643  0.1134  0.4829
 1015MOL0     C36942   1.249   1.502   5.970 -0.0607 -0.1116 -1.0557
 1015MOL0     C36943   1.206   1.586   6.073  0.3433 -0.9178 -0.1915
 1015MOL0     C36944   1.284   1.905   6.375  0.3737 -0.1437 -0.1588
 1015MOL0     C36945   1.141   1.927   6.391 -0.9342 -0.3916  0.4915
 1015MOL0     C36946   1.093   2.009   6.492  0.0766 -0.0915 -0.2878
 1015MOL0     C36947   1.179   2.070   6.586 -0.8677  0.0941 -1.1157
 1015MOL0     O36948   1.148   2.139   6.700 -0.0010  0.5488  0.2937
 1015MOL0     C36949   1.007   2.139   6.745 -0.1655  0.7096 -0.1208
 1015MOL0     C36950   0.991   2.177   6.889 -0.6671 -0.4795  0.0084
 1015MOL0     C36951   1.055   2.081   6.985 -0.5959 -0.3331 -0.9173
 1015MOL0     C36952   1.198   2.052   6.968  0.5203 -0.3024  0.7316
 1015MOL0     C36953   1.251   1.965   7.081  0.0544 -1.3063 -0.1499
 1015MOL0     C36954   1.285   1.888   7.171 -0.1441  0.0047 -0.8203
 1015MOL0     C36955   1.317   2.037   6.570 -0.0811 -0.3253 -0.2039
 1015MOL0     C36956   1.376   1.970   6.463 -0.1040  0.3047 -0.2412
 1015MOL0     C36957   1.527   1.977   6.449 -0.0129  0.2173  0.5082
 1015MOL0     H36958   1.328   1.871   5.948  1.4637 -0.5418  1.0991
 1015MOL0     H36959   1.344   1.729   5.741  2.0000 -2.0630 -0.6783
 1015MOL0     H36960   1.342   1.559   5.596 -1.7011 -1.0945 -0.3137
 1015MOL0     H36961   1.495   1.551   5.673  1.6687 -1.7401 -0.7055
 1015MOL0     H36962   1.524   1.407   5.477 -0.2921 -1.1236 -1.1615
 1015MOL0     H36963   1.374   1.324   5.508  0.1213 -3.0932  1.5857
 1015MOL0     H36964   1.551   1.174   5.568 -0.7850 -1.9895  1.9423
 1015MOL0     H36965   1.465   1.218   5.716  0.1481 -2.9278 -0.4254
 1015MOL0     H36966   1.735   1.342   5.621  2.1963 -0.6343  1.4530
 1015MOL0     H36967   1.642   1.359   5.778  0.6282  0.2894 -0.3397
 1015MOL0     H36968   1.837   1.197   5.802  1.0724 -0.8795 -1.2321
 1015MOL0     H36969   1.695   1.109   5.796  1.7327  0.4166  0.5070
 1015MOL0     H36970   1.731   1.047   5.563  2.0282  0.7431 -2.8022
 1015MOL0     H36971   1.869   1.162   5.559  0.4387  0.3248  0.2868
 1015MOL0     H36972   1.935   0.920   5.604 -2.1310  2.0720 -0.9285
 1015MOL0     H36973   1.894   0.952   5.778  1.9154 -0.4235  1.4666
 1015MOL0     H36974   2.114   1.068   5.617  0.3665 -0.7585  0.8009
 1015MOL0     H36975   2.051   1.137   5.782  1.0363  0.0534 -0.1179
 1015MOL0     H36976   2.293   0.889   5.635  2.4844 -1.8111  1.7820
 1015MOL0     H36977   2.422   0.707   5.947  0.1126  0.4071  0.8246
 1015MOL0     H36978   2.420   0.667   5.770 -0.3270 -0.7074  1.6009
 1015MOL0     H36979   2.527   0.902   5.735 -1.4117  0.1058 -0.1796
 1015MOL0     H36980   2.588   0.880   5.898 -0.2864 -1.2671  0.0934
 1015MOL0     H36981   2.749   0.794   5.718  2.1659 -2.2693 -0.4638
 1015MOL0     H36982   2.635   0.664   5.688  1.4015  1.6128 -0.7459
 1015MOL0     H36983   2.659   0.598   5.935 -2.5682  2.1481  1.1823
 1015MOL0     H36984   2.748   0.750   5.956  2.4039 -2.6298  1.2426
 1015MOL0     H36985   2.973   0.594   5.630  0.0492 -1.6200  2.1198
 1015MOL0     H36986   3.198   0.695   5.585 -1.5491 -0.6542 -0.4263
 1015MOL0     H36987   3.584   0.752   5.784  0.1522  1.5394  0.2143
 1015MOL0     H36988   3.827   0.775   5.714 -2.3578 -2.7313  2.1098
 1015MOL0     H36989   3.899   0.838   5.277 -0.1092 -0.5808  0.2732
 1015MOL0     H36990   3.960   0.989   5.317 -1.1130 -0.4830 -2.4219
 1015MOL0     H36991   4.087   0.719   5.358  0.5855  0.0870  4.0151
 1015MOL0     H36992   4.132   0.840   5.238  0.4358  2.1867  0.6103
 1015MOL0     H36993   4.217   1.004   5.401  0.3535  0.4277  0.4508
 1015MOL0     H36994   4.159   0.879   5.529  1.3427 -2.7455  0.9994
 1015MOL0     H36995   4.377   0.827   5.341  0.3952 -1.1666  0.5889
 1015MOL0     H36996   4.305   0.721   5.467 -1.9671  0.4360 -0.0637
 1015MOL0     H36997   4.383   0.883   5.640 -0.2630 -3.0014 -0.0379
 1015MOL0     H36998   4.456   0.983   5.515  0.3278  0.0312 -0.2622
 1015MOL0     H36999   4.613   0.838   5.636  3.9958 -0.7574 -2.0363
 1015MOL0     H37000   4.541   0.690   5.580  3.4492  0.1271  1.4860
 1015MOL0     H37001   4.651   0.897   5.385  3.0983  0.6058 -2.1412
 1015MOL0     H37002   4.592   0.738   5.344  1.4898 -1.9629  0.3899
 1015MOL0     H37003   4.841   0.737   5.390 -0.1715 -2.8640 -0.2806
 1015MOL0     H37004   4.806   0.798   5.558  0.8687 -0.5743 -0.1334
 1015MOL0     H37005   3.709   0.973   5.359 -2.1008 -3.9834 -1.8820
 1015MOL0     H37006   3.488   0.960   5.413 -0.2562 -0.7266  0.5866
 1015MOL0     H37007   3.146   0.928   5.955  0.0069 -2.1378  2.3237
 1015MOL0     H37008   2.941   0.828   5.995  0.7009  1.5945 -0.2698
 1015MOL0     H37009   1.227   1.396   5.986 -0.6038  0.1078 -0.2910
 1015MOL0     H37010   1.146   1.548   6.154 -1.6823  2.2440 -0.0610
 1015MOL0     H37011   1.072   1.871   6.329  0.1580  0.8653 -2.0058
 1015MOL0     H37012   0.987   2.023   6.509  0.4908  1.3091  1.4842
 1015MOL0     H37013   0.976   2.035   6.737  1.3634  0.2714 -0.6572
 1015MOL0     H37014   0.954   2.202   6.674  2.8326  2.2354 -1.1924
 1015MOL0     H37015   0.885   2.191   6.908 -0.0977  0.5628  2.8176
 1015MOL0     H37016   1.051   2.269   6.893  2.5473 -2.4333  0.6758
 1015MOL0     H37017   1.007   1.983   6.975  3.1337 -2.1493 -2.8093
 1015MOL0     H37018   1.042   2.131   7.081  1.2999 -0.4539 -0.5745
 1015MOL0     H37019   1.221   1.993   6.879  0.0153 -1.3975  1.3033
 1015MOL0     H37020   1.255   2.143   6.986  1.1039 -0.7505  1.1811
 1015MOL0     H37021   1.297   1.822   7.255  0.0624 -0.2816 -1.0699
 1015MOL0     H37022   1.381   2.086   6.643 -0.2404 -1.4820  0.7562
 1015MOL0     H37023   1.562   1.982   6.346 -2.8946  5.6354 -0.5633
 1015MOL0     H37024   1.553   2.078   6.483 -0.0936  0.4367 -0.0835
 1015MOL0     H37025   1.589   1.906   6.505 -0.7382  0.1108  1.2099
 1016MOL0     O37026   5.066   3.175   6.762 -0.3943 -0.5864  0.0318
 1016MOL0     C37027   5.133   3.199   6.659 -0.3750 -1.6166  0.2105
 1016MOL0     O37028   5.110   3.311   6.574  0.1784 -0.1367 -0.5123
 1016MOL0     C37029   5.021   3.403   6.606 -0.0062  0.0060  0.1131
 1016MOL0     C37030   5.014   3.461   6.731 -0.1098 -0.5740 -0.6581
 1016MOL0     C37031   4.902   3.539   6.753 -0.1899 -0.8700 -0.2152
 1016MOL0     C37032   4.806   3.570   6.655  0.2187 -0.1160  0.4511
 1016MOL0     O37033   4.698   3.646   6.688 -0.2019 -0.3494 -0.0540
 1016MOL0     C37034   4.705   3.788   6.688  0.4019 -0.3088 -0.4189
 1016MOL0     C37035   4.560   3.833   6.682 -0.3953 -1.1592 -0.7157
 1016MOL0     C37036   4.482   3.779   6.559  0.5756  0.1796 -0.2712
 1016MOL0     C37037   4.334   3.830   6.565  0.3412  0.3769 -0.2344
 1016MOL0     C37038   4.247   3.780   6.451  0.1839 -0.6785 -1.2631
 1016MOL0     C37039   4.099   3.824   6.471  0.3179  0.1701 -0.1494
 1016MOL0     C37040   4.035   3.784   6.339  0.7003  0.1216  0.4221
 1016MOL0     C37041   3.881   3.786   6.343 -0.4534 -0.0478 -0.2899
 1016MOL0     N37042   3.805   3.704   6.242 -0.8089 -0.4995 -0.1041
 1016MOL0     C37043   3.671   3.704   6.218  0.7713  0.2850  0.7453
 1016MOL0     C37044   3.652   3.596   6.136 -1.1005  0.2566  0.1470
 1016MOL0     C37045   3.519   3.545   6.091 -0.6828  0.2439 -0.0106
 1016MOL0     C37046   3.522   3.469   5.951  0.3664 -0.7451  0.4677
 1016MOL0     C37047   3.489   3.561   5.829  0.4021 -0.2326 -0.7674
 1016MOL0     C37048   3.538   3.504   5.699 -0.0467  0.3866 -0.2162
 1016MOL0     O37049   3.676   3.519   5.699  0.0163  0.4896 -0.2338
 1016MOL0     C37050   3.733   3.458   5.593 -0.7892 -0.7433 -0.2267
 1016MOL0     C37051   3.868   3.479   5.582  0.7339 -0.5920  0.0580
 1016MOL0     C37052   3.947   3.435   5.476 -0.0881 -0.3364  0.4885
 1016MOL0     C37053   3.889   3.357   5.371 -0.1650 -0.3398  0.6848
 1016MOL0     C37054   3.969   3.322   5.256 -0.2231  0.6204  0.5227
 1016MOL0     O37055   4.111   3.328   5.272 -0.7493  0.1339  0.0901
 1016MOL0     C37056   4.189   3.280   5.162  0.5510 -0.1552 -0.9321
 1016MOL0     C37057   4.203   3.141   5.132 -0.7057  0.7689  0.0206
 1016MOL0     C37058   4.266   3.095   5.020 -0.0569  0.0065 -0.5994
 1016MOL0     C37059   4.329   3.189   4.933  0.8067 -0.2548 -0.5014
 1016MOL0     O37060   4.385   3.138   4.818 -0.8108 -0.2865 -0.3858
 1016MOL0     C37061   4.500   3.054   4.821  0.2202  0.8707  0.7064
 1016MOL0     C37062   4.621   3.130   4.878  0.1976 -0.3070  1.0330
 1016MOL0     C37063   4.756   3.066   4.850 -0.2873 -0.0563  0.1709
 1016MOL0     C37064   4.852   3.099   4.967 -0.0110 -0.8909 -0.6514
 1016MOL0     C37065   4.994   3.023   4.952  0.7557 -0.6891  0.3814
 1016MOL0     C37066   5.099   3.124   4.899 -0.3187  0.2232 -1.1177
 1016MOL0     C37067   5.232   3.044   4.872  0.3289  0.2379 -0.0378
 1016MOL0     C37068   5.289   2.974   4.991  0.4062 -0.2764 -0.3066
 1016MOL0    Cl37069   5.365   3.090   5.100 -0.4701  0.1176 -0.2633
 1016MOL0     C37070   4.330   3.328   4.970 -0.0022 -0.6055  0.3327
 1016MOL0     C37071   4.254   3.374   5.082  0.0914  0.8536 -1.1126
 1016MOL0     O37072   3.913   3.307   5.143 -0.4359  0.3491  0.3549
 1016MOL0     C37073   3.752   3.320   5.388  0.7348 -0.3650 -0.2448
 1016MOL0     C37074   3.677   3.360   5.499 -0.2649  0.1562 -0.1010
 1016MOL0     N37075   3.769   3.531   6.116 -1.2351 -0.1326  0.1124
 1016MOL0     N37076   3.861   3.595   6.183  0.5090  0.6097 -0.1577
 1016MOL0     C37077   4.819   3.510   6.531 -0.2784 -0.2495  0.5647
 1016MOL0     C37078   4.927   3.427   6.503  0.4639 -0.2318 -0.1686
 1016MOL0     C37079   5.239   3.095   6.628  0.1640 -0.1673  0.5767
 1016MOL0     C37080   5.264   2.989   6.722 -0.0369 -0.6386 -0.4222
 1016MOL0     C37081   5.365   2.896   6.703  0.5903  0.6023 -0.4391
 1016MOL0     C37082   5.449   2.911   6.588 -0.3889  0.2797 -0.0251
 1016MOL0     O37083   5.552   2.824   6.553 -0.4390 -0.3916 -0.4935
 1016MOL0     C37084   5.588   2.724   6.648  0.3017 -0.3324 -0.2440
 1016MOL0     C37085   5.709   2.645   6.611  0.1179  0.7251 -0.1319
 1016MOL0     C37086   5.716   2.563   6.475 -0.1782  0.1902 -0.2748
 1016MOL0     C37087   5.785   2.627   6.359 -0.2899 -0.6639 -0.3839
 1016MOL0     C37088   5.732   2.743   6.291 -0.0626 -0.6424 -0.2624
 1016MOL0     C37089   5.697   2.845   6.237  0.8185  0.4573  0.8449
 1016MOL0     C37090   5.428   3.011   6.506  0.2191  0.2216  0.3305
 1016MOL0     C37091   5.320   3.102   6.517  0.3241 -0.3779 -0.4817
 1016MOL0     C37092   5.318   3.212   6.404 -0.9718 -0.2032  0.3827
 1016MOL0     H37093   5.080   3.440   6.815  0.5860  4.7210  0.4872
 1016MOL0     H37094   4.896   3.576   6.855  0.6330  1.4571 -0.9549
 1016MOL0     H37095   4.756   3.842   6.768 -0.0541 -0.7167  0.1502
 1016MOL0     H37096   4.751   3.828   6.597  1.6856  0.2109  0.4315
 1016MOL0     H37097   4.552   3.941   6.671  2.0329 -0.7910  0.4876
 1016MOL0     H37098   4.501   3.803   6.769  0.0468  0.5793  0.2051
 1016MOL0     H37099   4.473   3.670   6.563 -0.8151  0.2237 -1.3036
 1016MOL0     H37100   4.516   3.815   6.461 -0.0677  4.4996  0.8912
 1016MOL0     H37101   4.291   3.803   6.663 -0.9872  2.2917 -0.2303
 1016MOL0     H37102   4.337   3.940   6.567  1.0998  0.4353  3.4195
 1016MOL0     H37103   4.291   3.829   6.363  0.6546  0.7411 -0.2749
 1016MOL0     H37104   4.241   3.671   6.445 -1.5665 -0.5327 -3.0452
 1016MOL0     H37105   4.061   3.784   6.566 -0.7302  3.8439  1.1283
 1016MOL0     H37106   4.090   3.932   6.480  1.8510  0.3503 -0.5319
 1016MOL0     H37107   4.063   3.683   6.308  2.5004  1.1875 -1.7558
 1016MOL0     H37108   4.069   3.859   6.266  3.4579  0.7068  2.1583
 1016MOL0     H37109   3.848   3.744   6.438 -0.3140 -2.3295 -1.1931
 1016MOL0     H37110   3.848   3.889   6.328 -1.0511 -0.1005  0.5354
 1016MOL0     H37111   3.598   3.773   6.259  1.5253 -0.2311  3.1102
 1016MOL0     H37112   3.474   3.480   6.167 -4.1488  2.6504  0.2384
 1016MOL0     H37113   3.449   3.629   6.082 -1.8679 -0.9005 -2.4912
 1016MOL0     H37114   3.620   3.422   5.938  0.7391 -0.4394  2.0409
 1016MOL0     H37115   3.442   3.395   5.960 -3.0372  2.1501 -2.3843
 1016MOL0     H37116   3.520   3.665   5.843 -3.8485  0.8373  3.4480
 1016MOL0     H37117   3.379   3.558   5.834  0.4584 -2.5319  2.0457
 1016MOL0     H37118   3.495   3.570   5.623 -2.5990  0.4869  1.2315
 1016MOL0     H37119   3.496   3.404   5.694  3.8002 -1.3595 -1.4435
 1016MOL0     H37120   3.930   3.537   5.650  4.1043 -2.9655 -0.6781
 1016MOL0     H37121   4.051   3.466   5.471 -0.5015  1.1809  0.9397
 1016MOL0     H37122   4.157   3.068   5.199  0.8608  0.0320  0.3433
 1016MOL0     H37123   4.261   2.989   4.996 -1.2977  0.2702 -1.6591
 1016MOL0     H37124   4.498   2.962   4.881 -2.6033  0.1333 -0.3678
 1016MOL0     H37125   4.520   3.024   4.718  1.1030 -1.4611  1.4856
 1016MOL0     H37126   4.620   3.236   4.851  0.2808 -0.7095 -0.6489
 1016MOL0     H37127   4.618   3.148   4.986  0.9450  0.5925  0.9095
 1016MOL0     H37128   4.743   2.959   4.831 -0.4469 -0.1021  0.5186
 1016MOL0     H37129   4.807   3.106   4.762  0.3896 -0.5927  0.3157
 1016MOL0     H37130   4.807   3.071   5.063 -1.1512 -1.1808 -1.2584
 1016MOL0     H37131   4.871   3.206   4.964  0.3413 -0.9608 -3.2210
 1016MOL0     H37132   4.976   2.941   4.882  1.0468  0.3947 -1.0028
 1016MOL0     H37133   5.017   2.982   5.051 -0.8815 -3.2083 -0.1802
 1016MOL0     H37134   5.072   3.171   4.804  1.2629 -0.0137 -1.7139
 1016MOL0     H37135   5.122   3.196   4.979 -1.1963 -0.8759  0.1574
 1016MOL0     H37136   5.308   3.105   4.824 -0.1640  1.9831  1.2997
 1016MOL0     H37137   5.190   2.979   4.794 -3.1616  2.6781 -0.4136
 1016MOL0     H37138   5.214   2.916   5.045  0.9018  1.0756  1.9874
 1016MOL0     H37139   5.365   2.906   4.952 -1.4385 -0.6203 -3.6492
 1016MOL0     H37140   4.397   3.395   4.917  0.4508  0.9462  2.7094
 1016MOL0     H37141   4.252   3.480   5.105  1.0710  0.4007  1.2775
 1016MOL0     H37142   3.695   3.270   5.310 -1.7428  0.5743  0.8439
 1016MOL0     H37143   3.575   3.327   5.512 -0.7726  1.0374 -1.6143
 1016MOL0     H37144   4.750   3.537   6.451 -2.1155  2.4548  2.8419
 1016MOL0     H37145   4.945   3.382   6.406 -0.3121  1.2528 -1.0231
 1016MOL0     H37146   5.208   2.981   6.815  2.1449 -3.4085  0.7869
 1016MOL0     H37147   5.376   2.820   6.780  2.1174  0.5742 -0.6657
 1016MOL0     H37148   5.509   2.652   6.669  0.3051 -1.0488 -2.4658
 1016MOL0     H37149   5.616   2.772   6.742 -0.4625 -1.4868  0.5927
 1016MOL0     H37150   5.729   2.579   6.696  2.6709  0.9399 -0.4734
 1016MOL0     H37151   5.793   2.716   6.617  1.1004 -0.3539 -0.6496
 1016MOL0     H37152   5.614   2.542   6.442 -1.0832  3.1437  0.3655
 1016MOL0     H37153   5.772   2.470   6.493  0.1130  0.4488  0.1751
 1016MOL0     H37154   5.882   2.654   6.403  0.2178 -0.9699 -1.2900
 1016MOL0     H37155   5.798   2.551   6.282 -1.1453  0.1838 -1.3947
 1016MOL0     H37156   5.685   2.928   6.170 -1.4021 -0.3636  0.1318
 1016MOL0     H37157   5.480   3.003   6.411 -0.9812  1.7746 -0.4925
 1016MOL0     H37158   5.323   3.317   6.434 -0.0782 -0.0328 -0.3184
 1016MOL0     H37159   5.394   3.200   6.326  1.9714 -1.0403  3.1533
 1016MOL0     H37160   5.217   3.201   6.362 -1.4518 -1.9119  1.8304
 1017MOL0     O37161   5.174   3.647   2.950 -0.2947  0.1347  0.3624
 1017MOL0     C37162   5.101   3.639   2.850 -0.1673 -0.8804 -0.6639
 1017MOL0     O37163   5.133   3.608   2.720 -0.6340  0.2586  0.7725
 1017MOL0     C37164   5.265   3.595   2.673 -0.2610 -0.0674 -0.5770
 1017MOL0     C37165   5.291   3.505   2.575  0.9376 -0.0800  0.0615
 1017MOL0     C37166   5.408   3.493   2.514 -1.5627  0.3697 -0.4705
 1017MOL0     C37167   5.519   3.573   2.553 -0.5137  0.2078  0.8172
 1017MOL0     O37168   5.628   3.549   2.474  0.5824  0.1965 -0.2894
 1017MOL0     C37169   5.743   3.631   2.496  0.7432  0.5326  0.2959
 1017MOL0     C37170   5.844   3.585   2.393 -0.9897 -0.0521  0.7588
 1017MOL0     C37171   5.972   3.658   2.408 -0.6864  0.5040 -1.1425
 1017MOL0     C37172   6.081   3.556   2.405  0.5956 -0.3004 -0.9384
 1017MOL0     C37173   6.221   3.605   2.437  0.1011  0.7807  0.4450
 1017MOL0     C37174   6.329   3.487   2.432  0.2600  0.3225 -0.8861
 1017MOL0     C37175   6.474   3.542   2.455  0.2688  0.7948  0.8874
 1017MOL0     C37176   6.491   3.613   2.586 -0.0744 -0.3290  0.4811
 1017MOL0     N37177   6.620   3.668   2.609  0.6377 -0.7861 -0.1701
 1017MOL0     C37178   6.694   3.644   2.728 -0.4913 -0.4429 -1.0513
 1017MOL0     C37179   6.801   3.727   2.715  0.7546 -0.5826  0.4574
 1017MOL0     C37180   6.910   3.754   2.810  0.1277 -0.0841  0.2930
 1017MOL0     C37181   7.042   3.673   2.793 -0.9237  0.1812 -0.4997
 1017MOL0     C37182   7.026   3.520   2.836  0.5645 -0.2792 -0.7997
 1017MOL0     C37183   7.160   3.450   2.821  0.0354 -1.3113 -0.0167
 1017MOL0     O37184   7.265   3.501   2.903  0.0378 -0.2462 -0.4369
 1017MOL0     C37185   7.394   3.445   2.882 -0.5147  0.8704  0.5591
 1017MOL0     C37186   7.413   3.329   2.808  0.2623 -0.1249 -0.4478
 1017MOL0     C37187   7.542   3.275   2.798 -0.4548  0.2525 -0.0395
 1017MOL0     C37188   7.650   3.319   2.870  0.0863 -0.2066  0.1618
 1017MOL0     C37189   7.782   3.250   2.874  0.4702  0.0580  0.3151
 1017MOL0     O37190   7.891   3.313   2.904  0.2248 -0.7449  0.6408
 1017MOL0     C37191   8.003   3.248   2.948 -0.0941  0.6722  0.6305
 1017MOL0     C37192   8.128   3.300   2.921  0.3891  0.6736 -0.3748
 1017MOL0     C37193   8.249   3.243   2.962  0.8124 -0.1178  1.6749
 1017MOL0     C37194   8.241   3.152   3.065  0.6072  1.1732 -0.6459
 1017MOL0     O37195   8.365   3.110   3.109 -0.5791 -0.6762  0.1441
 1017MOL0     C37196   8.382   3.030   3.233  0.1551  0.4899  0.5654
 1017MOL0     C37197   8.515   2.988   3.253 -0.3059  0.0286  0.1820
 1017MOL0     C37198   8.560   2.876   3.157 -0.0967  0.1887  0.5618
 1017MOL0     C37199   8.709   2.881   3.180 -0.9657  0.7216  0.2693
 1017MOL0     C37200   8.781   2.770   3.102  0.4916  0.6317 -0.1863
 1017MOL0     C37201   8.756   2.632   3.152 -0.0148 -0.0570  0.0365
 1017MOL0     C37202   8.822   2.625   3.291 -0.1941 -0.3407  0.4651
 1017MOL0     C37203   8.897   2.496   3.320  0.3215  0.2820 -0.0446
 1017MOL0    Cl37204   9.042   2.470   3.218 -0.0002 -0.0036  0.3877
 1017MOL0     C37205   8.115   3.106   3.110  0.1237  0.0885  0.2661
 1017MOL0     C37206   7.992   3.149   3.047  0.1626  0.2750  0.4513
 1017MOL0     O37207   7.768   3.129   2.864 -0.6105 -0.0835  0.0275
 1017MOL0     C37208   7.635   3.441   2.933  0.4869 -0.2873 -0.8442
 1017MOL0     C37209   7.510   3.497   2.940 -0.0852  0.4114 -0.2451
 1017MOL0     N37210   6.799   3.785   2.585  0.4624  0.5245 -0.6607
 1017MOL0     N37211   6.686   3.754   2.530  0.1449  0.6670 -0.6015
 1017MOL0     C37212   5.505   3.660   2.668 -0.0674 -0.7489 -0.1274
 1017MOL0     C37213   5.374   3.675   2.715 -0.1190  0.8043  0.4611
 1017MOL0     C37214   4.956   3.658   2.882 -0.7681 -1.3018  0.3586
 1017MOL0     C37215   4.871   3.588   2.793 -0.2652  0.0144 -0.4138
 1017MOL0     C37216   4.735   3.578   2.806  0.2233  0.4366 -0.4998
 1017MOL0     C37217   4.677   3.656   2.906 -0.9983 -0.7112  0.6810
 1017MOL0     O37218   4.546   3.657   2.929 -0.0692  0.3102  0.1065
 1017MOL0     C37219   4.485   3.534   2.950  0.4737 -0.4741  0.0972
 1017MOL0     C37220   4.366   3.546   3.031  0.8086 -0.1776 -0.3603
 1017MOL0     C37221   4.263   3.653   2.983  0.6021 -0.8510  0.4792
 1017MOL0     C37222   4.215   3.647   2.834  0.3710 -0.0553 -0.0670
 1017MOL0     C37223   4.199   3.514   2.777  0.4163  0.7413  0.3094
 1017MOL0     C37224   4.205   3.398   2.754  0.0942 -0.5920 -0.6057
 1017MOL0     C37225   4.754   3.744   2.983 -0.8474  1.3500  0.6768
 1017MOL0     C37226   4.899   3.744   2.977  0.1086  1.1997  0.0754
 1017MOL0     C37227   4.975   3.845   3.069 -0.3494 -0.2862 -0.0275
 1017MOL0     H37228   5.211   3.440   2.541 -0.2613  1.1289  0.4639
 1017MOL0     H37229   5.409   3.437   2.421  0.1104 -0.1463 -0.1745
 1017MOL0     H37230   5.715   3.735   2.480  0.6292  0.3170 -0.9777
 1017MOL0     H37231   5.778   3.615   2.599 -0.7162  1.5255  0.9884
 1017MOL0     H37232   5.786   3.608   2.304  3.1980  2.3458 -1.6515
 1017MOL0     H37233   5.855   3.476   2.401  1.4640  0.2196  2.0402
 1017MOL0     H37234   5.980   3.707   2.505 -0.8667  3.4247 -2.4848
 1017MOL0     H37235   5.997   3.733   2.331 -3.9374  1.0561 -1.8229
 1017MOL0     H37236   6.049   3.484   2.481 -1.2756  0.4218 -0.9998
 1017MOL0     H37237   6.078   3.514   2.304 -4.4434 -1.1041 -0.6937
 1017MOL0     H37238   6.251   3.687   2.371  3.2131 -1.0451 -0.6137
 1017MOL0     H37239   6.225   3.662   2.530  1.6878  2.6754 -0.7094
 1017MOL0     H37240   6.308   3.415   2.511  1.8790 -0.1757 -0.8626
 1017MOL0     H37241   6.320   3.433   2.337  1.4797 -0.0398 -0.8088
 1017MOL0     H37242   6.481   3.619   2.378 -3.5156  0.8364  0.3953
 1017MOL0     H37243   6.553   3.467   2.443 -0.0230  0.4883  0.8652
 1017MOL0     H37244   6.412   3.688   2.596  0.8297  1.0189 -1.7766
 1017MOL0     H37245   6.458   3.542   2.663  0.9754 -1.6748 -0.2765
 1017MOL0     H37246   6.683   3.581   2.816  3.1839  1.4285  0.9608
 1017MOL0     H37247   6.919   3.862   2.795 -2.7906  0.2014 -0.0150
 1017MOL0     H37248   6.876   3.718   2.907 -0.2831 -0.8657 -0.1320
 1017MOL0     H37249   7.072   3.687   2.689 -1.6536 -0.7462 -0.8417
 1017MOL0     H37250   7.127   3.719   2.846  0.1339 -1.5596 -0.6222
 1017MOL0     H37251   6.949   3.471   2.776  1.6200 -3.7323  0.4307
 1017MOL0     H37252   6.991   3.521   2.940 -2.4508 -2.5953 -1.6404
 1017MOL0     H37253   7.188   3.448   2.716  1.0551 -0.9799  0.2423
 1017MOL0     H37254   7.141   3.353   2.869 -1.7302 -0.2195  1.6536
 1017MOL0     H37255   7.327   3.281   2.761  0.3104  0.1950 -0.8716
 1017MOL0     H37256   7.549   3.179   2.748 -0.8570 -0.0803  0.5295
 1017MOL0     H37257   8.128   3.376   2.843  0.6302  0.0741 -0.9633
 1017MOL0     H37258   8.338   3.267   2.905 -1.3909  0.0444 -2.0412
 1017MOL0     H37259   8.351   3.097   3.314 -3.0496  2.7562 -2.2302
 1017MOL0     H37260   8.311   2.947   3.236 -4.7709  3.6818 -5.0335
 1017MOL0     H37261   8.581   3.074   3.236 -1.2377  0.4270 -1.6966
 1017MOL0     H37262   8.530   2.965   3.359 -1.9235  1.2992  0.7212
 1017MOL0     H37263   8.517   2.782   3.192 -0.6007  1.4166  3.5051
 1017MOL0     H37264   8.540   2.892   3.051  3.8287  2.0731 -0.0520
 1017MOL0     H37265   8.732   2.883   3.287 -1.7200 -5.0229  0.8789
 1017MOL0     H37266   8.756   2.965   3.128  2.2920 -1.8213 -1.2801
 1017MOL0     H37267   8.887   2.795   3.094  0.3544  0.9362 -1.1738
 1017MOL0     H37268   8.734   2.779   3.004 -2.6632  4.8919  1.3991
 1017MOL0     H37269   8.649   2.608   3.160 -0.9738  2.2323 -3.5089
 1017MOL0     H37270   8.792   2.552   3.087  2.6010  1.5106 -0.5560
 1017MOL0     H37271   8.747   2.636   3.370 -1.6579 -1.4191 -0.7225
 1017MOL0     H37272   8.891   2.708   3.307 -0.2721 -0.1742 -0.0705
 1017MOL0     H37273   8.924   2.500   3.426  0.1188  1.2110 -0.0251
 1017MOL0     H37274   8.822   2.415   3.318  1.1476 -0.4838 -1.4478
 1017MOL0     H37275   8.102   3.039   3.194  0.3299 -0.4400 -0.1129
 1017MOL0     H37276   7.902   3.107   3.091  1.9439 -0.0626  4.1451
 1017MOL0     H37277   7.722   3.493   2.971 -0.2723  4.0459 -4.1723
 1017MOL0     H37278   7.498   3.593   2.989 -2.5066  0.6670 -1.2294
 1017MOL0     H37279   5.594   3.701   2.715 -1.8218  3.0320  0.2550
 1017MOL0     H37280   5.365   3.747   2.796  0.3046  1.7571 -0.3253
 1017MOL0     H37281   4.904   3.521   2.714  3.4480 -0.3626  1.2100
 1017MOL0     H37282   4.668   3.519   2.744 -1.7300  2.0297 -0.0110
 1017MOL0     H37283   4.549   3.463   3.004  0.8319 -1.0935 -1.0994
 1017MOL0     H37284   4.474   3.475   2.858 -0.3702 -1.7801  0.9940
 1017MOL0     H37285   4.388   3.571   3.135  1.6928 -2.4932  0.0794
 1017MOL0     H37286   4.324   3.445   3.038  3.0615 -1.5587 -3.8750
 1017MOL0     H37287   4.300   3.755   2.990 -1.9987  0.2202 -0.0759
 1017MOL0     H37288   4.170   3.636   3.038 -2.0684 -0.9463 -3.6467
 1017MOL0     H37289   4.119   3.699   2.827  0.6623  0.5287  0.2653
 1017MOL0     H37290   4.279   3.706   2.768 -2.5951 -1.4515 -4.7165
 1017MOL0     H37291   4.207   3.294   2.728 -0.6521 -0.5495 -0.8537
 1017MOL0     H37292   4.704   3.789   3.068  0.5065 -1.8103  3.3760
 1017MOL0     H37293   5.080   3.844   3.039 -0.9379  3.3447 -2.8687
 1017MOL0     H37294   4.925   3.942   3.077  1.3720  0.5691  0.9325
 1017MOL0     H37295   4.983   3.805   3.171  1.0058 -1.2267 -0.4821
 1018MOL0     O37296  10.547  10.004   2.873  0.5241  0.7654 -0.1062
 1018MOL0     C37297  10.531   9.895   2.817 -0.2276 -0.3140  0.4334
 1018MOL0     O37298  10.633   9.804   2.794 -0.0350 -0.5791 -0.1654
 1018MOL0     C37299  10.770   9.839   2.815  0.3383  0.4869 -1.2992
 1018MOL0     C37300  10.854   9.737   2.875  0.1463 -0.2629  0.6545
 1018MOL0     C37301  10.994   9.767   2.897 -0.0790  0.2376 -0.3173
 1018MOL0     C37302  11.038   9.895   2.878  0.8384  0.1347  0.5301
 1018MOL0     O37303  11.173   9.923   2.906  0.2506  0.2429  0.0627
 1018MOL0     C37304  11.184  10.008   3.023 -0.4220 -0.2830  1.4539
 1018MOL0     C37305  11.227   9.951   3.159  0.3106 -0.5961 -0.7081
 1018MOL0     C37306  11.373   9.905   3.152  0.2005  1.1726 -0.6435
 1018MOL0     C37307  11.403   9.785   3.250  1.0476  1.3520 -0.6664
 1018MOL0     C37308  11.550   9.764   3.284 -1.1449 -0.8163 -0.5908
 1018MOL0     C37309  11.641   9.746   3.159  0.6168  0.7521  0.4725
 1018MOL0     C37310  11.793   9.711   3.172  0.1771  0.1852 -0.3113
 1018MOL0     C37311  11.825   9.598   3.263  0.4301  0.7097  0.2032
 1018MOL0     N37312  11.930   9.515   3.203 -0.3166 -0.6970 -0.0212
 1018MOL0     C37313  11.923   9.433   3.087 -0.5891 -0.6865 -0.4527
 1018MOL0     C37314  12.051   9.401   3.057  0.1651 -0.7426  0.1459
 1018MOL0     C37315  12.112   9.324   2.946  0.1506 -0.3530 -0.2281
 1018MOL0     C37316  12.154   9.417   2.828 -0.2458 -0.4254 -0.3843
 1018MOL0     C37317  12.131   9.329   2.702  0.6294  0.2069  0.7035
 1018MOL0     C37318  12.213   9.380   2.577 -0.0664 -0.1859 -0.3926
 1018MOL0     O37319  12.339   9.318   2.566 -0.0400 -0.0391  0.5443
 1018MOL0     C37320  12.424   9.340   2.460 -0.0562  0.4277  0.9690
 1018MOL0     C37321  12.556   9.298   2.468 -0.4632 -0.3258  0.2790
 1018MOL0     C37322  12.651   9.322   2.369  0.2629 -0.3183 -0.3765
 1018MOL0     C37323  12.613   9.398   2.258  0.9450  0.4099  0.0479
 1018MOL0     C37324  12.714   9.429   2.154 -1.1282  0.3282  0.7223
 1018MOL0     O37325  12.845   9.387   2.171 -0.2520 -0.0937 -0.6341
 1018MOL0     C37326  12.954   9.393   2.087 -0.1336 -0.0785  1.4230
 1018MOL0     C37327  12.960   9.416   1.945 -0.2768 -0.2026 -0.4329
 1018MOL0     C37328  13.079   9.422   1.871  0.1398  0.6952 -0.1158
 1018MOL0     C37329  13.200   9.391   1.935 -0.4656 -0.6596 -0.5563
 1018MOL0     O37330  13.322   9.401   1.871  0.2523 -0.3456  0.3854
 1018MOL0     C37331  13.323   9.408   1.727 -0.1382  0.9063 -0.1267
 1018MOL0     C37332  13.458   9.410   1.667 -1.2631 -1.0845  0.0039
 1018MOL0     C37333  13.547   9.528   1.702  0.1067 -0.5705  0.1009
 1018MOL0     C37334  13.696   9.506   1.676  0.2412  0.5357  0.0096
 1018MOL0     C37335  13.784   9.626   1.719  0.7664  0.5654  0.5228
 1018MOL0     C37336  13.936   9.607   1.685 -0.3524  0.4642 -0.8280
 1018MOL0     C37337  14.004   9.746   1.693  0.2694 -0.3221  0.1257
 1018MOL0     C37338  14.116   9.752   1.593  0.0201  0.2083  0.1107
 1018MOL0    Cl37339  14.050   9.759   1.424 -0.0039 -0.0231 -0.0112
 1018MOL0     C37340  13.192   9.336   2.063  0.8480 -0.3094  0.5077
 1018MOL0     C37341  13.078   9.346   2.141  0.7385  0.0095  0.6956
 1018MOL0     O37342  12.681   9.496   2.055 -0.0587 -1.2230  0.0480
 1018MOL0     C37343  12.478   9.434   2.245  0.1602 -0.1865 -0.6223
 1018MOL0     C37344  12.382   9.401   2.345  0.3561 -0.6284  0.4218
 1018MOL0     N37345  12.133   9.466   3.154 -0.4356 -0.1561  0.2209
 1018MOL0     N37346  12.059   9.530   3.237 -0.4123 -0.3888 -0.2901
 1018MOL0     C37347  10.956   9.988   2.823  0.3341  0.2014 -0.3847
 1018MOL0     C37348  10.819   9.963   2.792 -0.5072  0.4558  1.2817
 1018MOL0     C37349  10.398   9.869   2.760  0.4320  0.4206  0.0712
 1018MOL0     C37350  10.386   9.738   2.700 -0.4453  0.5025 -0.3401
 1018MOL0     C37351  10.265   9.696   2.652 -0.5469  0.0021  0.0678
 1018MOL0     C37352  10.155   9.774   2.654  0.5992 -0.5420  0.2734
 1018MOL0     O37353  10.042   9.731   2.581 -0.1193 -0.4085 -0.2806
 1018MOL0     C37354   9.927   9.819   2.565 -0.3237  0.2554  0.6208
 1018MOL0     C37355   9.836   9.808   2.678  0.1839  0.4620  0.1888
 1018MOL0     C37356   9.713   9.894   2.625 -1.0435 -0.6021  0.1269
 1018MOL0     C37357   9.641   9.962   2.748  0.3373  0.9490  0.3882
 1018MOL0     C37358   9.727  10.061   2.795  0.1275 -0.2606  0.2358
 1018MOL0     C37359   9.800  10.150   2.833 -0.2476  0.1241  0.6281
 1018MOL0     C37360  10.154   9.896   2.724  0.7013  0.2718  0.1967
 1018MOL0     C37361  10.273   9.942   2.776 -0.6430  0.1872  0.2007
 1018MOL0     C37362  10.270  10.068   2.859 -0.8591 -0.1831 -0.2314
 1018MOL0     H37363  10.813   9.638   2.892  1.7969 -0.7067  2.3594
 1018MOL0     H37364  11.068   9.692   2.924 -1.0734 -1.4015 -1.8675
 1018MOL0     H37365  11.261  10.083   2.999 -1.4424  0.1883 -0.6003
 1018MOL0     H37366  11.091  10.064   3.034 -2.4940 -2.9512 -1.0254
 1018MOL0     H37367  11.156   9.870   3.181 -2.4713  0.9822 -3.1164
 1018MOL0     H37368  11.220  10.028   3.237  0.7642 -0.5405 -0.7251
 1018MOL0     H37369  11.433   9.991   3.183  0.0024  0.1832  2.8255
 1018MOL0     H37370  11.398   9.866   3.052 -0.6523  0.4165 -0.5796
 1018MOL0     H37371  11.355   9.810   3.345  2.0226 -0.9691  0.5142
 1018MOL0     H37372  11.372   9.684   3.220  3.3273 -0.5311  2.6849
 1018MOL0     H37373  11.586   9.850   3.341  0.9332 -0.1933 -2.6756
 1018MOL0     H37374  11.565   9.671   3.340  1.5837 -1.4669 -2.1701
 1018MOL0     H37375  11.601   9.683   3.079  0.3548  3.9054 -2.0930
 1018MOL0     H37376  11.642   9.838   3.099  0.1848 -0.3033 -1.2135
 1018MOL0     H37377  11.852   9.796   3.208 -2.4934  3.1007 -2.3080
 1018MOL0     H37378  11.820   9.696   3.067  0.3275  1.3633 -0.4502
 1018MOL0     H37379  11.865   9.623   3.361  1.2505  0.8825 -0.1666
 1018MOL0     H37380  11.733   9.539   3.273 -0.2483  0.4103 -5.0564
 1018MOL0     H37381  11.836   9.398   3.032  0.7589 -0.5822 -2.7527
 1018MOL0     H37382  12.210   9.282   2.970 -0.0988 -0.8396 -0.0514
 1018MOL0     H37383  12.044   9.242   2.923 -2.7041  2.6611 -4.0092
 1018MOL0     H37384  12.092   9.507   2.840  1.2631  0.5961  0.1673
 1018MOL0     H37385  12.261   9.438   2.842  0.2300 -1.1003 -2.7507
 1018MOL0     H37386  12.026   9.316   2.672  1.1947 -3.8235 -0.1766
 1018MOL0     H37387  12.171   9.229   2.724 -0.2080 -0.5268 -0.9678
 1018MOL0     H37388  12.228   9.489   2.580 -2.5557  0.3379 -2.8015
 1018MOL0     H37389  12.147   9.371   2.490  0.6648 -2.3162 -0.7703
 1018MOL0     H37390  12.585   9.248   2.560  0.6548 -0.4812 -0.1411
 1018MOL0     H37391  12.753   9.286   2.372  0.4122  0.0277 -0.9870
 1018MOL0     H37392  12.871   9.443   1.889  1.2549  0.3180 -2.7305
 1018MOL0     H37393  13.091   9.459   1.770  3.2692  1.2873  0.3786
 1018MOL0     H37394  13.257   9.328   1.691  1.3242 -0.2314 -0.3628
 1018MOL0     H37395  13.287   9.508   1.701 -0.2567  0.5795 -1.3181
 1018MOL0     H37396  13.502   9.317   1.706  0.2187  0.1733  1.5085
 1018MOL0     H37397  13.441   9.394   1.561 -2.8205  0.0807  0.0465
 1018MOL0     H37398  13.510   9.616   1.649  0.3257 -1.4486 -1.5743
 1018MOL0     H37399  13.525   9.544   1.808  0.8813 -0.3591  0.2355
 1018MOL0     H37400  13.709   9.470   1.574  0.2126  1.8797 -0.4895
 1018MOL0     H37401  13.737   9.421   1.731  1.8463  0.6465 -0.9541
 1018MOL0     H37402  13.773   9.639   1.827 -2.4211  0.9248  0.2424
 1018MOL0     H37403  13.742   9.712   1.665  0.2098 -1.4002 -2.3946
 1018MOL0     H37404  13.991   9.540   1.752 -0.5490  0.4849 -0.6461
 1018MOL0     H37405  13.949   9.555   1.589  1.9813 -1.3304  0.3504
 1018MOL0     H37406  14.041   9.756   1.795  2.5802 -2.4276 -0.4095
 1018MOL0     H37407  13.930   9.821   1.663 -1.7515 -2.1860  0.1396
 1018MOL0     H37408  14.172   9.845   1.601  1.6266 -0.4311 -2.4078
 1018MOL0     H37409  14.180   9.663   1.605  0.5397  0.4684 -0.6423
 1018MOL0     H37410  13.286   9.304   2.106  0.9921 -0.7103 -0.0915
 1018MOL0     H37411  13.088   9.319   2.246  1.4893  1.0622  0.9123
 1018MOL0     H37412  12.447   9.496   2.162  1.8657 -2.9929 -3.5935
 1018MOL0     H37413  12.278   9.429   2.336 -0.2769 -3.3250 -1.6820
 1018MOL0     H37414  11.002  10.083   2.795 -1.8756  0.8493 -2.1482
 1018MOL0     H37415  10.758  10.037   2.741 -2.1289 -2.1634 -0.8566
 1018MOL0     H37416  10.469   9.669   2.702  0.8613  2.0191 -0.7382
 1018MOL0     H37417  10.267   9.592   2.619  1.8284 -0.5685  1.7602
 1018MOL0     H37418   9.873   9.788   2.475  0.1015 -1.1554  0.8186
 1018MOL0     H37419   9.959   9.923   2.553 -1.6627  0.4596 -1.8138
 1018MOL0     H37420   9.872   9.845   2.775 -0.1900 -1.9080  1.3075
 1018MOL0     H37421   9.797   9.709   2.702 -0.0235  0.2379 -1.0250
 1018MOL0     H37422   9.647   9.820   2.578 -3.3269 -1.1072  3.7495
 1018MOL0     H37423   9.736   9.971   2.550  0.1051 -0.4731  0.5909
 1018MOL0     H37424   9.547  10.008   2.715  0.8483  1.3120 -0.5901
 1018MOL0     H37425   9.625   9.879   2.817  1.1111 -0.1895 -0.7575
 1018MOL0     H37426   9.865  10.229   2.865  0.4356  0.1308 -0.7158
 1018MOL0     H37427  10.071   9.964   2.734 -2.1712 -2.9952  0.4566
 1018MOL0     H37428  10.327  10.131   2.790 -0.2177  1.0470  1.3706
 1018MOL0     H37429  10.173  10.114   2.875 -1.3029 -0.6444 -1.4338
 1018MOL0     H37430  10.327  10.056   2.951  0.0026  0.5464 -0.6554
 1019MOL0     O37431   8.237  11.091   3.339  0.9135 -0.3561  0.1992
 1019MOL0     C37432   8.347  11.076   3.380  0.2017 -0.9310 -0.1941
 1019MOL0     O37433   8.385  10.973   3.467 -0.1562  0.1558  1.2939
 1019MOL0     C37434   8.277  10.895   3.516 -0.8902 -0.2033  0.8688
 1019MOL0     C37435   8.211  10.802   3.433  0.3901 -0.6929  0.2870
 1019MOL0     C37436   8.109  10.737   3.487  0.3033  0.6519 -0.5746
 1019MOL0     C37437   8.062  10.756   3.616 -0.6051  0.0470 -0.5900
 1019MOL0     O37438   7.950  10.695   3.642 -0.1011  0.8122 -0.5636
 1019MOL0     C37439   7.911  10.688   3.782  0.6848  0.2968 -1.3884
 1019MOL0     C37440   7.814  10.578   3.809 -0.4345 -0.3439  0.3678
 1019MOL0     C37441   7.750  10.558   3.945 -1.0908  0.4973  0.7383
 1019MOL0     C37442   7.850  10.503   4.055 -0.1694  0.2133  0.1692
 1019MOL0     C37443   7.792  10.510   4.192 -0.1754 -0.4623  0.3582
 1019MOL0     C37444   7.905  10.470   4.288 -0.2362 -0.3076 -0.8221
 1019MOL0     C37445   7.893  10.521   4.440  0.5914  0.6856 -0.4038
 1019MOL0     C37446   7.767  10.467   4.512 -0.3006 -0.1932  0.5769
 1019MOL0     N37447   7.721  10.557   4.622  0.6435 -0.0566 -0.0713
 1019MOL0     C37448   7.670  10.677   4.604 -0.5416  0.6922  0.4239
 1019MOL0     C37449   7.632  10.722   4.723 -0.2855  0.0041 -0.3243
 1019MOL0     C37450   7.560  10.857   4.736  0.4558  1.0516 -0.2213
 1019MOL0     C37451   7.438  10.874   4.649  0.1729  0.0082 -0.3732
 1019MOL0     C37452   7.392  11.018   4.642  0.7053  0.0425 -0.2057
 1019MOL0     C37453   7.383  11.090   4.775  0.1445  0.5063  0.6594
 1019MOL0     O37454   7.303  11.016   4.870  0.4215  0.9033  0.4911
 1019MOL0     C37455   7.166  11.035   4.856 -1.5663  0.9591  0.6570
 1019MOL0     C37456   7.095  11.137   4.799  0.5529 -0.7344  0.0073
 1019MOL0     C37457   6.946  11.122   4.789 -1.0859  0.2301 -0.1322
 1019MOL0     C37458   6.882  11.003   4.835  0.1975 -0.9436  0.3921
 1019MOL0     C37459   6.735  10.991   4.823 -0.2817 -0.3717 -0.3876
 1019MOL0     O37460   6.697  10.851   4.824 -0.1578 -0.2447  0.4516
 1019MOL0     C37461   6.563  10.815   4.798 -0.5300 -0.2784 -0.4429
 1019MOL0     C37462   6.490  10.761   4.904  0.5554 -0.1923 -0.1807
 1019MOL0     C37463   6.358  10.727   4.883  0.1609 -0.1569 -0.2088
 1019MOL0     C37464   6.288  10.750   4.763  0.7130 -0.2162 -0.8211
 1019MOL0     O37465   6.156  10.696   4.747  0.4070  0.3310 -0.2931
 1019MOL0     C37466   6.113  10.632   4.627  0.4319 -1.0901 -1.3943
 1019MOL0     C37467   5.963  10.610   4.650 -0.3512 -0.5268 -0.2099
 1019MOL0     C37468   5.943  10.507   4.764 -0.4511 -0.4414  0.0597
 1019MOL0     C37469   5.799  10.448   4.745 -0.0411 -0.3176  0.0462
 1019MOL0     C37470   5.777  10.344   4.859 -0.5796 -0.3664  0.3930
 1019MOL0     C37471   5.635  10.282   4.853  0.0576  0.0107 -0.1727
 1019MOL0     C37472   5.624  10.150   4.921  0.6655  0.5642 -0.1154
 1019MOL0     C37473   5.506  10.067   4.864  0.3748  0.3769 -0.3122
 1019MOL0    Cl37474   5.502   9.933   4.972 -0.0655 -0.2980  0.0164
 1019MOL0     C37475   6.367  10.809   4.659  0.2992 -0.7658 -0.2855
 1019MOL0     C37476   6.508  10.834   4.670  0.4279 -0.6745 -0.2438
 1019MOL0     O37477   6.662  11.093   4.808 -0.9907  0.3796  0.2340
 1019MOL0     C37478   6.962  10.892   4.870 -0.9709 -0.2177 -0.9760
 1019MOL0     C37479   7.108  10.913   4.894  0.3510 -0.4081  0.3383
 1019MOL0     N37480   7.670  10.626   4.819 -0.3090 -0.7074 -0.3190
 1019MOL0     N37481   7.720  10.525   4.756 -0.4526 -0.3013 -0.5878
 1019MOL0     C37482   8.137  10.843   3.697 -0.3396 -0.6360 -0.0467
 1019MOL0     C37483   8.250  10.900   3.647 -0.1210 -0.1550 -0.9390
 1019MOL0     C37484   8.456  11.151   3.311  0.2052 -0.1129  0.1990
 1019MOL0     C37485   8.578  11.164   3.377 -0.8020  0.2092  0.5422
 1019MOL0     C37486   8.683  11.237   3.321 -0.4354 -0.3005  0.4213
 1019MOL0     C37487   8.676  11.294   3.192  0.9456 -0.4362 -0.7138
 1019MOL0     O37488   8.781  11.362   3.134 -0.0110  0.9038 -0.2437
 1019MOL0     C37489   8.911  11.318   3.170 -0.7145  0.4875  0.3828
 1019MOL0     C37490   8.945  11.175   3.117  0.3056 -0.5596 -0.4600
 1019MOL0     C37491   8.972  11.149   2.971 -0.1732 -0.6628  0.3710
 1019MOL0     C37492   8.858  11.198   2.875 -0.7937 -0.5131 -0.2823
 1019MOL0     C37493   8.727  11.132   2.895  0.2820 -0.0147  0.4236
 1019MOL0     C37494   8.621  11.081   2.909  0.9710 -0.0416  0.3073
 1019MOL0     C37495   8.551  11.289   3.132  0.0270  0.4603  0.4508
 1019MOL0     C37496   8.443  11.212   3.185  0.4783 -1.1619  0.0485
 1019MOL0     C37497   8.320  11.222   3.108  0.1526  1.0519 -0.0902
 1019MOL0     H37498   8.242  10.790   3.329 -3.7508  1.6175 -1.4403
 1019MOL0     H37499   8.056  10.669   3.423 -1.0358  1.6781 -0.5955
 1019MOL0     H37500   7.997  10.670   3.847 -1.4714 -1.4806  1.1985
 1019MOL0     H37501   7.869  10.783   3.816  0.0746 -1.1995  2.5295
 1019MOL0     H37502   7.860  10.481   3.787  1.8935  1.0483 -1.3507
 1019MOL0     H37503   7.737  10.598   3.735  1.4058 -1.9392 -2.1259
 1019MOL0     H37504   7.663  10.493   3.934 -0.3122 -0.2435 -1.7353
 1019MOL0     H37505   7.725  10.658   3.983  1.7603  0.8632  1.9269
 1019MOL0     H37506   7.883  10.403   4.023  2.3261  0.0908  2.6715
 1019MOL0     H37507   7.937  10.567   4.066  1.3346 -1.8932  1.4540
 1019MOL0     H37508   7.762  10.614   4.207 -1.5420 -0.6205 -1.0331
 1019MOL0     H37509   7.704  10.448   4.211 -0.3053 -0.6518 -0.7985
 1019MOL0     H37510   7.921  10.362   4.282  1.2509 -0.0953 -1.2323
 1019MOL0     H37511   8.001  10.512   4.255  1.6869 -3.3920  0.3220
 1019MOL0     H37512   7.877  10.628   4.424  1.2529  0.6295 -1.5432
 1019MOL0     H37513   7.982  10.482   4.491  0.2832 -1.7599 -1.5741
 1019MOL0     H37514   7.688  10.462   4.436 -1.7059  3.6089  1.4991
 1019MOL0     H37515   7.794  10.368   4.547 -0.6479  0.3963  2.6659
 1019MOL0     H37516   7.654  10.724   4.508  0.7561 -0.9291 -0.6557
 1019MOL0     H37517   7.532  10.861   4.842 -1.8967 -2.7166 -0.4791
 1019MOL0     H37518   7.632  10.938   4.725  0.5571  1.2278  1.4312
 1019MOL0     H37519   7.459  10.850   4.544 -0.0434 -0.3178 -0.3438
 1019MOL0     H37520   7.350  10.824   4.690 -1.5172  1.9014 -1.4716
 1019MOL0     H37521   7.292  11.002   4.600  1.9531 -1.5719 -2.8629
 1019MOL0     H37522   7.454  11.069   4.568  0.0667  1.1835  0.0341
 1019MOL0     H37523   7.348  11.190   4.747  0.6197  1.0467  1.9391
 1019MOL0     H37524   7.482  11.104   4.819  0.8354  0.0286 -0.6800
 1019MOL0     H37525   7.139  11.229   4.764  1.0881 -0.1834  1.9857
 1019MOL0     H37526   6.892  11.208   4.750  1.0138  1.8452  0.3058
 1019MOL0     H37527   6.532  10.742   5.003  0.0031  1.2689  0.3676
 1019MOL0     H37528   6.316  10.661   4.958 -0.5645 -0.8118 -1.1842
 1019MOL0     H37529   6.120  10.696   4.538  0.3260 -0.1319 -0.7330
 1019MOL0     H37530   6.167  10.537   4.619  3.1287  0.3342 -1.0269
 1019MOL0     H37531   5.915  10.703   4.683 -0.0092 -0.6988  0.8081
 1019MOL0     H37532   5.916  10.574   4.558 -2.0136 -0.9124  0.7383
 1019MOL0     H37533   6.026  10.438   4.748  0.0784  0.6872 -2.4090
 1019MOL0     H37534   5.955  10.540   4.868  2.1562 -2.3956  0.4791
 1019MOL0     H37535   5.791  10.389   4.653 -1.4550 -2.1302  1.2716
 1019MOL0     H37536   5.713  10.515   4.744 -1.5019 -2.0964  0.5173
 1019MOL0     H37537   5.792  10.405   4.948 -2.2040  1.4424 -0.4766
 1019MOL0     H37538   5.848  10.261   4.853 -0.9837 -1.0883  3.7022
 1019MOL0     H37539   5.564  10.338   4.914 -1.5349 -0.9666 -1.0451
 1019MOL0     H37540   5.600  10.283   4.749 -1.8458 -2.1421  0.3726
 1019MOL0     H37541   5.615  10.167   5.029  1.4564 -0.0660  0.0568
 1019MOL0     H37542   5.717  10.093   4.924 -0.2341 -1.0775  4.1367
 1019MOL0     H37543   5.413  10.125   4.870 -0.5268 -1.1283  0.8273
 1019MOL0     H37544   5.538  10.037   4.764 -0.5086  0.4798 -0.6421
 1019MOL0     H37545   6.329  10.839   4.562  3.0334 -1.4691 -1.6707
 1019MOL0     H37546   6.577  10.856   4.589 -0.7844  1.6390 -0.7332
 1019MOL0     H37547   6.921  10.798   4.905  1.2066 -0.0244  2.6464
 1019MOL0     H37548   7.181  10.838   4.925  0.0904 -0.1514  1.5937
 1019MOL0     H37549   8.108  10.867   3.798 -2.7824 -1.0214 -0.5904
 1019MOL0     H37550   8.317  10.956   3.712  0.1605 -2.5027  0.9312
 1019MOL0     H37551   8.603  11.110   3.468  0.1659 -0.4817 -0.1043
 1019MOL0     H37552   8.777  11.239   3.376  1.8040  0.5899 -3.1618
 1019MOL0     H37553   8.935  11.327   3.276  1.6734  3.4117 -0.2564
 1019MOL0     H37554   8.974  11.394   3.123 -2.1613  1.9889  0.7720
 1019MOL0     H37555   8.869  11.100   3.143  0.7069 -1.1213 -0.8735
 1019MOL0     H37556   9.040  11.134   3.152 -0.7241 -4.0702 -1.3091
 1019MOL0     H37557   8.988  11.042   2.954  0.4491 -0.7335  1.2955
 1019MOL0     H37558   9.065  11.203   2.953 -0.3151 -0.2069  0.9912
 1019MOL0     H37559   8.861  11.307   2.888  3.4289 -0.2485 -1.8632
 1019MOL0     H37560   8.896  11.184   2.774  0.7344 -4.1734  0.6573
 1019MOL0     H37561   8.526  11.032   2.918  2.3854 -2.9150  0.5895
 1019MOL0     H37562   8.526  11.344   3.042  1.0321  1.0510  0.5278
 1019MOL0     H37563   8.295  11.116   3.094  0.4943  0.9706 -0.1158
 1019MOL0     H37564   8.251  11.283   3.166  2.8575  2.9887  1.3238
 1019MOL0     H37565   8.321  11.283   3.017  0.3443  2.9911  1.1583
 1020MOL0     O37566   8.800   1.918   9.947  0.0621 -0.0938 -0.3526
 1020MOL0     C37567   8.779   1.883   9.833  1.0828  0.2571 -0.6167
 1020MOL0     O37568   8.873   1.825   9.747 -0.6751  0.6016 -0.3953
 1020MOL0     C37569   8.997   1.800   9.800 -0.8366  0.8148  0.7081
 1020MOL0     C37570   9.055   1.664   9.803  0.0300 -0.8173 -0.7418
 1020MOL0     C37571   9.195   1.653   9.831 -0.0599 -0.5068  0.0058
 1020MOL0     C37572   9.273   1.761   9.865 -0.3413 -0.7702  0.1293
 1020MOL0     O37573   9.401   1.740   9.874  0.6123  0.1252  0.3728
 1020MOL0     C37574   9.496   1.829   9.927 -1.3982 -0.2161  0.3366
 1020MOL0     C37575   9.632   1.760   9.918 -0.4170 -0.2140  0.3888
 1020MOL0     C37576   9.723   1.853  10.014  0.7014  0.8690 -0.3236
 1020MOL0     C37577   9.864   1.787  10.025 -0.0650 -0.0007 -0.8691
 1020MOL0     C37578   9.947   1.872  10.123 -0.1697  0.7143 -0.2916
 1020MOL0     C37579  10.088   1.809  10.132  0.4425 -0.5305  0.0461
 1020MOL0     C37580  10.192   1.903  10.209 -0.3555 -0.4715  0.2839
 1020MOL0     C37581  10.220   2.044  10.136 -0.3466  0.4310  0.5832
 1020MOL0     N37582  10.230   2.025   9.990  0.2694 -0.7922 -0.3072
 1020MOL0     C37583  10.323   1.945   9.927 -0.6303  1.2139  0.2002
 1020MOL0     C37584  10.267   1.925   9.804 -0.2592 -0.4051  0.4608
 1020MOL0     C37585  10.326   1.851   9.686 -0.2330 -0.4582 -0.6680
 1020MOL0     C37586  10.344   1.943   9.563  0.5980 -0.1563 -0.1367
 1020MOL0     C37587  10.464   2.043   9.591  0.7438  0.0752  0.4816
 1020MOL0     C37588  10.602   1.982   9.557 -0.1884  0.1071  0.4560
 1020MOL0     O37589  10.695   2.028   9.664  1.3563  0.9144 -0.2393
 1020MOL0     C37590  10.777   2.135   9.656  0.3398  0.6741  0.5504
 1020MOL0     C37591  10.834   2.185   9.542  0.5139  0.2033  0.7429
 1020MOL0     C37592  10.923   2.296   9.544 -0.1057 -0.7531  1.1107
 1020MOL0     C37593  10.955   2.351   9.668 -0.4176  0.1147 -0.1126
 1020MOL0     C37594  11.041   2.471   9.672  0.3381 -0.1851  1.0140
 1020MOL0     O37595  11.064   2.536   9.544 -0.1468 -0.2060  0.0798
 1020MOL0     C37596  11.161   2.629   9.508 -1.0248  1.2026  0.3726
 1020MOL0     C37597  11.280   2.647   9.574 -1.1952  0.1606  0.1017
 1020MOL0     C37598  11.367   2.752   9.539 -0.0708 -0.3730  0.3895
 1020MOL0     C37599  11.334   2.838   9.433 -0.3282 -0.0606 -0.0164
 1020MOL0     O37600  11.416   2.937   9.414  0.4438 -0.2952 -0.5855
 1020MOL0     C37601  11.458   2.975   9.280  0.3513 -0.1237 -0.6631
 1020MOL0     C37602  11.552   3.102   9.286 -0.3489  0.8850 -0.4002
 1020MOL0     C37603  11.473   3.208   9.353 -0.4648 -0.3576 -0.3613
 1020MOL0     C37604  11.528   3.338   9.309  0.9449 -0.0969 -0.2582
 1020MOL0     C37605  11.676   3.361   9.332  0.2840 -0.5306 -0.1933
 1020MOL0     C37606  11.726   3.486   9.260 -0.0860 -0.5663 -0.2274
 1020MOL0     C37607  11.878   3.494   9.275 -0.2382 -0.2921 -0.0690
 1020MOL0     C37608  11.950   3.599   9.191  0.5654  0.4942 -0.3132
 1020MOL0    Cl37609  12.115   3.593   9.241  0.2962  0.2072  0.1820
 1020MOL0     C37610  11.227   2.808   9.353 -0.9803 -0.7918  0.2539
 1020MOL0     C37611  11.146   2.706   9.392  0.2135  0.1588 -0.2873
 1020MOL0     O37612  11.087   2.512   9.778  0.4743 -0.1309  0.2580
 1020MOL0     C37613  10.888   2.298   9.783 -0.0315 -1.1933  0.2975
 1020MOL0     C37614  10.807   2.189   9.774  0.1162  0.8168  0.6331
 1020MOL0     N37615  10.141   1.984   9.795  0.0179  0.1705  0.5579
 1020MOL0     N37616  10.127   2.043   9.911 -0.5488 -0.0709 -0.0594
 1020MOL0     C37617   9.216   1.881   9.862  0.8768 -0.6350  0.7252
 1020MOL0     C37618   9.081   1.906   9.836  0.0205 -0.4286 -0.0203
 1020MOL0     C37619   8.633   1.892   9.790  0.2069 -0.7571 -1.2180
 1020MOL0     C37620   8.555   1.975   9.875  0.6988  1.3058 -0.1315
 1020MOL0     C37621   8.419   1.983   9.848  0.2563 -0.0955  0.0969
 1020MOL0     C37622   8.368   1.905   9.746 -0.0807  0.1940  0.1621
 1020MOL0     O37623   8.238   1.915   9.719  1.0806  0.5804  0.9842
 1020MOL0     C37624   8.141   1.988   9.806  0.0131 -0.6101 -0.8149
 1020MOL0     C37625   8.000   1.969   9.762  0.2652  0.4688 -0.1281
 1020MOL0     C37626   7.943   2.051   9.650  0.4339  1.0797 -1.3388
 1020MOL0     C37627   7.792   2.014   9.626 -0.0026 -0.3131 -0.1844
 1020MOL0     C37628   7.716   2.140   9.584  0.6982  0.4441  0.6203
 1020MOL0     C37629   7.668   2.251   9.553  0.1242  0.0137  0.4620
 1020MOL0     C37630   8.448   1.825   9.663 -0.1905  0.2816  0.2048
 1020MOL0     C37631   8.585   1.821   9.681 -0.3877 -0.3639 -0.2378
 1020MOL0     C37632   8.666   1.760   9.570 -0.8926 -0.1965  0.6117
 1020MOL0     H37633   9.006   1.573   9.770  0.5926 -2.0751  1.6973
 1020MOL0     H37634   9.229   1.550   9.834 -1.6546 -1.0707  2.6859
 1020MOL0     H37635   9.513   1.927   9.882  1.0489 -0.2152  1.0995
 1020MOL0     H37636   9.475   1.846  10.033 -1.6418  0.4714  0.1836
 1020MOL0     H37637   9.666   1.752   9.814 -0.5253 -1.5110  0.4321
 1020MOL0     H37638   9.623   1.659   9.957 -0.2344  1.2586  4.7143
 1020MOL0     H37639   9.679   1.872  10.112 -0.0222 -0.5046 -0.3490
 1020MOL0     H37640   9.737   1.946   9.958 -0.6246  0.5295 -1.2749
 1020MOL0     H37641   9.847   1.688  10.068  1.7202  0.9311  2.2866
 1020MOL0     H37642   9.917   1.768   9.931  0.3654 -0.3816 -0.5535
 1020MOL0     H37643   9.957   1.972  10.079  1.1483  0.8830  0.3233
 1020MOL0     H37644   9.907   1.885  10.224  0.4009  0.9767 -0.0943
 1020MOL0     H37645  10.080   1.725  10.202 -1.6579 -0.9691 -0.6606
 1020MOL0     H37646  10.118   1.790  10.028 -1.7058  1.4003 -1.0234
 1020MOL0     H37647  10.276   1.833  10.209 -1.9790 -2.5370 -0.4921
 1020MOL0     H37648  10.164   1.929  10.312 -3.4472 -0.1437 -0.5488
 1020MOL0     H37649  10.132   2.101  10.169 -1.7054 -2.9849  3.5420
 1020MOL0     H37650  10.316   2.089  10.162 -0.7518  2.9483 -1.7037
 1020MOL0     H37651  10.423   1.920   9.962  0.4844  1.0833 -2.8249
 1020MOL0     H37652  10.427   1.816   9.709  0.3954  0.8663 -1.2664
 1020MOL0     H37653  10.251   1.777   9.659 -0.6355  0.3437 -1.8587
 1020MOL0     H37654  10.373   1.886   9.474  2.5969 -0.4988  0.6741
 1020MOL0     H37655  10.252   1.999   9.547 -0.6287 -2.0544 -0.1465
 1020MOL0     H37656  10.458   2.085   9.691 -3.8416  3.3517 -0.8190
 1020MOL0     H37657  10.443   2.126   9.522 -3.3781  1.0999  2.6422
 1020MOL0     H37658  10.628   2.016   9.456 -1.2111  0.5119  0.3087
 1020MOL0     H37659  10.594   1.874   9.566 -1.5577  0.1444  0.0134
 1020MOL0     H37660  10.815   2.138   9.446 -0.1522 -1.1025  1.4892
 1020MOL0     H37661  10.972   2.333   9.455  2.8048  0.9831  3.2672
 1020MOL0     H37662  11.316   2.584   9.655  3.7566  3.0389  0.5447
 1020MOL0     H37663  11.461   2.757   9.592 -0.2757 -0.7239  0.7945
 1020MOL0     H37664  11.509   2.891   9.232 -0.9338 -3.4545  3.2706
 1020MOL0     H37665  11.363   2.992   9.229 -1.2971  1.1007  2.5206
 1020MOL0     H37666  11.642   3.076   9.342  1.2158  3.6439 -1.4420
 1020MOL0     H37667  11.585   3.122   9.184 -0.8650 -2.1843 -1.2911
 1020MOL0     H37668  11.368   3.203   9.325 -0.3022 -0.8114 -0.9134
 1020MOL0     H37669  11.483   3.200   9.461  3.5944 -4.2431 -0.6963
 1020MOL0     H37670  11.473   3.415   9.365 -2.8384 -2.7682  0.1169
 1020MOL0     H37671  11.498   3.350   9.204 -2.9820 -2.2927  0.4024
 1020MOL0     H37672  11.739   3.283   9.288 -1.8568 -2.3224 -0.2738
 1020MOL0     H37673  11.690   3.383   9.438 -0.3385  2.6286 -0.6399
 1020MOL0     H37674  11.691   3.484   9.156 -0.1624  0.0816 -0.2229
 1020MOL0     H37675  11.683   3.574   9.310  1.5404  0.0686  0.1230
 1020MOL0     H37676  11.930   3.404   9.242 -1.8477 -0.2940 -2.9293
 1020MOL0     H37677  11.896   3.513   9.381 -1.1602 -1.2102  0.2701
 1020MOL0     H37678  11.940   3.579   9.084 -2.0016  2.4712 -0.5422
 1020MOL0     H37679  11.917   3.700   9.215  0.1825  0.0205  1.2623
 1020MOL0     H37680  11.194   2.868   9.269  1.3287  0.9686  0.5331
 1020MOL0     H37681  11.062   2.669   9.334  0.4187 -1.6511  0.4969
 1020MOL0     H37682  10.913   2.349   9.876  5.9029 -2.0374 -0.4657
 1020MOL0     H37683  10.752   2.144   9.856  0.9844 -2.2870 -0.3578
 1020MOL0     H37684   9.278   1.967   9.882  1.4119 -0.1705 -2.3695
 1020MOL0     H37685   9.057   2.012   9.832 -0.5048 -0.5010  0.8729
 1020MOL0     H37686   8.604   2.029   9.956  1.8030 -2.2664  1.7683
 1020MOL0     H37687   8.359   2.052   9.905  1.9061  2.2311 -0.8374
 1020MOL0     H37688   8.157   2.096   9.807 -0.4709 -0.4985 -2.3691
 1020MOL0     H37689   8.152   1.942   9.905 -3.5402 -3.6135 -1.5936
 1020MOL0     H37690   7.930   1.982   9.846 -2.2895 -1.4538 -1.8066
 1020MOL0     H37691   7.992   1.864   9.731  0.3685 -0.4262  2.5271
 1020MOL0     H37692   7.998   2.024   9.559  2.1746 -1.6883  0.3524
 1020MOL0     H37693   7.955   2.158   9.670  3.1955  0.4011  1.4525
 1020MOL0     H37694   7.762   1.943   9.548 -4.3811  2.3923 -1.3077
 1020MOL0     H37695   7.754   1.974   9.720  1.7291 -2.3942 -0.2981
 1020MOL0     H37696   7.596   2.330   9.540  2.3730  1.9831 -0.5736
 1020MOL0     H37697   8.403   1.771   9.581 -0.7240 -1.3122  1.4912
 1020MOL0     H37698   8.739   1.684   9.599 -0.8544 -0.7543 -0.8643
 1020MOL0     H37699   8.606   1.707   9.496 -1.2316  1.3419 -0.2394
 1020MOL0     H37700   8.708   1.845   9.516  1.1948 -2.3681 -1.4034
 1021MOL0     O37701   8.330   9.860   1.860 -0.1266 -0.8456 -0.3515
 1021MOL0     C37702   8.426   9.863   1.939  0.6441  0.2637 -0.2318
 1021MOL0     O37703   8.416   9.820   2.076 -0.0110  0.4986 -0.5795
 1021MOL0     C37704   8.298   9.788   2.134 -0.5311 -0.1789  0.5621
 1021MOL0     C37705   8.203   9.693   2.076 -0.6179 -0.8919 -0.7848
 1021MOL0     C37706   8.091   9.649   2.147  0.1631 -0.6084 -0.6715
 1021MOL0     C37707   8.046   9.718   2.254 -0.0660 -0.4885  0.7294
 1021MOL0     O37708   7.929   9.686   2.321 -0.1938 -0.1097 -1.2631
 1021MOL0     C37709   7.838   9.795   2.341 -0.3070  0.6397 -0.2545
 1021MOL0     C37710   7.692   9.732   2.343  0.3174 -0.3483  0.4365
 1021MOL0     C37711   7.592   9.845   2.324 -0.1587 -0.7096 -0.2840
 1021MOL0     C37712   7.447   9.817   2.372  0.1050 -0.1524 -0.7178
 1021MOL0     C37713   7.364   9.948   2.376  0.3282  0.6808 -0.4154
 1021MOL0     C37714   7.249   9.950   2.479 -0.0124  0.3949  0.2103
 1021MOL0     C37715   7.148   9.834   2.492  0.5468 -0.2878 -0.1456
 1021MOL0     C37716   7.074   9.824   2.358  0.0941  0.5981  0.4987
 1021MOL0     N37717   7.018   9.941   2.298 -0.7633 -0.1688  0.2825
 1021MOL0     C37718   6.892   9.986   2.313 -0.5553 -0.4821 -0.2114
 1021MOL0     C37719   6.879  10.101   2.241  0.9857  0.7752 -0.8479
 1021MOL0     C37720   6.755  10.184   2.229 -0.4152 -0.0930 -0.3960
 1021MOL0     C37721   6.634  10.096   2.234  1.3194  0.2426 -0.1490
 1021MOL0     C37722   6.515  10.184   2.203  0.2264  0.2646  0.3881
 1021MOL0     C37723   6.394  10.088   2.183  0.8642 -0.4720 -0.3781
 1021MOL0     O37724   6.340  10.026   2.309 -0.1305  0.1056  0.2031
 1021MOL0     C37725   6.202  10.022   2.311  0.2151 -0.4534  0.2203
 1021MOL0     C37726   6.146   9.899   2.333  0.7024  0.7443 -0.2842
 1021MOL0     C37727   6.010   9.890   2.346 -0.1691 -0.1602 -0.5645
 1021MOL0     C37728   5.918   9.992   2.330 -0.4481 -0.6238  0.2251
 1021MOL0     C37729   5.775   9.965   2.351 -0.6750 -0.7962  0.7017
 1021MOL0     O37730   5.730   9.840   2.357  0.1209 -0.1410 -0.6683
 1021MOL0     C37731   5.589   9.819   2.347  0.4184  0.8105  0.2969
 1021MOL0     C37732   5.526   9.710   2.414 -0.4794  0.3537  0.4181
 1021MOL0     C37733   5.396   9.682   2.386  0.4856 -1.5499 -0.3717
 1021MOL0     C37734   5.318   9.760   2.301  0.0827 -0.5327  0.0563
 1021MOL0     O37735   5.190   9.722   2.281 -0.1781  0.1724  0.3874
 1021MOL0     C37736   5.094   9.831   2.253 -0.3548  0.0934  0.0995
 1021MOL0     C37737   5.040   9.921   2.368  1.0077 -0.3763 -1.0940
 1021MOL0     C37738   4.997   9.828   2.477  0.3829  0.5211  0.3596
 1021MOL0     C37739   4.943   9.913   2.594 -0.5695 -0.1336 -0.1558
 1021MOL0     C37740   4.890   9.816   2.697  0.4086  0.5478 -0.4021
 1021MOL0     C37741   4.869   9.873   2.835 -1.2296 -0.7836 -0.4465
 1021MOL0     C37742   4.748   9.967   2.854  0.3684 -0.0535  0.2165
 1021MOL0     C37743   4.748  10.024   2.995 -0.4421 -0.9455  0.8608
 1021MOL0    Cl37744   4.647   9.901   3.087 -0.3929  0.3250  0.4120
 1021MOL0     C37745   5.378   9.862   2.231  0.2848 -0.5457  0.2856
 1021MOL0     C37746   5.507   9.892   2.259  0.1201  1.5010  0.0269
 1021MOL0     O37747   5.709  10.065   2.366  0.3542 -0.1346  0.0985
 1021MOL0     C37748   5.969  10.124   2.295 -0.3775  0.3263 -0.0723
 1021MOL0     C37749   6.113  10.131   2.292 -0.4326 -0.4183 -0.5010
 1021MOL0     N37750   6.995  10.123   2.180  0.3425  0.2732 -0.3375
 1021MOL0     N37751   7.081  10.033   2.211  0.2191 -0.1336 -0.3808
 1021MOL0     C37752   8.127   9.821   2.301 -0.9462 -0.5894  0.5633
 1021MOL0     C37753   8.253   9.858   2.243  0.8610 -0.8457  0.1461
 1021MOL0     C37754   8.562   9.911   1.898  0.3716  0.3974 -0.6153
 1021MOL0     C37755   8.623  10.012   1.974  0.3798 -0.3551 -0.2745
 1021MOL0     C37756   8.753  10.058   1.945 -0.4974  0.5639 -0.0561
 1021MOL0     C37757   8.826   9.999   1.843 -0.1424  0.7525 -0.5298
 1021MOL0     O37758   8.948  10.059   1.826  0.1825 -0.5822 -0.1821
 1021MOL0     C37759   9.019  10.051   1.701  1.2373  0.5904 -0.6530
 1021MOL0     C37760   9.174  10.069   1.725 -0.6159 -0.9600  1.0558
 1021MOL0     C37761   9.255  10.036   1.607 -0.0037  0.5857 -0.0711
 1021MOL0     C37762   9.403  10.034   1.630  0.5076  0.2634  0.2106
 1021MOL0     C37763   9.436   9.949   1.745 -0.5840 -0.3623  0.2085
 1021MOL0     C37764   9.471   9.867   1.828 -0.3849  0.1005  0.1553
 1021MOL0     C37765   8.767   9.907   1.763  0.2231  0.5148 -0.1004
 1021MOL0     C37766   8.634   9.864   1.786 -0.5344 -0.2090 -0.4608
 1021MOL0     C37767   8.568   9.760   1.688 -0.1757 -0.4887 -0.0253
 1021MOL0     H37768   8.229   9.630   1.991 -0.8080 -1.3844 -0.4832
 1021MOL0     H37769   8.039   9.557   2.124  0.4598 -1.1357  0.6878
 1021MOL0     H37770   7.851   9.843   2.438 -3.0927  0.2162  0.4236
 1021MOL0     H37771   7.864   9.870   2.266  2.0819  0.4437  0.2932
 1021MOL0     H37772   7.673   9.679   2.436 -1.0045 -4.4646 -1.9462
 1021MOL0     H37773   7.676   9.663   2.260  1.5880 -0.5208  0.3090
 1021MOL0     H37774   7.580   9.880   2.221 -1.0635  0.2086  0.1094
 1021MOL0     H37775   7.631   9.928   2.384 -0.7769 -0.9131  0.4193
 1021MOL0     H37776   7.395   9.743   2.311 -0.3745  0.4471 -1.0500
 1021MOL0     H37777   7.436   9.790   2.478 -2.4590  1.1585 -0.5669
 1021MOL0     H37778   7.425  10.035   2.405 -1.4390  1.5486  0.9084
 1021MOL0     H37779   7.329   9.968   2.274 -0.7079  3.3450  0.3672
 1021MOL0     H37780   7.298   9.963   2.576 -0.6963  0.8550  0.5020
 1021MOL0     H37781   7.193  10.040   2.451  0.1381  0.0054 -1.4753
 1021MOL0     H37782   7.067   9.856   2.562  0.5560 -0.0983 -0.1951
 1021MOL0     H37783   7.200   9.742   2.522 -1.9142 -1.5339  0.5306
 1021MOL0     H37784   7.140   9.792   2.276 -0.9635 -0.6717  0.1046
 1021MOL0     H37785   6.994   9.752   2.375  0.8454  0.0232  1.7652
 1021MOL0     H37786   6.816   9.933   2.369 -1.4241  0.8980 -0.0436
 1021MOL0     H37787   6.750  10.247   2.318  2.3434 -0.1559 -0.0978
 1021MOL0     H37788   6.755  10.249   2.141 -3.2948  1.8456  0.8809
 1021MOL0     H37789   6.637  10.008   2.168  0.8222  0.8702 -1.0383
 1021MOL0     H37790   6.630  10.058   2.336  0.6009 -0.7944 -0.5464
 1021MOL0     H37791   6.543  10.230   2.107  1.6481  0.7834  1.0235
 1021MOL0     H37792   6.501  10.264   2.276 -0.8642  1.3836 -0.9589
 1021MOL0     H37793   6.424  10.009   2.114  0.6371 -2.0494  1.2642
 1021MOL0     H37794   6.319  10.140   2.122  1.2277  0.6462  0.0875
 1021MOL0     H37795   6.202   9.810   2.361  0.0049  0.9277  1.8988
 1021MOL0     H37796   5.975   9.795   2.385 -1.0911  1.6497  3.5888
 1021MOL0     H37797   5.576   9.632   2.470 -0.0192 -0.3919 -0.9822
 1021MOL0     H37798   5.352   9.595   2.434 -1.3731 -0.4103  0.0888
 1021MOL0     H37799   5.138   9.892   2.174  1.1784 -0.0758  0.7853
 1021MOL0     H37800   5.003   9.779   2.221 -1.5302  1.6748  0.7229
 1021MOL0     H37801   5.123   9.984   2.404 -1.6754  3.4235 -0.9014
 1021MOL0     H37802   4.964   9.984   2.320  1.2911  0.3813 -0.5704
 1021MOL0     H37803   4.921   9.758   2.442 -1.2370  3.0588 -1.5968
 1021MOL0     H37804   5.085   9.773   2.509 -0.4641  0.4696  2.7993
 1021MOL0     H37805   4.867   9.984   2.560  0.0710  2.9989  4.0583
 1021MOL0     H37806   5.012   9.986   2.638 -0.7655  0.5804 -1.0093
 1021MOL0     H37807   4.968   9.741   2.709  0.4264  0.5251 -0.6413
 1021MOL0     H37808   4.792   9.779   2.664  0.5439  0.8523 -1.1798
 1021MOL0     H37809   4.868   9.789   2.906 -0.7198  0.0411  0.5657
 1021MOL0     H37810   4.964   9.917   2.866 -1.6438 -0.2078  0.0304
 1021MOL0     H37811   4.651   9.932   2.818  0.8469  0.7303 -1.9633
 1021MOL0     H37812   4.749  10.051   2.785 -0.0281  0.5121  0.8854
 1021MOL0     H37813   4.853  10.033   3.022  0.2761 -0.4825 -1.8640
 1021MOL0     H37814   4.704  10.124   2.997  1.5852  0.0129 -0.3960
 1021MOL0     H37815   5.330   9.932   2.164  3.3599 -0.2307 -1.8261
 1021MOL0     H37816   5.549   9.980   2.210 -1.3411  1.9678 -0.4412
 1021MOL0     H37817   5.908  10.214   2.295 -5.0416 -2.4814  1.8724
 1021MOL0     H37818   6.152  10.226   2.257  0.9174 -0.6568  0.2847
 1021MOL0     H37819   8.112   9.881   2.391  0.3093 -0.6949  0.8694
 1021MOL0     H37820   8.306   9.937   2.295  0.0236  0.0539 -0.3280
 1021MOL0     H37821   8.572  10.054   2.060 -1.2846  1.5163 -2.0500
 1021MOL0     H37822   8.793  10.140   2.003 -3.4126  1.6268  0.5773
 1021MOL0     H37823   8.980  10.126   1.632 -2.3613 -1.0891 -0.7058
 1021MOL0     H37824   9.001   9.952   1.658  0.5015  0.4343 -0.0192
 1021MOL0     H37825   9.206  10.020   1.817  3.9849 -2.2607 -0.9544
 1021MOL0     H37826   9.193  10.175   1.744  0.8251 -1.1710  0.8424
 1021MOL0     H37827   9.230  10.118   1.539  0.5797  0.1264 -0.8622
 1021MOL0     H37828   9.229   9.936   1.569 -1.6854  0.0819  2.1636
 1021MOL0     H37829   9.455  10.012   1.537  1.6786  2.5115  0.2597
 1021MOL0     H37830   9.443  10.130   1.662  0.9731  0.0792  0.1837
 1021MOL0     H37831   9.484   9.799   1.910 -2.2304  0.6783  0.9766
 1021MOL0     H37832   8.821   9.867   1.678  0.6149 -1.8241  1.1657
 1021MOL0     H37833   8.471   9.801   1.661 -0.4991 -1.4120 -0.3150
 1021MOL0     H37834   8.629   9.736   1.600 -1.4455 -1.8620 -0.5705
 1021MOL0     H37835   8.552   9.670   1.749 -2.9460  0.0796  0.1808
 1022MOL0     O37836   6.636   0.642   3.124  0.9770  0.5901 -0.1487
 1022MOL0     C37837   6.542   0.711   3.170  0.0151 -0.2904 -0.0238
 1022MOL0     O37838   6.496   0.817   3.117 -0.4070  0.7126  0.5427
 1022MOL0     C37839   6.581   0.888   3.042  0.1287 -0.3309  0.4270
 1022MOL0     C37840   6.589   0.879   2.909  1.1231 -0.5935  0.7314
 1022MOL0     C37841   6.676   0.958   2.836 -0.2350 -0.1612 -0.0746
 1022MOL0     C37842   6.769   1.048   2.896 -0.0722  0.3110  0.1676
 1022MOL0     O37843   6.869   1.131   2.839  0.4767 -0.5769  0.7529
 1022MOL0     C37844   6.891   1.106   2.700 -0.1322  0.4280  0.5275
 1022MOL0     C37845   7.022   1.178   2.669  0.2474  0.4567 -1.1958
 1022MOL0     C37846   7.023   1.329   2.713 -1.1190 -0.0350 -0.0364
 1022MOL0     C37847   6.920   1.406   2.657  0.2432 -0.7095  1.0140
 1022MOL0     C37848   6.893   1.551   2.725 -0.7902  0.5317  0.3304
 1022MOL0     C37849   6.762   1.622   2.673 -0.2434  0.4163  1.1811
 1022MOL0     C37850   6.784   1.771   2.655  0.0105  0.9020 -0.2150
 1022MOL0     C37851   6.675   1.837   2.571  0.9011  0.1799 -0.6215
 1022MOL0     N37852   6.547   1.814   2.634  0.6266 -0.4767  0.0646
 1022MOL0     C37853   6.522   1.841   2.764 -0.0495 -0.6104  0.7003
 1022MOL0     C37854   6.403   1.789   2.779  0.0523  0.6032  0.4157
 1022MOL0     C37855   6.339   1.766   2.913  0.1561  0.4149 -0.0182
 1022MOL0     C37856   6.270   1.634   2.937 -0.4542  0.5093 -0.6657
 1022MOL0     C37857   6.207   1.612   3.073 -0.9528  0.2413 -0.6794
 1022MOL0     C37858   6.141   1.471   3.099 -1.2636 -0.9032  0.7400
 1022MOL0     O37859   6.019   1.456   3.026  0.1702 -0.4329 -0.3075
 1022MOL0     C37860   5.948   1.336   3.034  0.1401 -1.1150 -1.5260
 1022MOL0     C37861   5.888   1.289   2.925 -1.7658  0.0048  1.4732
 1022MOL0     C37862   5.810   1.177   2.923  1.3406 -0.4863  0.7015
 1022MOL0     C37863   5.787   1.113   3.044  0.6501 -0.2994 -1.0234
 1022MOL0     C37864   5.705   0.993   3.051  1.1794  0.5425 -0.1043
 1022MOL0     O37865   5.714   0.909   3.159 -0.3336  0.1407  0.3914
 1022MOL0     C37866   5.633   0.802   3.179  0.0429 -0.5065 -0.0182
 1022MOL0     C37867   5.554   0.795   3.289  0.2028 -0.5216 -0.0263
 1022MOL0     C37868   5.463   0.695   3.302  0.3847  0.3393  0.4774
 1022MOL0     C37869   5.462   0.587   3.223  0.4252  0.1246 -0.7073
 1022MOL0     O37870   5.379   0.481   3.258  0.2435  0.0843 -0.2555
 1022MOL0     C37871   5.349   0.380   3.159 -0.4485  0.3349  0.2326
 1022MOL0     C37872   5.253   0.284   3.212  0.9340 -0.1625  0.1747
 1022MOL0     C37873   5.117   0.311   3.156  0.2506  0.1250  0.2181
 1022MOL0     C37874   5.014   0.213   3.216  0.5495  0.5133 -0.0735
 1022MOL0     C37875   4.875   0.257   3.167  0.7008 -0.4549 -0.2668
 1022MOL0     C37876   4.776   0.149   3.227  0.2970 -0.3427 -0.4530
 1022MOL0     C37877   4.640   0.137   3.165 -0.1376  0.3429  0.1595
 1022MOL0     C37878   4.631   0.109   3.018  0.4116 -0.1984  0.0916
 1022MOL0    Cl37879   4.741  -0.028   2.961 -0.2894  0.2668 -0.1327
 1022MOL0     C37880   5.538   0.593   3.105  0.7061  0.7975 -1.0922
 1022MOL0     C37881   5.637   0.692   3.090  0.3436  0.4020 -0.5678
 1022MOL0     O37882   5.633   0.983   2.953 -0.0991 -0.1909  0.2926
 1022MOL0     C37883   5.848   1.157   3.157  0.3463  0.6832 -0.7109
 1022MOL0     C37884   5.937   1.261   3.158  1.0081  0.0137  0.3312
 1022MOL0     N37885   6.360   1.735   2.657 -0.0391 -0.1160 -0.8058
 1022MOL0     N37886   6.447   1.758   2.568 -0.5589 -0.5484  0.1909
 1022MOL0     C37887   6.760   1.059   3.037  0.4544  0.3496 -0.5945
 1022MOL0     C37888   6.667   0.980   3.105  0.4247 -0.6544  0.5960
 1022MOL0     C37889   6.491   0.674   3.298  0.0060 -0.8578 -0.3202
 1022MOL0     C37890   6.522   0.750   3.417 -0.6434  0.2057  1.0143
 1022MOL0     C37891   6.484   0.708   3.545  0.2847  0.6983  0.3037
 1022MOL0     C37892   6.403   0.594   3.555 -1.0841 -0.7580  0.1433
 1022MOL0     O37893   6.363   0.564   3.682  0.4682  0.6725 -0.0279
 1022MOL0     C37894   6.227   0.606   3.721  0.2611 -0.1863 -0.4278
 1022MOL0     C37895   6.167   0.487   3.792  0.2265  0.5116 -0.2229
 1022MOL0     C37896   6.145   0.371   3.689  0.2579 -0.2310  0.9843
 1022MOL0     C37897   6.065   0.258   3.745  0.3321 -0.3890  0.2590
 1022MOL0     C37898   5.925   0.298   3.722  0.2279  0.1387  0.3305
 1022MOL0     C37899   5.810   0.326   3.694  0.0280 -0.5338 -0.4236
 1022MOL0     C37900   6.371   0.519   3.441  0.0946  0.8833  0.5094
 1022MOL0     C37901   6.417   0.553   3.313  0.3680 -0.2994  0.6026
 1022MOL0     C37902   6.387   0.465   3.192 -0.4324 -0.2836  0.3659
 1022MOL0     H37903   6.524   0.803   2.866  1.6658 -1.7679  1.9207
 1022MOL0     H37904   6.677   0.949   2.728  0.2828  2.7203 -0.3781
 1022MOL0     H37905   6.898   0.999   2.681 -1.3459  0.9157 -3.5421
 1022MOL0     H37906   6.811   1.150   2.639  0.1833  1.6642  0.9799
 1022MOL0     H37907   7.027   1.168   2.560 -1.0037 -1.6665 -1.1197
 1022MOL0     H37908   7.102   1.115   2.710 -2.2068 -1.2102  1.3458
 1022MOL0     H37909   7.118   1.365   2.670 -1.3646  1.6337  0.7055
 1022MOL0     H37910   7.032   1.337   2.822  2.5865  1.3033 -0.2866
 1022MOL0     H37911   6.935   1.428   2.551 -0.0959  0.5608  1.2189
 1022MOL0     H37912   6.828   1.348   2.659 -0.7846  0.7403 -0.9227
 1022MOL0     H37913   6.904   1.537   2.833  1.6178 -0.2693  0.0460
 1022MOL0     H37914   6.980   1.614   2.706 -1.6152  2.0502  1.3262
 1022MOL0     H37915   6.738   1.582   2.574 -1.0978  1.1941  1.0571
 1022MOL0     H37916   6.676   1.598   2.737 -0.0657 -0.4368  1.1147
 1022MOL0     H37917   6.878   1.792   2.603  0.8434  1.1877  1.3411
 1022MOL0     H37918   6.802   1.805   2.758  1.0659 -3.4118  1.2663
 1022MOL0     H37919   6.697   1.943   2.557  0.3915  0.0375 -2.8220
 1022MOL0     H37920   6.683   1.799   2.468  3.5423 -1.0452 -0.0516
 1022MOL0     H37921   6.585   1.892   2.836  2.2194 -0.6326 -1.1338
 1022MOL0     H37922   6.405   1.770   3.001  0.3267 -3.8426  0.2451
 1022MOL0     H37923   6.275   1.855   2.921 -2.0601 -1.1634  0.4718
 1022MOL0     H37924   6.200   1.602   2.859 -0.3234 -0.0915 -0.5446
 1022MOL0     H37925   6.358   1.569   2.944  0.5836  1.8984 -0.4328
 1022MOL0     H37926   6.129   1.687   3.090 -1.4701 -0.0830 -1.5531
 1022MOL0     H37927   6.280   1.638   3.150 -2.2803  1.6672  0.1549
 1022MOL0     H37928   6.120   1.467   3.206 -2.6078 -3.1815  0.4449
 1022MOL0     H37929   6.210   1.388   3.080 -0.8012 -0.0911 -1.4494
 1022MOL0     H37930   5.886   1.360   2.843  2.6008  1.5456  2.4248
 1022MOL0     H37931   5.761   1.156   2.829  0.7606  0.0245  0.8839
 1022MOL0     H37932   5.557   0.883   3.353  0.2648 -0.4730 -0.0964
 1022MOL0     H37933   5.392   0.705   3.383 -0.5211 -1.4103 -0.0546
 1022MOL0     H37934   5.301   0.439   3.080 -0.5936  1.4217  1.1034
 1022MOL0     H37935   5.447   0.343   3.128  0.0231  0.3239  1.6687
 1022MOL0     H37936   5.278   0.181   3.186  0.3170 -0.6563  1.4577
 1022MOL0     H37937   5.249   0.289   3.321 -0.8369  3.5654  0.0825
 1022MOL0     H37938   5.098   0.416   3.180 -1.1310 -0.2151  0.7406
 1022MOL0     H37939   5.114   0.301   3.047  0.0035 -0.1686  0.2494
 1022MOL0     H37940   5.015   0.231   3.324 -0.2003  3.0992 -0.4438
 1022MOL0     H37941   5.040   0.109   3.195 -0.2496  0.6252 -1.7147
 1022MOL0     H37942   4.865   0.259   3.058  0.0597  1.9170 -0.2328
 1022MOL0     H37943   4.850   0.360   3.195 -3.5714 -2.3467  4.4030
 1022MOL0     H37944   4.829   0.053   3.229  0.0929 -0.4464  0.1308
 1022MOL0     H37945   4.762   0.171   3.333  2.1047 -0.1003 -0.2389
 1022MOL0     H37946   4.584   0.230   3.180  1.3413  0.9435  2.5530
 1022MOL0     H37947   4.587   0.061   3.225 -1.5933  2.1202  1.2390
 1022MOL0     H37948   4.525   0.099   2.998 -0.2969  3.3131  1.2871
 1022MOL0     H37949   4.664   0.203   2.971  0.5412  0.4245  1.3776
 1022MOL0     H37950   5.541   0.509   3.037  2.3022  0.9825 -1.3096
 1022MOL0     H37951   5.708   0.681   3.009 -0.2147 -3.6724 -0.7237
 1022MOL0     H37952   5.835   1.109   3.254  2.4441  1.6658  0.1259
 1022MOL0     H37953   6.001   1.278   3.244  2.9496 -2.5590 -0.5078
 1022MOL0     H37954   6.833   1.131   3.073 -0.7358  1.8983 -1.1436
 1022MOL0     H37955   6.659   0.988   3.213 -0.6563 -1.2116  0.5673
 1022MOL0     H37956   6.565   0.849   3.410  1.8916 -0.7694  1.5074
 1022MOL0     H37957   6.501   0.779   3.626 -2.8807  3.0229 -0.9029
 1022MOL0     H37958   6.169   0.661   3.646  1.1556  0.6309 -0.5420
 1022MOL0     H37959   6.237   0.681   3.800 -1.1774 -1.4186  0.9955
 1022MOL0     H37960   6.070   0.521   3.831  0.2680  2.7026 -1.8874
 1022MOL0     H37961   6.221   0.454   3.881 -1.8832  0.2842  1.0634
 1022MOL0     H37962   6.242   0.337   3.652 -0.9376 -0.3665 -2.3421
 1022MOL0     H37963   6.107   0.421   3.599  2.1416 -1.9281 -0.8649
 1022MOL0     H37964   6.095   0.163   3.699 -1.3705 -0.9623  0.2707
 1022MOL0     H37965   6.084   0.258   3.853  4.2044  0.8913 -0.2512
 1022MOL0     H37966   5.709   0.336   3.659 -0.2515 -1.4583  0.0814
 1022MOL0     H37967   6.300   0.439   3.461 -1.9847  2.0278 -1.7073
 1022MOL0     H37968   6.400   0.517   3.097 -0.3626  0.5388  0.8185
 1022MOL0     H37969   6.470   0.395   3.199  1.7937  2.1881  0.3810
 1022MOL0     H37970   6.293   0.410   3.201 -1.0105  0.7407  0.7318
 1023MOL0     O37971   8.369  11.041   4.908 -0.5858 -0.1167  0.0959
 1023MOL0     C37972   8.347  10.937   4.847  0.6577 -0.1512  0.0699
 1023MOL0     O37973   8.410  10.816   4.877  0.0118  0.1638 -0.0487
 1023MOL0     C37974   8.545  10.807   4.899 -0.1667  0.9539 -0.4287
 1023MOL0     C37975   8.583  10.697   4.975 -0.2478  0.5909 -0.6424
 1023MOL0     C37976   8.719  10.680   5.015 -0.1026 -0.3319  0.2736
 1023MOL0     C37977   8.817  10.779   4.974  0.0024  0.1084  0.2424
 1023MOL0     O37978   8.946  10.757   5.012 -0.2086  0.1018 -0.0879
 1023MOL0     C37979   9.031  10.872   5.038 -0.1182  0.3089  0.1141
 1023MOL0     C37980   9.105  10.902   4.914 -0.4650 -0.2842  0.4394
 1023MOL0     C37981   9.216  10.801   4.878  0.0922  0.4064 -0.1660
 1023MOL0     C37982   9.301  10.860   4.769  0.1753  0.6503 -0.5021
 1023MOL0     C37983   9.406  10.969   4.794  0.1443 -0.8358  0.0661
 1023MOL0     C37984   9.520  10.940   4.895  0.1373  0.9840  0.0867
 1023MOL0     C37985   9.624  11.051   4.887 -0.1024 -0.3486 -0.8599
 1023MOL0     C37986   9.731  11.006   4.998 -1.4273 -0.3077 -0.2718
 1023MOL0     N37987   9.849  11.095   4.978  0.0772  0.4621  0.7915
 1023MOL0     C37988   9.943  11.092   4.878  1.0009  0.2049 -0.2533
 1023MOL0     C37989  10.023  11.195   4.896 -0.6224  0.0186 -0.3506
 1023MOL0     C37990  10.140  11.229   4.805  0.0220  0.6737  0.0877
 1023MOL0     C37991  10.125  11.346   4.702 -0.2829 -0.4228  0.8184
 1023MOL0     C37992  10.260  11.367   4.622 -0.1904 -0.1038  0.5744
 1023MOL0     C37993  10.239  11.463   4.505 -0.9411 -0.2881 -0.4213
 1023MOL0     O37994  10.362  11.454   4.434 -0.0731  0.2355  0.1580
 1023MOL0     C37995  10.476  11.515   4.464  0.1001 -0.6716  0.7529
 1023MOL0     C37996  10.588  11.467   4.395  0.0764  0.1391 -0.9398
 1023MOL0     C37997  10.705  11.533   4.405 -0.1916  0.4522  0.1653
 1023MOL0     C37998  10.729  11.637   4.496  0.4720  0.6035  0.3059
 1023MOL0     C37999  10.859  11.699   4.523 -0.5545 -0.0748  0.4583
 1023MOL0     O38000  10.955  11.666   4.423 -0.0954  0.8826  0.0808
 1023MOL0     C38001  11.076  11.722   4.410 -0.2870  0.7048  0.2543
 1023MOL0     C38002  11.156  11.653   4.320 -0.8264 -0.3180  0.2381
 1023MOL0     C38003  11.292  11.688   4.309 -0.6363  0.7949 -0.4841
 1023MOL0     C38004  11.344  11.792   4.386  0.3764 -0.3247  1.1429
 1023MOL0     O38005  11.476  11.826   4.362 -0.2453 -0.4663 -0.0267
 1023MOL0     C38006  11.528  11.933   4.439  1.0292  1.2827  0.0779
 1023MOL0     C38007  11.647  11.982   4.360  0.1733  0.0727 -0.2415
 1023MOL0     C38008  11.757  11.877   4.372  0.8514  0.9568  0.5063
 1023MOL0     C38009  11.888  11.932   4.307 -0.3778 -1.0236  0.2918
 1023MOL0     C38010  12.003  11.844   4.359 -0.6260 -0.4061 -0.6757
 1023MOL0     C38011  12.136  11.885   4.303 -0.3424 -0.3729  0.1472
 1023MOL0     C38012  12.249  11.795   4.355 -0.0652  0.5877  0.4533
 1023MOL0     C38013  12.379  11.829   4.296 -0.8405  0.1489 -0.4644
 1023MOL0    Cl38014  12.411  11.774   4.127 -0.1477 -0.4002 -0.4516
 1023MOL0     C38015  11.265  11.860   4.481 -0.0072  0.0677  0.4155
 1023MOL0     C38016  11.136  11.824   4.491  0.1465 -0.4862  0.2895
 1023MOL0     O38017  10.873  11.784   4.607  0.3425 -0.3688  0.0988
 1023MOL0     C38018  10.624  11.671   4.575 -0.4494 -0.1516 -0.2571
 1023MOL0     C38019  10.495  11.608   4.563  0.4161 -0.1710 -0.5290
 1023MOL0     N38020   9.990  11.258   5.015 -0.3292  0.5484 -0.2786
 1023MOL0     N38021   9.873  11.205   5.054 -1.0061  0.0680 -0.6500
 1023MOL0     C38022   8.770  10.899   4.910  0.2622 -0.4036 -0.8103
 1023MOL0     C38023   8.638  10.911   4.868  0.2226  0.5823  0.7424
 1023MOL0     C38024   8.224  10.934   4.765  0.3060 -0.5322  0.6051
 1023MOL0     C38025   8.108  10.882   4.813 -0.0253  0.3625 -0.5092
 1023MOL0     C38026   7.983  10.909   4.757 -0.0148 -0.2057  0.2264
 1023MOL0     C38027   7.978  10.959   4.628  0.2496  0.0536 -0.4185
 1023MOL0     O38028   7.850  10.972   4.576  0.0827  0.9498  0.3351
 1023MOL0     C38029   7.848  11.044   4.456  0.0410  0.1875 -0.1991
 1023MOL0     C38030   7.845  11.192   4.472 -0.2963  0.3144 -0.7539
 1023MOL0     C38031   7.707  11.247   4.518  0.8420 -0.2419 -0.4252
 1023MOL0     C38032   7.700  11.395   4.555  0.0311  0.5536  0.8568
 1023MOL0     C38033   7.559  11.421   4.587  0.4894 -0.3756 -0.2414
 1023MOL0     C38034   7.432  11.426   4.599  0.0422 -0.0034 -0.2775
 1023MOL0     C38035   8.098  10.996   4.569 -1.4179 -0.3002  0.4708
 1023MOL0     C38036   8.225  10.982   4.634 -0.5008  0.5457  1.1129
 1023MOL0     C38037   8.350  11.031   4.553 -0.3572  1.2400 -0.2721
 1023MOL0     H38038   8.508  10.622   5.001  1.0446 -0.0678  1.5148
 1023MOL0     H38039   8.740  10.600   5.085  3.4173 -1.5234 -1.8385
 1023MOL0     H38040   8.971  10.958   5.071 -1.2158 -1.2420  2.4525
 1023MOL0     H38041   9.105  10.849   5.115  0.4399 -0.2155 -0.5630
 1023MOL0     H38042   9.142  11.005   4.918 -0.4688 -0.2030 -1.0616
 1023MOL0     H38043   9.039  10.900   4.827 -2.5046  2.1303  1.7928
 1023MOL0     H38044   9.172  10.708   4.839 -2.9962  1.9927 -0.7521
 1023MOL0     H38045   9.284  10.779   4.960  0.6380 -0.4658 -0.8273
 1023MOL0     H38046   9.361  10.772   4.747  1.0983  0.9161  0.7995
 1023MOL0     H38047   9.238  10.886   4.683 -2.1348 -2.4542  0.0993
 1023MOL0     H38048   9.451  10.999   4.699 -2.4112  2.2228 -0.3580
 1023MOL0     H38049   9.347  11.057   4.823  1.4279 -0.5233  1.8997
 1023MOL0     H38050   9.469  10.937   4.992 -0.0968  1.8881 -0.0006
 1023MOL0     H38051   9.562  10.848   4.853 -3.0334 -0.3357 -0.4716
 1023MOL0     H38052   9.581  11.150   4.901 -2.6101 -1.3588 -0.9439
 1023MOL0     H38053   9.674  11.044   4.790  1.0775 -1.5540 -0.2080
 1023MOL0     H38054   9.683  11.034   5.093  1.2204  1.2084  0.7343
 1023MOL0     H38055   9.763  10.902   5.014  0.6300  0.6718  2.8284
 1023MOL0     H38056   9.947  11.014   4.802  0.3377 -0.9158  0.8318
 1023MOL0     H38057  10.228  11.245   4.868 -1.4832  0.1798  2.4160
 1023MOL0     H38058  10.162  11.138   4.748 -0.8921 -0.0865  0.9198
 1023MOL0     H38059  10.041  11.331   4.632  0.5933 -0.1207 -0.3245
 1023MOL0     H38060  10.098  11.433   4.762 -1.4668 -2.0616  2.7857
 1023MOL0     H38061  10.277  11.265   4.585 -1.6614  0.3043 -1.4047
 1023MOL0     H38062  10.349  11.391   4.680 -1.7432  0.6048  2.8053
 1023MOL0     H38063  10.213  11.565   4.537 -0.9593 -0.6712  0.8113
 1023MOL0     H38064  10.155  11.430   4.443 -1.2737 -2.1097  0.9303
 1023MOL0     H38065  10.569  11.381   4.332  1.2312 -0.7530 -0.0941
 1023MOL0     H38066  10.785  11.505   4.338 -2.6796 -1.0967 -2.4172
 1023MOL0     H38067  11.113  11.568   4.269 -0.6377 -0.3576  0.1441
 1023MOL0     H38068  11.358  11.634   4.241  0.9208 -1.9255  2.8664
 1023MOL0     H38069  11.455  12.015   4.439  1.2597  1.4873 -0.1544
 1023MOL0     H38070  11.542  11.897   4.542 -0.9474 -1.4829 -0.5176
 1023MOL0     H38071  11.623  12.017   4.259 -0.7407 -1.6564 -0.6629
 1023MOL0     H38072  11.695  12.062   4.417  2.2576 -0.0726 -1.6822
 1023MOL0     H38073  11.789  11.849   4.473  1.1568  0.8018  0.3674
 1023MOL0     H38074  11.732  11.782   4.324 -0.0043  1.8675 -0.8996
 1023MOL0     H38075  11.911  12.036   4.333  0.2974 -0.9625 -0.5128
 1023MOL0     H38076  11.880  11.914   4.200 -0.4963 -0.1071  0.1432
 1023MOL0     H38077  11.982  11.741   4.329  0.7804 -1.5843  2.0493
 1023MOL0     H38078  12.022  11.851   4.467 -1.7548 -0.9031 -0.4340
 1023MOL0     H38079  12.121  11.873   4.196 -0.1455 -0.5800  0.1419
 1023MOL0     H38080  12.161  11.991   4.318 -1.5677 -0.1259  0.5837
 1023MOL0     H38081  12.230  11.692   4.324  0.1771  1.0546 -1.3543
 1023MOL0     H38082  12.256  11.789   4.464  0.5350  2.9164  0.5948
 1023MOL0     H38083  12.395  11.937   4.290  1.0487 -0.1547 -2.0117
 1023MOL0     H38084  12.458  11.789   4.361  0.3985 -0.3956 -2.2408
 1023MOL0     H38085  11.302  11.935   4.550 -3.1687  2.1785  0.0003
 1023MOL0     H38086  11.095  11.890   4.566  3.0425  0.8931  0.7944
 1023MOL0     H38087  10.635  11.744   4.654 -2.6126  1.2365 -1.1195
 1023MOL0     H38088  10.410  11.636   4.624  0.6584 -0.9271  0.1689
 1023MOL0     H38089   8.834  10.983   4.884  1.0678  0.1979  2.6791
 1023MOL0     H38090   8.617  11.004   4.816  1.9174 -0.1284 -1.4188
 1023MOL0     H38091   8.120  10.838   4.911  1.7089  2.9482  0.5479
 1023MOL0     H38092   7.894  10.866   4.801 -1.1142 -0.8719 -2.4247
 1023MOL0     H38093   7.751  11.018   4.410 -1.9927  2.4838  2.4361
 1023MOL0     H38094   7.927  11.012   4.388 -0.9322 -1.2632 -0.7025
 1023MOL0     H38095   7.870  11.237   4.376 -2.5661  1.5204 -0.8669
 1023MOL0     H38096   7.927  11.217   4.541  0.3909 -1.6125 -0.8295
 1023MOL0     H38097   7.681  11.195   4.611  1.4078 -0.0924 -0.1806
 1023MOL0     H38098   7.635  11.224   4.438  1.4362  0.2442 -1.1125
 1023MOL0     H38099   7.766  11.427   4.637  2.9609  0.8538 -1.4580
 1023MOL0     H38100   7.728  11.458   4.470 -2.2746  2.5376  1.4696
 1023MOL0     H38101   7.325  11.430   4.600 -0.0871 -2.1600  0.7757
 1023MOL0     H38102   8.111  11.028   4.466  0.5781 -0.8227  0.5069
 1023MOL0     H38103   8.393  11.123   4.595  1.4249 -0.1421  1.1257
 1023MOL0     H38104   8.424  10.956   4.583 -1.0311  0.4064 -0.6427
 1023MOL0     H38105   8.333  11.032   4.445 -0.9036 -1.6412 -0.2920
 1024MOL0     O38106   7.448   7.356  10.785  0.3924  0.3848 -0.3186
 1024MOL0     C38107   7.489   7.238  10.779  0.6956 -0.0619  0.4016
 1024MOL0     O38108   7.616   7.188  10.801 -0.3469 -0.4664  0.5828
 1024MOL0     C38109   7.727   7.269  10.767  0.4885 -0.1909 -0.4199
 1024MOL0     C38110   7.725   7.381  10.689  0.4928 -0.9998  1.0647
 1024MOL0     C38111   7.844   7.445  10.654  0.4925 -1.0558  0.2898
 1024MOL0     C38112   7.973   7.409  10.696 -0.4764  0.0957  0.1934
 1024MOL0     O38113   8.097   7.457  10.648  0.1388 -0.2201 -0.2648
 1024MOL0     C38114   8.106   7.490  10.507 -0.3027  0.9540  0.6582
 1024MOL0     C38115   8.252   7.462  10.460  0.4016  0.2552  0.2317
 1024MOL0     C38116   8.291   7.309  10.447 -0.5521  0.2182 -1.0354
 1024MOL0     C38117   8.390   7.286  10.333 -0.6481  0.7721 -0.4636
 1024MOL0     C38118   8.527   7.341  10.377  0.2688 -0.0784 -0.5347
 1024MOL0     C38119   8.621   7.242  10.447 -0.7180  0.1491  0.4077
 1024MOL0     C38120   8.717   7.322  10.541 -1.0199 -0.5414  0.4257
 1024MOL0     C38121   8.834   7.244  10.604  0.0447  0.2265 -0.7596
 1024MOL0     N38122   8.899   7.326  10.701 -1.0521  0.9685  0.3162
 1024MOL0     C38123   9.018   7.389  10.691 -0.4777  0.4781 -0.0667
 1024MOL0     C38124   9.054   7.436  10.809  0.8917 -0.2055  0.0736
 1024MOL0     C38125   9.169   7.526  10.824  0.1420  0.8744 -0.0881
 1024MOL0     C38126   9.216   7.558  10.967  0.1189  0.5447  0.0445
 1024MOL0     C38127   9.350   7.629  10.960 -0.0753  0.8922 -0.0970
 1024MOL0     C38128   9.436   7.600  11.080 -0.1738 -0.4928 -0.1428
 1024MOL0     O38129   9.547   7.684  11.096 -0.3773  0.5420 -0.0355
 1024MOL0     C38130   9.648   7.681  11.000  0.3505 -0.0162 -0.1205
 1024MOL0     C38131   9.726   7.795  10.985 -1.2094 -0.9287 -0.8397
 1024MOL0     C38132   9.833   7.796  10.897  0.0187  0.1715  0.6189
 1024MOL0     C38133   9.876   7.682  10.832  0.5983  0.1072  0.6712
 1024MOL0     C38134  10.003   7.684  10.746 -0.2456  0.3792  0.1072
 1024MOL0     O38135  10.059   7.565  10.717 -0.8888  0.5300 -0.5679
 1024MOL0     C38136  10.165   7.565  10.627  0.2703  0.6569  0.6105
 1024MOL0     C38137  10.285   7.634  10.654  0.6297 -0.5459 -0.2915
 1024MOL0     C38138  10.396   7.643  10.570 -0.2366  1.4758  0.7799
 1024MOL0     C38139  10.392   7.582  10.443  0.1708  0.5565  0.2587
 1024MOL0     O38140  10.494   7.578  10.348  0.1894  0.2836  0.2573
 1024MOL0     C38141  10.626   7.611  10.394  0.0424 -0.4721 -0.4067
 1024MOL0     C38142  10.725   7.598  10.277  0.1168 -1.0917  0.1868
 1024MOL0     C38143  10.862   7.667  10.319  0.0654  0.4973  1.2011
 1024MOL0     C38144  10.963   7.681  10.201  0.2749  0.0857 -0.3842
 1024MOL0     C38145  11.103   7.691  10.260  0.1381  0.1801  0.6053
 1024MOL0     C38146  11.154   7.550  10.297  0.3531  0.2011  0.1823
 1024MOL0     C38147  11.295   7.571  10.347 -0.3972  0.8890  1.0265
 1024MOL0     C38148  11.375   7.445  10.334 -0.0629 -0.0979 -0.4757
 1024MOL0    Cl38149  11.535   7.472  10.422  0.0347  0.1101 -0.0167
 1024MOL0     C38150  10.270   7.516  10.413 -0.0581 -0.2659 -0.7935
 1024MOL0     C38151  10.158   7.513  10.498 -0.0197 -0.0941  0.2185
 1024MOL0     O38152  10.055   7.796  10.727 -0.2356 -0.1032 -0.2475
 1024MOL0     C38153   9.805   7.565  10.851  0.2529  0.0115 -0.1173
 1024MOL0     C38154   9.688   7.567  10.932  0.0990 -0.3814 -0.4304
 1024MOL0     N38155   8.960   7.395  10.899  0.1903 -0.6083 -0.7533
 1024MOL0     N38156   8.869   7.331  10.835 -0.2163 -1.0710 -0.1092
 1024MOL0     C38157   7.970   7.298  10.787 -0.6701  0.0649  0.4781
 1024MOL0     C38158   7.852   7.227  10.818  0.5449 -1.4172  0.2458
 1024MOL0     C38159   7.386   7.141  10.746  0.5496 -0.5510  0.1825
 1024MOL0     C38160   7.259   7.152  10.808  0.8505  0.5327 -0.0923
 1024MOL0     C38161   7.165   7.051  10.800 -0.2540  0.4653 -0.2774
 1024MOL0     C38162   7.189   6.940  10.717 -0.2812  0.3002 -0.6304
 1024MOL0     O38163   7.098   6.851  10.670 -0.8867  0.9016 -0.7743
 1024MOL0     C38164   6.960   6.880  10.667  0.1338 -0.3925 -0.3310
 1024MOL0     C38165   6.900   6.974  10.560 -0.1732  0.3164 -0.2575
 1024MOL0     C38166   6.872   6.912  10.416  0.0501  0.5093 -0.9957
 1024MOL0     C38167   6.868   7.007  10.298 -0.6207 -0.0006 -0.6942
 1024MOL0     C38168   6.824   6.935  10.177  0.0454 -0.8534 -0.0411
 1024MOL0     C38169   6.791   6.898  10.063  0.3490 -0.4170 -1.1848
 1024MOL0     C38170   7.312   6.931  10.650 -0.1055  0.3398  0.7387
 1024MOL0     C38171   7.412   7.026  10.673  0.8655  0.8560  0.2267
 1024MOL0     C38172   7.537   7.013  10.584  0.0040  0.0609  0.5658
 1024MOL0     H38173   7.639   7.418  10.635  3.3665  5.2632 -0.1065
 1024MOL0     H38174   7.841   7.530  10.586 -0.5597 -0.5736  0.9209
 1024MOL0     H38175   8.033   7.427  10.455 -1.1874  0.0394  2.8751
 1024MOL0     H38176   8.074   7.595  10.509 -1.3284  0.6921  3.7436
 1024MOL0     H38177   8.323   7.514  10.525 -1.3548  1.2547  1.4450
 1024MOL0     H38178   8.250   7.511  10.362 -3.4772  2.0338  0.9768
 1024MOL0     H38179   8.201   7.247  10.436 -0.7574  0.1524  0.7489
 1024MOL0     H38180   8.334   7.277  10.542 -2.6035 -0.0306 -0.1353
 1024MOL0     H38181   8.416   7.183  10.308  0.8529  1.1733 -0.6758
 1024MOL0     H38182   8.353   7.336  10.242 -3.2566 -1.9345 -1.0692
 1024MOL0     H38183   8.578   7.374  10.285 -1.1621 -1.0779 -1.7237
 1024MOL0     H38184   8.507   7.426  10.443  2.4650 -1.0247  1.4984
 1024MOL0     H38185   8.571   7.165  10.506  0.2286 -2.1704 -1.6591
 1024MOL0     H38186   8.664   7.176  10.371 -0.6592  0.3740  0.2446
 1024MOL0     H38187   8.655   7.361  10.622 -0.0936  0.9119  0.4593
 1024MOL0     H38188   8.762   7.404  10.485  0.6248 -1.5974  0.1379
 1024MOL0     H38189   8.799   7.154  10.655  1.1370  0.5611  0.6664
 1024MOL0     H38190   8.905   7.212  10.527  0.5595 -2.2572  0.6425
 1024MOL0     H38191   9.087   7.396  10.607 -1.7137  1.6581 -1.0149
 1024MOL0     H38192   9.248   7.483  10.761  0.6739 -0.1750  1.2572
 1024MOL0     H38193   9.149   7.618  10.768 -2.5884  0.2732 -0.2608
 1024MOL0     H38194   9.139   7.626  11.007 -1.1571  0.3331 -1.9270
 1024MOL0     H38195   9.222   7.463  11.022 -0.1623 -0.0716 -0.9724
 1024MOL0     H38196   9.330   7.735  10.943 -0.7280  0.4643 -2.2774
 1024MOL0     H38197   9.411   7.603  10.874 -1.5931 -0.1903 -0.8871
 1024MOL0     H38198   9.481   7.501  11.071  2.3539  0.4837  0.9868
 1024MOL0     H38199   9.376   7.604  11.171 -0.2951 -0.4403 -0.2246
 1024MOL0     H38200   9.709   7.893  11.030  2.4984 -0.9123  0.8527
 1024MOL0     H38201   9.898   7.882  10.904  2.1718 -0.9777 -2.6180
 1024MOL0     H38202  10.295   7.673  10.755 -0.0779  1.0139 -0.8046
 1024MOL0     H38203  10.480   7.698  10.612  0.2813 -0.9626  3.2110
 1024MOL0     H38204  10.632   7.715  10.428 -1.5827 -0.8467  1.2014
 1024MOL0     H38205  10.652   7.545  10.477 -0.9355 -0.5193 -0.1272
 1024MOL0     H38206  10.748   7.495  10.246  2.3351 -0.4334 -0.5459
 1024MOL0     H38207  10.680   7.652  10.193  1.3499 -0.0527  0.1635
 1024MOL0     H38208  10.849   7.773  10.343  0.1512  1.4987 -2.5814
 1024MOL0     H38209  10.904   7.610  10.402  0.0587  0.8030  1.4159
 1024MOL0     H38210  10.941   7.761  10.130 -4.1175 -1.9138 -1.5957
 1024MOL0     H38211  10.962   7.590  10.140  1.6891  0.2095 -0.6377
 1024MOL0     H38212  11.114   7.756  10.347 -0.0413 -2.0717  2.4119
 1024MOL0     H38213  11.155   7.741  10.177 -1.7504  1.5750  0.1976
 1024MOL0     H38214  11.082   7.502  10.364 -1.4371 -1.4965 -2.7197
 1024MOL0     H38215  11.166   7.490  10.206 -2.3250 -0.8885  0.4449
 1024MOL0     H38216  11.302   7.600  10.452  0.7899  0.3874  1.1030
 1024MOL0     H38217  11.345   7.649  10.289  1.1332 -0.8627 -0.1031
 1024MOL0     H38218  11.326   7.359  10.381  2.0191 -0.4218  1.2470
 1024MOL0     H38219  11.394   7.424  10.228 -2.5454  3.9613 -1.9824
 1024MOL0     H38220  10.271   7.458  10.321 -0.8407  1.2185 -1.7734
 1024MOL0     H38221  10.074   7.459  10.457 -0.2346  0.5328 -0.1753
 1024MOL0     H38222   9.825   7.473  10.796  1.1840 -2.0719  3.3725
 1024MOL0     H38223   9.634   7.472  10.939  0.3371 -0.3967  2.0173
 1024MOL0     H38224   8.062   7.248  10.816 -1.2265 -1.8887 -0.9129
 1024MOL0     H38225   7.843   7.141  10.884 -2.5778 -1.5455 -0.1781
 1024MOL0     H38226   7.250   7.236  10.876 -1.3453  1.3844 -1.3431
 1024MOL0     H38227   7.076   7.059  10.861  1.7257  4.4052  2.5252
 1024MOL0     H38228   6.924   6.920  10.761  0.9815 -4.9006  2.2101
 1024MOL0     H38229   6.911   6.782  10.657  1.2678 -1.2278  1.6854
 1024MOL0     H38230   6.962   7.064  10.550  0.3972 -0.1174 -0.7277
 1024MOL0     H38231   6.806   7.015  10.599  0.7371  3.1831 -0.8132
 1024MOL0     H38232   6.776   6.863  10.431  0.1394  1.1390  2.4221
 1024MOL0     H38233   6.946   6.835  10.392  2.2651  3.1868 -3.5394
 1024MOL0     H38234   6.784   7.070  10.330 -1.0983 -1.4630  1.1297
 1024MOL0     H38235   6.960   7.065  10.304 -0.2160 -0.7312  0.5460
 1024MOL0     H38236   6.778   6.844   9.972  2.5127  0.6721 -2.2147
 1024MOL0     H38237   7.331   6.850  10.580  3.7412 -1.0414  3.0859
 1024MOL0     H38238   7.617   6.959  10.636 -1.3962 -1.5725  1.1239
 1024MOL0     H38239   7.511   6.950  10.498  2.3781 -0.0063 -0.1588
 1024MOL0     H38240   7.570   7.107  10.539  2.7221 -1.0750 -0.0195
  11.42275  11.42275  11.42275
